<event>
 7    1  0.8697654E-014  0.5052887E+02  0.7816164E-02  0.1300439E+00
        -11   -1    0    0    0    0  0.00000000000E+00  0.00000000000E+00  0.45593999997E+02  0.45594000000E+02  0.51100000000E-03 0. -1.
         11   -1    0    0    0    0 -0.00000000000E+00 -0.00000000000E+00 -0.45593999997E+02  0.45594000000E+02  0.51100000000E-03 0.  1.
    9900012    2    1    2    0    0  0.15716410903E+02  0.27765780918E+02  0.25203588242E+02  0.50528867915E+02  0.30000024513E+02 0.  0.
        -12    1    1    2    0    0 -0.15716410903E+02 -0.27765780918E+02 -0.25203588242E+02  0.40659132085E+02  0.00000000000E+00 0.  1.
         11    1    3    3    0    0 -0.35760137500E+01  0.86370287166E+01  0.48168812816E+01  0.10516105978E+02  0.51100000000E-03 0. -1.
        -11    1    3    3    0    0  0.60644552324E+01 -0.42244869906E+01  0.26941152998E+01  0.78665217923E+01  0.51100000000E-03 0.  1.
        -12    1    3    3    0    0  0.13227969421E+02  0.23353239192E+02  0.17692591660E+02  0.32146240145E+02  0.00000000000E+00 0.  1.
</event>
<event>
 7    1  0.8697654E-014  0.5052889E+02  0.7816164E-02  0.1300439E+00
        -11   -1    0    0    0    0  0.00000000000E+00  0.00000000000E+00  0.45593999997E+02  0.45594000000E+02  0.51100000000E-03 0. -1.
         11   -1    0    0    0    0 -0.00000000000E+00 -0.00000000000E+00 -0.45593999997E+02  0.45594000000E+02  0.51100000000E-03 0.  1.
    9900012    2    1    2    0    0 -0.44847653363E+01 -0.23165467367E+02  0.33112095395E+02  0.50528894502E+02  0.30000105327E+02 0.  0.
        -12    1    1    2    0    0  0.44847653363E+01  0.23165467367E+02 -0.33112095395E+02  0.40659105498E+02  0.00000000000E+00 0.  1.
         11    1    3    3    0    0  0.17176639497E+01 -0.15096607987E+02  0.11025934193E+02  0.18773096901E+02  0.51100000000E-03 0. -1.
        -11    1    3    3    0    0  0.26949592001E+01 -0.11372395820E+02  0.61478603705E+01  0.13205694952E+02  0.51100000000E-03 0.  1.
         12    1    3    3    0    0 -0.88973884861E+01  0.33035364396E+01  0.15938300831E+02  0.18550102648E+02  0.00000000000E+00 0. -1.
</event>
<event>
 7    1  0.8697654E-014  0.5052890E+02  0.7816164E-02  0.1300439E+00
        -11   -1    0    0    0    0  0.00000000000E+00  0.00000000000E+00  0.45593999997E+02  0.45594000000E+02  0.51100000000E-03 0. -1.
         11   -1    0    0    0    0 -0.00000000000E+00 -0.00000000000E+00 -0.45593999997E+02  0.45594000000E+02  0.51100000000E-03 0.  1.
    9900012    2    1    2    0    0  0.28750286579E+02 -0.23096957623E+02  0.17120575283E+02  0.50528898585E+02  0.30000117740E+02 0.  0.
        -12    1    1    2    0    0 -0.28750286579E+02  0.23096957623E+02 -0.17120575283E+02  0.40659101415E+02  0.00000000000E+00 0.  1.
         11    1    3    3    0    0  0.67861992130E+01 -0.33938822704E+01  0.49186479036E+01  0.90423467134E+01  0.51100000000E-03 0. -1.
        -11    1    3    3    0    0  0.17966921671E+02 -0.48885987345E+01 -0.41348505531E+01  0.19073690290E+02  0.51100000000E-03 0.  1.
         12    1    3    3    0    0  0.39971656944E+01 -0.14814476619E+02  0.16336777932E+02  0.22412861582E+02  0.00000000000E+00 0. -1.
</event>
<event>
 7    1  0.8697654E-014  0.5052886E+02  0.7816164E-02  0.1300439E+00
        -11   -1    0    0    0    0  0.00000000000E+00  0.00000000000E+00  0.45593999997E+02  0.45594000000E+02  0.51100000000E-03 0. -1.
         11   -1    0    0    0    0 -0.00000000000E+00 -0.00000000000E+00 -0.45593999997E+02  0.45594000000E+02  0.51100000000E-03 0.  1.
    9900012    2    1    2    0    0  0.10825346882E+02  0.29582717268E+02  0.25706816369E+02  0.50528859529E+02  0.29999999024E+02 0.  0.
        -12    1    1    2    0    0 -0.10825346882E+02 -0.29582717268E+02 -0.25706816369E+02  0.40659140471E+02  0.00000000000E+00 0.  1.
         11    1    3    3    0    0  0.31966933639E+01  0.57329928115E+01 -0.35653114346E+01  0.74697724816E+01  0.51100000000E-03 0. -1.
        -11    1    3    3    0    0  0.11139739591E+02  0.76672889575E+01  0.19814813409E+02  0.23989746743E+02  0.51100000000E-03 0.  1.
         12    1    3    3    0    0 -0.35110860736E+01  0.16182435499E+02  0.94573143947E+01  0.19069340304E+02  0.00000000000E+00 0. -1.
</event>
<event>
 7    1  0.8697654E-014  0.5052881E+02  0.7816164E-02  0.1300439E+00
        -11   -1    0    0    0    0  0.00000000000E+00  0.00000000000E+00  0.45593999997E+02  0.45594000000E+02  0.51100000000E-03 0.  1.
         11   -1    0    0    0    0 -0.00000000000E+00 -0.00000000000E+00 -0.45593999997E+02  0.45594000000E+02  0.51100000000E-03 0. -1.
    9900012    2    1    2    0    0 -0.35319338116E+02 -0.13855404976E+02  0.14619907778E+02  0.50528811672E+02  0.29999853559E+02 0.  0.
        -12    1    1    2    0    0  0.35319338116E+02  0.13855404976E+02 -0.14619907778E+02  0.40659188328E+02  0.00000000000E+00 0.  1.
         11    1    3    3    0    0 -0.44664921438E+01 -0.32345020151E+01 -0.90225037237E+00  0.55879881309E+01  0.51100000000E-03 0. -1.
        -11    1    3    3    0    0 -0.20255638963E+02  0.58218428410E+01  0.14037722162E+02  0.25322764613E+02  0.51100000000E-03 0.  1.
        -12    1    3    3    0    0 -0.10597207010E+02 -0.16442745802E+02  0.14844359881E+01  0.19618058929E+02  0.00000000000E+00 0.  1.
</event>
<event>
 7    1  0.8697654E-014  0.5052886E+02  0.7816164E-02  0.1300439E+00
        -11   -1    0    0    0    0  0.00000000000E+00  0.00000000000E+00  0.45593999997E+02  0.45594000000E+02  0.51100000000E-03 0. -1.
         11   -1    0    0    0    0 -0.00000000000E+00 -0.00000000000E+00 -0.45593999997E+02  0.45594000000E+02  0.51100000000E-03 0.  1.
    9900012    2    1    2    0    0 -0.25582190992E+02 -0.26538222203E+02  0.17159247386E+02  0.50528861980E+02  0.30000006476E+02 0.  0.
        -12    1    1    2    0    0  0.25582190992E+02  0.26538222203E+02 -0.17159247386E+02  0.40659138020E+02  0.00000000000E+00 0.  1.
         11    1    3    3    0    0 -0.65014196325E+00 -0.10253470162E+01 -0.16227679875E+01  0.20266714777E+01  0.51100000000E-03 0.  1.
        -11    1    3    3    0    0 -0.29930884654E+01 -0.74891402720E+01  0.18418267085E+02  0.20106674594E+02  0.51100000000E-03 0. -1.
        -12    1    3    3    0    0 -0.21938960563E+02 -0.18023734915E+02  0.36374828849E+00  0.28395515908E+02  0.00000000000E+00 0.  1.
</event>
<event>
 7    1  0.8697654E-014  0.5052886E+02  0.7816164E-02  0.1300439E+00
        -11   -1    0    0    0    0  0.00000000000E+00  0.00000000000E+00  0.45593999997E+02  0.45594000000E+02  0.51100000000E-03 0. -1.
         11   -1    0    0    0    0 -0.00000000000E+00 -0.00000000000E+00 -0.45593999997E+02  0.45594000000E+02  0.51100000000E-03 0.  1.
    9900012    2    1    2    0    0 -0.10157758507E+02  0.33350366735E+01 -0.39228344241E+02  0.50528861797E+02  0.30000005918E+02 0.  0.
         12    1    1    2    0    0  0.10157758507E+02 -0.33350366735E+01  0.39228344241E+02  0.40659138203E+02  0.00000000000E+00 0. -1.
         11    1    3    3    0    0 -0.32596583652E+01 -0.58381403281E+01 -0.60489583408E+01  0.90166042620E+01  0.51100000000E-03 0. -1.
        -11    1    3    3    0    0 -0.52779968122E+01  0.27372449140E+01  0.15582096244E+01  0.61463629541E+01  0.51100000000E-03 0.  1.
        -12    1    3    3    0    0 -0.16201033297E+01  0.64359320876E+01 -0.34737595525E+02  0.35365894581E+02  0.00000000000E+00 0.  1.
</event>
<event>
 7    1  0.8697654E-014  0.5052886E+02  0.7816164E-02  0.1300439E+00
        -11   -1    0    0    0    0  0.00000000000E+00  0.00000000000E+00  0.45593999997E+02  0.45594000000E+02  0.51100000000E-03 0. -1.
         11   -1    0    0    0    0 -0.00000000000E+00 -0.00000000000E+00 -0.45593999997E+02  0.45594000000E+02  0.51100000000E-03 0.  1.
    9900012    2    1    2    0    0  0.18561291737E+01 -0.12554253053E+02  0.38627855808E+02  0.50528859212E+02  0.29999998062E+02 0.  0.
        -12    1    1    2    0    0 -0.18561291737E+01  0.12554253053E+02 -0.38627855808E+02  0.40659140788E+02  0.00000000000E+00 0.  1.
         11    1    3    3    0    0 -0.66147006253E+01 -0.10693124177E+02  0.10474201910E+02  0.16364781543E+02  0.51100000000E-03 0. -1.
        -11    1    3    3    0    0  0.41619513315E+01 -0.11249186226E+01 -0.12091695278E+01  0.44776525101E+01  0.51100000000E-03 0.  1.
         12    1    3    3    0    0  0.43088784675E+01 -0.73621025332E+00  0.29362823426E+02  0.29686425159E+02  0.00000000000E+00 0. -1.
</event>
<event>
 7    1  0.8697654E-014  0.5052885E+02  0.7816164E-02  0.1300439E+00
        -11   -1    0    0    0    0  0.00000000000E+00  0.00000000000E+00  0.45593999997E+02  0.45594000000E+02  0.51100000000E-03 0. -1.
         11   -1    0    0    0    0 -0.00000000000E+00 -0.00000000000E+00 -0.45593999997E+02  0.45594000000E+02  0.51100000000E-03 0.  1.
    9900012    2    1    2    0    0  0.78493128498E+01 -0.32419285242E+02  0.23249612478E+02  0.50528852835E+02  0.29999978677E+02 0.  0.
        -12    1    1    2    0    0 -0.78493128498E+01  0.32419285242E+02 -0.23249612478E+02  0.40659147165E+02  0.00000000000E+00 0.  1.
         11    1    3    3    0    0 -0.24834753243E+01 -0.75064304670E+01  0.30431701205E+01  0.84720146769E+01  0.51100000000E-03 0. -1.
        -11    1    3    3    0    0  0.12381509458E+02 -0.28510752617E+02  0.12889527324E+02  0.33649735603E+02  0.51100000000E-03 0.  1.
        -12    1    3    3    0    0 -0.20487212840E+01  0.35978978415E+01  0.73169150329E+01  0.84071025553E+01  0.00000000000E+00 0.  1.
</event>
<event>
 7    1  0.8697654E-014  0.5052886E+02  0.7816164E-02  0.1300439E+00
        -11   -1    0    0    0    0  0.00000000000E+00  0.00000000000E+00  0.45593999997E+02  0.45594000000E+02  0.51100000000E-03 0. -1.
         11   -1    0    0    0    0 -0.00000000000E+00 -0.00000000000E+00 -0.45593999997E+02  0.45594000000E+02  0.51100000000E-03 0.  1.
    9900012    2    1    2    0    0  0.36813953225E+02 -0.98050171565E+01  0.14204217514E+02  0.50528864389E+02  0.30000013796E+02 0.  0.
        -12    1    1    2    0    0 -0.36813953225E+02  0.98050171565E+01 -0.14204217514E+02  0.40659135611E+02  0.00000000000E+00 0.  1.
         11    1    3    3    0    0  0.14213669322E+02  0.43525299127E+01  0.28295064263E+01  0.15132052707E+02  0.51100000000E-03 0. -1.
        -11    1    3    3    0    0  0.59491692807E+01 -0.23115298854E+01  0.13419327196E+02  0.14859815887E+02  0.51100000000E-03 0.  1.
         12    1    3    3    0    0  0.16651114621E+02 -0.11846017184E+02 -0.20446161077E+01  0.20536995795E+02  0.00000000000E+00 0. -1.
</event>
<event>
 7    1  0.8697654E-014  0.5052886E+02  0.7816164E-02  0.1300439E+00
        -11   -1    0    0    0    0  0.00000000000E+00  0.00000000000E+00  0.45593999997E+02  0.45594000000E+02  0.51100000000E-03 0. -1.
         11   -1    0    0    0    0 -0.00000000000E+00 -0.00000000000E+00 -0.45593999997E+02  0.45594000000E+02  0.51100000000E-03 0.  1.
    9900012    2    1    2    0    0 -0.16351680929E+01 -0.23429109995E+02  0.33189892087E+02  0.50528857036E+02  0.29999991446E+02 0.  0.
        -12    1    1    2    0    0  0.16351680929E+01  0.23429109995E+02 -0.33189892087E+02  0.40659142964E+02  0.00000000000E+00 0.  1.
         11    1    3    3    0    0 -0.48833168354E+01 -0.38944822305E+01  0.18211455011E+02  0.19252814574E+02  0.51100000000E-03 0. -1.
        -11    1    3    3    0    0 -0.73760220913E+01 -0.10932238973E+02  0.41148700944E+01  0.13814908867E+02  0.51100000000E-03 0.  1.
        -12    1    3    3    0    0  0.10624170834E+02 -0.86023887915E+01  0.10863566981E+02  0.17461133594E+02  0.00000000000E+00 0.  1.
</event>
<event>
 7    1  0.8697654E-014  0.5052886E+02  0.7816164E-02  0.1300439E+00
        -11   -1    0    0    0    0  0.00000000000E+00  0.00000000000E+00  0.45593999997E+02  0.45594000000E+02  0.51100000000E-03 0.  1.
         11   -1    0    0    0    0 -0.00000000000E+00 -0.00000000000E+00 -0.45593999997E+02  0.45594000000E+02  0.51100000000E-03 0. -1.
    9900012    2    1    2    0    0  0.39205886694E+02 -0.88722320940E+01  0.61112712262E+01  0.50528859701E+02  0.29999999549E+02 0.  0.
        -12    1    1    2    0    0 -0.39205886694E+02  0.88722320940E+01 -0.61112712262E+01  0.40659140299E+02  0.00000000000E+00 0.  1.
         11    1    3    3    0    0  0.98816192226E+01 -0.10162688880E+02 -0.13571307111E+01  0.14239678640E+02  0.51100000000E-03 0. -1.
        -11    1    3    3    0    0  0.37083061220E+01 -0.31902869147E+01  0.89954273411E+01  0.10239491111E+02  0.51100000000E-03 0.  1.
         12    1    3    3    0    0  0.25615961350E+02  0.44807437007E+01 -0.15270254037E+01  0.26049689951E+02  0.00000000000E+00 0. -1.
</event>
<event>
 7    1  0.8697654E-014  0.5052885E+02  0.7816164E-02  0.1300439E+00
        -11   -1    0    0    0    0  0.00000000000E+00  0.00000000000E+00  0.45593999997E+02  0.45594000000E+02  0.51100000000E-03 0. -1.
         11   -1    0    0    0    0 -0.00000000000E+00 -0.00000000000E+00 -0.45593999997E+02  0.45594000000E+02  0.51100000000E-03 0.  1.
    9900012    2    1    2    0    0  0.24815500809E+02 -0.29745293767E+01 -0.32070378658E+02  0.50528854747E+02  0.29999984489E+02 0.  0.
         12    1    1    2    0    0 -0.24815500809E+02  0.29745293767E+01  0.32070378658E+02  0.40659145253E+02  0.00000000000E+00 0. -1.
         11    1    3    3    0    0  0.58256108676E+01  0.50313680265E+01 -0.15767965634E+02  0.17546542300E+02  0.51100000000E-03 0. -1.
        -11    1    3    3    0    0  0.68301510056E+01 -0.12373293595E+01 -0.17683751579E+02  0.18997289724E+02  0.51100000000E-03 0.  1.
         12    1    3    3    0    0  0.12159738936E+02 -0.67685680437E+01  0.13813385545E+01  0.13985022723E+02  0.00000000000E+00 0. -1.
</event>
<event>
 7    1  0.8697654E-014  0.5052886E+02  0.7816164E-02  0.1300439E+00
        -11   -1    0    0    0    0  0.00000000000E+00  0.00000000000E+00  0.45593999997E+02  0.45594000000E+02  0.51100000000E-03 0. -1.
         11   -1    0    0    0    0 -0.00000000000E+00 -0.00000000000E+00 -0.45593999997E+02  0.45594000000E+02  0.51100000000E-03 0.  1.
    9900012    2    1    2    0    0  0.28214913411E+01 -0.47166246827E+01  0.40285956690E+02  0.50528859967E+02  0.30000000356E+02 0.  0.
        -12    1    1    2    0    0 -0.28214913411E+01  0.47166246827E+01 -0.40285956690E+02  0.40659140033E+02  0.00000000000E+00 0.  1.
         11    1    3    3    0    0 -0.29865679893E+01 -0.28385210240E+01  0.13446243786E+02  0.14063365962E+02  0.51100000000E-03 0.  1.
        -11    1    3    3    0    0  0.45337794579E+01  0.56123604177E+01  0.27878299098E+02  0.28796758611E+02  0.51100000000E-03 0. -1.
        -12    1    3    3    0    0  0.12742798725E+01 -0.74904640764E+01 -0.10385861941E+01  0.76687353948E+01  0.00000000000E+00 0.  1.
</event>
<event>
 7    1  0.8746565E-014  0.5052887E+02  0.7816164E-02  0.1300439E+00
        -11   -1    0    0    0    0  0.00000000000E+00  0.00000000000E+00  0.45593999997E+02  0.45594000000E+02  0.51100000000E-03 0. -1.
         11   -1    0    0    0    0 -0.00000000000E+00 -0.00000000000E+00 -0.45593999997E+02  0.45594000000E+02  0.51100000000E-03 0.  1.
    9900012    2    1    2    0    0  0.18861355724E+02 -0.91329300438E+01 -0.34842557804E+02  0.50528868366E+02  0.30000025884E+02 0.  0.
         12    1    1    2    0    0 -0.18861355724E+02  0.91329300438E+01  0.34842557804E+02  0.40659131634E+02  0.00000000000E+00 0. -1.
         11    1    3    3    0    0  0.14251042942E+02 -0.16112763533E+01 -0.89859706600E+01  0.16924423339E+02  0.51100000000E-03 0. -1.
        -11    1    3    3    0    0  0.10557237953E+02 -0.10196798262E+02 -0.20216894568E+02  0.24983050138E+02  0.51100000000E-03 0.  1.
         12    1    3    3    0    0 -0.59469251704E+01  0.26751445714E+01 -0.56396925760E+01  0.86213948878E+01  0.00000000000E+00 0. -1.
</event>
<event>
 7    1  0.8697654E-014  0.5052886E+02  0.7816164E-02  0.1300439E+00
        -11   -1    0    0    0    0  0.00000000000E+00  0.00000000000E+00  0.45593999997E+02  0.45594000000E+02  0.51100000000E-03 0. -1.
         11   -1    0    0    0    0 -0.00000000000E+00 -0.00000000000E+00 -0.45593999997E+02  0.45594000000E+02  0.51100000000E-03 0.  1.
    9900012    2    1    2    0    0  0.15977180887E+02  0.26979930245E+02  0.25883941203E+02  0.50528863790E+02  0.30000011977E+02 0.  0.
        -12    1    1    2    0    0 -0.15977180887E+02 -0.26979930245E+02 -0.25883941203E+02  0.40659136210E+02  0.00000000000E+00 0.  1.
         11    1    3    3    0    0  0.86660849675E+01  0.18489735388E+02  0.16570643714E+01  0.20487000902E+02  0.51100000000E-03 0. -1.
        -11    1    3    3    0    0  0.57409166096E+01  0.21577147913E+00  0.16986679072E+01  0.59908391540E+01  0.51100000000E-03 0.  1.
         12    1    3    3    0    0  0.15701793097E+01  0.82744233783E+01  0.22528208925E+02  0.24051023734E+02  0.00000000000E+00 0. -1.
</event>
<event>
 7    1  0.8697654E-014  0.5052887E+02  0.7816164E-02  0.1300439E+00
        -11   -1    0    0    0    0  0.00000000000E+00  0.00000000000E+00  0.45593999997E+02  0.45594000000E+02  0.51100000000E-03 0. -1.
         11   -1    0    0    0    0 -0.00000000000E+00 -0.00000000000E+00 -0.45593999997E+02  0.45594000000E+02  0.51100000000E-03 0.  1.
    9900012    2    1    2    0    0 -0.37045238943E+02 -0.10295552351E+02  0.13221835062E+02  0.50528867582E+02  0.30000023502E+02 0.  0.
        -12    1    1    2    0    0  0.37045238943E+02  0.10295552351E+02 -0.13221835062E+02  0.40659132418E+02  0.00000000000E+00 0.  1.
         11    1    3    3    0    0 -0.49730116207E+01  0.84052852855E+00  0.29778286407E+01  0.58570296620E+01  0.51100000000E-03 0. -1.
        -11    1    3    3    0    0 -0.19200258269E+02 -0.16768756809E+02 -0.26144791918E+01  0.25625702414E+02  0.51100000000E-03 0.  1.
         12    1    3    3    0    0 -0.12871969053E+02  0.56326759297E+01  0.12858485613E+02  0.19046135506E+02  0.00000000000E+00 0. -1.
</event>
<event>
 7    1  0.8697654E-014  0.5052886E+02  0.7816164E-02  0.1300439E+00
        -11   -1    0    0    0    0  0.00000000000E+00  0.00000000000E+00  0.45593999997E+02  0.45594000000E+02  0.51100000000E-03 0. -1.
         11   -1    0    0    0    0 -0.00000000000E+00 -0.00000000000E+00 -0.45593999997E+02  0.45594000000E+02  0.51100000000E-03 0.  1.
    9900012    2    1    2    0    0  0.19598301646E+02 -0.81675360182E+01 -0.34675116661E+02  0.50528858501E+02  0.29999995899E+02 0.  0.
         12    1    1    2    0    0 -0.19598301646E+02  0.81675360182E+01  0.34675116661E+02  0.40659141499E+02  0.00000000000E+00 0. -1.
         11    1    3    3    0    0  0.50075088647E+00 -0.38774470944E+01 -0.21647303439E+02  0.21997524721E+02  0.51100000000E-03 0. -1.
        -11    1    3    3    0    0  0.14217891905E+02  0.15883877146E+01 -0.14909529849E+02  0.20663143671E+02  0.51100000000E-03 0.  1.
        -12    1    3    3    0    0  0.48796588548E+01 -0.58784766384E+01  0.18817166274E+01  0.78681901091E+01  0.00000000000E+00 0.  1.
</event>
<event>
 7    1  0.8697654E-014  0.5052887E+02  0.7816164E-02  0.1300439E+00
        -11   -1    0    0    0    0  0.00000000000E+00  0.00000000000E+00  0.45593999997E+02  0.45594000000E+02  0.51100000000E-03 0. -1.
         11   -1    0    0    0    0 -0.00000000000E+00 -0.00000000000E+00 -0.45593999997E+02  0.45594000000E+02  0.51100000000E-03 0.  1.
    9900012    2    1    2    0    0  0.27976174977E+01  0.19575990340E+02 -0.35526316720E+02  0.50528865219E+02  0.30000016321E+02 0.  0.
         12    1    1    2    0    0 -0.27976174977E+01 -0.19575990340E+02  0.35526316720E+02  0.40659134781E+02  0.00000000000E+00 0. -1.
         11    1    3    3    0    0 -0.26929442534E+01  0.14961561082E+02 -0.12806368684E+02  0.19877206491E+02  0.51100000000E-03 0. -1.
        -11    1    3    3    0    0 -0.35517931315E+01  0.96006179157E+01 -0.11842266239E+02  0.15653318138E+02  0.51100000000E-03 0.  1.
         12    1    3    3    0    0  0.90423548826E+01 -0.49861886587E+01 -0.10877681797E+02  0.14998340590E+02  0.00000000000E+00 0. -1.
</event>
<event>
 7    1  0.8697654E-014  0.5052886E+02  0.7816164E-02  0.1300439E+00
        -11   -1    0    0    0    0  0.00000000000E+00  0.00000000000E+00  0.45593999997E+02  0.45594000000E+02  0.51100000000E-03 0. -1.
         11   -1    0    0    0    0 -0.00000000000E+00 -0.00000000000E+00 -0.45593999997E+02  0.45594000000E+02  0.51100000000E-03 0.  1.
    9900012    2    1    2    0    0  0.15197024690E+02  0.21921937340E+02 -0.30686231445E+02  0.50528859620E+02  0.29999999300E+02 0.  0.
         12    1    1    2    0    0 -0.15197024690E+02 -0.21921937340E+02  0.30686231445E+02  0.40659140380E+02  0.00000000000E+00 0. -1.
         11    1    3    3    0    0 -0.16845040027E+01 -0.31597992187E+01 -0.52022417495E+01  0.63154734041E+01  0.51100000000E-03 0. -1.
        -11    1    3    3    0    0  0.58903217522E+00  0.12641733439E+02 -0.18780109029E+02  0.22646255289E+02  0.51100000000E-03 0.  1.
        -12    1    3    3    0    0  0.16292496518E+02  0.12440003120E+02 -0.67038806669E+01  0.21567130926E+02  0.00000000000E+00 0.  1.
</event>
<event>
 7    1  0.8697654E-014  0.5052887E+02  0.7816164E-02  0.1300439E+00
        -11   -1    0    0    0    0  0.00000000000E+00  0.00000000000E+00  0.45593999997E+02  0.45594000000E+02  0.51100000000E-03 0. -1.
         11   -1    0    0    0    0 -0.00000000000E+00 -0.00000000000E+00 -0.45593999997E+02  0.45594000000E+02  0.51100000000E-03 0.  1.
    9900012    2    1    2    0    0 -0.45409752056E+01 -0.12284705510E+02  0.38491949043E+02  0.50528873271E+02  0.30000040794E+02 0.  0.
        -12    1    1    2    0    0  0.45409752056E+01  0.12284705510E+02 -0.38491949043E+02  0.40659126729E+02  0.00000000000E+00 0.  1.
         11    1    3    3    0    0  0.68384649554E+01  0.40923660971E+01  0.22067041262E+02  0.23462019809E+02  0.51100000000E-03 0. -1.
        -11    1    3    3    0    0 -0.34657699704E+01 -0.66125720447E+00  0.99999866962E+00  0.36672633091E+01  0.51100000000E-03 0.  1.
        -12    1    3    3    0    0 -0.79136701906E+01 -0.15715814402E+02  0.15424909111E+02  0.23399590152E+02  0.00000000000E+00 0.  1.
</event>
<event>
 7    1  0.8697654E-014  0.5052886E+02  0.7816164E-02  0.1300439E+00
        -11   -1    0    0    0    0  0.00000000000E+00  0.00000000000E+00  0.45593999997E+02  0.45594000000E+02  0.51100000000E-03 0. -1.
         11   -1    0    0    0    0 -0.00000000000E+00 -0.00000000000E+00 -0.45593999997E+02  0.45594000000E+02  0.51100000000E-03 0.  1.
    9900012    2    1    2    0    0 -0.24717778383E+02 -0.15475910027E+01 -0.32245960384E+02  0.50528861209E+02  0.30000004132E+02 0.  0.
         12    1    1    2    0    0  0.24717778383E+02  0.15475910027E+01  0.32245960384E+02  0.40659138791E+02  0.00000000000E+00 0. -1.
         11    1    3    3    0    0  0.28507287228E+01 -0.90289320624E+01 -0.11390997491E+02  0.14812261560E+02  0.51100000000E-03 0. -1.
        -11    1    3    3    0    0 -0.47891049116E+00  0.99183912730E+00 -0.46551615165E+00  0.11957448146E+01  0.51100000000E-03 0.  1.
        -12    1    3    3    0    0 -0.27089596615E+02  0.64895019324E+01 -0.20389446742E+02  0.34520854834E+02  0.00000000000E+00 0.  1.
</event>
<event>
 7    1  0.8697654E-014  0.5052882E+02  0.7816164E-02  0.1300439E+00
        -11   -1    0    0    0    0  0.00000000000E+00  0.00000000000E+00  0.45593999997E+02  0.45594000000E+02  0.51100000000E-03 0. -1.
         11   -1    0    0    0    0 -0.00000000000E+00 -0.00000000000E+00 -0.45593999997E+02  0.45594000000E+02  0.51100000000E-03 0.  1.
    9900012    2    1    2    0    0 -0.23956778726E+02 -0.29977885775E+02  0.13437550405E+02  0.50528823381E+02  0.29999889147E+02 0.  0.
        -12    1    1    2    0    0  0.23956778726E+02  0.29977885775E+02 -0.13437550405E+02  0.40659176619E+02  0.00000000000E+00 0.  1.
         11    1    3    3    0    0 -0.47414050128E+01 -0.15239793719E+01 -0.20606310045E+01  0.53897713327E+01  0.51100000000E-03 0. -1.
        -11    1    3    3    0    0 -0.83237520997E+01 -0.24878079167E+02  0.47015709027E+00  0.26237848997E+02  0.51100000000E-03 0.  1.
         12    1    3    3    0    0 -0.10891621614E+02 -0.35758272360E+01  0.15028024320E+02  0.18901203050E+02  0.00000000000E+00 0. -1.
</event>
<event>
 7    1  0.8697654E-014  0.5052885E+02  0.7816164E-02  0.1300439E+00
        -11   -1    0    0    0    0  0.00000000000E+00  0.00000000000E+00  0.45593999997E+02  0.45594000000E+02  0.51100000000E-03 0. -1.
         11   -1    0    0    0    0 -0.00000000000E+00 -0.00000000000E+00 -0.45593999997E+02  0.45594000000E+02  0.51100000000E-03 0.  1.
    9900012    2    1    2    0    0 -0.35121169111E+02 -0.20047928459E+02  0.42131637855E+01  0.50528847226E+02  0.29999961629E+02 0.  0.
        -12    1    1    2    0    0  0.35121169111E+02  0.20047928459E+02 -0.42131637855E+01  0.40659152774E+02  0.00000000000E+00 0.  1.
         11    1    3    3    0    0 -0.68495757577E+01 -0.12567891925E+02 -0.40502081641E+01  0.14875240567E+02  0.51100000000E-03 0. -1.
        -11    1    3    3    0    0 -0.32408580054E+01  0.32048031948E+01 -0.37519286260E+01  0.59034644747E+01  0.51100000000E-03 0.  1.
         12    1    3    3    0    0 -0.25030735348E+02 -0.10684839729E+02  0.12015300576E+02  0.29750142185E+02  0.00000000000E+00 0. -1.
</event>
<event>
 7    1  0.8697654E-014  0.5052886E+02  0.7816164E-02  0.1300439E+00
        -11   -1    0    0    0    0  0.00000000000E+00  0.00000000000E+00  0.45593999997E+02  0.45594000000E+02  0.51100000000E-03 0. -1.
         11   -1    0    0    0    0 -0.00000000000E+00 -0.00000000000E+00 -0.45593999997E+02  0.45594000000E+02  0.51100000000E-03 0.  1.
    9900012    2    1    2    0    0 -0.10557669855E+02  0.43188690030E+01 -0.39026255113E+02  0.50528860678E+02  0.30000002517E+02 0.  0.
         12    1    1    2    0    0  0.10557669855E+02 -0.43188690030E+01  0.39026255113E+02  0.40659139322E+02  0.00000000000E+00 0. -1.
         11    1    3    3    0    0 -0.98452062500E+00 -0.51102735384E+01 -0.93950964689E+00  0.52883697995E+01  0.51100000000E-03 0.  1.
        -11    1    3    3    0    0 -0.92650323660E+01  0.32587688465E+01 -0.40104521887E+01  0.10608681641E+02  0.51100000000E-03 0. -1.
        -12    1    3    3    0    0 -0.30811686393E+00  0.61703736949E+01 -0.34076293278E+02  0.34631809238E+02  0.00000000000E+00 0.  1.
</event>
<event>
 7    1  0.8697654E-014  0.5052886E+02  0.7816164E-02  0.1300439E+00
        -11   -1    0    0    0    0  0.00000000000E+00  0.00000000000E+00  0.45593999997E+02  0.45594000000E+02  0.51100000000E-03 0. -1.
         11   -1    0    0    0    0 -0.00000000000E+00 -0.00000000000E+00 -0.45593999997E+02  0.45594000000E+02  0.51100000000E-03 0.  1.
    9900012    2    1    2    0    0  0.79572401352E+01  0.19788017829E+02  0.34616216728E+02  0.50528858584E+02  0.29999996151E+02 0.  0.
        -12    1    1    2    0    0 -0.79572401352E+01 -0.19788017829E+02 -0.34616216728E+02  0.40659141416E+02  0.00000000000E+00 0.  1.
         11    1    3    3    0    0  0.89734014902E+01  0.22767484652E+02  0.23947124837E+02  0.34239525112E+02  0.51100000000E-03 0. -1.
        -11    1    3    3    0    0  0.45005274243E+01  0.35629227778E+00  0.82483559679E+01  0.94030350270E+01  0.51100000000E-03 0.  1.
        -12    1    3    3    0    0 -0.55166887793E+01 -0.33357591006E+01  0.24207359226E+01  0.68862984449E+01  0.00000000000E+00 0.  1.
</event>
<event>
 7    1  0.8697654E-014  0.5052882E+02  0.7816164E-02  0.1300439E+00
        -11   -1    0    0    0    0  0.00000000000E+00  0.00000000000E+00  0.45593999997E+02  0.45594000000E+02  0.51100000000E-03 0. -1.
         11   -1    0    0    0    0 -0.00000000000E+00 -0.00000000000E+00 -0.45593999997E+02  0.45594000000E+02  0.51100000000E-03 0.  1.
    9900012    2    1    2    0    0 -0.21927050303E+02 -0.10988185187E+02  0.32428892748E+02  0.50528821042E+02  0.29999882038E+02 0.  0.
        -12    1    1    2    0    0  0.21927050303E+02  0.10988185187E+02 -0.32428892748E+02  0.40659178958E+02  0.00000000000E+00 0.  1.
         11    1    3    3    0    0 -0.14497751883E+02 -0.50736454330E+01  0.27317896445E+01  0.15600941079E+02  0.51100000000E-03 0. -1.
        -11    1    3    3    0    0  0.57637568864E+00 -0.52244478800E+01  0.12982243881E+01  0.54140974694E+01  0.51100000000E-03 0.  1.
         12    1    3    3    0    0 -0.80056741084E+01 -0.69009187381E+00  0.28398878716E+02  0.29513782493E+02  0.00000000000E+00 0. -1.
</event>
<event>
 7    1  0.8697654E-014  0.5052886E+02  0.7816164E-02  0.1300439E+00
        -11   -1    0    0    0    0  0.00000000000E+00  0.00000000000E+00  0.45593999997E+02  0.45594000000E+02  0.51100000000E-03 0.  1.
         11   -1    0    0    0    0 -0.00000000000E+00 -0.00000000000E+00 -0.45593999997E+02  0.45594000000E+02  0.51100000000E-03 0. -1.
    9900012    2    1    2    0    0 -0.36955311982E+01  0.38035883634E+02  0.13884534811E+02  0.50528859557E+02  0.29999999109E+02 0.  0.
        -12    1    1    2    0    0  0.36955311982E+01 -0.38035883634E+02 -0.13884534811E+02  0.40659140443E+02  0.00000000000E+00 0.  1.
         11    1    3    3    0    0 -0.36371229233E+01  0.29885242430E+02  0.43580015728E+01  0.30419542341E+02  0.51100000000E-03 0. -1.
        -11    1    3    3    0    0 -0.11462954542E+01  0.25663735228E+01 -0.43118591689E+01  0.51470764596E+01  0.51100000000E-03 0.  1.
         12    1    3    3    0    0  0.10878871793E+01  0.55842676816E+01  0.13838392407E+02  0.14962240757E+02  0.00000000000E+00 0. -1.
</event>
<event>
 7    1  0.8697654E-014  0.5052884E+02  0.7816164E-02  0.1300439E+00
        -11   -1    0    0    0    0  0.00000000000E+00  0.00000000000E+00  0.45593999997E+02  0.45594000000E+02  0.51100000000E-03 0. -1.
         11   -1    0    0    0    0 -0.00000000000E+00 -0.00000000000E+00 -0.45593999997E+02  0.45594000000E+02  0.51100000000E-03 0.  1.
    9900012    2    1    2    0    0  0.10396105920E+01 -0.25974762130E+02  0.31263370577E+02  0.50528838699E+02  0.29999935710E+02 0.  0.
        -12    1    1    2    0    0 -0.10396105920E+01  0.25974762130E+02 -0.31263370577E+02  0.40659161301E+02  0.00000000000E+00 0.  1.
         11    1    3    3    0    0  0.50738131792E+01 -0.19896119642E+02  0.28108568630E+02  0.34809349142E+02  0.51100000000E-03 0. -1.
        -11    1    3    3    0    0 -0.44457355583E+01 -0.10250730825E+02  0.27565187072E+01  0.11508277141E+02  0.51100000000E-03 0.  1.
        -12    1    3    3    0    0  0.41153297114E+00  0.41720883374E+01  0.39828323936E+00  0.42112124169E+01  0.00000000000E+00 0.  1.
</event>
<event>
 7    1  0.8697654E-014  0.5052886E+02  0.7816164E-02  0.1300439E+00
        -11   -1    0    0    0    0  0.00000000000E+00  0.00000000000E+00  0.45593999997E+02  0.45594000000E+02  0.51100000000E-03 0. -1.
         11   -1    0    0    0    0 -0.00000000000E+00 -0.00000000000E+00 -0.45593999997E+02  0.45594000000E+02  0.51100000000E-03 0.  1.
    9900012    2    1    2    0    0  0.16731563561E+02  0.17958131531E+02 -0.32414903057E+02  0.50528860222E+02  0.30000001130E+02 0.  0.
         12    1    1    2    0    0 -0.16731563561E+02 -0.17958131531E+02  0.32414903057E+02  0.40659139778E+02  0.00000000000E+00 0. -1.
         11    1    3    3    0    0  0.46832744240E+01  0.18805058832E+02 -0.18834451266E+02  0.27024060608E+02  0.51100000000E-03 0. -1.
        -11    1    3    3    0    0  0.83117388215E+01 -0.29115963273E+01 -0.16240564777E+02  0.18474802839E+02  0.51100000000E-03 0.  1.
         12    1    3    3    0    0  0.37365503159E+01  0.20646690266E+01  0.26601129856E+01  0.50299967742E+01  0.00000000000E+00 0. -1.
</event>
<event>
 7    1  0.8697654E-014  0.5052884E+02  0.7816164E-02  0.1300439E+00
        -11   -1    0    0    0    0  0.00000000000E+00  0.00000000000E+00  0.45593999997E+02  0.45594000000E+02  0.51100000000E-03 0. -1.
         11   -1    0    0    0    0 -0.00000000000E+00 -0.00000000000E+00 -0.45593999997E+02  0.45594000000E+02  0.51100000000E-03 0.  1.
    9900012    2    1    2    0    0 -0.62896502600E+01 -0.63615295049E+01  0.39662806227E+02  0.50528844133E+02  0.29999952227E+02 0.  0.
        -12    1    1    2    0    0  0.62896502600E+01  0.63615295049E+01 -0.39662806227E+02  0.40659155867E+02  0.00000000000E+00 0.  1.
         11    1    3    3    0    0 -0.44423303233E+01  0.91749348883E+00  0.60321109172E+01  0.75473475726E+01  0.51100000000E-03 0. -1.
        -11    1    3    3    0    0 -0.69344271763E+01  0.35353367222E+01  0.54407885716E+00  0.78026218713E+01  0.51100000000E-03 0.  1.
        -12    1    3    3    0    0  0.50871072396E+01 -0.10814359716E+02  0.33086616452E+02  0.35178874689E+02  0.00000000000E+00 0.  1.
</event>
<event>
 7    1  0.8697654E-014  0.5052886E+02  0.7816164E-02  0.1300439E+00
        -11   -1    0    0    0    0  0.00000000000E+00  0.00000000000E+00  0.45593999997E+02  0.45594000000E+02  0.51100000000E-03 0. -1.
         11   -1    0    0    0    0 -0.00000000000E+00 -0.00000000000E+00 -0.45593999997E+02  0.45594000000E+02  0.51100000000E-03 0.  1.
    9900012    2    1    2    0    0 -0.12364956294E+02  0.42487162810E+01  0.38499633223E+02  0.50528862128E+02  0.30000006924E+02 0.  0.
        -12    1    1    2    0    0  0.12364956294E+02 -0.42487162810E+01 -0.38499633223E+02  0.40659137872E+02  0.00000000000E+00 0.  1.
         11    1    3    3    0    0 -0.15432702314E+02 -0.11896609343E+01  0.28341656607E+02  0.32292926367E+02  0.51100000000E-03 0. -1.
        -11    1    3    3    0    0 -0.13850180731E+01  0.41148683339E+01  0.12356184103E+02  0.13096782136E+02  0.51100000000E-03 0.  1.
        -12    1    3    3    0    0  0.44527640931E+01  0.13235088814E+01 -0.21982074866E+01  0.51391536251E+01  0.00000000000E+00 0.  1.
</event>
<event>
 7    1  0.8697654E-014  0.5052886E+02  0.7816164E-02  0.1300439E+00
        -11   -1    0    0    0    0  0.00000000000E+00  0.00000000000E+00  0.45593999997E+02  0.45594000000E+02  0.51100000000E-03 0. -1.
         11   -1    0    0    0    0 -0.00000000000E+00 -0.00000000000E+00 -0.45593999997E+02  0.45594000000E+02  0.51100000000E-03 0.  1.
    9900012    2    1    2    0    0 -0.75081894395E+01  0.60891314452E+01 -0.39493228036E+02  0.50528862145E+02  0.30000006976E+02 0.  0.
         12    1    1    2    0    0  0.75081894395E+01 -0.60891314452E+01  0.39493228036E+02  0.40659137855E+02  0.00000000000E+00 0. -1.
         11    1    3    3    0    0  0.34287624348E+01  0.15066718490E+01 -0.11210855082E+01  0.39093867643E+01  0.51100000000E-03 0. -1.
        -11    1    3    3    0    0  0.40926504252E+01 -0.31023997281E+01 -0.23712075158E+02  0.24261846181E+02  0.51100000000E-03 0.  1.
         12    1    3    3    0    0 -0.15029602300E+02  0.76848593242E+01 -0.14660067370E+02  0.22357629199E+02  0.00000000000E+00 0. -1.
</event>
<event>
 7    1  0.8697654E-014  0.5052886E+02  0.7816164E-02  0.1300439E+00
        -11   -1    0    0    0    0  0.00000000000E+00  0.00000000000E+00  0.45593999997E+02  0.45594000000E+02  0.51100000000E-03 0. -1.
         11   -1    0    0    0    0 -0.00000000000E+00 -0.00000000000E+00 -0.45593999997E+02  0.45594000000E+02  0.51100000000E-03 0.  1.
    9900012    2    1    2    0    0  0.76792843968E+01  0.29760640945E+02  0.26617629657E+02  0.50528863673E+02  0.30000011621E+02 0.  0.
        -12    1    1    2    0    0 -0.76792843968E+01 -0.29760640945E+02 -0.26617629657E+02  0.40659136327E+02  0.00000000000E+00 0.  1.
         11    1    3    3    0    0  0.58260520793E+01  0.18935129596E+02  0.13733333668E+02  0.24105735201E+02  0.51100000000E-03 0. -1.
        -11    1    3    3    0    0  0.44009163473E+01  0.16322256805E+02  0.10570373069E+02  0.19937826335E+02  0.51100000000E-03 0.  1.
        -12    1    3    3    0    0 -0.25476840298E+01 -0.54967454566E+01  0.23139229199E+01  0.64853021371E+01  0.00000000000E+00 0.  1.
</event>
<event>
 7    1  0.8697654E-014  0.5052886E+02  0.7816164E-02  0.1300439E+00
        -11   -1    0    0    0    0  0.00000000000E+00  0.00000000000E+00  0.45593999997E+02  0.45594000000E+02  0.51100000000E-03 0. -1.
         11   -1    0    0    0    0 -0.00000000000E+00 -0.00000000000E+00 -0.45593999997E+02  0.45594000000E+02  0.51100000000E-03 0.  1.
    9900012    2    1    2    0    0 -0.29336056628E+02  0.80506733224E+01 -0.26976808095E+02  0.50528859153E+02  0.29999997882E+02 0.  0.
         12    1    1    2    0    0  0.29336056628E+02 -0.80506733224E+01  0.26976808095E+02  0.40659140847E+02  0.00000000000E+00 0. -1.
         11    1    3    3    0    0 -0.72836204306E+01 -0.10308596287E+02 -0.10495603207E+02  0.16415723283E+02  0.51100000000E-03 0. -1.
        -11    1    3    3    0    0 -0.56006931971E+01  0.83419319731E+01 -0.88687379658E+01  0.13401869523E+02  0.51100000000E-03 0.  1.
        -12    1    3    3    0    0 -0.16451743000E+02  0.10017337636E+02 -0.76124669223E+01  0.20711266347E+02  0.00000000000E+00 0.  1.
</event>
<event>
 7    1  0.8697654E-014  0.5052886E+02  0.7816164E-02  0.1300439E+00
        -11   -1    0    0    0    0  0.00000000000E+00  0.00000000000E+00  0.45593999997E+02  0.45594000000E+02  0.51100000000E-03 0. -1.
         11   -1    0    0    0    0 -0.00000000000E+00 -0.00000000000E+00 -0.45593999997E+02  0.45594000000E+02  0.51100000000E-03 0.  1.
    9900012    2    1    2    0    0 -0.40114049424E+02 -0.57785581370E+01  0.32613905422E+01  0.50528863713E+02  0.30000011743E+02 0.  0.
        -12    1    1    2    0    0  0.40114049424E+02  0.57785581370E+01 -0.32613905422E+01  0.40659136287E+02  0.00000000000E+00 0.  1.
         11    1    3    3    0    0 -0.12710497902E+02  0.10434450289E+01  0.37922286322E+01  0.13305131819E+02  0.51100000000E-03 0. -1.
        -11    1    3    3    0    0 -0.58734483008E+01  0.88229138284E+01 -0.47148422876E+00  0.10609594762E+02  0.51100000000E-03 0.  1.
         12    1    3    3    0    0 -0.21530103221E+02 -0.15644916994E+02 -0.59353861242E-01  0.26614137133E+02  0.00000000000E+00 0. -1.
</event>
<event>
 7    1  0.8697654E-014  0.5052886E+02  0.7816164E-02  0.1300439E+00
        -11   -1    0    0    0    0  0.00000000000E+00  0.00000000000E+00  0.45593999997E+02  0.45594000000E+02  0.51100000000E-03 0. -1.
         11   -1    0    0    0    0 -0.00000000000E+00 -0.00000000000E+00 -0.45593999997E+02  0.45594000000E+02  0.51100000000E-03 0.  1.
    9900012    2    1    2    0    0  0.28751898605E+02 -0.13703858443E+02 -0.25272481257E+02  0.50528859349E+02  0.29999998477E+02 0.  0.
         12    1    1    2    0    0 -0.28751898605E+02  0.13703858443E+02  0.25272481257E+02  0.40659140651E+02  0.00000000000E+00 0. -1.
         11    1    3    3    0    0  0.85214941974E+00  0.37740955253E+01 -0.10264103665E+00  0.38704639400E+01  0.51100000000E-03 0. -1.
        -11    1    3    3    0    0  0.91499317717E+01 -0.15148944781E+02 -0.37396079061E+01  0.18088572275E+02  0.51100000000E-03 0.  1.
        -12    1    3    3    0    0  0.18749817414E+02 -0.23290091868E+01 -0.21430232314E+02  0.28569823133E+02  0.00000000000E+00 0.  1.
</event>
<event>
 7    1  0.8697654E-014  0.5052886E+02  0.7816164E-02  0.1300439E+00
        -11   -1    0    0    0    0  0.00000000000E+00  0.00000000000E+00  0.45593999997E+02  0.45594000000E+02  0.51100000000E-03 0. -1.
         11   -1    0    0    0    0 -0.00000000000E+00 -0.00000000000E+00 -0.45593999997E+02  0.45594000000E+02  0.51100000000E-03 0.  1.
    9900012    2    1    2    0    0  0.17108953476E+02  0.13858025463E+02  0.34181935059E+02  0.50528857815E+02  0.29999993816E+02 0.  0.
        -12    1    1    2    0    0 -0.17108953476E+02 -0.13858025463E+02 -0.34181935059E+02  0.40659142185E+02  0.00000000000E+00 0.  1.
         11    1    3    3    0    0  0.44381804650E+01  0.48266615838E+01  0.83572570688E+01  0.10622516362E+02  0.51100000000E-03 0. -1.
        -11    1    3    3    0    0  0.16637006102E+02  0.19942719545E+01  0.48713315145E+01  0.17449841365E+02  0.51100000000E-03 0.  1.
         12    1    3    3    0    0 -0.39662330912E+01  0.70370919248E+01  0.20953346476E+02  0.22456500089E+02  0.00000000000E+00 0. -1.
</event>
<event>
 7    1  0.8697654E-014  0.5052887E+02  0.7816164E-02  0.1300439E+00
        -11   -1    0    0    0    0  0.00000000000E+00  0.00000000000E+00  0.45593999997E+02  0.45594000000E+02  0.51100000000E-03 0. -1.
         11   -1    0    0    0    0 -0.00000000000E+00 -0.00000000000E+00 -0.45593999997E+02  0.45594000000E+02  0.51100000000E-03 0.  1.
    9900012    2    1    2    0    0  0.23084471365E+02 -0.25662835354E+02 -0.21486995218E+02  0.50528869413E+02  0.30000029069E+02 0.  0.
         12    1    1    2    0    0 -0.23084471365E+02  0.25662835354E+02  0.21486995218E+02  0.40659130587E+02  0.00000000000E+00 0. -1.
         11    1    3    3    0    0  0.51446754405E+01 -0.13042768665E+02 -0.62674706295E+00  0.14034753720E+02  0.51100000000E-03 0. -1.
        -11    1    3    3    0    0  0.81095798629E+01 -0.20442166575E+01  0.27628379707E+01  0.88078022917E+01  0.51100000000E-03 0.  1.
        -12    1    3    3    0    0  0.98302160616E+01 -0.10575850031E+02 -0.23623086125E+02  0.27686313402E+02  0.00000000000E+00 0.  1.
</event>
<event>
 7    1  0.8697654E-014  0.5052888E+02  0.7816164E-02  0.1300439E+00
        -11   -1    0    0    0    0  0.00000000000E+00  0.00000000000E+00  0.45593999997E+02  0.45594000000E+02  0.51100000000E-03 0. -1.
         11   -1    0    0    0    0 -0.00000000000E+00 -0.00000000000E+00 -0.45593999997E+02  0.45594000000E+02  0.51100000000E-03 0.  1.
    9900012    2    1    2    0    0  0.51347844525E+00  0.16047883553E+02 -0.37354595085E+02  0.50528880474E+02  0.30000062690E+02 0.  0.
         12    1    1    2    0    0 -0.51347844525E+00 -0.16047883553E+02  0.37354595085E+02  0.40659119526E+02  0.00000000000E+00 0. -1.
         11    1    3    3    0    0 -0.23594201088E+01 -0.33485191145E+01 -0.35772111354E+01  0.54383713810E+01  0.51100000000E-03 0. -1.
        -11    1    3    3    0    0 -0.99121092076E+01  0.90251375413E+01 -0.14874825395E+02  0.20024071698E+02  0.51100000000E-03 0.  1.
         12    1    3    3    0    0  0.12785007762E+02  0.10371265126E+02 -0.18902558555E+02  0.25066437395E+02  0.00000000000E+00 0. -1.
</event>
<event>
 7    1  0.8697654E-014  0.5052886E+02  0.7816164E-02  0.1300439E+00
        -11   -1    0    0    0    0  0.00000000000E+00  0.00000000000E+00  0.45593999997E+02  0.45594000000E+02  0.51100000000E-03 0. -1.
         11   -1    0    0    0    0 -0.00000000000E+00 -0.00000000000E+00 -0.45593999997E+02  0.45594000000E+02  0.51100000000E-03 0.  1.
    9900012    2    1    2    0    0  0.13883369373E+02  0.25297743523E+02  0.28643351988E+02  0.50528863443E+02  0.30000010921E+02 0.  0.
        -12    1    1    2    0    0 -0.13883369373E+02 -0.25297743523E+02 -0.28643351988E+02  0.40659136557E+02  0.00000000000E+00 0.  1.
         11    1    3    3    0    0 -0.31257138387E+01 -0.48475267645E+01  0.13194069581E+01  0.59168773619E+01  0.51100000000E-03 0.  1.
        -11    1    3    3    0    0  0.59556257350E+01  0.54202594701E+01  0.79211494679E+01  0.11295720418E+02  0.51100000000E-03 0. -1.
        -12    1    3    3    0    0  0.11053457477E+02  0.24725010817E+02  0.19402795562E+02  0.33316265663E+02  0.00000000000E+00 0.  1.
</event>
<event>
 7    1  0.8697654E-014  0.5052884E+02  0.7816164E-02  0.1300439E+00
        -11   -1    0    0    0    0  0.00000000000E+00  0.00000000000E+00  0.45593999997E+02  0.45594000000E+02  0.51100000000E-03 0. -1.
         11   -1    0    0    0    0 -0.00000000000E+00 -0.00000000000E+00 -0.45593999997E+02  0.45594000000E+02  0.51100000000E-03 0.  1.
    9900012    2    1    2    0    0 -0.37107949444E+02 -0.16236995698E+02  0.35393503491E+01  0.50528844301E+02  0.29999952738E+02 0.  0.
         12    1    1    2    0    0  0.37107949444E+02  0.16236995698E+02 -0.35393503491E+01  0.40659155699E+02  0.00000000000E+00 0. -1.
         11    1    3    3    0    0 -0.18084389440E+02  0.21892919736E+01  0.48565538734E+01  0.18852698919E+02  0.51100000000E-03 0. -1.
        -11    1    3    3    0    0 -0.43382780871E+01 -0.37297518749E+01 -0.80147251043E+01  0.98472089735E+01  0.51100000000E-03 0.  1.
        -12    1    3    3    0    0 -0.14685281917E+02 -0.14696535797E+02  0.66975215800E+01  0.21828936408E+02  0.00000000000E+00 0.  1.
</event>
<event>
 7    1  0.8697654E-014  0.5052888E+02  0.7816164E-02  0.1300439E+00
        -11   -1    0    0    0    0  0.00000000000E+00  0.00000000000E+00  0.45593999997E+02  0.45594000000E+02  0.51100000000E-03 0. -1.
         11   -1    0    0    0    0 -0.00000000000E+00 -0.00000000000E+00 -0.45593999997E+02  0.45594000000E+02  0.51100000000E-03 0.  1.
    9900012    2    1    2    0    0 -0.21542752286E+02  0.15599231127E+02 -0.30752847006E+02  0.50528883104E+02  0.30000070682E+02 0.  0.
         12    1    1    2    0    0  0.21542752286E+02 -0.15599231127E+02  0.30752847006E+02  0.40659116896E+02  0.00000000000E+00 0. -1.
         11    1    3    3    0    0 -0.32399141921E+01 -0.48457899582E+01 -0.32250526900E+01  0.66618082685E+01  0.51100000000E-03 0. -1.
        -11    1    3    3    0    0 -0.15395462408E+02  0.51155660092E+01 -0.60377693285E+01  0.17310226373E+02  0.51100000000E-03 0.  1.
         12    1    3    3    0    0 -0.29073756865E+01  0.15329455076E+02 -0.21490024987E+02  0.26556848463E+02  0.00000000000E+00 0. -1.
</event>
<event>
 7    1  0.8697654E-014  0.5052884E+02  0.7816164E-02  0.1300439E+00
        -11   -1    0    0    0    0  0.00000000000E+00  0.00000000000E+00  0.45593999997E+02  0.45594000000E+02  0.51100000000E-03 0. -1.
         11   -1    0    0    0    0 -0.00000000000E+00 -0.00000000000E+00 -0.45593999997E+02  0.45594000000E+02  0.51100000000E-03 0.  1.
    9900012    2    1    2    0    0  0.12894486554E+02  0.26089352117E+02 -0.28394456618E+02  0.50528840589E+02  0.29999941455E+02 0.  0.
         12    1    1    2    0    0 -0.12894486554E+02 -0.26089352117E+02  0.28394456618E+02  0.40659159411E+02  0.00000000000E+00 0. -1.
         11    1    3    3    0    0  0.49593942456E+00  0.21628039648E+02 -0.15068932356E+02  0.26364574290E+02  0.51100000000E-03 0. -1.
        -11    1    3    3    0    0  0.94898336275E+01  0.98784101247E+01 -0.11080281317E+02  0.17618528974E+02  0.51100000000E-03 0.  1.
         12    1    3    3    0    0  0.29087135018E+01 -0.54170976554E+01 -0.22452429451E+01  0.65457373249E+01  0.00000000000E+00 0. -1.
</event>
<event>
 7    1  0.8697654E-014  0.5052886E+02  0.7816164E-02  0.1300439E+00
        -11   -1    0    0    0    0  0.00000000000E+00  0.00000000000E+00  0.45593999997E+02  0.45594000000E+02  0.51100000000E-03 0. -1.
         11   -1    0    0    0    0 -0.00000000000E+00 -0.00000000000E+00 -0.45593999997E+02  0.45594000000E+02  0.51100000000E-03 0.  1.
    9900012    2    1    2    0    0  0.48852305959E+01 -0.33130867468E+02  0.23057444585E+02  0.50528860708E+02  0.30000002608E+02 0.  0.
        -12    1    1    2    0    0 -0.48852305959E+01  0.33130867468E+02 -0.23057444585E+02  0.40659139292E+02  0.00000000000E+00 0.  1.
         11    1    3    3    0    0 -0.34269908209E+01 -0.13386171408E+01  0.80268758214E+00  0.37656964232E+01  0.51100000000E-03 0. -1.
        -11    1    3    3    0    0  0.14742642351E+02 -0.13606171133E+02  0.45301094320E+01  0.20566849251E+02  0.51100000000E-03 0.  1.
         12    1    3    3    0    0 -0.64304209339E+01 -0.18186079194E+02  0.17724647571E+02  0.26196315034E+02  0.00000000000E+00 0. -1.
</event>
<event>
 7    1  0.8697654E-014  0.5052883E+02  0.7816164E-02  0.1300439E+00
        -11   -1    0    0    0    0  0.00000000000E+00  0.00000000000E+00  0.45593999997E+02  0.45594000000E+02  0.51100000000E-03 0. -1.
         11   -1    0    0    0    0 -0.00000000000E+00 -0.00000000000E+00 -0.45593999997E+02  0.45594000000E+02  0.51100000000E-03 0.  1.
    9900012    2    1    2    0    0  0.70464790581E+01 -0.14086737388E+02 -0.37484380982E+02  0.50528833076E+02  0.29999918617E+02 0.  0.
         12    1    1    2    0    0 -0.70464790581E+01  0.14086737388E+02  0.37484380982E+02  0.40659166924E+02  0.00000000000E+00 0. -1.
         11    1    3    3    0    0  0.57153553112E+01 -0.28744331074E+01 -0.89452275896E+01  0.10997488300E+02  0.51100000000E-03 0. -1.
        -11    1    3    3    0    0  0.12457276903E+02 -0.87493361542E+01 -0.11703904907E+02  0.19201979620E+02  0.51100000000E-03 0.  1.
         12    1    3    3    0    0 -0.11126153156E+02 -0.24629681263E+01 -0.16835248486E+02  0.20329365156E+02  0.00000000000E+00 0. -1.
</event>
<event>
 7    1  0.8697654E-014  0.5052886E+02  0.7816164E-02  0.1300439E+00
        -11   -1    0    0    0    0  0.00000000000E+00  0.00000000000E+00  0.45593999997E+02  0.45594000000E+02  0.51100000000E-03 0. -1.
         11   -1    0    0    0    0 -0.00000000000E+00 -0.00000000000E+00 -0.45593999997E+02  0.45594000000E+02  0.51100000000E-03 0.  1.
    9900012    2    1    2    0    0 -0.26091097343E+02  0.25087838199E+02 -0.18520817604E+02  0.50528859936E+02  0.30000000261E+02 0.  0.
         12    1    1    2    0    0  0.26091097343E+02 -0.25087838199E+02  0.18520817604E+02  0.40659140064E+02  0.00000000000E+00 0. -1.
         11    1    3    3    0    0  0.47572855540E+01  0.79481135797E+01 -0.32246253284E+01  0.98082865011E+01  0.51100000000E-03 0. -1.
        -11    1    3    3    0    0 -0.41046586509E+01  0.25979463816E+01 -0.80920440101E+01  0.94381526033E+01  0.51100000000E-03 0.  1.
        -12    1    3    3    0    0 -0.26743724246E+02  0.14541778237E+02 -0.72041482656E+01  0.31282420831E+02  0.00000000000E+00 0.  1.
</event>
<event>
 7    1  0.8697654E-014  0.5052882E+02  0.7816164E-02  0.1300439E+00
        -11   -1    0    0    0    0  0.00000000000E+00  0.00000000000E+00  0.45593999997E+02  0.45594000000E+02  0.51100000000E-03 0. -1.
         11   -1    0    0    0    0 -0.00000000000E+00 -0.00000000000E+00 -0.45593999997E+02  0.45594000000E+02  0.51100000000E-03 0.  1.
    9900012    2    1    2    0    0 -0.29933347313E+02 -0.23298021556E+02  0.14641232398E+02  0.50528821751E+02  0.29999884193E+02 0.  0.
        -12    1    1    2    0    0  0.29933347313E+02  0.23298021556E+02 -0.14641232398E+02  0.40659178249E+02  0.00000000000E+00 0.  1.
         11    1    3    3    0    0 -0.68966998325E+01 -0.49622844932E+00  0.76679385875E+01  0.10325114706E+02  0.51100000000E-03 0. -1.
        -11    1    3    3    0    0 -0.25303541102E+02 -0.17341209695E+02  0.11496958340E+02  0.32759224614E+02  0.51100000000E-03 0.  1.
        -12    1    3    3    0    0  0.22668936217E+01 -0.54605834118E+01 -0.45236645290E+01  0.74444824307E+01  0.00000000000E+00 0.  1.
</event>
<event>
 7    1  0.8697654E-014  0.5052886E+02  0.7816164E-02  0.1300439E+00
        -11   -1    0    0    0    0  0.00000000000E+00  0.00000000000E+00  0.45593999997E+02  0.45594000000E+02  0.51100000000E-03 0. -1.
         11   -1    0    0    0    0 -0.00000000000E+00 -0.00000000000E+00 -0.45593999997E+02  0.45594000000E+02  0.51100000000E-03 0.  1.
    9900012    2    1    2    0    0 -0.28966551832E+02  0.15734710056E+02 -0.23801756171E+02  0.50528858070E+02  0.29999994591E+02 0.  0.
         12    1    1    2    0    0  0.28966551832E+02 -0.15734710056E+02  0.23801756171E+02  0.40659141930E+02  0.00000000000E+00 0. -1.
         11    1    3    3    0    0 -0.49091620880E+01  0.26640388557E+01  0.59972711315E+00  0.56175304451E+01  0.51100000000E-03 0. -1.
        -11    1    3    3    0    0 -0.26342363924E+02  0.10144855110E+02 -0.98558462515E+01  0.29899430227E+02  0.51100000000E-03 0.  1.
         12    1    3    3    0    0  0.22849741800E+01  0.29258160906E+01 -0.14545637033E+02  0.15011897398E+02  0.00000000000E+00 0. -1.
</event>
<event>
 7    1  0.8697654E-014  0.5052886E+02  0.7816164E-02  0.1300439E+00
        -11   -1    0    0    0    0  0.00000000000E+00  0.00000000000E+00  0.45593999997E+02  0.45594000000E+02  0.51100000000E-03 0. -1.
         11   -1    0    0    0    0 -0.00000000000E+00 -0.00000000000E+00 -0.45593999997E+02  0.45594000000E+02  0.51100000000E-03 0.  1.
    9900012    2    1    2    0    0 -0.20048272198E+02  0.32221618562E+02 -0.14594506858E+02  0.50528861404E+02  0.30000004725E+02 0.  0.
         12    1    1    2    0    0  0.20048272198E+02 -0.32221618562E+02  0.14594506858E+02  0.40659138596E+02  0.00000000000E+00 0. -1.
         11    1    3    3    0    0 -0.37227373445E+01  0.79578935090E+00 -0.11533243225E+02  0.12145277007E+02  0.51100000000E-03 0. -1.
        -11    1    3    3    0    0 -0.16398546996E+01  0.16672520529E+00 -0.34728701185E+01  0.38441836391E+01  0.51100000000E-03 0.  1.
        -12    1    3    3    0    0 -0.14685680154E+02  0.31259104006E+02  0.41160648579E+00  0.34539400759E+02  0.00000000000E+00 0.  1.
</event>
<event>
 7    1  0.8697654E-014  0.5052886E+02  0.7816164E-02  0.1300439E+00
        -11   -1    0    0    0    0  0.00000000000E+00  0.00000000000E+00  0.45593999997E+02  0.45594000000E+02  0.51100000000E-03 0. -1.
         11   -1    0    0    0    0 -0.00000000000E+00 -0.00000000000E+00 -0.45593999997E+02  0.45594000000E+02  0.51100000000E-03 0.  1.
    9900012    2    1    2    0    0 -0.11472399895E+02 -0.13442245005E+02  0.36617697297E+02  0.50528860001E+02  0.30000000458E+02 0.  0.
        -12    1    1    2    0    0  0.11472399895E+02  0.13442245005E+02 -0.36617697297E+02  0.40659139999E+02  0.00000000000E+00 0.  1.
         11    1    3    3    0    0 -0.14398248138E+02 -0.17641187196E+02  0.26329796841E+02  0.34810619602E+02  0.51100000000E-03 0. -1.
        -11    1    3    3    0    0 -0.39818713547E+01  0.12287801896E+01  0.23487327750E+01  0.47834868192E+01  0.51100000000E-03 0.  1.
        -12    1    3    3    0    0  0.69077195982E+01  0.29701620016E+01  0.79391676811E+01  0.10934753579E+02  0.00000000000E+00 0.  1.
</event>
<event>
 7    1  0.8697654E-014  0.5052886E+02  0.7816164E-02  0.1300439E+00
        -11   -1    0    0    0    0  0.00000000000E+00  0.00000000000E+00  0.45593999997E+02  0.45594000000E+02  0.51100000000E-03 0. -1.
         11   -1    0    0    0    0 -0.00000000000E+00 -0.00000000000E+00 -0.45593999997E+02  0.45594000000E+02  0.51100000000E-03 0.  1.
    9900012    2    1    2    0    0 -0.23071364922E+02 -0.25325699302E+02 -0.21897177660E+02  0.50528864323E+02  0.30000013597E+02 0.  0.
         12    1    1    2    0    0  0.23071364922E+02  0.25325699302E+02  0.21897177660E+02  0.40659135677E+02  0.00000000000E+00 0. -1.
         11    1    3    3    0    0 -0.57924872436E+01 -0.16839173603E+02 -0.12013460230E+02  0.21481012618E+02  0.51100000000E-03 0. -1.
        -11    1    3    3    0    0  0.30316914709E+01 -0.67781919298E+00  0.25207333522E+01  0.40005860730E+01  0.51100000000E-03 0.  1.
        -12    1    3    3    0    0 -0.20310569149E+02 -0.78087065059E+01 -0.12404450782E+02  0.25047265633E+02  0.00000000000E+00 0.  1.
</event>
<event>
 7    1  0.8697654E-014  0.5052886E+02  0.7816164E-02  0.1300439E+00
        -11   -1    0    0    0    0  0.00000000000E+00  0.00000000000E+00  0.45593999997E+02  0.45594000000E+02  0.51100000000E-03 0. -1.
         11   -1    0    0    0    0 -0.00000000000E+00 -0.00000000000E+00 -0.45593999997E+02  0.45594000000E+02  0.51100000000E-03 0.  1.
    9900012    2    1    2    0    0  0.32134015139E+02  0.11722617862E+02  0.21980697876E+02  0.50528858622E+02  0.29999996267E+02 0.  0.
        -12    1    1    2    0    0 -0.32134015139E+02 -0.11722617862E+02 -0.21980697876E+02  0.40659141378E+02  0.00000000000E+00 0.  1.
         11    1    3    3    0    0  0.26588816747E+01 -0.51846356075E+01  0.35865250149E+01  0.68420216374E+01  0.51100000000E-03 0. -1.
        -11    1    3    3    0    0  0.26693639789E+02  0.88321146092E+01  0.61886189976E+01  0.28789853404E+02  0.51100000000E-03 0.  1.
        -12    1    3    3    0    0  0.27814936751E+01  0.80751388607E+01  0.12205553864E+02  0.14896983581E+02  0.00000000000E+00 0.  1.
</event>
<event>
 7    1  0.8697654E-014  0.5052886E+02  0.7816164E-02  0.1300439E+00
        -11   -1    0    0    0    0  0.00000000000E+00  0.00000000000E+00  0.45593999997E+02  0.45594000000E+02  0.51100000000E-03 0.  1.
         11   -1    0    0    0    0 -0.00000000000E+00 -0.00000000000E+00 -0.45593999997E+02  0.45594000000E+02  0.51100000000E-03 0. -1.
    9900012    2    1    2    0    0 -0.26033313941E+02  0.29628635557E+02 -0.98780794753E+01  0.50528856701E+02  0.29999990428E+02 0.  0.
         12    1    1    2    0    0  0.26033313941E+02 -0.29628635557E+02  0.98780794753E+01  0.40659143299E+02  0.00000000000E+00 0. -1.
         11    1    3    3    0    0 -0.30000697325E+01  0.10507905021E+02  0.50238098029E+01  0.12027267001E+02  0.51100000000E-03 0. -1.
        -11    1    3    3    0    0 -0.15002022785E+02  0.18535601347E+02 -0.28620425235E+01  0.24017087513E+02  0.51100000000E-03 0.  1.
         12    1    3    3    0    0 -0.80312214226E+01  0.58512918943E+00 -0.12039846755E+02  0.14484502186E+02  0.00000000000E+00 0. -1.
</event>
<event>
 7    1  0.8697654E-014  0.5052886E+02  0.7816164E-02  0.1300439E+00
        -11   -1    0    0    0    0  0.00000000000E+00  0.00000000000E+00  0.45593999997E+02  0.45594000000E+02  0.51100000000E-03 0. -1.
         11   -1    0    0    0    0 -0.00000000000E+00 -0.00000000000E+00 -0.45593999997E+02  0.45594000000E+02  0.51100000000E-03 0.  1.
    9900012    2    1    2    0    0  0.23841706822E+02  0.13736799014E+02  0.29933910512E+02  0.50528860439E+02  0.30000001790E+02 0.  0.
        -12    1    1    2    0    0 -0.23841706822E+02 -0.13736799014E+02 -0.29933910512E+02  0.40659139561E+02  0.00000000000E+00 0.  1.
         11    1    3    3    0    0  0.14610660430E+01 -0.47400811000E+01  0.10220780941E+01  0.50643584696E+01  0.51100000000E-03 0. -1.
        -11    1    3    3    0    0  0.20435148382E+01  0.85794731451E+01  0.80021522559E-01  0.88198478472E+01  0.51100000000E-03 0.  1.
         12    1    3    3    0    0  0.20337125941E+02  0.98974069690E+01  0.28831810895E+02  0.36644654122E+02  0.00000000000E+00 0. -1.
</event>
<event>
 7    1  0.8697654E-014  0.5052886E+02  0.7816164E-02  0.1300439E+00
        -11   -1    0    0    0    0  0.00000000000E+00  0.00000000000E+00  0.45593999997E+02  0.45594000000E+02  0.51100000000E-03 0. -1.
         11   -1    0    0    0    0 -0.00000000000E+00 -0.00000000000E+00 -0.45593999997E+02  0.45594000000E+02  0.51100000000E-03 0.  1.
    9900012    2    1    2    0    0 -0.15166851051E+02 -0.22654147320E+01  0.37656341067E+02  0.50528862069E+02  0.30000006745E+02 0.  0.
        -12    1    1    2    0    0  0.15166851051E+02  0.22654147320E+01 -0.37656341067E+02  0.40659137931E+02  0.00000000000E+00 0.  1.
         11    1    3    3    0    0 -0.32827277263E+01  0.22913521536E+00  0.29540065757E+02  0.29722790741E+02  0.51100000000E-03 0. -1.
        -11    1    3    3    0    0 -0.15063019533E+02 -0.36084272735E+00  0.77943268851E+01  0.16963970549E+02  0.51100000000E-03 0.  1.
        -12    1    3    3    0    0  0.31788962083E+01 -0.21337072200E+01  0.32194842533E+00  0.38421007785E+01  0.00000000000E+00 0.  1.
</event>
<event>
 7    1  0.8697654E-014  0.5052891E+02  0.7816164E-02  0.1300439E+00
        -11   -1    0    0    0    0  0.00000000000E+00  0.00000000000E+00  0.45593999997E+02  0.45594000000E+02  0.51100000000E-03 0. -1.
         11   -1    0    0    0    0 -0.00000000000E+00 -0.00000000000E+00 -0.45593999997E+02  0.45594000000E+02  0.51100000000E-03 0.  1.
    9900012    2    1    2    0    0  0.15016476753E+02 -0.37497977535E+02  0.46441707245E+01  0.50528914730E+02  0.30000166812E+02 0.  0.
         12    1    1    2    0    0 -0.15016476753E+02  0.37497977535E+02 -0.46441707245E+01  0.40659085270E+02  0.00000000000E+00 0. -1.
         11    1    3    3    0    0  0.16826064767E+02 -0.18083269018E+02  0.51245676211E+01  0.25226618233E+02  0.51100000000E-03 0. -1.
        -11    1    3    3    0    0  0.37357717273E+01 -0.16005257936E+02  0.45748340025E+01  0.17060286586E+02  0.51100000000E-03 0.  1.
         12    1    3    3    0    0 -0.55453597407E+01 -0.34094505815E+01 -0.50552308991E+01  0.82420099104E+01  0.00000000000E+00 0. -1.
</event>
<event>
 7    1  0.8697654E-014  0.5052886E+02  0.7816164E-02  0.1300439E+00
        -11   -1    0    0    0    0  0.00000000000E+00  0.00000000000E+00  0.45593999997E+02  0.45594000000E+02  0.51100000000E-03 0. -1.
         11   -1    0    0    0    0 -0.00000000000E+00 -0.00000000000E+00 -0.45593999997E+02  0.45594000000E+02  0.51100000000E-03 0.  1.
    9900012    2    1    2    0    0  0.21447298450E+02 -0.49414229028E+01  0.34187158259E+02  0.50528855138E+02  0.29999985677E+02 0.  0.
        -12    1    1    2    0    0 -0.21447298450E+02  0.49414229028E+01 -0.34187158259E+02  0.40659144862E+02  0.00000000000E+00 0.  1.
         11    1    3    3    0    0  0.14485608826E+02  0.26022964320E+00  0.19965528582E+02  0.24668257221E+02  0.51100000000E-03 0. -1.
        -11    1    3    3    0    0  0.74351048614E+01 -0.10515904212E+02  0.15717027905E+02  0.20319694686E+02  0.51100000000E-03 0.  1.
         12    1    3    3    0    0 -0.47341523779E+00  0.53142516656E+01 -0.14953982279E+01  0.55409032308E+01  0.00000000000E+00 0. -1.
</event>
<event>
 7    1  0.1783861E-013  0.5052884E+02  0.7816164E-02  0.1300439E+00
        -11   -1    0    0    0    0  0.00000000000E+00  0.00000000000E+00  0.45593999997E+02  0.45594000000E+02  0.51100000000E-03 0. -1.
         11   -1    0    0    0    0 -0.00000000000E+00 -0.00000000000E+00 -0.45593999997E+02  0.45594000000E+02  0.51100000000E-03 0.  1.
    9900012    2    1    2    0    0 -0.91418023869E+01  0.15502203858E+02 -0.36459246733E+02  0.50528836855E+02  0.29999930104E+02 0.  0.
         12    1    1    2    0    0  0.91418023869E+01 -0.15502203858E+02  0.36459246733E+02  0.40659163145E+02  0.00000000000E+00 0. -1.
         11    1    3    3    0    0 -0.20781042044E+00 -0.31987395400E+01 -0.18571238788E+02  0.18845849151E+02  0.51100000000E-03 0. -1.
        -11    1    3    3    0    0 -0.78335820385E+01  0.51015774944E+01 -0.15096457169E+02  0.17756523303E+02  0.51100000000E-03 0.  1.
         12    1    3    3    0    0 -0.11004099279E+01  0.13599365903E+02 -0.27915507754E+01  0.13926464401E+02  0.00000000000E+00 0. -1.
</event>
<event>
 7    1  0.8697654E-014  0.5052886E+02  0.7816164E-02  0.1300439E+00
        -11   -1    0    0    0    0  0.00000000000E+00  0.00000000000E+00  0.45593999997E+02  0.45594000000E+02  0.51100000000E-03 0. -1.
         11   -1    0    0    0    0 -0.00000000000E+00 -0.00000000000E+00 -0.45593999997E+02  0.45594000000E+02  0.51100000000E-03 0.  1.
    9900012    2    1    2    0    0 -0.28226147349E+02 -0.25620803340E+02 -0.14142998268E+02  0.50528863783E+02  0.30000011953E+02 0.  0.
         12    1    1    2    0    0  0.28226147349E+02  0.25620803340E+02  0.14142998268E+02  0.40659136217E+02  0.00000000000E+00 0. -1.
         11    1    3    3    0    0  0.20619464092E+01 -0.12962613563E+01 -0.15768593391E+01  0.29014482823E+01  0.51100000000E-03 0. -1.
        -11    1    3    3    0    0 -0.14333193570E+02 -0.49206526609E+01 -0.16270439962E+02  0.22234668366E+02  0.51100000000E-03 0.  1.
         12    1    3    3    0    0 -0.15954900188E+02 -0.19403889323E+02  0.37043010338E+01  0.25392747134E+02  0.00000000000E+00 0. -1.
</event>
<event>
 7    1  0.8697654E-014  0.5052886E+02  0.7816164E-02  0.1300439E+00
        -11   -1    0    0    0    0  0.00000000000E+00  0.00000000000E+00  0.45593999997E+02  0.45594000000E+02  0.51100000000E-03 0. -1.
         11   -1    0    0    0    0 -0.00000000000E+00 -0.00000000000E+00 -0.45593999997E+02  0.45594000000E+02  0.51100000000E-03 0.  1.
    9900012    2    1    2    0    0 -0.21986190490E+02  0.20822241400E+02 -0.27133147320E+02  0.50528855977E+02  0.29999988229E+02 0.  0.
         12    1    1    2    0    0  0.21986190490E+02 -0.20822241400E+02  0.27133147320E+02  0.40659144023E+02  0.00000000000E+00 0. -1.
         11    1    3    3    0    0  0.30224479424E+00 -0.30820667545E+01 -0.40183349057E+01  0.50732142741E+01  0.51100000000E-03 0. -1.
        -11    1    3    3    0    0  0.28065686921E+01  0.10078884215E+02 -0.69238737779E+01  0.12545946086E+02  0.51100000000E-03 0.  1.
        -12    1    3    3    0    0 -0.25095003977E+02  0.13825423939E+02 -0.16190938636E+02  0.32909695617E+02  0.00000000000E+00 0.  1.
</event>
<event>
 7    1  0.8697654E-014  0.5052886E+02  0.7816164E-02  0.1300439E+00
        -11   -1    0    0    0    0  0.00000000000E+00  0.00000000000E+00  0.45593999997E+02  0.45594000000E+02  0.51100000000E-03 0. -1.
         11   -1    0    0    0    0 -0.00000000000E+00 -0.00000000000E+00 -0.45593999997E+02  0.45594000000E+02  0.51100000000E-03 0.  1.
    9900012    2    1    2    0    0  0.72457022962E+01  0.33712952720E+02 -0.21543033332E+02  0.50528859969E+02  0.30000000363E+02 0.  0.
         12    1    1    2    0    0 -0.72457022962E+01 -0.33712952720E+02  0.21543033332E+02  0.40659140031E+02  0.00000000000E+00 0. -1.
         11    1    3    3    0    0  0.19778035893E+00  0.11274033078E+02 -0.14702155941E+02  0.18528257568E+02  0.51100000000E-03 0. -1.
        -11    1    3    3    0    0  0.16678715718E+01  0.18696909869E+02 -0.13137998234E+02  0.22912076119E+02  0.51100000000E-03 0.  1.
         12    1    3    3    0    0  0.53800503655E+01  0.37420097732E+01  0.62971208429E+01  0.90885262825E+01  0.00000000000E+00 0. -1.
</event>
<event>
 7    1  0.8697654E-014  0.5052886E+02  0.7816164E-02  0.1300439E+00
        -11   -1    0    0    0    0  0.00000000000E+00  0.00000000000E+00  0.45593999997E+02  0.45594000000E+02  0.51100000000E-03 0. -1.
         11   -1    0    0    0    0 -0.00000000000E+00 -0.00000000000E+00 -0.45593999997E+02  0.45594000000E+02  0.51100000000E-03 0.  1.
    9900012    2    1    2    0    0  0.81493974127E+01  0.27196701346E+02  0.29104858874E+02  0.50528855243E+02  0.29999985996E+02 0.  0.
        -12    1    1    2    0    0 -0.81493974127E+01 -0.27196701346E+02 -0.29104858874E+02  0.40659144757E+02  0.00000000000E+00 0.  1.
         11    1    3    3    0    0  0.14153343432E+00  0.40907414233E+01  0.16261624983E+02  0.16768859367E+02  0.51100000000E-03 0. -1.
        -11    1    3    3    0    0  0.10054111693E+02  0.56009870513E+01  0.11200402309E+02  0.16059428073E+02  0.51100000000E-03 0.  1.
        -12    1    3    3    0    0 -0.20462477148E+01  0.17504972871E+02  0.16428315822E+01  0.17700567803E+02  0.00000000000E+00 0.  1.
</event>
<event>
 7    1  0.8697654E-014  0.5052879E+02  0.7816164E-02  0.1300439E+00
        -11   -1    0    0    0    0  0.00000000000E+00  0.00000000000E+00  0.45593999997E+02  0.45594000000E+02  0.51100000000E-03 0.  1.
         11   -1    0    0    0    0 -0.00000000000E+00 -0.00000000000E+00 -0.45593999997E+02  0.45594000000E+02  0.51100000000E-03 0. -1.
    9900012    2    1    2    0    0 -0.27067170203E+02  0.15575672959E+02 -0.26037238677E+02  0.50528793308E+02  0.29999797738E+02 0.  0.
         12    1    1    2    0    0  0.27067170203E+02 -0.15575672959E+02  0.26037238677E+02  0.40659206692E+02  0.00000000000E+00 0. -1.
         11    1    3    3    0    0 -0.77318985477E+01  0.58999854801E+01 -0.10969327281E+02  0.14660089531E+02  0.51100000000E-03 0.  1.
        -11    1    3    3    0    0 -0.52214405830E+01 -0.43582701700E+01 -0.14432741745E+02  0.15954999066E+02  0.51100000000E-03 0. -1.
        -12    1    3    3    0    0 -0.14113831072E+02  0.14033957649E+02 -0.63516965054E+00  0.19913704711E+02  0.00000000000E+00 0.  1.
</event>
<event>
 7    1  0.8697654E-014  0.5052886E+02  0.7816164E-02  0.1300439E+00
        -11   -1    0    0    0    0  0.00000000000E+00  0.00000000000E+00  0.45593999997E+02  0.45594000000E+02  0.51100000000E-03 0. -1.
         11   -1    0    0    0    0 -0.00000000000E+00 -0.00000000000E+00 -0.45593999997E+02  0.45594000000E+02  0.51100000000E-03 0.  1.
    9900012    2    1    2    0    0 -0.31512284916E+01 -0.95245136572E+01 -0.39402020218E+02  0.50528858363E+02  0.29999995479E+02 0.  0.
         12    1    1    2    0    0  0.31512284916E+01  0.95245136572E+01  0.39402020218E+02  0.40659141637E+02  0.00000000000E+00 0. -1.
         11    1    3    3    0    0 -0.77596652725E+01 -0.28064909607E+00 -0.55850423321E+01  0.95647199211E+01  0.51100000000E-03 0.  1.
        -11    1    3    3    0    0  0.13902339444E+01 -0.14395578141E+02 -0.13593556537E+02  0.19848178758E+02  0.51100000000E-03 0. -1.
        -12    1    3    3    0    0  0.32182028365E+01  0.51517135794E+01 -0.20223421349E+02  0.21115959683E+02  0.00000000000E+00 0.  1.
</event>
<event>
 7    1  0.8697654E-014  0.5052885E+02  0.7816164E-02  0.1300439E+00
        -11   -1    0    0    0    0  0.00000000000E+00  0.00000000000E+00  0.45593999997E+02  0.45594000000E+02  0.51100000000E-03 0. -1.
         11   -1    0    0    0    0 -0.00000000000E+00 -0.00000000000E+00 -0.45593999997E+02  0.45594000000E+02  0.51100000000E-03 0.  1.
    9900012    2    1    2    0    0  0.59304018561E+01 -0.29836423215E+02 -0.26977482024E+02  0.50528851548E+02  0.29999974766E+02 0.  0.
         12    1    1    2    0    0 -0.59304018561E+01  0.29836423215E+02  0.26977482024E+02  0.40659148452E+02  0.00000000000E+00 0. -1.
         11    1    3    3    0    0  0.10790643321E+02 -0.83197486735E+01 -0.17716412553E+02  0.22350111304E+02  0.51100000000E-03 0. -1.
        -11    1    3    3    0    0 -0.36300710380E+01 -0.23767958525E+02 -0.85179643165E+01  0.25507822027E+02  0.51100000000E-03 0.  1.
         12    1    3    3    0    0 -0.12301704274E+01  0.22512839835E+01 -0.74310515459E+00  0.26709182176E+01  0.00000000000E+00 0. -1.
</event>
<event>
 7    1  0.8697654E-014  0.5052886E+02  0.7816164E-02  0.1300439E+00
        -11   -1    0    0    0    0  0.00000000000E+00  0.00000000000E+00  0.45593999997E+02  0.45594000000E+02  0.51100000000E-03 0. -1.
         11   -1    0    0    0    0 -0.00000000000E+00 -0.00000000000E+00 -0.45593999997E+02  0.45594000000E+02  0.51100000000E-03 0.  1.
    9900012    2    1    2    0    0  0.11035228407E+02  0.23229354311E+02  0.31492640380E+02  0.50528861227E+02  0.30000004185E+02 0.  0.
        -12    1    1    2    0    0 -0.11035228407E+02 -0.23229354311E+02 -0.31492640380E+02  0.40659138773E+02  0.00000000000E+00 0.  1.
         11    1    3    3    0    0 -0.55643818627E+00  0.21431133813E+00  0.16290313160E+01  0.17347322832E+01  0.51100000000E-03 0. -1.
        -11    1    3    3    0    0  0.58254852324E+01 -0.62790639428E+01  0.86171073069E+01  0.12149792623E+02  0.51100000000E-03 0.  1.
         12    1    3    3    0    0  0.57661813614E+01  0.29294106915E+02  0.21246501757E+02  0.36644336320E+02  0.00000000000E+00 0. -1.
</event>
<event>
 7    1  0.8697654E-014  0.5052886E+02  0.7816164E-02  0.1300439E+00
        -11   -1    0    0    0    0  0.00000000000E+00  0.00000000000E+00  0.45593999997E+02  0.45594000000E+02  0.51100000000E-03 0. -1.
         11   -1    0    0    0    0 -0.00000000000E+00 -0.00000000000E+00 -0.45593999997E+02  0.45594000000E+02  0.51100000000E-03 0.  1.
    9900012    2    1    2    0    0 -0.19123726219E+02 -0.57414371844E+01  0.35418701069E+02  0.50528863378E+02  0.30000010723E+02 0.  0.
        -12    1    1    2    0    0  0.19123726219E+02  0.57414371844E+01 -0.35418701069E+02  0.40659136622E+02  0.00000000000E+00 0.  1.
         11    1    3    3    0    0 -0.10680314931E+02 -0.61329905848E+01  0.76003220261E+01  0.14472304436E+02  0.51100000000E-03 0. -1.
        -11    1    3    3    0    0  0.29320702245E+01 -0.81567330675E+01  0.94819757371E+01  0.12846680282E+02  0.51100000000E-03 0.  1.
         12    1    3    3    0    0 -0.11375481513E+02  0.85482864679E+01  0.18336403306E+02  0.23209878659E+02  0.00000000000E+00 0. -1.
</event>
<event>
 7    1  0.8697654E-014  0.5052887E+02  0.7816164E-02  0.1300439E+00
        -11   -1    0    0    0    0  0.00000000000E+00  0.00000000000E+00  0.45593999997E+02  0.45594000000E+02  0.51100000000E-03 0. -1.
         11   -1    0    0    0    0 -0.00000000000E+00 -0.00000000000E+00 -0.45593999997E+02  0.45594000000E+02  0.51100000000E-03 0.  1.
    9900012    2    1    2    0    0 -0.31729109228E+02  0.13622057957E+02 -0.21467842286E+02  0.50528867105E+02  0.30000022052E+02 0.  0.
         12    1    1    2    0    0  0.31729109228E+02 -0.13622057957E+02  0.21467842286E+02  0.40659132895E+02  0.00000000000E+00 0. -1.
         11    1    3    3    0    0 -0.11001919026E+02 -0.34186203822E+01  0.22908772506E+01  0.11746374181E+02  0.51100000000E-03 0. -1.
        -11    1    3    3    0    0 -0.12637620692E+02  0.15714028368E+02 -0.94002918687E+01  0.22248722026E+02  0.51100000000E-03 0.  1.
         12    1    3    3    0    0 -0.80895695104E+01  0.13266499707E+01 -0.14358427668E+02  0.16533770898E+02  0.00000000000E+00 0. -1.
</event>
<event>
 7    1  0.8697654E-014  0.5052883E+02  0.7816164E-02  0.1300439E+00
        -11   -1    0    0    0    0  0.00000000000E+00  0.00000000000E+00  0.45593999997E+02  0.45594000000E+02  0.51100000000E-03 0. -1.
         11   -1    0    0    0    0 -0.00000000000E+00 -0.00000000000E+00 -0.45593999997E+02  0.45594000000E+02  0.51100000000E-03 0.  1.
    9900012    2    1    2    0    0  0.19036291038E+02 -0.22080692144E+02 -0.28341319134E+02  0.50528834830E+02  0.29999923950E+02 0.  0.
         12    1    1    2    0    0 -0.19036291038E+02  0.22080692144E+02  0.28341319134E+02  0.40659165170E+02  0.00000000000E+00 0. -1.
         11    1    3    3    0    0  0.15503475429E+02 -0.13634878178E+02 -0.29935072626E+01  0.20862136499E+02  0.51100000000E-03 0. -1.
        -11    1    3    3    0    0 -0.21465622474E+01 -0.77418308740E+00  0.29884190452E+00  0.23013899452E+01  0.51100000000E-03 0.  1.
        -12    1    3    3    0    0  0.56793778570E+01 -0.76716308786E+01 -0.25646653776E+02  0.27365308386E+02  0.00000000000E+00 0.  1.
</event>
<event>
 7    1  0.8697654E-014  0.5052894E+02  0.7816164E-02  0.1300439E+00
        -11   -1    0    0    0    0  0.00000000000E+00  0.00000000000E+00  0.45593999997E+02  0.45594000000E+02  0.51100000000E-03 0. -1.
         11   -1    0    0    0    0 -0.00000000000E+00 -0.00000000000E+00 -0.45593999997E+02  0.45594000000E+02  0.51100000000E-03 0.  1.
    9900012    2    1    2    0    0  0.33887433962E+02 -0.44901885132E+01 -0.22014530943E+02  0.50528935254E+02  0.30000229198E+02 0.  0.
         12    1    1    2    0    0 -0.33887433962E+02  0.44901885132E+01  0.22014530943E+02  0.40659064746E+02  0.00000000000E+00 0. -1.
         11    1    3    3    0    0  0.29582658392E+01  0.56957456763E+01 -0.33299076144E+01  0.72305698646E+01  0.51100000000E-03 0. -1.
        -11    1    3    3    0    0  0.14386863506E+02 -0.15972755189E+02 -0.11232603986E+02  0.24254528287E+02  0.51100000000E-03 0.  1.
         12    1    3    3    0    0  0.16542304616E+02  0.57868209996E+01 -0.74520193426E+01  0.19043837102E+02  0.00000000000E+00 0. -1.
</event>
<event>
 7    1  0.8697654E-014  0.5052886E+02  0.7816164E-02  0.1300439E+00
        -11   -1    0    0    0    0  0.00000000000E+00  0.00000000000E+00  0.45593999997E+02  0.45594000000E+02  0.51100000000E-03 0. -1.
         11   -1    0    0    0    0 -0.00000000000E+00 -0.00000000000E+00 -0.45593999997E+02  0.45594000000E+02  0.51100000000E-03 0.  1.
    9900012    2    1    2    0    0  0.12183923608E+01  0.26591976125E+02 -0.30733500600E+02  0.50528859166E+02  0.29999997921E+02 0.  0.
         12    1    1    2    0    0 -0.12183923608E+01 -0.26591976125E+02  0.30733500600E+02  0.40659140834E+02  0.00000000000E+00 0. -1.
         11    1    3    3    0    0 -0.13979214002E+01  0.10721815784E+02 -0.87186449714E+01  0.13889790796E+02  0.51100000000E-03 0. -1.
        -11    1    3    3    0    0  0.64712669548E+01  0.20528876193E+02 -0.11238224084E+02  0.24281880787E+02  0.51100000000E-03 0.  1.
        -12    1    3    3    0    0 -0.38549531938E+01 -0.46587158517E+01 -0.10776631545E+02  0.12357187583E+02  0.00000000000E+00 0.  1.
</event>
<event>
 7    1  0.8697654E-014  0.5052887E+02  0.7816164E-02  0.1300439E+00
        -11   -1    0    0    0    0  0.00000000000E+00  0.00000000000E+00  0.45593999997E+02  0.45594000000E+02  0.51100000000E-03 0. -1.
         11   -1    0    0    0    0 -0.00000000000E+00 -0.00000000000E+00 -0.45593999997E+02  0.45594000000E+02  0.51100000000E-03 0.  1.
    9900012    2    1    2    0    0  0.29222931135E+02 -0.13673137263E+01 -0.28236774618E+02  0.50528871975E+02  0.30000036856E+02 0.  0.
         12    1    1    2    0    0 -0.29222931135E+02  0.13673137263E+01  0.28236774618E+02  0.40659128025E+02  0.00000000000E+00 0. -1.
         11    1    3    3    0    0  0.11226279130E+02 -0.22886767024E+01 -0.52479026116E+01  0.12601899311E+02  0.51100000000E-03 0.  1.
        -11    1    3    3    0    0 -0.54477331630E+01 -0.24717340162E+01 -0.20889410505E+01  0.63364769893E+01  0.51100000000E-03 0. -1.
         12    1    3    3    0    0  0.23444385167E+02  0.33930969923E+01 -0.20899930955E+02  0.31590495675E+02  0.00000000000E+00 0. -1.
</event>
<event>
 7    1  0.8705399E-014  0.5052886E+02  0.7816164E-02  0.1300439E+00
        -11   -1    0    0    0    0  0.00000000000E+00  0.00000000000E+00  0.45593999997E+02  0.45594000000E+02  0.51100000000E-03 0. -1.
         11   -1    0    0    0    0 -0.00000000000E+00 -0.00000000000E+00 -0.45593999997E+02  0.45594000000E+02  0.51100000000E-03 0.  1.
    9900012    2    1    2    0    0  0.58752242432E+01  0.47938632025E+01 -0.39945791492E+02  0.50528860287E+02  0.30000001327E+02 0.  0.
         12    1    1    2    0    0 -0.58752242432E+01 -0.47938632025E+01  0.39945791492E+02  0.40659139713E+02  0.00000000000E+00 0. -1.
         11    1    3    3    0    0 -0.37483122790E+01  0.57614049914E+01 -0.29196922201E+01  0.74678132902E+01  0.51100000000E-03 0. -1.
        -11    1    3    3    0    0  0.64872388481E+01 -0.67316867063E+01 -0.34949345386E+02  0.36178123458E+02  0.51100000000E-03 0.  1.
         12    1    3    3    0    0  0.31362976741E+01  0.57641449174E+01 -0.20767538856E+01  0.68829235380E+01  0.00000000000E+00 0. -1.
</event>
<event>
 7    1  0.8697654E-014  0.5052886E+02  0.7816164E-02  0.1300439E+00
        -11   -1    0    0    0    0  0.00000000000E+00  0.00000000000E+00  0.45593999997E+02  0.45594000000E+02  0.51100000000E-03 0. -1.
         11   -1    0    0    0    0 -0.00000000000E+00 -0.00000000000E+00 -0.45593999997E+02  0.45594000000E+02  0.51100000000E-03 0.  1.
    9900012    2    1    2    0    0 -0.92081101554E+01 -0.64523310259E+00  0.39597473920E+02  0.50528861307E+02  0.30000004430E+02 0.  0.
        -12    1    1    2    0    0  0.92081101554E+01  0.64523310259E+00 -0.39597473920E+02  0.40659138693E+02  0.00000000000E+00 0.  1.
         11    1    3    3    0    0 -0.18032057038E+01  0.32369461730E+01 -0.14874821521E+01  0.39927402559E+01  0.51100000000E-03 0.  1.
        -11    1    3    3    0    0 -0.14121921450E+02 -0.15284422268E+01  0.22209740254E+02  0.26363561282E+02  0.51100000000E-03 0. -1.
        -12    1    3    3    0    0  0.67170169986E+01 -0.23537370487E+01  0.18875215818E+02  0.20172559769E+02  0.00000000000E+00 0.  1.
</event>
<event>
 7    1  0.8697654E-014  0.5052894E+02  0.7816164E-02  0.1300439E+00
        -11   -1    0    0    0    0  0.00000000000E+00  0.00000000000E+00  0.45593999997E+02  0.45594000000E+02  0.51100000000E-03 0. -1.
         11   -1    0    0    0    0 -0.00000000000E+00 -0.00000000000E+00 -0.45593999997E+02  0.45594000000E+02  0.51100000000E-03 0.  1.
    9900012    2    1    2    0    0 -0.34405311565E+02  0.49849238512E+01 -0.21085173873E+02  0.50528935981E+02  0.30000231406E+02 0.  0.
         12    1    1    2    0    0  0.34405311565E+02 -0.49849238512E+01  0.21085173873E+02  0.40659064019E+02  0.00000000000E+00 0. -1.
         11    1    3    3    0    0 -0.51353678495E+01 -0.37451462272E+01 -0.17320311951E+01  0.65877200559E+01  0.51100000000E-03 0. -1.
        -11    1    3    3    0    0 -0.55083470343E+01 -0.72552691386E+01 -0.10640210891E+02  0.14006959177E+02  0.51100000000E-03 0.  1.
         12    1    3    3    0    0 -0.23761596681E+02  0.15985339217E+02 -0.87129317874E+01  0.29934256748E+02  0.00000000000E+00 0. -1.
</event>
<event>
 7    1  0.8697654E-014  0.5052886E+02  0.7816164E-02  0.1300439E+00
        -11   -1    0    0    0    0  0.00000000000E+00  0.00000000000E+00  0.45593999997E+02  0.45594000000E+02  0.51100000000E-03 0. -1.
         11   -1    0    0    0    0 -0.00000000000E+00 -0.00000000000E+00 -0.45593999997E+02  0.45594000000E+02  0.51100000000E-03 0.  1.
    9900012    2    1    2    0    0  0.29872098404E+02  0.45938856651E+01  0.27197789235E+02  0.50528858496E+02  0.29999995884E+02 0.  0.
        -12    1    1    2    0    0 -0.29872098404E+02 -0.45938856651E+01 -0.27197789235E+02  0.40659141504E+02  0.00000000000E+00 0.  1.
         11    1    3    3    0    0  0.15702455187E+02 -0.30896558392E+01  0.77665590408E+01  0.17788550016E+02  0.51100000000E-03 0. -1.
        -11    1    3    3    0    0  0.16492064599E+02  0.19355321390E+01  0.20571232830E+02  0.26436907909E+02  0.51100000000E-03 0.  1.
        -12    1    3    3    0    0 -0.23224213816E+01  0.57480093653E+01 -0.11400026354E+01  0.63034005700E+01  0.00000000000E+00 0.  1.
</event>
<event>
 7    1  0.8697654E-014  0.5052887E+02  0.7816164E-02  0.1300439E+00
        -11   -1    0    0    0    0  0.00000000000E+00  0.00000000000E+00  0.45593999997E+02  0.45594000000E+02  0.51100000000E-03 0. -1.
         11   -1    0    0    0    0 -0.00000000000E+00 -0.00000000000E+00 -0.45593999997E+02  0.45594000000E+02  0.51100000000E-03 0.  1.
    9900012    2    1    2    0    0 -0.97506495162E+01  0.24376109874E+02 -0.31046663227E+02  0.50528865772E+02  0.30000018002E+02 0.  0.
         12    1    1    2    0    0  0.97506495162E+01 -0.24376109874E+02  0.31046663227E+02  0.40659134228E+02  0.00000000000E+00 0. -1.
         11    1    3    3    0    0 -0.33887409874E+01  0.26809023145E+01  0.12126692346E+01  0.44879137284E+01  0.51100000000E-03 0. -1.
        -11    1    3    3    0    0  0.64701344395E+01  0.10725548256E+02 -0.40471341115E+01  0.13163560302E+02  0.51100000000E-03 0.  1.
        -12    1    3    3    0    0 -0.12832042968E+02  0.10969659304E+02 -0.28212198350E+02  0.32877391742E+02  0.00000000000E+00 0.  1.
</event>
<event>
 7    1  0.8697654E-014  0.5052886E+02  0.7816164E-02  0.1300439E+00
        -11   -1    0    0    0    0  0.00000000000E+00  0.00000000000E+00  0.45593999997E+02  0.45594000000E+02  0.51100000000E-03 0. -1.
         11   -1    0    0    0    0 -0.00000000000E+00 -0.00000000000E+00 -0.45593999997E+02  0.45594000000E+02  0.51100000000E-03 0.  1.
    9900012    2    1    2    0    0 -0.83318968759E+01 -0.39795304306E+02 -0.28086412375E+00  0.50528860375E+02  0.30000001596E+02 0.  0.
        -12    1    1    2    0    0  0.83318968759E+01  0.39795304306E+02  0.28086412375E+00  0.40659139625E+02  0.00000000000E+00 0.  1.
         11    1    3    3    0    0 -0.55912862749E+01 -0.19047211649E+01  0.69891690336E+01  0.91508977136E+01  0.51100000000E-03 0. -1.
        -11    1    3    3    0    0  0.38040930513E+01 -0.49855185665E+01  0.19805178675E+01  0.65763949550E+01  0.51100000000E-03 0.  1.
        -12    1    3    3    0    0 -0.65447036523E+01 -0.32905064575E+02 -0.92505510249E+01  0.34801567707E+02  0.00000000000E+00 0.  1.
</event>
<event>
 7    1  0.8697654E-014  0.5052887E+02  0.7816164E-02  0.1300439E+00
        -11   -1    0    0    0    0  0.00000000000E+00  0.00000000000E+00  0.45593999997E+02  0.45594000000E+02  0.51100000000E-03 0. -1.
         11   -1    0    0    0    0 -0.00000000000E+00 -0.00000000000E+00 -0.45593999997E+02  0.45594000000E+02  0.51100000000E-03 0.  1.
    9900012    2    1    2    0    0  0.27695874981E+02 -0.33546100084E+00  0.29765601775E+02  0.50528867273E+02  0.30000022563E+02 0.  0.
        -12    1    1    2    0    0 -0.27695874981E+02  0.33546100084E+00 -0.29765601775E+02  0.40659132727E+02  0.00000000000E+00 0.  1.
         11    1    3    3    0    0  0.14531856064E+02 -0.81701706529E+01  0.21025473145E+02  0.26832760767E+02  0.51100000000E-03 0. -1.
        -11    1    3    3    0    0  0.12808664495E+00 -0.41087943980E+01  0.30647760026E+01  0.51275188738E+01  0.51100000000E-03 0.  1.
         12    1    3    3    0    0  0.13035932273E+02  0.11943504050E+02  0.56753526279E+01  0.18568587633E+02  0.00000000000E+00 0. -1.
</event>
<event>
 7    1  0.8697654E-014  0.5052884E+02  0.7816164E-02  0.1300439E+00
        -11   -1    0    0    0    0  0.00000000000E+00  0.00000000000E+00  0.45593999997E+02  0.45594000000E+02  0.51100000000E-03 0.  1.
         11   -1    0    0    0    0 -0.00000000000E+00 -0.00000000000E+00 -0.45593999997E+02  0.45594000000E+02  0.51100000000E-03 0. -1.
    9900012    2    1    2    0    0  0.40251835227E+02 -0.16209197347E+01  0.55072627574E+01  0.50528836666E+02  0.29999929530E+02 0.  0.
        -12    1    1    2    0    0 -0.40251835227E+02  0.16209197347E+01 -0.55072627574E+01  0.40659163334E+02  0.00000000000E+00 0.  1.
         11    1    3    3    0    0  0.56363151825E+01 -0.84061141136E+01  0.61911455884E+01  0.11864277782E+02  0.51100000000E-03 0. -1.
        -11    1    3    3    0    0  0.47334672713E+01  0.57047545680E-01 -0.59307043919E+01  0.75882950441E+01  0.51100000000E-03 0.  1.
         12    1    3    3    0    0  0.29882052773E+02  0.67281468332E+01  0.52468215608E+01  0.31076263840E+02  0.00000000000E+00 0. -1.
</event>
<event>
 7    1  0.8697654E-014  0.5052886E+02  0.7816164E-02  0.1300439E+00
        -11   -1    0    0    0    0  0.00000000000E+00  0.00000000000E+00  0.45593999997E+02  0.45594000000E+02  0.51100000000E-03 0. -1.
         11   -1    0    0    0    0 -0.00000000000E+00 -0.00000000000E+00 -0.45593999997E+02  0.45594000000E+02  0.51100000000E-03 0.  1.
    9900012    2    1    2    0    0  0.59374842429E+01  0.38566353752E+02  0.11425763631E+02  0.50528862830E+02  0.30000009058E+02 0.  0.
        -12    1    1    2    0    0 -0.59374842429E+01 -0.38566353752E+02 -0.11425763631E+02  0.40659137170E+02  0.00000000000E+00 0.  1.
         11    1    3    3    0    0  0.88478616888E+01  0.11506563368E+02  0.21866950756E+01  0.14678804196E+02  0.51100000000E-03 0. -1.
        -11    1    3    3    0    0  0.52620177888E+01  0.17288499832E+02  0.13346601344E+02  0.22465814593E+02  0.51100000000E-03 0.  1.
        -12    1    3    3    0    0 -0.81723952347E+01  0.97712905519E+01 -0.41075327888E+01  0.13384244040E+02  0.00000000000E+00 0.  1.
</event>
<event>
 7    1  0.8697654E-014  0.5052886E+02  0.7816164E-02  0.1300439E+00
        -11   -1    0    0    0    0  0.00000000000E+00  0.00000000000E+00  0.45593999997E+02  0.45594000000E+02  0.51100000000E-03 0.  1.
         11   -1    0    0    0    0 -0.00000000000E+00 -0.00000000000E+00 -0.45593999997E+02  0.45594000000E+02  0.51100000000E-03 0. -1.
    9900012    2    1    2    0    0  0.30671178770E+02  0.13874838076E+02 -0.22802039839E+02  0.50528863762E+02  0.30000011892E+02 0.  0.
         12    1    1    2    0    0 -0.30671178770E+02 -0.13874838076E+02  0.22802039839E+02  0.40659136238E+02  0.00000000000E+00 0. -1.
         11    1    3    3    0    0  0.30789315432E+02  0.12671020259E+02 -0.23622776990E+02  0.40823673183E+02  0.51100000000E-03 0. -1.
        -11    1    3    3    0    0  0.44095595634E+01 -0.52762008462E+00  0.17429288493E+01  0.47707860706E+01  0.51100000000E-03 0.  1.
        -12    1    3    3    0    0 -0.45276962261E+01  0.17314379018E+01 -0.92219169897E+00  0.49344045085E+01  0.00000000000E+00 0.  1.
</event>
<event>
 7    1  0.8697654E-014  0.5052886E+02  0.7816164E-02  0.1300439E+00
        -11   -1    0    0    0    0  0.00000000000E+00  0.00000000000E+00  0.45593999997E+02  0.45594000000E+02  0.51100000000E-03 0. -1.
         11   -1    0    0    0    0 -0.00000000000E+00 -0.00000000000E+00 -0.45593999997E+02  0.45594000000E+02  0.51100000000E-03 0.  1.
    9900012    2    1    2    0    0  0.12095643424E+02  0.11267272539E+01  0.38801954888E+02  0.50528858257E+02  0.29999995159E+02 0.  0.
        -12    1    1    2    0    0 -0.12095643424E+02 -0.11267272539E+01 -0.38801954888E+02  0.40659141743E+02  0.00000000000E+00 0.  1.
         11    1    3    3    0    0  0.30645245056E+01 -0.15108783918E+01  0.31412142675E+01  0.46412596670E+01  0.51100000000E-03 0. -1.
        -11    1    3    3    0    0  0.26237313209E+01  0.14232731875E+02  0.12128630777E+02  0.18882751585E+02  0.51100000000E-03 0.  1.
         12    1    3    3    0    0  0.64073875973E+01 -0.11595126229E+02  0.23532109843E+02  0.27004847005E+02  0.00000000000E+00 0. -1.
</event>
<event>
 7    1  0.8697654E-014  0.5052886E+02  0.7816164E-02  0.1300439E+00
        -11   -1    0    0    0    0  0.00000000000E+00  0.00000000000E+00  0.45593999997E+02  0.45594000000E+02  0.51100000000E-03 0. -1.
         11   -1    0    0    0    0 -0.00000000000E+00 -0.00000000000E+00 -0.45593999997E+02  0.45594000000E+02  0.51100000000E-03 0.  1.
    9900012    2    1    2    0    0  0.10793594846E+02  0.38732995173E+01  0.39008485282E+02  0.50528855114E+02  0.29999985606E+02 0.  0.
        -12    1    1    2    0    0 -0.10793594846E+02 -0.38732995173E+01 -0.39008485282E+02  0.40659144886E+02  0.00000000000E+00 0.  1.
         11    1    3    3    0    0  0.12364576175E+02 -0.81018414229E+01  0.24196126383E+02  0.28354454864E+02  0.51100000000E-03 0. -1.
        -11    1    3    3    0    0  0.37017343877E+01  0.42792006481E+01  0.10433347532E+02  0.11868830467E+02  0.51100000000E-03 0.  1.
        -12    1    3    3    0    0 -0.52727157167E+01  0.76959402922E+01  0.43790113664E+01  0.10305569783E+02  0.00000000000E+00 0.  1.
</event>
<event>
 7    1  0.8697654E-014  0.5052887E+02  0.7816164E-02  0.1300439E+00
        -11   -1    0    0    0    0  0.00000000000E+00  0.00000000000E+00  0.45593999997E+02  0.45594000000E+02  0.51100000000E-03 0. -1.
         11   -1    0    0    0    0 -0.00000000000E+00 -0.00000000000E+00 -0.45593999997E+02  0.45594000000E+02  0.51100000000E-03 0.  1.
    9900012    2    1    2    0    0  0.30856841241E+02  0.27139333705E+01  0.26337331749E+02  0.50528866593E+02  0.30000020497E+02 0.  0.
        -12    1    1    2    0    0 -0.30856841241E+02 -0.27139333705E+01 -0.26337331749E+02  0.40659133407E+02  0.00000000000E+00 0.  1.
         11    1    3    3    0    0  0.58792876343E+01 -0.44384025966E+01  0.90578594469E+01  0.11675198444E+02  0.51100000000E-03 0. -1.
        -11    1    3    3    0    0  0.13408286331E+01 -0.41759176108E-01 -0.52488320749E+01  0.54175459078E+01  0.51100000000E-03 0.  1.
         12    1    3    3    0    0  0.23636724974E+02  0.71940951432E+01  0.22528304377E+02  0.33436122241E+02  0.00000000000E+00 0. -1.
</event>
<event>
 7    1  0.8697654E-014  0.5052883E+02  0.7816164E-02  0.1300439E+00
        -11   -1    0    0    0    0  0.00000000000E+00  0.00000000000E+00  0.45593999997E+02  0.45594000000E+02  0.51100000000E-03 0. -1.
         11   -1    0    0    0    0 -0.00000000000E+00 -0.00000000000E+00 -0.45593999997E+02  0.45594000000E+02  0.51100000000E-03 0.  1.
    9900012    2    1    2    0    0 -0.22137969891E+02  0.31226821983E+02 -0.13710007641E+02  0.50528825985E+02  0.29999897065E+02 0.  0.
         12    1    1    2    0    0  0.22137969891E+02 -0.31226821983E+02  0.13710007641E+02  0.40659174015E+02  0.00000000000E+00 0. -1.
         11    1    3    3    0    0  0.70407045405E+00 -0.60619312943E+00  0.21433012342E+01  0.23360063690E+01  0.51100000000E-03 0. -1.
        -11    1    3    3    0    0 -0.16432293688E+02  0.43213398139E+01 -0.34326948727E+01  0.17334291101E+02  0.51100000000E-03 0.  1.
        -12    1    3    3    0    0 -0.64097466569E+01  0.27511675298E+02 -0.12420614003E+02  0.30858528515E+02  0.00000000000E+00 0.  1.
</event>
<event>
 7    1  0.8697654E-014  0.5052886E+02  0.7816164E-02  0.1300439E+00
        -11   -1    0    0    0    0  0.00000000000E+00  0.00000000000E+00  0.45593999997E+02  0.45594000000E+02  0.51100000000E-03 0. -1.
         11   -1    0    0    0    0 -0.00000000000E+00 -0.00000000000E+00 -0.45593999997E+02  0.45594000000E+02  0.51100000000E-03 0.  1.
    9900012    2    1    2    0    0  0.20174180758E+02 -0.18988444988E+02  0.29759145945E+02  0.50528863516E+02  0.30000011142E+02 0.  0.
        -12    1    1    2    0    0 -0.20174180758E+02  0.18988444988E+02 -0.29759145945E+02  0.40659136484E+02  0.00000000000E+00 0.  1.
         11    1    3    3    0    0  0.15059336422E+02 -0.77939077162E+01  0.11588162553E+02  0.20538113900E+02  0.51100000000E-03 0. -1.
        -11    1    3    3    0    0  0.47766183396E+01 -0.62918144050E+01 -0.28538141446E+01  0.83992420315E+01  0.51100000000E-03 0.  1.
         12    1    3    3    0    0  0.33822599654E+00 -0.49027228663E+01  0.21024797536E+02  0.21591507584E+02  0.00000000000E+00 0. -1.
</event>
<event>
 7    1  0.8697654E-014  0.5052884E+02  0.7816164E-02  0.1300439E+00
        -11   -1    0    0    0    0  0.00000000000E+00  0.00000000000E+00  0.45593999997E+02  0.45594000000E+02  0.51100000000E-03 0. -1.
         11   -1    0    0    0    0 -0.00000000000E+00 -0.00000000000E+00 -0.45593999997E+02  0.45594000000E+02  0.51100000000E-03 0.  1.
    9900012    2    1    2    0    0  0.17430509349E+02  0.18280458039E+02  0.31861721392E+02  0.50528842454E+02  0.29999947123E+02 0.  0.
        -12    1    1    2    0    0 -0.17430509349E+02 -0.18280458039E+02 -0.31861721392E+02  0.40659157546E+02  0.00000000000E+00 0.  1.
         11    1    3    3    0    0  0.52334445652E+01  0.11267551134E+02  0.21994926677E+02  0.25261105486E+02  0.51100000000E-03 0. -1.
        -11    1    3    3    0    0  0.94167761927E+01 -0.16768290666E+01  0.12529809271E+02  0.15763361006E+02  0.51100000000E-03 0.  1.
        -12    1    3    3    0    0  0.27802885909E+01  0.86897359717E+01 -0.26630145555E+01  0.95043759621E+01  0.00000000000E+00 0.  1.
</event>
<event>
 7    1  0.8697654E-014  0.5052886E+02  0.7816164E-02  0.1300439E+00
        -11   -1    0    0    0    0  0.00000000000E+00  0.00000000000E+00  0.45593999997E+02  0.45594000000E+02  0.51100000000E-03 0. -1.
         11   -1    0    0    0    0 -0.00000000000E+00 -0.00000000000E+00 -0.45593999997E+02  0.45594000000E+02  0.51100000000E-03 0.  1.
    9900012    2    1    2    0    0  0.52903451607E+01  0.13881021243E+02  0.37848322706E+02  0.50528855465E+02  0.29999986672E+02 0.  0.
        -12    1    1    2    0    0 -0.52903451607E+01 -0.13881021243E+02 -0.37848322706E+02  0.40659144535E+02  0.00000000000E+00 0.  1.
         11    1    3    3    0    0  0.98369776099E+00 -0.26849792738E+01  0.74056353452E+01  0.79385269485E+01  0.51100000000E-03 0. -1.
        -11    1    3    3    0    0  0.92237294271E+01  0.13518791081E+01  0.13856303539E+01  0.94246874434E+01  0.51100000000E-03 0.  1.
         12    1    3    3    0    0 -0.49170820275E+01  0.15214121409E+02  0.29057057007E+02  0.33165641073E+02  0.00000000000E+00 0. -1.
</event>
<event>
 7    1  0.8697654E-014  0.5052886E+02  0.7816164E-02  0.1300439E+00
        -11   -1    0    0    0    0  0.00000000000E+00  0.00000000000E+00  0.45593999997E+02  0.45594000000E+02  0.51100000000E-03 0. -1.
         11   -1    0    0    0    0 -0.00000000000E+00 -0.00000000000E+00 -0.45593999997E+02  0.45594000000E+02  0.51100000000E-03 0.  1.
    9900012    2    1    2    0    0  0.51374084297E+01 -0.20610110976E+02 -0.34669810886E+02  0.50528862938E+02  0.30000009385E+02 0.  0.
         12    1    1    2    0    0 -0.51374084297E+01  0.20610110976E+02  0.34669810886E+02  0.40659137062E+02  0.00000000000E+00 0. -1.
         11    1    3    3    0    0 -0.91796628742E+01 -0.12087279081E+02 -0.10281262782E+02  0.18332290929E+02  0.51100000000E-03 0. -1.
        -11    1    3    3    0    0  0.49855242208E+01 -0.70151031725E+01 -0.35411337927E+01  0.93062749302E+01  0.51100000000E-03 0.  1.
        -12    1    3    3    0    0  0.93315470830E+01 -0.15077287223E+01 -0.20847414311E+02  0.22890297078E+02  0.00000000000E+00 0.  1.
</event>
<event>
 7    1  0.8697654E-014  0.5052884E+02  0.7816164E-02  0.1300439E+00
        -11   -1    0    0    0    0  0.00000000000E+00  0.00000000000E+00  0.45593999997E+02  0.45594000000E+02  0.51100000000E-03 0. -1.
         11   -1    0    0    0    0 -0.00000000000E+00 -0.00000000000E+00 -0.45593999997E+02  0.45594000000E+02  0.51100000000E-03 0.  1.
    9900012    2    1    2    0    0  0.26087988385E+02  0.15361098476E+02 -0.27140759437E+02  0.50528839812E+02  0.29999939092E+02 0.  0.
         12    1    1    2    0    0 -0.26087988385E+02 -0.15361098476E+02  0.27140759437E+02  0.40659160188E+02  0.00000000000E+00 0. -1.
         11    1    3    3    0    0  0.68859086424E+01  0.10419530923E+02 -0.12911746527E+02  0.17963729043E+02  0.51100000000E-03 0.  1.
        -11    1    3    3    0    0  0.74399364684E+01 -0.74014149424E+01 -0.21769839665E+00  0.10496713326E+02  0.51100000000E-03 0. -1.
         12    1    3    3    0    0  0.11762143274E+02  0.12342982496E+02 -0.14011314513E+02  0.22068397443E+02  0.00000000000E+00 0. -1.
</event>
<event>
 7    1  0.8697654E-014  0.5052886E+02  0.7816164E-02  0.1300439E+00
        -11   -1    0    0    0    0  0.00000000000E+00  0.00000000000E+00  0.45593999997E+02  0.45594000000E+02  0.51100000000E-03 0. -1.
         11   -1    0    0    0    0 -0.00000000000E+00 -0.00000000000E+00 -0.45593999997E+02  0.45594000000E+02  0.51100000000E-03 0.  1.
    9900012    2    1    2    0    0 -0.18828427654E+01 -0.30414177716E+02 -0.26918368589E+02  0.50528857479E+02  0.29999992793E+02 0.  0.
         12    1    1    2    0    0  0.18828427654E+01  0.30414177716E+02  0.26918368589E+02  0.40659142521E+02  0.00000000000E+00 0. -1.
         11    1    3    3    0    0  0.52799738525E+01 -0.45476478428E+01  0.21655914595E+01  0.72971920227E+01  0.51100000000E-03 0. -1.
        -11    1    3    3    0    0  0.30390410770E+01 -0.80147416797E+01 -0.13038924289E+01  0.86701782327E+01  0.51100000000E-03 0.  1.
         12    1    3    3    0    0 -0.10201857695E+02 -0.17851788194E+02 -0.27780067620E+02  0.34561487224E+02  0.00000000000E+00 0. -1.
</event>
<event>
 7    1  0.8697654E-014  0.5052885E+02  0.7816164E-02  0.1300439E+00
        -11   -1    0    0    0    0  0.00000000000E+00  0.00000000000E+00  0.45593999997E+02  0.45594000000E+02  0.51100000000E-03 0. -1.
         11   -1    0    0    0    0 -0.00000000000E+00 -0.00000000000E+00 -0.45593999997E+02  0.45594000000E+02  0.51100000000E-03 0.  1.
    9900012    2    1    2    0    0 -0.14467611587E+02 -0.28238667917E+02 -0.25425039619E+02  0.50528846168E+02  0.29999958411E+02 0.  0.
         12    1    1    2    0    0  0.14467611587E+02  0.28238667917E+02  0.25425039619E+02  0.40659153832E+02  0.00000000000E+00 0. -1.
         11    1    3    3    0    0  0.16773948838E+01 -0.26233009948E+01  0.14656017068E+01  0.34414169072E+01  0.51100000000E-03 0. -1.
        -11    1    3    3    0    0 -0.60548933104E+01  0.40552003084E+01 -0.43948513888E+01  0.85100588442E+01  0.51100000000E-03 0.  1.
        -12    1    3    3    0    0 -0.10090113160E+02 -0.29670567230E+02 -0.22495789937E+02  0.38577370416E+02  0.00000000000E+00 0.  1.
</event>
<event>
 7    1  0.8697654E-014  0.5052887E+02  0.7816164E-02  0.1300439E+00
        -11   -1    0    0    0    0  0.00000000000E+00  0.00000000000E+00  0.45593999997E+02  0.45594000000E+02  0.51100000000E-03 0. -1.
         11   -1    0    0    0    0 -0.00000000000E+00 -0.00000000000E+00 -0.45593999997E+02  0.45594000000E+02  0.51100000000E-03 0.  1.
    9900012    2    1    2    0    0  0.18905827422E+02 -0.27122027643E+02  0.23667066606E+02  0.50528871435E+02  0.30000035213E+02 0.  0.
        -12    1    1    2    0    0 -0.18905827422E+02  0.27122027643E+02 -0.23667066606E+02  0.40659128565E+02  0.00000000000E+00 0.  1.
         11    1    3    3    0    0  0.25387468352E+01  0.11483730658E+01  0.14371210128E+02  0.14638841382E+02  0.51100000000E-03 0.  1.
        -11    1    3    3    0    0  0.10560972609E+02 -0.12315871882E+02  0.97084724719E+01  0.18906858033E+02  0.51100000000E-03 0. -1.
        -12    1    3    3    0    0  0.58061079773E+01 -0.15954528826E+02 -0.41261599445E+00  0.16983172020E+02  0.00000000000E+00 0.  1.
</event>
<event>
 7    1  0.8697654E-014  0.5052893E+02  0.7816164E-02  0.1300439E+00
        -11   -1    0    0    0    0  0.00000000000E+00  0.00000000000E+00  0.45593999997E+02  0.45594000000E+02  0.51100000000E-03 0. -1.
         11   -1    0    0    0    0 -0.00000000000E+00 -0.00000000000E+00 -0.45593999997E+02  0.45594000000E+02  0.51100000000E-03 0.  1.
    9900012    2    1    2    0    0 -0.88654135035E+01 -0.23429358014E+02 -0.32025446562E+02  0.50528934577E+02  0.30000227141E+02 0.  0.
         12    1    1    2    0    0  0.88654135035E+01  0.23429358014E+02  0.32025446562E+02  0.40659065423E+02  0.00000000000E+00 0. -1.
         11    1    3    3    0    0  0.89095455745E+01 -0.33320260077E+01 -0.36640890970E+01  0.10193524848E+02  0.51100000000E-03 0. -1.
        -11    1    3    3    0    0 -0.77771240964E+01 -0.12243448629E+02 -0.86761661310E+01  0.16901525154E+02  0.51100000000E-03 0.  1.
        -12    1    3    3    0    0 -0.99978349815E+01 -0.78538833777E+01 -0.19685191334E+02  0.23433884575E+02  0.00000000000E+00 0.  1.
</event>
<event>
 7    1  0.1145796E-013  0.5052885E+02  0.7816164E-02  0.1300439E+00
        -11   -1    0    0    0    0  0.00000000000E+00  0.00000000000E+00  0.45593999997E+02  0.45594000000E+02  0.51100000000E-03 0.  1.
         11   -1    0    0    0    0 -0.00000000000E+00 -0.00000000000E+00 -0.45593999997E+02  0.45594000000E+02  0.51100000000E-03 0. -1.
    9900012    2    1    2    0    0  0.16462333206E+02  0.35053129257E+02 -0.12386923917E+02  0.50528853804E+02  0.29999981621E+02 0.  0.
         12    1    1    2    0    0 -0.16462333206E+02 -0.35053129257E+02  0.12386923917E+02  0.40659146196E+02  0.00000000000E+00 0. -1.
         11    1    3    3    0    0  0.14077474913E+02  0.10726585284E+02 -0.95783636670E+01  0.20124114454E+02  0.51100000000E-03 0. -1.
        -11    1    3    3    0    0  0.10417153362E+01  0.22972565121E+02 -0.84113752098E+01  0.24486223724E+02  0.51100000000E-03 0.  1.
         12    1    3    3    0    0  0.13431429567E+01  0.13539788530E+01  0.56028149599E+01  0.59185156257E+01  0.00000000000E+00 0. -1.
</event>
<event>
 7    1  0.8697654E-014  0.5052884E+02  0.7816164E-02  0.1300439E+00
        -11   -1    0    0    0    0  0.00000000000E+00  0.00000000000E+00  0.45593999997E+02  0.45594000000E+02  0.51100000000E-03 0. -1.
         11   -1    0    0    0    0 -0.00000000000E+00 -0.00000000000E+00 -0.45593999997E+02  0.45594000000E+02  0.51100000000E-03 0.  1.
    9900012    2    1    2    0    0 -0.14879341001E+02  0.21139071510E+02 -0.31383307541E+02  0.50528842051E+02  0.29999945897E+02 0.  0.
         12    1    1    2    0    0  0.14879341001E+02 -0.21139071510E+02  0.31383307541E+02  0.40659157949E+02  0.00000000000E+00 0. -1.
         11    1    3    3    0    0  0.16496813569E+01  0.14802618706E+01 -0.58649806628E+01  0.62698183563E+01  0.51100000000E-03 0. -1.
        -11    1    3    3    0    0 -0.20059790556E+02  0.19252499899E+02 -0.28354617661E+02  0.39711941434E+02  0.51100000000E-03 0.  1.
         12    1    3    3    0    0  0.35307681985E+01  0.40630974036E+00  0.28362907823E+01  0.45470822599E+01  0.00000000000E+00 0. -1.
</event>
<event>
 7    1  0.8697654E-014  0.5052885E+02  0.7816164E-02  0.1300439E+00
        -11   -1    0    0    0    0  0.00000000000E+00  0.00000000000E+00  0.45593999997E+02  0.45594000000E+02  0.51100000000E-03 0. -1.
         11   -1    0    0    0    0 -0.00000000000E+00 -0.00000000000E+00 -0.45593999997E+02  0.45594000000E+02  0.51100000000E-03 0.  1.
    9900012    2    1    2    0    0 -0.18334411816E+02 -0.53870117237E+01  0.35888657704E+02  0.50528852151E+02  0.29999976600E+02 0.  0.
        -12    1    1    2    0    0  0.18334411816E+02  0.53870117237E+01 -0.35888657704E+02  0.40659147849E+02  0.00000000000E+00 0.  1.
         11    1    3    3    0    0 -0.14528026054E+01 -0.46204066580E+01 -0.13197414253E+01  0.50200110344E+01  0.51100000000E-03 0. -1.
        -11    1    3    3    0    0  0.15806676068E+01  0.19616675334E+01 -0.12119252126E+01  0.27956059409E+01  0.51100000000E-03 0.  1.
         12    1    3    3    0    0 -0.18462276817E+02 -0.27282725991E+01  0.38420324342E+02  0.42713235176E+02  0.00000000000E+00 0. -1.
</event>
<event>
 7    1  0.8697654E-014  0.5052888E+02  0.7816164E-02  0.1300439E+00
        -11   -1    0    0    0    0  0.00000000000E+00  0.00000000000E+00  0.45593999997E+02  0.45594000000E+02  0.51100000000E-03 0. -1.
         11   -1    0    0    0    0 -0.00000000000E+00 -0.00000000000E+00 -0.45593999997E+02  0.45594000000E+02  0.51100000000E-03 0.  1.
    9900012    2    1    2    0    0  0.14563737002E+02  0.15045973741E+01  0.37931489027E+02  0.50528879147E+02  0.30000058656E+02 0.  0.
        -12    1    1    2    0    0 -0.14563737002E+02 -0.15045973741E+01 -0.37931489027E+02  0.40659120853E+02  0.00000000000E+00 0.  1.
         11    1    3    3    0    0  0.95741418905E+00 -0.23874063796E+01  0.32265920420E+02  0.32368286516E+02  0.51100000000E-03 0. -1.
        -11    1    3    3    0    0  0.27771655844E+01  0.55956807134E+01  0.14306534909E+01  0.64086707672E+01  0.51100000000E-03 0.  1.
        -12    1    3    3    0    0  0.10829157229E+02 -0.17036769597E+01  0.42349151155E+01  0.11751921864E+02  0.00000000000E+00 0.  1.
</event>
<event>
 7    1  0.8697654E-014  0.5052886E+02  0.7816164E-02  0.1300439E+00
        -11   -1    0    0    0    0  0.00000000000E+00  0.00000000000E+00  0.45593999997E+02  0.45594000000E+02  0.51100000000E-03 0. -1.
         11   -1    0    0    0    0 -0.00000000000E+00 -0.00000000000E+00 -0.45593999997E+02  0.45594000000E+02  0.51100000000E-03 0.  1.
    9900012    2    1    2    0    0 -0.31964042197E+02 -0.21225679010E+02 -0.13451262405E+02  0.50528857077E+02  0.29999991570E+02 0.  0.
         12    1    1    2    0    0  0.31964042197E+02  0.21225679010E+02  0.13451262405E+02  0.40659142923E+02  0.00000000000E+00 0. -1.
         11    1    3    3    0    0  0.22954836641E+00 -0.10756172958E+02 -0.56844009766E+01  0.12168005748E+02  0.51100000000E-03 0. -1.
        -11    1    3    3    0    0 -0.12142482375E+02 -0.19693518237E+01 -0.10803509302E+02  0.16371745122E+02  0.51100000000E-03 0.  1.
         12    1    3    3    0    0 -0.20051108188E+02 -0.85001542284E+01  0.30366478737E+01  0.21989106207E+02  0.00000000000E+00 0. -1.
</event>
<event>
 7    1  0.8697654E-014  0.5052885E+02  0.7816164E-02  0.1300439E+00
        -11   -1    0    0    0    0  0.00000000000E+00  0.00000000000E+00  0.45593999997E+02  0.45594000000E+02  0.51100000000E-03 0. -1.
         11   -1    0    0    0    0 -0.00000000000E+00 -0.00000000000E+00 -0.45593999997E+02  0.45594000000E+02  0.51100000000E-03 0.  1.
    9900012    2    1    2    0    0 -0.26373957859E+02  0.10125260995E+02 -0.29241406751E+02  0.50528850573E+02  0.29999971802E+02 0.  0.
         12    1    1    2    0    0  0.26373957859E+02 -0.10125260995E+02  0.29241406751E+02  0.40659149427E+02  0.00000000000E+00 0. -1.
         11    1    3    3    0    0 -0.55572842782E+01 -0.29639506885E+01 -0.12581068944E+01  0.64227132468E+01  0.51100000000E-03 0. -1.
        -11    1    3    3    0    0 -0.18347342472E+02 -0.18474284213E+00 -0.23635879215E+02  0.29921796273E+02  0.51100000000E-03 0.  1.
         12    1    3    3    0    0 -0.24693311090E+01  0.13273954525E+02 -0.43474206415E+01  0.14184341053E+02  0.00000000000E+00 0. -1.
</event>
<event>
 7    1  0.8698703E-014  0.5052886E+02  0.7816164E-02  0.1300439E+00
        -11   -1    0    0    0    0  0.00000000000E+00  0.00000000000E+00  0.45593999997E+02  0.45594000000E+02  0.51100000000E-03 0. -1.
         11   -1    0    0    0    0 -0.00000000000E+00 -0.00000000000E+00 -0.45593999997E+02  0.45594000000E+02  0.51100000000E-03 0.  1.
    9900012    2    1    2    0    0  0.83904609896E+01  0.87951752430E+01 -0.38799625362E+02  0.50528857468E+02  0.29999992760E+02 0.  0.
         12    1    1    2    0    0 -0.83904609896E+01 -0.87951752430E+01  0.38799625362E+02  0.40659142532E+02  0.00000000000E+00 0. -1.
         11    1    3    3    0    0  0.13679847613E+01  0.74721917779E+01 -0.78918514270E+01  0.10953828165E+02  0.51100000000E-03 0.  1.
        -11    1    3    3    0    0  0.12040579288E+02  0.58183269483E+01 -0.29911346519E+02  0.32764571245E+02  0.51100000000E-03 0. -1.
         12    1    3    3    0    0 -0.50181030597E+01 -0.44953434832E+01 -0.99642741677E+00  0.68104580571E+01  0.00000000000E+00 0. -1.
</event>
<event>
 7    1  0.8697654E-014  0.5052886E+02  0.7816164E-02  0.1300439E+00
        -11   -1    0    0    0    0  0.00000000000E+00  0.00000000000E+00  0.45593999997E+02  0.45594000000E+02  0.51100000000E-03 0. -1.
         11   -1    0    0    0    0 -0.00000000000E+00 -0.00000000000E+00 -0.45593999997E+02  0.45594000000E+02  0.51100000000E-03 0.  1.
    9900012    2    1    2    0    0  0.24433279404E+02 -0.16115127233E+02  0.28222034422E+02  0.50528859637E+02  0.29999999351E+02 0.  0.
        -12    1    1    2    0    0 -0.24433279404E+02  0.16115127233E+02 -0.28222034422E+02  0.40659140363E+02  0.00000000000E+00 0.  1.
         11    1    3    3    0    0 -0.13702625998E+01 -0.70995487468E+01  0.21560185403E+01  0.75451725101E+01  0.51100000000E-03 0.  1.
        -11    1    3    3    0    0  0.15819154671E+02  0.16561249606E+01  0.38052237571E+01  0.16354452986E+02  0.51100000000E-03 0. -1.
         12    1    3    3    0    0  0.99843873335E+01 -0.10671703446E+02  0.22260792125E+02  0.26629234140E+02  0.00000000000E+00 0. -1.
</event>
<event>
 7    1  0.1056992E-013  0.5052885E+02  0.7816164E-02  0.1300439E+00
        -11   -1    0    0    0    0  0.00000000000E+00  0.00000000000E+00  0.45593999997E+02  0.45594000000E+02  0.51100000000E-03 0. -1.
         11   -1    0    0    0    0 -0.00000000000E+00 -0.00000000000E+00 -0.45593999997E+02  0.45594000000E+02  0.51100000000E-03 0.  1.
    9900012    2    1    2    0    0 -0.10332338709E+02  0.25102821808E+02 -0.30269741479E+02  0.50528854225E+02  0.29999982902E+02 0.  0.
         12    1    1    2    0    0  0.10332338709E+02 -0.25102821808E+02  0.30269741479E+02  0.40659145775E+02  0.00000000000E+00 0. -1.
         11    1    3    3    0    0 -0.68612400713E+01 -0.35618128294E+01 -0.84573901904E+01  0.11458209941E+02  0.51100000000E-03 0. -1.
        -11    1    3    3    0    0 -0.76292763644E+01  0.70695551056E+01 -0.63352398638E+01  0.12178658860E+02  0.51100000000E-03 0.  1.
         12    1    3    3    0    0  0.41581777271E+01  0.21595079532E+02 -0.15477111425E+02  0.26891985424E+02  0.00000000000E+00 0. -1.
</event>
<event>
 7    1  0.8697654E-014  0.5052877E+02  0.7816164E-02  0.1300439E+00
        -11   -1    0    0    0    0  0.00000000000E+00  0.00000000000E+00  0.45593999997E+02  0.45594000000E+02  0.51100000000E-03 0. -1.
         11   -1    0    0    0    0 -0.00000000000E+00 -0.00000000000E+00 -0.45593999997E+02  0.45594000000E+02  0.51100000000E-03 0.  1.
    9900012    2    1    2    0    0  0.11536501594E+02 -0.92436553538E+00 -0.38977265973E+02  0.50528774929E+02  0.29999741872E+02 0.  0.
         12    1    1    2    0    0 -0.11536501594E+02  0.92436553538E+00  0.38977265973E+02  0.40659225071E+02  0.00000000000E+00 0. -1.
         11    1    3    3    0    0 -0.11941985664E+01 -0.12412109771E+01 -0.18596966632E+02  0.18676559723E+02  0.51100000000E-03 0. -1.
        -11    1    3    3    0    0  0.52984372149E+00 -0.40819212995E+01 -0.18250509450E+02  0.18708925979E+02  0.51100000000E-03 0.  1.
        -12    1    3    3    0    0  0.12200856439E+02  0.43987667412E+01 -0.21297898907E+01  0.13143289226E+02  0.00000000000E+00 0.  1.
</event>
<event>
 7    1  0.8697654E-014  0.5052886E+02  0.7816164E-02  0.1300439E+00
        -11   -1    0    0    0    0  0.00000000000E+00  0.00000000000E+00  0.45593999997E+02  0.45594000000E+02  0.51100000000E-03 0. -1.
         11   -1    0    0    0    0 -0.00000000000E+00 -0.00000000000E+00 -0.45593999997E+02  0.45594000000E+02  0.51100000000E-03 0.  1.
    9900012    2    1    2    0    0 -0.29160284737E+02 -0.14409181112E+01 -0.28297834547E+02  0.50528857227E+02  0.29999992028E+02 0.  0.
         12    1    1    2    0    0  0.29160284737E+02  0.14409181112E+01  0.28297834547E+02  0.40659142773E+02  0.00000000000E+00 0. -1.
         11    1    3    3    0    0 -0.10273360456E+02  0.49013935184E+01 -0.61300646772E+01  0.12928390723E+02  0.51100000000E-03 0. -1.
        -11    1    3    3    0    0 -0.32269600118E+01 -0.31590798470E+01  0.45868263127E+01  0.64367718836E+01  0.51100000000E-03 0.  1.
        -12    1    3    3    0    0 -0.15659964269E+02 -0.31832317826E+01 -0.26754596183E+02  0.31163694620E+02  0.00000000000E+00 0.  1.
</event>
<event>
 7    1  0.8697654E-014  0.5052886E+02  0.7816164E-02  0.1300439E+00
        -11   -1    0    0    0    0  0.00000000000E+00  0.00000000000E+00  0.45593999997E+02  0.45594000000E+02  0.51100000000E-03 0. -1.
         11   -1    0    0    0    0 -0.00000000000E+00 -0.00000000000E+00 -0.45593999997E+02  0.45594000000E+02  0.51100000000E-03 0.  1.
    9900012    2    1    2    0    0  0.15278760684E+02  0.29441478341E+02 -0.23514341643E+02  0.50528862800E+02  0.30000008967E+02 0.  0.
         12    1    1    2    0    0 -0.15278760684E+02 -0.29441478341E+02  0.23514341643E+02  0.40659137200E+02  0.00000000000E+00 0. -1.
         11    1    3    3    0    0  0.13260344189E+02  0.32958752372E+02 -0.18427601562E+02  0.40021151727E+02  0.51100000000E-03 0. -1.
        -11    1    3    3    0    0 -0.10935190320E+01  0.16578534530E+01  0.73695690680E+00  0.21183407867E+01  0.51100000000E-03 0.  1.
         12    1    3    3    0    0  0.31119355268E+01 -0.51751274843E+01 -0.58236969877E+01  0.83893702867E+01  0.00000000000E+00 0. -1.
</event>
<event>
 7    1  0.8697654E-014  0.5052885E+02  0.7816164E-02  0.1300439E+00
        -11   -1    0    0    0    0  0.00000000000E+00  0.00000000000E+00  0.45593999997E+02  0.45594000000E+02  0.51100000000E-03 0. -1.
         11   -1    0    0    0    0 -0.00000000000E+00 -0.00000000000E+00 -0.45593999997E+02  0.45594000000E+02  0.51100000000E-03 0.  1.
    9900012    2    1    2    0    0  0.12676301806E+02 -0.19079905545E+02  0.33592183023E+02  0.50528853633E+02  0.29999981103E+02 0.  0.
        -12    1    1    2    0    0 -0.12676301806E+02  0.19079905545E+02 -0.33592183023E+02  0.40659146367E+02  0.00000000000E+00 0.  1.
         11    1    3    3    0    0  0.13048679606E+02 -0.54651257492E+01  0.48286241838E+01  0.14948285878E+02  0.51100000000E-03 0. -1.
        -11    1    3    3    0    0 -0.40319327835E+01 -0.74655008780E+01  0.32555417358E+01  0.90878345927E+01  0.51100000000E-03 0.  1.
         12    1    3    3    0    0  0.36595549833E+01 -0.61492789174E+01  0.25508017103E+02  0.26492733162E+02  0.00000000000E+00 0. -1.
</event>
<event>
 7    1  0.8697654E-014  0.5052886E+02  0.7816164E-02  0.1300439E+00
        -11   -1    0    0    0    0  0.00000000000E+00  0.00000000000E+00  0.45593999997E+02  0.45594000000E+02  0.51100000000E-03 0. -1.
         11   -1    0    0    0    0 -0.00000000000E+00 -0.00000000000E+00 -0.45593999997E+02  0.45594000000E+02  0.51100000000E-03 0.  1.
    9900012    2    1    2    0    0  0.31943504426E+02 -0.16667919800E+02 -0.18840346909E+02  0.50528859612E+02  0.29999999276E+02 0.  0.
         12    1    1    2    0    0 -0.31943504426E+02  0.16667919800E+02  0.18840346909E+02  0.40659140388E+02  0.00000000000E+00 0. -1.
         11    1    3    3    0    0  0.20623270518E+01  0.32577165349E+01 -0.97730288331E+00  0.39775659739E+01  0.51100000000E-03 0. -1.
        -11    1    3    3    0    0  0.21152802877E+02 -0.32034836115E+01 -0.17573037309E+02  0.27686007609E+02  0.51100000000E-03 0.  1.
         12    1    3    3    0    0  0.87283744967E+01 -0.16722152723E+02 -0.29000671679E+00  0.18865286029E+02  0.00000000000E+00 0. -1.
</event>
<event>
 7    1  0.8697654E-014  0.5052885E+02  0.7816164E-02  0.1300439E+00
        -11   -1    0    0    0    0  0.00000000000E+00  0.00000000000E+00  0.45593999997E+02  0.45594000000E+02  0.51100000000E-03 0. -1.
         11   -1    0    0    0    0 -0.00000000000E+00 -0.00000000000E+00 -0.45593999997E+02  0.45594000000E+02  0.51100000000E-03 0.  1.
    9900012    2    1    2    0    0  0.21471195527E+02  0.18292668740E+02 -0.29283659263E+02  0.50528847687E+02  0.29999963029E+02 0.  0.
         12    1    1    2    0    0 -0.21471195527E+02 -0.18292668740E+02  0.29283659263E+02  0.40659152313E+02  0.00000000000E+00 0. -1.
         11    1    3    3    0    0 -0.42114128687E+00  0.12396916913E+02  0.92323291064E+00  0.12438378841E+02  0.51100000000E-03 0.  1.
        -11    1    3    3    0    0  0.90700998630E+01  0.35470717271E+01 -0.16607648479E+02  0.19252595088E+02  0.51100000000E-03 0. -1.
        -12    1    3    3    0    0  0.12822236951E+02  0.23486801003E+01 -0.13599243694E+02  0.18837873757E+02  0.00000000000E+00 0.  1.
</event>
<event>
 7    1  0.1073566E-013  0.5052881E+02  0.7816164E-02  0.1300439E+00
        -11   -1    0    0    0    0  0.00000000000E+00  0.00000000000E+00  0.45593999997E+02  0.45594000000E+02  0.51100000000E-03 0. -1.
         11   -1    0    0    0    0 -0.00000000000E+00 -0.00000000000E+00 -0.45593999997E+02  0.45594000000E+02  0.51100000000E-03 0.  1.
    9900012    2    1    2    0    0 -0.12413761712E+01 -0.33509469771E+02 -0.22994444902E+02  0.50528805770E+02  0.29999835617E+02 0.  0.
         12    1    1    2    0    0  0.12413761712E+01  0.33509469771E+02  0.22994444902E+02  0.40659194230E+02  0.00000000000E+00 0. -1.
         11    1    3    3    0    0 -0.82109155013E+01 -0.20567298799E+02 -0.14871863714E+02  0.26675930047E+02  0.51100000000E-03 0. -1.
        -11    1    3    3    0    0  0.50811784655E+01 -0.11409455197E+02 -0.13231104500E+02  0.18194948998E+02  0.51100000000E-03 0.  1.
         12    1    3    3    0    0  0.18883608646E+01 -0.15327157747E+01  0.51085233119E+01  0.56579267253E+01  0.00000000000E+00 0. -1.
</event>
<event>
 7    1  0.8697654E-014  0.5052886E+02  0.7816164E-02  0.1300439E+00
        -11   -1    0    0    0    0  0.00000000000E+00  0.00000000000E+00  0.45593999997E+02  0.45594000000E+02  0.51100000000E-03 0.  1.
         11   -1    0    0    0    0 -0.00000000000E+00 -0.00000000000E+00 -0.45593999997E+02  0.45594000000E+02  0.51100000000E-03 0. -1.
    9900012    2    1    2    0    0 -0.31533730506E+01 -0.39190763488E+02 -0.10358862232E+02  0.50528859193E+02  0.29999998004E+02 0.  0.
         12    1    1    2    0    0  0.31533730506E+01  0.39190763488E+02  0.10358862232E+02  0.40659140807E+02  0.00000000000E+00 0. -1.
         11    1    3    3    0    0  0.25823549204E+01 -0.60048745039E+01  0.78326108744E+01  0.10201807100E+02  0.51100000000E-03 0. -1.
        -11    1    3    3    0    0 -0.26765290112E+01 -0.28652954183E+02 -0.99757591461E+01  0.30457697907E+02  0.51100000000E-03 0.  1.
        -12    1    3    3    0    0 -0.30591989598E+01 -0.45329348013E+01 -0.82157139599E+01  0.98693541865E+01  0.00000000000E+00 0.  1.
</event>
<event>
 7    1  0.8697654E-014  0.5052886E+02  0.7816164E-02  0.1300439E+00
        -11   -1    0    0    0    0  0.00000000000E+00  0.00000000000E+00  0.45593999997E+02  0.45594000000E+02  0.51100000000E-03 0.  1.
         11   -1    0    0    0    0 -0.00000000000E+00 -0.00000000000E+00 -0.45593999997E+02  0.45594000000E+02  0.51100000000E-03 0. -1.
    9900012    2    1    2    0    0 -0.38691642698E+02  0.11818096550E+02  0.40565061781E+01  0.50528857570E+02  0.29999993071E+02 0.  0.
         12    1    1    2    0    0  0.38691642698E+02 -0.11818096550E+02 -0.40565061781E+01  0.40659142430E+02  0.00000000000E+00 0. -1.
         11    1    3    3    0    0 -0.15606777752E+02  0.56750979904E+01  0.11995734542E+02  0.20485992689E+02  0.51100000000E-03 0. -1.
        -11    1    3    3    0    0 -0.23811187742E+02  0.75740967088E+01 -0.33861023395E+01  0.25215179793E+02  0.51100000000E-03 0.  1.
         12    1    3    3    0    0  0.72632279636E+00 -0.14310981488E+01 -0.45531260248E+01  0.48276850885E+01  0.00000000000E+00 0. -1.
</event>
<event>
 7    1  0.8697654E-014  0.5052886E+02  0.7816164E-02  0.1300439E+00
        -11   -1    0    0    0    0  0.00000000000E+00  0.00000000000E+00  0.45593999997E+02  0.45594000000E+02  0.51100000000E-03 0. -1.
         11   -1    0    0    0    0 -0.00000000000E+00 -0.00000000000E+00 -0.45593999997E+02  0.45594000000E+02  0.51100000000E-03 0.  1.
    9900012    2    1    2    0    0  0.11900129192E+02 -0.26710770298E+02  0.28250443561E+02  0.50528857288E+02  0.29999992212E+02 0.  0.
        -12    1    1    2    0    0 -0.11900129192E+02  0.26710770298E+02 -0.28250443561E+02  0.40659142712E+02  0.00000000000E+00 0.  1.
         11    1    3    3    0    0 -0.10299122718E+01  0.49118682280E+00  0.16331999985E+02  0.16371811370E+02  0.51100000000E-03 0. -1.
        -11    1    3    3    0    0 -0.10948589457E+01 -0.43808008310E+01 -0.66167256380E+00  0.45637641126E+01  0.51100000000E-03 0.  1.
         12    1    3    3    0    0  0.14024900410E+02 -0.22821156289E+02  0.12580116140E+02  0.29593281805E+02  0.00000000000E+00 0. -1.
</event>
<event>
 7    1  0.8697654E-014  0.5052886E+02  0.7816164E-02  0.1300439E+00
        -11   -1    0    0    0    0  0.00000000000E+00  0.00000000000E+00  0.45593999997E+02  0.45594000000E+02  0.51100000000E-03 0. -1.
         11   -1    0    0    0    0 -0.00000000000E+00 -0.00000000000E+00 -0.45593999997E+02  0.45594000000E+02  0.51100000000E-03 0.  1.
    9900012    2    1    2    0    0 -0.18640573931E+02 -0.98677793924E+01 -0.34760919437E+02  0.50528860969E+02  0.30000003402E+02 0.  0.
         12    1    1    2    0    0  0.18640573931E+02  0.98677793924E+01  0.34760919437E+02  0.40659139031E+02  0.00000000000E+00 0. -1.
         11    1    3    3    0    0 -0.35244776240E+01 -0.13852973573E+01  0.15103337012E+01  0.40770209026E+01  0.51100000000E-03 0. -1.
        -11    1    3    3    0    0  0.46157219903E+01  0.31657592078E+01 -0.10981782567E+02  0.12325845589E+02  0.51100000000E-03 0.  1.
        -12    1    3    3    0    0 -0.19731818297E+02 -0.11648241243E+02 -0.25289470571E+02  0.34125994478E+02  0.00000000000E+00 0.  1.
</event>
<event>
 7    1  0.8697654E-014  0.5052885E+02  0.7816164E-02  0.1300439E+00
        -11   -1    0    0    0    0  0.00000000000E+00  0.00000000000E+00  0.45593999997E+02  0.45594000000E+02  0.51100000000E-03 0. -1.
         11   -1    0    0    0    0 -0.00000000000E+00 -0.00000000000E+00 -0.45593999997E+02  0.45594000000E+02  0.51100000000E-03 0.  1.
    9900012    2    1    2    0    0 -0.14678748346E+01  0.37406163372E+02  0.15867925191E+02  0.50528846485E+02  0.29999959374E+02 0.  0.
        -12    1    1    2    0    0  0.14678748346E+01 -0.37406163372E+02 -0.15867925191E+02  0.40659153515E+02  0.00000000000E+00 0.  1.
         11    1    3    3    0    0  0.29548702356E+01  0.10236343314E+02 -0.35275857205E+01  0.11223094218E+02  0.51100000000E-03 0. -1.
        -11    1    3    3    0    0 -0.28563755596E+00 -0.25932018998E+01 -0.12044179420E+01  0.28734835560E+01  0.51100000000E-03 0.  1.
         12    1    3    3    0    0 -0.41371075142E+01  0.29763021957E+02  0.20599928853E+02  0.36432268710E+02  0.00000000000E+00 0. -1.
</event>
<event>
 7    1  0.8697654E-014  0.5052886E+02  0.7816164E-02  0.1300439E+00
        -11   -1    0    0    0    0  0.00000000000E+00  0.00000000000E+00  0.45593999997E+02  0.45594000000E+02  0.51100000000E-03 0. -1.
         11   -1    0    0    0    0 -0.00000000000E+00 -0.00000000000E+00 -0.45593999997E+02  0.45594000000E+02  0.51100000000E-03 0.  1.
    9900012    2    1    2    0    0  0.15631879100E+02 -0.25992515177E+02  0.27077644560E+02  0.50528864195E+02  0.30000013208E+02 0.  0.
        -12    1    1    2    0    0 -0.15631879100E+02  0.25992515177E+02 -0.27077644560E+02  0.40659135805E+02  0.00000000000E+00 0.  1.
         11    1    3    3    0    0  0.39169488109E+01 -0.75461523727E+01  0.13212264489E+02  0.15711487415E+02  0.51100000000E-03 0. -1.
        -11    1    3    3    0    0 -0.45285224661E+01 -0.14542233214E+02  0.66978402185E+01  0.16638663601E+02  0.51100000000E-03 0.  1.
        -12    1    3    3    0    0  0.16243452756E+02 -0.39041295901E+01  0.71675398532E+01  0.18178713179E+02  0.00000000000E+00 0.  1.
</event>
<event>
 7    1  0.8697654E-014  0.5052884E+02  0.7816164E-02  0.1300439E+00
        -11   -1    0    0    0    0  0.00000000000E+00  0.00000000000E+00  0.45593999997E+02  0.45594000000E+02  0.51100000000E-03 0. -1.
         11   -1    0    0    0    0 -0.00000000000E+00 -0.00000000000E+00 -0.45593999997E+02  0.45594000000E+02  0.51100000000E-03 0.  1.
    9900012    2    1    2    0    0 -0.14576407453E+01  0.20196620553E+02  0.35258183449E+02  0.50528835001E+02  0.29999924467E+02 0.  0.
        -12    1    1    2    0    0  0.14576407453E+01 -0.20196620553E+02 -0.35258183449E+02  0.40659164999E+02  0.00000000000E+00 0.  1.
         11    1    3    3    0    0 -0.24392654044E+01  0.19353765427E+02  0.18767078866E+02  0.27068828961E+02  0.51100000000E-03 0. -1.
        -11    1    3    3    0    0 -0.53231137986E+01 -0.12330696381E+00 -0.46412922141E+00  0.53447321088E+01  0.51100000000E-03 0.  1.
        -12    1    3    3    0    0  0.63047384576E+01  0.96616209037E+00  0.16955233805E+02  0.18115273931E+02  0.00000000000E+00 0.  1.
</event>
<event>
 7    1  0.1095066E-013  0.5052886E+02  0.7816164E-02  0.1300439E+00
        -11   -1    0    0    0    0  0.00000000000E+00  0.00000000000E+00  0.45593999997E+02  0.45594000000E+02  0.51100000000E-03 0. -1.
         11   -1    0    0    0    0 -0.00000000000E+00 -0.00000000000E+00 -0.45593999997E+02  0.45594000000E+02  0.51100000000E-03 0.  1.
    9900012    2    1    2    0    0 -0.19694003574E+02 -0.80907767672E+01 -0.34638868374E+02  0.50528860219E+02  0.30000001122E+02 0.  0.
         12    1    1    2    0    0  0.19694003574E+02  0.80907767672E+01  0.34638868374E+02  0.40659139781E+02  0.00000000000E+00 0. -1.
         11    1    3    3    0    0  0.11707587970E+01 -0.50656409135E+01 -0.24653960526E+01  0.57540917600E+01  0.51100000000E-03 0. -1.
        -11    1    3    3    0    0 -0.98687072851E+01  0.21780146888E+01  0.28639282792E+00  0.10110249877E+02  0.51100000000E-03 0.  1.
        -12    1    3    3    0    0 -0.10996055086E+02 -0.52031505425E+01 -0.32459865149E+02  0.34664518582E+02  0.00000000000E+00 0.  1.
</event>
<event>
 7    1  0.8697654E-014  0.5052886E+02  0.7816164E-02  0.1300439E+00
        -11   -1    0    0    0    0  0.00000000000E+00  0.00000000000E+00  0.45593999997E+02  0.45594000000E+02  0.51100000000E-03 0. -1.
         11   -1    0    0    0    0 -0.00000000000E+00 -0.00000000000E+00 -0.45593999997E+02  0.45594000000E+02  0.51100000000E-03 0.  1.
    9900012    2    1    2    0    0 -0.33163384996E+02  0.10979196448E+02 -0.20804144631E+02  0.50528864583E+02  0.30000014387E+02 0.  0.
         12    1    1    2    0    0  0.33163384996E+02 -0.10979196448E+02  0.20804144631E+02  0.40659135417E+02  0.00000000000E+00 0. -1.
         11    1    3    3    0    0 -0.18157158617E+02  0.11391085267E+02  0.15075985062E+01  0.21487486734E+02  0.51100000000E-03 0. -1.
        -11    1    3    3    0    0 -0.10309554211E+02  0.35198666644E+01 -0.81290901624E+01  0.13592589029E+02  0.51100000000E-03 0.  1.
        -12    1    3    3    0    0 -0.46966721673E+01 -0.39317554833E+01 -0.14182652974E+02  0.15448788821E+02  0.00000000000E+00 0.  1.
</event>
<event>
 7    1  0.8697654E-014  0.5052893E+02  0.7816164E-02  0.1300439E+00
        -11   -1    0    0    0    0  0.00000000000E+00  0.00000000000E+00  0.45593999997E+02  0.45594000000E+02  0.51100000000E-03 0. -1.
         11   -1    0    0    0    0 -0.00000000000E+00 -0.00000000000E+00 -0.45593999997E+02  0.45594000000E+02  0.51100000000E-03 0.  1.
    9900012    2    1    2    0    0  0.89112173602E+01 -0.24238043076E+02 -0.31404892045E+02  0.50528932483E+02  0.30000220774E+02 0.  0.
         12    1    1    2    0    0 -0.89112173602E+01  0.24238043076E+02  0.31404892045E+02  0.40659067517E+02  0.00000000000E+00 0. -1.
         11    1    3    3    0    0 -0.29723033110E+01  0.19235865942E+01  0.62157727598E+00  0.35945974641E+01  0.51100000000E-03 0. -1.
        -11    1    3    3    0    0  0.64612297355E+01 -0.27870164820E+02 -0.26191616272E+02  0.38787811745E+02  0.51100000000E-03 0.  1.
         12    1    3    3    0    0  0.54222909358E+01  0.17085351491E+01 -0.58348530489E+01  0.81465232738E+01  0.00000000000E+00 0. -1.
</event>
<event>
 7    1  0.8697654E-014  0.5052885E+02  0.7816164E-02  0.1300439E+00
        -11   -1    0    0    0    0  0.00000000000E+00  0.00000000000E+00  0.45593999997E+02  0.45594000000E+02  0.51100000000E-03 0.  1.
         11   -1    0    0    0    0 -0.00000000000E+00 -0.00000000000E+00 -0.45593999997E+02  0.45594000000E+02  0.51100000000E-03 0. -1.
    9900012    2    1    2    0    0  0.27059655904E+02 -0.29577538503E+02  0.67904599917E+01  0.50528854553E+02  0.29999983901E+02 0.  0.
        -12    1    1    2    0    0 -0.27059655904E+02  0.29577538503E+02 -0.67904599917E+01  0.40659145447E+02  0.00000000000E+00 0.  1.
         11    1    3    3    0    0  0.90865154459E+01 -0.11292528358E+02 -0.73135711032E+01  0.16234970964E+02  0.51100000000E-03 0. -1.
        -11    1    3    3    0    0  0.17003116126E+02 -0.47166101704E+01  0.84174191012E+01  0.19550071971E+02  0.51100000000E-03 0.  1.
        -12    1    3    3    0    0  0.97002433273E+00 -0.13568399974E+02  0.56866119936E+01  0.14743811618E+02  0.00000000000E+00 0.  1.
</event>
<event>
 7    1  0.8697654E-014  0.5052899E+02  0.7816164E-02  0.1300438E+00
        -11   -1    0    0    0    0  0.00000000000E+00  0.00000000000E+00  0.45593999997E+02  0.45594000000E+02  0.51100000000E-03 0. -1.
         11   -1    0    0    0    0 -0.00000000000E+00 -0.00000000000E+00 -0.45593999997E+02  0.45594000000E+02  0.51100000000E-03 0.  1.
    9900012    2    1    2    0    0 -0.35288450262E+02  0.19221208287E+01 -0.20104378263E+02  0.50528987522E+02  0.30000388070E+02 0.  0.
         12    1    1    2    0    0  0.35288450262E+02 -0.19221208287E+01  0.20104378263E+02  0.40659012478E+02  0.00000000000E+00 0. -1.
         11    1    3    3    0    0 -0.63159930495E+01 -0.18087104285E+01  0.19343111689E+01  0.68487051021E+01  0.51100000000E-03 0. -1.
        -11    1    3    3    0    0 -0.22808127580E+02 -0.23578185263E+00 -0.26629200081E+01  0.22964263977E+02  0.51100000000E-03 0.  1.
        -12    1    3    3    0    0 -0.61643296324E+01  0.39666131098E+01 -0.19375769424E+02  0.20716018443E+02  0.00000000000E+00 0.  1.
</event>
<event>
 7    1  0.8697654E-014  0.5052886E+02  0.7816164E-02  0.1300439E+00
        -11   -1    0    0    0    0  0.00000000000E+00  0.00000000000E+00  0.45593999997E+02  0.45594000000E+02  0.51100000000E-03 0. -1.
         11   -1    0    0    0    0 -0.00000000000E+00 -0.00000000000E+00 -0.45593999997E+02  0.45594000000E+02  0.51100000000E-03 0.  1.
    9900012    2    1    2    0    0 -0.32786538625E+02 -0.94457102815E+01 -0.22113052983E+02  0.50528859945E+02  0.30000000290E+02 0.  0.
         12    1    1    2    0    0  0.32786538625E+02  0.94457102815E+01  0.22113052983E+02  0.40659140055E+02  0.00000000000E+00 0. -1.
         11    1    3    3    0    0 -0.10189335055E+02 -0.13392138563E+02 -0.99189412447E+01  0.19533492259E+02  0.51100000000E-03 0. -1.
        -11    1    3    3    0    0 -0.14793584609E+02 -0.18938434821E+01 -0.14689799196E+02  0.20933871820E+02  0.51100000000E-03 0.  1.
        -12    1    3    3    0    0 -0.78036189618E+01  0.58402717638E+01  0.24956874576E+01  0.10061495866E+02  0.00000000000E+00 0.  1.
</event>
<event>
 7    1  0.8697654E-014  0.5052889E+02  0.7816164E-02  0.1300439E+00
        -11   -1    0    0    0    0  0.00000000000E+00  0.00000000000E+00  0.45593999997E+02  0.45594000000E+02  0.51100000000E-03 0. -1.
         11   -1    0    0    0    0 -0.00000000000E+00 -0.00000000000E+00 -0.45593999997E+02  0.45594000000E+02  0.51100000000E-03 0.  1.
    9900012    2    1    2    0    0 -0.10687944108E+02 -0.29998885492E+02  0.25278414246E+02  0.50528886546E+02  0.30000081147E+02 0.  0.
        -12    1    1    2    0    0  0.10687944108E+02  0.29998885492E+02 -0.25278414246E+02  0.40659113454E+02  0.00000000000E+00 0.  1.
         11    1    3    3    0    0 -0.10119545291E+02 -0.27118076994E+02  0.16783844766E+02  0.33458821589E+02  0.51100000000E-03 0. -1.
        -11    1    3    3    0    0 -0.25160652629E+01 -0.47496075894E+01  0.11702386727E+02  0.12877702125E+02  0.51100000000E-03 0.  1.
        -12    1    3    3    0    0  0.19476664460E+01  0.18687990915E+01 -0.32078172463E+01  0.41923628320E+01  0.00000000000E+00 0.  1.
</event>
<event>
 7    1  0.8697654E-014  0.5052886E+02  0.7816164E-02  0.1300439E+00
        -11   -1    0    0    0    0  0.00000000000E+00  0.00000000000E+00  0.45593999997E+02  0.45594000000E+02  0.51100000000E-03 0. -1.
         11   -1    0    0    0    0 -0.00000000000E+00 -0.00000000000E+00 -0.45593999997E+02  0.45594000000E+02  0.51100000000E-03 0.  1.
    9900012    2    1    2    0    0 -0.11671110598E+02  0.11504047529E+02 -0.37210317656E+02  0.50528859918E+02  0.30000000207E+02 0.  0.
         12    1    1    2    0    0  0.11671110598E+02 -0.11504047529E+02  0.37210317656E+02  0.40659140082E+02  0.00000000000E+00 0. -1.
         11    1    3    3    0    0 -0.28267498672E+01  0.16508389135E+02 -0.18673220938E+02  0.25083991052E+02  0.51100000000E-03 0. -1.
        -11    1    3    3    0    0 -0.83717522481E+01  0.22493761906E+01 -0.15083503102E+02  0.17397068576E+02  0.51100000000E-03 0.  1.
        -12    1    3    3    0    0 -0.47260848302E+00 -0.72537177963E+01 -0.34535936163E+01  0.80478002903E+01  0.00000000000E+00 0.  1.
</event>
<event>
 7    1  0.8697654E-014  0.5052873E+02  0.7816164E-02  0.1300439E+00
        -11   -1    0    0    0    0  0.00000000000E+00  0.00000000000E+00  0.45593999997E+02  0.45594000000E+02  0.51100000000E-03 0. -1.
         11   -1    0    0    0    0 -0.00000000000E+00 -0.00000000000E+00 -0.45593999997E+02  0.45594000000E+02  0.51100000000E-03 0.  1.
    9900012    2    1    2    0    0 -0.21125817540E+02 -0.29804315726E+02  0.17848774381E+02  0.50528731074E+02  0.29999608571E+02 0.  0.
        -12    1    1    2    0    0  0.21125817540E+02  0.29804315726E+02 -0.17848774381E+02  0.40659268926E+02  0.00000000000E+00 0.  1.
         11    1    3    3    0    0 -0.23807462839E+02 -0.20898302329E+02  0.12585926356E+02  0.34087239102E+02  0.51100000000E-03 0. -1.
        -11    1    3    3    0    0 -0.33123271717E+01  0.11457412945E+01  0.27902359873E+01  0.44799164648E+01  0.51100000000E-03 0.  1.
         12    1    3    3    0    0  0.59939724701E+01 -0.10051754691E+02  0.24726120376E+01  0.11961575508E+02  0.00000000000E+00 0. -1.
</event>
<event>
 7    1  0.8697654E-014  0.5052888E+02  0.7816164E-02  0.1300439E+00
        -11   -1    0    0    0    0  0.00000000000E+00  0.00000000000E+00  0.45593999997E+02  0.45594000000E+02  0.51100000000E-03 0. -1.
         11   -1    0    0    0    0 -0.00000000000E+00 -0.00000000000E+00 -0.45593999997E+02  0.45594000000E+02  0.51100000000E-03 0.  1.
    9900012    2    1    2    0    0 -0.37940134328E+02  0.36479202275E+01 -0.14156376421E+02  0.50528879152E+02  0.30000058669E+02 0.  0.
         12    1    1    2    0    0  0.37940134328E+02 -0.36479202275E+01  0.14156376421E+02  0.40659120848E+02  0.00000000000E+00 0. -1.
         11    1    3    3    0    0 -0.22963815182E+02  0.78926356567E+01 -0.12321622166E+02  0.27229632358E+02  0.51100000000E-03 0. -1.
        -11    1    3    3    0    0 -0.14881335774E+01  0.12744545976E+01 -0.74333132884E+01  0.76871921252E+01  0.51100000000E-03 0.  1.
         12    1    3    3    0    0 -0.13488185568E+02 -0.55191700268E+01  0.55985590329E+01  0.15612054668E+02  0.00000000000E+00 0. -1.
</event>
<event>
 7    1  0.8697654E-014  0.5052885E+02  0.7816164E-02  0.1300439E+00
        -11   -1    0    0    0    0  0.00000000000E+00  0.00000000000E+00  0.45593999997E+02  0.45594000000E+02  0.51100000000E-03 0. -1.
         11   -1    0    0    0    0 -0.00000000000E+00 -0.00000000000E+00 -0.45593999997E+02  0.45594000000E+02  0.51100000000E-03 0.  1.
    9900012    2    1    2    0    0  0.20307335505E+02  0.23300041796E+02  0.26417540211E+02  0.50528852766E+02  0.29999978469E+02 0.  0.
        -12    1    1    2    0    0 -0.20307335505E+02 -0.23300041796E+02 -0.26417540211E+02  0.40659147234E+02  0.00000000000E+00 0.  1.
         11    1    3    3    0    0 -0.47253400155E+00  0.20300470935E+02  0.12798551858E+02  0.24002819386E+02  0.51100000000E-03 0. -1.
        -11    1    3    3    0    0  0.52831287057E+01  0.42348593060E+01  0.18248314716E+01  0.70125239695E+01  0.51100000000E-03 0.  1.
         12    1    3    3    0    0  0.15496740801E+02 -0.12352884454E+01  0.11794156881E+02  0.19513509411E+02  0.00000000000E+00 0. -1.
</event>
<event>
 7    1  0.8697654E-014  0.5052886E+02  0.7816164E-02  0.1300439E+00
        -11   -1    0    0    0    0  0.00000000000E+00  0.00000000000E+00  0.45593999997E+02  0.45594000000E+02  0.51100000000E-03 0. -1.
         11   -1    0    0    0    0 -0.00000000000E+00 -0.00000000000E+00 -0.45593999997E+02  0.45594000000E+02  0.51100000000E-03 0.  1.
    9900012    2    1    2    0    0  0.15839236574E+02  0.35856182375E+01 -0.37275028759E+02  0.50528857825E+02  0.29999993845E+02 0.  0.
         12    1    1    2    0    0 -0.15839236574E+02 -0.35856182375E+01  0.37275028759E+02  0.40659142175E+02  0.00000000000E+00 0. -1.
         11    1    3    3    0    0 -0.86510944014E+01  0.35516184075E+01 -0.92099963043E+01  0.13125527031E+02  0.51100000000E-03 0.  1.
        -11    1    3    3    0    0  0.16734570048E+02  0.16070939977E+01 -0.18970206064E+02  0.25347530534E+02  0.51100000000E-03 0. -1.
        -12    1    3    3    0    0  0.77557609278E+01 -0.15730941677E+01 -0.90948263909E+01  0.12055800260E+02  0.00000000000E+00 0.  1.
</event>
<event>
 7    1  0.8697654E-014  0.5052884E+02  0.7816164E-02  0.1300439E+00
        -11   -1    0    0    0    0  0.00000000000E+00  0.00000000000E+00  0.45593999997E+02  0.45594000000E+02  0.51100000000E-03 0. -1.
         11   -1    0    0    0    0 -0.00000000000E+00 -0.00000000000E+00 -0.45593999997E+02  0.45594000000E+02  0.51100000000E-03 0.  1.
    9900012    2    1    2    0    0  0.23988825785E+02  0.29526666925E+02 -0.14348503141E+02  0.50528839106E+02  0.29999936946E+02 0.  0.
         12    1    1    2    0    0 -0.23988825785E+02 -0.29526666925E+02  0.14348503141E+02  0.40659160894E+02  0.00000000000E+00 0. -1.
         11    1    3    3    0    0  0.36665945512E-01  0.79228679794E+01 -0.21243130828E+01  0.82027975561E+01  0.51100000000E-03 0. -1.
        -11    1    3    3    0    0  0.16152861680E+02  0.13085673135E+02  0.51935164916E+01  0.21427141566E+02  0.51100000000E-03 0.  1.
        -12    1    3    3    0    0  0.77992981588E+01  0.85181258104E+01 -0.17417706550E+02  0.20898899984E+02  0.00000000000E+00 0.  1.
</event>
<event>
 7    1  0.8697654E-014  0.5052886E+02  0.7816164E-02  0.1300439E+00
        -11   -1    0    0    0    0  0.00000000000E+00  0.00000000000E+00  0.45593999997E+02  0.45594000000E+02  0.51100000000E-03 0. -1.
         11   -1    0    0    0    0 -0.00000000000E+00 -0.00000000000E+00 -0.45593999997E+02  0.45594000000E+02  0.51100000000E-03 0.  1.
    9900012    2    1    2    0    0  0.24386883008E+02 -0.47243825907E+01  0.32188913325E+02  0.50528855951E+02  0.29999988149E+02 0.  0.
        -12    1    1    2    0    0 -0.24386883008E+02  0.47243825907E+01 -0.32188913325E+02  0.40659144049E+02  0.00000000000E+00 0.  1.
         11    1    3    3    0    0  0.89807486406E+01  0.37061498933E+01  0.34638195300E+00  0.97215931768E+01  0.51100000000E-03 0.  1.
        -11    1    3    3    0    0  0.19341090810E+02 -0.51393067763E+01  0.22225557810E+02  0.29907619232E+02  0.51100000000E-03 0. -1.
        -12    1    3    3    0    0 -0.39349564424E+01 -0.32912257077E+01  0.96169735618E+01  0.10899643542E+02  0.00000000000E+00 0.  1.
</event>
<event>
 7    1  0.8697654E-014  0.5052885E+02  0.7816164E-02  0.1300439E+00
        -11   -1    0    0    0    0  0.00000000000E+00  0.00000000000E+00  0.45593999997E+02  0.45594000000E+02  0.51100000000E-03 0. -1.
         11   -1    0    0    0    0 -0.00000000000E+00 -0.00000000000E+00 -0.45593999997E+02  0.45594000000E+02  0.51100000000E-03 0.  1.
    9900012    2    1    2    0    0  0.68220895138E+01  0.57062002166E+01 -0.39674482363E+02  0.50528853710E+02  0.29999981336E+02 0.  0.
         12    1    1    2    0    0 -0.68220895138E+01 -0.57062002166E+01  0.39674482363E+02  0.40659146290E+02  0.00000000000E+00 0. -1.
         11    1    3    3    0    0  0.76336886601E+01  0.10106307572E+02 -0.19939512720E+02  0.23621914043E+02  0.51100000000E-03 0.  1.
        -11    1    3    3    0    0 -0.23285767980E+01  0.46314145061E+01 -0.36810713279E-01  0.51839777701E+01  0.51100000000E-03 0. -1.
        -12    1    3    3    0    0  0.15169776517E+01 -0.90315218611E+01 -0.19698158930E+02  0.21722961897E+02  0.00000000000E+00 0.  1.
</event>
<event>
 7    1  0.8697654E-014  0.5052886E+02  0.7816164E-02  0.1300439E+00
        -11   -1    0    0    0    0  0.00000000000E+00  0.00000000000E+00  0.45593999997E+02  0.45594000000E+02  0.51100000000E-03 0. -1.
         11   -1    0    0    0    0 -0.00000000000E+00 -0.00000000000E+00 -0.45593999997E+02  0.45594000000E+02  0.51100000000E-03 0.  1.
    9900012    2    1    2    0    0  0.19965036190E+02  0.20847922996E+02  0.28634370337E+02  0.50528859233E+02  0.29999998125E+02 0.  0.
        -12    1    1    2    0    0 -0.19965036190E+02 -0.20847922996E+02 -0.28634370337E+02  0.40659140767E+02  0.00000000000E+00 0.  1.
         11    1    3    3    0    0  0.21764943033E+02  0.23883035406E+02  0.17664717597E+02  0.36826001324E+02  0.51100000000E-03 0. -1.
        -11    1    3    3    0    0  0.25636414256E+01 -0.17113532128E+01  0.21000957088E+01  0.37297975045E+01  0.51100000000E-03 0.  1.
        -12    1    3    3    0    0 -0.43635482691E+01 -0.13237591973E+01  0.88695570315E+01  0.99730604051E+01  0.00000000000E+00 0.  1.
</event>
<event>
 7    1  0.8697654E-014  0.5052886E+02  0.7816164E-02  0.1300439E+00
        -11   -1    0    0    0    0  0.00000000000E+00  0.00000000000E+00  0.45593999997E+02  0.45594000000E+02  0.51100000000E-03 0.  1.
         11   -1    0    0    0    0 -0.00000000000E+00 -0.00000000000E+00 -0.45593999997E+02  0.45594000000E+02  0.51100000000E-03 0. -1.
    9900012    2    1    2    0    0  0.13151128060E+02 -0.34219644233E+02  0.17584910988E+02  0.50528864309E+02  0.30000013554E+02 0.  0.
        -12    1    1    2    0    0 -0.13151128060E+02  0.34219644233E+02 -0.17584910988E+02  0.40659135691E+02  0.00000000000E+00 0.  1.
         11    1    3    3    0    0 -0.33704763015E+00 -0.35360260791E+01 -0.46693154209E+00  0.35826117377E+01  0.51100000000E-03 0. -1.
        -11    1    3    3    0    0  0.99561483188E+01  0.60433009193E+00  0.10669417291E+02  0.14605703331E+02  0.51100000000E-03 0.  1.
        -12    1    3    3    0    0  0.35320273717E+01 -0.31287948245E+02  0.73824252398E+01  0.32340549241E+02  0.00000000000E+00 0.  1.
</event>
<event>
 7    1  0.8697654E-014  0.5052885E+02  0.7816164E-02  0.1300439E+00
        -11   -1    0    0    0    0  0.00000000000E+00  0.00000000000E+00  0.45593999997E+02  0.45594000000E+02  0.51100000000E-03 0. -1.
         11   -1    0    0    0    0 -0.00000000000E+00 -0.00000000000E+00 -0.45593999997E+02  0.45594000000E+02  0.51100000000E-03 0.  1.
    9900012    2    1    2    0    0 -0.28409351048E+02  0.88098822568E+01 -0.27721129271E+02  0.50528852685E+02  0.29999978221E+02 0.  0.
         12    1    1    2    0    0  0.28409351048E+02 -0.88098822568E+01  0.27721129271E+02  0.40659147315E+02  0.00000000000E+00 0. -1.
         11    1    3    3    0    0 -0.57318380666E+01 -0.62875046682E+01 -0.31882926563E+01  0.90858072232E+01  0.51100000000E-03 0. -1.
        -11    1    3    3    0    0 -0.20166671344E+01  0.49448101884E+01  0.25336604599E+01  0.59107977226E+01  0.51100000000E-03 0.  1.
        -12    1    3    3    0    0 -0.20660845847E+02  0.10152576737E+02 -0.27066497075E+02  0.35532247739E+02  0.00000000000E+00 0.  1.
</event>
<event>
 7    1  0.8697654E-014  0.5052889E+02  0.7816164E-02  0.1300439E+00
        -11   -1    0    0    0    0  0.00000000000E+00  0.00000000000E+00  0.45593999997E+02  0.45594000000E+02  0.51100000000E-03 0. -1.
         11   -1    0    0    0    0 -0.00000000000E+00 -0.00000000000E+00 -0.45593999997E+02  0.45594000000E+02  0.51100000000E-03 0.  1.
    9900012    2    1    2    0    0 -0.17310339998E+02 -0.10458123480E+02 -0.35272415182E+02  0.50528886749E+02  0.30000081763E+02 0.  0.
         12    1    1    2    0    0  0.17310339998E+02  0.10458123480E+02  0.35272415182E+02  0.40659113251E+02  0.00000000000E+00 0. -1.
         11    1    3    3    0    0 -0.17358804775E+01 -0.16655606396E+02 -0.16616588356E+02  0.23590962556E+02  0.51100000000E-03 0. -1.
        -11    1    3    3    0    0  0.31917028894E+00  0.87020760248E+00 -0.56390890105E+01  0.57147577441E+01  0.51100000000E-03 0.  1.
         12    1    3    3    0    0 -0.15893629809E+02  0.53272753142E+01 -0.13016737815E+02  0.21223166449E+02  0.00000000000E+00 0. -1.
</event>
<event>
 7    1  0.8697654E-014  0.5052886E+02  0.7816164E-02  0.1300439E+00
        -11   -1    0    0    0    0  0.00000000000E+00  0.00000000000E+00  0.45593999997E+02  0.45594000000E+02  0.51100000000E-03 0. -1.
         11   -1    0    0    0    0 -0.00000000000E+00 -0.00000000000E+00 -0.45593999997E+02  0.45594000000E+02  0.51100000000E-03 0.  1.
    9900012    2    1    2    0    0  0.63988683669E+01  0.36965253003E+02 -0.15677689783E+02  0.50528863230E+02  0.30000010273E+02 0.  0.
         12    1    1    2    0    0 -0.63988683669E+01 -0.36965253003E+02  0.15677689783E+02  0.40659136770E+02  0.00000000000E+00 0. -1.
         11    1    3    3    0    0  0.15321736834E+01 -0.17259334668E+01  0.32696307849E+01  0.40021104756E+01  0.51100000000E-03 0. -1.
        -11    1    3    3    0    0  0.50002152319E+01  0.36975442952E+02 -0.11737859333E+02  0.39114739879E+02  0.51100000000E-03 0.  1.
         12    1    3    3    0    0 -0.13352054842E+00  0.17157435181E+01 -0.72094612353E+01  0.74120128751E+01  0.00000000000E+00 0. -1.
</event>
<event>
 7    1  0.8697654E-014  0.5052886E+02  0.7816164E-02  0.1300439E+00
        -11   -1    0    0    0    0  0.00000000000E+00  0.00000000000E+00  0.45593999997E+02  0.45594000000E+02  0.51100000000E-03 0. -1.
         11   -1    0    0    0    0 -0.00000000000E+00 -0.00000000000E+00 -0.45593999997E+02  0.45594000000E+02  0.51100000000E-03 0.  1.
    9900012    2    1    2    0    0  0.75723213065E+01 -0.34735203941E+02 -0.19730464352E+02  0.50528859991E+02  0.30000000427E+02 0.  0.
         12    1    1    2    0    0 -0.75723213065E+01  0.34735203941E+02  0.19730464352E+02  0.40659140009E+02  0.00000000000E+00 0. -1.
         11    1    3    3    0    0 -0.86186580563E+00 -0.13618322279E+01  0.40350394921E+01  0.43449906384E+01  0.51100000000E-03 0. -1.
        -11    1    3    3    0    0  0.10665660659E+02 -0.25254909922E+02 -0.84170414568E+01  0.28677750602E+02  0.51100000000E-03 0.  1.
        -12    1    3    3    0    0 -0.22314735470E+01 -0.81184617913E+01 -0.15348462387E+02  0.17506118750E+02  0.00000000000E+00 0.  1.
</event>
<event>
 7    1  0.8697654E-014  0.5052885E+02  0.7816164E-02  0.1300439E+00
        -11   -1    0    0    0    0  0.00000000000E+00  0.00000000000E+00  0.45593999997E+02  0.45594000000E+02  0.51100000000E-03 0. -1.
         11   -1    0    0    0    0 -0.00000000000E+00 -0.00000000000E+00 -0.45593999997E+02  0.45594000000E+02  0.51100000000E-03 0.  1.
    9900012    2    1    2    0    0 -0.23959670727E+02 -0.18795847945E+02 -0.26940981035E+02  0.50528853668E+02  0.29999981209E+02 0.  0.
         12    1    1    2    0    0  0.23959670727E+02  0.18795847945E+02  0.26940981035E+02  0.40659146332E+02  0.00000000000E+00 0. -1.
         11    1    3    3    0    0 -0.64049781753E+01 -0.11564710831E+02  0.57004357225E+00  0.13232204351E+02  0.51100000000E-03 0. -1.
        -11    1    3    3    0    0  0.89371401778E+00  0.36233667165E+01 -0.49250101828E+01  0.61792585857E+01  0.51100000000E-03 0.  1.
        -12    1    3    3    0    0 -0.18448406570E+02 -0.10854503830E+02 -0.22586014425E+02  0.31117390732E+02  0.00000000000E+00 0.  1.
</event>
<event>
 7    1  0.8697654E-014  0.5052886E+02  0.7816164E-02  0.1300439E+00
        -11   -1    0    0    0    0  0.00000000000E+00  0.00000000000E+00  0.45593999997E+02  0.45594000000E+02  0.51100000000E-03 0. -1.
         11   -1    0    0    0    0 -0.00000000000E+00 -0.00000000000E+00 -0.45593999997E+02  0.45594000000E+02  0.51100000000E-03 0.  1.
    9900012    2    1    2    0    0 -0.30650742951E+00  0.58173252408E+01  0.40239662555E+02  0.50528860040E+02  0.30000000578E+02 0.  0.
        -12    1    1    2    0    0  0.30650742951E+00 -0.58173252408E+01 -0.40239662555E+02  0.40659139960E+02  0.00000000000E+00 0.  1.
         11    1    3    3    0    0 -0.35114210903E+01  0.50170465000E+01  0.14847222842E+01  0.63012089458E+01  0.51100000000E-03 0. -1.
        -11    1    3    3    0    0 -0.85446345426E+01 -0.28109579108E+01  0.15358449495E+02  0.17798714419E+02  0.51100000000E-03 0.  1.
         12    1    3    3    0    0  0.11749548203E+02  0.36112366516E+01  0.23396490776E+02  0.26428936675E+02  0.00000000000E+00 0. -1.
</event>
<event>
 7    1  0.8697654E-014  0.5052887E+02  0.7816164E-02  0.1300439E+00
        -11   -1    0    0    0    0  0.00000000000E+00  0.00000000000E+00  0.45593999997E+02  0.45594000000E+02  0.51100000000E-03 0. -1.
         11   -1    0    0    0    0 -0.00000000000E+00 -0.00000000000E+00 -0.45593999997E+02  0.45594000000E+02  0.51100000000E-03 0.  1.
    9900012    2    1    2    0    0  0.13441274500E+01 -0.17073359963E+02  0.36876265283E+02  0.50528865230E+02  0.30000016354E+02 0.  0.
        -12    1    1    2    0    0 -0.13441274500E+01  0.17073359963E+02 -0.36876265283E+02  0.40659134770E+02  0.00000000000E+00 0.  1.
         11    1    3    3    0    0  0.94595921575E+01 -0.26515139526E+01  0.12345633139E+02  0.15777486108E+02  0.51100000000E-03 0. -1.
        -11    1    3    3    0    0 -0.31269616586E+01  0.41850021454E+01  0.67537016701E+01  0.85384201513E+01  0.51100000000E-03 0.  1.
        -12    1    3    3    0    0 -0.49885030489E+01 -0.18606848155E+02  0.17776930474E+02  0.26212958971E+02  0.00000000000E+00 0.  1.
</event>
<event>
 7    1  0.8697654E-014  0.5052886E+02  0.7816164E-02  0.1300439E+00
        -11   -1    0    0    0    0  0.00000000000E+00  0.00000000000E+00  0.45593999997E+02  0.45594000000E+02  0.51100000000E-03 0.  1.
         11   -1    0    0    0    0 -0.00000000000E+00 -0.00000000000E+00 -0.45593999997E+02  0.45594000000E+02  0.51100000000E-03 0. -1.
    9900012    2    1    2    0    0  0.32374059885E+02  0.40375391375E+01  0.24264870797E+02  0.50528862890E+02  0.30000009239E+02 0.  0.
        -12    1    1    2    0    0 -0.32374059885E+02 -0.40375391375E+01 -0.24264870797E+02  0.40659137110E+02  0.00000000000E+00 0.  1.
         11    1    3    3    0    0  0.19239124317E+02  0.54870999407E+01  0.89455316777E+01  0.21915170716E+02  0.51100000000E-03 0. -1.
        -11    1    3    3    0    0  0.12170049180E+02  0.20008771333E+00  0.20081555817E+02  0.23482312842E+02  0.51100000000E-03 0.  1.
         12    1    3    3    0    0  0.96488638797E+00 -0.16496485166E+01 -0.47622166971E+01  0.51313793311E+01  0.00000000000E+00 0. -1.
</event>
<event>
 7    1  0.8697654E-014  0.5052886E+02  0.7816164E-02  0.1300439E+00
        -11   -1    0    0    0    0  0.00000000000E+00  0.00000000000E+00  0.45593999997E+02  0.45594000000E+02  0.51100000000E-03 0. -1.
         11   -1    0    0    0    0 -0.00000000000E+00 -0.00000000000E+00 -0.45593999997E+02  0.45594000000E+02  0.51100000000E-03 0.  1.
    9900012    2    1    2    0    0  0.65815567456E+01 -0.33109128884E+02 -0.22663503644E+02  0.50528859551E+02  0.29999999091E+02 0.  0.
         12    1    1    2    0    0 -0.65815567456E+01  0.33109128884E+02  0.22663503644E+02  0.40659140449E+02  0.00000000000E+00 0. -1.
         11    1    3    3    0    0 -0.32712240753E+01 -0.31055472969E+01 -0.14452279447E+02  0.15139805562E+02  0.51100000000E-03 0. -1.
        -11    1    3    3    0    0  0.87965864418E+01 -0.19314184366E+02 -0.11521933619E+02  0.24148966962E+02  0.51100000000E-03 0.  1.
        -12    1    3    3    0    0  0.10561943791E+01 -0.10689397220E+02  0.33107094221E+01  0.11240087027E+02  0.00000000000E+00 0.  1.
</event>
<event>
 7    1  0.8697654E-014  0.5052886E+02  0.7816164E-02  0.1300439E+00
        -11   -1    0    0    0    0  0.00000000000E+00  0.00000000000E+00  0.45593999997E+02  0.45594000000E+02  0.51100000000E-03 0. -1.
         11   -1    0    0    0    0 -0.00000000000E+00 -0.00000000000E+00 -0.45593999997E+02  0.45594000000E+02  0.51100000000E-03 0.  1.
    9900012    2    1    2    0    0  0.14899554178E+02  0.31553016911E+02 -0.20870459693E+02  0.50528859838E+02  0.29999999964E+02 0.  0.
         12    1    1    2    0    0 -0.14899554178E+02 -0.31553016911E+02  0.20870459693E+02  0.40659140162E+02  0.00000000000E+00 0. -1.
         11    1    3    3    0    0  0.66598700875E+01  0.16443455696E+02 -0.59101196849E+01  0.18699481804E+02  0.51100000000E-03 0.  1.
        -11    1    3    3    0    0 -0.40662901067E+01  0.13938509164E+02 -0.34170678110E+01  0.14916202789E+02  0.51100000000E-03 0. -1.
         12    1    3    3    0    0  0.12305974197E+02  0.11710520512E+01 -0.11543272197E+02  0.16913175245E+02  0.00000000000E+00 0. -1.
</event>
<event>
 7    1  0.8697654E-014  0.5052888E+02  0.7816164E-02  0.1300439E+00
        -11   -1    0    0    0    0  0.00000000000E+00  0.00000000000E+00  0.45593999997E+02  0.45594000000E+02  0.51100000000E-03 0. -1.
         11   -1    0    0    0    0 -0.00000000000E+00 -0.00000000000E+00 -0.45593999997E+02  0.45594000000E+02  0.51100000000E-03 0.  1.
    9900012    2    1    2    0    0 -0.29312764844E+02  0.13722971626E+02 -0.24609059238E+02  0.50528881347E+02  0.30000065343E+02 0.  0.
         12    1    1    2    0    0  0.29312764844E+02 -0.13722971626E+02  0.24609059238E+02  0.40659118653E+02  0.00000000000E+00 0. -1.
         11    1    3    3    0    0 -0.62941845855E+01  0.62311168184E+00 -0.13619686067E+02  0.15016686605E+02  0.51100000000E-03 0.  1.
        -11    1    3    3    0    0 -0.36791380816E+01  0.11311719555E+02 -0.10834463356E+02  0.16089644271E+02  0.51100000000E-03 0. -1.
         12    1    3    3    0    0 -0.19339442177E+02  0.17881403895E+01 -0.15490981505E+00  0.19422550471E+02  0.00000000000E+00 0. -1.
</event>
<event>
 7    1  0.8697654E-014  0.5052886E+02  0.7816164E-02  0.1300439E+00
        -11   -1    0    0    0    0  0.00000000000E+00  0.00000000000E+00  0.45593999997E+02  0.45594000000E+02  0.51100000000E-03 0. -1.
         11   -1    0    0    0    0 -0.00000000000E+00 -0.00000000000E+00 -0.45593999997E+02  0.45594000000E+02  0.51100000000E-03 0.  1.
    9900012    2    1    2    0    0 -0.15840171125E+02  0.25071898110E+02  0.27814649263E+02  0.50528858227E+02  0.29999995067E+02 0.  0.
        -12    1    1    2    0    0  0.15840171125E+02 -0.25071898110E+02 -0.27814649263E+02  0.40659141773E+02  0.00000000000E+00 0.  1.
         11    1    3    3    0    0 -0.69649321039E+01  0.20575092477E+02  0.22412801224E+02  0.31211830587E+02  0.51100000000E-03 0. -1.
        -11    1    3    3    0    0 -0.26905134743E+01  0.98136270013E+01  0.44481912318E+01  0.11105518591E+02  0.51100000000E-03 0.  1.
         12    1    3    3    0    0 -0.61847255473E+01 -0.53168213681E+01  0.95365680672E+00  0.82115090490E+01  0.00000000000E+00 0. -1.
</event>
<event>
 7    1  0.8697654E-014  0.5052886E+02  0.7816164E-02  0.1300439E+00
        -11   -1    0    0    0    0  0.00000000000E+00  0.00000000000E+00  0.45593999997E+02  0.45594000000E+02  0.51100000000E-03 0.  1.
         11   -1    0    0    0    0 -0.00000000000E+00 -0.00000000000E+00 -0.45593999997E+02  0.45594000000E+02  0.51100000000E-03 0. -1.
    9900012    2    1    2    0    0  0.36724777891E+02  0.17002887502E+02 -0.39189182123E+01  0.50528863087E+02  0.30000009840E+02 0.  0.
         12    1    1    2    0    0 -0.36724777891E+02 -0.17002887502E+02  0.39189182123E+01  0.40659136913E+02  0.00000000000E+00 0. -1.
         11    1    3    3    0    0  0.17369877953E+02  0.95930356057E+01 -0.42600652963E+01  0.20295003050E+02  0.51100000000E-03 0. -1.
        -11    1    3    3    0    0  0.19580391354E+02  0.92125068414E+00  0.71127660630E+01  0.20852622610E+02  0.51100000000E-03 0.  1.
         12    1    3    3    0    0 -0.22549141529E+00  0.64886012117E+01 -0.67716189790E+01  0.93812374269E+01  0.00000000000E+00 0. -1.
</event>
<event>
 7    1  0.8697654E-014  0.5052886E+02  0.7816164E-02  0.1300439E+00
        -11   -1    0    0    0    0  0.00000000000E+00  0.00000000000E+00  0.45593999997E+02  0.45594000000E+02  0.51100000000E-03 0. -1.
         11   -1    0    0    0    0 -0.00000000000E+00 -0.00000000000E+00 -0.45593999997E+02  0.45594000000E+02  0.51100000000E-03 0.  1.
    9900012    2    1    2    0    0  0.10484478066E+02  0.18798425338E+00 -0.39283662172E+02  0.50528859182E+02  0.29999997969E+02 0.  0.
         12    1    1    2    0    0 -0.10484478066E+02 -0.18798425338E+00  0.39283662172E+02  0.40659140818E+02  0.00000000000E+00 0. -1.
         11    1    3    3    0    0 -0.17028809087E+01  0.51784766214E+01 -0.47954214786E+01  0.72603368328E+01  0.51100000000E-03 0. -1.
        -11    1    3    3    0    0 -0.63638827457E+01 -0.33461487122E+01 -0.12801006441E+02  0.14682012157E+02  0.51100000000E-03 0.  1.
        -12    1    3    3    0    0  0.18551241721E+02 -0.16443436558E+01 -0.21687234252E+02  0.28586510192E+02  0.00000000000E+00 0.  1.
</event>
<event>
 7    1  0.8697654E-014  0.5052876E+02  0.7816164E-02  0.1300439E+00
        -11   -1    0    0    0    0  0.00000000000E+00  0.00000000000E+00  0.45593999997E+02  0.45594000000E+02  0.51100000000E-03 0. -1.
         11   -1    0    0    0    0 -0.00000000000E+00 -0.00000000000E+00 -0.45593999997E+02  0.45594000000E+02  0.51100000000E-03 0.  1.
    9900012    2    1    2    0    0  0.40398701229E+02 -0.44588495968E+01 -0.11123172008E+01  0.50528761809E+02  0.29999701994E+02 0.  0.
         12    1    1    2    0    0 -0.40398701229E+02  0.44588495968E+01  0.11123172008E+01  0.40659238191E+02  0.00000000000E+00 0. -1.
         11    1    3    3    0    0  0.97536968883E+01 -0.10856861063E+02 -0.17030885520E+01  0.14693758744E+02  0.51100000000E-03 0.  1.
        -11    1    3    3    0    0 -0.10715574277E+01 -0.39835944385E+00  0.30974865363E+01  0.33017190479E+01  0.51100000000E-03 0. -1.
        -12    1    3    3    0    0  0.31716561768E+02  0.67963709104E+01 -0.25067151851E+01  0.32533284018E+02  0.00000000000E+00 0.  1.
</event>
<event>
 7    1  0.8697654E-014  0.5052886E+02  0.7816164E-02  0.1300439E+00
        -11   -1    0    0    0    0  0.00000000000E+00  0.00000000000E+00  0.45593999997E+02  0.45594000000E+02  0.51100000000E-03 0. -1.
         11   -1    0    0    0    0 -0.00000000000E+00 -0.00000000000E+00 -0.45593999997E+02  0.45594000000E+02  0.51100000000E-03 0.  1.
    9900012    2    1    2    0    0  0.31823795933E+02  0.69033119483E+01 -0.24346583675E+02  0.50528857854E+02  0.29999993934E+02 0.  0.
         12    1    1    2    0    0 -0.31823795933E+02 -0.69033119483E+01  0.24346583675E+02  0.40659142146E+02  0.00000000000E+00 0. -1.
         11    1    3    3    0    0 -0.48569349844E+00  0.56709338341E+00 -0.87083710876E+01  0.87403215239E+01  0.51100000000E-03 0. -1.
        -11    1    3    3    0    0  0.10988481880E+02  0.88314114982E+01 -0.14602375449E+02  0.20297042447E+02  0.51100000000E-03 0.  1.
         12    1    3    3    0    0  0.21321007551E+02 -0.24951929333E+01 -0.10358371378E+01  0.21491493883E+02  0.00000000000E+00 0. -1.
</event>
<event>
 7    1  0.8697654E-014  0.5052887E+02  0.7816164E-02  0.1300439E+00
        -11   -1    0    0    0    0  0.00000000000E+00  0.00000000000E+00  0.45593999997E+02  0.45594000000E+02  0.51100000000E-03 0. -1.
         11   -1    0    0    0    0 -0.00000000000E+00 -0.00000000000E+00 -0.45593999997E+02  0.45594000000E+02  0.51100000000E-03 0.  1.
    9900012    2    1    2    0    0  0.39795270609E+02  0.41997306425E+01 -0.72016362320E+01  0.50528869848E+02  0.30000030390E+02 0.  0.
         12    1    1    2    0    0 -0.39795270609E+02 -0.41997306425E+01  0.72016362320E+01  0.40659130152E+02  0.00000000000E+00 0. -1.
         11    1    3    3    0    0  0.70512894119E+00  0.51619190304E+01 -0.14227043558E+01  0.54006205982E+01  0.51100000000E-03 0. -1.
        -11    1    3    3    0    0 -0.26975793672E+01  0.10971464292E+01 -0.19266439401E+00  0.29185243805E+01  0.51100000000E-03 0.  1.
        -12    1    3    3    0    0  0.41787721035E+02 -0.20593348172E+01 -0.55862674822E+01  0.42209724869E+02  0.00000000000E+00 0.  1.
</event>
<event>
 7    1  0.8697654E-014  0.5052886E+02  0.7816164E-02  0.1300439E+00
        -11   -1    0    0    0    0  0.00000000000E+00  0.00000000000E+00  0.45593999997E+02  0.45594000000E+02  0.51100000000E-03 0.  1.
         11   -1    0    0    0    0 -0.00000000000E+00 -0.00000000000E+00 -0.45593999997E+02  0.45594000000E+02  0.51100000000E-03 0. -1.
    9900012    2    1    2    0    0 -0.20497382742E+02  0.34750851512E+02 -0.50399725677E+01  0.50528859533E+02  0.29999999036E+02 0.  0.
         12    1    1    2    0    0  0.20497382742E+02 -0.34750851512E+02  0.50399725677E+01  0.40659140467E+02  0.00000000000E+00 0. -1.
         11    1    3    3    0    0 -0.27768767437E+01  0.18907961713E+01  0.91271390002E+01  0.97257812643E+01  0.51100000000E-03 0. -1.
        -11    1    3    3    0    0 -0.53819752768E+01  0.54177270653E+01 -0.22140489230E+00  0.76397935065E+01  0.51100000000E-03 0.  1.
        -12    1    3    3    0    0 -0.12338530721E+02  0.27442328275E+02 -0.13945706676E+02  0.33163284762E+02  0.00000000000E+00 0.  1.
</event>
<event>
 7    1  0.8697654E-014  0.5052886E+02  0.7816164E-02  0.1300439E+00
        -11   -1    0    0    0    0  0.00000000000E+00  0.00000000000E+00  0.45593999997E+02  0.45594000000E+02  0.51100000000E-03 0. -1.
         11   -1    0    0    0    0 -0.00000000000E+00 -0.00000000000E+00 -0.45593999997E+02  0.45594000000E+02  0.51100000000E-03 0.  1.
    9900012    2    1    2    0    0 -0.14712306905E+02 -0.29451782574E+02 -0.23860133649E+02  0.50528862663E+02  0.30000008551E+02 0.  0.
         12    1    1    2    0    0  0.14712306905E+02  0.29451782574E+02  0.23860133649E+02  0.40659137337E+02  0.00000000000E+00 0. -1.
         11    1    3    3    0    0 -0.18981495639E+02 -0.25346082248E+02 -0.15997169933E+02  0.35477182923E+02  0.51100000000E-03 0. -1.
        -11    1    3    3    0    0  0.41009927851E+00 -0.73546295761E+01 -0.65057262842E+01  0.98276768550E+01  0.51100000000E-03 0.  1.
         12    1    3    3    0    0  0.38590894550E+01  0.32489292508E+01 -0.13572374320E+01  0.52240028852E+01  0.00000000000E+00 0. -1.
</event>
<event>
 7    1  0.8697654E-014  0.5052888E+02  0.7816164E-02  0.1300439E+00
        -11   -1    0    0    0    0  0.00000000000E+00  0.00000000000E+00  0.45593999997E+02  0.45594000000E+02  0.51100000000E-03 0. -1.
         11   -1    0    0    0    0 -0.00000000000E+00 -0.00000000000E+00 -0.45593999997E+02  0.45594000000E+02  0.51100000000E-03 0.  1.
    9900012    2    1    2    0    0  0.15781497747E+02  0.19528182666E+01  0.37420516947E+02  0.50528877298E+02  0.30000053035E+02 0.  0.
        -12    1    1    2    0    0 -0.15781497747E+02 -0.19528182666E+01 -0.37420516947E+02  0.40659122702E+02  0.00000000000E+00 0.  1.
         11    1    3    3    0    0  0.44789009955E+01 -0.44186396708E+01  0.22410610475E+02  0.23277035739E+02  0.51100000000E-03 0. -1.
        -11    1    3    3    0    0  0.49710638115E+01 -0.61072491299E+01  0.19531200258E+01  0.81132389000E+01  0.51100000000E-03 0.  1.
         12    1    3    3    0    0  0.63315329401E+01  0.12478707067E+02  0.13056786446E+02  0.19138602659E+02  0.00000000000E+00 0. -1.
</event>
<event>
 7    1  0.8697654E-014  0.5052887E+02  0.7816164E-02  0.1300439E+00
        -11   -1    0    0    0    0  0.00000000000E+00  0.00000000000E+00  0.45593999997E+02  0.45594000000E+02  0.51100000000E-03 0. -1.
         11   -1    0    0    0    0 -0.00000000000E+00 -0.00000000000E+00 -0.45593999997E+02  0.45594000000E+02  0.51100000000E-03 0.  1.
    9900012    2    1    2    0    0  0.14721356833E+01 -0.78173701243E+01  0.39873380397E+02  0.50528869126E+02  0.30000028197E+02 0.  0.
        -12    1    1    2    0    0 -0.14721356833E+01  0.78173701243E+01 -0.39873380397E+02  0.40659130874E+02  0.00000000000E+00 0.  1.
         11    1    3    3    0    0 -0.37971232580E+01 -0.11118462242E+01  0.17225134318E+01  0.43152520027E+01  0.51100000000E-03 0. -1.
        -11    1    3    3    0    0 -0.49501078146E+01 -0.33897751285E+01 -0.57313779878E+00  0.60268258640E+01  0.51100000000E-03 0.  1.
         12    1    3    3    0    0  0.10219366756E+02 -0.33157487716E+01  0.38724004764E+02  0.40186791260E+02  0.00000000000E+00 0. -1.
</event>
<event>
 7    1  0.8697654E-014  0.5052886E+02  0.7816164E-02  0.1300439E+00
        -11   -1    0    0    0    0  0.00000000000E+00  0.00000000000E+00  0.45593999997E+02  0.45594000000E+02  0.51100000000E-03 0. -1.
         11   -1    0    0    0    0 -0.00000000000E+00 -0.00000000000E+00 -0.45593999997E+02  0.45594000000E+02  0.51100000000E-03 0.  1.
    9900012    2    1    2    0    0  0.14016052650E+02  0.74619493479E+01  0.37430402561E+02  0.50528862579E+02  0.30000008296E+02 0.  0.
        -12    1    1    2    0    0 -0.14016052650E+02 -0.74619493479E+01 -0.37430402561E+02  0.40659137421E+02  0.00000000000E+00 0.  1.
         11    1    3    3    0    0 -0.19519785367E+01 -0.27934122248E+01 -0.20962771242E+01  0.40009686462E+01  0.51100000000E-03 0. -1.
        -11    1    3    3    0    0  0.14231312644E+02  0.10958194795E+02  0.19880804056E+02  0.26792884557E+02  0.51100000000E-03 0.  1.
         12    1    3    3    0    0  0.17367185431E+01 -0.70283322263E+00  0.19645875629E+02  0.19735009376E+02  0.00000000000E+00 0. -1.
</event>
<event>
 7    1  0.8697654E-014  0.5052886E+02  0.7816164E-02  0.1300439E+00
        -11   -1    0    0    0    0  0.00000000000E+00  0.00000000000E+00  0.45593999997E+02  0.45594000000E+02  0.51100000000E-03 0.  1.
         11   -1    0    0    0    0 -0.00000000000E+00 -0.00000000000E+00 -0.45593999997E+02  0.45594000000E+02  0.51100000000E-03 0. -1.
    9900012    2    1    2    0    0 -0.12188997727E+02  0.30773647187E+02  0.23613062513E+02  0.50528858985E+02  0.29999997371E+02 0.  0.
        -12    1    1    2    0    0  0.12188997727E+02 -0.30773647187E+02 -0.23613062513E+02  0.40659141015E+02  0.00000000000E+00 0.  1.
         11    1    3    3    0    0 -0.27547543840E+01 -0.26702742526E+00  0.10933858876E+02  0.11278707618E+02  0.51100000000E-03 0.  1.
        -11    1    3    3    0    0  0.29929566313E+01  0.96334120854E+01  0.10245115126E+02  0.14377858047E+02  0.51100000000E-03 0. -1.
         12    1    3    3    0    0 -0.12427199975E+02  0.21407262527E+02  0.24340885114E+01  0.24872293320E+02  0.00000000000E+00 0. -1.
</event>
<event>
 7    1  0.8697654E-014  0.5052889E+02  0.7816164E-02  0.1300439E+00
        -11   -1    0    0    0    0  0.00000000000E+00  0.00000000000E+00  0.45593999997E+02  0.45594000000E+02  0.51100000000E-03 0. -1.
         11   -1    0    0    0    0 -0.00000000000E+00 -0.00000000000E+00 -0.45593999997E+02  0.45594000000E+02  0.51100000000E-03 0.  1.
    9900012    2    1    2    0    0  0.16464801836E+02 -0.17212762324E+02 -0.32951395931E+02  0.50528888105E+02  0.30000085883E+02 0.  0.
         12    1    1    2    0    0 -0.16464801836E+02  0.17212762324E+02  0.32951395931E+02  0.40659111895E+02  0.00000000000E+00 0. -1.
         11    1    3    3    0    0  0.77520462894E+01 -0.19220096722E+02 -0.62167003340E+01  0.21636859823E+02  0.51100000000E-03 0. -1.
        -11    1    3    3    0    0 -0.68763379751E-01  0.20745375174E+01 -0.67755731851E+01  0.70863831791E+01  0.51100000000E-03 0.  1.
        -12    1    3    3    0    0  0.87815189261E+01 -0.67203119257E-01 -0.19959122412E+02  0.21805645103E+02  0.00000000000E+00 0.  1.
</event>
<event>
 7    1  0.8697654E-014  0.5052884E+02  0.7816164E-02  0.1300439E+00
        -11   -1    0    0    0    0  0.00000000000E+00  0.00000000000E+00  0.45593999997E+02  0.45594000000E+02  0.51100000000E-03 0. -1.
         11   -1    0    0    0    0 -0.00000000000E+00 -0.00000000000E+00 -0.45593999997E+02  0.45594000000E+02  0.51100000000E-03 0.  1.
    9900012    2    1    2    0    0  0.61959794068E+01 -0.35828007491E+02 -0.18197002292E+02  0.50528841450E+02  0.29999944071E+02 0.  0.
         12    1    1    2    0    0 -0.61959794068E+01  0.35828007491E+02  0.18197002292E+02  0.40659158550E+02  0.00000000000E+00 0. -1.
         11    1    3    3    0    0  0.19935205932E+01 -0.16144888602E+02 -0.15783040535E+02  0.22665743339E+02  0.51100000000E-03 0.  1.
        -11    1    3    3    0    0  0.74349830829E+01 -0.36866689973E+01  0.52638635819E+01  0.98274494050E+01  0.51100000000E-03 0. -1.
         12    1    3    3    0    0 -0.32325242693E+01 -0.15996449892E+02 -0.76778253393E+01  0.18035648706E+02  0.00000000000E+00 0. -1.
</event>
<event>
 7    1  0.8697654E-014  0.5052886E+02  0.7816164E-02  0.1300439E+00
        -11   -1    0    0    0    0  0.00000000000E+00  0.00000000000E+00  0.45593999997E+02  0.45594000000E+02  0.51100000000E-03 0.  1.
         11   -1    0    0    0    0 -0.00000000000E+00 -0.00000000000E+00 -0.45593999997E+02  0.45594000000E+02  0.51100000000E-03 0. -1.
    9900012    2    1    2    0    0 -0.22063838344E+02  0.34092806122E+02 -0.20082666644E+01  0.50528861707E+02  0.30000005645E+02 0.  0.
         12    1    1    2    0    0  0.22063838344E+02 -0.34092806122E+02  0.20082666644E+01  0.40659138293E+02  0.00000000000E+00 0. -1.
         11    1    3    3    0    0 -0.21091977658E+01  0.21791450545E+01  0.42348794162E+01  0.52087995080E+01  0.51100000000E-03 0. -1.
        -11    1    3    3    0    0 -0.14138930188E+02  0.29942679787E+02  0.40240736649E+01  0.33356657338E+02  0.51100000000E-03 0.  1.
         12    1    3    3    0    0 -0.58157103908E+01  0.19709812804E+01 -0.10267219745E+02  0.11963404861E+02  0.00000000000E+00 0. -1.
</event>
<event>
 7    1  0.8697654E-014  0.5052886E+02  0.7816164E-02  0.1300439E+00
        -11   -1    0    0    0    0  0.00000000000E+00  0.00000000000E+00  0.45593999997E+02  0.45594000000E+02  0.51100000000E-03 0. -1.
         11   -1    0    0    0    0 -0.00000000000E+00 -0.00000000000E+00 -0.45593999997E+02  0.45594000000E+02  0.51100000000E-03 0.  1.
    9900012    2    1    2    0    0  0.94493624842E+01  0.65844928966E+01  0.38993841827E+02  0.50528859595E+02  0.29999999224E+02 0.  0.
        -12    1    1    2    0    0 -0.94493624842E+01 -0.65844928966E+01 -0.38993841827E+02  0.40659140405E+02  0.00000000000E+00 0.  1.
         11    1    3    3    0    0 -0.76453284159E+01 -0.22741396941E+00  0.10106738802E+02  0.12674736020E+02  0.51100000000E-03 0. -1.
        -11    1    3    3    0    0  0.52173086946E+01 -0.53423133709E+01  0.85800899950E+01  0.11374469955E+02  0.51100000000E-03 0.  1.
        -12    1    3    3    0    0  0.11877382205E+02  0.12154220237E+02  0.20307013030E+02  0.26479653620E+02  0.00000000000E+00 0.  1.
</event>
<event>
 7    1  0.8697654E-014  0.5052886E+02  0.7816164E-02  0.1300439E+00
        -11   -1    0    0    0    0  0.00000000000E+00  0.00000000000E+00  0.45593999997E+02  0.45594000000E+02  0.51100000000E-03 0. -1.
         11   -1    0    0    0    0 -0.00000000000E+00 -0.00000000000E+00 -0.45593999997E+02  0.45594000000E+02  0.51100000000E-03 0.  1.
    9900012    2    1    2    0    0 -0.27996113259E+02 -0.27479701198E+02 -0.10688755728E+02  0.50528857921E+02  0.29999994138E+02 0.  0.
         12    1    1    2    0    0  0.27996113259E+02  0.27479701198E+02  0.10688755728E+02  0.40659142079E+02  0.00000000000E+00 0. -1.
         11    1    3    3    0    0  0.16770447663E+01  0.22591427189E+01  0.24424713377E+01  0.37258383579E+01  0.51100000000E-03 0. -1.
        -11    1    3    3    0    0 -0.66956554391E+01  0.27718689374E-01 -0.49321121940E+01  0.83161470068E+01  0.51100000000E-03 0.  1.
        -12    1    3    3    0    0 -0.22977502586E+02 -0.29766562607E+02 -0.81991148718E+01  0.38486872557E+02  0.00000000000E+00 0.  1.
</event>
<event>
 7    1  0.8697654E-014  0.5052888E+02  0.7816164E-02  0.1300439E+00
        -11   -1    0    0    0    0  0.00000000000E+00  0.00000000000E+00  0.45593999997E+02  0.45594000000E+02  0.51100000000E-03 0. -1.
         11   -1    0    0    0    0 -0.00000000000E+00 -0.00000000000E+00 -0.45593999997E+02  0.45594000000E+02  0.51100000000E-03 0.  1.
    9900012    2    1    2    0    0 -0.22544586449E+01 -0.29555852305E+02 -0.27830438716E+02  0.50528876690E+02  0.30000051187E+02 0.  0.
         12    1    1    2    0    0  0.22544586449E+01  0.29555852305E+02  0.27830438716E+02  0.40659123310E+02  0.00000000000E+00 0. -1.
         11    1    3    3    0    0  0.10736748828E+02 -0.84594017967E+01 -0.51934431239E+01  0.14622281145E+02  0.51100000000E-03 0. -1.
        -11    1    3    3    0    0 -0.33943076456E+01 -0.65372855383E+01 -0.42953798229E-01  0.73660893215E+01  0.51100000000E-03 0.  1.
        -12    1    3    3    0    0 -0.95968998272E+01 -0.14559164970E+02 -0.22594041793E+02  0.28540506223E+02  0.00000000000E+00 0.  1.
</event>
<event>
 7    1  0.8697654E-014  0.5052886E+02  0.7816164E-02  0.1300439E+00
        -11   -1    0    0    0    0  0.00000000000E+00  0.00000000000E+00  0.45593999997E+02  0.45594000000E+02  0.51100000000E-03 0. -1.
         11   -1    0    0    0    0 -0.00000000000E+00 -0.00000000000E+00 -0.45593999997E+02  0.45594000000E+02  0.51100000000E-03 0.  1.
    9900012    2    1    2    0    0 -0.81228805198E+01 -0.37952191524E+02  0.12116750936E+02  0.50528859790E+02  0.29999999817E+02 0.  0.
        -12    1    1    2    0    0  0.81228805198E+01  0.37952191524E+02 -0.12116750936E+02  0.40659140210E+02  0.00000000000E+00 0.  1.
         11    1    3    3    0    0 -0.38717651447E+01 -0.41379562818E+01 -0.78007699538E+01  0.96418493900E+01  0.51100000000E-03 0. -1.
        -11    1    3    3    0    0 -0.35830061302E+01 -0.11322004868E+02  0.18280586628E+01  0.12015303821E+02  0.51100000000E-03 0.  1.
        -12    1    3    3    0    0 -0.66810924484E+00 -0.22492230373E+02  0.18089462227E+02  0.28871706579E+02  0.00000000000E+00 0.  1.
</event>
<event>
 7    1  0.8697654E-014  0.5052886E+02  0.7816164E-02  0.1300439E+00
        -11   -1    0    0    0    0  0.00000000000E+00  0.00000000000E+00  0.45593999997E+02  0.45594000000E+02  0.51100000000E-03 0. -1.
         11   -1    0    0    0    0 -0.00000000000E+00 -0.00000000000E+00 -0.45593999997E+02  0.45594000000E+02  0.51100000000E-03 0.  1.
    9900012    2    1    2    0    0 -0.15068776717E+02 -0.32453758049E+02  0.19309360374E+02  0.50528857839E+02  0.29999993888E+02 0.  0.
        -12    1    1    2    0    0  0.15068776717E+02  0.32453758049E+02 -0.19309360374E+02  0.40659142161E+02  0.00000000000E+00 0.  1.
         11    1    3    3    0    0  0.21695734697E+01 -0.19806036123E+02  0.82122951212E+01  0.21550589490E+02  0.51100000000E-03 0. -1.
        -11    1    3    3    0    0 -0.17600909418E+00 -0.10020675188E+01 -0.35251946568E+01  0.36690756524E+01  0.51100000000E-03 0.  1.
        -12    1    3    3    0    0 -0.17062341092E+02 -0.11645654407E+02  0.14622259909E+02  0.25309192697E+02  0.00000000000E+00 0.  1.
</event>
<event>
 7    1  0.8697654E-014  0.5052884E+02  0.7816164E-02  0.1300439E+00
        -11   -1    0    0    0    0  0.00000000000E+00  0.00000000000E+00  0.45593999997E+02  0.45594000000E+02  0.51100000000E-03 0.  1.
         11   -1    0    0    0    0 -0.00000000000E+00 -0.00000000000E+00 -0.45593999997E+02  0.45594000000E+02  0.51100000000E-03 0. -1.
    9900012    2    1    2    0    0  0.18364195989E+01  0.38111254009E+02  0.14047321403E+02  0.50528839191E+02  0.29999937206E+02 0.  0.
         12    1    1    2    0    0 -0.18364195989E+01 -0.38111254009E+02 -0.14047321403E+02  0.40659160809E+02  0.00000000000E+00 0. -1.
         11    1    3    3    0    0 -0.64752106957E+01  0.11401698543E+02  0.39100033697E+01  0.13682660920E+02  0.51100000000E-03 0. -1.
        -11    1    3    3    0    0  0.44297455307E+01  0.18965255830E+02  0.16955304101E+02  0.25822198039E+02  0.51100000000E-03 0.  1.
        -12    1    3    3    0    0  0.38818847639E+01  0.77442996355E+01 -0.68179860671E+01  0.11023980233E+02  0.00000000000E+00 0.  1.
</event>
<event>
 7    1  0.8697654E-014  0.5052886E+02  0.7816164E-02  0.1300439E+00
        -11   -1    0    0    0    0  0.00000000000E+00  0.00000000000E+00  0.45593999997E+02  0.45594000000E+02  0.51100000000E-03 0. -1.
         11   -1    0    0    0    0 -0.00000000000E+00 -0.00000000000E+00 -0.45593999997E+02  0.45594000000E+02  0.51100000000E-03 0.  1.
    9900012    2    1    2    0    0 -0.15914435879E+02  0.21538088551E+02  0.30594234893E+02  0.50528859127E+02  0.29999997803E+02 0.  0.
        -12    1    1    2    0    0  0.15914435879E+02 -0.21538088551E+02 -0.30594234893E+02  0.40659140873E+02  0.00000000000E+00 0.  1.
         11    1    3    3    0    0  0.54437150479E+01  0.20145751488E+01  0.13269155966E+02  0.14483198778E+02  0.51100000000E-03 0.  1.
        -11    1    3    3    0    0 -0.39759577154E+01 -0.13503228582E+01  0.87449895320E+00  0.42890978371E+01  0.51100000000E-03 0. -1.
        -12    1    3    3    0    0 -0.17382193211E+02  0.20873836261E+02  0.16450579975E+02  0.31756562512E+02  0.00000000000E+00 0.  1.
</event>
<event>
 7    1  0.8697654E-014  0.5052887E+02  0.7816164E-02  0.1300439E+00
        -11   -1    0    0    0    0  0.00000000000E+00  0.00000000000E+00  0.45593999997E+02  0.45594000000E+02  0.51100000000E-03 0.  1.
         11   -1    0    0    0    0 -0.00000000000E+00 -0.00000000000E+00 -0.45593999997E+02  0.45594000000E+02  0.51100000000E-03 0. -1.
    9900012    2    1    2    0    0  0.20461463698E+02 -0.22560874233E+02  0.26935119514E+02  0.50528865650E+02  0.30000017631E+02 0.  0.
        -12    1    1    2    0    0 -0.20461463698E+02  0.22560874233E+02 -0.26935119514E+02  0.40659134350E+02  0.00000000000E+00 0.  1.
         11    1    3    3    0    0  0.34539186999E+01 -0.16994690551E+02  0.56713337397E+01  0.18245906061E+02  0.51100000000E-03 0. -1.
        -11    1    3    3    0    0  0.63318060441E+01 -0.97195028974E+01  0.15774411922E+02  0.19580413073E+02  0.51100000000E-03 0.  1.
        -12    1    3    3    0    0  0.10675738954E+02  0.41533192159E+01  0.54893738524E+01  0.12702546517E+02  0.00000000000E+00 0.  1.
</event>
<event>
 7    1  0.8697654E-014  0.5052886E+02  0.7816164E-02  0.1300439E+00
        -11   -1    0    0    0    0  0.00000000000E+00  0.00000000000E+00  0.45593999997E+02  0.45594000000E+02  0.51100000000E-03 0. -1.
         11   -1    0    0    0    0 -0.00000000000E+00 -0.00000000000E+00 -0.45593999997E+02  0.45594000000E+02  0.51100000000E-03 0.  1.
    9900012    2    1    2    0    0 -0.35934413789E+02 -0.16962994320E+02 -0.86104815112E+01  0.50528860037E+02  0.30000000570E+02 0.  0.
         12    1    1    2    0    0  0.35934413789E+02  0.16962994320E+02  0.86104815112E+01  0.40659139963E+02  0.00000000000E+00 0. -1.
         11    1    3    3    0    0 -0.22967835668E+02 -0.33297787178E+01 -0.47346297224E+00  0.23212778141E+02  0.51100000000E-03 0. -1.
        -11    1    3    3    0    0 -0.12996158203E+02 -0.89540835726E+01 -0.13088603333E+02  0.20503347973E+02  0.51100000000E-03 0.  1.
         12    1    3    3    0    0  0.29580081856E-01 -0.46791320291E+01  0.49515847940E+01  0.68127339225E+01  0.00000000000E+00 0. -1.
</event>
<event>
 7    1  0.8697654E-014  0.5052886E+02  0.7816164E-02  0.1300439E+00
        -11   -1    0    0    0    0  0.00000000000E+00  0.00000000000E+00  0.45593999997E+02  0.45594000000E+02  0.51100000000E-03 0. -1.
         11   -1    0    0    0    0 -0.00000000000E+00 -0.00000000000E+00 -0.45593999997E+02  0.45594000000E+02  0.51100000000E-03 0.  1.
    9900012    2    1    2    0    0  0.13938604880E+02 -0.37795862914E+01  0.38007837424E+02  0.50528859771E+02  0.29999999760E+02 0.  0.
        -12    1    1    2    0    0 -0.13938604880E+02  0.37795862914E+01 -0.38007837424E+02  0.40659140229E+02  0.00000000000E+00 0.  1.
         11    1    3    3    0    0  0.34872153017E+01  0.50663640890E+00 -0.77139920742E+00  0.36072715464E+01  0.51100000000E-03 0. -1.
        -11    1    3    3    0    0  0.65050890575E+00  0.89472935390E+01  0.20153556436E+02  0.22059987779E+02  0.51100000000E-03 0.  1.
         12    1    3    3    0    0  0.98008806723E+01 -0.13233516239E+02  0.18625680195E+02  0.24861600446E+02  0.00000000000E+00 0. -1.
</event>
<event>
 7    1  0.8697654E-014  0.5052884E+02  0.7816164E-02  0.1300439E+00
        -11   -1    0    0    0    0  0.00000000000E+00  0.00000000000E+00  0.45593999997E+02  0.45594000000E+02  0.51100000000E-03 0. -1.
         11   -1    0    0    0    0 -0.00000000000E+00 -0.00000000000E+00 -0.45593999997E+02  0.45594000000E+02  0.51100000000E-03 0.  1.
    9900012    2    1    2    0    0 -0.21589285501E+02 -0.49346339135E+01  0.34098669048E+02  0.50528842469E+02  0.29999947170E+02 0.  0.
        -12    1    1    2    0    0  0.21589285501E+02  0.49346339135E+01 -0.34098669048E+02  0.40659157531E+02  0.00000000000E+00 0.  1.
         11    1    3    3    0    0 -0.15634917147E+02 -0.42800699443E+01  0.17971520867E+02  0.24202173362E+02  0.51100000000E-03 0. -1.
        -11    1    3    3    0    0 -0.10300414602E+02  0.20357568357E+01  0.18036751680E+02  0.20870248161E+02  0.51100000000E-03 0.  1.
        -12    1    3    3    0    0  0.43460462477E+01 -0.26903208049E+01 -0.19096034995E+01  0.54564209465E+01  0.00000000000E+00 0.  1.
</event>
<event>
 7    1  0.8697654E-014  0.5052885E+02  0.7816164E-02  0.1300439E+00
        -11   -1    0    0    0    0  0.00000000000E+00  0.00000000000E+00  0.45593999997E+02  0.45594000000E+02  0.51100000000E-03 0. -1.
         11   -1    0    0    0    0 -0.00000000000E+00 -0.00000000000E+00 -0.45593999997E+02  0.45594000000E+02  0.51100000000E-03 0.  1.
    9900012    2    1    2    0    0  0.22020383324E+02 -0.19271823867E+02 -0.28228810908E+02  0.50528852909E+02  0.29999978901E+02 0.  0.
         12    1    1    2    0    0 -0.22020383324E+02  0.19271823867E+02  0.28228810908E+02  0.40659147091E+02  0.00000000000E+00 0. -1.
         11    1    3    3    0    0  0.75965548483E+01 -0.14386508135E+02 -0.29968766399E+01  0.16542688166E+02  0.51100000000E-03 0. -1.
        -11    1    3    3    0    0 -0.14772204557E+01  0.62977408640E+00  0.16293946786E+01  0.22877331475E+01  0.51100000000E-03 0.  1.
        -12    1    3    3    0    0  0.15901048931E+02 -0.55150898182E+01 -0.26861328947E+02  0.31698431596E+02  0.00000000000E+00 0.  1.
</event>
<event>
 7    1  0.8697654E-014  0.5052886E+02  0.7816164E-02  0.1300439E+00
        -11   -1    0    0    0    0  0.00000000000E+00  0.00000000000E+00  0.45593999997E+02  0.45594000000E+02  0.51100000000E-03 0. -1.
         11   -1    0    0    0    0 -0.00000000000E+00 -0.00000000000E+00 -0.45593999997E+02  0.45594000000E+02  0.51100000000E-03 0.  1.
    9900012    2    1    2    0    0  0.67454702628E+01  0.16007133861E+02  0.36761885170E+02  0.50528857058E+02  0.29999991515E+02 0.  0.
        -12    1    1    2    0    0 -0.67454702628E+01 -0.16007133861E+02 -0.36761885170E+02  0.40659142942E+02  0.00000000000E+00 0.  1.
         11    1    3    3    0    0  0.76872188259E+01 -0.26266119600E-01 -0.44103659356E+00  0.76999049815E+01  0.51100000000E-03 0.  1.
        -11    1    3    3    0    0 -0.42870857427E+01  0.26021864785E+01  0.20655947556E+02  0.21256026165E+02  0.51100000000E-03 0. -1.
        -12    1    3    3    0    0  0.33453371796E+01  0.13431213502E+02  0.16546974207E+02  0.21572925912E+02  0.00000000000E+00 0.  1.
</event>
<event>
 7    1  0.8697654E-014  0.5052888E+02  0.7816164E-02  0.1300439E+00
        -11   -1    0    0    0    0  0.00000000000E+00  0.00000000000E+00  0.45593999997E+02  0.45594000000E+02  0.51100000000E-03 0. -1.
         11   -1    0    0    0    0 -0.00000000000E+00 -0.00000000000E+00 -0.45593999997E+02  0.45594000000E+02  0.51100000000E-03 0.  1.
    9900012    2    1    2    0    0 -0.17727300014E+02 -0.22138620721E+02 -0.29133972918E+02  0.50528879607E+02  0.30000060053E+02 0.  0.
         12    1    1    2    0    0  0.17727300014E+02  0.22138620721E+02  0.29133972918E+02  0.40659120393E+02  0.00000000000E+00 0. -1.
         11    1    3    3    0    0 -0.94752235825E+00  0.14122527015E+01  0.96597925365E+00  0.19558559487E+01  0.51100000000E-03 0. -1.
        -11    1    3    3    0    0 -0.67890344203E+01 -0.20235034995E+01 -0.22598683447E+02  0.23683032926E+02  0.51100000000E-03 0.  1.
        -12    1    3    3    0    0 -0.99907432350E+01 -0.21527369923E+02 -0.75012687242E+01  0.24889990732E+02  0.00000000000E+00 0.  1.
</event>
<event>
 7    1  0.8697654E-014  0.5052886E+02  0.7816164E-02  0.1300439E+00
        -11   -1    0    0    0    0  0.00000000000E+00  0.00000000000E+00  0.45593999997E+02  0.45594000000E+02  0.51100000000E-03 0.  1.
         11   -1    0    0    0    0 -0.00000000000E+00 -0.00000000000E+00 -0.45593999997E+02  0.45594000000E+02  0.51100000000E-03 0. -1.
    9900012    2    1    2    0    0 -0.23674482016E+02 -0.28642546755E+02  0.16501178891E+02  0.50528862182E+02  0.30000007088E+02 0.  0.
         12    1    1    2    0    0  0.23674482016E+02  0.28642546755E+02 -0.16501178891E+02  0.40659137818E+02  0.00000000000E+00 0. -1.
         11    1    3    3    0    0 -0.14542659424E+02 -0.29987489720E+01 -0.12325392436E+01  0.14899684284E+02  0.51100000000E-03 0. -1.
        -11    1    3    3    0    0 -0.12732740130E+02 -0.17502764259E+02  0.10023405583E+02  0.23852423099E+02  0.51100000000E-03 0.  1.
        -12    1    3    3    0    0  0.36009175387E+01 -0.81410335234E+01  0.77103125513E+01  0.11776754799E+02  0.00000000000E+00 0.  1.
</event>
<event>
 7    1  0.8697654E-014  0.5052885E+02  0.7816164E-02  0.1300439E+00
        -11   -1    0    0    0    0  0.00000000000E+00  0.00000000000E+00  0.45593999997E+02  0.45594000000E+02  0.51100000000E-03 0. -1.
         11   -1    0    0    0    0 -0.00000000000E+00 -0.00000000000E+00 -0.45593999997E+02  0.45594000000E+02  0.51100000000E-03 0.  1.
    9900012    2    1    2    0    0  0.21118848659E+02  0.19864071623E+01 -0.34687392445E+02  0.50528846335E+02  0.29999958920E+02 0.  0.
         12    1    1    2    0    0 -0.21118848659E+02 -0.19864071623E+01  0.34687392445E+02  0.40659153665E+02  0.00000000000E+00 0. -1.
         11    1    3    3    0    0  0.18042820337E+02  0.95301679359E+01 -0.15594553793E+02  0.25681853026E+02  0.51100000000E-03 0. -1.
        -11    1    3    3    0    0  0.16438597940E+01  0.37859808589E+01 -0.29507163542E+01  0.50737218440E+01  0.51100000000E-03 0.  1.
         12    1    3    3    0    0  0.14321685285E+01 -0.11329741632E+02 -0.16142122298E+02  0.19773271465E+02  0.00000000000E+00 0. -1.
</event>
<event>
 7    1  0.8697654E-014  0.5052886E+02  0.7816164E-02  0.1300439E+00
        -11   -1    0    0    0    0  0.00000000000E+00  0.00000000000E+00  0.45593999997E+02  0.45594000000E+02  0.51100000000E-03 0. -1.
         11   -1    0    0    0    0 -0.00000000000E+00 -0.00000000000E+00 -0.45593999997E+02  0.45594000000E+02  0.51100000000E-03 0.  1.
    9900012    2    1    2    0    0 -0.60682820389E+01  0.40082490496E+02 -0.31201985339E+01  0.50528859205E+02  0.29999998039E+02 0.  0.
         12    1    1    2    0    0  0.60682820389E+01 -0.40082490496E+02  0.31201985339E+01  0.40659140795E+02  0.00000000000E+00 0. -1.
         11    1    3    3    0    0 -0.28599585030E+01  0.76413436089E+01 -0.11467668207E+02  0.14073979862E+02  0.51100000000E-03 0. -1.
        -11    1    3    3    0    0 -0.88553526178E+00  0.29538052469E+01 -0.34347565166E+01  0.46159171057E+01  0.51100000000E-03 0.  1.
         12    1    3    3    0    0 -0.23227882741E+01  0.29487341641E+02  0.11782226189E+02  0.31838962238E+02  0.00000000000E+00 0. -1.
</event>
<event>
 7    1  0.8697654E-014  0.5052881E+02  0.7816164E-02  0.1300439E+00
        -11   -1    0    0    0    0  0.00000000000E+00  0.00000000000E+00  0.45593999997E+02  0.45594000000E+02  0.51100000000E-03 0. -1.
         11   -1    0    0    0    0 -0.00000000000E+00 -0.00000000000E+00 -0.45593999997E+02  0.45594000000E+02  0.51100000000E-03 0.  1.
    9900012    2    1    2    0    0 -0.31182751593E+02 -0.25623922478E+02  0.49213811014E+01  0.50528814174E+02  0.29999861164E+02 0.  0.
        -12    1    1    2    0    0  0.31182751593E+02  0.25623922478E+02 -0.49213811014E+01  0.40659185826E+02  0.00000000000E+00 0.  1.
         11    1    3    3    0    0 -0.51899937201E+01  0.68594959960E+00  0.15925634136E+01  0.54720033037E+01  0.51100000000E-03 0. -1.
        -11    1    3    3    0    0  0.47836386014E+01 -0.24802958439E+01 -0.20464702750E+01  0.57639488711E+01  0.51100000000E-03 0.  1.
        -12    1    3    3    0    0 -0.30776396475E+02 -0.23829576233E+02  0.53752879628E+01  0.39292861999E+02  0.00000000000E+00 0.  1.
</event>
<event>
 7    1  0.8697654E-014  0.5052888E+02  0.7816164E-02  0.1300439E+00
        -11   -1    0    0    0    0  0.00000000000E+00  0.00000000000E+00  0.45593999997E+02  0.45594000000E+02  0.51100000000E-03 0. -1.
         11   -1    0    0    0    0 -0.00000000000E+00 -0.00000000000E+00 -0.45593999997E+02  0.45594000000E+02  0.51100000000E-03 0.  1.
    9900012    2    1    2    0    0  0.10978588426E+02  0.71216107504E+01 -0.38495683463E+02  0.50528875700E+02  0.30000048178E+02 0.  0.
         12    1    1    2    0    0 -0.10978588426E+02 -0.71216107504E+01  0.38495683463E+02  0.40659124300E+02  0.00000000000E+00 0. -1.
         11    1    3    3    0    0  0.10700339929E+02  0.10003033281E+02 -0.12713909531E+02  0.19395913106E+02  0.51100000000E-03 0. -1.
        -11    1    3    3    0    0 -0.24444653180E+00 -0.49205644309E+01  0.32887255035E+00  0.49375971728E+01  0.51100000000E-03 0.  1.
        -12    1    3    3    0    0  0.52269502840E+00  0.20391419006E+01 -0.26110646483E+02  0.26195365421E+02  0.00000000000E+00 0.  1.
</event>
<event>
 7    1  0.8697654E-014  0.5052888E+02  0.7816164E-02  0.1300439E+00
        -11   -1    0    0    0    0  0.00000000000E+00  0.00000000000E+00  0.45593999997E+02  0.45594000000E+02  0.51100000000E-03 0. -1.
         11   -1    0    0    0    0 -0.00000000000E+00 -0.00000000000E+00 -0.45593999997E+02  0.45594000000E+02  0.51100000000E-03 0.  1.
    9900012    2    1    2    0    0 -0.13213357236E+02  0.69222234330E+01  0.37823988531E+02  0.50528879313E+02  0.30000059159E+02 0.  0.
        -12    1    1    2    0    0  0.13213357236E+02 -0.69222234330E+01 -0.37823988531E+02  0.40659120687E+02  0.00000000000E+00 0.  1.
         11    1    3    3    0    0 -0.91293131744E+01  0.19367261014E+01  0.12200154520E+01  0.94118916798E+01  0.51100000000E-03 0. -1.
        -11    1    3    3    0    0 -0.83415062540E+01 -0.69295404210E+00  0.77643839220E+01  0.11416942228E+02  0.51100000000E-03 0.  1.
         12    1    3    3    0    0  0.42574621923E+01  0.56784513737E+01  0.28839589157E+02  0.29700045405E+02  0.00000000000E+00 0. -1.
</event>
<event>
 7    1  0.8697654E-014  0.5052886E+02  0.7816164E-02  0.1300439E+00
        -11   -1    0    0    0    0  0.00000000000E+00  0.00000000000E+00  0.45593999997E+02  0.45594000000E+02  0.51100000000E-03 0. -1.
         11   -1    0    0    0    0 -0.00000000000E+00 -0.00000000000E+00 -0.45593999997E+02  0.45594000000E+02  0.51100000000E-03 0.  1.
    9900012    2    1    2    0    0  0.15408008875E+02 -0.34309518426E+02  0.15447198965E+02  0.50528858986E+02  0.29999997374E+02 0.  0.
        -12    1    1    2    0    0 -0.15408008875E+02  0.34309518426E+02 -0.15447198965E+02  0.40659141014E+02  0.00000000000E+00 0.  1.
         11    1    3    3    0    0  0.12293090165E+02 -0.12504026499E+02  0.16605940067E+02  0.24150113670E+02  0.51100000000E-03 0. -1.
        -11    1    3    3    0    0  0.47101880357E+01 -0.72830266064E+00  0.16755294504E+01  0.50520981085E+01  0.51100000000E-03 0.  1.
        -12    1    3    3    0    0 -0.15952693249E+01 -0.21077189266E+02 -0.28342705524E+01  0.21326647208E+02  0.00000000000E+00 0.  1.
</event>
<event>
 7    1  0.8697654E-014  0.5052887E+02  0.7816164E-02  0.1300439E+00
        -11   -1    0    0    0    0  0.00000000000E+00  0.00000000000E+00  0.45593999997E+02  0.45594000000E+02  0.51100000000E-03 0. -1.
         11   -1    0    0    0    0 -0.00000000000E+00 -0.00000000000E+00 -0.45593999997E+02  0.45594000000E+02  0.51100000000E-03 0.  1.
    9900012    2    1    2    0    0  0.22316606975E+02  0.27239916508E+02 -0.20325384379E+02  0.50528865130E+02  0.30000016049E+02 0.  0.
         12    1    1    2    0    0 -0.22316606975E+02 -0.27239916508E+02  0.20325384379E+02  0.40659134870E+02  0.00000000000E+00 0. -1.
         11    1    3    3    0    0  0.10420566405E+02  0.60574952934E+00 -0.13194407242E+02  0.16824016150E+02  0.51100000000E-03 0. -1.
        -11    1    3    3    0    0 -0.31652260903E+01  0.20862504777E+01 -0.24841661209E+01  0.45323480488E+01  0.51100000000E-03 0.  1.
         12    1    3    3    0    0  0.15061266660E+02  0.24547916501E+02 -0.46468110158E+01  0.29172500931E+02  0.00000000000E+00 0. -1.
</event>
<event>
 7    1  0.8697654E-014  0.5052885E+02  0.7816164E-02  0.1300439E+00
        -11   -1    0    0    0    0  0.00000000000E+00  0.00000000000E+00  0.45593999997E+02  0.45594000000E+02  0.51100000000E-03 0. -1.
         11   -1    0    0    0    0 -0.00000000000E+00 -0.00000000000E+00 -0.45593999997E+02  0.45594000000E+02  0.51100000000E-03 0.  1.
    9900012    2    1    2    0    0 -0.67265775816E+01  0.11581468994E+02  0.38389959004E+02  0.50528853153E+02  0.29999979643E+02 0.  0.
        -12    1    1    2    0    0  0.67265775816E+01 -0.11581468994E+02 -0.38389959004E+02  0.40659146847E+02  0.00000000000E+00 0.  1.
         11    1    3    3    0    0  0.46376286094E+01  0.11118442318E+02  0.23342292198E+02  0.26267660040E+02  0.51100000000E-03 0. -1.
        -11    1    3    3    0    0 -0.22142836439E+01 -0.67004469623E+01  0.34938299451E+01  0.78743818485E+01  0.51100000000E-03 0.  1.
        -12    1    3    3    0    0 -0.91499225471E+01  0.71634736377E+01  0.11553836861E+02  0.16386811264E+02  0.00000000000E+00 0.  1.
</event>
<event>
 7    1  0.8697654E-014  0.5052886E+02  0.7816164E-02  0.1300439E+00
        -11   -1    0    0    0    0  0.00000000000E+00  0.00000000000E+00  0.45593999997E+02  0.45594000000E+02  0.51100000000E-03 0. -1.
         11   -1    0    0    0    0 -0.00000000000E+00 -0.00000000000E+00 -0.45593999997E+02  0.45594000000E+02  0.51100000000E-03 0.  1.
    9900012    2    1    2    0    0  0.86607782332E+01 -0.33700819070E+02 -0.21033575291E+02  0.50528861112E+02  0.30000003835E+02 0.  0.
         12    1    1    2    0    0 -0.86607782332E+01  0.33700819070E+02  0.21033575291E+02  0.40659138888E+02  0.00000000000E+00 0. -1.
         11    1    3    3    0    0 -0.13455620667E+00 -0.20309356075E+02  0.29770436927E-01  0.20309823635E+02  0.51100000000E-03 0. -1.
        -11    1    3    3    0    0  0.59267718676E+01 -0.13439400888E+02 -0.77643987853E+01  0.16614150889E+02  0.51100000000E-03 0.  1.
         12    1    3    3    0    0  0.28685625723E+01  0.47937892660E-01 -0.13298946943E+02  0.13604886588E+02  0.00000000000E+00 0. -1.
</event>
<event>
 7    1  0.8697654E-014  0.5052884E+02  0.7816164E-02  0.1300439E+00
        -11   -1    0    0    0    0  0.00000000000E+00  0.00000000000E+00  0.45593999997E+02  0.45594000000E+02  0.51100000000E-03 0. -1.
         11   -1    0    0    0    0 -0.00000000000E+00 -0.00000000000E+00 -0.45593999997E+02  0.45594000000E+02  0.51100000000E-03 0.  1.
    9900012    2    1    2    0    0  0.80938441005E+01  0.17838283236E+01  0.39805464105E+02  0.50528839550E+02  0.29999938297E+02 0.  0.
        -12    1    1    2    0    0 -0.80938441005E+01 -0.17838283236E+01 -0.39805464105E+02  0.40659160450E+02  0.00000000000E+00 0.  1.
         11    1    3    3    0    0  0.85317009004E+00 -0.21537686302E+01  0.20179980322E+02  0.20312513990E+02  0.51100000000E-03 0. -1.
        -11    1    3    3    0    0  0.13704899161E+02 -0.19056194215E+01  0.14779497616E+02  0.20245720447E+02  0.51100000000E-03 0.  1.
        -12    1    3    3    0    0 -0.64642251501E+01  0.58432163753E+01  0.48459861674E+01  0.99706051137E+01  0.00000000000E+00 0.  1.
</event>
<event>
 7    1  0.8697654E-014  0.5052886E+02  0.7816164E-02  0.1300439E+00
        -11   -1    0    0    0    0  0.00000000000E+00  0.00000000000E+00  0.45593999997E+02  0.45594000000E+02  0.51100000000E-03 0. -1.
         11   -1    0    0    0    0 -0.00000000000E+00 -0.00000000000E+00 -0.45593999997E+02  0.45594000000E+02  0.51100000000E-03 0.  1.
    9900012    2    1    2    0    0  0.10030484142E+02 -0.23051041244E+02  0.31956290072E+02  0.50528860933E+02  0.30000003292E+02 0.  0.
        -12    1    1    2    0    0 -0.10030484142E+02  0.23051041244E+02 -0.31956290072E+02  0.40659139067E+02  0.00000000000E+00 0.  1.
         11    1    3    3    0    0  0.11100334718E+02 -0.11544337979E+02  0.19471277901E+02  0.25211502010E+02  0.51100000000E-03 0. -1.
        -11    1    3    3    0    0  0.63017880457E+01  0.11503775451E+01  0.56145242189E+00  0.64304844415E+01  0.51100000000E-03 0.  1.
        -12    1    3    3    0    0 -0.73716386222E+01 -0.12657080809E+02  0.11923559749E+02  0.18886874481E+02  0.00000000000E+00 0.  1.
</event>
<event>
 7    1  0.8697654E-014  0.5052888E+02  0.7816164E-02  0.1300439E+00
        -11   -1    0    0    0    0  0.00000000000E+00  0.00000000000E+00  0.45593999997E+02  0.45594000000E+02  0.51100000000E-03 0. -1.
         11   -1    0    0    0    0 -0.00000000000E+00 -0.00000000000E+00 -0.45593999997E+02  0.45594000000E+02  0.51100000000E-03 0.  1.
    9900012    2    1    2    0    0  0.18862521068E+02  0.71809047184E+01 -0.35295949888E+02  0.50528878365E+02  0.30000056279E+02 0.  0.
         12    1    1    2    0    0 -0.18862521068E+02 -0.71809047184E+01  0.35295949888E+02  0.40659121635E+02  0.00000000000E+00 0. -1.
         11    1    3    3    0    0  0.10918728985E+01 -0.24025918574E+01 -0.59626808727E+01  0.65205979411E+01  0.51100000000E-03 0.  1.
        -11    1    3    3    0    0  0.81150364841E+01  0.14085347219E+00 -0.29403135591E+02  0.30502754624E+02  0.51100000000E-03 0. -1.
        -12    1    3    3    0    0  0.96556116852E+01  0.94426431035E+01  0.69866575114E-01  0.13505525800E+02  0.00000000000E+00 0.  1.
</event>
<event>
 7    1  0.8697654E-014  0.5052884E+02  0.7816164E-02  0.1300439E+00
        -11   -1    0    0    0    0  0.00000000000E+00  0.00000000000E+00  0.45593999997E+02  0.45594000000E+02  0.51100000000E-03 0. -1.
         11   -1    0    0    0    0 -0.00000000000E+00 -0.00000000000E+00 -0.45593999997E+02  0.45594000000E+02  0.51100000000E-03 0.  1.
    9900012    2    1    2    0    0 -0.29370966788E+02  0.57295741571E+01  0.27526087781E+02  0.50528840901E+02  0.29999942402E+02 0.  0.
        -12    1    1    2    0    0  0.29370966788E+02 -0.57295741571E+01 -0.27526087781E+02  0.40659159099E+02  0.00000000000E+00 0.  1.
         11    1    3    3    0    0 -0.14793202234E+02  0.42157077920E+00  0.36971636101E+01  0.15254034656E+02  0.51100000000E-03 0. -1.
        -11    1    3    3    0    0 -0.18226307337E+01 -0.54691345655E+01 -0.47807510204E+00  0.57846323782E+01  0.51100000000E-03 0.  1.
        -12    1    3    3    0    0 -0.12755133821E+02  0.10777137943E+02  0.24306999273E+02  0.29490173867E+02  0.00000000000E+00 0.  1.
</event>
<event>
 7    1  0.8697654E-014  0.5052881E+02  0.7816164E-02  0.1300439E+00
        -11   -1    0    0    0    0  0.00000000000E+00  0.00000000000E+00  0.45593999997E+02  0.45594000000E+02  0.51100000000E-03 0. -1.
         11   -1    0    0    0    0 -0.00000000000E+00 -0.00000000000E+00 -0.45593999997E+02  0.45594000000E+02  0.51100000000E-03 0.  1.
    9900012    2    1    2    0    0  0.84337943477E+01 -0.18041202762E+02 -0.35447933007E+02  0.50528808681E+02  0.29999844468E+02 0.  0.
         12    1    1    2    0    0 -0.84337943477E+01  0.18041202762E+02  0.35447933007E+02  0.40659191319E+02  0.00000000000E+00 0. -1.
         11    1    3    3    0    0 -0.43936063035E+01 -0.78809085142E+01 -0.13068048062E+02  0.15880377066E+02  0.51100000000E-03 0. -1.
        -11    1    3    3    0    0  0.75552676550E+01 -0.15307715748E+02 -0.21147759860E+02  0.27177858233E+02  0.51100000000E-03 0.  1.
        -12    1    3    3    0    0  0.52721329962E+01  0.51474215006E+01 -0.12321250853E+01  0.74705733823E+01  0.00000000000E+00 0.  1.
</event>
<event>
 7    1  0.8697654E-014  0.5052886E+02  0.7816164E-02  0.1300439E+00
        -11   -1    0    0    0    0  0.00000000000E+00  0.00000000000E+00  0.45593999997E+02  0.45594000000E+02  0.51100000000E-03 0. -1.
         11   -1    0    0    0    0 -0.00000000000E+00 -0.00000000000E+00 -0.45593999997E+02  0.45594000000E+02  0.51100000000E-03 0.  1.
    9900012    2    1    2    0    0  0.25113680343E+02  0.15818556013E+02 -0.27789244116E+02  0.50528859044E+02  0.29999997550E+02 0.  0.
         12    1    1    2    0    0 -0.25113680343E+02 -0.15818556013E+02  0.27789244116E+02  0.40659140956E+02  0.00000000000E+00 0. -1.
         11    1    3    3    0    0  0.50990643116E+01  0.73129095246E+01 -0.10368867456E+01  0.89752012208E+01  0.51100000000E-03 0. -1.
        -11    1    3    3    0    0  0.39494342136E+01  0.11889211328E+02 -0.20420717504E+02  0.23957401367E+02  0.51100000000E-03 0.  1.
        -12    1    3    3    0    0  0.16065181818E+02 -0.33835648396E+01 -0.63316398664E+01  0.17596256456E+02  0.00000000000E+00 0.  1.
</event>
<event>
 7    1  0.8697654E-014  0.5052890E+02  0.7816164E-02  0.1300439E+00
        -11   -1    0    0    0    0  0.00000000000E+00  0.00000000000E+00  0.45593999997E+02  0.45594000000E+02  0.51100000000E-03 0. -1.
         11   -1    0    0    0    0 -0.00000000000E+00 -0.00000000000E+00 -0.45593999997E+02  0.45594000000E+02  0.51100000000E-03 0.  1.
    9900012    2    1    2    0    0 -0.88747791904E+01 -0.35296972634E+02 -0.18125241541E+02  0.50528900604E+02  0.30000123875E+02 0.  0.
         12    1    1    2    0    0  0.88747791904E+01  0.35296972634E+02  0.18125241541E+02  0.40659099396E+02  0.00000000000E+00 0. -1.
         11    1    3    3    0    0  0.44686403006E+01 -0.16566912476E+00  0.29368842728E+01  0.53499048485E+01  0.51100000000E-03 0. -1.
        -11    1    3    3    0    0 -0.25661952725E+01 -0.92528475497E+01 -0.12707994381E+02  0.15927764043E+02  0.51100000000E-03 0.  1.
        -12    1    3    3    0    0 -0.10777224218E+02 -0.25878455959E+02 -0.83541314329E+01  0.29251231712E+02  0.00000000000E+00 0.  1.
</event>
<event>
 7    1  0.8697654E-014  0.5052884E+02  0.7816164E-02  0.1300439E+00
        -11   -1    0    0    0    0  0.00000000000E+00  0.00000000000E+00  0.45593999997E+02  0.45594000000E+02  0.51100000000E-03 0. -1.
         11   -1    0    0    0    0 -0.00000000000E+00 -0.00000000000E+00 -0.45593999997E+02  0.45594000000E+02  0.51100000000E-03 0.  1.
    9900012    2    1    2    0    0 -0.28564647328E+02  0.16164813897E+02 -0.23998481993E+02  0.50528838385E+02  0.29999934754E+02 0.  0.
         12    1    1    2    0    0  0.28564647328E+02 -0.16164813897E+02  0.23998481993E+02  0.40659161615E+02  0.00000000000E+00 0. -1.
         11    1    3    3    0    0  0.31851344786E+01 -0.23612136014E+01 -0.18322021470E+01  0.43677655943E+01  0.51100000000E-03 0. -1.
        -11    1    3    3    0    0 -0.15193581879E+02  0.20067819135E+01 -0.15600879326E+02  0.21869145845E+02  0.51100000000E-03 0.  1.
        -12    1    3    3    0    0 -0.16556199928E+02  0.16519245585E+02 -0.65654005197E+01  0.24291926946E+02  0.00000000000E+00 0.  1.
</event>
<event>
 7    1  0.8697654E-014  0.5052886E+02  0.7816164E-02  0.1300439E+00
        -11   -1    0    0    0    0  0.00000000000E+00  0.00000000000E+00  0.45593999997E+02  0.45594000000E+02  0.51100000000E-03 0. -1.
         11   -1    0    0    0    0 -0.00000000000E+00 -0.00000000000E+00 -0.45593999997E+02  0.45594000000E+02  0.51100000000E-03 0.  1.
    9900012    2    1    2    0    0 -0.20101418844E+02  0.32809906406E+02  0.13138074770E+02  0.50528855807E+02  0.29999987710E+02 0.  0.
        -12    1    1    2    0    0  0.20101418844E+02 -0.32809906406E+02 -0.13138074770E+02  0.40659144193E+02  0.00000000000E+00 0.  1.
         11    1    3    3    0    0 -0.18281902034E+02  0.11847650772E+02  0.58442928653E+01  0.22555498889E+02  0.51100000000E-03 0. -1.
        -11    1    3    3    0    0 -0.27632735404E+01  0.24079858739E+01 -0.46244716144E+01  0.59008316873E+01  0.51100000000E-03 0.  1.
         12    1    3    3    0    0  0.94375673017E+00  0.18554269760E+02  0.11918253519E+02  0.22072525230E+02  0.00000000000E+00 0. -1.
</event>
<event>
 7    1  0.8697654E-014  0.5052887E+02  0.7816164E-02  0.1300439E+00
        -11   -1    0    0    0    0  0.00000000000E+00  0.00000000000E+00  0.45593999997E+02  0.45594000000E+02  0.51100000000E-03 0. -1.
         11   -1    0    0    0    0 -0.00000000000E+00 -0.00000000000E+00 -0.45593999997E+02  0.45594000000E+02  0.51100000000E-03 0.  1.
    9900012    2    1    2    0    0 -0.13414976492E+02 -0.14082490207E+02  0.35705557717E+02  0.50528868472E+02  0.30000026209E+02 0.  0.
        -12    1    1    2    0    0  0.13414976492E+02  0.14082490207E+02 -0.35705557717E+02  0.40659131528E+02  0.00000000000E+00 0.  1.
         11    1    3    3    0    0 -0.84098537348E+01 -0.73763875220E+01  0.35060578519E+00  0.11191946095E+02  0.51100000000E-03 0. -1.
        -11    1    3    3    0    0 -0.44389576719E+01  0.38121965020E+01  0.72108325178E+01  0.92861883054E+01  0.51100000000E-03 0.  1.
         12    1    3    3    0    0 -0.56616508567E+00 -0.10518299187E+02  0.28144119414E+02  0.30050734072E+02  0.00000000000E+00 0. -1.
</event>
<event>
 7    1  0.8697654E-014  0.5052885E+02  0.7816164E-02  0.1300439E+00
        -11   -1    0    0    0    0  0.00000000000E+00  0.00000000000E+00  0.45593999997E+02  0.45594000000E+02  0.51100000000E-03 0. -1.
         11   -1    0    0    0    0 -0.00000000000E+00 -0.00000000000E+00 -0.45593999997E+02  0.45594000000E+02  0.51100000000E-03 0.  1.
    9900012    2    1    2    0    0 -0.16201891626E+02  0.11764407193E+02  0.35387340638E+02  0.50528850399E+02  0.29999971272E+02 0.  0.
        -12    1    1    2    0    0  0.16201891626E+02 -0.11764407193E+02 -0.35387340638E+02  0.40659149601E+02  0.00000000000E+00 0.  1.
         11    1    3    3    0    0  0.75819471324E+00  0.30694701599E+00  0.13093910078E+02  0.13119434328E+02  0.51100000000E-03 0. -1.
        -11    1    3    3    0    0  0.18575974746E+01 -0.19555272091E+01 -0.23851087381E+01  0.36004859390E+01  0.51100000000E-03 0.  1.
         12    1    3    3    0    0 -0.18817683814E+02  0.13412987387E+02  0.24678539298E+02  0.33808930131E+02  0.00000000000E+00 0. -1.
</event>
<event>
 7    1  0.8697654E-014  0.5052878E+02  0.7816164E-02  0.1300439E+00
        -11   -1    0    0    0    0  0.00000000000E+00  0.00000000000E+00  0.45593999997E+02  0.45594000000E+02  0.51100000000E-03 0. -1.
         11   -1    0    0    0    0 -0.00000000000E+00 -0.00000000000E+00 -0.45593999997E+02  0.45594000000E+02  0.51100000000E-03 0.  1.
    9900012    2    1    2    0    0  0.18907843447E+01  0.39131636892E+02  0.10877135585E+02  0.50528780260E+02  0.29999758078E+02 0.  0.
        -12    1    1    2    0    0 -0.18907843447E+01 -0.39131636892E+02 -0.10877135585E+02  0.40659219740E+02  0.00000000000E+00 0.  1.
         11    1    3    3    0    0  0.37758734535E+01 -0.35042037857E+01  0.62902036049E+00  0.51896369222E+01  0.51100000000E-03 0.  1.
        -11    1    3    3    0    0 -0.30548349928E+01  0.12730854113E+02  0.79640541444E+01  0.15324256000E+02  0.51100000000E-03 0. -1.
        -12    1    3    3    0    0  0.11697458840E+01  0.29904986565E+02  0.22840610803E+01  0.30014887338E+02  0.00000000000E+00 0.  1.
</event>
<event>
 7    1  0.8697654E-014  0.5052885E+02  0.7816164E-02  0.1300439E+00
        -11   -1    0    0    0    0  0.00000000000E+00  0.00000000000E+00  0.45593999997E+02  0.45594000000E+02  0.51100000000E-03 0. -1.
         11   -1    0    0    0    0 -0.00000000000E+00 -0.00000000000E+00 -0.45593999997E+02  0.45594000000E+02  0.51100000000E-03 0.  1.
    9900012    2    1    2    0    0  0.45746013585E+01 -0.21686843600E+02  0.34086958200E+02  0.50528845038E+02  0.29999954978E+02 0.  0.
        -12    1    1    2    0    0 -0.45746013585E+01  0.21686843600E+02 -0.34086958200E+02  0.40659154962E+02  0.00000000000E+00 0.  1.
         11    1    3    3    0    0  0.91119668003E+01 -0.19423469414E+02  0.32329231065E+02  0.38800493355E+02  0.51100000000E-03 0. -1.
        -11    1    3    3    0    0 -0.19613924949E+00 -0.59166448435E+01  0.78492010965E+00  0.59717046686E+01  0.51100000000E-03 0.  1.
        -12    1    3    3    0    0 -0.43412261923E+01  0.36532706569E+01  0.97280702451E+00  0.57566470147E+01  0.00000000000E+00 0.  1.
</event>
<event>
 7    1  0.8697654E-014  0.5052884E+02  0.7816164E-02  0.1300439E+00
        -11   -1    0    0    0    0  0.00000000000E+00  0.00000000000E+00  0.45593999997E+02  0.45594000000E+02  0.51100000000E-03 0. -1.
         11   -1    0    0    0    0 -0.00000000000E+00 -0.00000000000E+00 -0.45593999997E+02  0.45594000000E+02  0.51100000000E-03 0.  1.
    9900012    2    1    2    0    0 -0.78906449588E+01 -0.98780994543E+01  0.38643605872E+02  0.50528838652E+02  0.29999935568E+02 0.  0.
        -12    1    1    2    0    0  0.78906449588E+01  0.98780994543E+01 -0.38643605872E+02  0.40659161348E+02  0.00000000000E+00 0.  1.
         11    1    3    3    0    0  0.22516515650E+01  0.30151595336E+00 -0.36521476211E+01  0.43010497728E+01  0.51100000000E-03 0.  1.
        -11    1    3    3    0    0 -0.87068116048E+01 -0.13499239107E+01  0.13908854570E+02  0.16464722852E+02  0.51100000000E-03 0. -1.
        -12    1    3    3    0    0 -0.14354849190E+01 -0.88296914970E+01  0.28386898923E+02  0.29763066028E+02  0.00000000000E+00 0.  1.
</event>
<event>
 7    1  0.8697654E-014  0.5052886E+02  0.7816164E-02  0.1300439E+00
        -11   -1    0    0    0    0  0.00000000000E+00  0.00000000000E+00  0.45593999997E+02  0.45594000000E+02  0.51100000000E-03 0. -1.
         11   -1    0    0    0    0 -0.00000000000E+00 -0.00000000000E+00 -0.45593999997E+02  0.45594000000E+02  0.51100000000E-03 0.  1.
    9900012    2    1    2    0    0 -0.80597227872E+01 -0.25074115546E+02  0.30975718996E+02  0.50528861186E+02  0.30000004060E+02 0.  0.
        -12    1    1    2    0    0  0.80597227872E+01  0.25074115546E+02 -0.30975718996E+02  0.40659138814E+02  0.00000000000E+00 0.  1.
         11    1    3    3    0    0 -0.22072070832E+01 -0.17882259259E+02  0.16625269318E+02  0.24516250518E+02  0.51100000000E-03 0. -1.
        -11    1    3    3    0    0 -0.75953741969E+00 -0.63597776314E+01 -0.35915492820E+01  0.73432210316E+01  0.51100000000E-03 0.  1.
         12    1    3    3    0    0 -0.50929782843E+01 -0.83207865513E+00  0.17941998960E+02  0.18669389636E+02  0.00000000000E+00 0. -1.
</event>
<event>
 7    1  0.8697654E-014  0.5052886E+02  0.7816164E-02  0.1300439E+00
        -11   -1    0    0    0    0  0.00000000000E+00  0.00000000000E+00  0.45593999997E+02  0.45594000000E+02  0.51100000000E-03 0. -1.
         11   -1    0    0    0    0 -0.00000000000E+00 -0.00000000000E+00 -0.45593999997E+02  0.45594000000E+02  0.51100000000E-03 0.  1.
    9900012    2    1    2    0    0 -0.52830119625E+01 -0.10565105436E+02 -0.38905450466E+02  0.50528859033E+02  0.29999997516E+02 0.  0.
         12    1    1    2    0    0  0.52830119625E+01  0.10565105436E+02  0.38905450466E+02  0.40659140967E+02  0.00000000000E+00 0. -1.
         11    1    3    3    0    0 -0.80308289037E+01 -0.62639344291E+01 -0.19290361839E+02  0.21813966800E+02  0.51100000000E-03 0. -1.
        -11    1    3    3    0    0 -0.11153914941E+01 -0.11795178289E+02 -0.77429700944E+01  0.14153583122E+02  0.51100000000E-03 0.  1.
         12    1    3    3    0    0  0.38632084354E+01  0.74940072825E+01 -0.11872118532E+02  0.14561309110E+02  0.00000000000E+00 0. -1.
</event>
<event>
 7    1  0.8697654E-014  0.5052886E+02  0.7816164E-02  0.1300439E+00
        -11   -1    0    0    0    0  0.00000000000E+00  0.00000000000E+00  0.45593999997E+02  0.45594000000E+02  0.51100000000E-03 0. -1.
         11   -1    0    0    0    0 -0.00000000000E+00 -0.00000000000E+00 -0.45593999997E+02  0.45594000000E+02  0.51100000000E-03 0.  1.
    9900012    2    1    2    0    0  0.30557044811E+02 -0.39319786239E+01  0.26532477664E+02  0.50528858168E+02  0.29999994888E+02 0.  0.
        -12    1    1    2    0    0 -0.30557044811E+02  0.39319786239E+01 -0.26532477664E+02  0.40659141832E+02  0.00000000000E+00 0.  1.
         11    1    3    3    0    0  0.19698851477E+02  0.32147336954E+01  0.12408845951E+02  0.23502313085E+02  0.51100000000E-03 0.  1.
        -11    1    3    3    0    0 -0.13835495481E+01 -0.68525622952E+01  0.12961069418E+02  0.14726205896E+02  0.51100000000E-03 0. -1.
         12    1    3    3    0    0  0.12241742883E+02 -0.29415002409E+00  0.11625622945E+01  0.12300339187E+02  0.00000000000E+00 0. -1.
</event>
<event>
 7    1  0.9455550E-014  0.5052886E+02  0.7816164E-02  0.1300439E+00
        -11   -1    0    0    0    0  0.00000000000E+00  0.00000000000E+00  0.45593999997E+02  0.45594000000E+02  0.51100000000E-03 0. -1.
         11   -1    0    0    0    0 -0.00000000000E+00 -0.00000000000E+00 -0.45593999997E+02  0.45594000000E+02  0.51100000000E-03 0.  1.
    9900012    2    1    2    0    0  0.19373860579E+02  0.21382193955E+01 -0.35682593129E+02  0.50528857014E+02  0.29999991380E+02 0.  0.
         12    1    1    2    0    0 -0.19373860579E+02 -0.21382193955E+01  0.35682593129E+02  0.40659142986E+02  0.00000000000E+00 0. -1.
         11    1    3    3    0    0  0.34406570939E+01 -0.82025215005E+01 -0.62870247448E+01  0.10892481839E+02  0.51100000000E-03 0. -1.
        -11    1    3    3    0    0  0.94323688930E+01  0.14618454189E+01 -0.26631297439E+02  0.28290149850E+02  0.51100000000E-03 0.  1.
         12    1    3    3    0    0  0.65008345919E+01  0.88788954771E+01 -0.27642709453E+01  0.11346225326E+02  0.00000000000E+00 0. -1.
</event>
<event>
 7    1  0.1049777E-013  0.5052886E+02  0.7816164E-02  0.1300439E+00
        -11   -1    0    0    0    0  0.00000000000E+00  0.00000000000E+00  0.45593999997E+02  0.45594000000E+02  0.51100000000E-03 0. -1.
         11   -1    0    0    0    0 -0.00000000000E+00 -0.00000000000E+00 -0.45593999997E+02  0.45594000000E+02  0.51100000000E-03 0.  1.
    9900012    2    1    2    0    0 -0.99037248979E+01 -0.38495725857E+01 -0.39246182921E+02  0.50528857734E+02  0.29999993567E+02 0.  0.
         12    1    1    2    0    0  0.99037248979E+01  0.38495725857E+01  0.39246182921E+02  0.40659142266E+02  0.00000000000E+00 0. -1.
         11    1    3    3    0    0  0.69687244012E+00 -0.94069274232E+01 -0.87633353151E+01  0.12875246050E+02  0.51100000000E-03 0. -1.
        -11    1    3    3    0    0  0.24840144253E+01  0.60886258933E+01 -0.19445396991E+02  0.20527180940E+02  0.51100000000E-03 0.  1.
         12    1    3    3    0    0 -0.13084611763E+02 -0.53127105575E+00 -0.11037450615E+02  0.17126430743E+02  0.00000000000E+00 0. -1.
</event>
<event>
 7    1  0.8697654E-014  0.5052886E+02  0.7816164E-02  0.1300439E+00
        -11   -1    0    0    0    0  0.00000000000E+00  0.00000000000E+00  0.45593999997E+02  0.45594000000E+02  0.51100000000E-03 0. -1.
         11   -1    0    0    0    0 -0.00000000000E+00 -0.00000000000E+00 -0.45593999997E+02  0.45594000000E+02  0.51100000000E-03 0.  1.
    9900012    2    1    2    0    0  0.37798897652E+01  0.26825054937E+02 -0.30319868881E+02  0.50528860954E+02  0.30000003356E+02 0.  0.
         12    1    1    2    0    0 -0.37798897652E+01 -0.26825054937E+02  0.30319868881E+02  0.40659139046E+02  0.00000000000E+00 0. -1.
         11    1    3    3    0    0 -0.14294552566E+01 -0.99461848261E-02 -0.13335475996E+01  0.19549400805E+01  0.51100000000E-03 0. -1.
        -11    1    3    3    0    0  0.15207119756E+02  0.17301327568E+02 -0.25424545925E+02  0.34307433052E+02  0.51100000000E-03 0.  1.
        -12    1    3    3    0    0 -0.99977747338E+01  0.95336735538E+01 -0.35617753561E+01  0.14266487821E+02  0.00000000000E+00 0.  1.
</event>
<event>
 7    1  0.8697654E-014  0.5052886E+02  0.7816164E-02  0.1300439E+00
        -11   -1    0    0    0    0  0.00000000000E+00  0.00000000000E+00  0.45593999997E+02  0.45594000000E+02  0.51100000000E-03 0. -1.
         11   -1    0    0    0    0 -0.00000000000E+00 -0.00000000000E+00 -0.45593999997E+02  0.45594000000E+02  0.51100000000E-03 0.  1.
    9900012    2    1    2    0    0 -0.39795599490E+02  0.21310498547E+00  0.83325063487E+01  0.50528858168E+02  0.29999994886E+02 0.  0.
        -12    1    1    2    0    0  0.39795599490E+02 -0.21310498547E+00 -0.83325063487E+01  0.40659141832E+02  0.00000000000E+00 0.  1.
         11    1    3    3    0    0 -0.19246806910E+02 -0.89930492313E+01  0.43988997539E+01  0.21694811131E+02  0.51100000000E-03 0. -1.
        -11    1    3    3    0    0  0.21268934365E+00  0.40707751873E+00 -0.46750239690E+01  0.46975310787E+01  0.51100000000E-03 0.  1.
         12    1    3    3    0    0 -0.20761481923E+02  0.87990766980E+01  0.86086305639E+01  0.24136515958E+02  0.00000000000E+00 0. -1.
</event>
<event>
 7    1  0.8697654E-014  0.5052886E+02  0.7816164E-02  0.1300439E+00
        -11   -1    0    0    0    0  0.00000000000E+00  0.00000000000E+00  0.45593999997E+02  0.45594000000E+02  0.51100000000E-03 0. -1.
         11   -1    0    0    0    0 -0.00000000000E+00 -0.00000000000E+00 -0.45593999997E+02  0.45594000000E+02  0.51100000000E-03 0.  1.
    9900012    2    1    2    0    0  0.10386162719E+02 -0.64254044613E-01  0.39310165982E+02  0.50528860140E+02  0.30000000882E+02 0.  0.
        -12    1    1    2    0    0 -0.10386162719E+02  0.64254044613E-01 -0.39310165982E+02  0.40659139860E+02  0.00000000000E+00 0.  1.
         11    1    3    3    0    0  0.15592652117E+01  0.19183459774E+01  0.16593122089E+02  0.16776264787E+02  0.51100000000E-03 0. -1.
        -11    1    3    3    0    0 -0.57729195119E+01 -0.73529078503E+01  0.96628164824E+01  0.13444771332E+02  0.51100000000E-03 0.  1.
        -12    1    3    3    0    0  0.14599817019E+02  0.53703078283E+01  0.13054227410E+02  0.20307824020E+02  0.00000000000E+00 0.  1.
</event>
<event>
 7    1  0.8697654E-014  0.5052886E+02  0.7816164E-02  0.1300439E+00
        -11   -1    0    0    0    0  0.00000000000E+00  0.00000000000E+00  0.45593999997E+02  0.45594000000E+02  0.51100000000E-03 0. -1.
         11   -1    0    0    0    0 -0.00000000000E+00 -0.00000000000E+00 -0.45593999997E+02  0.45594000000E+02  0.51100000000E-03 0.  1.
    9900012    2    1    2    0    0  0.25581359795E+02  0.28983290743E+01  0.31469974547E+02  0.50528861072E+02  0.30000003714E+02 0.  0.
        -12    1    1    2    0    0 -0.25581359795E+02 -0.28983290743E+01 -0.31469974547E+02  0.40659138928E+02  0.00000000000E+00 0.  1.
         11    1    3    3    0    0  0.14074269709E+02 -0.39257156311E+01  0.16992669289E+02  0.22410870596E+02  0.51100000000E-03 0. -1.
        -11    1    3    3    0    0  0.14963272154E+02  0.99777063642E+01  0.14988039921E+02  0.23411439058E+02  0.51100000000E-03 0.  1.
        -12    1    3    3    0    0 -0.34561820689E+01 -0.31536616588E+01 -0.51073466217E+00  0.47065514176E+01  0.00000000000E+00 0.  1.
</event>
<event>
 7    1  0.8697654E-014  0.5052886E+02  0.7816164E-02  0.1300439E+00
        -11   -1    0    0    0    0  0.00000000000E+00  0.00000000000E+00  0.45593999997E+02  0.45594000000E+02  0.51100000000E-03 0. -1.
         11   -1    0    0    0    0 -0.00000000000E+00 -0.00000000000E+00 -0.45593999997E+02  0.45594000000E+02  0.51100000000E-03 0.  1.
    9900012    2    1    2    0    0  0.13489242968E+02  0.25302968271E+01  0.38272751808E+02  0.50528860697E+02  0.30000002575E+02 0.  0.
        -12    1    1    2    0    0 -0.13489242968E+02 -0.25302968271E+01 -0.38272751808E+02  0.40659139303E+02  0.00000000000E+00 0.  1.
         11    1    3    3    0    0  0.64365347195E+01  0.31778093435E+01  0.27296625314E+01  0.76797466896E+01  0.51100000000E-03 0. -1.
        -11    1    3    3    0    0 -0.52197245437E+01 -0.17263501225E+01  0.29010638008E+00  0.55054492124E+01  0.51100000000E-03 0.  1.
         12    1    3    3    0    0  0.12272432792E+02  0.10788376061E+01  0.35252982897E+02  0.37343664795E+02  0.00000000000E+00 0. -1.
</event>
<event>
 7    1  0.8697654E-014  0.5052886E+02  0.7816164E-02  0.1300439E+00
        -11   -1    0    0    0    0  0.00000000000E+00  0.00000000000E+00  0.45593999997E+02  0.45594000000E+02  0.51100000000E-03 0. -1.
         11   -1    0    0    0    0 -0.00000000000E+00 -0.00000000000E+00 -0.45593999997E+02  0.45594000000E+02  0.51100000000E-03 0.  1.
    9900012    2    1    2    0    0 -0.15839749041E+02 -0.23708827518E+02  0.28985500690E+02  0.50528863238E+02  0.30000010298E+02 0.  0.
        -12    1    1    2    0    0  0.15839749041E+02  0.23708827518E+02 -0.28985500690E+02  0.40659136762E+02  0.00000000000E+00 0.  1.
         11    1    3    3    0    0 -0.57058428361E+01 -0.96955392122E+01 -0.10138869104E+01  0.11295489808E+02  0.51100000000E-03 0. -1.
        -11    1    3    3    0    0  0.13538644304E+01  0.37689888424E+01  0.61980750831E+01  0.73793198052E+01  0.51100000000E-03 0.  1.
         12    1    3    3    0    0 -0.11487770636E+02 -0.17782277148E+02  0.23801312518E+02  0.31854053624E+02  0.00000000000E+00 0. -1.
</event>
<event>
 7    1  0.8697654E-014  0.5052886E+02  0.7816164E-02  0.1300439E+00
        -11   -1    0    0    0    0  0.00000000000E+00  0.00000000000E+00  0.45593999997E+02  0.45594000000E+02  0.51100000000E-03 0. -1.
         11   -1    0    0    0    0 -0.00000000000E+00 -0.00000000000E+00 -0.45593999997E+02  0.45594000000E+02  0.51100000000E-03 0.  1.
    9900012    2    1    2    0    0 -0.39062853002E+01 -0.20727262454E+01 -0.40417945954E+02  0.50528860632E+02  0.30000002378E+02 0.  0.
         12    1    1    2    0    0  0.39062853002E+01  0.20727262454E+01  0.40417945954E+02  0.40659139368E+02  0.00000000000E+00 0. -1.
         11    1    3    3    0    0 -0.24230352675E+01  0.11049612160E+02 -0.16986854298E+02  0.20408778699E+02  0.51100000000E-03 0.  1.
        -11    1    3    3    0    0  0.20466589270E+01  0.44299707734E+00  0.70452519880E+00  0.22093924936E+01  0.51100000000E-03 0. -1.
        -12    1    3    3    0    0 -0.35299089596E+01 -0.13565335483E+02 -0.24135616855E+02  0.27910689439E+02  0.00000000000E+00 0.  1.
</event>
<event>
 7    1  0.8697654E-014  0.5052884E+02  0.7816164E-02  0.1300439E+00
        -11   -1    0    0    0    0  0.00000000000E+00  0.00000000000E+00  0.45593999997E+02  0.45594000000E+02  0.51100000000E-03 0. -1.
         11   -1    0    0    0    0 -0.00000000000E+00 -0.00000000000E+00 -0.45593999997E+02  0.45594000000E+02  0.51100000000E-03 0.  1.
    9900012    2    1    2    0    0  0.10438773877E+02 -0.35277947843E+02  0.17310848616E+02  0.50528842558E+02  0.29999947439E+02 0.  0.
        -12    1    1    2    0    0 -0.10438773877E+02  0.35277947843E+02 -0.17310848616E+02  0.40659157442E+02  0.00000000000E+00 0.  1.
         11    1    3    3    0    0 -0.21357448502E+01 -0.13177574340E+02 -0.63808486681E+01  0.14796117786E+02  0.51100000000E-03 0.  1.
        -11    1    3    3    0    0  0.15454682643E+01 -0.96887335062E+01  0.61517892114E+01  0.11580351457E+02  0.51100000000E-03 0. -1.
        -12    1    3    3    0    0  0.11029050463E+02 -0.12411639997E+02  0.17539908073E+02  0.24152373315E+02  0.00000000000E+00 0.  1.
</event>
<event>
 7    1  0.8697654E-014  0.5052886E+02  0.7816164E-02  0.1300439E+00
        -11   -1    0    0    0    0  0.00000000000E+00  0.00000000000E+00  0.45593999997E+02  0.45594000000E+02  0.51100000000E-03 0. -1.
         11   -1    0    0    0    0 -0.00000000000E+00 -0.00000000000E+00 -0.45593999997E+02  0.45594000000E+02  0.51100000000E-03 0.  1.
    9900012    2    1    2    0    0 -0.43490036296E+00  0.38500993778E+02  0.13063294354E+02  0.50528864254E+02  0.30000013387E+02 0.  0.
        -12    1    1    2    0    0  0.43490036296E+00 -0.38500993778E+02 -0.13063294354E+02  0.40659135746E+02  0.00000000000E+00 0.  1.
         11    1    3    3    0    0 -0.41166449872E+01  0.12156152919E+02  0.49022408808E+01  0.13738660257E+02  0.51100000000E-03 0. -1.
        -11    1    3    3    0    0  0.20637301759E+00  0.45929407868E+01  0.13384031288E+02  0.14151677945E+02  0.51100000000E-03 0.  1.
        -12    1    3    3    0    0  0.34753716066E+01  0.21751900072E+02 -0.52229778143E+01  0.22638526052E+02  0.00000000000E+00 0.  1.
</event>
<event>
 7    1  0.8697654E-014  0.5052886E+02  0.7816164E-02  0.1300439E+00
        -11   -1    0    0    0    0  0.00000000000E+00  0.00000000000E+00  0.45593999997E+02  0.45594000000E+02  0.51100000000E-03 0. -1.
         11   -1    0    0    0    0 -0.00000000000E+00 -0.00000000000E+00 -0.45593999997E+02  0.45594000000E+02  0.51100000000E-03 0.  1.
    9900012    2    1    2    0    0  0.24030293377E+01 -0.22401593561E+02  0.33846121866E+02  0.50528857000E+02  0.29999991338E+02 0.  0.
        -12    1    1    2    0    0 -0.24030293377E+01  0.22401593561E+02 -0.33846121866E+02  0.40659143000E+02  0.00000000000E+00 0.  1.
         11    1    3    3    0    0  0.54031791497E+00 -0.94760657447E+01  0.11603431302E+02  0.14990910035E+02  0.51100000000E-03 0. -1.
        -11    1    3    3    0    0 -0.10096640143E+02 -0.23059465127E+01  0.14365580213E+02  0.17709585727E+02  0.51100000000E-03 0.  1.
         12    1    3    3    0    0  0.11959351566E+02 -0.10619581304E+02  0.78771103518E+01  0.17828361238E+02  0.00000000000E+00 0. -1.
</event>
<event>
 7    1  0.8697654E-014  0.5052886E+02  0.7816164E-02  0.1300439E+00
        -11   -1    0    0    0    0  0.00000000000E+00  0.00000000000E+00  0.45593999997E+02  0.45594000000E+02  0.51100000000E-03 0. -1.
         11   -1    0    0    0    0 -0.00000000000E+00 -0.00000000000E+00 -0.45593999997E+02  0.45594000000E+02  0.51100000000E-03 0.  1.
    9900012    2    1    2    0    0 -0.27647659706E+02  0.14441612965E+02  0.26080882308E+02  0.50528859647E+02  0.29999999383E+02 0.  0.
        -12    1    1    2    0    0  0.27647659706E+02 -0.14441612965E+02 -0.26080882308E+02  0.40659140353E+02  0.00000000000E+00 0.  1.
         11    1    3    3    0    0 -0.24558775521E+00 -0.29105600545E+01 -0.17680593558E+01  0.34143384898E+01  0.51100000000E-03 0. -1.
        -11    1    3    3    0    0 -0.69405277313E+01 -0.34864707795E+01  0.10782548673E+02  0.13288707982E+02  0.51100000000E-03 0.  1.
         12    1    3    3    0    0 -0.20461544220E+02  0.20838643799E+02  0.17066392991E+02  0.33825813175E+02  0.00000000000E+00 0. -1.
</event>
<event>
 7    1  0.8697654E-014  0.5052886E+02  0.7816164E-02  0.1300439E+00
        -11   -1    0    0    0    0  0.00000000000E+00  0.00000000000E+00  0.45593999997E+02  0.45594000000E+02  0.51100000000E-03 0. -1.
         11   -1    0    0    0    0 -0.00000000000E+00 -0.00000000000E+00 -0.45593999997E+02  0.45594000000E+02  0.51100000000E-03 0.  1.
    9900012    2    1    2    0    0  0.11514996417E+02 -0.35135703339E+02  0.16913096714E+02  0.50528860412E+02  0.30000001708E+02 0.  0.
        -12    1    1    2    0    0 -0.11514996417E+02  0.35135703339E+02 -0.16913096714E+02  0.40659139588E+02  0.00000000000E+00 0.  1.
         11    1    3    3    0    0  0.15022051757E+02 -0.19212370917E+02  0.10105410098E+02  0.26398798245E+02  0.51100000000E-03 0. -1.
        -11    1    3    3    0    0  0.61996170953E+00  0.12045712981E+01  0.63637681511E+01  0.65063730200E+01  0.51100000000E-03 0.  1.
        -12    1    3    3    0    0 -0.41270170500E+01 -0.17127903719E+02  0.44391846574E+00  0.17623689147E+02  0.00000000000E+00 0.  1.
</event>
<event>
 7    1  0.8697654E-014  0.5052887E+02  0.7816164E-02  0.1300439E+00
        -11   -1    0    0    0    0  0.00000000000E+00  0.00000000000E+00  0.45593999997E+02  0.45594000000E+02  0.51100000000E-03 0. -1.
         11   -1    0    0    0    0 -0.00000000000E+00 -0.00000000000E+00 -0.45593999997E+02  0.45594000000E+02  0.51100000000E-03 0.  1.
    9900012    2    1    2    0    0 -0.19418163381E+02  0.21002835895E+02  0.28896035034E+02  0.50528867872E+02  0.30000024384E+02 0.  0.
        -12    1    1    2    0    0  0.19418163381E+02 -0.21002835895E+02 -0.28896035034E+02  0.40659132128E+02  0.00000000000E+00 0.  1.
         11    1    3    3    0    0 -0.24832128096E+02  0.12723251752E+02  0.17440829783E+02  0.32904380631E+02  0.51100000000E-03 0. -1.
        -11    1    3    3    0    0  0.40894274683E+01  0.50188122438E-01  0.71646158267E+01  0.82497064233E+01  0.51100000000E-03 0.  1.
        -12    1    3    3    0    0  0.13245372471E+01  0.82293960201E+01  0.42905894245E+01  0.93747808180E+01  0.00000000000E+00 0.  1.
</event>
<event>
 7    1  0.8697654E-014  0.5052886E+02  0.7816164E-02  0.1300439E+00
        -11   -1    0    0    0    0  0.00000000000E+00  0.00000000000E+00  0.45593999997E+02  0.45594000000E+02  0.51100000000E-03 0. -1.
         11   -1    0    0    0    0 -0.00000000000E+00 -0.00000000000E+00 -0.45593999997E+02  0.45594000000E+02  0.51100000000E-03 0.  1.
    9900012    2    1    2    0    0 -0.39483271972E+01 -0.55839371126E+01 -0.40079869756E+02  0.50528860794E+02  0.30000002869E+02 0.  0.
         12    1    1    2    0    0  0.39483271972E+01  0.55839371126E+01  0.40079869756E+02  0.40659139206E+02  0.00000000000E+00 0. -1.
         11    1    3    3    0    0 -0.66020972819E+00 -0.52296324566E+01 -0.90002313261E+01  0.10430201182E+02  0.51100000000E-03 0. -1.
        -11    1    3    3    0    0  0.76270851969E+01 -0.87186651301E+01 -0.14424247624E+02  0.18499904595E+02  0.51100000000E-03 0.  1.
         12    1    3    3    0    0 -0.10915202666E+02  0.83643604740E+01 -0.16655390806E+02  0.21598755016E+02  0.00000000000E+00 0. -1.
</event>
<event>
 7    1  0.8697654E-014  0.5052886E+02  0.7816164E-02  0.1300439E+00
        -11   -1    0    0    0    0  0.00000000000E+00  0.00000000000E+00  0.45593999997E+02  0.45594000000E+02  0.51100000000E-03 0. -1.
         11   -1    0    0    0    0 -0.00000000000E+00 -0.00000000000E+00 -0.45593999997E+02  0.45594000000E+02  0.51100000000E-03 0.  1.
    9900012    2    1    2    0    0 -0.27298620218E+02 -0.18362680225E+02  0.23890650796E+02  0.50528857286E+02  0.29999992205E+02 0.  0.
        -12    1    1    2    0    0  0.27298620218E+02  0.18362680225E+02 -0.23890650796E+02  0.40659142714E+02  0.00000000000E+00 0.  1.
         11    1    3    3    0    0 -0.10310632092E+02  0.63286076899E+01  0.14478395132E+02  0.18867547145E+02  0.51100000000E-03 0. -1.
        -11    1    3    3    0    0 -0.91315378592E+00 -0.31736674371E+01  0.37991839114E+00  0.33242071360E+01  0.51100000000E-03 0.  1.
         12    1    3    3    0    0 -0.16074834339E+02 -0.21517620477E+02  0.90323372729E+01  0.28337103004E+02  0.00000000000E+00 0. -1.
</event>
<event>
 7    1  0.8697654E-014  0.5052886E+02  0.7816164E-02  0.1300439E+00
        -11   -1    0    0    0    0  0.00000000000E+00  0.00000000000E+00  0.45593999997E+02  0.45594000000E+02  0.51100000000E-03 0. -1.
         11   -1    0    0    0    0 -0.00000000000E+00 -0.00000000000E+00 -0.45593999997E+02  0.45594000000E+02  0.51100000000E-03 0.  1.
    9900012    2    1    2    0    0  0.13513155219E+02  0.10204511870E+02  0.36965228089E+02  0.50528861862E+02  0.30000006114E+02 0.  0.
        -12    1    1    2    0    0 -0.13513155219E+02 -0.10204511870E+02 -0.36965228089E+02  0.40659138138E+02  0.00000000000E+00 0.  1.
         11    1    3    3    0    0  0.20238378170E+00  0.12356402892E+02  0.29303479592E+02  0.31802760384E+02  0.51100000000E-03 0. -1.
        -11    1    3    3    0    0 -0.11460113901E+01 -0.22793282600E+01  0.18164373126E+01  0.31317924891E+01  0.51100000000E-03 0.  1.
        -12    1    3    3    0    0  0.14456782828E+02  0.12743723860E+00  0.58453111848E+01  0.15594308988E+02  0.00000000000E+00 0.  1.
</event>
<event>
 7    1  0.8697654E-014  0.5052892E+02  0.7816164E-02  0.1300439E+00
        -11   -1    0    0    0    0  0.00000000000E+00  0.00000000000E+00  0.45593999997E+02  0.45594000000E+02  0.51100000000E-03 0. -1.
         11   -1    0    0    0    0 -0.00000000000E+00 -0.00000000000E+00 -0.45593999997E+02  0.45594000000E+02  0.51100000000E-03 0.  1.
    9900012    2    1    2    0    0  0.25705082341E+02  0.24729979242E+02  0.19515059163E+02  0.50528921486E+02  0.30000187349E+02 0.  0.
        -12    1    1    2    0    0 -0.25705082341E+02 -0.24729979242E+02 -0.19515059163E+02  0.40659078514E+02  0.00000000000E+00 0.  1.
         11    1    3    3    0    0 -0.19423996108E+01  0.38198441656E+01  0.65933467196E+01  0.78636090266E+01  0.51100000000E-03 0. -1.
        -11    1    3    3    0    0  0.10214895297E+02  0.15728673928E+02 -0.23708826223E+01  0.18903871406E+02  0.51100000000E-03 0.  1.
         12    1    3    3    0    0  0.17432586655E+02  0.51814611486E+01  0.15292595065E+02  0.23761441054E+02  0.00000000000E+00 0. -1.
</event>
<event>
 7    1  0.8697654E-014  0.5052885E+02  0.7816164E-02  0.1300439E+00
        -11   -1    0    0    0    0  0.00000000000E+00  0.00000000000E+00  0.45593999997E+02  0.45594000000E+02  0.51100000000E-03 0.  1.
         11   -1    0    0    0    0 -0.00000000000E+00 -0.00000000000E+00 -0.45593999997E+02  0.45594000000E+02  0.51100000000E-03 0. -1.
    9900012    2    1    2    0    0 -0.31443891020E+02 -0.92950303897E+01 -0.24042674656E+02  0.50528854939E+02  0.29999985073E+02 0.  0.
         12    1    1    2    0    0  0.31443891020E+02  0.92950303897E+01  0.24042674656E+02  0.40659145061E+02  0.00000000000E+00 0. -1.
         11    1    3    3    0    0 -0.15819042005E+02 -0.72714105749E+01 -0.17472307175E+02  0.24665705341E+02  0.51100000000E-03 0. -1.
        -11    1    3    3    0    0 -0.61300944138E+01  0.46442509078E+01 -0.11018877830E+02  0.13437365549E+02  0.51100000000E-03 0.  1.
        -12    1    3    3    0    0 -0.94947546011E+01 -0.66678707226E+01  0.44485103479E+01  0.12425784049E+02  0.00000000000E+00 0.  1.
</event>
<event>
 7    1  0.8697654E-014  0.5052886E+02  0.7816164E-02  0.1300439E+00
        -11   -1    0    0    0    0  0.00000000000E+00  0.00000000000E+00  0.45593999997E+02  0.45594000000E+02  0.51100000000E-03 0. -1.
         11   -1    0    0    0    0 -0.00000000000E+00 -0.00000000000E+00 -0.45593999997E+02  0.45594000000E+02  0.51100000000E-03 0.  1.
    9900012    2    1    2    0    0  0.25487495067E+02  0.10171063554E+01  0.31662575772E+02  0.50528860626E+02  0.30000002358E+02 0.  0.
        -12    1    1    2    0    0 -0.25487495067E+02 -0.10171063554E+01 -0.31662575772E+02  0.40659139374E+02  0.00000000000E+00 0.  1.
         11    1    3    3    0    0  0.69782956313E+00  0.50709418169E+01  0.95753315643E+01  0.10857642094E+02  0.51100000000E-03 0. -1.
        -11    1    3    3    0    0  0.18502629645E+02  0.69904944460E+01  0.10131929706E+02  0.22223193204E+02  0.51100000000E-03 0.  1.
        -12    1    3    3    0    0  0.62870358592E+01 -0.11044329908E+02  0.11955314502E+02  0.17448025328E+02  0.00000000000E+00 0.  1.
</event>
<event>
 7    1  0.8697654E-014  0.5052886E+02  0.7816164E-02  0.1300439E+00
        -11   -1    0    0    0    0  0.00000000000E+00  0.00000000000E+00  0.45593999997E+02  0.45594000000E+02  0.51100000000E-03 0. -1.
         11   -1    0    0    0    0 -0.00000000000E+00 -0.00000000000E+00 -0.45593999997E+02  0.45594000000E+02  0.51100000000E-03 0.  1.
    9900012    2    1    2    0    0 -0.68726026538E+01 -0.61852190025E+01  0.39593886662E+02  0.50528862498E+02  0.30000008050E+02 0.  0.
        -12    1    1    2    0    0  0.68726026538E+01  0.61852190025E+01 -0.39593886662E+02  0.40659137502E+02  0.00000000000E+00 0.  1.
         11    1    3    3    0    0  0.69070133429E+01 -0.40838247724E+00  0.14785172148E+02  0.16324059706E+02  0.51100000000E-03 0. -1.
        -11    1    3    3    0    0 -0.21279383706E+01 -0.19679355822E+01 -0.27794795937E+01  0.40157688227E+01  0.51100000000E-03 0.  1.
         12    1    3    3    0    0 -0.11651677626E+02 -0.38089009430E+01  0.27588194108E+02  0.30189033970E+02  0.00000000000E+00 0. -1.
</event>
<event>
 7    1  0.8697654E-014  0.5052887E+02  0.7816164E-02  0.1300439E+00
        -11   -1    0    0    0    0  0.00000000000E+00  0.00000000000E+00  0.45593999997E+02  0.45594000000E+02  0.51100000000E-03 0. -1.
         11   -1    0    0    0    0 -0.00000000000E+00 -0.00000000000E+00 -0.45593999997E+02  0.45594000000E+02  0.51100000000E-03 0.  1.
    9900012    2    1    2    0    0  0.37093703319E+02 -0.75661288803E+01 -0.14831590808E+02  0.50528865503E+02  0.30000017182E+02 0.  0.
         12    1    1    2    0    0 -0.37093703319E+02  0.75661288803E+01  0.14831590808E+02  0.40659134497E+02  0.00000000000E+00 0. -1.
         11    1    3    3    0    0  0.38276805560E+01  0.14117670500E+01  0.43434693108E+01  0.59590226176E+01  0.51100000000E-03 0. -1.
        -11    1    3    3    0    0  0.42327845105E+01  0.56584832278E+01 -0.67213189829E+01  0.97524882098E+01  0.51100000000E-03 0.  1.
         12    1    3    3    0    0  0.29033238253E+02 -0.14636379158E+02 -0.12453741136E+02  0.34817354675E+02  0.00000000000E+00 0. -1.
</event>
<event>
 7    1  0.8697654E-014  0.5052889E+02  0.7816164E-02  0.1300439E+00
        -11   -1    0    0    0    0  0.00000000000E+00  0.00000000000E+00  0.45593999997E+02  0.45594000000E+02  0.51100000000E-03 0.  1.
         11   -1    0    0    0    0 -0.00000000000E+00 -0.00000000000E+00 -0.45593999997E+02  0.45594000000E+02  0.51100000000E-03 0. -1.
    9900012    2    1    2    0    0 -0.16901546359E+02  0.36362539954E+02 -0.67280715346E+01  0.50528886288E+02  0.30000080361E+02 0.  0.
         12    1    1    2    0    0  0.16901546359E+02 -0.36362539954E+02  0.67280715346E+01  0.40659113712E+02  0.00000000000E+00 0. -1.
         11    1    3    3    0    0 -0.11768337235E+02  0.13944467694E+02  0.87561860217E+00  0.18267694128E+02  0.51100000000E-03 0. -1.
        -11    1    3    3    0    0 -0.13309915623E+02  0.16733731019E+02 -0.47652652870E+01  0.21906148936E+02  0.51100000000E-03 0.  1.
         12    1    3    3    0    0  0.81767064999E+01  0.56843412413E+01 -0.28384248497E+01  0.10355043223E+02  0.00000000000E+00 0. -1.
</event>
<event>
 7    1  0.8697654E-014  0.5052887E+02  0.7816164E-02  0.1300439E+00
        -11   -1    0    0    0    0  0.00000000000E+00  0.00000000000E+00  0.45593999997E+02  0.45594000000E+02  0.51100000000E-03 0. -1.
         11   -1    0    0    0    0 -0.00000000000E+00 -0.00000000000E+00 -0.45593999997E+02  0.45594000000E+02  0.51100000000E-03 0.  1.
    9900012    2    1    2    0    0  0.29648056804E+02  0.15996907170E+02  0.22765242312E+02  0.50528873487E+02  0.30000041452E+02 0.  0.
        -12    1    1    2    0    0 -0.29648056804E+02 -0.15996907170E+02 -0.22765242312E+02  0.40659126513E+02  0.00000000000E+00 0.  1.
         11    1    3    3    0    0  0.20579248105E+02  0.49015995010E+01  0.13109749336E+02  0.24887680851E+02  0.51100000000E-03 0. -1.
        -11    1    3    3    0    0  0.12655878857E+02  0.14184544831E+02  0.74304762394E+01  0.20410403208E+02  0.51100000000E-03 0.  1.
        -12    1    3    3    0    0 -0.35870701580E+01 -0.30892371622E+01  0.22250167368E+01  0.52307894282E+01  0.00000000000E+00 0.  1.
</event>
<event>
 7    1  0.8697654E-014  0.5052885E+02  0.7816164E-02  0.1300439E+00
        -11   -1    0    0    0    0  0.00000000000E+00  0.00000000000E+00  0.45593999997E+02  0.45594000000E+02  0.51100000000E-03 0. -1.
         11   -1    0    0    0    0 -0.00000000000E+00 -0.00000000000E+00 -0.45593999997E+02  0.45594000000E+02  0.51100000000E-03 0.  1.
    9900012    2    1    2    0    0  0.89272650798E+01 -0.17455917475E+02 -0.35619677823E+02  0.50528848940E+02  0.29999966838E+02 0.  0.
         12    1    1    2    0    0 -0.89272650798E+01  0.17455917475E+02  0.35619677823E+02  0.40659151060E+02  0.00000000000E+00 0. -1.
         11    1    3    3    0    0  0.24913490502E+01 -0.26593375288E+01  0.21511753702E+01  0.42316015782E+01  0.51100000000E-03 0. -1.
        -11    1    3    3    0    0  0.36833779658E+01  0.46616892318E+01 -0.38028935536E+01  0.70541207372E+01  0.51100000000E-03 0.  1.
        -12    1    3    3    0    0  0.27525380638E+01 -0.19458269178E+02 -0.33967959640E+02  0.39243126625E+02  0.00000000000E+00 0.  1.
</event>
<event>
 7    1  0.8697654E-014  0.5052886E+02  0.7816164E-02  0.1300439E+00
        -11   -1    0    0    0    0  0.00000000000E+00  0.00000000000E+00  0.45593999997E+02  0.45594000000E+02  0.51100000000E-03 0. -1.
         11   -1    0    0    0    0 -0.00000000000E+00 -0.00000000000E+00 -0.45593999997E+02  0.45594000000E+02  0.51100000000E-03 0.  1.
    9900012    2    1    2    0    0 -0.15744086386E+02  0.17745969058E+02  0.33020744974E+02  0.50528864833E+02  0.30000015145E+02 0.  0.
        -12    1    1    2    0    0  0.15744086386E+02 -0.17745969058E+02 -0.33020744974E+02  0.40659135167E+02  0.00000000000E+00 0.  1.
         11    1    3    3    0    0 -0.49256288363E+00  0.42231867114E+01  0.23437519129E+01  0.48550074649E+01  0.51100000000E-03 0. -1.
        -11    1    3    3    0    0 -0.12343742822E+02 -0.62181147445E+01  0.11195965438E+02  0.17787146488E+02  0.51100000000E-03 0.  1.
        -12    1    3    3    0    0 -0.29077806797E+01  0.19740897091E+02  0.19481027623E+02  0.27886710880E+02  0.00000000000E+00 0.  1.
</event>
<event>
 7    1  0.8697654E-014  0.5052887E+02  0.7816164E-02  0.1300439E+00
        -11   -1    0    0    0    0  0.00000000000E+00  0.00000000000E+00  0.45593999997E+02  0.45594000000E+02  0.51100000000E-03 0. -1.
         11   -1    0    0    0    0 -0.00000000000E+00 -0.00000000000E+00 -0.45593999997E+02  0.45594000000E+02  0.51100000000E-03 0.  1.
    9900012    2    1    2    0    0  0.16809311386E+02 -0.32089385884E+02 -0.18463019469E+02  0.50528871583E+02  0.30000035665E+02 0.  0.
         12    1    1    2    0    0 -0.16809311386E+02  0.32089385884E+02  0.18463019469E+02  0.40659128417E+02  0.00000000000E+00 0. -1.
         11    1    3    3    0    0 -0.44043736171E+01 -0.84437150882E+01  0.30920842902E+01  0.10012782679E+02  0.51100000000E-03 0. -1.
        -11    1    3    3    0    0  0.98954328357E+01 -0.19831338633E+02 -0.16052674392E+02  0.27365853510E+02  0.51100000000E-03 0.  1.
        -12    1    3    3    0    0  0.11318252168E+02 -0.38143321631E+01 -0.55024293674E+01  0.13150235394E+02  0.00000000000E+00 0.  1.
</event>
<event>
 7    1  0.8697654E-014  0.5052885E+02  0.7816164E-02  0.1300439E+00
        -11   -1    0    0    0    0  0.00000000000E+00  0.00000000000E+00  0.45593999997E+02  0.45594000000E+02  0.51100000000E-03 0. -1.
         11   -1    0    0    0    0 -0.00000000000E+00 -0.00000000000E+00 -0.45593999997E+02  0.45594000000E+02  0.51100000000E-03 0.  1.
    9900012    2    1    2    0    0  0.10347031914E+02 -0.97471371442E+01  0.38093291914E+02  0.50528848007E+02  0.29999964003E+02 0.  0.
        -12    1    1    2    0    0 -0.10347031914E+02  0.97471371442E+01 -0.38093291914E+02  0.40659151993E+02  0.00000000000E+00 0.  1.
         11    1    3    3    0    0  0.32357248474E+01  0.57680413755E+00  0.30368685458E+02  0.30546025519E+02  0.51100000000E-03 0. -1.
        -11    1    3    3    0    0 -0.32664068015E+01 -0.58402043852E+01  0.50025690637E+01  0.83548248427E+01  0.51100000000E-03 0.  1.
         12    1    3    3    0    0  0.10377713868E+02 -0.44837368966E+01  0.27220373919E+01  0.11627997645E+02  0.00000000000E+00 0. -1.
</event>
<event>
 7    1  0.8697654E-014  0.5052885E+02  0.7816164E-02  0.1300439E+00
        -11   -1    0    0    0    0  0.00000000000E+00  0.00000000000E+00  0.45593999997E+02  0.45594000000E+02  0.51100000000E-03 0.  1.
         11   -1    0    0    0    0 -0.00000000000E+00 -0.00000000000E+00 -0.45593999997E+02  0.45594000000E+02  0.51100000000E-03 0. -1.
    9900012    2    1    2    0    0  0.19417625304E+02  0.33203125462E+02 -0.13178560887E+02  0.50528853674E+02  0.29999981228E+02 0.  0.
         12    1    1    2    0    0 -0.19417625304E+02 -0.33203125462E+02  0.13178560887E+02  0.40659146326E+02  0.00000000000E+00 0. -1.
         11    1    3    3    0    0 -0.41405292810E+00  0.24348069047E+01  0.50708067502E+01  0.56402841994E+01  0.51100000000E-03 0. -1.
        -11    1    3    3    0    0  0.12906035296E+02  0.91329887508E+01 -0.98486820642E-01  0.15810975002E+02  0.51100000000E-03 0.  1.
         12    1    3    3    0    0  0.69256429352E+01  0.21635329807E+02 -0.18150880817E+02  0.29077594473E+02  0.00000000000E+00 0. -1.
</event>
<event>
 7    1  0.8697654E-014  0.5052887E+02  0.7816164E-02  0.1300439E+00
        -11   -1    0    0    0    0  0.00000000000E+00  0.00000000000E+00  0.45593999997E+02  0.45594000000E+02  0.51100000000E-03 0. -1.
         11   -1    0    0    0    0 -0.00000000000E+00 -0.00000000000E+00 -0.45593999997E+02  0.45594000000E+02  0.51100000000E-03 0.  1.
    9900012    2    1    2    0    0 -0.12929827381E+02 -0.15465217115E+02 -0.35310222149E+02  0.50528866158E+02  0.30000019175E+02 0.  0.
         12    1    1    2    0    0  0.12929827381E+02  0.15465217115E+02  0.35310222149E+02  0.40659133842E+02  0.00000000000E+00 0. -1.
         11    1    3    3    0    0 -0.85634896003E+01 -0.36721188412E+01 -0.18390764744E+02  0.20616450690E+02  0.51100000000E-03 0. -1.
        -11    1    3    3    0    0 -0.91093579197E-01 -0.16646881796E+02 -0.16487290641E+02  0.23429846873E+02  0.51100000000E-03 0.  1.
         12    1    3    3    0    0 -0.42752442018E+01  0.48537835228E+01 -0.43216676432E+00  0.64825685946E+01  0.00000000000E+00 0. -1.
</event>
<event>
 7    1  0.8697654E-014  0.5052886E+02  0.7816164E-02  0.1300439E+00
        -11   -1    0    0    0    0  0.00000000000E+00  0.00000000000E+00  0.45593999997E+02  0.45594000000E+02  0.51100000000E-03 0. -1.
         11   -1    0    0    0    0 -0.00000000000E+00 -0.00000000000E+00 -0.45593999997E+02  0.45594000000E+02  0.51100000000E-03 0.  1.
    9900012    2    1    2    0    0  0.36065049250E+02  0.16047876821E+02  0.97438963748E+01  0.50528860259E+02  0.30000001244E+02 0.  0.
        -12    1    1    2    0    0 -0.36065049250E+02 -0.16047876821E+02 -0.97438963748E+01  0.40659139741E+02  0.00000000000E+00 0.  1.
         11    1    3    3    0    0  0.11156125404E+02  0.45261659515E+01  0.92482773291E+01  0.15181434256E+02  0.51100000000E-03 0. -1.
        -11    1    3    3    0    0  0.20468048805E+02 -0.13034101710E+01  0.48846853228E+01  0.21083169850E+02  0.51100000000E-03 0.  1.
        -12    1    3    3    0    0  0.44408750420E+01  0.12825121040E+02 -0.43890662772E+01  0.14264256154E+02  0.00000000000E+00 0.  1.
</event>
<event>
 7    1  0.8697654E-014  0.5052886E+02  0.7816164E-02  0.1300439E+00
        -11   -1    0    0    0    0  0.00000000000E+00  0.00000000000E+00  0.45593999997E+02  0.45594000000E+02  0.51100000000E-03 0. -1.
         11   -1    0    0    0    0 -0.00000000000E+00 -0.00000000000E+00 -0.45593999997E+02  0.45594000000E+02  0.51100000000E-03 0.  1.
    9900012    2    1    2    0    0 -0.31006747720E+02 -0.25362722338E+02 -0.69627021630E+01  0.50528864373E+02  0.30000013747E+02 0.  0.
         12    1    1    2    0    0  0.31006747720E+02  0.25362722338E+02  0.69627021630E+01  0.40659135627E+02  0.00000000000E+00 0. -1.
         11    1    3    3    0    0 -0.19423647644E+01 -0.50531648577E+01 -0.24188863244E-01  0.54136717041E+01  0.51100000000E-03 0. -1.
        -11    1    3    3    0    0 -0.27546051119E+02 -0.77488649743E+01  0.33462633443E+01  0.28810194710E+02  0.51100000000E-03 0.  1.
        -12    1    3    3    0    0 -0.15183318368E+01 -0.12560692506E+02 -0.10284776644E+02  0.16304997958E+02  0.00000000000E+00 0.  1.
</event>
<event>
 7    1  0.2123980E-013  0.5052887E+02  0.7816164E-02  0.1300439E+00
        -11   -1    0    0    0    0  0.00000000000E+00  0.00000000000E+00  0.45593999997E+02  0.45594000000E+02  0.51100000000E-03 0. -1.
         11   -1    0    0    0    0 -0.00000000000E+00 -0.00000000000E+00 -0.45593999997E+02  0.45594000000E+02  0.51100000000E-03 0.  1.
    9900012    2    1    2    0    0 -0.47002586150E+01 -0.32523248473E+02 -0.23943902644E+02  0.50528873151E+02  0.30000040431E+02 0.  0.
         12    1    1    2    0    0  0.47002586150E+01  0.32523248473E+02  0.23943902644E+02  0.40659126849E+02  0.00000000000E+00 0. -1.
         11    1    3    3    0    0  0.78341224035E+00 -0.17443115889E+01 -0.11735623012E+02  0.11890382895E+02  0.51100000000E-03 0. -1.
        -11    1    3    3    0    0 -0.63828494668E+00 -0.20377133360E+02 -0.16661734054E+02  0.26329609826E+02  0.51100000000E-03 0.  1.
         12    1    3    3    0    0 -0.48453859087E+01 -0.10401803524E+02  0.44534544220E+01  0.12308880430E+02  0.00000000000E+00 0. -1.
</event>
<event>
 7    1  0.8697654E-014  0.5052886E+02  0.7816164E-02  0.1300439E+00
        -11   -1    0    0    0    0  0.00000000000E+00  0.00000000000E+00  0.45593999997E+02  0.45594000000E+02  0.51100000000E-03 0.  1.
         11   -1    0    0    0    0 -0.00000000000E+00 -0.00000000000E+00 -0.45593999997E+02  0.45594000000E+02  0.51100000000E-03 0. -1.
    9900012    2    1    2    0    0  0.40454734829E+02 -0.23415759980E+01 -0.33312155771E+01  0.50528861476E+02  0.30000004944E+02 0.  0.
        -12    1    1    2    0    0 -0.40454734829E+02  0.23415759980E+01  0.33312155771E+01  0.40659138524E+02  0.00000000000E+00 0.  1.
         11    1    3    3    0    0  0.10344453872E+02 -0.71752410419E+01  0.32031555022E+01  0.12990458628E+02  0.51100000000E-03 0.  1.
        -11    1    3    3    0    0  0.31605061797E+02  0.80659448192E+01 -0.34008681181E+01  0.32794897487E+02  0.51100000000E-03 0. -1.
         12    1    3    3    0    0 -0.14947808397E+01 -0.32322797752E+01 -0.31335029612E+01  0.47435053612E+01  0.00000000000E+00 0. -1.
</event>
<event>
 7    1  0.8697654E-014  0.5052886E+02  0.7816164E-02  0.1300439E+00
        -11   -1    0    0    0    0  0.00000000000E+00  0.00000000000E+00  0.45593999997E+02  0.45594000000E+02  0.51100000000E-03 0. -1.
         11   -1    0    0    0    0 -0.00000000000E+00 -0.00000000000E+00 -0.45593999997E+02  0.45594000000E+02  0.51100000000E-03 0.  1.
    9900012    2    1    2    0    0  0.27672959607E+02  0.28897676178E+02  0.72316952008E+01  0.50528858379E+02  0.29999995529E+02 0.  0.
        -12    1    1    2    0    0 -0.27672959607E+02 -0.28897676178E+02 -0.72316952008E+01  0.40659141621E+02  0.00000000000E+00 0.  1.
         11    1    3    3    0    0  0.18628258472E+02  0.11947904345E+01  0.52087316786E+01  0.19379639414E+02  0.51100000000E-03 0. -1.
        -11    1    3    3    0    0 -0.33196400035E+00 -0.91242794690E+00  0.49718864980E-01  0.97221246775E+00  0.51100000000E-03 0.  1.
         12    1    3    3    0    0  0.93766651355E+01  0.28615313690E+02  0.19732446572E+01  0.30177006497E+02  0.00000000000E+00 0. -1.
</event>
<event>
 7    1  0.8697654E-014  0.5052883E+02  0.7816164E-02  0.1300439E+00
        -11   -1    0    0    0    0  0.00000000000E+00  0.00000000000E+00  0.45593999997E+02  0.45594000000E+02  0.51100000000E-03 0. -1.
         11   -1    0    0    0    0 -0.00000000000E+00 -0.00000000000E+00 -0.45593999997E+02  0.45594000000E+02  0.51100000000E-03 0.  1.
    9900012    2    1    2    0    0  0.43570599027E+01  0.65967835473E+01  0.39883156758E+02  0.50528834771E+02  0.29999923769E+02 0.  0.
        -12    1    1    2    0    0 -0.43570599027E+01 -0.65967835473E+01 -0.39883156758E+02  0.40659165229E+02  0.00000000000E+00 0.  1.
         11    1    3    3    0    0 -0.50207380360E+01  0.69949607789E+01  0.55232912133E+01  0.10229566599E+02  0.51100000000E-03 0. -1.
        -11    1    3    3    0    0 -0.51119964040E+01 -0.34082565241E+01  0.82429119857E+01  0.10280774194E+02  0.51100000000E-03 0.  1.
        -12    1    3    3    0    0  0.14489794343E+02  0.30100792925E+01  0.26116953559E+02  0.30018493977E+02  0.00000000000E+00 0.  1.
</event>
<event>
 7    1  0.8697654E-014  0.5052886E+02  0.7816164E-02  0.1300439E+00
        -11   -1    0    0    0    0  0.00000000000E+00  0.00000000000E+00  0.45593999997E+02  0.45594000000E+02  0.51100000000E-03 0. -1.
         11   -1    0    0    0    0 -0.00000000000E+00 -0.00000000000E+00 -0.45593999997E+02  0.45594000000E+02  0.51100000000E-03 0.  1.
    9900012    2    1    2    0    0  0.74962416823E+01  0.38094322087E+02 -0.12074529691E+02  0.50528864718E+02  0.30000014797E+02 0.  0.
         12    1    1    2    0    0 -0.74962416823E+01 -0.38094322087E+02  0.12074529691E+02  0.40659135282E+02  0.00000000000E+00 0. -1.
         11    1    3    3    0    0  0.30137671238E+01  0.13663465342E+02  0.18537253291E+01  0.14114155138E+02  0.51100000000E-03 0. -1.
        -11    1    3    3    0    0 -0.87695342564E+01  0.96944684369E+01 -0.18421563284E+01  0.13201552543E+02  0.51100000000E-03 0.  1.
         12    1    3    3    0    0  0.13252008815E+02  0.14736388308E+02 -0.12086098692E+02  0.23213157036E+02  0.00000000000E+00 0. -1.
</event>
<event>
 7    1  0.1633376E-013  0.5052886E+02  0.7816164E-02  0.1300439E+00
        -11   -1    0    0    0    0  0.00000000000E+00  0.00000000000E+00  0.45593999997E+02  0.45594000000E+02  0.51100000000E-03 0. -1.
         11   -1    0    0    0    0 -0.00000000000E+00 -0.00000000000E+00 -0.45593999997E+02  0.45594000000E+02  0.51100000000E-03 0.  1.
    9900012    2    1    2    0    0  0.22536200308E+01 -0.88412277330E+01 -0.39622206219E+02  0.50528864043E+02  0.30000012746E+02 0.  0.
         12    1    1    2    0    0 -0.22536200308E+01  0.88412277330E+01  0.39622206219E+02  0.40659135957E+02  0.00000000000E+00 0. -1.
         11    1    3    3    0    0 -0.37576281292E+01 -0.36975555891E+01 -0.19017378428E+02  0.19734547601E+02  0.51100000000E-03 0.  1.
        -11    1    3    3    0    0  0.51707232691E+01 -0.11460804835E+02 -0.20926706957E+02  0.24413387535E+02  0.51100000000E-03 0. -1.
         12    1    3    3    0    0  0.84052489095E+00  0.63171326911E+01  0.32187916530E+00  0.63809289078E+01  0.00000000000E+00 0. -1.
</event>
<event>
 7    1  0.8697654E-014  0.5052886E+02  0.7816164E-02  0.1300439E+00
        -11   -1    0    0    0    0  0.00000000000E+00  0.00000000000E+00  0.45593999997E+02  0.45594000000E+02  0.51100000000E-03 0. -1.
         11   -1    0    0    0    0 -0.00000000000E+00 -0.00000000000E+00 -0.45593999997E+02  0.45594000000E+02  0.51100000000E-03 0.  1.
    9900012    2    1    2    0    0  0.28477894866E+02  0.34486087934E+01  0.28814622239E+02  0.50528857690E+02  0.29999993435E+02 0.  0.
        -12    1    1    2    0    0 -0.28477894866E+02 -0.34486087934E+01 -0.28814622239E+02  0.40659142310E+02  0.00000000000E+00 0.  1.
         11    1    3    3    0    0 -0.21477622059E+01  0.39703074074E+01  0.41884876491E+01  0.61578935075E+01  0.51100000000E-03 0. -1.
        -11    1    3    3    0    0  0.38007843415E+01 -0.23623974031E+01 -0.33336658277E+01  0.55803414961E+01  0.51100000000E-03 0.  1.
         12    1    3    3    0    0  0.26824872730E+02  0.18406987892E+01  0.27959800417E+02  0.38790622687E+02  0.00000000000E+00 0. -1.
</event>
<event>
 7    1  0.8697654E-014  0.5052886E+02  0.7816164E-02  0.1300439E+00
        -11   -1    0    0    0    0  0.00000000000E+00  0.00000000000E+00  0.45593999997E+02  0.45594000000E+02  0.51100000000E-03 0. -1.
         11   -1    0    0    0    0 -0.00000000000E+00 -0.00000000000E+00 -0.45593999997E+02  0.45594000000E+02  0.51100000000E-03 0.  1.
    9900012    2    1    2    0    0  0.17605161968E+01 -0.31920573086E+02  0.25122559634E+02  0.50528863192E+02  0.30000010158E+02 0.  0.
        -12    1    1    2    0    0 -0.17605161968E+01  0.31920573086E+02 -0.25122559634E+02  0.40659136808E+02  0.00000000000E+00 0.  1.
         11    1    3    3    0    0  0.79304071024E+01 -0.13051457674E+02  0.95156035730E+00  0.15301548013E+02  0.51100000000E-03 0.  1.
        -11    1    3    3    0    0 -0.41248440592E+01 -0.16687017812E+02  0.83205155445E+01  0.19097169454E+02  0.51100000000E-03 0. -1.
        -12    1    3    3    0    0 -0.20450468464E+01 -0.21820975997E+01  0.15850483733E+02  0.16130145725E+02  0.00000000000E+00 0.  1.
</event>
<event>
 7    1  0.8697654E-014  0.5052886E+02  0.7816164E-02  0.1300439E+00
        -11   -1    0    0    0    0  0.00000000000E+00  0.00000000000E+00  0.45593999997E+02  0.45594000000E+02  0.51100000000E-03 0. -1.
         11   -1    0    0    0    0 -0.00000000000E+00 -0.00000000000E+00 -0.45593999997E+02  0.45594000000E+02  0.51100000000E-03 0.  1.
    9900012    2    1    2    0    0  0.26670404451E+02 -0.14497969862E+02 -0.27049291434E+02  0.50528858705E+02  0.29999996521E+02 0.  0.
         12    1    1    2    0    0 -0.26670404451E+02  0.14497969862E+02  0.27049291434E+02  0.40659141295E+02  0.00000000000E+00 0. -1.
         11    1    3    3    0    0  0.72891436172E+01 -0.72575096590E+01 -0.19700274331E+02  0.22223948122E+02  0.51100000000E-03 0. -1.
        -11    1    3    3    0    0  0.37629157612E+00  0.40292606234E+01 -0.44589973716E+01  0.60215607896E+01  0.51100000000E-03 0.  1.
         12    1    3    3    0    0  0.19004969258E+02 -0.11269720826E+02 -0.28900197312E+01  0.22283349794E+02  0.00000000000E+00 0. -1.
</event>
<event>
 7    1  0.8697654E-014  0.5052891E+02  0.7816164E-02  0.1300439E+00
        -11   -1    0    0    0    0  0.00000000000E+00  0.00000000000E+00  0.45593999997E+02  0.45594000000E+02  0.51100000000E-03 0. -1.
         11   -1    0    0    0    0 -0.00000000000E+00 -0.00000000000E+00 -0.45593999997E+02  0.45594000000E+02  0.51100000000E-03 0.  1.
    9900012    2    1    2    0    0  0.20280128999E+02 -0.41775307797E+01  0.34991805796E+02  0.50528906694E+02  0.30000142386E+02 0.  0.
        -12    1    1    2    0    0 -0.20280128999E+02  0.41775307797E+01 -0.34991805796E+02  0.40659093306E+02  0.00000000000E+00 0.  1.
         11    1    3    3    0    0  0.14964835537E+02 -0.64027573974E+01  0.30298581308E+02  0.34393976718E+02  0.51100000000E-03 0. -1.
        -11    1    3    3    0    0  0.94880203392E+01  0.16306605580E+01  0.64292213194E+01  0.11576548313E+02  0.51100000000E-03 0.  1.
         12    1    3    3    0    0 -0.41727268767E+01  0.59456605958E+00 -0.17359968314E+01  0.45583816630E+01  0.00000000000E+00 0. -1.
</event>
<event>
 7    1  0.8697654E-014  0.5052883E+02  0.7816164E-02  0.1300439E+00
        -11   -1    0    0    0    0  0.00000000000E+00  0.00000000000E+00  0.45593999997E+02  0.45594000000E+02  0.51100000000E-03 0. -1.
         11   -1    0    0    0    0 -0.00000000000E+00 -0.00000000000E+00 -0.45593999997E+02  0.45594000000E+02  0.51100000000E-03 0.  1.
    9900012    2    1    2    0    0  0.11518063457E+02 -0.38769523039E+02  0.41744585785E+01  0.50528833666E+02  0.29999920413E+02 0.  0.
        -12    1    1    2    0    0 -0.11518063457E+02  0.38769523039E+02 -0.41744585785E+01  0.40659166334E+02  0.00000000000E+00 0.  1.
         11    1    3    3    0    0  0.30601660605E+01 -0.95530550794E+01  0.91965331294E-01  0.10031646702E+02  0.51100000000E-03 0. -1.
        -11    1    3    3    0    0  0.31765230805E+01 -0.25855182386E+02 -0.76923355505E+01  0.27161604915E+02  0.51100000000E-03 0.  1.
        -12    1    3    3    0    0  0.52813743164E+01 -0.33612855742E+01  0.11774828798E+02  0.13335582049E+02  0.00000000000E+00 0.  1.
</event>
<event>
 7    1  0.8697654E-014  0.5052887E+02  0.7816164E-02  0.1300439E+00
        -11   -1    0    0    0    0  0.00000000000E+00  0.00000000000E+00  0.45593999997E+02  0.45594000000E+02  0.51100000000E-03 0.  1.
         11   -1    0    0    0    0 -0.00000000000E+00 -0.00000000000E+00 -0.45593999997E+02  0.45594000000E+02  0.51100000000E-03 0. -1.
    9900012    2    1    2    0    0  0.65918620432E+01 -0.39888868953E+02  0.43116900452E+01  0.50528865939E+02  0.30000018509E+02 0.  0.
        -12    1    1    2    0    0 -0.65918620432E+01  0.39888868953E+02 -0.43116900452E+01  0.40659134061E+02  0.00000000000E+00 0.  1.
         11    1    3    3    0    0  0.12565033157E+02 -0.22655143472E+02  0.49317532517E+01  0.26371533409E+02  0.51100000000E-03 0.  1.
        -11    1    3    3    0    0  0.39674504796E+00 -0.69385721845E+01  0.69905411958E+01  0.98574264930E+01  0.51100000000E-03 0. -1.
         12    1    3    3    0    0 -0.63699161614E+01 -0.10295153296E+02 -0.76106044023E+01  0.14299906037E+02  0.00000000000E+00 0. -1.
</event>
<event>
 7    1  0.8697654E-014  0.5052886E+02  0.7816164E-02  0.1300439E+00
        -11   -1    0    0    0    0  0.00000000000E+00  0.00000000000E+00  0.45593999997E+02  0.45594000000E+02  0.51100000000E-03 0. -1.
         11   -1    0    0    0    0 -0.00000000000E+00 -0.00000000000E+00 -0.45593999997E+02  0.45594000000E+02  0.51100000000E-03 0.  1.
    9900012    2    1    2    0    0  0.16439467035E+02 -0.61507636462E+01 -0.36675303204E+02  0.50528857917E+02  0.29999994124E+02 0.  0.
         12    1    1    2    0    0 -0.16439467035E+02  0.61507636462E+01  0.36675303204E+02  0.40659142083E+02  0.00000000000E+00 0. -1.
         11    1    3    3    0    0 -0.12299948884E+01  0.16966183049E+01 -0.81133261370E+00  0.22471452933E+01  0.51100000000E-03 0. -1.
        -11    1    3    3    0    0  0.12910018088E+01 -0.11492934793E+02 -0.26849240202E+02  0.29234157000E+02  0.51100000000E-03 0.  1.
        -12    1    3    3    0    0  0.16378460115E+02  0.36455528416E+01 -0.90147303883E+01  0.19047555623E+02  0.00000000000E+00 0.  1.
</event>
<event>
 7    1  0.8697654E-014  0.5052886E+02  0.7816164E-02  0.1300439E+00
        -11   -1    0    0    0    0  0.00000000000E+00  0.00000000000E+00  0.45593999997E+02  0.45594000000E+02  0.51100000000E-03 0. -1.
         11   -1    0    0    0    0 -0.00000000000E+00 -0.00000000000E+00 -0.45593999997E+02  0.45594000000E+02  0.51100000000E-03 0.  1.
    9900012    2    1    2    0    0  0.70374972568E+01 -0.20782949837E+02 -0.34230228152E+02  0.50528857228E+02  0.29999992031E+02 0.  0.
         12    1    1    2    0    0 -0.70374972568E+01  0.20782949837E+02  0.34230228152E+02  0.40659142772E+02  0.00000000000E+00 0. -1.
         11    1    3    3    0    0 -0.99524283936E+01 -0.14997949701E+02 -0.18913182085E+02  0.26109342829E+02  0.51100000000E-03 0.  1.
        -11    1    3    3    0    0  0.64952457796E+01 -0.52793672284E+01 -0.53278154759E+01  0.99219732955E+01  0.51100000000E-03 0. -1.
        -12    1    3    3    0    0  0.10494679871E+02 -0.50563290779E+00 -0.99892305918E+01  0.14497541103E+02  0.00000000000E+00 0.  1.
</event>
<event>
 7    1  0.8697654E-014  0.5052886E+02  0.7816164E-02  0.1300439E+00
        -11   -1    0    0    0    0  0.00000000000E+00  0.00000000000E+00  0.45593999997E+02  0.45594000000E+02  0.51100000000E-03 0. -1.
         11   -1    0    0    0    0 -0.00000000000E+00 -0.00000000000E+00 -0.45593999997E+02  0.45594000000E+02  0.51100000000E-03 0.  1.
    9900012    2    1    2    0    0  0.24115354343E+01  0.11310462120E+02 -0.38979783534E+02  0.50528861041E+02  0.30000003620E+02 0.  0.
         12    1    1    2    0    0 -0.24115354343E+01 -0.11310462120E+02  0.38979783534E+02  0.40659138959E+02  0.00000000000E+00 0. -1.
         11    1    3    3    0    0  0.57648484969E+01  0.13027610526E+02 -0.25913401417E+02  0.29571210450E+02  0.51100000000E-03 0. -1.
        -11    1    3    3    0    0  0.13554625936E+00 -0.44682966087E+01 -0.15331893834E+02  0.15970316721E+02  0.51100000000E-03 0.  1.
        -12    1    3    3    0    0 -0.34888593219E+01  0.27511482020E+01  0.22655117160E+01  0.49873338702E+01  0.00000000000E+00 0.  1.
</event>
<event>
 7    1  0.8697654E-014  0.5052887E+02  0.7816164E-02  0.1300439E+00
        -11   -1    0    0    0    0  0.00000000000E+00  0.00000000000E+00  0.45593999997E+02  0.45594000000E+02  0.51100000000E-03 0. -1.
         11   -1    0    0    0    0 -0.00000000000E+00 -0.00000000000E+00 -0.45593999997E+02  0.45594000000E+02  0.51100000000E-03 0.  1.
    9900012    2    1    2    0    0  0.30186335032E+02 -0.18204454984E+02 -0.20261977936E+02  0.50528871212E+02  0.30000034534E+02 0.  0.
         12    1    1    2    0    0 -0.30186335032E+02  0.18204454984E+02  0.20261977936E+02  0.40659128788E+02  0.00000000000E+00 0. -1.
         11    1    3    3    0    0  0.87178271356E+01 -0.50697616234E+01  0.18527055210E+01  0.10253560888E+02  0.51100000000E-03 0. -1.
        -11    1    3    3    0    0  0.22731430190E+02 -0.15995518402E+02 -0.13088361360E+02  0.30722625714E+02  0.51100000000E-03 0.  1.
         12    1    3    3    0    0 -0.12629222934E+01  0.28608250409E+01 -0.90263220972E+01  0.95526846089E+01  0.00000000000E+00 0. -1.
</event>
<event>
 7    1  0.8697654E-014  0.5052887E+02  0.7816164E-02  0.1300439E+00
        -11   -1    0    0    0    0  0.00000000000E+00  0.00000000000E+00  0.45593999997E+02  0.45594000000E+02  0.51100000000E-03 0. -1.
         11   -1    0    0    0    0 -0.00000000000E+00 -0.00000000000E+00 -0.45593999997E+02  0.45594000000E+02  0.51100000000E-03 0.  1.
    9900012    2    1    2    0    0 -0.11550650539E+02 -0.26298672151E+02 -0.28777196362E+02  0.50528871686E+02  0.30000035978E+02 0.  0.
         12    1    1    2    0    0  0.11550650539E+02  0.26298672151E+02  0.28777196362E+02  0.40659128314E+02  0.00000000000E+00 0. -1.
         11    1    3    3    0    0  0.26937299293E+01 -0.13383848623E+02 -0.17722767820E+02  0.22371412212E+02  0.51100000000E-03 0. -1.
        -11    1    3    3    0    0 -0.78356044666E+01 -0.10599038823E+02 -0.15248613226E+02  0.20155806283E+02  0.51100000000E-03 0.  1.
         12    1    3    3    0    0 -0.64087760014E+01 -0.23157847049E+01  0.41941846840E+01  0.80016531916E+01  0.00000000000E+00 0. -1.
</event>
<event>
 7    1  0.8697654E-014  0.5052886E+02  0.7816164E-02  0.1300439E+00
        -11   -1    0    0    0    0  0.00000000000E+00  0.00000000000E+00  0.45593999997E+02  0.45594000000E+02  0.51100000000E-03 0. -1.
         11   -1    0    0    0    0 -0.00000000000E+00 -0.00000000000E+00 -0.45593999997E+02  0.45594000000E+02  0.51100000000E-03 0.  1.
    9900012    2    1    2    0    0  0.25643396513E+02  0.29727843908E+02  0.10575327835E+02  0.50528855310E+02  0.29999986199E+02 0.  0.
        -12    1    1    2    0    0 -0.25643396513E+02 -0.29727843908E+02 -0.10575327835E+02  0.40659144690E+02  0.00000000000E+00 0.  1.
         11    1    3    3    0    0  0.39842229885E+01  0.12052317451E+02 -0.47494591963E+00  0.12702675413E+02  0.51100000000E-03 0. -1.
        -11    1    3    3    0    0  0.17297734628E+02 -0.10933546035E+00  0.20409727590E+01  0.17418069570E+02  0.51100000000E-03 0.  1.
         12    1    3    3    0    0  0.43614388972E+01  0.17784861917E+02  0.90093009952E+01  0.20408110326E+02  0.00000000000E+00 0. -1.
</event>
<event>
 7    1  0.8697654E-014  0.5052884E+02  0.7816164E-02  0.1300439E+00
        -11   -1    0    0    0    0  0.00000000000E+00  0.00000000000E+00  0.45593999997E+02  0.45594000000E+02  0.51100000000E-03 0. -1.
         11   -1    0    0    0    0 -0.00000000000E+00 -0.00000000000E+00 -0.45593999997E+02  0.45594000000E+02  0.51100000000E-03 0.  1.
    9900012    2    1    2    0    0 -0.16181912880E+02  0.89357322770E+01 -0.36214159098E+02  0.50528844390E+02  0.29999953006E+02 0.  0.
         12    1    1    2    0    0  0.16181912880E+02 -0.89357322770E+01  0.36214159098E+02  0.40659155610E+02  0.00000000000E+00 0. -1.
         11    1    3    3    0    0 -0.65428215581E+01 -0.68869734223E+01 -0.38820031870E+01  0.10262010810E+02  0.51100000000E-03 0. -1.
        -11    1    3    3    0    0 -0.60199041612E+01  0.36655392170E+01 -0.24185592747E+02  0.25191631956E+02  0.51100000000E-03 0.  1.
         12    1    3    3    0    0 -0.36191871603E+01  0.12157166482E+02 -0.81465631645E+01  0.15075201623E+02  0.00000000000E+00 0. -1.
</event>
<event>
 7    1  0.8697654E-014  0.5052890E+02  0.7816164E-02  0.1300439E+00
        -11   -1    0    0    0    0  0.00000000000E+00  0.00000000000E+00  0.45593999997E+02  0.45594000000E+02  0.51100000000E-03 0. -1.
         11   -1    0    0    0    0 -0.00000000000E+00 -0.00000000000E+00 -0.45593999997E+02  0.45594000000E+02  0.51100000000E-03 0.  1.
    9900012    2    1    2    0    0  0.19899908691E+02  0.23197428794E+02 -0.26814831669E+02  0.50528901805E+02  0.30000127528E+02 0.  0.
         12    1    1    2    0    0 -0.19899908691E+02 -0.23197428794E+02  0.26814831669E+02  0.40659098195E+02  0.00000000000E+00 0. -1.
         11    1    3    3    0    0  0.48278186646E+01  0.16407710017E+02 -0.15710833722E+02  0.23223933292E+02  0.51100000000E-03 0. -1.
        -11    1    3    3    0    0  0.14510066794E+02  0.12519912823E+02 -0.80424250908E+01  0.20783908609E+02  0.51100000000E-03 0.  1.
         12    1    3    3    0    0  0.56202323200E+00 -0.57301940461E+01 -0.30615728558E+01  0.65210599039E+01  0.00000000000E+00 0. -1.
</event>
<event>
 7    1  0.8697654E-014  0.5052886E+02  0.7816164E-02  0.1300439E+00
        -11   -1    0    0    0    0  0.00000000000E+00  0.00000000000E+00  0.45593999997E+02  0.45594000000E+02  0.51100000000E-03 0. -1.
         11   -1    0    0    0    0 -0.00000000000E+00 -0.00000000000E+00 -0.45593999997E+02  0.45594000000E+02  0.51100000000E-03 0.  1.
    9900012    2    1    2    0    0  0.27172682383E+02 -0.13059153715E+01  0.30217637501E+02  0.50528859589E+02  0.29999999206E+02 0.  0.
        -12    1    1    2    0    0 -0.27172682383E+02  0.13059153715E+01 -0.30217637501E+02  0.40659140411E+02  0.00000000000E+00 0.  1.
         11    1    3    3    0    0  0.16843859183E+02 -0.80402995065E+01  0.17075528745E+02  0.25296950222E+02  0.51100000000E-03 0. -1.
        -11    1    3    3    0    0  0.93868699660E+00 -0.18657578290E+01  0.12294261375E+02  0.12470406913E+02  0.51100000000E-03 0.  1.
        -12    1    3    3    0    0  0.93901362036E+01  0.86001419640E+01  0.84784738094E+00  0.12761502455E+02  0.00000000000E+00 0.  1.
</event>
<event>
 7    1  0.8697654E-014  0.5052886E+02  0.7816164E-02  0.1300439E+00
        -11   -1    0    0    0    0  0.00000000000E+00  0.00000000000E+00  0.45593999997E+02  0.45594000000E+02  0.51100000000E-03 0. -1.
         11   -1    0    0    0    0 -0.00000000000E+00 -0.00000000000E+00 -0.45593999997E+02  0.45594000000E+02  0.51100000000E-03 0.  1.
    9900012    2    1    2    0    0 -0.15653609431E+02 -0.70305091871E+01  0.36860575424E+02  0.50528861196E+02  0.30000004092E+02 0.  0.
        -12    1    1    2    0    0  0.15653609431E+02  0.70305091871E+01 -0.36860575424E+02  0.40659138804E+02  0.00000000000E+00 0.  1.
         11    1    3    3    0    0 -0.10449138795E+02 -0.33348954198E+01  0.97510808454E+01  0.14676157771E+02  0.51100000000E-03 0. -1.
        -11    1    3    3    0    0 -0.29258106227E+01 -0.94581819162E+01  0.27901154417E+02  0.29605607425E+02  0.51100000000E-03 0.  1.
        -12    1    3    3    0    0 -0.22786600135E+01  0.57625681489E+01 -0.79165983787E+00  0.62470959995E+01  0.00000000000E+00 0.  1.
</event>
<event>
 7    1  0.8697654E-014  0.5052886E+02  0.7816164E-02  0.1300439E+00
        -11   -1    0    0    0    0  0.00000000000E+00  0.00000000000E+00  0.45593999997E+02  0.45594000000E+02  0.51100000000E-03 0. -1.
         11   -1    0    0    0    0 -0.00000000000E+00 -0.00000000000E+00 -0.45593999997E+02  0.45594000000E+02  0.51100000000E-03 0.  1.
    9900012    2    1    2    0    0  0.26634009885E+01 -0.13873302086E+02 -0.38126152415E+02  0.50528859409E+02  0.29999998660E+02 0.  0.
         12    1    1    2    0    0 -0.26634009885E+01  0.13873302086E+02  0.38126152415E+02  0.40659140591E+02  0.00000000000E+00 0. -1.
         11    1    3    3    0    0 -0.35985146508E+00 -0.10545934936E+02 -0.51111439650E+01  0.11724761389E+02  0.51100000000E-03 0. -1.
        -11    1    3    3    0    0 -0.85409694096E+01 -0.13678674427E+01 -0.14660096045E+02  0.17021681353E+02  0.51100000000E-03 0.  1.
        -12    1    3    3    0    0  0.11564221863E+02 -0.19594997075E+01 -0.18354912406E+02  0.21782416666E+02  0.00000000000E+00 0.  1.
</event>
<event>
 7    1  0.8697654E-014  0.5052885E+02  0.7816164E-02  0.1300439E+00
        -11   -1    0    0    0    0  0.00000000000E+00  0.00000000000E+00  0.45593999997E+02  0.45594000000E+02  0.51100000000E-03 0. -1.
         11   -1    0    0    0    0 -0.00000000000E+00 -0.00000000000E+00 -0.45593999997E+02  0.45594000000E+02  0.51100000000E-03 0.  1.
    9900012    2    1    2    0    0 -0.38155126661E+02 -0.12494845149E+02 -0.64212064600E+01  0.50528846809E+02  0.29999960361E+02 0.  0.
         12    1    1    2    0    0  0.38155126661E+02  0.12494845149E+02  0.64212064600E+01  0.40659153191E+02  0.00000000000E+00 0. -1.
         11    1    3    3    0    0  0.25606977193E+01 -0.39877258594E+01 -0.47367680572E+01  0.67004553746E+01  0.51100000000E-03 0.  1.
        -11    1    3    3    0    0 -0.39678173936E+01 -0.14271669215E+01  0.41921834971E+01  0.59459888182E+01  0.51100000000E-03 0. -1.
        -12    1    3    3    0    0 -0.36748006987E+02 -0.70799523681E+01 -0.58766219000E+01  0.37882402616E+02  0.00000000000E+00 0.  1.
</event>
<event>
 7    1  0.8697654E-014  0.5052887E+02  0.7816164E-02  0.1300439E+00
        -11   -1    0    0    0    0  0.00000000000E+00  0.00000000000E+00  0.45593999997E+02  0.45594000000E+02  0.51100000000E-03 0. -1.
         11   -1    0    0    0    0 -0.00000000000E+00 -0.00000000000E+00 -0.45593999997E+02  0.45594000000E+02  0.51100000000E-03 0.  1.
    9900012    2    1    2    0    0 -0.47085863091E+01 -0.64582746133E+01 -0.39865838066E+02  0.50528866454E+02  0.30000020073E+02 0.  0.
         12    1    1    2    0    0  0.47085863091E+01  0.64582746133E+01  0.39865838066E+02  0.40659133546E+02  0.00000000000E+00 0. -1.
         11    1    3    3    0    0 -0.13525020457E+02  0.17847849472E+01 -0.15936472589E+02  0.20978150408E+02  0.51100000000E-03 0. -1.
        -11    1    3    3    0    0  0.27968781152E+01 -0.58997996201E+01 -0.22130222363E+01  0.68940286065E+01  0.51100000000E-03 0.  1.
        -12    1    3    3    0    0  0.60195560331E+01 -0.23432599405E+01 -0.21716343241E+02  0.22656687439E+02  0.00000000000E+00 0.  1.
</event>
<event>
 7    1  0.8697654E-014  0.5052887E+02  0.7816164E-02  0.1300439E+00
        -11   -1    0    0    0    0  0.00000000000E+00  0.00000000000E+00  0.45593999997E+02  0.45594000000E+02  0.51100000000E-03 0. -1.
         11   -1    0    0    0    0 -0.00000000000E+00 -0.00000000000E+00 -0.45593999997E+02  0.45594000000E+02  0.51100000000E-03 0.  1.
    9900012    2    1    2    0    0 -0.19102765715E+02  0.31080142789E+02  0.17951992475E+02  0.50528868583E+02  0.30000026546E+02 0.  0.
        -12    1    1    2    0    0  0.19102765715E+02 -0.31080142789E+02 -0.17951992475E+02  0.40659131417E+02  0.00000000000E+00 0.  1.
         11    1    3    3    0    0 -0.61703915573E+01 -0.11181504879E+01  0.79882743212E+01  0.10155615165E+02  0.51100000000E-03 0. -1.
        -11    1    3    3    0    0 -0.65192458763E+01  0.23969673263E+01 -0.25801922994E+01  0.74096836452E+01  0.51100000000E-03 0.  1.
        -12    1    3    3    0    0 -0.64131282818E+01  0.29801325950E+02  0.12543910453E+02  0.32963569773E+02  0.00000000000E+00 0.  1.
</event>
<event>
 7    1  0.8697654E-014  0.5052886E+02  0.7816164E-02  0.1300439E+00
        -11   -1    0    0    0    0  0.00000000000E+00  0.00000000000E+00  0.45593999997E+02  0.45594000000E+02  0.51100000000E-03 0. -1.
         11   -1    0    0    0    0 -0.00000000000E+00 -0.00000000000E+00 -0.45593999997E+02  0.45594000000E+02  0.51100000000E-03 0.  1.
    9900012    2    1    2    0    0 -0.20350567224E+02  0.30668872492E+01  0.35065854982E+02  0.50528861183E+02  0.30000004051E+02 0.  0.
        -12    1    1    2    0    0  0.20350567224E+02 -0.30668872492E+01 -0.35065854982E+02  0.40659138817E+02  0.00000000000E+00 0.  1.
         11    1    3    3    0    0 -0.16702236397E+02  0.64216265569E+01  0.21660543275E+02  0.28095927170E+02  0.51100000000E-03 0. -1.
        -11    1    3    3    0    0 -0.66106631957E+01  0.68604305384E+00 -0.14093557019E+01  0.67939536880E+01  0.51100000000E-03 0.  1.
         12    1    3    3    0    0  0.29623323692E+01 -0.40407823616E+01  0.14814667409E+02  0.15638980324E+02  0.00000000000E+00 0. -1.
</event>
<event>
 7    1  0.8697654E-014  0.5052886E+02  0.7816164E-02  0.1300439E+00
        -11   -1    0    0    0    0  0.00000000000E+00  0.00000000000E+00  0.45593999997E+02  0.45594000000E+02  0.51100000000E-03 0. -1.
         11   -1    0    0    0    0 -0.00000000000E+00 -0.00000000000E+00 -0.45593999997E+02  0.45594000000E+02  0.51100000000E-03 0.  1.
    9900012    2    1    2    0    0 -0.96413388509E+01  0.38495395379E+01 -0.39311469734E+02  0.50528855615E+02  0.29999987127E+02 0.  0.
         12    1    1    2    0    0  0.96413388509E+01 -0.38495395379E+01  0.39311469734E+02  0.40659144385E+02  0.00000000000E+00 0. -1.
         11    1    3    3    0    0 -0.13380476323E+02  0.97130049611E+01 -0.15182146855E+02  0.22447209078E+02  0.51100000000E-03 0. -1.
        -11    1    3    3    0    0  0.94214725975E+00  0.35453675497E+01 -0.11593780433E+02  0.12160304992E+02  0.51100000000E-03 0.  1.
         12    1    3    3    0    0  0.27969902126E+01 -0.94088329728E+01 -0.12535542447E+02  0.15921341545E+02  0.00000000000E+00 0. -1.
</event>
<event>
 7    1  0.8697654E-014  0.5052886E+02  0.7816164E-02  0.1300439E+00
        -11   -1    0    0    0    0  0.00000000000E+00  0.00000000000E+00  0.45593999997E+02  0.45594000000E+02  0.51100000000E-03 0. -1.
         11   -1    0    0    0    0 -0.00000000000E+00 -0.00000000000E+00 -0.45593999997E+02  0.45594000000E+02  0.51100000000E-03 0.  1.
    9900012    2    1    2    0    0  0.72533067768E+01  0.77461779076E+01 -0.39249864692E+02  0.50528860687E+02  0.30000002543E+02 0.  0.
         12    1    1    2    0    0 -0.72533067768E+01 -0.77461779076E+01  0.39249864692E+02  0.40659139313E+02  0.00000000000E+00 0. -1.
         11    1    3    3    0    0 -0.15661458813E+01 -0.70398993126E+01 -0.29218235118E+00  0.72179197862E+01  0.51100000000E-03 0. -1.
        -11    1    3    3    0    0  0.14729136754E+01  0.37336367068E+01 -0.30857100608E+01  0.50627190910E+01  0.51100000000E-03 0.  1.
        -12    1    3    3    0    0  0.73465389827E+01  0.11052440513E+02 -0.35871972280E+02  0.38248221809E+02  0.00000000000E+00 0.  1.
</event>
<event>
 7    1  0.8697654E-014  0.5052887E+02  0.7816164E-02  0.1300439E+00
        -11   -1    0    0    0    0  0.00000000000E+00  0.00000000000E+00  0.45593999997E+02  0.45594000000E+02  0.51100000000E-03 0. -1.
         11   -1    0    0    0    0 -0.00000000000E+00 -0.00000000000E+00 -0.45593999997E+02  0.45594000000E+02  0.51100000000E-03 0.  1.
    9900012    2    1    2    0    0 -0.21141319224E+02 -0.31005712172E+02  0.15647861856E+02  0.50528866383E+02  0.30000019859E+02 0.  0.
        -12    1    1    2    0    0  0.21141319224E+02  0.31005712172E+02 -0.15647861856E+02  0.40659133617E+02  0.00000000000E+00 0.  1.
         11    1    3    3    0    0 -0.38526473872E+01  0.11632546690E+01  0.28258747537E+01  0.49174812354E+01  0.51100000000E-03 0. -1.
        -11    1    3    3    0    0  0.34640359448E-01 -0.14959288497E+02  0.14888237637E+02  0.21105476362E+02  0.51100000000E-03 0.  1.
         12    1    3    3    0    0 -0.17323312196E+02 -0.17209678344E+02 -0.20662505347E+01  0.24505908786E+02  0.00000000000E+00 0. -1.
</event>
<event>
 7    1  0.8697654E-014  0.5052886E+02  0.7816164E-02  0.1300439E+00
        -11   -1    0    0    0    0  0.00000000000E+00  0.00000000000E+00  0.45593999997E+02  0.45594000000E+02  0.51100000000E-03 0. -1.
         11   -1    0    0    0    0 -0.00000000000E+00 -0.00000000000E+00 -0.45593999997E+02  0.45594000000E+02  0.51100000000E-03 0.  1.
    9900012    2    1    2    0    0 -0.47745151401E+01  0.35772176833E+02  0.18727539595E+02  0.50528863641E+02  0.30000011523E+02 0.  0.
        -12    1    1    2    0    0  0.47745151401E+01 -0.35772176833E+02 -0.18727539595E+02  0.40659136359E+02  0.00000000000E+00 0.  1.
         11    1    3    3    0    0  0.44962641082E+01 -0.19068334164E+01  0.59947477574E+01  0.77323609296E+01  0.51100000000E-03 0. -1.
        -11    1    3    3    0    0 -0.84631092539E+00  0.64487704916E+00  0.35719865540E+01  0.37270895876E+01  0.51100000000E-03 0.  1.
         12    1    3    3    0    0 -0.84244683229E+01  0.37034133200E+02  0.91608052832E+01  0.39069413124E+02  0.00000000000E+00 0. -1.
</event>
<event>
 7    1  0.8697654E-014  0.5052882E+02  0.7816164E-02  0.1300439E+00
        -11   -1    0    0    0    0  0.00000000000E+00  0.00000000000E+00  0.45593999997E+02  0.45594000000E+02  0.51100000000E-03 0. -1.
         11   -1    0    0    0    0 -0.00000000000E+00 -0.00000000000E+00 -0.45593999997E+02  0.45594000000E+02  0.51100000000E-03 0.  1.
    9900012    2    1    2    0    0 -0.23059491007E+02 -0.23579644635E+02  0.23778754233E+02  0.50528819985E+02  0.29999878827E+02 0.  0.
        -12    1    1    2    0    0  0.23059491007E+02  0.23579644635E+02 -0.23778754233E+02  0.40659180015E+02  0.00000000000E+00 0.  1.
         11    1    3    3    0    0 -0.61639395393E+01 -0.46951269778E+01  0.10103546474E+00  0.77491016516E+01  0.51100000000E-03 0. -1.
        -11    1    3    3    0    0 -0.78640096774E+01  0.43438206935E+01  0.12676619062E+02  0.15537313073E+02  0.51100000000E-03 0.  1.
         12    1    3    3    0    0 -0.90315417905E+01 -0.23228338350E+02  0.11001099706E+02  0.27242405260E+02  0.00000000000E+00 0. -1.
</event>
<event>
 7    1  0.8697654E-014  0.5052886E+02  0.7816164E-02  0.1300439E+00
        -11   -1    0    0    0    0  0.00000000000E+00  0.00000000000E+00  0.45593999997E+02  0.45594000000E+02  0.51100000000E-03 0.  1.
         11   -1    0    0    0    0 -0.00000000000E+00 -0.00000000000E+00 -0.45593999997E+02  0.45594000000E+02  0.51100000000E-03 0. -1.
    9900012    2    1    2    0    0  0.48224594957E+01 -0.35803695024E+02 -0.18654898185E+02  0.50528856880E+02  0.29999990973E+02 0.  0.
         12    1    1    2    0    0 -0.48224594957E+01  0.35803695024E+02  0.18654898185E+02  0.40659143120E+02  0.00000000000E+00 0. -1.
         11    1    3    3    0    0  0.32065443620E+01 -0.11858158638E+02 -0.13116715641E+02  0.17970700668E+02  0.51100000000E-03 0. -1.
        -11    1    3    3    0    0  0.10764738708E+02 -0.84736229192E+01  0.16469488934E+00  0.13700693760E+02  0.51100000000E-03 0.  1.
        -12    1    3    3    0    0 -0.91488235745E+01 -0.15471913467E+02 -0.57028774334E+01  0.18857462453E+02  0.00000000000E+00 0.  1.
</event>
<event>
 7    1  0.8697654E-014  0.5052885E+02  0.7816164E-02  0.1300439E+00
        -11   -1    0    0    0    0  0.00000000000E+00  0.00000000000E+00  0.45593999997E+02  0.45594000000E+02  0.51100000000E-03 0. -1.
         11   -1    0    0    0    0 -0.00000000000E+00 -0.00000000000E+00 -0.45593999997E+02  0.45594000000E+02  0.51100000000E-03 0.  1.
    9900012    2    1    2    0    0  0.22897327287E+02  0.30197880717E+02  0.14729794260E+02  0.50528850530E+02  0.29999971671E+02 0.  0.
        -12    1    1    2    0    0 -0.22897327287E+02 -0.30197880717E+02 -0.14729794260E+02  0.40659149470E+02  0.00000000000E+00 0.  1.
         11    1    3    3    0    0  0.71714251489E+01  0.17814161616E+01 -0.42205058198E+01  0.85097268959E+01  0.51100000000E-03 0. -1.
        -11    1    3    3    0    0 -0.19356779780E+01  0.87300110157E+01 -0.84758491661E+00  0.89821123362E+01  0.51100000000E-03 0.  1.
         12    1    3    3    0    0  0.17661580116E+02  0.19686453540E+02  0.19797884996E+02  0.33037011298E+02  0.00000000000E+00 0. -1.
</event>
<event>
 7    1  0.8697654E-014  0.5052886E+02  0.7816164E-02  0.1300439E+00
        -11   -1    0    0    0    0  0.00000000000E+00  0.00000000000E+00  0.45593999997E+02  0.45594000000E+02  0.51100000000E-03 0. -1.
         11   -1    0    0    0    0 -0.00000000000E+00 -0.00000000000E+00 -0.45593999997E+02  0.45594000000E+02  0.51100000000E-03 0.  1.
    9900012    2    1    2    0    0  0.58113596167E+01  0.42803617192E+00  0.40239416074E+02  0.50528859312E+02  0.29999998364E+02 0.  0.
        -12    1    1    2    0    0 -0.58113596167E+01 -0.42803617192E+00 -0.40239416074E+02  0.40659140688E+02  0.00000000000E+00 0.  1.
         11    1    3    3    0    0 -0.37349613290E+01  0.98632960151E+01  0.22776358639E+02  0.25099742180E+02  0.51100000000E-03 0. -1.
        -11    1    3    3    0    0 -0.54866765014E+00 -0.27418181040E+01  0.11674288192E+02  0.12004482820E+02  0.51100000000E-03 0.  1.
        -12    1    3    3    0    0  0.10094988596E+02 -0.66934417392E+01  0.57887692426E+01  0.13424634312E+02  0.00000000000E+00 0.  1.
</event>
<event>
 7    1  0.8697654E-014  0.5052886E+02  0.7816164E-02  0.1300439E+00
        -11   -1    0    0    0    0  0.00000000000E+00  0.00000000000E+00  0.45593999997E+02  0.45594000000E+02  0.51100000000E-03 0. -1.
         11   -1    0    0    0    0 -0.00000000000E+00 -0.00000000000E+00 -0.45593999997E+02  0.45594000000E+02  0.51100000000E-03 0.  1.
    9900012    2    1    2    0    0  0.49661566384E+01 -0.26678573223E+01  0.40266432857E+02  0.50528858476E+02  0.29999995823E+02 0.  0.
        -12    1    1    2    0    0 -0.49661566384E+01  0.26678573223E+01 -0.40266432857E+02  0.40659141524E+02  0.00000000000E+00 0.  1.
         11    1    3    3    0    0  0.45466457874E+01  0.54338502368E+01  0.15099330439E+02  0.16678983671E+02  0.51100000000E-03 0. -1.
        -11    1    3    3    0    0  0.81848254182E+01 -0.11536858392E+02  0.15825283666E+02  0.21225693677E+02  0.51100000000E-03 0.  1.
         12    1    3    3    0    0 -0.77653145673E+01  0.34351508325E+01  0.93418187514E+01  0.12624181128E+02  0.00000000000E+00 0. -1.
</event>
<event>
 7    1  0.8697654E-014  0.5052886E+02  0.7816164E-02  0.1300439E+00
        -11   -1    0    0    0    0  0.00000000000E+00  0.00000000000E+00  0.45593999997E+02  0.45594000000E+02  0.51100000000E-03 0. -1.
         11   -1    0    0    0    0 -0.00000000000E+00 -0.00000000000E+00 -0.45593999997E+02  0.45594000000E+02  0.51100000000E-03 0.  1.
    9900012    2    1    2    0    0  0.50530750676E+01  0.19542071075E+02  0.35295037040E+02  0.50528858972E+02  0.29999997331E+02 0.  0.
        -12    1    1    2    0    0 -0.50530750676E+01 -0.19542071075E+02 -0.35295037040E+02  0.40659141028E+02  0.00000000000E+00 0.  1.
         11    1    3    3    0    0 -0.47802761127E+01  0.33034026873E+01 -0.72520046536E-01  0.58110901255E+01  0.51100000000E-03 0. -1.
        -11    1    3    3    0    0  0.15688473690E+02  0.13430436665E+02  0.24345684367E+02  0.31925181022E+02  0.51100000000E-03 0.  1.
         12    1    3    3    0    0 -0.58551225094E+01  0.28082317222E+01  0.11021872719E+02  0.12792587824E+02  0.00000000000E+00 0. -1.
</event>
<event>
 7    1  0.8697654E-014  0.5052888E+02  0.7816164E-02  0.1300439E+00
        -11   -1    0    0    0    0  0.00000000000E+00  0.00000000000E+00  0.45593999997E+02  0.45594000000E+02  0.51100000000E-03 0.  1.
         11   -1    0    0    0    0 -0.00000000000E+00 -0.00000000000E+00 -0.45593999997E+02  0.45594000000E+02  0.51100000000E-03 0. -1.
    9900012    2    1    2    0    0  0.25299121400E+02 -0.15092280786E+01 -0.31793719406E+02  0.50528881629E+02  0.30000066200E+02 0.  0.
         12    1    1    2    0    0 -0.25299121400E+02  0.15092280786E+01  0.31793719406E+02  0.40659118371E+02  0.00000000000E+00 0. -1.
         11    1    3    3    0    0 -0.34495170389E+01  0.10296538255E+01  0.36035236891E+00  0.36179011723E+01  0.51100000000E-03 0. -1.
        -11    1    3    3    0    0  0.10362755692E+02 -0.97000673747E+01 -0.16183035661E+02  0.21525999537E+02  0.51100000000E-03 0.  1.
        -12    1    3    3    0    0  0.18385882747E+02  0.71611854706E+01 -0.15971036114E+02  0.25384980919E+02  0.00000000000E+00 0.  1.
</event>
<event>
 7    1  0.8697654E-014  0.5052886E+02  0.7816164E-02  0.1300439E+00
        -11   -1    0    0    0    0  0.00000000000E+00  0.00000000000E+00  0.45593999997E+02  0.45594000000E+02  0.51100000000E-03 0. -1.
         11   -1    0    0    0    0 -0.00000000000E+00 -0.00000000000E+00 -0.45593999997E+02  0.45594000000E+02  0.51100000000E-03 0.  1.
    9900012    2    1    2    0    0 -0.17268241303E+02  0.19462365038E+02 -0.31244040186E+02  0.50528857637E+02  0.29999993274E+02 0.  0.
         12    1    1    2    0    0  0.17268241303E+02 -0.19462365038E+02  0.31244040186E+02  0.40659142363E+02  0.00000000000E+00 0. -1.
         11    1    3    3    0    0  0.54107855066E+01  0.13440468810E+01 -0.70579263904E+01  0.89942974718E+01  0.51100000000E-03 0. -1.
        -11    1    3    3    0    0  0.12781836866E+01 -0.18958587738E+01 -0.47979993248E+00  0.23362881379E+01  0.51100000000E-03 0.  1.
        -12    1    3    3    0    0 -0.23957210496E+02  0.20014176931E+02 -0.23706313863E+02  0.39198272027E+02  0.00000000000E+00 0.  1.
</event>
<event>
 7    1  0.8697654E-014  0.5052886E+02  0.7816164E-02  0.1300439E+00
        -11   -1    0    0    0    0  0.00000000000E+00  0.00000000000E+00  0.45593999997E+02  0.45594000000E+02  0.51100000000E-03 0.  1.
         11   -1    0    0    0    0 -0.00000000000E+00 -0.00000000000E+00 -0.45593999997E+02  0.45594000000E+02  0.51100000000E-03 0. -1.
    9900012    2    1    2    0    0 -0.67760570879E+01  0.39178046372E+02  0.85048019919E+01  0.50528856820E+02  0.29999990790E+02 0.  0.
        -12    1    1    2    0    0  0.67760570879E+01 -0.39178046372E+02 -0.85048019919E+01  0.40659143180E+02  0.00000000000E+00 0.  1.
         11    1    3    3    0    0 -0.53931819137E+01  0.70081059308E+01 -0.59898757327E+01  0.10680757063E+02  0.51100000000E-03 0. -1.
        -11    1    3    3    0    0 -0.53841072659E+01  0.58262948381E+01  0.10098847484E+02  0.12842158828E+02  0.51100000000E-03 0.  1.
         12    1    3    3    0    0  0.40012320918E+01  0.26343645604E+02  0.43958302403E+01  0.27005940929E+02  0.00000000000E+00 0. -1.
</event>
<event>
 7    1  0.8697654E-014  0.5052886E+02  0.7816164E-02  0.1300439E+00
        -11   -1    0    0    0    0  0.00000000000E+00  0.00000000000E+00  0.45593999997E+02  0.45594000000E+02  0.51100000000E-03 0. -1.
         11   -1    0    0    0    0 -0.00000000000E+00 -0.00000000000E+00 -0.45593999997E+02  0.45594000000E+02  0.51100000000E-03 0.  1.
    9900012    2    1    2    0    0 -0.17783588260E+02 -0.23487828684E+02  0.28021985060E+02  0.50528858908E+02  0.29999997137E+02 0.  0.
        -12    1    1    2    0    0  0.17783588260E+02  0.23487828684E+02 -0.28021985060E+02  0.40659141092E+02  0.00000000000E+00 0.  1.
         11    1    3    3    0    0  0.11651599066E+01 -0.51806889726E+00  0.11757483605E+02  0.11826428622E+02  0.51100000000E-03 0. -1.
        -11    1    3    3    0    0 -0.53036366232E+01 -0.55289168462E+01 -0.40373961124E+01  0.86601414857E+01  0.51100000000E-03 0.  1.
         12    1    3    3    0    0 -0.13645111543E+02 -0.17440842940E+02  0.20301897567E+02  0.30042288800E+02  0.00000000000E+00 0. -1.
</event>
<event>
 7    1  0.8697654E-014  0.5052886E+02  0.7816164E-02  0.1300439E+00
        -11   -1    0    0    0    0  0.00000000000E+00  0.00000000000E+00  0.45593999997E+02  0.45594000000E+02  0.51100000000E-03 0. -1.
         11   -1    0    0    0    0 -0.00000000000E+00 -0.00000000000E+00 -0.45593999997E+02  0.45594000000E+02  0.51100000000E-03 0.  1.
    9900012    2    1    2    0    0 -0.32029609336E+02  0.21484952764E+02  0.12871168217E+02  0.50528855386E+02  0.29999986431E+02 0.  0.
        -12    1    1    2    0    0  0.32029609336E+02 -0.21484952764E+02 -0.12871168217E+02  0.40659144614E+02  0.00000000000E+00 0.  1.
         11    1    3    3    0    0  0.86635197171E+00 -0.37259652338E+00  0.33950131471E+01  0.35235647345E+01  0.51100000000E-03 0. -1.
        -11    1    3    3    0    0 -0.34017935530E+01  0.12634910193E+02  0.93852645103E+01  0.16102681303E+02  0.51100000000E-03 0.  1.
         12    1    3    3    0    0 -0.29494167755E+02  0.92226390936E+01  0.90890559401E-01  0.30902609348E+02  0.00000000000E+00 0. -1.
</event>
<event>
 7    1  0.8697654E-014  0.5052886E+02  0.7816164E-02  0.1300439E+00
        -11   -1    0    0    0    0  0.00000000000E+00  0.00000000000E+00  0.45593999997E+02  0.45594000000E+02  0.51100000000E-03 0. -1.
         11   -1    0    0    0    0 -0.00000000000E+00 -0.00000000000E+00 -0.45593999997E+02  0.45594000000E+02  0.51100000000E-03 0.  1.
    9900012    2    1    2    0    0 -0.77486415049E+01  0.27712145767E+02 -0.28725617906E+02  0.50528860901E+02  0.30000003196E+02 0.  0.
         12    1    1    2    0    0  0.77486415049E+01 -0.27712145767E+02  0.28725617906E+02  0.40659139099E+02  0.00000000000E+00 0. -1.
         11    1    3    3    0    0 -0.48238255187E+00 -0.37507501180E+00  0.26758851591E+01  0.27447651696E+01  0.51100000000E-03 0. -1.
        -11    1    3    3    0    0  0.73281010571E+01  0.13232770324E+02 -0.11784038300E+02  0.19174744704E+02  0.51100000000E-03 0.  1.
         12    1    3    3    0    0 -0.14594360010E+02  0.14854450455E+02 -0.19617464765E+02  0.28609351028E+02  0.00000000000E+00 0. -1.
</event>
<event>
 7    1  0.8697654E-014  0.5052887E+02  0.7816164E-02  0.1300439E+00
        -11   -1    0    0    0    0  0.00000000000E+00  0.00000000000E+00  0.45593999997E+02  0.45594000000E+02  0.51100000000E-03 0. -1.
         11   -1    0    0    0    0 -0.00000000000E+00 -0.00000000000E+00 -0.45593999997E+02  0.45594000000E+02  0.51100000000E-03 0.  1.
    9900012    2    1    2    0    0 -0.17077460593E+02  0.10562376644E+02 -0.35354797767E+02  0.50528865899E+02  0.30000018388E+02 0.  0.
         12    1    1    2    0    0  0.17077460593E+02 -0.10562376644E+02  0.35354797767E+02  0.40659134101E+02  0.00000000000E+00 0. -1.
         11    1    3    3    0    0 -0.92978231157E+01  0.13413736576E+02 -0.11434041964E+02  0.19927748481E+02  0.51100000000E-03 0. -1.
        -11    1    3    3    0    0  0.38327655625E+00  0.12678478492E+01 -0.20943354078E+02  0.20985195243E+02  0.51100000000E-03 0.  1.
        -12    1    3    3    0    0 -0.81629140334E+01 -0.41192077809E+01 -0.29774017250E+01  0.96159221758E+01  0.00000000000E+00 0.  1.
</event>
<event>
 7    1  0.8697654E-014  0.5052885E+02  0.7816164E-02  0.1300439E+00
        -11   -1    0    0    0    0  0.00000000000E+00  0.00000000000E+00  0.45593999997E+02  0.45594000000E+02  0.51100000000E-03 0. -1.
         11   -1    0    0    0    0 -0.00000000000E+00 -0.00000000000E+00 -0.45593999997E+02  0.45594000000E+02  0.51100000000E-03 0.  1.
    9900012    2    1    2    0    0  0.35494528188E+02  0.19829446951E+02 -0.31255192765E+00  0.50528853595E+02  0.29999980986E+02 0.  0.
        -12    1    1    2    0    0 -0.35494528188E+02 -0.19829446951E+02  0.31255192765E+00  0.40659146405E+02  0.00000000000E+00 0.  1.
         11    1    3    3    0    0  0.11759946451E+02  0.79103604708E+01  0.80319033721E+01  0.16290537602E+02  0.51100000000E-03 0. -1.
        -11    1    3    3    0    0  0.61552091956E+01  0.13883029855E+02 -0.14573111688E+01  0.15256109409E+02  0.51100000000E-03 0.  1.
        -12    1    3    3    0    0  0.17579372542E+02 -0.19639433741E+01 -0.68871441310E+01  0.18982206584E+02  0.00000000000E+00 0.  1.
</event>
<event>
 7    1  0.8697654E-014  0.5052886E+02  0.7816164E-02  0.1300439E+00
        -11   -1    0    0    0    0  0.00000000000E+00  0.00000000000E+00  0.45593999997E+02  0.45594000000E+02  0.51100000000E-03 0. -1.
         11   -1    0    0    0    0 -0.00000000000E+00 -0.00000000000E+00 -0.45593999997E+02  0.45594000000E+02  0.51100000000E-03 0.  1.
    9900012    2    1    2    0    0  0.10863010975E+02  0.16284025029E+02  0.35636931928E+02  0.50528863317E+02  0.30000010538E+02 0.  0.
        -12    1    1    2    0    0 -0.10863010975E+02 -0.16284025029E+02 -0.35636931928E+02  0.40659136683E+02  0.00000000000E+00 0.  1.
         11    1    3    3    0    0 -0.59096883593E+00 -0.42408413326E+00  0.10954465405E+02  0.10978588438E+02  0.51100000000E-03 0. -1.
        -11    1    3    3    0    0 -0.67388643604E+01  0.60362033813E+01  0.36251979898E+01  0.97462867213E+01  0.51100000000E-03 0.  1.
         12    1    3    3    0    0  0.18192844171E+02  0.10671905781E+02  0.21057268533E+02  0.29803988157E+02  0.00000000000E+00 0. -1.
</event>
<event>
 7    1  0.8697654E-014  0.5052886E+02  0.7816164E-02  0.1300439E+00
        -11   -1    0    0    0    0  0.00000000000E+00  0.00000000000E+00  0.45593999997E+02  0.45594000000E+02  0.51100000000E-03 0. -1.
         11   -1    0    0    0    0 -0.00000000000E+00 -0.00000000000E+00 -0.45593999997E+02  0.45594000000E+02  0.51100000000E-03 0.  1.
    9900012    2    1    2    0    0 -0.36740387562E+02 -0.17346723409E+02  0.15494197613E+01  0.50528860894E+02  0.30000003175E+02 0.  0.
        -12    1    1    2    0    0  0.36740387562E+02  0.17346723409E+02 -0.15494197613E+01  0.40659139106E+02  0.00000000000E+00 0.  1.
         11    1    3    3    0    0 -0.16365778449E+02 -0.87436824290E+01  0.52899410467E+01  0.19294407563E+02  0.51100000000E-03 0. -1.
        -11    1    3    3    0    0 -0.21994553197E+01  0.49441407506E+00  0.76225025575E+01  0.79488737869E+01  0.51100000000E-03 0.  1.
         12    1    3    3    0    0 -0.18175153794E+02 -0.90974550547E+01 -0.11363023843E+02  0.23285579545E+02  0.00000000000E+00 0. -1.
</event>
<event>
 7    1  0.8697654E-014  0.5052885E+02  0.7816164E-02  0.1300439E+00
        -11   -1    0    0    0    0  0.00000000000E+00  0.00000000000E+00  0.45593999997E+02  0.45594000000E+02  0.51100000000E-03 0.  1.
         11   -1    0    0    0    0 -0.00000000000E+00 -0.00000000000E+00 -0.45593999997E+02  0.45594000000E+02  0.51100000000E-03 0. -1.
    9900012    2    1    2    0    0  0.13145224399E+02  0.37337973565E+02  0.92868304030E+01  0.50528850804E+02  0.29999972504E+02 0.  0.
        -12    1    1    2    0    0 -0.13145224399E+02 -0.37337973565E+02 -0.92868304030E+01  0.40659149196E+02  0.00000000000E+00 0.  1.
         11    1    3    3    0    0  0.95869764823E+01  0.13076500434E+02 -0.60915800626E+01  0.17320863997E+02  0.51100000000E-03 0. -1.
        -11    1    3    3    0    0  0.82120204668E+01  0.50377336024E+01  0.44745497021E+01  0.10622506074E+02  0.51100000000E-03 0.  1.
        -12    1    3    3    0    0 -0.46537725504E+01  0.19223739528E+02  0.10903860763E+02  0.22585480733E+02  0.00000000000E+00 0.  1.
</event>
<event>
 7    1  0.8697654E-014  0.5052886E+02  0.7816164E-02  0.1300439E+00
        -11   -1    0    0    0    0  0.00000000000E+00  0.00000000000E+00  0.45593999997E+02  0.45594000000E+02  0.51100000000E-03 0. -1.
         11   -1    0    0    0    0 -0.00000000000E+00 -0.00000000000E+00 -0.45593999997E+02  0.45594000000E+02  0.51100000000E-03 0.  1.
    9900012    2    1    2    0    0 -0.33425133923E+02 -0.16477464117E+02  0.16260963918E+02  0.50528863892E+02  0.30000012285E+02 0.  0.
        -12    1    1    2    0    0  0.33425133923E+02  0.16477464117E+02 -0.16260963918E+02  0.40659136108E+02  0.00000000000E+00 0.  1.
         11    1    3    3    0    0 -0.41213102128E+00  0.26561644153E+01  0.39627829085E+01  0.47883932609E+01  0.51100000000E-03 0. -1.
        -11    1    3    3    0    0 -0.44590515302E+01 -0.10880825036E+02  0.10822328748E+02  0.15981185620E+02  0.51100000000E-03 0.  1.
         12    1    3    3    0    0 -0.28553951372E+02 -0.82528034959E+01  0.14758522622E+01  0.29759285011E+02  0.00000000000E+00 0. -1.
</event>
<event>
 7    1  0.8697654E-014  0.5052886E+02  0.7816164E-02  0.1300439E+00
        -11   -1    0    0    0    0  0.00000000000E+00  0.00000000000E+00  0.45593999997E+02  0.45594000000E+02  0.51100000000E-03 0. -1.
         11   -1    0    0    0    0 -0.00000000000E+00 -0.00000000000E+00 -0.45593999997E+02  0.45594000000E+02  0.51100000000E-03 0.  1.
    9900012    2    1    2    0    0  0.64448025108E+01  0.78548288485E+01  0.39369173952E+02  0.50528859904E+02  0.30000000165E+02 0.  0.
        -12    1    1    2    0    0 -0.64448025108E+01 -0.78548288485E+01 -0.39369173952E+02  0.40659140096E+02  0.00000000000E+00 0.  1.
         11    1    3    3    0    0 -0.25951712475E+01  0.17871456586E+01  0.22172563657E+02  0.22395342882E+02  0.51100000000E-03 0. -1.
        -11    1    3    3    0    0 -0.44386372487E+01 -0.12052349970E+01 -0.61762334273E+00  0.46406412141E+01  0.51100000000E-03 0.  1.
        -12    1    3    3    0    0  0.13478611007E+02  0.72729181869E+01  0.17814233638E+02  0.23492875808E+02  0.00000000000E+00 0.  1.
</event>
<event>
 7    1  0.8697654E-014  0.5052878E+02  0.7816164E-02  0.1300439E+00
        -11   -1    0    0    0    0  0.00000000000E+00  0.00000000000E+00  0.45593999997E+02  0.45594000000E+02  0.51100000000E-03 0. -1.
         11   -1    0    0    0    0 -0.00000000000E+00 -0.00000000000E+00 -0.45593999997E+02  0.45594000000E+02  0.51100000000E-03 0.  1.
    9900012    2    1    2    0    0  0.32420663986E+02  0.16179737328E+02 -0.18446926217E+02  0.50528776690E+02  0.29999747227E+02 0.  0.
         12    1    1    2    0    0 -0.32420663986E+02 -0.16179737328E+02  0.18446926217E+02  0.40659223310E+02  0.00000000000E+00 0. -1.
         11    1    3    3    0    0  0.98321142465E+00  0.29238354596E+01 -0.59171870435E+01  0.66729769421E+01  0.51100000000E-03 0. -1.
        -11    1    3    3    0    0  0.23176240229E+02  0.19735563026E+02 -0.13524022453E+02  0.33309604361E+02  0.51100000000E-03 0.  1.
         12    1    3    3    0    0  0.82612123317E+01 -0.64796611575E+01  0.99428327909E+00  0.10546195387E+02  0.00000000000E+00 0. -1.
</event>
<event>
 7    1  0.8697654E-014  0.5052885E+02  0.7816164E-02  0.1300439E+00
        -11   -1    0    0    0    0  0.00000000000E+00  0.00000000000E+00  0.45593999997E+02  0.45594000000E+02  0.51100000000E-03 0. -1.
         11   -1    0    0    0    0 -0.00000000000E+00 -0.00000000000E+00 -0.45593999997E+02  0.45594000000E+02  0.51100000000E-03 0.  1.
    9900012    2    1    2    0    0 -0.15760730506E+02 -0.37014315275E+02  0.58911946455E+01  0.50528851758E+02  0.29999975405E+02 0.  0.
        -12    1    1    2    0    0  0.15760730506E+02  0.37014315275E+02 -0.58911946455E+01  0.40659148242E+02  0.00000000000E+00 0.  1.
         11    1    3    3    0    0  0.35642260346E+01 -0.34410742678E+01  0.71476511966E+00  0.50055557913E+01  0.51100000000E-03 0.  1.
        -11    1    3    3    0    0 -0.14427819937E+02 -0.54846792357E+01  0.70094499323E+01  0.16952170453E+02  0.51100000000E-03 0. -1.
         12    1    3    3    0    0 -0.48971366035E+01 -0.28088561772E+02 -0.18330204064E+01  0.28571125514E+02  0.00000000000E+00 0. -1.
</event>
<event>
 7    1  0.8697654E-014  0.5052886E+02  0.7816164E-02  0.1300439E+00
        -11   -1    0    0    0    0  0.00000000000E+00  0.00000000000E+00  0.45593999997E+02  0.45594000000E+02  0.51100000000E-03 0. -1.
         11   -1    0    0    0    0 -0.00000000000E+00 -0.00000000000E+00 -0.45593999997E+02  0.45594000000E+02  0.51100000000E-03 0.  1.
    9900012    2    1    2    0    0 -0.44675988984E+00  0.31211739483E+02  0.26053667643E+02  0.50528857441E+02  0.29999992678E+02 0.  0.
        -12    1    1    2    0    0  0.44675988984E+00 -0.31211739483E+02 -0.26053667643E+02  0.40659142559E+02  0.00000000000E+00 0.  1.
         11    1    3    3    0    0 -0.10212387900E+01  0.78351898504E+01  0.17836743081E+02  0.19508524615E+02  0.51100000000E-03 0. -1.
        -11    1    3    3    0    0  0.66787006749E+01  0.20295958366E+02  0.10506020230E+02  0.23809817934E+02  0.51100000000E-03 0.  1.
        -12    1    3    3    0    0 -0.61042217747E+01  0.30805912670E+01 -0.22890956684E+01  0.72105148920E+01  0.00000000000E+00 0.  1.
</event>
<event>
 7    1  0.8697654E-014  0.5052886E+02  0.7816164E-02  0.1300439E+00
        -11   -1    0    0    0    0  0.00000000000E+00  0.00000000000E+00  0.45593999997E+02  0.45594000000E+02  0.51100000000E-03 0.  1.
         11   -1    0    0    0    0 -0.00000000000E+00 -0.00000000000E+00 -0.45593999997E+02  0.45594000000E+02  0.51100000000E-03 0. -1.
    9900012    2    1    2    0    0 -0.20730754269E+02 -0.30679538626E+01  0.34842347139E+02  0.50528859974E+02  0.30000000378E+02 0.  0.
        -12    1    1    2    0    0  0.20730754269E+02  0.30679538626E+01 -0.34842347139E+02  0.40659140026E+02  0.00000000000E+00 0.  1.
         11    1    3    3    0    0  0.39454725708E+01 -0.16573857747E+01  0.92694898323E+00  0.43786888554E+01  0.51100000000E-03 0. -1.
        -11    1    3    3    0    0 -0.21361226706E+02 -0.86517795815E+01  0.22320157855E+02  0.32083402925E+02  0.51100000000E-03 0.  1.
         12    1    3    3    0    0 -0.33150001340E+01  0.72412114936E+01  0.11595240301E+02  0.14066768194E+02  0.00000000000E+00 0. -1.
</event>
<event>
 7    1  0.8697654E-014  0.5052886E+02  0.7816164E-02  0.1300439E+00
        -11   -1    0    0    0    0  0.00000000000E+00  0.00000000000E+00  0.45593999997E+02  0.45594000000E+02  0.51100000000E-03 0. -1.
         11   -1    0    0    0    0 -0.00000000000E+00 -0.00000000000E+00 -0.45593999997E+02  0.45594000000E+02  0.51100000000E-03 0.  1.
    9900012    2    1    2    0    0 -0.30608895924E+02 -0.95329563719E+01 -0.25007681296E+02  0.50528857231E+02  0.29999992040E+02 0.  0.
         12    1    1    2    0    0  0.30608895924E+02  0.95329563719E+01  0.25007681296E+02  0.40659142769E+02  0.00000000000E+00 0. -1.
         11    1    3    3    0    0 -0.11581177397E+02 -0.57218033306E+01 -0.13566105885E+02  0.18732376582E+02  0.51100000000E-03 0. -1.
        -11    1    3    3    0    0  0.15173852086E+01 -0.20952385839E+01 -0.10868224117E+02  0.11171874432E+02  0.51100000000E-03 0.  1.
         12    1    3    3    0    0 -0.20545103735E+02 -0.17159144575E+01 -0.57335129418E+00  0.20624606218E+02  0.00000000000E+00 0. -1.
</event>
<event>
 7    1  0.8697654E-014  0.5052886E+02  0.7816164E-02  0.1300439E+00
        -11   -1    0    0    0    0  0.00000000000E+00  0.00000000000E+00  0.45593999997E+02  0.45594000000E+02  0.51100000000E-03 0. -1.
         11   -1    0    0    0    0 -0.00000000000E+00 -0.00000000000E+00 -0.45593999997E+02  0.45594000000E+02  0.51100000000E-03 0.  1.
    9900012    2    1    2    0    0  0.24212802271E+02  0.69806815477E+01 -0.31908870898E+02  0.50528858953E+02  0.29999997274E+02 0.  0.
         12    1    1    2    0    0 -0.24212802271E+02 -0.69806815477E+01  0.31908870898E+02  0.40659141047E+02  0.00000000000E+00 0. -1.
         11    1    3    3    0    0  0.26395997749E+01 -0.10060290275E+00  0.21388065836E+01  0.33988382984E+01  0.51100000000E-03 0. -1.
        -11    1    3    3    0    0  0.24383269485E+02  0.19086759718E+00 -0.21337342396E+02  0.32401580856E+02  0.51100000000E-03 0.  1.
        -12    1    3    3    0    0 -0.28100669892E+01  0.68904168533E+01 -0.12710335086E+02  0.14728439798E+02  0.00000000000E+00 0.  1.
</event>
<event>
 7    1  0.8697654E-014  0.5052886E+02  0.7816164E-02  0.1300439E+00
        -11   -1    0    0    0    0  0.00000000000E+00  0.00000000000E+00  0.45593999997E+02  0.45594000000E+02  0.51100000000E-03 0. -1.
         11   -1    0    0    0    0 -0.00000000000E+00 -0.00000000000E+00 -0.45593999997E+02  0.45594000000E+02  0.51100000000E-03 0.  1.
    9900012    2    1    2    0    0 -0.29205813880E+02 -0.61428931047E+01 -0.27612517416E+02  0.50528858123E+02  0.29999994751E+02 0.  0.
         12    1    1    2    0    0  0.29205813880E+02  0.61428931047E+01  0.27612517416E+02  0.40659141877E+02  0.00000000000E+00 0. -1.
         11    1    3    3    0    0 -0.48929073016E+00 -0.34451381340E+00  0.27574196457E+01  0.28216056687E+01  0.51100000000E-03 0. -1.
        -11    1    3    3    0    0  0.19504688208E+01  0.77639159204E-01 -0.10536831435E+02  0.10716117459E+02  0.51100000000E-03 0.  1.
         12    1    3    3    0    0 -0.30666991971E+02 -0.58760184505E+01 -0.19833105627E+02  0.36991134995E+02  0.00000000000E+00 0. -1.
</event>
<event>
 7    1  0.8697654E-014  0.5052877E+02  0.7816164E-02  0.1300439E+00
        -11   -1    0    0    0    0  0.00000000000E+00  0.00000000000E+00  0.45593999997E+02  0.45594000000E+02  0.51100000000E-03 0. -1.
         11   -1    0    0    0    0 -0.00000000000E+00 -0.00000000000E+00 -0.45593999997E+02  0.45594000000E+02  0.51100000000E-03 0.  1.
    9900012    2    1    2    0    0 -0.15755736748E+01  0.39653501311E+02 -0.88481801550E+01  0.50528771150E+02  0.29999730387E+02 0.  0.
        -12    1    1    2    0    0  0.15755736748E+01 -0.39653501311E+02  0.88481801550E+01  0.40659228850E+02  0.00000000000E+00 0.  1.
         11    1    3    3    0    0  0.49020591164E+01  0.73427366615E+01 -0.76892451933E-01  0.88290360726E+01  0.51100000000E-03 0. -1.
        -11    1    3    3    0    0 -0.36822664849E+01  0.19195408505E+02 -0.17052728425E+02  0.25938742088E+02  0.51100000000E-03 0.  1.
         12    1    3    3    0    0 -0.27953663064E+01  0.13115356145E+02  0.82814407216E+01  0.15760992989E+02  0.00000000000E+00 0. -1.
</event>
<event>
 7    1  0.8697654E-014  0.5052899E+02  0.7816164E-02  0.1300438E+00
        -11   -1    0    0    0    0  0.00000000000E+00  0.00000000000E+00  0.45593999997E+02  0.45594000000E+02  0.51100000000E-03 0. -1.
         11   -1    0    0    0    0 -0.00000000000E+00 -0.00000000000E+00 -0.45593999997E+02  0.45594000000E+02  0.51100000000E-03 0.  1.
    9900012    2    1    2    0    0  0.12439352963E+02 -0.38555063656E+02 -0.34532019520E+01  0.50528990674E+02  0.30000397649E+02 0.  0.
         12    1    1    2    0    0 -0.12439352963E+02  0.38555063656E+02  0.34532019520E+01  0.40659009326E+02  0.00000000000E+00 0. -1.
         11    1    3    3    0    0  0.37868416814E+01 -0.21887401448E+01  0.70946062806E+01  0.83345180952E+01  0.51100000000E-03 0. -1.
        -11    1    3    3    0    0  0.58770217873E+01 -0.58693851989E+01 -0.78905363288E+01  0.11456423156E+02  0.51100000000E-03 0.  1.
        -12    1    3    3    0    0  0.27754894944E+01 -0.30496938312E+02 -0.26572719038E+01  0.30738049423E+02  0.00000000000E+00 0.  1.
</event>
<event>
 7    1  0.8697654E-014  0.5052886E+02  0.7816164E-02  0.1300439E+00
        -11   -1    0    0    0    0  0.00000000000E+00  0.00000000000E+00  0.45593999997E+02  0.45594000000E+02  0.51100000000E-03 0. -1.
         11   -1    0    0    0    0 -0.00000000000E+00 -0.00000000000E+00 -0.45593999997E+02  0.45594000000E+02  0.51100000000E-03 0.  1.
    9900012    2    1    2    0    0  0.69994795439E+01  0.28096983111E+02 -0.28543522075E+02  0.50528858023E+02  0.29999994448E+02 0.  0.
         12    1    1    2    0    0 -0.69994795439E+01 -0.28096983111E+02  0.28543522075E+02  0.40659141977E+02  0.00000000000E+00 0. -1.
         11    1    3    3    0    0  0.15970000919E+01  0.10185982304E+02  0.23422428282E+01  0.10573114325E+02  0.51100000000E-03 0. -1.
        -11    1    3    3    0    0 -0.57346105734E+01  0.80708620315E+01 -0.83022719008E+01  0.12921001948E+02  0.51100000000E-03 0.  1.
        -12    1    3    3    0    0  0.11137090025E+02  0.98401387753E+01 -0.22583493002E+02  0.27034741751E+02  0.00000000000E+00 0.  1.
</event>
<event>
 7    1  0.8697654E-014  0.5052885E+02  0.7816164E-02  0.1300439E+00
        -11   -1    0    0    0    0  0.00000000000E+00  0.00000000000E+00  0.45593999997E+02  0.45594000000E+02  0.51100000000E-03 0. -1.
         11   -1    0    0    0    0 -0.00000000000E+00 -0.00000000000E+00 -0.45593999997E+02  0.45594000000E+02  0.51100000000E-03 0.  1.
    9900012    2    1    2    0    0  0.31959438162E+02 -0.12877827798E+02  0.21585233246E+02  0.50528850591E+02  0.29999971855E+02 0.  0.
        -12    1    1    2    0    0 -0.31959438162E+02  0.12877827798E+02 -0.21585233246E+02  0.40659149409E+02  0.00000000000E+00 0.  1.
         11    1    3    3    0    0  0.15061166735E+01 -0.43191781066E+01  0.38499513392E+01  0.59787801871E+01  0.51100000000E-03 0. -1.
        -11    1    3    3    0    0  0.15674521494E+02 -0.10878531623E+02  0.21876367186E+02  0.29027719784E+02  0.51100000000E-03 0.  1.
        -12    1    3    3    0    0  0.14778799994E+02  0.23198819316E+01 -0.41410852799E+01  0.15522350619E+02  0.00000000000E+00 0.  1.
</event>
<event>
 7    1  0.8697654E-014  0.5052877E+02  0.7816164E-02  0.1300439E+00
        -11   -1    0    0    0    0  0.00000000000E+00  0.00000000000E+00  0.45593999997E+02  0.45594000000E+02  0.51100000000E-03 0. -1.
         11   -1    0    0    0    0 -0.00000000000E+00 -0.00000000000E+00 -0.45593999997E+02  0.45594000000E+02  0.51100000000E-03 0.  1.
    9900012    2    1    2    0    0 -0.29040213044E+02 -0.21673961304E+02  0.18441211306E+02  0.50528771691E+02  0.29999732031E+02 0.  0.
        -12    1    1    2    0    0  0.29040213044E+02  0.21673961304E+02 -0.18441211306E+02  0.40659228309E+02  0.00000000000E+00 0.  1.
         11    1    3    3    0    0 -0.16776966830E+01  0.26356659827E+01  0.71694763431E+01  0.78206644620E+01  0.51100000000E-03 0. -1.
        -11    1    3    3    0    0 -0.12212692480E+02 -0.16509131104E+01 -0.18420803944E+01  0.12460683455E+02  0.51100000000E-03 0.  1.
        -12    1    3    3    0    0 -0.15149823881E+02 -0.22658714176E+02  0.13113815357E+02  0.30247423774E+02  0.00000000000E+00 0.  1.
</event>
<event>
 7    1  0.8697654E-014  0.5052888E+02  0.7816164E-02  0.1300439E+00
        -11   -1    0    0    0    0  0.00000000000E+00  0.00000000000E+00  0.45593999997E+02  0.45594000000E+02  0.51100000000E-03 0. -1.
         11   -1    0    0    0    0 -0.00000000000E+00 -0.00000000000E+00 -0.45593999997E+02  0.45594000000E+02  0.51100000000E-03 0.  1.
    9900012    2    1    2    0    0 -0.20099323729E+02 -0.29725476186E+02 -0.19120072228E+02  0.50528881578E+02  0.30000066046E+02 0.  0.
         12    1    1    2    0    0  0.20099323729E+02  0.29725476186E+02  0.19120072228E+02  0.40659118422E+02  0.00000000000E+00 0. -1.
         11    1    3    3    0    0 -0.26696508244E+01  0.47236664491E+00  0.22258338408E+01  0.35077774045E+01  0.51100000000E-03 0. -1.
        -11    1    3    3    0    0 -0.19525636805E+02 -0.19627901117E+02 -0.60972980313E+01  0.28349286383E+02  0.51100000000E-03 0.  1.
        -12    1    3    3    0    0  0.20959639012E+01 -0.10569941714E+02 -0.15248608038E+02  0.18671817790E+02  0.00000000000E+00 0.  1.
</event>
<event>
 7    1  0.8697654E-014  0.5052887E+02  0.7816164E-02  0.1300439E+00
        -11   -1    0    0    0    0  0.00000000000E+00  0.00000000000E+00  0.45593999997E+02  0.45594000000E+02  0.51100000000E-03 0. -1.
         11   -1    0    0    0    0 -0.00000000000E+00 -0.00000000000E+00 -0.45593999997E+02  0.45594000000E+02  0.51100000000E-03 0.  1.
    9900012    2    1    2    0    0 -0.25008221907E+02  0.16853304342E+02 -0.27271231308E+02  0.50528867111E+02  0.30000022071E+02 0.  0.
         12    1    1    2    0    0  0.25008221907E+02 -0.16853304342E+02  0.27271231308E+02  0.40659132889E+02  0.00000000000E+00 0. -1.
         11    1    3    3    0    0 -0.22265083024E+01  0.30650296156E+00  0.49618232754E+01  0.54471069168E+01  0.51100000000E-03 0. -1.
        -11    1    3    3    0    0 -0.20878860973E+02  0.11474684731E+02 -0.18021068196E+02  0.29872296938E+02  0.51100000000E-03 0.  1.
        -12    1    3    3    0    0 -0.19028526321E+01  0.50721166495E+01 -0.14211986388E+02  0.15209463256E+02  0.00000000000E+00 0.  1.
</event>
<event>
 7    1  0.8697654E-014  0.5052886E+02  0.7816164E-02  0.1300439E+00
        -11   -1    0    0    0    0  0.00000000000E+00  0.00000000000E+00  0.45593999997E+02  0.45594000000E+02  0.51100000000E-03 0.  1.
         11   -1    0    0    0    0 -0.00000000000E+00 -0.00000000000E+00 -0.45593999997E+02  0.45594000000E+02  0.51100000000E-03 0. -1.
    9900012    2    1    2    0    0  0.20130487935E+02 -0.31198085014E+02  0.16571318354E+02  0.50528860253E+02  0.30000001224E+02 0.  0.
         12    1    1    2    0    0 -0.20130487935E+02  0.31198085014E+02 -0.16571318354E+02  0.40659139747E+02  0.00000000000E+00 0. -1.
         11    1    3    3    0    0  0.11440478155E+02  0.30080311468E+00  0.10691892535E+01  0.11494267652E+02  0.51100000000E-03 0. -1.
        -11    1    3    3    0    0  0.97012124268E+01 -0.18720099387E+02  0.15578943091E+02  0.26215627242E+02  0.51100000000E-03 0.  1.
        -12    1    3    3    0    0 -0.10112026470E+01 -0.12778788741E+02 -0.76813990227E-01  0.12818965359E+02  0.00000000000E+00 0.  1.
</event>
<event>
 7    1  0.8697654E-014  0.5052886E+02  0.7816164E-02  0.1300439E+00
        -11   -1    0    0    0    0  0.00000000000E+00  0.00000000000E+00  0.45593999997E+02  0.45594000000E+02  0.51100000000E-03 0. -1.
         11   -1    0    0    0    0 -0.00000000000E+00 -0.00000000000E+00 -0.45593999997E+02  0.45594000000E+02  0.51100000000E-03 0.  1.
    9900012    2    1    2    0    0 -0.23277089069E+01 -0.15395030943E+02  0.37559827407E+02  0.50528857838E+02  0.29999993884E+02 0.  0.
        -12    1    1    2    0    0  0.23277089069E+01  0.15395030943E+02 -0.37559827407E+02  0.40659142162E+02  0.00000000000E+00 0.  1.
         11    1    3    3    0    0 -0.10712473170E+01 -0.62039807661E+01  0.69711170987E+01  0.93932647160E+01  0.51100000000E-03 0. -1.
        -11    1    3    3    0    0 -0.32254070402E+01 -0.13758069795E+02  0.48796001023E+01  0.14949857272E+02  0.51100000000E-03 0.  1.
        -12    1    3    3    0    0  0.19689454503E+01  0.45670196180E+01  0.25709110206E+02  0.26185735850E+02  0.00000000000E+00 0.  1.
</event>
<event>
 7    1  0.8697654E-014  0.5052886E+02  0.7816164E-02  0.1300439E+00
        -11   -1    0    0    0    0  0.00000000000E+00  0.00000000000E+00  0.45593999997E+02  0.45594000000E+02  0.51100000000E-03 0.  1.
         11   -1    0    0    0    0 -0.00000000000E+00 -0.00000000000E+00 -0.45593999997E+02  0.45594000000E+02  0.51100000000E-03 0. -1.
    9900012    2    1    2    0    0 -0.22230847003E+02  0.33900602239E+02 -0.31151694140E+01  0.50528859932E+02  0.30000000248E+02 0.  0.
         12    1    1    2    0    0  0.22230847003E+02 -0.33900602239E+02  0.31151694140E+01  0.40659140068E+02  0.00000000000E+00 0. -1.
         11    1    3    3    0    0 -0.58014794228E+01 -0.31301162227E+01 -0.36933546197E+01  0.75561669959E+01  0.51100000000E-03 0. -1.
        -11    1    3    3    0    0 -0.12084341644E+02  0.10290174578E+02  0.54830199193E+00  0.15881424406E+02  0.51100000000E-03 0.  1.
        -12    1    3    3    0    0 -0.43450259363E+01  0.26740543883E+02  0.29883213761E-01  0.27091268530E+02  0.00000000000E+00 0.  1.
</event>
<event>
 7    1  0.8697654E-014  0.5052887E+02  0.7816164E-02  0.1300439E+00
        -11   -1    0    0    0    0  0.00000000000E+00  0.00000000000E+00  0.45593999997E+02  0.45594000000E+02  0.51100000000E-03 0.  1.
         11   -1    0    0    0    0 -0.00000000000E+00 -0.00000000000E+00 -0.45593999997E+02  0.45594000000E+02  0.51100000000E-03 0. -1.
    9900012    2    1    2    0    0  0.33077604789E+02  0.21389144242E+01  0.23547021046E+02  0.50528867032E+02  0.30000021832E+02 0.  0.
        -12    1    1    2    0    0 -0.33077604789E+02 -0.21389144242E+01 -0.23547021046E+02  0.40659132968E+02  0.00000000000E+00 0.  1.
         11    1    3    3    0    0  0.25192228402E+02 -0.12492534058E+01  0.10725718427E+02  0.27408940913E+02  0.51100000000E-03 0. -1.
        -11    1    3    3    0    0  0.10168404638E+02  0.23179648833E+01  0.39111794601E+00  0.10436588887E+02  0.51100000000E-03 0.  1.
        -12    1    3    3    0    0 -0.22830282506E+01  0.10702029467E+01  0.12430184674E+02  0.12683337233E+02  0.00000000000E+00 0.  1.
</event>
<event>
 7    1  0.8697654E-014  0.5052883E+02  0.7816164E-02  0.1300439E+00
        -11   -1    0    0    0    0  0.00000000000E+00  0.00000000000E+00  0.45593999997E+02  0.45594000000E+02  0.51100000000E-03 0. -1.
         11   -1    0    0    0    0 -0.00000000000E+00 -0.00000000000E+00 -0.45593999997E+02  0.45594000000E+02  0.51100000000E-03 0.  1.
    9900012    2    1    2    0    0  0.73700604015E+01  0.21904583286E+01  0.39925580269E+02  0.50528833041E+02  0.29999918511E+02 0.  0.
        -12    1    1    2    0    0 -0.73700604015E+01 -0.21904583286E+01 -0.39925580269E+02  0.40659166959E+02  0.00000000000E+00 0.  1.
         11    1    3    3    0    0 -0.24100680638E+01 -0.31752787869E+01  0.29015593111E+01  0.49305040456E+01  0.51100000000E-03 0. -1.
        -11    1    3    3    0    0  0.81729620922E+01  0.47434412776E+01  0.96582117061E+00  0.94989660127E+01  0.51100000000E-03 0.  1.
         12    1    3    3    0    0  0.16071663731E+01  0.62229583786E+00  0.36058199787E+02  0.36099362983E+02  0.00000000000E+00 0. -1.
</event>
<event>
 7    1  0.8697654E-014  0.5052886E+02  0.7816164E-02  0.1300439E+00
        -11   -1    0    0    0    0  0.00000000000E+00  0.00000000000E+00  0.45593999997E+02  0.45594000000E+02  0.51100000000E-03 0.  1.
         11   -1    0    0    0    0 -0.00000000000E+00 -0.00000000000E+00 -0.45593999997E+02  0.45594000000E+02  0.51100000000E-03 0. -1.
    9900012    2    1    2    0    0 -0.55488417423E+01  0.34257534945E+02 -0.21184836190E+02  0.50528860442E+02  0.30000001800E+02 0.  0.
         12    1    1    2    0    0  0.55488417423E+01 -0.34257534945E+02  0.21184836190E+02  0.40659139558E+02  0.00000000000E+00 0. -1.
         11    1    3    3    0    0  0.23841982261E+01  0.33113089826E+01  0.53242999551E+01  0.67080055630E+01  0.51100000000E-03 0.  1.
        -11    1    3    3    0    0 -0.71157372048E+01  0.10665188729E+02 -0.17297237798E+02  0.21530778024E+02  0.51100000000E-03 0. -1.
        -12    1    3    3    0    0 -0.81730276366E+00  0.20281037233E+02 -0.92118983467E+01  0.22290076855E+02  0.00000000000E+00 0.  1.
</event>
<event>
 7    1  0.8697654E-014  0.5052885E+02  0.7816164E-02  0.1300439E+00
        -11   -1    0    0    0    0  0.00000000000E+00  0.00000000000E+00  0.45593999997E+02  0.45594000000E+02  0.51100000000E-03 0. -1.
         11   -1    0    0    0    0 -0.00000000000E+00 -0.00000000000E+00 -0.45593999997E+02  0.45594000000E+02  0.51100000000E-03 0.  1.
    9900012    2    1    2    0    0  0.31864927955E+02 -0.20122966425E+01 -0.25174263164E+02  0.50528849772E+02  0.29999969368E+02 0.  0.
         12    1    1    2    0    0 -0.31864927955E+02  0.20122966425E+01  0.25174263164E+02  0.40659150228E+02  0.00000000000E+00 0. -1.
         11    1    3    3    0    0  0.19403809761E+02 -0.76256898332E+01 -0.86097246038E+01  0.22556292619E+02  0.51100000000E-03 0. -1.
        -11    1    3    3    0    0  0.47292208798E+01 -0.50355809414E+01 -0.12356101064E+02  0.14156123739E+02  0.51100000000E-03 0.  1.
        -12    1    3    3    0    0  0.77318973143E+01  0.10648974132E+02 -0.42084374961E+01  0.13816433415E+02  0.00000000000E+00 0.  1.
</event>
<event>
 7    1  0.8697654E-014  0.5052886E+02  0.7816164E-02  0.1300439E+00
        -11   -1    0    0    0    0  0.00000000000E+00  0.00000000000E+00  0.45593999997E+02  0.45594000000E+02  0.51100000000E-03 0. -1.
         11   -1    0    0    0    0 -0.00000000000E+00 -0.00000000000E+00 -0.45593999997E+02  0.45594000000E+02  0.51100000000E-03 0.  1.
    9900012    2    1    2    0    0  0.14238435690E+01  0.18696831501E+02 -0.36077238646E+02  0.50528856047E+02  0.29999988441E+02 0.  0.
         12    1    1    2    0    0 -0.14238435690E+01 -0.18696831501E+02  0.36077238646E+02  0.40659143953E+02  0.00000000000E+00 0. -1.
         11    1    3    3    0    0  0.21395811011E+00 -0.60589198538E+00 -0.23598106845E+02  0.23606853457E+02  0.51100000000E-03 0.  1.
        -11    1    3    3    0    0  0.46820872514E+01  0.76466462526E+00 -0.41546288663E+01  0.63061552706E+01  0.51100000000E-03 0. -1.
        -12    1    3    3    0    0 -0.34722017925E+01  0.18538058861E+02 -0.83245029340E+01  0.20615847320E+02  0.00000000000E+00 0.  1.
</event>
<event>
 7    1  0.8697654E-014  0.5052886E+02  0.7816164E-02  0.1300439E+00
        -11   -1    0    0    0    0  0.00000000000E+00  0.00000000000E+00  0.45593999997E+02  0.45594000000E+02  0.51100000000E-03 0. -1.
         11   -1    0    0    0    0 -0.00000000000E+00 -0.00000000000E+00 -0.45593999997E+02  0.45594000000E+02  0.51100000000E-03 0.  1.
    9900012    2    1    2    0    0  0.16819933346E+02 -0.17200195169E+02 -0.32778174768E+02  0.50528860649E+02  0.30000002429E+02 0.  0.
         12    1    1    2    0    0 -0.16819933346E+02  0.17200195169E+02  0.32778174768E+02  0.40659139351E+02  0.00000000000E+00 0. -1.
         11    1    3    3    0    0  0.59411118166E+01 -0.67094199252E+01 -0.82202980129E+00  0.89993810123E+01  0.51100000000E-03 0. -1.
        -11    1    3    3    0    0  0.90570743632E+00  0.64354639750E+01 -0.51340727812E+01  0.82821619230E+01  0.51100000000E-03 0.  1.
        -12    1    3    3    0    0  0.99731140934E+01 -0.16926239219E+02 -0.26822072186E+02  0.33247317714E+02  0.00000000000E+00 0.  1.
</event>
<event>
 7    1  0.8697654E-014  0.5052886E+02  0.7816164E-02  0.1300439E+00
        -11   -1    0    0    0    0  0.00000000000E+00  0.00000000000E+00  0.45593999997E+02  0.45594000000E+02  0.51100000000E-03 0.  1.
         11   -1    0    0    0    0 -0.00000000000E+00 -0.00000000000E+00 -0.45593999997E+02  0.45594000000E+02  0.51100000000E-03 0. -1.
    9900012    2    1    2    0    0 -0.71319648291E+01  0.39157552521E+02  0.83058537803E+01  0.50528855287E+02  0.29999986130E+02 0.  0.
        -12    1    1    2    0    0  0.71319648291E+01 -0.39157552521E+02 -0.83058537803E+01  0.40659144713E+02  0.00000000000E+00 0.  1.
         11    1    3    3    0    0 -0.56509986216E+01  0.23364338927E+02 -0.23298251001E+01  0.24150656392E+02  0.51100000000E-03 0. -1.
        -11    1    3    3    0    0  0.76794258570E+01  0.41329065782E+01  0.12016579350E+01  0.88033221190E+01  0.51100000000E-03 0.  1.
        -12    1    3    3    0    0 -0.91603920646E+01  0.11660307016E+02  0.94340209454E+01  0.17574876776E+02  0.00000000000E+00 0.  1.
</event>
<event>
 7    1  0.8697654E-014  0.5052887E+02  0.7816164E-02  0.1300439E+00
        -11   -1    0    0    0    0  0.00000000000E+00  0.00000000000E+00  0.45593999997E+02  0.45594000000E+02  0.51100000000E-03 0.  1.
         11   -1    0    0    0    0 -0.00000000000E+00 -0.00000000000E+00 -0.45593999997E+02  0.45594000000E+02  0.51100000000E-03 0. -1.
    9900012    2    1    2    0    0  0.35891931035E+02 -0.18444825864E+02  0.49721449520E+01  0.50528873842E+02  0.30000042529E+02 0.  0.
        -12    1    1    2    0    0 -0.35891931035E+02  0.18444825864E+02 -0.49721449520E+01  0.40659126158E+02  0.00000000000E+00 0.  1.
         11    1    3    3    0    0  0.24613796371E+02 -0.24151218908E+02  0.39263839961E+00  0.34485859590E+02  0.51100000000E-03 0. -1.
        -11    1    3    3    0    0  0.51246489565E+01  0.29370748652E+01 -0.23626892463E+01  0.63616614517E+01  0.51100000000E-03 0.  1.
        -12    1    3    3    0    0  0.61534857075E+01  0.27693181783E+01  0.69421957986E+01  0.96813527997E+01  0.00000000000E+00 0.  1.
</event>
<event>
 7    1  0.8697654E-014  0.5052882E+02  0.7816164E-02  0.1300439E+00
        -11   -1    0    0    0    0  0.00000000000E+00  0.00000000000E+00  0.45593999997E+02  0.45594000000E+02  0.51100000000E-03 0. -1.
         11   -1    0    0    0    0 -0.00000000000E+00 -0.00000000000E+00 -0.45593999997E+02  0.45594000000E+02  0.51100000000E-03 0.  1.
    9900012    2    1    2    0    0  0.26001203921E+02 -0.16446730820E+02 -0.26582166353E+02  0.50528817421E+02  0.29999871032E+02 0.  0.
         12    1    1    2    0    0 -0.26001203921E+02  0.16446730820E+02  0.26582166353E+02  0.40659182579E+02  0.00000000000E+00 0. -1.
         11    1    3    3    0    0  0.13376633154E+02  0.17800097546E+00 -0.65492873347E+00  0.13393839285E+02  0.51100000000E-03 0. -1.
        -11    1    3    3    0    0  0.86634670823E+01 -0.12176680586E+02 -0.56095743663E+01  0.15962284825E+02  0.51100000000E-03 0.  1.
        -12    1    3    3    0    0  0.39611036842E+01 -0.44480512089E+01 -0.20317663253E+02  0.21172693311E+02  0.00000000000E+00 0.  1.
</event>
<event>
 7    1  0.8697654E-014  0.5052887E+02  0.7816164E-02  0.1300439E+00
        -11   -1    0    0    0    0  0.00000000000E+00  0.00000000000E+00  0.45593999997E+02  0.45594000000E+02  0.51100000000E-03 0. -1.
         11   -1    0    0    0    0 -0.00000000000E+00 -0.00000000000E+00 -0.45593999997E+02  0.45594000000E+02  0.51100000000E-03 0.  1.
    9900012    2    1    2    0    0  0.14648832405E+02 -0.17016502549E+02  0.33897127358E+02  0.50528869500E+02  0.30000029333E+02 0.  0.
        -12    1    1    2    0    0 -0.14648832405E+02  0.17016502549E+02 -0.33897127358E+02  0.40659130500E+02  0.00000000000E+00 0.  1.
         11    1    3    3    0    0  0.62231224794E+01 -0.20546956203E+01  0.10158241264E+01  0.66318116984E+01  0.51100000000E-03 0. -1.
        -11    1    3    3    0    0  0.47757192059E+01 -0.17249153462E+02  0.97764551312E+01  0.20394113472E+02  0.51100000000E-03 0.  1.
         12    1    3    3    0    0  0.36499907201E+01  0.22873465337E+01  0.23104848101E+02  0.23502944330E+02  0.00000000000E+00 0. -1.
</event>
<event>
 7    1  0.8697654E-014  0.5052890E+02  0.7816164E-02  0.1300439E+00
        -11   -1    0    0    0    0  0.00000000000E+00  0.00000000000E+00  0.45593999997E+02  0.45594000000E+02  0.51100000000E-03 0. -1.
         11   -1    0    0    0    0 -0.00000000000E+00 -0.00000000000E+00 -0.45593999997E+02  0.45594000000E+02  0.51100000000E-03 0.  1.
    9900012    2    1    2    0    0 -0.14258404304E+02 -0.37419634787E+02  0.70449619568E+01  0.50528897085E+02  0.30000113179E+02 0.  0.
        -12    1    1    2    0    0  0.14258404304E+02  0.37419634787E+02 -0.70449619568E+01  0.40659102915E+02  0.00000000000E+00 0.  1.
         11    1    3    3    0    0 -0.15014499786E+02 -0.28027195169E+02  0.80428653129E+01  0.32797051020E+02  0.51100000000E-03 0. -1.
        -11    1    3    3    0    0 -0.68499749376E+01 -0.22351027591E+01 -0.10895654655E+01  0.72873173497E+01  0.51100000000E-03 0.  1.
         12    1    3    3    0    0  0.76060704201E+01 -0.71573368588E+01  0.91662109435E-01  0.10444528715E+02  0.00000000000E+00 0. -1.
</event>
<event>
 7    1  0.1612316E-013  0.5052888E+02  0.7816164E-02  0.1300439E+00
        -11   -1    0    0    0    0  0.00000000000E+00  0.00000000000E+00  0.45593999997E+02  0.45594000000E+02  0.51100000000E-03 0. -1.
         11   -1    0    0    0    0 -0.00000000000E+00 -0.00000000000E+00 -0.45593999997E+02  0.45594000000E+02  0.51100000000E-03 0.  1.
    9900012    2    1    2    0    0 -0.24843165893E+01 -0.13059318852E+02 -0.38424555478E+02  0.50528879234E+02  0.30000058920E+02 0.  0.
         12    1    1    2    0    0  0.24843165893E+01  0.13059318852E+02  0.38424555478E+02  0.40659120766E+02  0.00000000000E+00 0. -1.
         11    1    3    3    0    0  0.39660956552E+00 -0.67358096668E-01 -0.21005439994E+02  0.21009291894E+02  0.51100000000E-03 0.  1.
        -11    1    3    3    0    0 -0.96862353016E+01 -0.54146789950E+01 -0.15645975977E+02  0.19181722224E+02  0.51100000000E-03 0. -1.
         12    1    3    3    0    0  0.68053091468E+01 -0.75772817606E+01 -0.17731395065E+01  0.10337865117E+02  0.00000000000E+00 0. -1.
</event>
<event>
 7    1  0.8697654E-014  0.5052886E+02  0.7816164E-02  0.1300439E+00
        -11   -1    0    0    0    0  0.00000000000E+00  0.00000000000E+00  0.45593999997E+02  0.45594000000E+02  0.51100000000E-03 0. -1.
         11   -1    0    0    0    0 -0.00000000000E+00 -0.00000000000E+00 -0.45593999997E+02  0.45594000000E+02  0.51100000000E-03 0.  1.
    9900012    2    1    2    0    0 -0.24293133244E+02  0.67028854404E+01  0.31907382241E+02  0.50528855426E+02  0.29999986552E+02 0.  0.
        -12    1    1    2    0    0  0.24293133244E+02 -0.67028854404E+01 -0.31907382241E+02  0.40659144574E+02  0.00000000000E+00 0.  1.
         11    1    3    3    0    0  0.57867526570E+01 -0.27212685489E+01  0.95525748440E+01  0.11495368426E+02  0.51100000000E-03 0. -1.
        -11    1    3    3    0    0 -0.58787965004E+01 -0.81567166477E-01  0.28740635575E+01  0.65442450359E+01  0.51100000000E-03 0.  1.
        -12    1    3    3    0    0 -0.24201089400E+02  0.95057211557E+01  0.19480743840E+02  0.32489241964E+02  0.00000000000E+00 0.  1.
</event>
<event>
 7    1  0.8697654E-014  0.5052886E+02  0.7816164E-02  0.1300439E+00
        -11   -1    0    0    0    0  0.00000000000E+00  0.00000000000E+00  0.45593999997E+02  0.45594000000E+02  0.51100000000E-03 0. -1.
         11   -1    0    0    0    0 -0.00000000000E+00 -0.00000000000E+00 -0.45593999997E+02  0.45594000000E+02  0.51100000000E-03 0.  1.
    9900012    2    1    2    0    0  0.31577801696E+02  0.14235974361E+02  0.21291904906E+02  0.50528859078E+02  0.29999997654E+02 0.  0.
        -12    1    1    2    0    0 -0.31577801696E+02 -0.14235974361E+02 -0.21291904906E+02  0.40659140922E+02  0.00000000000E+00 0.  1.
         11    1    3    3    0    0  0.11085897178E+02  0.33306520483E+01  0.13470623658E+02  0.17760857561E+02  0.51100000000E-03 0. -1.
        -11    1    3    3    0    0 -0.44697081784E+00  0.84411890179E+01  0.80650023032E+01  0.11683223757E+02  0.51100000000E-03 0.  1.
         12    1    3    3    0    0  0.20938875336E+02  0.24641332949E+01 -0.24372105552E+00  0.21084777760E+02  0.00000000000E+00 0. -1.
</event>
<event>
 7    1  0.8697654E-014  0.5052886E+02  0.7816164E-02  0.1300439E+00
        -11   -1    0    0    0    0  0.00000000000E+00  0.00000000000E+00  0.45593999997E+02  0.45594000000E+02  0.51100000000E-03 0. -1.
         11   -1    0    0    0    0 -0.00000000000E+00 -0.00000000000E+00 -0.45593999997E+02  0.45594000000E+02  0.51100000000E-03 0.  1.
    9900012    2    1    2    0    0 -0.64509382307E+01 -0.19168697059E+02  0.35271969897E+02  0.50528863125E+02  0.30000009955E+02 0.  0.
        -12    1    1    2    0    0  0.64509382307E+01  0.19168697059E+02 -0.35271969897E+02  0.40659136875E+02  0.00000000000E+00 0.  1.
         11    1    3    3    0    0 -0.10281360291E+02 -0.85582110331E+01  0.26817826686E+02  0.29969070289E+02  0.51100000000E-03 0. -1.
        -11    1    3    3    0    0  0.25123270873E+01 -0.13448575704E+02  0.10117568450E+02  0.17015909246E+02  0.51100000000E-03 0.  1.
        -12    1    3    3    0    0  0.13180949732E+01  0.28380896780E+01 -0.16634252392E+01  0.35438835908E+01  0.00000000000E+00 0.  1.
</event>
<event>
 7    1  0.8697654E-014  0.5052897E+02  0.7816164E-02  0.1300438E+00
        -11   -1    0    0    0    0  0.00000000000E+00  0.00000000000E+00  0.45593999997E+02  0.45594000000E+02  0.51100000000E-03 0.  1.
         11   -1    0    0    0    0 -0.00000000000E+00 -0.00000000000E+00 -0.45593999997E+02  0.45594000000E+02  0.51100000000E-03 0. -1.
    9900012    2    1    2    0    0 -0.34453503460E+02 -0.49859584157E+01  0.21006018938E+02  0.50528972545E+02  0.30000342546E+02 0.  0.
        -12    1    1    2    0    0  0.34453503460E+02  0.49859584157E+01 -0.21006018938E+02  0.40659027455E+02  0.00000000000E+00 0.  1.
         11    1    3    3    0    0 -0.71028375001E+01  0.34116517696E+01 -0.46032888666E+01  0.91257841855E+01  0.51100000000E-03 0. -1.
        -11    1    3    3    0    0 -0.18633995186E+02 -0.11775783852E+02  0.12621193222E+02  0.25400578350E+02  0.51100000000E-03 0.  1.
        -12    1    3    3    0    0 -0.87166707733E+01  0.33781736666E+01  0.12988114583E+02  0.16002610009E+02  0.00000000000E+00 0.  1.
</event>
<event>
 7    1  0.8697654E-014  0.5052886E+02  0.7816164E-02  0.1300439E+00
        -11   -1    0    0    0    0  0.00000000000E+00  0.00000000000E+00  0.45593999997E+02  0.45594000000E+02  0.51100000000E-03 0. -1.
         11   -1    0    0    0    0 -0.00000000000E+00 -0.00000000000E+00 -0.45593999997E+02  0.45594000000E+02  0.51100000000E-03 0.  1.
    9900012    2    1    2    0    0  0.37178121701E+02  0.97200758989E+01  0.13284329651E+02  0.50528855605E+02  0.29999987096E+02 0.  0.
        -12    1    1    2    0    0 -0.37178121701E+02 -0.97200758989E+01 -0.13284329651E+02  0.40659144395E+02  0.00000000000E+00 0.  1.
         11    1    3    3    0    0  0.99078993085E-01  0.26011475474E+01  0.62320539514E+01  0.67538346089E+01  0.51100000000E-03 0.  1.
        -11    1    3    3    0    0  0.39275155788E+02  0.65953166950E+01  0.40670381303E+01  0.40032197840E+02  0.51100000000E-03 0. -1.
         12    1    3    3    0    0 -0.21961130804E+01  0.52361165645E+00  0.29852375695E+01  0.37428231557E+01  0.00000000000E+00 0. -1.
</event>
<event>
 7    1  0.8697654E-014  0.5052887E+02  0.7816164E-02  0.1300439E+00
        -11   -1    0    0    0    0  0.00000000000E+00  0.00000000000E+00  0.45593999997E+02  0.45594000000E+02  0.51100000000E-03 0. -1.
         11   -1    0    0    0    0 -0.00000000000E+00 -0.00000000000E+00 -0.45593999997E+02  0.45594000000E+02  0.51100000000E-03 0.  1.
    9900012    2    1    2    0    0  0.17864590377E+02 -0.30398727147E+02  0.20246938257E+02  0.50528871747E+02  0.30000036162E+02 0.  0.
        -12    1    1    2    0    0 -0.17864590377E+02  0.30398727147E+02 -0.20246938257E+02  0.40659128253E+02  0.00000000000E+00 0.  1.
         11    1    3    3    0    0  0.23973067087E+00 -0.14561144627E+02  0.66350488233E+01  0.16003383292E+02  0.51100000000E-03 0. -1.
        -11    1    3    3    0    0  0.14698561343E+02 -0.18455751933E+02  0.17206935513E+02  0.29201731370E+02  0.51100000000E-03 0.  1.
        -12    1    3    3    0    0  0.29262983635E+01  0.26181694128E+01 -0.35950460796E+01  0.53237570851E+01  0.00000000000E+00 0.  1.
</event>
<event>
 7    1  0.8697654E-014  0.5052884E+02  0.7816164E-02  0.1300439E+00
        -11   -1    0    0    0    0  0.00000000000E+00  0.00000000000E+00  0.45593999997E+02  0.45594000000E+02  0.51100000000E-03 0. -1.
         11   -1    0    0    0    0 -0.00000000000E+00 -0.00000000000E+00 -0.45593999997E+02  0.45594000000E+02  0.51100000000E-03 0.  1.
    9900012    2    1    2    0    0  0.37433414429E+02  0.12305498020E+02  0.10024056858E+02  0.50528837279E+02  0.29999931392E+02 0.  0.
        -12    1    1    2    0    0 -0.37433414429E+02 -0.12305498020E+02 -0.10024056858E+02  0.40659162721E+02  0.00000000000E+00 0.  1.
         11    1    3    3    0    0  0.19760112113E+02  0.95009876102E+01  0.63539774824E+01  0.22827698667E+02  0.51100000000E-03 0. -1.
        -11    1    3    3    0    0  0.14259026928E+02  0.35987923588E+01 -0.71321396268E+01  0.16344374301E+02  0.51100000000E-03 0.  1.
         12    1    3    3    0    0  0.34142753874E+01 -0.79428194906E+00  0.10802219003E+02  0.11356764311E+02  0.00000000000E+00 0. -1.
</event>
<event>
 7    1  0.1050238E-013  0.5052887E+02  0.7816164E-02  0.1300439E+00
        -11   -1    0    0    0    0  0.00000000000E+00  0.00000000000E+00  0.45593999997E+02  0.45594000000E+02  0.51100000000E-03 0. -1.
         11   -1    0    0    0    0 -0.00000000000E+00 -0.00000000000E+00 -0.45593999997E+02  0.45594000000E+02  0.51100000000E-03 0.  1.
    9900012    2    1    2    0    0 -0.28801129111E+02  0.21193210193E+02 -0.19352191647E+02  0.50528874113E+02  0.30000043354E+02 0.  0.
         12    1    1    2    0    0  0.28801129111E+02 -0.21193210193E+02  0.19352191647E+02  0.40659125887E+02  0.00000000000E+00 0. -1.
         11    1    3    3    0    0 -0.13972688197E+02  0.14389051696E+02 -0.94772049552E+00  0.20079317681E+02  0.51100000000E-03 0. -1.
        -11    1    3    3    0    0 -0.10485140165E+02  0.12876357003E+02 -0.14390294474E+02  0.21973149735E+02  0.51100000000E-03 0.  1.
         12    1    3    3    0    0 -0.43433007495E+01 -0.60721985059E+01 -0.40141766772E+01  0.84764066969E+01  0.00000000000E+00 0. -1.
</event>
<event>
 7    1  0.8697654E-014  0.5052884E+02  0.7816164E-02  0.1300439E+00
        -11   -1    0    0    0    0  0.00000000000E+00  0.00000000000E+00  0.45593999997E+02  0.45594000000E+02  0.51100000000E-03 0. -1.
         11   -1    0    0    0    0 -0.00000000000E+00 -0.00000000000E+00 -0.45593999997E+02  0.45594000000E+02  0.51100000000E-03 0.  1.
    9900012    2    1    2    0    0  0.18988035332E+01  0.21881291997E+02  0.34216533021E+02  0.50528837117E+02  0.29999930901E+02 0.  0.
        -12    1    1    2    0    0 -0.18988035332E+01 -0.21881291997E+02 -0.34216533021E+02  0.40659162883E+02  0.00000000000E+00 0.  1.
         11    1    3    3    0    0 -0.17870045590E+01  0.15983406059E+02  0.71592680976E+01  0.17604481659E+02  0.51100000000E-03 0. -1.
        -11    1    3    3    0    0 -0.52465179644E+01  0.78903508636E+01  0.15710945457E+02  0.18347135877E+02  0.51100000000E-03 0.  1.
        -12    1    3    3    0    0  0.89323260566E+01 -0.19924649248E+01  0.11346319467E+02  0.14577219581E+02  0.00000000000E+00 0.  1.
</event>
<event>
 7    1  0.8697654E-014  0.5052887E+02  0.7816164E-02  0.1300439E+00
        -11   -1    0    0    0    0  0.00000000000E+00  0.00000000000E+00  0.45593999997E+02  0.45594000000E+02  0.51100000000E-03 0. -1.
         11   -1    0    0    0    0 -0.00000000000E+00 -0.00000000000E+00 -0.45593999997E+02  0.45594000000E+02  0.51100000000E-03 0.  1.
    9900012    2    1    2    0    0 -0.23582647965E+02  0.22259251384E+02  0.24526501606E+02  0.50528870174E+02  0.30000031380E+02 0.  0.
        -12    1    1    2    0    0  0.23582647965E+02 -0.22259251384E+02 -0.24526501606E+02  0.40659129826E+02  0.00000000000E+00 0.  1.
         11    1    3    3    0    0 -0.13563672565E+02  0.95690751599E+01  0.28257405496E+01  0.16838207232E+02  0.51100000000E-03 0. -1.
        -11    1    3    3    0    0 -0.37675413733E+01  0.73642047104E+01 -0.20818949248E+01  0.85299569609E+01  0.51100000000E-03 0.  1.
         12    1    3    3    0    0 -0.62514340270E+01  0.53259715134E+01  0.23782655981E+02  0.25160705981E+02  0.00000000000E+00 0. -1.
</event>
<event>
 7    1  0.8697654E-014  0.5052888E+02  0.7816164E-02  0.1300439E+00
        -11   -1    0    0    0    0  0.00000000000E+00  0.00000000000E+00  0.45593999997E+02  0.45594000000E+02  0.51100000000E-03 0. -1.
         11   -1    0    0    0    0 -0.00000000000E+00 -0.00000000000E+00 -0.45593999997E+02  0.45594000000E+02  0.51100000000E-03 0.  1.
    9900012    2    1    2    0    0 -0.15296229429E+02 -0.45859811097E+01 -0.37391950452E+02  0.50528882744E+02  0.30000069587E+02 0.  0.
         12    1    1    2    0    0  0.15296229429E+02  0.45859811097E+01  0.37391950452E+02  0.40659117256E+02  0.00000000000E+00 0. -1.
         11    1    3    3    0    0  0.19954012969E+01 -0.80785123012E+01 -0.10909796304E+02  0.13721065665E+02  0.51100000000E-03 0. -1.
        -11    1    3    3    0    0 -0.10139363216E+01  0.82938693642E+01 -0.11174983435E+02  0.13953372027E+02  0.51100000000E-03 0.  1.
         12    1    3    3    0    0 -0.16277694404E+02 -0.48013381727E+01 -0.15307170713E+02  0.22854445052E+02  0.00000000000E+00 0. -1.
</event>
<event>
 7    1  0.8697654E-014  0.5052890E+02  0.7816164E-02  0.1300439E+00
        -11   -1    0    0    0    0  0.00000000000E+00  0.00000000000E+00  0.45593999997E+02  0.45594000000E+02  0.51100000000E-03 0. -1.
         11   -1    0    0    0    0 -0.00000000000E+00 -0.00000000000E+00 -0.45593999997E+02  0.45594000000E+02  0.51100000000E-03 0.  1.
    9900012    2    1    2    0    0  0.20775999830E+02 -0.30697503758E+02  0.16708783292E+02  0.50528900834E+02  0.30000124574E+02 0.  0.
        -12    1    1    2    0    0 -0.20775999830E+02  0.30697503758E+02 -0.16708783292E+02  0.40659099166E+02  0.00000000000E+00 0.  1.
         11    1    3    3    0    0  0.37002120360E+01 -0.13593976753E+02 -0.13147043612E+01  0.14149778121E+02  0.51100000000E-03 0. -1.
        -11    1    3    3    0    0 -0.13115278072E+01  0.30754916548E+01 -0.51052519012E+00  0.33822167787E+01  0.51100000000E-03 0.  1.
         12    1    3    3    0    0  0.18387315601E+02 -0.20179018660E+02  0.18534012843E+02  0.32996905933E+02  0.00000000000E+00 0. -1.
</event>
<event>
 7    1  0.8697654E-014  0.5052888E+02  0.7816164E-02  0.1300439E+00
        -11   -1    0    0    0    0  0.00000000000E+00  0.00000000000E+00  0.45593999997E+02  0.45594000000E+02  0.51100000000E-03 0. -1.
         11   -1    0    0    0    0 -0.00000000000E+00 -0.00000000000E+00 -0.45593999997E+02  0.45594000000E+02  0.51100000000E-03 0.  1.
    9900012    2    1    2    0    0  0.54074875960E+01 -0.20205440821E+02  0.34866359949E+02  0.50528882733E+02  0.30000069555E+02 0.  0.
        -12    1    1    2    0    0 -0.54074875960E+01  0.20205440821E+02 -0.34866359949E+02  0.40659117267E+02  0.00000000000E+00 0.  1.
         11    1    3    3    0    0  0.36336480694E+01 -0.12957180481E+02  0.13732086353E+02  0.19226599288E+02  0.51100000000E-03 0. -1.
        -11    1    3    3    0    0 -0.95381905547E+01 -0.64965615699E+01  0.12780987676E+02  0.17220221762E+02  0.51100000000E-03 0.  1.
        -12    1    3    3    0    0  0.11312030081E+02 -0.75169877013E+00  0.83532859193E+01  0.14082061683E+02  0.00000000000E+00 0.  1.
</event>
<event>
 7    1  0.8697654E-014  0.5052886E+02  0.7816164E-02  0.1300439E+00
        -11   -1    0    0    0    0  0.00000000000E+00  0.00000000000E+00  0.45593999997E+02  0.45594000000E+02  0.51100000000E-03 0. -1.
         11   -1    0    0    0    0 -0.00000000000E+00 -0.00000000000E+00 -0.45593999997E+02  0.45594000000E+02  0.51100000000E-03 0.  1.
    9900012    2    1    2    0    0 -0.12691331735E+02  0.99428706208E+01 -0.37326065682E+02  0.50528858880E+02  0.29999997051E+02 0.  0.
         12    1    1    2    0    0  0.12691331735E+02 -0.99428706208E+01  0.37326065682E+02  0.40659141120E+02  0.00000000000E+00 0. -1.
         11    1    3    3    0    0 -0.78210991703E+01  0.78296140183E+01 -0.35640029143E+00  0.11072464465E+02  0.51100000000E-03 0. -1.
        -11    1    3    3    0    0 -0.18580578682E+01 -0.13294208568E+01 -0.81967774539E-01  0.22861447533E+01  0.51100000000E-03 0.  1.
        -12    1    3    3    0    0 -0.30121746962E+01  0.34426774593E+01 -0.36887697616E+02  0.37170249661E+02  0.00000000000E+00 0.  1.
</event>
<event>
 7    1  0.8697654E-014  0.5052886E+02  0.7816164E-02  0.1300439E+00
        -11   -1    0    0    0    0  0.00000000000E+00  0.00000000000E+00  0.45593999997E+02  0.45594000000E+02  0.51100000000E-03 0. -1.
         11   -1    0    0    0    0 -0.00000000000E+00 -0.00000000000E+00 -0.45593999997E+02  0.45594000000E+02  0.51100000000E-03 0.  1.
    9900012    2    1    2    0    0  0.67228001944E+01  0.25804697573E+02 -0.30693441111E+02  0.50528858512E+02  0.29999995934E+02 0.  0.
         12    1    1    2    0    0 -0.67228001944E+01 -0.25804697573E+02  0.30693441111E+02  0.40659141488E+02  0.00000000000E+00 0. -1.
         11    1    3    3    0    0 -0.31986510811E+01  0.15394544261E+02 -0.18730493339E+01  0.15834509017E+02  0.51100000000E-03 0. -1.
        -11    1    3    3    0    0  0.34147747629E+01  0.10182802868E+02 -0.96143179457E+01  0.14414758782E+02  0.51100000000E-03 0.  1.
        -12    1    3    3    0    0  0.65066765126E+01  0.22735044396E+00 -0.19206073831E+02  0.20279590713E+02  0.00000000000E+00 0.  1.
</event>
<event>
 7    1  0.8697654E-014  0.5052885E+02  0.7816164E-02  0.1300439E+00
        -11   -1    0    0    0    0  0.00000000000E+00  0.00000000000E+00  0.45593999997E+02  0.45594000000E+02  0.51100000000E-03 0. -1.
         11   -1    0    0    0    0 -0.00000000000E+00 -0.00000000000E+00 -0.45593999997E+02  0.45594000000E+02  0.51100000000E-03 0.  1.
    9900012    2    1    2    0    0  0.30362307214E+02 -0.22930941090E+02 -0.14334168038E+02  0.50528854264E+02  0.29999983021E+02 0.  0.
         12    1    1    2    0    0 -0.30362307214E+02  0.22930941090E+02  0.14334168038E+02  0.40659145736E+02  0.00000000000E+00 0. -1.
         11    1    3    3    0    0  0.10277507219E+02 -0.21881189473E+02 -0.46575875090E+01  0.24619234941E+02  0.51100000000E-03 0. -1.
        -11    1    3    3    0    0  0.21020106926E+02 -0.29221795829E+01 -0.66690299308E+01  0.22245448729E+02  0.51100000000E-03 0.  1.
        -12    1    3    3    0    0 -0.93530693061E+00  0.18724279660E+01 -0.30075505985E+01  0.36641705944E+01  0.00000000000E+00 0.  1.
</event>
<event>
 7    1  0.8697654E-014  0.5052882E+02  0.7816164E-02  0.1300439E+00
        -11   -1    0    0    0    0  0.00000000000E+00  0.00000000000E+00  0.45593999997E+02  0.45594000000E+02  0.51100000000E-03 0. -1.
         11   -1    0    0    0    0 -0.00000000000E+00 -0.00000000000E+00 -0.45593999997E+02  0.45594000000E+02  0.51100000000E-03 0.  1.
    9900012    2    1    2    0    0 -0.32505641459E+02  0.15269572375E+02  0.19062853961E+02  0.50528819384E+02  0.29999877001E+02 0.  0.
        -12    1    1    2    0    0  0.32505641459E+02 -0.15269572375E+02 -0.19062853961E+02  0.40659180616E+02  0.00000000000E+00 0.  1.
         11    1    3    3    0    0 -0.15726827216E+02  0.18333126414E+01  0.32205438227E+00  0.15836598398E+02  0.51100000000E-03 0. -1.
        -11    1    3    3    0    0  0.33158984520E+01  0.43486764403E+01 -0.40965612450E+00  0.54839755404E+01  0.51100000000E-03 0.  1.
         12    1    3    3    0    0 -0.20094712695E+02  0.90875832936E+01  0.19150455703E+02  0.29208245446E+02  0.00000000000E+00 0. -1.
</event>
<event>
 7    1  0.8697654E-014  0.5052887E+02  0.7816164E-02  0.1300439E+00
        -11   -1    0    0    0    0  0.00000000000E+00  0.00000000000E+00  0.45593999997E+02  0.45594000000E+02  0.51100000000E-03 0. -1.
         11   -1    0    0    0    0 -0.00000000000E+00 -0.00000000000E+00 -0.45593999997E+02  0.45594000000E+02  0.51100000000E-03 0.  1.
    9900012    2    1    2    0    0  0.17188561978E+02  0.21015674080E+02  0.30266477376E+02  0.50528869750E+02  0.30000030091E+02 0.  0.
        -12    1    1    2    0    0 -0.17188561978E+02 -0.21015674080E+02 -0.30266477376E+02  0.40659130250E+02  0.00000000000E+00 0.  1.
         11    1    3    3    0    0  0.17093492972E+01 -0.58896965495E+01  0.84824363494E+01  0.10467192897E+02  0.51100000000E-03 0. -1.
        -11    1    3    3    0    0  0.63692081230E+01  0.34225829312E+01  0.79356008816E+00  0.72739689242E+01  0.51100000000E-03 0.  1.
        -12    1    3    3    0    0  0.91100045582E+01  0.23482787699E+02  0.20990480939E+02  0.32787707928E+02  0.00000000000E+00 0.  1.
</event>
<event>
 7    1  0.8697654E-014  0.5052885E+02  0.7816164E-02  0.1300439E+00
        -11   -1    0    0    0    0  0.00000000000E+00  0.00000000000E+00  0.45593999997E+02  0.45594000000E+02  0.51100000000E-03 0. -1.
         11   -1    0    0    0    0 -0.00000000000E+00 -0.00000000000E+00 -0.45593999997E+02  0.45594000000E+02  0.51100000000E-03 0.  1.
    9900012    2    1    2    0    0 -0.62020246269E+01 -0.35505627481E+02 -0.18816257508E+02  0.50528852949E+02  0.29999979023E+02 0.  0.
         12    1    1    2    0    0  0.62020246269E+01  0.35505627481E+02  0.18816257508E+02  0.40659147051E+02  0.00000000000E+00 0. -1.
         11    1    3    3    0    0  0.16856996382E+01 -0.49400940452E+01  0.21429375837E+01  0.56425432382E+01  0.51100000000E-03 0. -1.
        -11    1    3    3    0    0 -0.84708570797E+01 -0.34535210706E+02 -0.19847082999E+02  0.40722756562E+02  0.51100000000E-03 0.  1.
         12    1    3    3    0    0  0.58313281460E+00  0.39696772705E+01 -0.11121120934E+01  0.41635531484E+01  0.00000000000E+00 0. -1.
</event>
<event>
 7    1  0.8697654E-014  0.5052886E+02  0.7816164E-02  0.1300439E+00
        -11   -1    0    0    0    0  0.00000000000E+00  0.00000000000E+00  0.45593999997E+02  0.45594000000E+02  0.51100000000E-03 0. -1.
         11   -1    0    0    0    0 -0.00000000000E+00 -0.00000000000E+00 -0.45593999997E+02  0.45594000000E+02  0.51100000000E-03 0.  1.
    9900012    2    1    2    0    0  0.96987169946E+01  0.30374287546E+02  0.25229021070E+02  0.50528856386E+02  0.29999989472E+02 0.  0.
        -12    1    1    2    0    0 -0.96987169946E+01 -0.30374287546E+02 -0.25229021070E+02  0.40659143614E+02  0.00000000000E+00 0.  1.
         11    1    3    3    0    0 -0.47717171545E+01  0.41827510382E+01  0.78686961151E+01  0.10108465248E+02  0.51100000000E-03 0. -1.
        -11    1    3    3    0    0  0.13705089872E+02  0.40178739684E+01  0.59550518114E+01  0.15473701624E+02  0.51100000000E-03 0.  1.
         12    1    3    3    0    0  0.76534427729E+00  0.22173662539E+02  0.11405273143E+02  0.24946689515E+02  0.00000000000E+00 0. -1.
</event>
<event>
 7    1  0.8697654E-014  0.5052885E+02  0.7816164E-02  0.1300439E+00
        -11   -1    0    0    0    0  0.00000000000E+00  0.00000000000E+00  0.45593999997E+02  0.45594000000E+02  0.51100000000E-03 0. -1.
         11   -1    0    0    0    0 -0.00000000000E+00 -0.00000000000E+00 -0.45593999997E+02  0.45594000000E+02  0.51100000000E-03 0.  1.
    9900012    2    1    2    0    0 -0.13459758913E+02  0.15633889472E+02 -0.35036873414E+02  0.50528854551E+02  0.29999983893E+02 0.  0.
         12    1    1    2    0    0  0.13459758913E+02 -0.15633889472E+02  0.35036873414E+02  0.40659145449E+02  0.00000000000E+00 0. -1.
         11    1    3    3    0    0  0.53490263310E+01  0.10288077172E+01 -0.86132721707E+01  0.10191122890E+02  0.51100000000E-03 0. -1.
        -11    1    3    3    0    0 -0.72686470016E+01 -0.38811138237E+01 -0.10501552199E+02  0.13348365915E+02  0.51100000000E-03 0.  1.
        -12    1    3    3    0    0 -0.11540138242E+02  0.18486195578E+02 -0.15922049045E+02  0.26989365746E+02  0.00000000000E+00 0.  1.
</event>
<event>
 7    1  0.8697654E-014  0.5052887E+02  0.7816164E-02  0.1300439E+00
        -11   -1    0    0    0    0  0.00000000000E+00  0.00000000000E+00  0.45593999997E+02  0.45594000000E+02  0.51100000000E-03 0. -1.
         11   -1    0    0    0    0 -0.00000000000E+00 -0.00000000000E+00 -0.45593999997E+02  0.45594000000E+02  0.51100000000E-03 0.  1.
    9900012    2    1    2    0    0  0.24183061995E+02  0.17070193169E+02 -0.27873873356E+02  0.50528870667E+02  0.30000032879E+02 0.  0.
         12    1    1    2    0    0 -0.24183061995E+02 -0.17070193169E+02  0.27873873356E+02  0.40659129333E+02  0.00000000000E+00 0. -1.
         11    1    3    3    0    0  0.32644551776E+01  0.39869386090E+00 -0.24522523193E+01  0.41023366634E+01  0.51100000000E-03 0. -1.
        -11    1    3    3    0    0  0.24963955128E+02  0.19824538594E+02 -0.15927583034E+02  0.35635646306E+02  0.51100000000E-03 0.  1.
         12    1    3    3    0    0 -0.40453483109E+01 -0.31530392863E+01 -0.94940380028E+01  0.10790887697E+02  0.00000000000E+00 0. -1.
</event>
<event>
 7    1  0.8697654E-014  0.5052887E+02  0.7816164E-02  0.1300439E+00
        -11   -1    0    0    0    0  0.00000000000E+00  0.00000000000E+00  0.45593999997E+02  0.45594000000E+02  0.51100000000E-03 0. -1.
         11   -1    0    0    0    0 -0.00000000000E+00 -0.00000000000E+00 -0.45593999997E+02  0.45594000000E+02  0.51100000000E-03 0.  1.
    9900012    2    1    2    0    0 -0.15037164518E+02  0.17714263724E+02 -0.33365448305E+02  0.50528873144E+02  0.30000040410E+02 0.  0.
         12    1    1    2    0    0  0.15037164518E+02 -0.17714263724E+02  0.33365448305E+02  0.40659126856E+02  0.00000000000E+00 0. -1.
         11    1    3    3    0    0 -0.72411323881E+01  0.31153117398E+01 -0.84693608009E+01  0.11570187472E+02  0.51100000000E-03 0. -1.
        -11    1    3    3    0    0 -0.14921219873E+01  0.10540970506E+02 -0.28657381548E+02  0.30570966695E+02  0.51100000000E-03 0.  1.
         12    1    3    3    0    0 -0.63039101427E+01  0.40579814790E+01  0.37612940431E+01  0.83877189777E+01  0.00000000000E+00 0. -1.
</event>
<event>
 7    1  0.8697654E-014  0.5052886E+02  0.7816164E-02  0.1300439E+00
        -11   -1    0    0    0    0  0.00000000000E+00  0.00000000000E+00  0.45593999997E+02  0.45594000000E+02  0.51100000000E-03 0. -1.
         11   -1    0    0    0    0 -0.00000000000E+00 -0.00000000000E+00 -0.45593999997E+02  0.45594000000E+02  0.51100000000E-03 0.  1.
    9900012    2    1    2    0    0  0.88773659886E+01 -0.24173351076E+02  0.31464374926E+02  0.50528863037E+02  0.30000009687E+02 0.  0.
        -12    1    1    2    0    0 -0.88773659886E+01  0.24173351076E+02 -0.31464374926E+02  0.40659136963E+02  0.00000000000E+00 0.  1.
         11    1    3    3    0    0  0.32421962136E+00 -0.43442498672E+01 -0.44494378310E+01  0.62269673634E+01  0.51100000000E-03 0. -1.
        -11    1    3    3    0    0  0.42809808843E+01 -0.13682546811E+02  0.10396945771E+02  0.17709753420E+02  0.51100000000E-03 0.  1.
         12    1    3    3    0    0  0.42721654829E+01 -0.61465543976E+01  0.25516866985E+02  0.26592142253E+02  0.00000000000E+00 0. -1.
</event>
<event>
 7    1  0.8697654E-014  0.5052887E+02  0.7816164E-02  0.1300439E+00
        -11   -1    0    0    0    0  0.00000000000E+00  0.00000000000E+00  0.45593999997E+02  0.45594000000E+02  0.51100000000E-03 0.  1.
         11   -1    0    0    0    0 -0.00000000000E+00 -0.00000000000E+00 -0.45593999997E+02  0.45594000000E+02  0.51100000000E-03 0. -1.
    9900012    2    1    2    0    0  0.30424318539E+02 -0.18367784456E+02  0.19752216889E+02  0.50528871426E+02  0.30000035186E+02 0.  0.
        -12    1    1    2    0    0 -0.30424318539E+02  0.18367784456E+02 -0.19752216889E+02  0.40659128574E+02  0.00000000000E+00 0.  1.
         11    1    3    3    0    0  0.18832053261E+02 -0.19397617862E+02  0.88279200638E+01  0.28440217679E+02  0.51100000000E-03 0. -1.
        -11    1    3    3    0    0 -0.31780855381E+01 -0.22806884657E+01  0.11770548893E+01  0.40850001271E+01  0.51100000000E-03 0.  1.
         12    1    3    3    0    0  0.14770350816E+02  0.33105218714E+01  0.97472419362E+01  0.18003653620E+02  0.00000000000E+00 0. -1.
</event>
<event>
 7    1  0.8697654E-014  0.5052885E+02  0.7816164E-02  0.1300439E+00
        -11   -1    0    0    0    0  0.00000000000E+00  0.00000000000E+00  0.45593999997E+02  0.45594000000E+02  0.51100000000E-03 0. -1.
         11   -1    0    0    0    0 -0.00000000000E+00 -0.00000000000E+00 -0.45593999997E+02  0.45594000000E+02  0.51100000000E-03 0.  1.
    9900012    2    1    2    0    0 -0.56213419581E+01 -0.33039409791E+02  0.23020950047E+02  0.50528853110E+02  0.29999979512E+02 0.  0.
        -12    1    1    2    0    0  0.56213419581E+01  0.33039409791E+02 -0.23020950047E+02  0.40659146890E+02  0.00000000000E+00 0.  1.
         11    1    3    3    0    0 -0.11904284551E+02 -0.12058392880E+02  0.20414016064E+02  0.26530150426E+02  0.51100000000E-03 0. -1.
        -11    1    3    3    0    0  0.22201450245E+01 -0.67869919916E+00  0.23340975407E+01  0.32920644167E+01  0.51100000000E-03 0.  1.
         12    1    3    3    0    0  0.40627975684E+01 -0.20302317712E+02  0.27283644215E+00  0.20706638267E+02  0.00000000000E+00 0. -1.
</event>
<event>
 7    1  0.8697654E-014  0.5052881E+02  0.7816164E-02  0.1300439E+00
        -11   -1    0    0    0    0  0.00000000000E+00  0.00000000000E+00  0.45593999997E+02  0.45594000000E+02  0.51100000000E-03 0. -1.
         11   -1    0    0    0    0 -0.00000000000E+00 -0.00000000000E+00 -0.45593999997E+02  0.45594000000E+02  0.51100000000E-03 0.  1.
    9900012    2    1    2    0    0  0.26012764311E+02  0.18936224322E+02  0.24858109462E+02  0.50528805410E+02  0.29999834523E+02 0.  0.
        -12    1    1    2    0    0 -0.26012764311E+02 -0.18936224322E+02 -0.24858109462E+02  0.40659194590E+02  0.00000000000E+00 0.  1.
         11    1    3    3    0    0  0.16604061478E+02  0.13670746110E+02  0.68203268019E+01  0.22563266934E+02  0.51100000000E-03 0. -1.
        -11    1    3    3    0    0 -0.22949055288E+01  0.75011127980E+01  0.12659274378E+02  0.14892632830E+02  0.51100000000E-03 0.  1.
         12    1    3    3    0    0  0.11703608361E+02 -0.22356345855E+01  0.53785082830E+01  0.13072905646E+02  0.00000000000E+00 0. -1.
</event>
<event>
 7    1  0.8697654E-014  0.5052885E+02  0.7816164E-02  0.1300439E+00
        -11   -1    0    0    0    0  0.00000000000E+00  0.00000000000E+00  0.45593999997E+02  0.45594000000E+02  0.51100000000E-03 0. -1.
         11   -1    0    0    0    0 -0.00000000000E+00 -0.00000000000E+00 -0.45593999997E+02  0.45594000000E+02  0.51100000000E-03 0.  1.
    9900012    2    1    2    0    0  0.15795209285E+02  0.35760768429E+02 -0.11173418224E+02  0.50528850110E+02  0.29999970394E+02 0.  0.
         12    1    1    2    0    0 -0.15795209285E+02 -0.35760768429E+02  0.11173418224E+02  0.40659149890E+02  0.00000000000E+00 0. -1.
         11    1    3    3    0    0  0.37630982853E+01  0.96052088884E+01  0.47888279064E+01  0.11373382060E+02  0.51100000000E-03 0. -1.
        -11    1    3    3    0    0  0.96878440900E+01  0.92514774603E+01  0.29133530971E+01  0.13708821424E+02  0.51100000000E-03 0.  1.
        -12    1    3    3    0    0  0.23442669092E+01  0.16904082080E+02 -0.18875599228E+02  0.25446646626E+02  0.00000000000E+00 0.  1.
</event>
<event>
 7    1  0.8697654E-014  0.5052887E+02  0.7816164E-02  0.1300439E+00
        -11   -1    0    0    0    0  0.00000000000E+00  0.00000000000E+00  0.45593999997E+02  0.45594000000E+02  0.51100000000E-03 0. -1.
         11   -1    0    0    0    0 -0.00000000000E+00 -0.00000000000E+00 -0.45593999997E+02  0.45594000000E+02  0.51100000000E-03 0.  1.
    9900012    2    1    2    0    0 -0.13613353470E+01 -0.12888728059E+01  0.40615891556E+02  0.50528867276E+02  0.30000022571E+02 0.  0.
        -12    1    1    2    0    0  0.13613353470E+01  0.12888728059E+01 -0.40615891556E+02  0.40659132724E+02  0.00000000000E+00 0.  1.
         11    1    3    3    0    0  0.19221431088E+01 -0.21086171124E+01  0.13947541881E+02  0.14236390871E+02  0.51100000000E-03 0. -1.
        -11    1    3    3    0    0 -0.66210298530E+01  0.68511541002E+01  0.27727078633E+02  0.29318377148E+02  0.51100000000E-03 0.  1.
        -12    1    3    3    0    0  0.33375513971E+01 -0.60314097937E+01 -0.10587289582E+01  0.69740992561E+01  0.00000000000E+00 0.  1.
</event>
<event>
 7    1  0.8697654E-014  0.5052886E+02  0.7816164E-02  0.1300439E+00
        -11   -1    0    0    0    0  0.00000000000E+00  0.00000000000E+00  0.45593999997E+02  0.45594000000E+02  0.51100000000E-03 0. -1.
         11   -1    0    0    0    0 -0.00000000000E+00 -0.00000000000E+00 -0.45593999997E+02  0.45594000000E+02  0.51100000000E-03 0.  1.
    9900012    2    1    2    0    0 -0.21748169239E+02 -0.23205728435E+02 -0.25331336749E+02  0.50528864262E+02  0.30000013411E+02 0.  0.
         12    1    1    2    0    0  0.21748169239E+02  0.23205728435E+02  0.25331336749E+02  0.40659135738E+02  0.00000000000E+00 0. -1.
         11    1    3    3    0    0 -0.53961913877E+01  0.27812582071E+01  0.10867316926E+01  0.61672736878E+01  0.51100000000E-03 0. -1.
        -11    1    3    3    0    0 -0.25247722467E+01 -0.12436634129E+02 -0.14584804861E+01  0.12773860377E+02  0.51100000000E-03 0.  1.
        -12    1    3    3    0    0 -0.13827205605E+02 -0.13550352513E+02 -0.24959587955E+02  0.31587730197E+02  0.00000000000E+00 0.  1.
</event>
<event>
 7    1  0.8697654E-014  0.5052886E+02  0.7816164E-02  0.1300439E+00
        -11   -1    0    0    0    0  0.00000000000E+00  0.00000000000E+00  0.45593999997E+02  0.45594000000E+02  0.51100000000E-03 0. -1.
         11   -1    0    0    0    0 -0.00000000000E+00 -0.00000000000E+00 -0.45593999997E+02  0.45594000000E+02  0.51100000000E-03 0.  1.
    9900012    2    1    2    0    0  0.10798789689E+02 -0.26400079548E+02  0.28975637742E+02  0.50528860297E+02  0.30000001358E+02 0.  0.
        -12    1    1    2    0    0 -0.10798789689E+02  0.26400079548E+02 -0.28975637742E+02  0.40659139703E+02  0.00000000000E+00 0.  1.
         11    1    3    3    0    0  0.40205274282E+01 -0.24271164289E+02  0.19957404668E+02  0.31678889786E+02  0.51100000000E-03 0. -1.
        -11    1    3    3    0    0  0.75445101637E+01 -0.74559169533E+01  0.35698270017E+01  0.11191693183E+02  0.51100000000E-03 0.  1.
         12    1    3    3    0    0 -0.76624790329E+00  0.53270016943E+01  0.54484060725E+01  0.76582773279E+01  0.00000000000E+00 0. -1.
</event>
<event>
 7    1  0.8697654E-014  0.5052886E+02  0.7816164E-02  0.1300439E+00
        -11   -1    0    0    0    0  0.00000000000E+00  0.00000000000E+00  0.45593999997E+02  0.45594000000E+02  0.51100000000E-03 0. -1.
         11   -1    0    0    0    0 -0.00000000000E+00 -0.00000000000E+00 -0.45593999997E+02  0.45594000000E+02  0.51100000000E-03 0.  1.
    9900012    2    1    2    0    0 -0.21604883099E+02  0.29802810930E+02 -0.17268098593E+02  0.50528859059E+02  0.29999997596E+02 0.  0.
         12    1    1    2    0    0  0.21604883099E+02 -0.29802810930E+02  0.17268098593E+02  0.40659140941E+02  0.00000000000E+00 0. -1.
         11    1    3    3    0    0 -0.10694583448E+01 -0.17167990250E+01 -0.31180821871E+00  0.20465494546E+01  0.51100000000E-03 0. -1.
        -11    1    3    3    0    0 -0.75040102422E+01  0.19452883457E+02  0.37693809359E+01  0.21188040906E+02  0.51100000000E-03 0.  1.
         12    1    3    3    0    0 -0.13031414512E+02  0.12066726497E+02 -0.20725671310E+02  0.27294268699E+02  0.00000000000E+00 0. -1.
</event>
<event>
 7    1  0.9920729E-014  0.5052884E+02  0.7816164E-02  0.1300439E+00
        -11   -1    0    0    0    0  0.00000000000E+00  0.00000000000E+00  0.45593999997E+02  0.45594000000E+02  0.51100000000E-03 0. -1.
         11   -1    0    0    0    0 -0.00000000000E+00 -0.00000000000E+00 -0.45593999997E+02  0.45594000000E+02  0.51100000000E-03 0.  1.
    9900012    2    1    2    0    0 -0.12497400299E+02  0.34140724611E+02 -0.18204215989E+02  0.50528836568E+02  0.29999929233E+02 0.  0.
         12    1    1    2    0    0  0.12497400299E+02 -0.34140724611E+02  0.18204215989E+02  0.40659163432E+02  0.00000000000E+00 0. -1.
         11    1    3    3    0    0 -0.15174699728E+01  0.52667462440E+00 -0.66965085892E+01  0.68864598180E+01  0.51100000000E-03 0. -1.
        -11    1    3    3    0    0 -0.58367995177E+01  0.27656414641E+02 -0.17939626350E+02  0.33477988190E+02  0.51100000000E-03 0.  1.
         12    1    3    3    0    0 -0.51431308087E+01  0.59576353455E+01  0.64319189501E+01  0.10164388560E+02  0.00000000000E+00 0. -1.
</event>
<event>
 7    1  0.8697654E-014  0.5052886E+02  0.7816164E-02  0.1300439E+00
        -11   -1    0    0    0    0  0.00000000000E+00  0.00000000000E+00  0.45593999997E+02  0.45594000000E+02  0.51100000000E-03 0. -1.
         11   -1    0    0    0    0 -0.00000000000E+00 -0.00000000000E+00 -0.45593999997E+02  0.45594000000E+02  0.51100000000E-03 0.  1.
    9900012    2    1    2    0    0  0.16262739884E+02  0.32249986725E+01  0.37125303406E+02  0.50528862306E+02  0.30000007466E+02 0.  0.
        -12    1    1    2    0    0 -0.16262739884E+02 -0.32249986725E+01 -0.37125303406E+02  0.40659137694E+02  0.00000000000E+00 0.  1.
         11    1    3    3    0    0  0.94850957311E+01  0.53319879397E+01  0.16438793792E+02  0.19713728161E+02  0.51100000000E-03 0. -1.
        -11    1    3    3    0    0  0.10233758020E+02 -0.76492136922E+01  0.20650618173E+02  0.24283498605E+02  0.51100000000E-03 0.  1.
        -12    1    3    3    0    0 -0.34561138662E+01  0.55422244250E+01  0.35891441631E-01  0.65316355401E+01  0.00000000000E+00 0.  1.
</event>
<event>
 7    1  0.8697654E-014  0.5052877E+02  0.7816164E-02  0.1300439E+00
        -11   -1    0    0    0    0  0.00000000000E+00  0.00000000000E+00  0.45593999997E+02  0.45594000000E+02  0.51100000000E-03 0. -1.
         11   -1    0    0    0    0 -0.00000000000E+00 -0.00000000000E+00 -0.45593999997E+02  0.45594000000E+02  0.51100000000E-03 0.  1.
    9900012    2    1    2    0    0  0.18565955661E+01  0.20738232543E+02 -0.34923511719E+02  0.50528770950E+02  0.29999729779E+02 0.  0.
         12    1    1    2    0    0 -0.18565955661E+01 -0.20738232543E+02  0.34923511719E+02  0.40659229050E+02  0.00000000000E+00 0. -1.
         11    1    3    3    0    0 -0.83252314688E+01  0.81485517776E+01 -0.68204207393E+01  0.13499130135E+02  0.51100000000E-03 0. -1.
        -11    1    3    3    0    0  0.88760520096E+01  0.11764181798E+02 -0.78114866829E+01  0.16679316446E+02  0.51100000000E-03 0.  1.
        -12    1    3    3    0    0  0.13057750254E+01  0.82549896748E+00 -0.20291604297E+02  0.20350324369E+02  0.00000000000E+00 0.  1.
</event>
<event>
 7    1  0.8697654E-014  0.5052885E+02  0.7816164E-02  0.1300439E+00
        -11   -1    0    0    0    0  0.00000000000E+00  0.00000000000E+00  0.45593999997E+02  0.45594000000E+02  0.51100000000E-03 0. -1.
         11   -1    0    0    0    0 -0.00000000000E+00 -0.00000000000E+00 -0.45593999997E+02  0.45594000000E+02  0.51100000000E-03 0.  1.
    9900012    2    1    2    0    0  0.12410152491E+02  0.10350161027E+02 -0.37309898159E+02  0.50528853197E+02  0.29999979776E+02 0.  0.
         12    1    1    2    0    0 -0.12410152491E+02 -0.10350161027E+02  0.37309898159E+02  0.40659146803E+02  0.00000000000E+00 0. -1.
         11    1    3    3    0    0 -0.16136672374E+01 -0.34322155956E+01 -0.12044939670E+02  0.12627929274E+02  0.51100000000E-03 0. -1.
        -11    1    3    3    0    0  0.17218305489E+01  0.12831506238E+02 -0.21327099690E+02  0.24949096862E+02  0.51100000000E-03 0.  1.
        -12    1    3    3    0    0  0.12301989180E+02  0.95087038435E+00 -0.39378587991E+01  0.12951827060E+02  0.00000000000E+00 0.  1.
</event>
<event>
 7    1  0.8697654E-014  0.5052886E+02  0.7816164E-02  0.1300439E+00
        -11   -1    0    0    0    0  0.00000000000E+00  0.00000000000E+00  0.45593999997E+02  0.45594000000E+02  0.51100000000E-03 0. -1.
         11   -1    0    0    0    0 -0.00000000000E+00 -0.00000000000E+00 -0.45593999997E+02  0.45594000000E+02  0.51100000000E-03 0.  1.
    9900012    2    1    2    0    0  0.23359972824E+02 -0.26502204919E+02 -0.20127350769E+02  0.50528862714E+02  0.30000008704E+02 0.  0.
         12    1    1    2    0    0 -0.23359972824E+02  0.26502204919E+02  0.20127350769E+02  0.40659137286E+02  0.00000000000E+00 0. -1.
         11    1    3    3    0    0  0.20193714639E+01 -0.14069516985E+01  0.36404077054E+01  0.43943079903E+01  0.51100000000E-03 0. -1.
        -11    1    3    3    0    0  0.20418953777E+02 -0.13163187324E+02 -0.65419099670E+01  0.25159486484E+02  0.51100000000E-03 0.  1.
        -12    1    3    3    0    0  0.92164758277E+00 -0.11932065896E+02 -0.17225848508E+02  0.20975068239E+02  0.00000000000E+00 0.  1.
</event>
<event>
 7    1  0.8697654E-014  0.5052885E+02  0.7816164E-02  0.1300439E+00
        -11   -1    0    0    0    0  0.00000000000E+00  0.00000000000E+00  0.45593999997E+02  0.45594000000E+02  0.51100000000E-03 0. -1.
         11   -1    0    0    0    0 -0.00000000000E+00 -0.00000000000E+00 -0.45593999997E+02  0.45594000000E+02  0.51100000000E-03 0.  1.
    9900012    2    1    2    0    0  0.23566899730E+02 -0.10206442846E+02 -0.31521362826E+02  0.50528849088E+02  0.29999967287E+02 0.  0.
         12    1    1    2    0    0 -0.23566899730E+02  0.10206442846E+02  0.31521362826E+02  0.40659150912E+02  0.00000000000E+00 0. -1.
         11    1    3    3    0    0  0.22786179037E+02 -0.63237887791E+01 -0.99731942872E+01  0.25664466957E+02  0.51100000000E-03 0. -1.
        -11    1    3    3    0    0 -0.13669244608E+00 -0.22164935440E+01  0.85574109781E+00  0.23798784723E+01  0.51100000000E-03 0.  1.
        -12    1    3    3    0    0  0.91741313972E+00 -0.16661605225E+01 -0.22403909637E+02  0.22484503659E+02  0.00000000000E+00 0.  1.
</event>
<event>
 7    1  0.8697654E-014  0.5052887E+02  0.7816164E-02  0.1300439E+00
        -11   -1    0    0    0    0  0.00000000000E+00  0.00000000000E+00  0.45593999997E+02  0.45594000000E+02  0.51100000000E-03 0. -1.
         11   -1    0    0    0    0 -0.00000000000E+00 -0.00000000000E+00 -0.45593999997E+02  0.45594000000E+02  0.51100000000E-03 0.  1.
    9900012    2    1    2    0    0 -0.19415359922E+02  0.32794894664E+02  0.14166996854E+02  0.50528866748E+02  0.30000020968E+02 0.  0.
        -12    1    1    2    0    0  0.19415359922E+02 -0.32794894664E+02 -0.14166996854E+02  0.40659133252E+02  0.00000000000E+00 0.  1.
         11    1    3    3    0    0  0.11884041102E+01  0.28553004533E+00 -0.27737545988E+01  0.30310965955E+01  0.51100000000E-03 0. -1.
        -11    1    3    3    0    0 -0.15231046829E+02  0.51916781661E+01  0.94719886147E+01  0.18672355991E+02  0.51100000000E-03 0.  1.
         12    1    3    3    0    0 -0.53727172030E+01  0.27317686452E+02  0.74687628385E+01  0.28825414161E+02  0.00000000000E+00 0. -1.
</event>
<event>
 7    1  0.8697654E-014  0.5052886E+02  0.7816164E-02  0.1300439E+00
        -11   -1    0    0    0    0  0.00000000000E+00  0.00000000000E+00  0.45593999997E+02  0.45594000000E+02  0.51100000000E-03 0. -1.
         11   -1    0    0    0    0 -0.00000000000E+00 -0.00000000000E+00 -0.45593999997E+02  0.45594000000E+02  0.51100000000E-03 0.  1.
    9900012    2    1    2    0    0  0.80099835844E+01 -0.88152991504E+01 -0.38875396782E+02  0.50528858210E+02  0.29999995014E+02 0.  0.
         12    1    1    2    0    0 -0.80099835844E+01  0.88152991504E+01  0.38875396782E+02  0.40659141790E+02  0.00000000000E+00 0. -1.
         11    1    3    3    0    0 -0.24544500925E+01 -0.98492615739E+00 -0.47981287637E+01  0.54787265570E+01  0.51100000000E-03 0. -1.
        -11    1    3    3    0    0  0.59325228075E+01 -0.60872698602E+01  0.19305044687E+01  0.87164516277E+01  0.51100000000E-03 0.  1.
        -12    1    3    3    0    0  0.45319108694E+01 -0.17431031328E+01 -0.36007772487E+02  0.36333680025E+02  0.00000000000E+00 0.  1.
</event>
<event>
 7    1  0.8697654E-014  0.5052884E+02  0.7816164E-02  0.1300439E+00
        -11   -1    0    0    0    0  0.00000000000E+00  0.00000000000E+00  0.45593999997E+02  0.45594000000E+02  0.51100000000E-03 0. -1.
         11   -1    0    0    0    0 -0.00000000000E+00 -0.00000000000E+00 -0.45593999997E+02  0.45594000000E+02  0.51100000000E-03 0.  1.
    9900012    2    1    2    0    0 -0.35515898860E+02  0.12167776038E+02 -0.15611968781E+02  0.50528838489E+02  0.29999935070E+02 0.  0.
         12    1    1    2    0    0  0.35515898860E+02 -0.12167776038E+02  0.15611968781E+02  0.40659161511E+02  0.00000000000E+00 0. -1.
         11    1    3    3    0    0  0.22970152338E+00  0.49199340776E+01 -0.89457713348E+01  0.10212019348E+02  0.51100000000E-03 0. -1.
        -11    1    3    3    0    0 -0.52874590940E+01 -0.46455877478E+01 -0.17362815935E+01  0.72493712297E+01  0.51100000000E-03 0.  1.
        -12    1    3    3    0    0 -0.30458141290E+02  0.11893429709E+02 -0.49299158528E+01  0.33067447911E+02  0.00000000000E+00 0.  1.
</event>
<event>
 7    1  0.8697654E-014  0.5052885E+02  0.7816164E-02  0.1300439E+00
        -11   -1    0    0    0    0  0.00000000000E+00  0.00000000000E+00  0.45593999997E+02  0.45594000000E+02  0.51100000000E-03 0. -1.
         11   -1    0    0    0    0 -0.00000000000E+00 -0.00000000000E+00 -0.45593999997E+02  0.45594000000E+02  0.51100000000E-03 0.  1.
    9900012    2    1    2    0    0 -0.21306349378E+02  0.18369110922E+02 -0.29356117449E+02  0.50528851072E+02  0.29999973317E+02 0.  0.
         12    1    1    2    0    0  0.21306349378E+02 -0.18369110922E+02  0.29356117449E+02  0.40659148928E+02  0.00000000000E+00 0. -1.
         11    1    3    3    0    0 -0.23573121877E+01 -0.52090845772E+01  0.15257466635E+00  0.57196819993E+01  0.51100000000E-03 0. -1.
        -11    1    3    3    0    0 -0.70831903856E+01  0.64524939423E+01 -0.19431330487E+02  0.21665245645E+02  0.51100000000E-03 0.  1.
        -12    1    3    3    0    0 -0.11865846805E+02  0.17125701557E+02 -0.10077361629E+02  0.23143923427E+02  0.00000000000E+00 0.  1.
</event>
<event>
 7    1  0.8697654E-014  0.5052886E+02  0.7816164E-02  0.1300439E+00
        -11   -1    0    0    0    0  0.00000000000E+00  0.00000000000E+00  0.45593999997E+02  0.45594000000E+02  0.51100000000E-03 0. -1.
         11   -1    0    0    0    0 -0.00000000000E+00 -0.00000000000E+00 -0.45593999997E+02  0.45594000000E+02  0.51100000000E-03 0.  1.
    9900012    2    1    2    0    0  0.13193504028E+02 -0.25470676694E+02 -0.28815646165E+02  0.50528863466E+02  0.30000010990E+02 0.  0.
         12    1    1    2    0    0 -0.13193504028E+02  0.25470676694E+02  0.28815646165E+02  0.40659136534E+02  0.00000000000E+00 0. -1.
         11    1    3    3    0    0  0.93172703247E+01 -0.11937784161E+02 -0.65985940655E+01  0.16518585317E+02  0.51100000000E-03 0. -1.
        -11    1    3    3    0    0 -0.14731590841E+01 -0.18417185340E+02 -0.15197839150E+02  0.23923570566E+02  0.51100000000E-03 0.  1.
         12    1    3    3    0    0  0.53493927879E+01  0.48842928068E+01 -0.70192129498E+01  0.10086707583E+02  0.00000000000E+00 0. -1.
</event>
<event>
 7    1  0.8697654E-014  0.5052886E+02  0.7816164E-02  0.1300439E+00
        -11   -1    0    0    0    0  0.00000000000E+00  0.00000000000E+00  0.45593999997E+02  0.45594000000E+02  0.51100000000E-03 0. -1.
         11   -1    0    0    0    0 -0.00000000000E+00 -0.00000000000E+00 -0.45593999997E+02  0.45594000000E+02  0.51100000000E-03 0.  1.
    9900012    2    1    2    0    0 -0.12806337174E+02 -0.18578835406E+02  0.33822925625E+02  0.50528859642E+02  0.29999999367E+02 0.  0.
        -12    1    1    2    0    0  0.12806337174E+02  0.18578835406E+02 -0.33822925625E+02  0.40659140358E+02  0.00000000000E+00 0.  1.
         11    1    3    3    0    0 -0.32946070410E+00  0.10036254847E+01 -0.31918104164E+01  0.33620622339E+01  0.51100000000E-03 0. -1.
        -11    1    3    3    0    0 -0.58562812615E+01 -0.35697623117E+01  0.65540479147E+00  0.68897597112E+01  0.51100000000E-03 0.  1.
         12    1    3    3    0    0 -0.66205952082E+01 -0.16012698579E+02  0.36359331250E+02  0.40277037697E+02  0.00000000000E+00 0. -1.
</event>
<event>
 7    1  0.8697654E-014  0.5052886E+02  0.7816164E-02  0.1300439E+00
        -11   -1    0    0    0    0  0.00000000000E+00  0.00000000000E+00  0.45593999997E+02  0.45594000000E+02  0.51100000000E-03 0. -1.
         11   -1    0    0    0    0 -0.00000000000E+00 -0.00000000000E+00 -0.45593999997E+02  0.45594000000E+02  0.51100000000E-03 0.  1.
    9900012    2    1    2    0    0 -0.36376448746E+02  0.77118494324E+00  0.18147318655E+02  0.50528856822E+02  0.29999990798E+02 0.  0.
        -12    1    1    2    0    0  0.36376448746E+02 -0.77118494324E+00 -0.18147318655E+02  0.40659143178E+02  0.00000000000E+00 0.  1.
         11    1    3    3    0    0 -0.15397855245E+02 -0.51083709687E+01  0.18409126189E+02  0.24537427074E+02  0.51100000000E-03 0. -1.
        -11    1    3    3    0    0 -0.13594544392E+02 -0.25528471060E+01  0.33191747853E+01  0.14224822919E+02  0.51100000000E-03 0.  1.
        -12    1    3    3    0    0 -0.73840491090E+01  0.84324030179E+01 -0.35809823197E+01  0.11766606829E+02  0.00000000000E+00 0.  1.
</event>
<event>
 7    1  0.8697654E-014  0.5052886E+02  0.7816164E-02  0.1300439E+00
        -11   -1    0    0    0    0  0.00000000000E+00  0.00000000000E+00  0.45593999997E+02  0.45594000000E+02  0.51100000000E-03 0. -1.
         11   -1    0    0    0    0 -0.00000000000E+00 -0.00000000000E+00 -0.45593999997E+02  0.45594000000E+02  0.51100000000E-03 0.  1.
    9900012    2    1    2    0    0  0.36025829260E+02 -0.60039622080E+01  0.17867773610E+02  0.50528864866E+02  0.30000015246E+02 0.  0.
        -12    1    1    2    0    0 -0.36025829260E+02  0.60039622080E+01 -0.17867773610E+02  0.40659135134E+02  0.00000000000E+00 0.  1.
         11    1    3    3    0    0  0.13296991974E+02 -0.26152494734E+01  0.16757978562E+02  0.21551783479E+02  0.51100000000E-03 0. -1.
        -11    1    3    3    0    0 -0.27547612239E+01 -0.15283250311E+00  0.17742844684E+01  0.32802671859E+01  0.51100000000E-03 0.  1.
         12    1    3    3    0    0  0.25483598510E+02 -0.32358802315E+01 -0.66448942101E+00  0.25696814201E+02  0.00000000000E+00 0. -1.
</event>
<event>
 7    1  0.8697654E-014  0.5052887E+02  0.7816164E-02  0.1300439E+00
        -11   -1    0    0    0    0  0.00000000000E+00  0.00000000000E+00  0.45593999997E+02  0.45594000000E+02  0.51100000000E-03 0.  1.
         11   -1    0    0    0    0 -0.00000000000E+00 -0.00000000000E+00 -0.45593999997E+02  0.45594000000E+02  0.51100000000E-03 0. -1.
    9900012    2    1    2    0    0  0.14717073339E+02  0.35498917245E+02 -0.13281559963E+02  0.50528865623E+02  0.30000017547E+02 0.  0.
         12    1    1    2    0    0 -0.14717073339E+02 -0.35498917245E+02  0.13281559963E+02  0.40659134377E+02  0.00000000000E+00 0. -1.
         11    1    3    3    0    0  0.13645016826E+02  0.31188721739E+02 -0.14124915905E+02  0.36856968099E+02  0.51100000000E-03 0.  1.
        -11    1    3    3    0    0  0.51218724290E+01 -0.11906709555E+01  0.35281325804E+01  0.63323766683E+01  0.51100000000E-03 0. -1.
        -12    1    3    3    0    0 -0.40498159157E+01  0.55008664622E+01 -0.26847766385E+01  0.73395208552E+01  0.00000000000E+00 0.  1.
</event>
<event>
 7    1  0.8697654E-014  0.5052886E+02  0.7816164E-02  0.1300439E+00
        -11   -1    0    0    0    0  0.00000000000E+00  0.00000000000E+00  0.45593999997E+02  0.45594000000E+02  0.51100000000E-03 0.  1.
         11   -1    0    0    0    0 -0.00000000000E+00 -0.00000000000E+00 -0.45593999997E+02  0.45594000000E+02  0.51100000000E-03 0. -1.
    9900012    2    1    2    0    0  0.33221234005E+02 -0.21388663493E+02  0.95937455319E+01  0.50528864886E+02  0.30000015308E+02 0.  0.
         12    1    1    2    0    0 -0.33221234005E+02  0.21388663493E+02 -0.95937455319E+01  0.40659135114E+02  0.00000000000E+00 0. -1.
         11    1    3    3    0    0  0.56884817381E+00 -0.17844094897E+01 -0.48317787043E+01  0.51820643744E+01  0.51100000000E-03 0. -1.
        -11    1    3    3    0    0  0.20524252092E+02 -0.11968298435E+01  0.10004610963E+02  0.22864154618E+02  0.51100000000E-03 0.  1.
        -12    1    3    3    0    0  0.12128133740E+02 -0.18407424160E+02  0.44209132735E+01  0.22482645894E+02  0.00000000000E+00 0.  1.
</event>
<event>
 7    1  0.8697654E-014  0.5052886E+02  0.7816164E-02  0.1300439E+00
        -11   -1    0    0    0    0  0.00000000000E+00  0.00000000000E+00  0.45593999997E+02  0.45594000000E+02  0.51100000000E-03 0.  1.
         11   -1    0    0    0    0 -0.00000000000E+00 -0.00000000000E+00 -0.45593999997E+02  0.45594000000E+02  0.51100000000E-03 0. -1.
    9900012    2    1    2    0    0 -0.35367680337E+02  0.20056879853E+02 -0.12129376267E+00  0.50528856452E+02  0.29999989673E+02 0.  0.
        -12    1    1    2    0    0  0.35367680337E+02 -0.20056879853E+02  0.12129376267E+00  0.40659143548E+02  0.00000000000E+00 0.  1.
         11    1    3    3    0    0 -0.53407494638E+01 -0.20573644963E+01 -0.32158653224E+01  0.65649176338E+01  0.51100000000E-03 0. -1.
        -11    1    3    3    0    0 -0.92081381701E+01  0.14631791178E+00  0.92785154544E+01  0.13072951724E+02  0.51100000000E-03 0.  1.
         12    1    3    3    0    0 -0.20818792703E+02  0.21967926437E+02 -0.61839438947E+01  0.30890987094E+02  0.00000000000E+00 0. -1.
</event>
<event>
 7    1  0.8697654E-014  0.5052886E+02  0.7816164E-02  0.1300439E+00
        -11   -1    0    0    0    0  0.00000000000E+00  0.00000000000E+00  0.45593999997E+02  0.45594000000E+02  0.51100000000E-03 0. -1.
         11   -1    0    0    0    0 -0.00000000000E+00 -0.00000000000E+00 -0.45593999997E+02  0.45594000000E+02  0.51100000000E-03 0.  1.
    9900012    2    1    2    0    0 -0.96962589159E+01  0.20520965369E+02  0.33734824856E+02  0.50528857551E+02  0.29999993012E+02 0.  0.
        -12    1    1    2    0    0  0.96962589159E+01 -0.20520965369E+02 -0.33734824856E+02  0.40659142449E+02  0.00000000000E+00 0.  1.
         11    1    3    3    0    0 -0.30813869854E+01 -0.15325831911E+01  0.98987574045E+01  0.10479940620E+02  0.51100000000E-03 0. -1.
        -11    1    3    3    0    0 -0.46402387329E+01  0.19551681866E+01  0.18482628487E+02  0.19156253658E+02  0.51100000000E-03 0.  1.
         12    1    3    3    0    0 -0.19746331976E+01  0.20098380373E+02  0.53534389638E+01  0.20892663273E+02  0.00000000000E+00 0. -1.
</event>
<event>
 7    1  0.8697654E-014  0.5052886E+02  0.7816164E-02  0.1300439E+00
        -11   -1    0    0    0    0  0.00000000000E+00  0.00000000000E+00  0.45593999997E+02  0.45594000000E+02  0.51100000000E-03 0.  1.
         11   -1    0    0    0    0 -0.00000000000E+00 -0.00000000000E+00 -0.45593999997E+02  0.45594000000E+02  0.51100000000E-03 0. -1.
    9900012    2    1    2    0    0 -0.20696592863E+02 -0.32003141448E+02  0.14163886023E+02  0.50528859749E+02  0.29999999692E+02 0.  0.
        -12    1    1    2    0    0  0.20696592863E+02  0.32003141448E+02 -0.14163886023E+02  0.40659140251E+02  0.00000000000E+00 0.  1.
         11    1    3    3    0    0  0.13714253329E+01 -0.76260352604E+01 -0.86385257071E+00  0.77963749757E+01  0.51100000000E-03 0. -1.
        -11    1    3    3    0    0 -0.24859726550E+01 -0.15223644588E+02  0.14408357797E+02  0.21107822940E+02  0.51100000000E-03 0.  1.
        -12    1    3    3    0    0 -0.19582045541E+02 -0.91534616001E+01  0.61938079631E+00  0.21624661834E+02  0.00000000000E+00 0.  1.
</event>
<event>
 7    1  0.8697654E-014  0.5052886E+02  0.7816164E-02  0.1300439E+00
        -11   -1    0    0    0    0  0.00000000000E+00  0.00000000000E+00  0.45593999997E+02  0.45594000000E+02  0.51100000000E-03 0. -1.
         11   -1    0    0    0    0 -0.00000000000E+00 -0.00000000000E+00 -0.45593999997E+02  0.45594000000E+02  0.51100000000E-03 0.  1.
    9900012    2    1    2    0    0  0.36132429037E+01 -0.18887213792E+02 -0.35824337644E+02  0.50528861584E+02  0.30000005270E+02 0.  0.
         12    1    1    2    0    0 -0.36132429037E+01  0.18887213792E+02  0.35824337644E+02  0.40659138416E+02  0.00000000000E+00 0. -1.
         11    1    3    3    0    0  0.73191956649E+01 -0.51566653730E+01 -0.40941766715E+01  0.98450041051E+01  0.51100000000E-03 0.  1.
        -11    1    3    3    0    0 -0.23306875526E+01 -0.36387418725E+01  0.24851234053E+01  0.49848154914E+01  0.51100000000E-03 0. -1.
        -12    1    3    3    0    0 -0.13752652086E+01 -0.10091806547E+02 -0.34215284378E+02  0.35699041987E+02  0.00000000000E+00 0.  1.
</event>
<event>
 7    1  0.8697654E-014  0.5052892E+02  0.7816164E-02  0.1300439E+00
        -11   -1    0    0    0    0  0.00000000000E+00  0.00000000000E+00  0.45593999997E+02  0.45594000000E+02  0.51100000000E-03 0. -1.
         11   -1    0    0    0    0 -0.00000000000E+00 -0.00000000000E+00 -0.45593999997E+02  0.45594000000E+02  0.51100000000E-03 0.  1.
    9900012    2    1    2    0    0 -0.39122223854E+02  0.11052540089E+02 -0.67349923344E+00  0.50528921765E+02  0.30000188195E+02 0.  0.
         12    1    1    2    0    0  0.39122223854E+02 -0.11052540089E+02  0.67349923344E+00  0.40659078235E+02  0.00000000000E+00 0. -1.
         11    1    3    3    0    0 -0.60607241867E+01  0.72254344918E+01 -0.58119889731E+01  0.11077838117E+02  0.51100000000E-03 0. -1.
        -11    1    3    3    0    0 -0.29244526760E+01  0.32436104442E+01  0.80599669637E+01  0.91671424056E+01  0.51100000000E-03 0.  1.
        -12    1    3    3    0    0 -0.30137046992E+02  0.58349515298E+00 -0.29214772241E+01  0.30283941242E+02  0.00000000000E+00 0.  1.
</event>
<event>
 7    1  0.8840985E-014  0.5052885E+02  0.7816164E-02  0.1300439E+00
        -11   -1    0    0    0    0  0.00000000000E+00  0.00000000000E+00  0.45593999997E+02  0.45594000000E+02  0.51100000000E-03 0. -1.
         11   -1    0    0    0    0 -0.00000000000E+00 -0.00000000000E+00 -0.45593999997E+02  0.45594000000E+02  0.51100000000E-03 0.  1.
    9900012    2    1    2    0    0  0.99414086262E+01 -0.13187005913E+02 -0.37154247097E+02  0.50528845954E+02  0.29999957760E+02 0.  0.
         12    1    1    2    0    0 -0.99414086262E+01  0.13187005913E+02  0.37154247097E+02  0.40659154046E+02  0.00000000000E+00 0. -1.
         11    1    3    3    0    0 -0.26975402611E+01 -0.83576860035E+01 -0.35363914135E+01  0.94675077652E+01  0.51100000000E-03 0. -1.
        -11    1    3    3    0    0 -0.29251247166E+01  0.19503102182E+01 -0.16803246041E+02  0.17167094755E+02  0.51100000000E-03 0.  1.
         12    1    3    3    0    0  0.15564073604E+02 -0.67796301281E+01 -0.16814609642E+02  0.23894243433E+02  0.00000000000E+00 0. -1.
</event>
<event>
 7    1  0.8697654E-014  0.5052885E+02  0.7816164E-02  0.1300439E+00
        -11   -1    0    0    0    0  0.00000000000E+00  0.00000000000E+00  0.45593999997E+02  0.45594000000E+02  0.51100000000E-03 0. -1.
         11   -1    0    0    0    0 -0.00000000000E+00 -0.00000000000E+00 -0.45593999997E+02  0.45594000000E+02  0.51100000000E-03 0.  1.
    9900012    2    1    2    0    0 -0.20037002653E+02 -0.26267991869E+02  0.23699738360E+02  0.50528850101E+02  0.29999970367E+02 0.  0.
        -12    1    1    2    0    0  0.20037002653E+02  0.26267991869E+02 -0.23699738360E+02  0.40659149899E+02  0.00000000000E+00 0.  1.
         11    1    3    3    0    0 -0.62704838102E+01 -0.10223785611E+02  0.76613836192E+01  0.14231709618E+02  0.51100000000E-03 0. -1.
        -11    1    3    3    0    0 -0.13649523981E+02 -0.31967407148E+01  0.18503895975E+02  0.23214711340E+02  0.51100000000E-03 0.  1.
        -12    1    3    3    0    0 -0.11699486188E+00 -0.12847465543E+02 -0.24655412343E+01  0.13082429142E+02  0.00000000000E+00 0.  1.
</event>
<event>
 7    1  0.8697654E-014  0.5052888E+02  0.7816164E-02  0.1300439E+00
        -11   -1    0    0    0    0  0.00000000000E+00  0.00000000000E+00  0.45593999997E+02  0.45594000000E+02  0.51100000000E-03 0. -1.
         11   -1    0    0    0    0 -0.00000000000E+00 -0.00000000000E+00 -0.45593999997E+02  0.45594000000E+02  0.51100000000E-03 0.  1.
    9900012    2    1    2    0    0  0.21623410420E+01 -0.31567386338E+02 -0.25534068977E+02  0.50528877069E+02  0.30000052339E+02 0.  0.
         12    1    1    2    0    0 -0.21623410420E+01  0.31567386338E+02  0.25534068977E+02  0.40659122931E+02  0.00000000000E+00 0. -1.
         11    1    3    3    0    0 -0.80786018322E+01 -0.10343954696E+02 -0.10648953833E+02  0.16901521361E+02  0.51100000000E-03 0. -1.
        -11    1    3    3    0    0 -0.91137167045E+00 -0.18362146275E+02 -0.69986766096E+01  0.19671819659E+02  0.51100000000E-03 0.  1.
        -12    1    3    3    0    0  0.11152314545E+02 -0.28612853664E+01 -0.78864385349E+01  0.13955536049E+02  0.00000000000E+00 0.  1.
</event>
<event>
 7    1  0.8697654E-014  0.5052885E+02  0.7816164E-02  0.1300439E+00
        -11   -1    0    0    0    0  0.00000000000E+00  0.00000000000E+00  0.45593999997E+02  0.45594000000E+02  0.51100000000E-03 0. -1.
         11   -1    0    0    0    0 -0.00000000000E+00 -0.00000000000E+00 -0.45593999997E+02  0.45594000000E+02  0.51100000000E-03 0.  1.
    9900012    2    1    2    0    0  0.41868310785E+01  0.90420584602E+01  0.39419260136E+02  0.50528850410E+02  0.29999971307E+02 0.  0.
        -12    1    1    2    0    0 -0.41868310785E+01 -0.90420584602E+01 -0.39419260136E+02  0.40659149590E+02  0.00000000000E+00 0.  1.
         11    1    3    3    0    0 -0.42783329855E+01  0.10032825100E+02  0.38461279256E+02  0.39977890325E+02  0.51100000000E-03 0. -1.
        -11    1    3    3    0    0  0.50064624119E+01  0.15916503878E+01  0.26875371923E+01  0.59009213907E+01  0.51100000000E-03 0.  1.
        -12    1    3    3    0    0  0.34587016521E+01 -0.25824170276E+01 -0.17295563119E+01  0.46500386943E+01  0.00000000000E+00 0.  1.
</event>
<event>
 7    1  0.8697654E-014  0.5052886E+02  0.7816164E-02  0.1300439E+00
        -11   -1    0    0    0    0  0.00000000000E+00  0.00000000000E+00  0.45593999997E+02  0.45594000000E+02  0.51100000000E-03 0.  1.
         11   -1    0    0    0    0 -0.00000000000E+00 -0.00000000000E+00 -0.45593999997E+02  0.45594000000E+02  0.51100000000E-03 0. -1.
    9900012    2    1    2    0    0 -0.67598545633E+01 -0.27384691476E+02 -0.29283936024E+02  0.50528857485E+02  0.29999992812E+02 0.  0.
         12    1    1    2    0    0  0.67598545633E+01  0.27384691476E+02  0.29283936024E+02  0.40659142515E+02  0.00000000000E+00 0. -1.
         11    1    3    3    0    0 -0.10558631703E+02 -0.26985611799E+01 -0.18554880504E+01  0.11054852874E+02  0.51100000000E-03 0.  1.
        -11    1    3    3    0    0 -0.12122463767E+01 -0.10333041127E+02 -0.20020716931E+02  0.22562588213E+02  0.51100000000E-03 0. -1.
        -12    1    3    3    0    0  0.50110235169E+01 -0.14353089169E+02 -0.74077310432E+01  0.16911416398E+02  0.00000000000E+00 0.  1.
</event>
<event>
 7    1  0.8697654E-014  0.5052886E+02  0.7816164E-02  0.1300439E+00
        -11   -1    0    0    0    0  0.00000000000E+00  0.00000000000E+00  0.45593999997E+02  0.45594000000E+02  0.51100000000E-03 0. -1.
         11   -1    0    0    0    0 -0.00000000000E+00 -0.00000000000E+00 -0.45593999997E+02  0.45594000000E+02  0.51100000000E-03 0.  1.
    9900012    2    1    2    0    0  0.35158045539E+02 -0.81922688502E+01  0.18707327054E+02  0.50528861783E+02  0.30000005877E+02 0.  0.
        -12    1    1    2    0    0 -0.35158045539E+02  0.81922688502E+01 -0.18707327054E+02  0.40659138217E+02  0.00000000000E+00 0.  1.
         11    1    3    3    0    0  0.45489186500E+01  0.36226680902E+01 -0.20933647610E+01  0.61804984637E+01  0.51100000000E-03 0. -1.
        -11    1    3    3    0    0  0.44465789474E+01  0.19499250396E+01  0.12847834990E+02  0.13734669133E+02  0.51100000000E-03 0.  1.
        -12    1    3    3    0    0  0.26162547941E+02 -0.13764861980E+02  0.79528568253E+01  0.30613694187E+02  0.00000000000E+00 0.  1.
</event>
<event>
 7    1  0.8697654E-014  0.5052883E+02  0.7816164E-02  0.1300439E+00
        -11   -1    0    0    0    0  0.00000000000E+00  0.00000000000E+00  0.45593999997E+02  0.45594000000E+02  0.51100000000E-03 0. -1.
         11   -1    0    0    0    0 -0.00000000000E+00 -0.00000000000E+00 -0.45593999997E+02  0.45594000000E+02  0.51100000000E-03 0.  1.
    9900012    2    1    2    0    0  0.92080564494E+00  0.13399830916E+02  0.38376622444E+02  0.50528825121E+02  0.29999894439E+02 0.  0.
        -12    1    1    2    0    0 -0.92080564494E+00 -0.13399830916E+02 -0.38376622444E+02  0.40659174879E+02  0.00000000000E+00 0.  1.
         11    1    3    3    0    0  0.81704470571E+01  0.71765653219E+01  0.32584093806E+02  0.34350872832E+02  0.51100000000E-03 0. -1.
        -11    1    3    3    0    0 -0.24104427862E+01 -0.34891498990E+01  0.19358918403E+01  0.46617677893E+01  0.51100000000E-03 0.  1.
        -12    1    3    3    0    0 -0.48391986259E+01  0.97124154929E+01  0.38566367979E+01  0.11516184500E+02  0.00000000000E+00 0.  1.
</event>
<event>
 7    1  0.8697654E-014  0.5052886E+02  0.7816164E-02  0.1300439E+00
        -11   -1    0    0    0    0  0.00000000000E+00  0.00000000000E+00  0.45593999997E+02  0.45594000000E+02  0.51100000000E-03 0. -1.
         11   -1    0    0    0    0 -0.00000000000E+00 -0.00000000000E+00 -0.45593999997E+02  0.45594000000E+02  0.51100000000E-03 0.  1.
    9900012    2    1    2    0    0 -0.16998535044E+02 -0.15026994052E+01 -0.36904710510E+02  0.50528856416E+02  0.29999989563E+02 0.  0.
         12    1    1    2    0    0  0.16998535044E+02  0.15026994052E+01  0.36904710510E+02  0.40659143584E+02  0.00000000000E+00 0. -1.
         11    1    3    3    0    0 -0.45615124059E+01 -0.52363118326E+01 -0.19492252276E+01  0.72128937526E+01  0.51100000000E-03 0. -1.
        -11    1    3    3    0    0  0.44671114427E+00 -0.58187451654E+01 -0.12200856019E+01  0.59620428783E+01  0.51100000000E-03 0.  1.
        -12    1    3    3    0    0 -0.12883733783E+02  0.95523575928E+01 -0.33735399680E+02  0.37353919785E+02  0.00000000000E+00 0.  1.
</event>
<event>
 7    1  0.8697654E-014  0.5052887E+02  0.7816164E-02  0.1300439E+00
        -11   -1    0    0    0    0  0.00000000000E+00  0.00000000000E+00  0.45593999997E+02  0.45594000000E+02  0.51100000000E-03 0. -1.
         11   -1    0    0    0    0 -0.00000000000E+00 -0.00000000000E+00 -0.45593999997E+02  0.45594000000E+02  0.51100000000E-03 0.  1.
    9900012    2    1    2    0    0 -0.21478523954E+02  0.18983139169E+02  0.28835368773E+02  0.50528867493E+02  0.30000023232E+02 0.  0.
        -12    1    1    2    0    0  0.21478523954E+02 -0.18983139169E+02 -0.28835368773E+02  0.40659132507E+02  0.00000000000E+00 0.  1.
         11    1    3    3    0    0 -0.42116195983E+01  0.64312103995E+01 -0.50544275847E+01  0.92002959362E+01  0.51100000000E-03 0.  1.
        -11    1    3    3    0    0 -0.13112214251E+02  0.58439172467E+01  0.14543784321E+02  0.20435341788E+02  0.51100000000E-03 0. -1.
        -12    1    3    3    0    0 -0.41546901043E+01  0.67080115229E+01  0.19346012037E+02  0.20893229769E+02  0.00000000000E+00 0.  1.
</event>
<event>
 7    1  0.8697654E-014  0.5052880E+02  0.7816164E-02  0.1300439E+00
        -11   -1    0    0    0    0  0.00000000000E+00  0.00000000000E+00  0.45593999997E+02  0.45594000000E+02  0.51100000000E-03 0.  1.
         11   -1    0    0    0    0 -0.00000000000E+00 -0.00000000000E+00 -0.45593999997E+02  0.45594000000E+02  0.51100000000E-03 0. -1.
    9900012    2    1    2    0    0 -0.12594227504E+01  0.40138003085E+02  0.63659077146E+01  0.50528804012E+02  0.29999830275E+02 0.  0.
        -12    1    1    2    0    0  0.12594227504E+01 -0.40138003085E+02 -0.63659077146E+01  0.40659195988E+02  0.00000000000E+00 0.  1.
         11    1    3    3    0    0 -0.83157364093E+01  0.14528459768E+02  0.30173686624E+01  0.17009765700E+02  0.51100000000E-03 0. -1.
        -11    1    3    3    0    0 -0.44264406657E+00 -0.43456862713E+00 -0.50945241037E+01  0.51321496242E+01  0.51100000000E-03 0.  1.
         12    1    3    3    0    0  0.74989577255E+01  0.26044111945E+02  0.84430631558E+01  0.28386888689E+02  0.00000000000E+00 0. -1.
</event>
<event>
 7    1  0.8697654E-014  0.5052886E+02  0.7816164E-02  0.1300439E+00
        -11   -1    0    0    0    0  0.00000000000E+00  0.00000000000E+00  0.45593999997E+02  0.45594000000E+02  0.51100000000E-03 0. -1.
         11   -1    0    0    0    0 -0.00000000000E+00 -0.00000000000E+00 -0.45593999997E+02  0.45594000000E+02  0.51100000000E-03 0.  1.
    9900012    2    1    2    0    0  0.29346612588E+02  0.40449936227E+01 -0.27849238524E+02  0.50528859206E+02  0.29999998041E+02 0.  0.
         12    1    1    2    0    0 -0.29346612588E+02 -0.40449936227E+01  0.27849238524E+02  0.40659140794E+02  0.00000000000E+00 0. -1.
         11    1    3    3    0    0  0.89825028707E+01 -0.30653063349E+01 -0.12812707948E+01  0.95772185868E+01  0.51100000000E-03 0. -1.
        -11    1    3    3    0    0  0.52392958047E+01  0.11679102780E+02 -0.20205451405E+02  0.23918861366E+02  0.51100000000E-03 0.  1.
         12    1    3    3    0    0  0.15124813912E+02 -0.45688028226E+01 -0.63625163238E+01  0.17032779253E+02  0.00000000000E+00 0. -1.
</event>
<event>
 7    1  0.8697654E-014  0.5052887E+02  0.7816164E-02  0.1300439E+00
        -11   -1    0    0    0    0  0.00000000000E+00  0.00000000000E+00  0.45593999997E+02  0.45594000000E+02  0.51100000000E-03 0. -1.
         11   -1    0    0    0    0 -0.00000000000E+00 -0.00000000000E+00 -0.45593999997E+02  0.45594000000E+02  0.51100000000E-03 0.  1.
    9900012    2    1    2    0    0 -0.10829260086E+02 -0.13848609291E+02  0.36662083500E+02  0.50528865481E+02  0.30000017115E+02 0.  0.
        -12    1    1    2    0    0  0.10829260086E+02  0.13848609291E+02 -0.36662083500E+02  0.40659134519E+02  0.00000000000E+00 0.  1.
         11    1    3    3    0    0 -0.52835104932E+01  0.64403622777E+00  0.85809735579E+01  0.10097691482E+02  0.51100000000E-03 0. -1.
        -11    1    3    3    0    0 -0.11630165671E+02 -0.16800993233E+02  0.26958575705E+02  0.33827487809E+02  0.51100000000E-03 0.  1.
         12    1    3    3    0    0  0.60844160781E+01  0.23083477143E+01  0.11225342365E+01  0.66036861898E+01  0.00000000000E+00 0. -1.
</event>
<event>
 7    1  0.8697654E-014  0.5052886E+02  0.7816164E-02  0.1300439E+00
        -11   -1    0    0    0    0  0.00000000000E+00  0.00000000000E+00  0.45593999997E+02  0.45594000000E+02  0.51100000000E-03 0. -1.
         11   -1    0    0    0    0 -0.00000000000E+00 -0.00000000000E+00 -0.45593999997E+02  0.45594000000E+02  0.51100000000E-03 0.  1.
    9900012    2    1    2    0    0  0.43847781858E+01  0.37273445148E+01  0.40249801603E+02  0.50528857043E+02  0.29999991469E+02 0.  0.
        -12    1    1    2    0    0 -0.43847781858E+01 -0.37273445148E+01 -0.40249801603E+02  0.40659142957E+02  0.00000000000E+00 0.  1.
         11    1    3    3    0    0  0.79150886257E+01  0.64878796692E+01  0.29564402071E+02  0.31285700897E+02  0.51100000000E-03 0. -1.
        -11    1    3    3    0    0 -0.13853094213E+01 -0.48013724513E+01  0.13960621076E+02  0.14828054515E+02  0.51100000000E-03 0.  1.
        -12    1    3    3    0    0 -0.21450010185E+01  0.20408372969E+01 -0.32752215446E+01  0.44151016305E+01  0.00000000000E+00 0.  1.
</event>
<event>
 7    1  0.8697654E-014  0.5052886E+02  0.7816164E-02  0.1300439E+00
        -11   -1    0    0    0    0  0.00000000000E+00  0.00000000000E+00  0.45593999997E+02  0.45594000000E+02  0.51100000000E-03 0. -1.
         11   -1    0    0    0    0 -0.00000000000E+00 -0.00000000000E+00 -0.45593999997E+02  0.45594000000E+02  0.51100000000E-03 0.  1.
    9900012    2    1    2    0    0  0.78383951862E+01  0.70430183996E+01 -0.39269852418E+02  0.50528857655E+02  0.29999993329E+02 0.  0.
         12    1    1    2    0    0 -0.78383951862E+01 -0.70430183996E+01  0.39269852418E+02  0.40659142345E+02  0.00000000000E+00 0. -1.
         11    1    3    3    0    0  0.65038405335E+01 -0.72196206666E+01 -0.49791062444E+01  0.10918533029E+02  0.51100000000E-03 0. -1.
        -11    1    3    3    0    0 -0.43336472600E+01 -0.11244027016E+00 -0.65104748395E+01  0.78217277046E+01  0.51100000000E-03 0.  1.
        -12    1    3    3    0    0  0.56682019128E+01  0.14375079336E+02 -0.27780271334E+02  0.31788596922E+02  0.00000000000E+00 0.  1.
</event>
<event>
 7    1  0.8697654E-014  0.5052885E+02  0.7816164E-02  0.1300439E+00
        -11   -1    0    0    0    0  0.00000000000E+00  0.00000000000E+00  0.45593999997E+02  0.45594000000E+02  0.51100000000E-03 0. -1.
         11   -1    0    0    0    0 -0.00000000000E+00 -0.00000000000E+00 -0.45593999997E+02  0.45594000000E+02  0.51100000000E-03 0.  1.
    9900012    2    1    2    0    0  0.32502522193E+01 -0.28336889896E+02  0.28976247877E+02  0.50528850852E+02  0.29999972650E+02 0.  0.
        -12    1    1    2    0    0 -0.32502522193E+01  0.28336889896E+02 -0.28976247877E+02  0.40659149148E+02  0.00000000000E+00 0.  1.
         11    1    3    3    0    0 -0.54326375986E+01 -0.15283440751E+02  0.99399878100E+01  0.19023681831E+02  0.51100000000E-03 0. -1.
        -11    1    3    3    0    0 -0.36357365757E+01  0.12650518216E+01 -0.99189822724E+00  0.39752734388E+01  0.51100000000E-03 0.  1.
         12    1    3    3    0    0  0.12318626394E+02 -0.14318500966E+02  0.20028158294E+02  0.27529895582E+02  0.00000000000E+00 0. -1.
</event>
<event>
 7    1  0.8697654E-014  0.5052886E+02  0.7816164E-02  0.1300439E+00
        -11   -1    0    0    0    0  0.00000000000E+00  0.00000000000E+00  0.45593999997E+02  0.45594000000E+02  0.51100000000E-03 0. -1.
         11   -1    0    0    0    0 -0.00000000000E+00 -0.00000000000E+00 -0.45593999997E+02  0.45594000000E+02  0.51100000000E-03 0.  1.
    9900012    2    1    2    0    0 -0.71383174551E+01 -0.28959155925E+02  0.27632908611E+02  0.50528856794E+02  0.29999990710E+02 0.  0.
        -12    1    1    2    0    0  0.71383174551E+01  0.28959155925E+02 -0.27632908611E+02  0.40659143206E+02  0.00000000000E+00 0.  1.
         11    1    3    3    0    0 -0.58857111777E+01 -0.14815842158E+02  0.26265615932E+02  0.30725125801E+02  0.51100000000E-03 0. -1.
        -11    1    3    3    0    0  0.54886729484E+01 -0.59830285887E+01  0.37668359741E+01  0.89504868775E+01  0.51100000000E-03 0.  1.
         12    1    3    3    0    0 -0.67412792257E+01 -0.81602851788E+01 -0.23995432959E+01  0.10853244115E+02  0.00000000000E+00 0. -1.
</event>
<event>
 7    1  0.8697654E-014  0.5052894E+02  0.7816164E-02  0.1300439E+00
        -11   -1    0    0    0    0  0.00000000000E+00  0.00000000000E+00  0.45593999997E+02  0.45594000000E+02  0.51100000000E-03 0. -1.
         11   -1    0    0    0    0 -0.00000000000E+00 -0.00000000000E+00 -0.45593999997E+02  0.45594000000E+02  0.51100000000E-03 0.  1.
    9900012    2    1    2    0    0  0.19710023001E+02 -0.30041229140E+02 -0.19031512825E+02  0.50528942763E+02  0.30000252023E+02 0.  0.
         12    1    1    2    0    0 -0.19710023001E+02  0.30041229140E+02  0.19031512825E+02  0.40659057237E+02  0.00000000000E+00 0. -1.
         11    1    3    3    0    0 -0.29145617319E+01 -0.28786896395E+01 -0.27231207022E+01  0.49190355507E+01  0.51100000000E-03 0. -1.
        -11    1    3    3    0    0 -0.18525814470E+01 -0.31156186771E+01 -0.10111736797E+02  0.10741804274E+02  0.51100000000E-03 0.  1.
         12    1    3    3    0    0  0.24477166180E+02 -0.24046920823E+02 -0.61966553263E+01  0.34868102938E+02  0.00000000000E+00 0. -1.
</event>
<event>
 7    1  0.8762944E-014  0.5052886E+02  0.7816164E-02  0.1300439E+00
        -11   -1    0    0    0    0  0.00000000000E+00  0.00000000000E+00  0.45593999997E+02  0.45594000000E+02  0.51100000000E-03 0. -1.
         11   -1    0    0    0    0 -0.00000000000E+00 -0.00000000000E+00 -0.45593999997E+02  0.45594000000E+02  0.51100000000E-03 0.  1.
    9900012    2    1    2    0    0 -0.14656114147E+02  0.34898304068E+02 -0.14848308215E+02  0.50528861229E+02  0.30000004193E+02 0.  0.
         12    1    1    2    0    0  0.14656114147E+02 -0.34898304068E+02  0.14848308215E+02  0.40659138771E+02  0.00000000000E+00 0. -1.
         11    1    3    3    0    0  0.28025258151E+01  0.12886311914E+02  0.10013790921E+01  0.13225503621E+02  0.51100000000E-03 0. -1.
        -11    1    3    3    0    0 -0.18897089148E+02  0.24436973553E+02 -0.15108925991E+02  0.34388156385E+02  0.51100000000E-03 0.  1.
         12    1    3    3    0    0  0.14384491866E+01 -0.24249813983E+01 -0.74076131638E+00  0.29152012233E+01  0.00000000000E+00 0. -1.
</event>
<event>
 7    1  0.8697654E-014  0.5052887E+02  0.7816164E-02  0.1300439E+00
        -11   -1    0    0    0    0  0.00000000000E+00  0.00000000000E+00  0.45593999997E+02  0.45594000000E+02  0.51100000000E-03 0. -1.
         11   -1    0    0    0    0 -0.00000000000E+00 -0.00000000000E+00 -0.45593999997E+02  0.45594000000E+02  0.51100000000E-03 0.  1.
    9900012    2    1    2    0    0  0.78155518798E+01 -0.15997825361E+02  0.36553409882E+02  0.50528867675E+02  0.30000023785E+02 0.  0.
        -12    1    1    2    0    0 -0.78155518798E+01  0.15997825361E+02 -0.36553409882E+02  0.40659132325E+02  0.00000000000E+00 0.  1.
         11    1    3    3    0    0  0.72162432053E+01  0.18019459155E+01  0.20381344509E+02  0.21696091337E+02  0.51100000000E-03 0.  1.
        -11    1    3    3    0    0  0.29220222628E+01 -0.17061498059E+02  0.18588909857E+02  0.25400403541E+02  0.51100000000E-03 0. -1.
        -12    1    3    3    0    0 -0.23227135883E+01 -0.73827321706E+00 -0.24168444838E+01  0.34323727966E+01  0.00000000000E+00 0.  1.
</event>
<event>
 7    1  0.8697654E-014  0.5052887E+02  0.7816164E-02  0.1300439E+00
        -11   -1    0    0    0    0  0.00000000000E+00  0.00000000000E+00  0.45593999997E+02  0.45594000000E+02  0.51100000000E-03 0. -1.
         11   -1    0    0    0    0 -0.00000000000E+00 -0.00000000000E+00 -0.45593999997E+02  0.45594000000E+02  0.51100000000E-03 0.  1.
    9900012    2    1    2    0    0 -0.14164396360E+02 -0.19624008034E+02  0.32671599205E+02  0.50528865600E+02  0.30000017477E+02 0.  0.
        -12    1    1    2    0    0  0.14164396360E+02  0.19624008034E+02 -0.32671599205E+02  0.40659134400E+02  0.00000000000E+00 0.  1.
         11    1    3    3    0    0 -0.50482054414E+01 -0.13524936081E+02  0.31016938961E+01  0.14765797624E+02  0.51100000000E-03 0. -1.
        -11    1    3    3    0    0 -0.44920488077E-01 -0.44697392684E+01 -0.32300837564E+00  0.44816204267E+01  0.51100000000E-03 0.  1.
        -12    1    3    3    0    0 -0.90712704307E+01 -0.16293326841E+01  0.29892913685E+02  0.31281447549E+02  0.00000000000E+00 0.  1.
</event>
<event>
 7    1  0.1030728E-013  0.5052886E+02  0.7816164E-02  0.1300439E+00
        -11   -1    0    0    0    0  0.00000000000E+00  0.00000000000E+00  0.45593999997E+02  0.45594000000E+02  0.51100000000E-03 0. -1.
         11   -1    0    0    0    0 -0.00000000000E+00 -0.00000000000E+00 -0.45593999997E+02  0.45594000000E+02  0.51100000000E-03 0.  1.
    9900012    2    1    2    0    0 -0.11868235666E+02  0.29817970936E+02 -0.24963960210E+02  0.50528859355E+02  0.29999998496E+02 0.  0.
         12    1    1    2    0    0  0.11868235666E+02 -0.29817970936E+02  0.24963960210E+02  0.40659140645E+02  0.00000000000E+00 0. -1.
         11    1    3    3    0    0  0.37826405664E+01 -0.17294063373E+01 -0.80893970276E+00  0.42371688234E+01  0.51100000000E-03 0. -1.
        -11    1    3    3    0    0 -0.98832942033E+00  0.85321993269E+01  0.16358266095E+01  0.87436347908E+01  0.51100000000E-03 0.  1.
        -12    1    3    3    0    0 -0.14662546812E+02  0.23015177947E+02 -0.25790847117E+02  0.37548055741E+02  0.00000000000E+00 0.  1.
</event>
<event>
 7    1  0.8697654E-014  0.5052886E+02  0.7816164E-02  0.1300439E+00
        -11   -1    0    0    0    0  0.00000000000E+00  0.00000000000E+00  0.45593999997E+02  0.45594000000E+02  0.51100000000E-03 0. -1.
         11   -1    0    0    0    0 -0.00000000000E+00 -0.00000000000E+00 -0.45593999997E+02  0.45594000000E+02  0.51100000000E-03 0.  1.
    9900012    2    1    2    0    0 -0.79035612824E+01  0.10494773216E+02  0.38478038128E+02  0.50528856330E+02  0.29999989301E+02 0.  0.
        -12    1    1    2    0    0  0.79035612824E+01 -0.10494773216E+02 -0.38478038128E+02  0.40659143670E+02  0.00000000000E+00 0.  1.
         11    1    3    3    0    0 -0.48196497514E+00  0.11237914254E+01  0.65918056811E+01  0.67042598252E+01  0.51100000000E-03 0. -1.
        -11    1    3    3    0    0 -0.25546170822E+01  0.23317448786E+01 -0.49325152967E+01  0.60243514198E+01  0.51100000000E-03 0.  1.
        -12    1    3    3    0    0 -0.48669792251E+01  0.70392369123E+01  0.36818747744E+02  0.37800245085E+02  0.00000000000E+00 0.  1.
</event>
<event>
 7    1  0.8697654E-014  0.5052885E+02  0.7816164E-02  0.1300439E+00
        -11   -1    0    0    0    0  0.00000000000E+00  0.00000000000E+00  0.45593999997E+02  0.45594000000E+02  0.51100000000E-03 0. -1.
         11   -1    0    0    0    0 -0.00000000000E+00 -0.00000000000E+00 -0.45593999997E+02  0.45594000000E+02  0.51100000000E-03 0.  1.
    9900012    2    1    2    0    0 -0.17861224920E+02 -0.17551761418E+02 -0.32032459583E+02  0.50528854024E+02  0.29999982292E+02 0.  0.
         12    1    1    2    0    0  0.17861224920E+02  0.17551761418E+02  0.32032459583E+02  0.40659145976E+02  0.00000000000E+00 0. -1.
         11    1    3    3    0    0 -0.49092748064E+01 -0.19689769118E+02 -0.21924247136E+02  0.29874079062E+02  0.51100000000E-03 0. -1.
        -11    1    3    3    0    0 -0.16826886750E+01 -0.20071900857E+01 -0.80587085697E+01  0.84736672869E+01  0.51100000000E-03 0.  1.
         12    1    3    3    0    0 -0.11269261439E+02  0.41451977856E+01 -0.20495038778E+01  0.12181107675E+02  0.00000000000E+00 0. -1.
</event>
<event>
 7    1  0.8697654E-014  0.5052886E+02  0.7816164E-02  0.1300439E+00
        -11   -1    0    0    0    0  0.00000000000E+00  0.00000000000E+00  0.45593999997E+02  0.45594000000E+02  0.51100000000E-03 0. -1.
         11   -1    0    0    0    0 -0.00000000000E+00 -0.00000000000E+00 -0.45593999997E+02  0.45594000000E+02  0.51100000000E-03 0.  1.
    9900012    2    1    2    0    0 -0.28661660320E+02  0.65187179787E+01 -0.28092363449E+02  0.50528863997E+02  0.30000012604E+02 0.  0.
         12    1    1    2    0    0  0.28661660320E+02 -0.65187179787E+01  0.28092363449E+02  0.40659136003E+02  0.00000000000E+00 0. -1.
         11    1    3    3    0    0 -0.65434671078E+01  0.50253669288E+01  0.44999152102E+00  0.82627941515E+01  0.51100000000E-03 0.  1.
        -11    1    3    3    0    0 -0.22865412437E+01  0.46647681462E+01 -0.19608538520E+02  0.20285046608E+02  0.51100000000E-03 0. -1.
        -12    1    3    3    0    0 -0.19831651969E+02 -0.31714170963E+01 -0.89338164495E+01  0.21981023237E+02  0.00000000000E+00 0.  1.
</event>
<event>
 7    1  0.8697654E-014  0.5052886E+02  0.7816164E-02  0.1300439E+00
        -11   -1    0    0    0    0  0.00000000000E+00  0.00000000000E+00  0.45593999997E+02  0.45594000000E+02  0.51100000000E-03 0. -1.
         11   -1    0    0    0    0 -0.00000000000E+00 -0.00000000000E+00 -0.45593999997E+02  0.45594000000E+02  0.51100000000E-03 0.  1.
    9900012    2    1    2    0    0 -0.31796695000E+02 -0.60060416933E+01 -0.24618355816E+02  0.50528858435E+02  0.29999995699E+02 0.  0.
         12    1    1    2    0    0  0.31796695000E+02  0.60060416933E+01  0.24618355816E+02  0.40659141565E+02  0.00000000000E+00 0. -1.
         11    1    3    3    0    0 -0.75193866471E+01 -0.10318590123E+02 -0.12087226187E+02  0.17581681229E+02  0.51100000000E-03 0. -1.
        -11    1    3    3    0    0 -0.87942537689E+01 -0.40342359615E+01  0.22935901260E+01  0.99435665167E+01  0.51100000000E-03 0.  1.
        -12    1    3    3    0    0 -0.15483054584E+02  0.83467843917E+01 -0.14824719754E+02  0.23003610689E+02  0.00000000000E+00 0.  1.
</event>
<event>
 7    1  0.8697654E-014  0.5052886E+02  0.7816164E-02  0.1300439E+00
        -11   -1    0    0    0    0  0.00000000000E+00  0.00000000000E+00  0.45593999997E+02  0.45594000000E+02  0.51100000000E-03 0. -1.
         11   -1    0    0    0    0 -0.00000000000E+00 -0.00000000000E+00 -0.45593999997E+02  0.45594000000E+02  0.51100000000E-03 0.  1.
    9900012    2    1    2    0    0  0.40523369389E+02  0.14818766360E+01  0.29708923968E+01  0.50528860479E+02  0.30000001911E+02 0.  0.
        -12    1    1    2    0    0 -0.40523369389E+02 -0.14818766360E+01 -0.29708923968E+01  0.40659139521E+02  0.00000000000E+00 0.  1.
         11    1    3    3    0    0  0.20556147067E+02 -0.24439016730E+01 -0.78017277848E+01  0.22122269194E+02  0.51100000000E-03 0. -1.
        -11    1    3    3    0    0 -0.96442242436E+00  0.18895245418E+00 -0.29439078645E+01  0.31036119955E+01  0.51100000000E-03 0.  1.
         12    1    3    3    0    0  0.20931644746E+02  0.37368258549E+01  0.13716528046E+02  0.25302979289E+02  0.00000000000E+00 0. -1.
</event>
<event>
 7    1  0.8697654E-014  0.5052885E+02  0.7816164E-02  0.1300439E+00
        -11   -1    0    0    0    0  0.00000000000E+00  0.00000000000E+00  0.45593999997E+02  0.45594000000E+02  0.51100000000E-03 0. -1.
         11   -1    0    0    0    0 -0.00000000000E+00 -0.00000000000E+00 -0.45593999997E+02  0.45594000000E+02  0.51100000000E-03 0.  1.
    9900012    2    1    2    0    0  0.35094125888E+02  0.66200677166E+01  0.19435618422E+02  0.50528853036E+02  0.29999979287E+02 0.  0.
        -12    1    1    2    0    0 -0.35094125888E+02 -0.66200677166E+01 -0.19435618422E+02  0.40659146964E+02  0.00000000000E+00 0.  1.
         11    1    3    3    0    0  0.14787077155E+02 -0.31455093413E+01  0.13329666616E+02  0.20155195165E+02  0.51100000000E-03 0. -1.
        -11    1    3    3    0    0  0.20204623587E+02  0.91125315393E+01  0.11478643019E+02  0.24960454546E+02  0.51100000000E-03 0.  1.
        -12    1    3    3    0    0  0.10242514649E+00  0.65304551860E+00 -0.53726912129E+01  0.54132033242E+01  0.00000000000E+00 0.  1.
</event>
<event>
 7    1  0.8697654E-014  0.5052894E+02  0.7816164E-02  0.1300439E+00
        -11   -1    0    0    0    0  0.00000000000E+00  0.00000000000E+00  0.45593999997E+02  0.45594000000E+02  0.51100000000E-03 0.  1.
         11   -1    0    0    0    0 -0.00000000000E+00 -0.00000000000E+00 -0.45593999997E+02  0.45594000000E+02  0.51100000000E-03 0. -1.
    9900012    2    1    2    0    0  0.45251822228E+01  0.39598078061E+02  0.80420261838E+01  0.50528938950E+02  0.30000240432E+02 0.  0.
        -12    1    1    2    0    0 -0.45251822228E+01 -0.39598078061E+02 -0.80420261838E+01  0.40659061050E+02  0.00000000000E+00 0.  1.
         11    1    3    3    0    0 -0.10408422472E+02  0.11194067242E+02 -0.57590417728E-01  0.15285474042E+02  0.51100000000E-03 0. -1.
        -11    1    3    3    0    0  0.20947930206E+01  0.17995401468E+01 -0.26312336855E+01  0.38144322655E+01  0.51100000000E-03 0.  1.
         12    1    3    3    0    0  0.12838811674E+02  0.26604470672E+02  0.10730850287E+02  0.31429032642E+02  0.00000000000E+00 0. -1.
</event>
<event>
 7    1  0.8697654E-014  0.5052886E+02  0.7816164E-02  0.1300439E+00
        -11   -1    0    0    0    0  0.00000000000E+00  0.00000000000E+00  0.45593999997E+02  0.45594000000E+02  0.51100000000E-03 0. -1.
         11   -1    0    0    0    0 -0.00000000000E+00 -0.00000000000E+00 -0.45593999997E+02  0.45594000000E+02  0.51100000000E-03 0.  1.
    9900012    2    1    2    0    0  0.10493490161E+02 -0.29362186770E+02 -0.26094339841E+02  0.50528856878E+02  0.29999990967E+02 0.  0.
         12    1    1    2    0    0 -0.10493490161E+02  0.29362186770E+02  0.26094339841E+02  0.40659143122E+02  0.00000000000E+00 0. -1.
         11    1    3    3    0    0  0.97524447164E+01 -0.15035500875E+02 -0.14385526281E+02  0.22980857929E+02  0.51100000000E-03 0. -1.
        -11    1    3    3    0    0  0.38255471192E+01 -0.12315154710E+01 -0.13398977250E+02  0.13988710903E+02  0.51100000000E-03 0.  1.
        -12    1    3    3    0    0 -0.30845016746E+01 -0.13095170424E+02  0.16901636905E+01  0.13559288046E+02  0.00000000000E+00 0.  1.
</event>
<event>
 7    1  0.8697654E-014  0.5052886E+02  0.7816164E-02  0.1300439E+00
        -11   -1    0    0    0    0  0.00000000000E+00  0.00000000000E+00  0.45593999997E+02  0.45594000000E+02  0.51100000000E-03 0. -1.
         11   -1    0    0    0    0 -0.00000000000E+00 -0.00000000000E+00 -0.45593999997E+02  0.45594000000E+02  0.51100000000E-03 0.  1.
    9900012    2    1    2    0    0  0.68035763351E+00 -0.65396353687E+01 -0.40124006424E+02  0.50528860698E+02  0.30000002578E+02 0.  0.
         12    1    1    2    0    0 -0.68035763351E+00  0.65396353687E+01  0.40124006424E+02  0.40659139302E+02  0.00000000000E+00 0. -1.
         11    1    3    3    0    0  0.89484142244E+00 -0.60496054294E+01 -0.28639914568E+01  0.67528449078E+01  0.51100000000E-03 0. -1.
        -11    1    3    3    0    0  0.10599524157E+02  0.13745346817E+01 -0.11108759519E+02  0.15415699668E+02  0.51100000000E-03 0.  1.
        -12    1    3    3    0    0 -0.10814007946E+02 -0.18645646210E+01 -0.26151255448E+02  0.28360316122E+02  0.00000000000E+00 0.  1.
</event>
<event>
 7    1  0.8697654E-014  0.5052886E+02  0.7816164E-02  0.1300439E+00
        -11   -1    0    0    0    0  0.00000000000E+00  0.00000000000E+00  0.45593999997E+02  0.45594000000E+02  0.51100000000E-03 0.  1.
         11   -1    0    0    0    0 -0.00000000000E+00 -0.00000000000E+00 -0.45593999997E+02  0.45594000000E+02  0.51100000000E-03 0. -1.
    9900012    2    1    2    0    0  0.37591101896E+02  0.79214480566E+01  0.13316351235E+02  0.50528862143E+02  0.30000006969E+02 0.  0.
        -12    1    1    2    0    0 -0.37591101896E+02 -0.79214480566E+01 -0.13316351235E+02  0.40659137857E+02  0.00000000000E+00 0.  1.
         11    1    3    3    0    0  0.39452739994E+02  0.78471194097E+01  0.12802486522E+02  0.42213737545E+02  0.51100000000E-03 0. -1.
        -11    1    3    3    0    0  0.26332951273E+01 -0.28392934871E+00 -0.18434382360E+01  0.32269372311E+01  0.51100000000E-03 0.  1.
        -12    1    3    3    0    0 -0.44949332253E+01  0.35825799564E+00  0.23573029485E+01  0.50881873671E+01  0.00000000000E+00 0.  1.
</event>
<event>
 7    1  0.8697654E-014  0.5052886E+02  0.7816164E-02  0.1300439E+00
        -11   -1    0    0    0    0  0.00000000000E+00  0.00000000000E+00  0.45593999997E+02  0.45594000000E+02  0.51100000000E-03 0. -1.
         11   -1    0    0    0    0 -0.00000000000E+00 -0.00000000000E+00 -0.45593999997E+02  0.45594000000E+02  0.51100000000E-03 0.  1.
    9900012    2    1    2    0    0 -0.25039156463E+02  0.28330439835E+02 -0.14953001267E+02  0.50528862964E+02  0.30000009465E+02 0.  0.
        -12    1    1    2    0    0  0.25039156463E+02 -0.28330439835E+02  0.14953001267E+02  0.40659137036E+02  0.00000000000E+00 0.  1.
         11    1    3    3    0    0 -0.51911426822E+01  0.65911992902E+01  0.44969278948E+00  0.84020291773E+01  0.51100000000E-03 0. -1.
        -11    1    3    3    0    0 -0.25210381679E+02  0.18717884822E+02 -0.78162883991E+01  0.32357640847E+02  0.51100000000E-03 0.  1.
         12    1    3    3    0    0  0.53623678982E+01  0.30213557230E+01 -0.75864056579E+01  0.97691929393E+01  0.00000000000E+00 0. -1.
</event>
<event>
 7    1  0.8697654E-014  0.5052886E+02  0.7816164E-02  0.1300439E+00
        -11   -1    0    0    0    0  0.00000000000E+00  0.00000000000E+00  0.45593999997E+02  0.45594000000E+02  0.51100000000E-03 0. -1.
         11   -1    0    0    0    0 -0.00000000000E+00 -0.00000000000E+00 -0.45593999997E+02  0.45594000000E+02  0.51100000000E-03 0.  1.
    9900012    2    1    2    0    0 -0.83502993900E+01  0.28332982348E+01  0.39691444813E+02  0.50528857484E+02  0.29999992810E+02 0.  0.
        -12    1    1    2    0    0  0.83502993900E+01 -0.28332982348E+01 -0.39691444813E+02  0.40659142516E+02  0.00000000000E+00 0.  1.
         11    1    3    3    0    0 -0.93989581027E+01  0.45319898987E+01  0.18515439218E+02  0.21253254705E+02  0.51100000000E-03 0. -1.
        -11    1    3    3    0    0 -0.44773962568E+00  0.49737837375E+01 -0.17962912112E+01  0.53071327302E+01  0.51100000000E-03 0.  1.
         12    1    3    3    0    0  0.14963983384E+01 -0.66724754014E+01  0.22972296806E+02  0.23968470049E+02  0.00000000000E+00 0. -1.
</event>
<event>
 7    1  0.8697654E-014  0.5052887E+02  0.7816164E-02  0.1300439E+00
        -11   -1    0    0    0    0  0.00000000000E+00  0.00000000000E+00  0.45593999997E+02  0.45594000000E+02  0.51100000000E-03 0. -1.
         11   -1    0    0    0    0 -0.00000000000E+00 -0.00000000000E+00 -0.45593999997E+02  0.45594000000E+02  0.51100000000E-03 0.  1.
    9900012    2    1    2    0    0 -0.14973862086E+02 -0.32622777028E+02 -0.19097196032E+02  0.50528867901E+02  0.30000024471E+02 0.  0.
         12    1    1    2    0    0  0.14973862086E+02  0.32622777028E+02  0.19097196032E+02  0.40659132099E+02  0.00000000000E+00 0. -1.
         11    1    3    3    0    0  0.99824724053E+00 -0.11225775792E+02 -0.12536518000E+01  0.11339584771E+02  0.51100000000E-03 0. -1.
        -11    1    3    3    0    0 -0.19813201660E+02 -0.22460772171E+02 -0.12338112508E+02  0.32392564997E+02  0.51100000000E-03 0.  1.
         12    1    3    3    0    0  0.38410923336E+01  0.10637709351E+01 -0.55054317233E+01  0.67967181329E+01  0.00000000000E+00 0. -1.
</event>
<event>
 7    1  0.8697654E-014  0.5052886E+02  0.7816164E-02  0.1300439E+00
        -11   -1    0    0    0    0  0.00000000000E+00  0.00000000000E+00  0.45593999997E+02  0.45594000000E+02  0.51100000000E-03 0. -1.
         11   -1    0    0    0    0 -0.00000000000E+00 -0.00000000000E+00 -0.45593999997E+02  0.45594000000E+02  0.51100000000E-03 0.  1.
    9900012    2    1    2    0    0  0.84714850975E+01 -0.72653529637E+01  0.39097497167E+02  0.50528859599E+02  0.29999999236E+02 0.  0.
        -12    1    1    2    0    0 -0.84714850975E+01  0.72653529637E+01 -0.39097497167E+02  0.40659140401E+02  0.00000000000E+00 0.  1.
         11    1    3    3    0    0 -0.46494326488E+01 -0.11251990246E+02  0.45241091202E+01  0.12988151217E+02  0.51100000000E-03 0.  1.
        -11    1    3    3    0    0  0.48814093411E+01  0.39310166411E+01  0.12587162256E+02  0.14061212711E+02  0.51100000000E-03 0. -1.
        -12    1    3    3    0    0  0.82395084052E+01  0.55620640673E-01  0.21986225791E+02  0.23479495670E+02  0.00000000000E+00 0.  1.
</event>
<event>
 7    1  0.8697654E-014  0.5052886E+02  0.7816164E-02  0.1300439E+00
        -11   -1    0    0    0    0  0.00000000000E+00  0.00000000000E+00  0.45593999997E+02  0.45594000000E+02  0.51100000000E-03 0. -1.
         11   -1    0    0    0    0 -0.00000000000E+00 -0.00000000000E+00 -0.45593999997E+02  0.45594000000E+02  0.51100000000E-03 0.  1.
    9900012    2    1    2    0    0 -0.22515872831E+00 -0.57964974250E+01  0.40243203848E+02  0.50528861607E+02  0.30000005342E+02 0.  0.
        -12    1    1    2    0    0  0.22515872831E+00  0.57964974250E+01 -0.40243203848E+02  0.40659138393E+02  0.00000000000E+00 0.  1.
         11    1    3    3    0    0 -0.81877324280E+01  0.33511219909E+01  0.28505527982E+02  0.29846844166E+02  0.51100000000E-03 0. -1.
        -11    1    3    3    0    0  0.13630663951E+00 -0.41300302567E+01 -0.15939586065E+01  0.44290443350E+01  0.51100000000E-03 0.  1.
        -12    1    3    3    0    0  0.78262670601E+01 -0.50175891593E+01  0.13331634473E+02  0.16252973106E+02  0.00000000000E+00 0.  1.
</event>
<event>
 7    1  0.8697654E-014  0.5052885E+02  0.7816164E-02  0.1300439E+00
        -11   -1    0    0    0    0  0.00000000000E+00  0.00000000000E+00  0.45593999997E+02  0.45594000000E+02  0.51100000000E-03 0. -1.
         11   -1    0    0    0    0 -0.00000000000E+00 -0.00000000000E+00 -0.45593999997E+02  0.45594000000E+02  0.51100000000E-03 0.  1.
    9900012    2    1    2    0    0  0.82658942043E+01  0.55987953634E+01 -0.39414399863E+02  0.50528850562E+02  0.29999971768E+02 0.  0.
         12    1    1    2    0    0 -0.82658942043E+01 -0.55987953634E+01  0.39414399863E+02  0.40659149438E+02  0.00000000000E+00 0. -1.
         11    1    3    3    0    0  0.59369169474E+01  0.82731184344E+00 -0.11249909564E+02  0.12747230805E+02  0.51100000000E-03 0. -1.
        -11    1    3    3    0    0 -0.11822902577E+01 -0.99613952809E+01 -0.11651219791E+02  0.15374593623E+02  0.51100000000E-03 0.  1.
         12    1    3    3    0    0  0.35112675146E+01  0.14732878801E+02 -0.16513270507E+02  0.22407026134E+02  0.00000000000E+00 0. -1.
</event>
<event>
 7    1  0.1128097E-013  0.5052885E+02  0.7816164E-02  0.1300439E+00
        -11   -1    0    0    0    0  0.00000000000E+00  0.00000000000E+00  0.45593999997E+02  0.45594000000E+02  0.51100000000E-03 0. -1.
         11   -1    0    0    0    0 -0.00000000000E+00 -0.00000000000E+00 -0.45593999997E+02  0.45594000000E+02  0.51100000000E-03 0.  1.
    9900012    2    1    2    0    0  0.18079504177E+02 -0.13626436088E+01 -0.36392871463E+02  0.50528851433E+02  0.29999974415E+02 0.  0.
         12    1    1    2    0    0 -0.18079504177E+02  0.13626436088E+01  0.36392871463E+02  0.40659148567E+02  0.00000000000E+00 0. -1.
         11    1    3    3    0    0  0.75668737922E+01 -0.55754421445E+01 -0.83587635817E+01  0.12578237673E+02  0.51100000000E-03 0. -1.
        -11    1    3    3    0    0  0.13627894837E+02  0.15410209924E+01 -0.30302326821E+02  0.33261468314E+02  0.51100000000E-03 0.  1.
         12    1    3    3    0    0 -0.31152644516E+01  0.26717775433E+01  0.22682189400E+01  0.46891454449E+01  0.00000000000E+00 0. -1.
</event>
<event>
 7    1  0.8697654E-014  0.5052886E+02  0.7816164E-02  0.1300439E+00
        -11   -1    0    0    0    0  0.00000000000E+00  0.00000000000E+00  0.45593999997E+02  0.45594000000E+02  0.51100000000E-03 0. -1.
         11   -1    0    0    0    0 -0.00000000000E+00 -0.00000000000E+00 -0.45593999997E+02  0.45594000000E+02  0.51100000000E-03 0.  1.
    9900012    2    1    2    0    0 -0.13032788889E+02  0.24280443977E+02 -0.29896018794E+02  0.50528862212E+02  0.30000007179E+02 0.  0.
         12    1    1    2    0    0  0.13032788889E+02 -0.24280443977E+02  0.29896018794E+02  0.40659137788E+02  0.00000000000E+00 0. -1.
         11    1    3    3    0    0  0.46197312170E+01  0.81155649631E+01 -0.14853850332E+02  0.17545403419E+02  0.51100000000E-03 0. -1.
        -11    1    3    3    0    0 -0.11747155835E+02  0.11275805799E+02 -0.18437743286E+02  0.24598574031E+02  0.51100000000E-03 0.  1.
        -12    1    3    3    0    0 -0.59053642706E+01  0.48890732151E+01  0.33955748243E+01  0.83848847612E+01  0.00000000000E+00 0.  1.
</event>
<event>
 7    1  0.8697654E-014  0.5052887E+02  0.7816164E-02  0.1300439E+00
        -11   -1    0    0    0    0  0.00000000000E+00  0.00000000000E+00  0.45593999997E+02  0.45594000000E+02  0.51100000000E-03 0. -1.
         11   -1    0    0    0    0 -0.00000000000E+00 -0.00000000000E+00 -0.45593999997E+02  0.45594000000E+02  0.51100000000E-03 0.  1.
    9900012    2    1    2    0    0 -0.19828111890E+01  0.87003249558E+01  0.39667843065E+02  0.50528868579E+02  0.30000026532E+02 0.  0.
        -12    1    1    2    0    0  0.19828111890E+01 -0.87003249558E+01 -0.39667843065E+02  0.40659131421E+02  0.00000000000E+00 0.  1.
         11    1    3    3    0    0  0.16130495085E+01  0.16558530930E+02  0.12372139791E+02  0.20732986243E+02  0.51100000000E-03 0.  1.
        -11    1    3    3    0    0  0.26241983526E+01 -0.33298988751E+01  0.10394147548E+02  0.11225548852E+02  0.51100000000E-03 0. -1.
        -12    1    3    3    0    0 -0.62200590501E+01 -0.45283070990E+01  0.16901555725E+02  0.18570333484E+02  0.00000000000E+00 0.  1.
</event>
<event>
 7    1  0.8697654E-014  0.5052886E+02  0.7816164E-02  0.1300439E+00
        -11   -1    0    0    0    0  0.00000000000E+00  0.00000000000E+00  0.45593999997E+02  0.45594000000E+02  0.51100000000E-03 0. -1.
         11   -1    0    0    0    0 -0.00000000000E+00 -0.00000000000E+00 -0.45593999997E+02  0.45594000000E+02  0.51100000000E-03 0.  1.
    9900012    2    1    2    0    0 -0.24650919002E+01  0.31198424494E+02 -0.25956638873E+02  0.50528862397E+02  0.30000007742E+02 0.  0.
         12    1    1    2    0    0  0.24650919002E+01 -0.31198424494E+02  0.25956638873E+02  0.40659137603E+02  0.00000000000E+00 0. -1.
         11    1    3    3    0    0 -0.74385799608E+01  0.88371415517E+01 -0.28474540943E+01  0.11896870921E+02  0.51100000000E-03 0. -1.
        -11    1    3    3    0    0 -0.61497665910E+00  0.22282081007E+02 -0.10097980670E+02  0.24471177826E+02  0.51100000000E-03 0.  1.
         12    1    3    3    0    0  0.55884647197E+01  0.79201935619E-01 -0.13011204109E+02  0.14160813650E+02  0.00000000000E+00 0. -1.
</event>
<event>
 7    1  0.8697654E-014  0.5052886E+02  0.7816164E-02  0.1300439E+00
        -11   -1    0    0    0    0  0.00000000000E+00  0.00000000000E+00  0.45593999997E+02  0.45594000000E+02  0.51100000000E-03 0. -1.
         11   -1    0    0    0    0 -0.00000000000E+00 -0.00000000000E+00 -0.45593999997E+02  0.45594000000E+02  0.51100000000E-03 0.  1.
    9900012    2    1    2    0    0  0.79363286123E+01  0.15068538459E+02 -0.36920448868E+02  0.50528859481E+02  0.29999998878E+02 0.  0.
         12    1    1    2    0    0 -0.79363286123E+01 -0.15068538459E+02  0.36920448868E+02  0.40659140519E+02  0.00000000000E+00 0. -1.
         11    1    3    3    0    0 -0.40923523499E+01 -0.71814265638E+00 -0.76479882603E+00  0.42246886437E+01  0.51100000000E-03 0. -1.
        -11    1    3    3    0    0  0.10604793549E+02  0.17563409194E+02 -0.15993797317E+02  0.26014160405E+02  0.51100000000E-03 0.  1.
         12    1    3    3    0    0  0.14238874135E+01 -0.17767280784E+01 -0.20161852725E+02  0.20290010432E+02  0.00000000000E+00 0. -1.
</event>
<event>
 7    1  0.8697654E-014  0.5052886E+02  0.7816164E-02  0.1300439E+00
        -11   -1    0    0    0    0  0.00000000000E+00  0.00000000000E+00  0.45593999997E+02  0.45594000000E+02  0.51100000000E-03 0. -1.
         11   -1    0    0    0    0 -0.00000000000E+00 -0.00000000000E+00 -0.45593999997E+02  0.45594000000E+02  0.51100000000E-03 0.  1.
    9900012    2    1    2    0    0  0.28720077664E+02  0.24301454920E+02  0.15419530769E+02  0.50528862018E+02  0.30000006591E+02 0.  0.
        -12    1    1    2    0    0 -0.28720077664E+02 -0.24301454920E+02 -0.15419530769E+02  0.40659137982E+02  0.00000000000E+00 0.  1.
         11    1    3    3    0    0 -0.10144914845E+01  0.85543258304E+00  0.42890607107E+01  0.44896547660E+01  0.51100000000E-03 0. -1.
        -11    1    3    3    0    0  0.87184902931E+01  0.20749602136E+02  0.10514878569E+02  0.24841914849E+02  0.51100000000E-03 0.  1.
        -12    1    3    3    0    0  0.21016078856E+02  0.26964202016E+01  0.61559148944E+00  0.21197292404E+02  0.00000000000E+00 0.  1.
</event>
<event>
 7    1  0.8697654E-014  0.5052887E+02  0.7816164E-02  0.1300439E+00
        -11   -1    0    0    0    0  0.00000000000E+00  0.00000000000E+00  0.45593999997E+02  0.45594000000E+02  0.51100000000E-03 0. -1.
         11   -1    0    0    0    0 -0.00000000000E+00 -0.00000000000E+00 -0.45593999997E+02  0.45594000000E+02  0.51100000000E-03 0.  1.
    9900012    2    1    2    0    0 -0.10732454810E+02 -0.32194720000E+02  0.22393728818E+02  0.50528872212E+02  0.30000037575E+02 0.  0.
        -12    1    1    2    0    0  0.10732454810E+02  0.32194720000E+02 -0.22393728818E+02  0.40659127788E+02  0.00000000000E+00 0.  1.
         11    1    3    3    0    0 -0.35554773830E+01 -0.16717966963E+02  0.10532352810E+02  0.20076411402E+02  0.51100000000E-03 0. -1.
        -11    1    3    3    0    0 -0.41427780239E+01 -0.18030317040E+01  0.15364221171E+02  0.16014768981E+02  0.51100000000E-03 0.  1.
        -12    1    3    3    0    0 -0.30341994029E+01 -0.13673721333E+02 -0.35028451625E+01  0.14437691829E+02  0.00000000000E+00 0.  1.
</event>
<event>
 7    1  0.8697654E-014  0.5052882E+02  0.7816164E-02  0.1300439E+00
        -11   -1    0    0    0    0  0.00000000000E+00  0.00000000000E+00  0.45593999997E+02  0.45594000000E+02  0.51100000000E-03 0. -1.
         11   -1    0    0    0    0 -0.00000000000E+00 -0.00000000000E+00 -0.45593999997E+02  0.45594000000E+02  0.51100000000E-03 0.  1.
    9900012    2    1    2    0    0 -0.31647157013E+02 -0.10589600799E+02  0.23226851708E+02  0.50528821056E+02  0.29999882083E+02 0.  0.
        -12    1    1    2    0    0  0.31647157013E+02  0.10589600799E+02 -0.23226851708E+02  0.40659178944E+02  0.00000000000E+00 0.  1.
         11    1    3    3    0    0 -0.54793090798E+01  0.67922658466E+00  0.80246080435E+01  0.97405601100E+01  0.51100000000E-03 0. -1.
        -11    1    3    3    0    0 -0.89471489468E+01  0.66230003801E+01 -0.93782659990E+00  0.11171173945E+02  0.51100000000E-03 0.  1.
        -12    1    3    3    0    0 -0.17220698986E+02 -0.17891827764E+02  0.16140070265E+02  0.29617087002E+02  0.00000000000E+00 0.  1.
</event>
<event>
 7    1  0.8697654E-014  0.5052881E+02  0.7816164E-02  0.1300439E+00
        -11   -1    0    0    0    0  0.00000000000E+00  0.00000000000E+00  0.45593999997E+02  0.45594000000E+02  0.51100000000E-03 0. -1.
         11   -1    0    0    0    0 -0.00000000000E+00 -0.00000000000E+00 -0.45593999997E+02  0.45594000000E+02  0.51100000000E-03 0.  1.
    9900012    2    1    2    0    0 -0.32431225924E+01  0.26432383460E+02  0.30724278184E+02  0.50528806581E+02  0.29999838084E+02 0.  0.
        -12    1    1    2    0    0  0.32431225924E+01 -0.26432383460E+02 -0.30724278184E+02  0.40659193419E+02  0.00000000000E+00 0.  1.
         11    1    3    3    0    0  0.17143526928E+01  0.20584158365E+02  0.11972985335E+02  0.23874650968E+02  0.51100000000E-03 0. -1.
        -11    1    3    3    0    0 -0.29917306782E+01  0.64041140704E+01  0.21837562232E+02  0.22953044547E+02  0.51100000000E-03 0.  1.
         12    1    3    3    0    0 -0.19657446069E+01 -0.55588897497E+00 -0.30862693839E+01  0.37011110659E+01  0.00000000000E+00 0. -1.
</event>
<event>
 7    1  0.8697654E-014  0.5052884E+02  0.7816164E-02  0.1300439E+00
        -11   -1    0    0    0    0  0.00000000000E+00  0.00000000000E+00  0.45593999997E+02  0.45594000000E+02  0.51100000000E-03 0. -1.
         11   -1    0    0    0    0 -0.00000000000E+00 -0.00000000000E+00 -0.45593999997E+02  0.45594000000E+02  0.51100000000E-03 0.  1.
    9900012    2    1    2    0    0  0.94963423084E+01 -0.73842262598E+01 -0.38838901974E+02  0.50528835950E+02  0.29999927355E+02 0.  0.
         12    1    1    2    0    0 -0.94963423084E+01  0.73842262598E+01  0.38838901974E+02  0.40659164050E+02  0.00000000000E+00 0. -1.
         11    1    3    3    0    0 -0.58320830896E+01  0.32101932777E+01 -0.13506766552E+01  0.67928537252E+01  0.51100000000E-03 0. -1.
        -11    1    3    3    0    0  0.46043805021E+01 -0.76730836784E+01 -0.27036506647E+02  0.28478925978E+02  0.51100000000E-03 0.  1.
        -12    1    3    3    0    0  0.10724044896E+02 -0.29213358591E+01 -0.10451718671E+02  0.15257056247E+02  0.00000000000E+00 0.  1.
</event>
<event>
 7    1  0.8697654E-014  0.5052885E+02  0.7816164E-02  0.1300439E+00
        -11   -1    0    0    0    0  0.00000000000E+00  0.00000000000E+00  0.45593999997E+02  0.45594000000E+02  0.51100000000E-03 0. -1.
         11   -1    0    0    0    0 -0.00000000000E+00 -0.00000000000E+00 -0.45593999997E+02  0.45594000000E+02  0.51100000000E-03 0.  1.
    9900012    2    1    2    0    0  0.37064327885E+02  0.15525948659E+02 -0.61924672743E+01  0.50528854236E+02  0.29999982935E+02 0.  0.
        -12    1    1    2    0    0 -0.37064327885E+02 -0.15525948659E+02  0.61924672743E+01  0.40659145764E+02  0.00000000000E+00 0.  1.
         11    1    3    3    0    0 -0.34808075387E+00  0.71175350886E+01  0.33866016946E+01  0.78898375932E+01  0.51100000000E-03 0. -1.
        -11    1    3    3    0    0  0.77344442389E+01  0.39789695025E+01 -0.91567870774E+01  0.12629353738E+02  0.51100000000E-03 0.  1.
         12    1    3    3    0    0  0.29677964400E+02  0.44294440682E+01 -0.42228189147E+00  0.30009662905E+02  0.00000000000E+00 0. -1.
</event>
<event>
 7    1  0.8697654E-014  0.5052886E+02  0.7816164E-02  0.1300439E+00
        -11   -1    0    0    0    0  0.00000000000E+00  0.00000000000E+00  0.45593999997E+02  0.45594000000E+02  0.51100000000E-03 0. -1.
         11   -1    0    0    0    0 -0.00000000000E+00 -0.00000000000E+00 -0.45593999997E+02  0.45594000000E+02  0.51100000000E-03 0.  1.
    9900012    2    1    2    0    0  0.78936307969E+01 -0.28891975771E+02  0.27497450540E+02  0.50528862561E+02  0.30000008239E+02 0.  0.
        -12    1    1    2    0    0 -0.78936307969E+01  0.28891975771E+02 -0.27497450540E+02  0.40659137439E+02  0.00000000000E+00 0.  1.
         11    1    3    3    0    0  0.11665551067E+02 -0.14245749328E+02  0.15585419212E+02  0.24123261552E+02  0.51100000000E-03 0. -1.
        -11    1    3    3    0    0 -0.23623421836E+01 -0.18511323837E+02  0.12177058664E+02  0.22282964990E+02  0.51100000000E-03 0.  1.
        -12    1    3    3    0    0 -0.14095780870E+01  0.38650973941E+01 -0.26502733647E+00  0.41226360181E+01  0.00000000000E+00 0.  1.
</event>
<event>
 7    1  0.8697654E-014  0.5052886E+02  0.7816164E-02  0.1300439E+00
        -11   -1    0    0    0    0  0.00000000000E+00  0.00000000000E+00  0.45593999997E+02  0.45594000000E+02  0.51100000000E-03 0. -1.
         11   -1    0    0    0    0 -0.00000000000E+00 -0.00000000000E+00 -0.45593999997E+02  0.45594000000E+02  0.51100000000E-03 0.  1.
    9900012    2    1    2    0    0  0.56232031007E+01  0.19276636949E+02 -0.35354719050E+02  0.50528864442E+02  0.30000013959E+02 0.  0.
         12    1    1    2    0    0 -0.56232031007E+01 -0.19276636949E+02  0.35354719050E+02  0.40659135558E+02  0.00000000000E+00 0. -1.
         11    1    3    3    0    0  0.53813674718E+01  0.58782223069E+01  0.25834715693E+01  0.83777645566E+01  0.51100000000E-03 0.  1.
        -11    1    3    3    0    0 -0.28040534466E+01 -0.14832336218E+01 -0.69819953600E+01  0.76688302352E+01  0.51100000000E-03 0. -1.
        -12    1    3    3    0    0  0.30458890754E+01  0.14881648264E+02 -0.30956195260E+02  0.34482269651E+02  0.00000000000E+00 0.  1.
</event>
<event>
 7    1  0.8697654E-014  0.5052885E+02  0.7816164E-02  0.1300439E+00
        -11   -1    0    0    0    0  0.00000000000E+00  0.00000000000E+00  0.45593999997E+02  0.45594000000E+02  0.51100000000E-03 0. -1.
         11   -1    0    0    0    0 -0.00000000000E+00 -0.00000000000E+00 -0.45593999997E+02  0.45594000000E+02  0.51100000000E-03 0.  1.
    9900012    2    1    2    0    0  0.10653860013E+01  0.57695381444E+01  0.40233615405E+02  0.50528850645E+02  0.29999972020E+02 0.  0.
        -12    1    1    2    0    0 -0.10653860013E+01 -0.57695381444E+01 -0.40233615405E+02  0.40659149355E+02  0.00000000000E+00 0.  1.
         11    1    3    3    0    0  0.89643441045E+01 -0.72819553129E+00  0.66829369898E+01  0.11204971264E+02  0.51100000000E-03 0. -1.
        -11    1    3    3    0    0 -0.15289671050E+01 -0.59574853420E+01  0.13921561553E+02  0.15219699351E+02  0.51100000000E-03 0.  1.
        -12    1    3    3    0    0 -0.63699909982E+01  0.12455219018E+02  0.19629116862E+02  0.24104180029E+02  0.00000000000E+00 0.  1.
</event>
<event>
 7    1  0.8697654E-014  0.5052885E+02  0.7816164E-02  0.1300439E+00
        -11   -1    0    0    0    0  0.00000000000E+00  0.00000000000E+00  0.45593999997E+02  0.45594000000E+02  0.51100000000E-03 0. -1.
         11   -1    0    0    0    0 -0.00000000000E+00 -0.00000000000E+00 -0.45593999997E+02  0.45594000000E+02  0.51100000000E-03 0.  1.
    9900012    2    1    2    0    0  0.31344468455E+02 -0.72678430020E+01  0.24856973501E+02  0.50528851260E+02  0.29999973890E+02 0.  0.
        -12    1    1    2    0    0 -0.31344468455E+02  0.72678430020E+01 -0.24856973501E+02  0.40659148740E+02  0.00000000000E+00 0.  1.
         11    1    3    3    0    0  0.28681425528E+01 -0.19030820913E+01  0.17324697103E+02  0.17663326220E+02  0.51100000000E-03 0. -1.
        -11    1    3    3    0    0  0.74526897393E+01 -0.64903678539E+01  0.64149521366E+01  0.11782150500E+02  0.51100000000E-03 0.  1.
        -12    1    3    3    0    0  0.21023636163E+02  0.11256069432E+01  0.11173242607E+01  0.21083374541E+02  0.00000000000E+00 0.  1.
</event>
<event>
 7    1  0.8697654E-014  0.5052887E+02  0.7816164E-02  0.1300439E+00
        -11   -1    0    0    0    0  0.00000000000E+00  0.00000000000E+00  0.45593999997E+02  0.45594000000E+02  0.51100000000E-03 0. -1.
         11   -1    0    0    0    0 -0.00000000000E+00 -0.00000000000E+00 -0.45593999997E+02  0.45594000000E+02  0.51100000000E-03 0.  1.
    9900012    2    1    2    0    0  0.13207704732E+02  0.21428806268E+02 -0.31930041828E+02  0.50528870970E+02  0.30000033799E+02 0.  0.
         12    1    1    2    0    0 -0.13207704732E+02 -0.21428806268E+02  0.31930041828E+02  0.40659129030E+02  0.00000000000E+00 0. -1.
         11    1    3    3    0    0  0.34740928969E+01  0.13074895294E+02 -0.10430311397E+02  0.17082552634E+02  0.51100000000E-03 0. -1.
        -11    1    3    3    0    0  0.25896644532E+01  0.23393626038E+01 -0.23614677620E+02  0.23871153695E+02  0.51100000000E-03 0.  1.
         12    1    3    3    0    0  0.71439473815E+01  0.60145483701E+01  0.21149471881E+01  0.95751646406E+01  0.00000000000E+00 0. -1.
</event>
<event>
 7    1  0.8697654E-014  0.5052886E+02  0.7816164E-02  0.1300439E+00
        -11   -1    0    0    0    0  0.00000000000E+00  0.00000000000E+00  0.45593999997E+02  0.45594000000E+02  0.51100000000E-03 0. -1.
         11   -1    0    0    0    0 -0.00000000000E+00 -0.00000000000E+00 -0.45593999997E+02  0.45594000000E+02  0.51100000000E-03 0.  1.
    9900012    2    1    2    0    0  0.30422995205E+02  0.26142906862E+02 -0.66449613500E+01  0.50528859235E+02  0.29999998129E+02 0.  0.
         12    1    1    2    0    0 -0.30422995205E+02 -0.26142906862E+02  0.66449613500E+01  0.40659140765E+02  0.00000000000E+00 0. -1.
         11    1    3    3    0    0  0.14946859169E+02  0.70801260201E+01 -0.68952935374E+01  0.17918757119E+02  0.51100000000E-03 0. -1.
        -11    1    3    3    0    0  0.44777102490E+00 -0.11210994894E+01 -0.64557007234E+01  0.65676049704E+01  0.51100000000E-03 0.  1.
         12    1    3    3    0    0  0.15028365011E+02  0.20183880331E+02  0.67060329107E+01  0.26042497145E+02  0.00000000000E+00 0. -1.
</event>
<event>
 7    1  0.8697654E-014  0.5052886E+02  0.7816164E-02  0.1300439E+00
        -11   -1    0    0    0    0  0.00000000000E+00  0.00000000000E+00  0.45593999997E+02  0.45594000000E+02  0.51100000000E-03 0. -1.
         11   -1    0    0    0    0 -0.00000000000E+00 -0.00000000000E+00 -0.45593999997E+02  0.45594000000E+02  0.51100000000E-03 0.  1.
    9900012    2    1    2    0    0 -0.20837603336E+02  0.24234216648E+01 -0.34829402488E+02  0.50528856342E+02  0.29999989337E+02 0.  0.
         12    1    1    2    0    0  0.20837603336E+02 -0.24234216648E+01  0.34829402488E+02  0.40659143658E+02  0.00000000000E+00 0. -1.
         11    1    3    3    0    0 -0.10822380136E+02  0.73391799582E+01 -0.22263179404E+02  0.25819307344E+02  0.51100000000E-03 0. -1.
        -11    1    3    3    0    0  0.75334553371E+00 -0.85535554157E+00 -0.13137385598E+02  0.13186738157E+02  0.51100000000E-03 0.  1.
         12    1    3    3    0    0 -0.10768568734E+02 -0.40604027518E+01  0.57116251455E+00  0.11522810842E+02  0.00000000000E+00 0. -1.
</event>
<event>
 7    1  0.8697654E-014  0.5052886E+02  0.7816164E-02  0.1300439E+00
        -11   -1    0    0    0    0  0.00000000000E+00  0.00000000000E+00  0.45593999997E+02  0.45594000000E+02  0.51100000000E-03 0. -1.
         11   -1    0    0    0    0 -0.00000000000E+00 -0.00000000000E+00 -0.45593999997E+02  0.45594000000E+02  0.51100000000E-03 0.  1.
    9900012    2    1    2    0    0  0.97014448525E+01 -0.86333264587E+01  0.38529387272E+02  0.50528855377E+02  0.29999986403E+02 0.  0.
        -12    1    1    2    0    0 -0.97014448525E+01  0.86333264587E+01 -0.38529387272E+02  0.40659144623E+02  0.00000000000E+00 0.  1.
         11    1    3    3    0    0  0.46333502743E+00 -0.74135792024E+01  0.18895250284E+02  0.20302864810E+02  0.51100000000E-03 0. -1.
        -11    1    3    3    0    0  0.10562960666E+02 -0.26119267555E+01  0.23506601925E+02  0.25902869218E+02  0.51100000000E-03 0.  1.
         12    1    3    3    0    0 -0.13248508412E+01  0.13921794991E+01 -0.38724649371E+01  0.43231213490E+01  0.00000000000E+00 0. -1.
</event>
<event>
 7    1  0.8697654E-014  0.5052887E+02  0.7816164E-02  0.1300439E+00
        -11   -1    0    0    0    0  0.00000000000E+00  0.00000000000E+00  0.45593999997E+02  0.45594000000E+02  0.51100000000E-03 0.  1.
         11   -1    0    0    0    0 -0.00000000000E+00 -0.00000000000E+00 -0.45593999997E+02  0.45594000000E+02  0.51100000000E-03 0. -1.
    9900012    2    1    2    0    0  0.30091205845E+02 -0.27208755813E+02  0.27144021216E+01  0.50528867681E+02  0.30000023802E+02 0.  0.
        -12    1    1    2    0    0 -0.30091205845E+02  0.27208755813E+02 -0.27144021216E+01  0.40659132319E+02  0.00000000000E+00 0.  1.
         11    1    3    3    0    0  0.10524724275E+02 -0.96163229742E+01  0.21617277758E+01  0.14419311906E+02  0.51100000000E-03 0. -1.
        -11    1    3    3    0    0  0.13618192174E+02 -0.25685827154E+01  0.10274736720E+02  0.17251753250E+02  0.51100000000E-03 0.  1.
        -12    1    3    3    0    0  0.59482893967E+01 -0.15023850123E+02 -0.97220623745E+01  0.18857802525E+02  0.00000000000E+00 0.  1.
</event>
<event>
 7    1  0.8697654E-014  0.5052886E+02  0.7816164E-02  0.1300439E+00
        -11   -1    0    0    0    0  0.00000000000E+00  0.00000000000E+00  0.45593999997E+02  0.45594000000E+02  0.51100000000E-03 0. -1.
         11   -1    0    0    0    0 -0.00000000000E+00 -0.00000000000E+00 -0.45593999997E+02  0.45594000000E+02  0.51100000000E-03 0.  1.
    9900012    2    1    2    0    0  0.40331269374E+02 -0.50149550579E+01 -0.11851996002E+01  0.50528858818E+02  0.29999996863E+02 0.  0.
        -12    1    1    2    0    0 -0.40331269374E+02  0.50149550579E+01  0.11851996002E+01  0.40659141182E+02  0.00000000000E+00 0.  1.
         11    1    3    3    0    0  0.14497367064E+02 -0.30270062231E+01 -0.65520174267E+01  0.16194608704E+02  0.51100000000E-03 0. -1.
        -11    1    3    3    0    0 -0.32580542809E+01 -0.22663161076E+01 -0.18203961961E+01  0.43663427452E+01  0.51100000000E-03 0.  1.
         12    1    3    3    0    0  0.29091956591E+02  0.27836727273E+00  0.71872140226E+01  0.29967907368E+02  0.00000000000E+00 0. -1.
</event>
<event>
 7    1  0.8697654E-014  0.5052887E+02  0.7816164E-02  0.1300439E+00
        -11   -1    0    0    0    0  0.00000000000E+00  0.00000000000E+00  0.45593999997E+02  0.45594000000E+02  0.51100000000E-03 0. -1.
         11   -1    0    0    0    0 -0.00000000000E+00 -0.00000000000E+00 -0.45593999997E+02  0.45594000000E+02  0.51100000000E-03 0.  1.
    9900012    2    1    2    0    0 -0.34176444404E+01  0.23054998327E+02  0.33315931349E+02  0.50528874050E+02  0.30000043163E+02 0.  0.
        -12    1    1    2    0    0  0.34176444404E+01 -0.23054998327E+02 -0.33315931349E+02  0.40659125950E+02  0.00000000000E+00 0.  1.
         11    1    3    3    0    0  0.48892751394E+01  0.10053489615E+02  0.19815098614E+02  0.22751171358E+02  0.51100000000E-03 0. -1.
        -11    1    3    3    0    0 -0.16718939456E+01 -0.39861735516E+01  0.73575319219E+01  0.85333513458E+01  0.51100000000E-03 0.  1.
         12    1    3    3    0    0 -0.66350256341E+01  0.16987682264E+02  0.61433008132E+01  0.19244351346E+02  0.00000000000E+00 0. -1.
</event>
<event>
 7    1  0.8697654E-014  0.5052886E+02  0.7816164E-02  0.1300439E+00
        -11   -1    0    0    0    0  0.00000000000E+00  0.00000000000E+00  0.45593999997E+02  0.45594000000E+02  0.51100000000E-03 0. -1.
         11   -1    0    0    0    0 -0.00000000000E+00 -0.00000000000E+00 -0.45593999997E+02  0.45594000000E+02  0.51100000000E-03 0.  1.
    9900012    2    1    2    0    0 -0.10319602912E+02 -0.14383175431E+02  0.36603218529E+02  0.50528861464E+02  0.30000004907E+02 0.  0.
        -12    1    1    2    0    0  0.10319602912E+02  0.14383175431E+02 -0.36603218529E+02  0.40659138536E+02  0.00000000000E+00 0.  1.
         11    1    3    3    0    0 -0.12926010574E+02 -0.11031920776E+02  0.13029609829E+02  0.21413915054E+02  0.51100000000E-03 0. -1.
        -11    1    3    3    0    0  0.23095441467E+01 -0.30483489009E+00 -0.21737808205E+01  0.31862582746E+01  0.51100000000E-03 0.  1.
         12    1    3    3    0    0  0.29686351518E+00 -0.30464197650E+01  0.25747389521E+02  0.25928688136E+02  0.00000000000E+00 0. -1.
</event>
<event>
 7    1  0.8697654E-014  0.5052886E+02  0.7816164E-02  0.1300439E+00
        -11   -1    0    0    0    0  0.00000000000E+00  0.00000000000E+00  0.45593999997E+02  0.45594000000E+02  0.51100000000E-03 0. -1.
         11   -1    0    0    0    0 -0.00000000000E+00 -0.00000000000E+00 -0.45593999997E+02  0.45594000000E+02  0.51100000000E-03 0.  1.
    9900012    2    1    2    0    0 -0.39126001043E+01 -0.10063911977E+02 -0.39199173947E+02  0.50528855863E+02  0.29999987881E+02 0.  0.
         12    1    1    2    0    0  0.39126001043E+01  0.10063911977E+02  0.39199173947E+02  0.40659144137E+02  0.00000000000E+00 0. -1.
         11    1    3    3    0    0  0.46844088225E+01 -0.31629000044E+01  0.29834913854E-01  0.56523015522E+01  0.51100000000E-03 0. -1.
        -11    1    3    3    0    0 -0.90525306543E+01 -0.80139075307E+01 -0.10187056068E+02  0.15809716530E+02  0.51100000000E-03 0.  1.
        -12    1    3    3    0    0  0.45552172750E+00  0.11128955586E+01 -0.29041952793E+02  0.29066837781E+02  0.00000000000E+00 0.  1.
</event>
<event>
 7    1  0.8697654E-014  0.5052880E+02  0.7816164E-02  0.1300439E+00
        -11   -1    0    0    0    0  0.00000000000E+00  0.00000000000E+00  0.45593999997E+02  0.45594000000E+02  0.51100000000E-03 0. -1.
         11   -1    0    0    0    0 -0.00000000000E+00 -0.00000000000E+00 -0.45593999997E+02  0.45594000000E+02  0.51100000000E-03 0.  1.
    9900012    2    1    2    0    0  0.36935548070E+02 -0.11199944101E+02  0.12786599905E+02  0.50528799365E+02  0.29999816151E+02 0.  0.
        -12    1    1    2    0    0 -0.36935548070E+02  0.11199944101E+02 -0.12786599905E+02  0.40659200635E+02  0.00000000000E+00 0.  1.
         11    1    3    3    0    0  0.10666204826E+02 -0.78381583865E+01  0.33829966227E+01  0.13661966135E+02  0.51100000000E-03 0. -1.
        -11    1    3    3    0    0  0.20686658834E+02  0.35093910165E+01 -0.34452853106E+01  0.21263199904E+02  0.51100000000E-03 0.  1.
         12    1    3    3    0    0  0.55826844104E+01 -0.68711767313E+01  0.12848888593E+02  0.15603633326E+02  0.00000000000E+00 0. -1.
</event>
<event>
 7    1  0.8697654E-014  0.5052886E+02  0.7816164E-02  0.1300439E+00
        -11   -1    0    0    0    0  0.00000000000E+00  0.00000000000E+00  0.45593999997E+02  0.45594000000E+02  0.51100000000E-03 0.  1.
         11   -1    0    0    0    0 -0.00000000000E+00 -0.00000000000E+00 -0.45593999997E+02  0.45594000000E+02  0.51100000000E-03 0. -1.
    9900012    2    1    2    0    0 -0.31835249960E+02  0.24974952446E+02 -0.39917904110E+01  0.50528858587E+02  0.29999996162E+02 0.  0.
         12    1    1    2    0    0  0.31835249960E+02 -0.24974952446E+02  0.39917904110E+01  0.40659141413E+02  0.00000000000E+00 0. -1.
         11    1    3    3    0    0  0.64554926232E-01 -0.54339332260E+00 -0.23166936312E+01  0.23804439258E+01  0.51100000000E-03 0. -1.
        -11    1    3    3    0    0 -0.55686411547E+01  0.17825212004E+02 -0.74658855578E+01  0.20111871985E+02  0.51100000000E-03 0.  1.
         12    1    3    3    0    0 -0.26331163732E+02  0.76931337646E+01  0.57907887780E+01  0.28036542677E+02  0.00000000000E+00 0. -1.
</event>
<event>
 7    1  0.8697654E-014  0.5052886E+02  0.7816164E-02  0.1300439E+00
        -11   -1    0    0    0    0  0.00000000000E+00  0.00000000000E+00  0.45593999997E+02  0.45594000000E+02  0.51100000000E-03 0. -1.
         11   -1    0    0    0    0 -0.00000000000E+00 -0.00000000000E+00 -0.45593999997E+02  0.45594000000E+02  0.51100000000E-03 0.  1.
    9900012    2    1    2    0    0  0.31012463683E+02 -0.22148691275E+02  0.14171394414E+02  0.50528857749E+02  0.29999993615E+02 0.  0.
        -12    1    1    2    0    0 -0.31012463683E+02  0.22148691275E+02 -0.14171394414E+02  0.40659142251E+02  0.00000000000E+00 0.  1.
         11    1    3    3    0    0  0.72388727378E+01 -0.18566224751E+02  0.77835680705E+01  0.21393688606E+02  0.51100000000E-03 0.  1.
        -11    1    3    3    0    0  0.15366194413E+02 -0.61353823258E+01 -0.23874633218E+01  0.16717141753E+02  0.51100000000E-03 0. -1.
        -12    1    3    3    0    0  0.84073965324E+01  0.25529158010E+01  0.87752896655E+01  0.12418027390E+02  0.00000000000E+00 0.  1.
</event>
<event>
 7    1  0.8697654E-014  0.5052885E+02  0.7816164E-02  0.1300439E+00
        -11   -1    0    0    0    0  0.00000000000E+00  0.00000000000E+00  0.45593999997E+02  0.45594000000E+02  0.51100000000E-03 0. -1.
         11   -1    0    0    0    0 -0.00000000000E+00 -0.00000000000E+00 -0.45593999997E+02  0.45594000000E+02  0.51100000000E-03 0.  1.
    9900012    2    1    2    0    0 -0.15160104673E+02 -0.92133742724E+01 -0.36584850198E+02  0.50528852159E+02  0.29999976623E+02 0.  0.
         12    1    1    2    0    0  0.15160104673E+02  0.92133742724E+01  0.36584850198E+02  0.40659147841E+02  0.00000000000E+00 0. -1.
         11    1    3    3    0    0  0.28381977370E+00 -0.50281285955E+01 -0.79276578475E+00  0.50981475741E+01  0.51100000000E-03 0. -1.
        -11    1    3    3    0    0 -0.18199924835E+02  0.44159048974E+01 -0.21382009954E+02  0.28424071313E+02  0.51100000000E-03 0.  1.
         12    1    3    3    0    0  0.27560003886E+01 -0.86011505743E+01 -0.14410074459E+02  0.17006633272E+02  0.00000000000E+00 0. -1.
</event>
<event>
 7    1  0.8697654E-014  0.5052885E+02  0.7816164E-02  0.1300439E+00
        -11   -1    0    0    0    0  0.00000000000E+00  0.00000000000E+00  0.45593999997E+02  0.45594000000E+02  0.51100000000E-03 0. -1.
         11   -1    0    0    0    0 -0.00000000000E+00 -0.00000000000E+00 -0.45593999997E+02  0.45594000000E+02  0.51100000000E-03 0.  1.
    9900012    2    1    2    0    0  0.61178651944E+01  0.27056203973E+02  0.29727096592E+02  0.50528847036E+02  0.29999961052E+02 0.  0.
        -12    1    1    2    0    0 -0.61178651944E+01 -0.27056203973E+02 -0.29727096592E+02  0.40659152964E+02  0.00000000000E+00 0.  1.
         11    1    3    3    0    0  0.63948460574E+01  0.62255099182E+01  0.20371549231E+02  0.22240751970E+02  0.51100000000E-03 0. -1.
        -11    1    3    3    0    0 -0.36798106233E+01  0.12561257681E+02  0.13168366981E+02  0.18566962325E+02  0.51100000000E-03 0.  1.
        -12    1    3    3    0    0  0.34028297603E+01  0.82694363737E+01 -0.38128196212E+01  0.97211327416E+01  0.00000000000E+00 0.  1.
</event>
<event>
 7    1  0.8697654E-014  0.5052882E+02  0.7816164E-02  0.1300439E+00
        -11   -1    0    0    0    0  0.00000000000E+00  0.00000000000E+00  0.45593999997E+02  0.45594000000E+02  0.51100000000E-03 0. -1.
         11   -1    0    0    0    0 -0.00000000000E+00 -0.00000000000E+00 -0.45593999997E+02  0.45594000000E+02  0.51100000000E-03 0.  1.
    9900012    2    1    2    0    0 -0.14422614562E+02 -0.86673084043E+01  0.37013980308E+02  0.50528821651E+02  0.29999883892E+02 0.  0.
        -12    1    1    2    0    0  0.14422614562E+02  0.86673084043E+01 -0.37013980308E+02  0.40659178349E+02  0.00000000000E+00 0.  1.
         11    1    3    3    0    0 -0.15757882783E+02  0.16007289425E+01  0.19729012244E+02  0.25300338482E+02  0.51100000000E-03 0. -1.
        -11    1    3    3    0    0 -0.18335779284E+01 -0.97319126940E+01  0.19116509464E+02  0.21529353614E+02  0.51100000000E-03 0.  1.
        -12    1    3    3    0    0  0.31688461500E+01 -0.53612465275E+00 -0.18315413997E+01  0.36991295550E+01  0.00000000000E+00 0.  1.
</event>
<event>
 7    1  0.8697654E-014  0.5052886E+02  0.7816164E-02  0.1300439E+00
        -11   -1    0    0    0    0  0.00000000000E+00  0.00000000000E+00  0.45593999997E+02  0.45594000000E+02  0.51100000000E-03 0. -1.
         11   -1    0    0    0    0 -0.00000000000E+00 -0.00000000000E+00 -0.45593999997E+02  0.45594000000E+02  0.51100000000E-03 0.  1.
    9900012    2    1    2    0    0  0.23585822615E+02 -0.12170097482E+02  0.30802005532E+02  0.50528857781E+02  0.29999993711E+02 0.  0.
        -12    1    1    2    0    0 -0.23585822615E+02  0.12170097482E+02 -0.30802005532E+02  0.40659142219E+02  0.00000000000E+00 0.  1.
         11    1    3    3    0    0  0.16728774170E+02 -0.10926836819E+02  0.20285448996E+02  0.28473620939E+02  0.51100000000E-03 0. -1.
        -11    1    3    3    0    0 -0.40131232312E+01 -0.38312363957E+01  0.92812100624E+01  0.10813158228E+02  0.51100000000E-03 0.  1.
         12    1    3    3    0    0  0.10870171676E+02  0.25879757317E+01  0.12353464736E+01  0.11242078614E+02  0.00000000000E+00 0. -1.
</event>
<event>
 7    1  0.8697654E-014  0.5052885E+02  0.7816164E-02  0.1300439E+00
        -11   -1    0    0    0    0  0.00000000000E+00  0.00000000000E+00  0.45593999997E+02  0.45594000000E+02  0.51100000000E-03 0. -1.
         11   -1    0    0    0    0 -0.00000000000E+00 -0.00000000000E+00 -0.45593999997E+02  0.45594000000E+02  0.51100000000E-03 0.  1.
    9900012    2    1    2    0    0  0.34318105043E+02  0.23999381537E+01  0.21671967623E+02  0.50528853212E+02  0.29999979823E+02 0.  0.
        -12    1    1    2    0    0 -0.34318105043E+02 -0.23999381537E+01 -0.21671967623E+02  0.40659146788E+02  0.00000000000E+00 0.  1.
         11    1    3    3    0    0  0.89377822083E+01 -0.21800852124E+01 -0.34267758718E+01  0.98173069359E+01  0.51100000000E-03 0. -1.
        -11    1    3    3    0    0 -0.28848535692E+01  0.64180860264E+00  0.42475222953E+00  0.29857516835E+01  0.51100000000E-03 0.  1.
        -12    1    3    3    0    0  0.28265176404E+02  0.39382147635E+01  0.24673991265E+02  0.37725794592E+02  0.00000000000E+00 0.  1.
</event>
<event>
 7    1  0.8697654E-014  0.5052886E+02  0.7816164E-02  0.1300439E+00
        -11   -1    0    0    0    0  0.00000000000E+00  0.00000000000E+00  0.45593999997E+02  0.45594000000E+02  0.51100000000E-03 0. -1.
         11   -1    0    0    0    0 -0.00000000000E+00 -0.00000000000E+00 -0.45593999997E+02  0.45594000000E+02  0.51100000000E-03 0.  1.
    9900012    2    1    2    0    0 -0.32339583603E+00 -0.50835204586E+01  0.40338805418E+02  0.50528856038E+02  0.29999988414E+02 0.  0.
        -12    1    1    2    0    0  0.32339583603E+00  0.50835204586E+01 -0.40338805418E+02  0.40659143962E+02  0.00000000000E+00 0.  1.
         11    1    3    3    0    0  0.69007278242E+01  0.26154655247E+01  0.56082166850E+01  0.92689157435E+01  0.51100000000E-03 0.  1.
        -11    1    3    3    0    0 -0.37138882599E+01 -0.80859811102E+01  0.36315041399E+02  0.37389280397E+02  0.51100000000E-03 0. -1.
         12    1    3    3    0    0 -0.35102354003E+01  0.38699512695E+00 -0.15844526659E+01  0.38706598977E+01  0.00000000000E+00 0. -1.
</event>
<event>
 7    1  0.8697654E-014  0.5052886E+02  0.7816164E-02  0.1300439E+00
        -11   -1    0    0    0    0  0.00000000000E+00  0.00000000000E+00  0.45593999997E+02  0.45594000000E+02  0.51100000000E-03 0. -1.
         11   -1    0    0    0    0 -0.00000000000E+00 -0.00000000000E+00 -0.45593999997E+02  0.45594000000E+02  0.51100000000E-03 0.  1.
    9900012    2    1    2    0    0 -0.29893331776E+02  0.23371418276E+02 -0.14605862442E+02  0.50528859643E+02  0.29999999371E+02 0.  0.
         12    1    1    2    0    0  0.29893331776E+02 -0.23371418276E+02  0.14605862442E+02  0.40659140357E+02  0.00000000000E+00 0. -1.
         11    1    3    3    0    0 -0.75839198516E+01  0.71657012414E+01 -0.13278500083E+02  0.16887323035E+02  0.51100000000E-03 0. -1.
        -11    1    3    3    0    0 -0.21349998357E+02  0.49378821986E+01 -0.33046826066E+01  0.22161363628E+02  0.51100000000E-03 0.  1.
         12    1    3    3    0    0 -0.95941356719E+00  0.11267834836E+02  0.19773202471E+01  0.11480172980E+02  0.00000000000E+00 0. -1.
</event>
<event>
 7    1  0.8697654E-014  0.5052887E+02  0.7816164E-02  0.1300439E+00
        -11   -1    0    0    0    0  0.00000000000E+00  0.00000000000E+00  0.45593999997E+02  0.45594000000E+02  0.51100000000E-03 0. -1.
         11   -1    0    0    0    0 -0.00000000000E+00 -0.00000000000E+00 -0.45593999997E+02  0.45594000000E+02  0.51100000000E-03 0.  1.
    9900012    2    1    2    0    0 -0.99775590289E+01 -0.35960290872E+02  0.16139097492E+02  0.50528872223E+02  0.30000037608E+02 0.  0.
        -12    1    1    2    0    0  0.99775590289E+01  0.35960290872E+02 -0.16139097492E+02  0.40659127777E+02  0.00000000000E+00 0.  1.
         11    1    3    3    0    0 -0.10277546806E+02 -0.35891735802E+02  0.44161966519E+01  0.37594513700E+02  0.51100000000E-03 0. -1.
        -11    1    3    3    0    0  0.12575778838E+01  0.15474321392E+00  0.10115874715E+00  0.12710943904E+01  0.51100000000E-03 0.  1.
         12    1    3    3    0    0 -0.95759010655E+00 -0.22329828352E+00  0.11621742093E+02  0.11663264132E+02  0.00000000000E+00 0. -1.
</event>
<event>
 7    1  0.8697654E-014  0.5052887E+02  0.7816164E-02  0.1300439E+00
        -11   -1    0    0    0    0  0.00000000000E+00  0.00000000000E+00  0.45593999997E+02  0.45594000000E+02  0.51100000000E-03 0. -1.
         11   -1    0    0    0    0 -0.00000000000E+00 -0.00000000000E+00 -0.45593999997E+02  0.45594000000E+02  0.51100000000E-03 0.  1.
    9900012    2    1    2    0    0  0.74123896155E+00 -0.33800226622E+02 -0.22586723921E+02  0.50528870000E+02  0.30000030851E+02 0.  0.
         12    1    1    2    0    0 -0.74123896155E+00  0.33800226622E+02  0.22586723921E+02  0.40659130000E+02  0.00000000000E+00 0. -1.
         11    1    3    3    0    0 -0.11902427687E+01  0.74093240154E+00 -0.14392351872E+01  0.20092428567E+01  0.51100000000E-03 0. -1.
        -11    1    3    3    0    0 -0.68489143406E+01 -0.34016178430E+02 -0.18560641100E+02  0.39351053619E+02  0.51100000000E-03 0.  1.
        -12    1    3    3    0    0  0.87803960709E+01 -0.52498059372E+00 -0.25868476336E+01  0.91685735240E+01  0.00000000000E+00 0.  1.
</event>
<event>
 7    1  0.8697654E-014  0.5052885E+02  0.7816164E-02  0.1300439E+00
        -11   -1    0    0    0    0  0.00000000000E+00  0.00000000000E+00  0.45593999997E+02  0.45594000000E+02  0.51100000000E-03 0. -1.
         11   -1    0    0    0    0 -0.00000000000E+00 -0.00000000000E+00 -0.45593999997E+02  0.45594000000E+02  0.51100000000E-03 0.  1.
    9900012    2    1    2    0    0 -0.31467663784E+02  0.12415432593E+02  0.22556806928E+02  0.50528851346E+02  0.29999974151E+02 0.  0.
        -12    1    1    2    0    0  0.31467663784E+02 -0.12415432593E+02 -0.22556806928E+02  0.40659148654E+02  0.00000000000E+00 0.  1.
         11    1    3    3    0    0 -0.13039587281E+02 -0.22781659502E+01  0.12240830941E+02  0.18029387648E+02  0.51100000000E-03 0. -1.
        -11    1    3    3    0    0 -0.16154033087E+02  0.39899688690E+01  0.13135655912E+02  0.21199483320E+02  0.51100000000E-03 0.  1.
        -12    1    3    3    0    0 -0.22740434162E+01  0.10703629674E+02 -0.28196799253E+01  0.11299980378E+02  0.00000000000E+00 0.  1.
</event>
<event>
 7    1  0.8697654E-014  0.5052886E+02  0.7816164E-02  0.1300439E+00
        -11   -1    0    0    0    0  0.00000000000E+00  0.00000000000E+00  0.45593999997E+02  0.45594000000E+02  0.51100000000E-03 0. -1.
         11   -1    0    0    0    0 -0.00000000000E+00 -0.00000000000E+00 -0.45593999997E+02  0.45594000000E+02  0.51100000000E-03 0.  1.
    9900012    2    1    2    0    0 -0.13296809832E+01  0.19896669340E+02  0.35433317773E+02  0.50528861904E+02  0.30000006243E+02 0.  0.
        -12    1    1    2    0    0  0.13296809832E+01 -0.19896669340E+02 -0.35433317773E+02  0.40659138096E+02  0.00000000000E+00 0.  1.
         11    1    3    3    0    0  0.77173746653E+01  0.19444640800E+02  0.94210850242E+01  0.22943599780E+02  0.51100000000E-03 0.  1.
        -11    1    3    3    0    0 -0.39870824274E+01  0.71495798726E+00  0.13200037650E+02  0.13807569860E+02  0.51100000000E-03 0. -1.
        -12    1    3    3    0    0 -0.50599732212E+01 -0.26292944723E+00  0.12812195099E+02  0.13777692265E+02  0.00000000000E+00 0.  1.
</event>
<event>
 7    1  0.8697654E-014  0.5052886E+02  0.7816164E-02  0.1300439E+00
        -11   -1    0    0    0    0  0.00000000000E+00  0.00000000000E+00  0.45593999997E+02  0.45594000000E+02  0.51100000000E-03 0. -1.
         11   -1    0    0    0    0 -0.00000000000E+00 -0.00000000000E+00 -0.45593999997E+02  0.45594000000E+02  0.51100000000E-03 0.  1.
    9900012    2    1    2    0    0 -0.79090187005E+01 -0.17946890454E+02  0.35616321898E+02  0.50528857863E+02  0.29999993960E+02 0.  0.
        -12    1    1    2    0    0  0.79090187005E+01  0.17946890454E+02 -0.35616321898E+02  0.40659142137E+02  0.00000000000E+00 0.  1.
         11    1    3    3    0    0  0.86065792761E+01 -0.62180366131E+01  0.84714128708E+01  0.13583152154E+02  0.51100000000E-03 0. -1.
        -11    1    3    3    0    0 -0.54602026269E+01  0.82741890973E+00  0.15786382528E+02  0.16724482304E+02  0.51100000000E-03 0.  1.
        -12    1    3    3    0    0 -0.11055395350E+02 -0.12556272751E+02  0.11358526500E+02  0.20221223404E+02  0.00000000000E+00 0.  1.
</event>
<event>
 7    1  0.8697654E-014  0.5052886E+02  0.7816164E-02  0.1300439E+00
        -11   -1    0    0    0    0  0.00000000000E+00  0.00000000000E+00  0.45593999997E+02  0.45594000000E+02  0.51100000000E-03 0. -1.
         11   -1    0    0    0    0 -0.00000000000E+00 -0.00000000000E+00 -0.45593999997E+02  0.45594000000E+02  0.51100000000E-03 0.  1.
    9900012    2    1    2    0    0  0.13912610049E+02  0.22811273331E+02  0.30647194278E+02  0.50528862940E+02  0.30000009393E+02 0.  0.
        -12    1    1    2    0    0 -0.13912610049E+02 -0.22811273331E+02 -0.30647194278E+02  0.40659137060E+02  0.00000000000E+00 0.  1.
         11    1    3    3    0    0 -0.44337694961E+01  0.75937954675E+01  0.92540788531E+01  0.12765657728E+02  0.51100000000E-03 0. -1.
        -11    1    3    3    0    0  0.10414729540E+02  0.19464261862E+02  0.16122579286E+02  0.27336086851E+02  0.51100000000E-03 0.  1.
         12    1    3    3    0    0  0.79316500051E+01 -0.42467839986E+01  0.52705361385E+01  0.10427118361E+02  0.00000000000E+00 0. -1.
</event>
<event>
 7    1  0.8697654E-014  0.5052887E+02  0.7816164E-02  0.1300439E+00
        -11   -1    0    0    0    0  0.00000000000E+00  0.00000000000E+00  0.45593999997E+02  0.45594000000E+02  0.51100000000E-03 0. -1.
         11   -1    0    0    0    0 -0.00000000000E+00 -0.00000000000E+00 -0.45593999997E+02  0.45594000000E+02  0.51100000000E-03 0.  1.
    9900012    2    1    2    0    0  0.15010679331E+02 -0.27488792101E+02  0.25927032461E+02  0.50528865757E+02  0.30000017955E+02 0.  0.
        -12    1    1    2    0    0 -0.15010679331E+02  0.27488792101E+02 -0.25927032461E+02  0.40659134243E+02  0.00000000000E+00 0.  1.
         11    1    3    3    0    0  0.55199949187E+01 -0.20128646409E+02  0.17610814558E+02  0.27308854605E+02  0.51100000000E-03 0. -1.
        -11    1    3    3    0    0 -0.40495749868E+01 -0.10962443411E+01 -0.24165690350E+01  0.48415509283E+01  0.51100000000E-03 0.  1.
         12    1    3    3    0    0  0.13540259399E+02 -0.62639013505E+01  0.10732786938E+02  0.18378460224E+02  0.00000000000E+00 0. -1.
</event>
<event>
 7    1  0.8697654E-014  0.5052886E+02  0.7816164E-02  0.1300439E+00
        -11   -1    0    0    0    0  0.00000000000E+00  0.00000000000E+00  0.45593999997E+02  0.45594000000E+02  0.51100000000E-03 0.  1.
         11   -1    0    0    0    0 -0.00000000000E+00 -0.00000000000E+00 -0.45593999997E+02  0.45594000000E+02  0.51100000000E-03 0. -1.
    9900012    2    1    2    0    0  0.18599539557E+02  0.34863180377E+02 -0.95802673575E+01  0.50528859080E+02  0.29999997659E+02 0.  0.
         12    1    1    2    0    0 -0.18599539557E+02 -0.34863180377E+02  0.95802673575E+01  0.40659140920E+02  0.00000000000E+00 0. -1.
         11    1    3    3    0    0  0.16039971415E+02  0.17803630521E+02 -0.13535627409E+02  0.27522048476E+02  0.51100000000E-03 0. -1.
        -11    1    3    3    0    0  0.84528620649E+01  0.82271082485E+01  0.37829316830E+01  0.12387362899E+02  0.51100000000E-03 0.  1.
         12    1    3    3    0    0 -0.58932939225E+01  0.88324416074E+01  0.17242836827E+00  0.10619447704E+02  0.00000000000E+00 0. -1.
</event>
<event>
 7    1  0.8697654E-014  0.5052886E+02  0.7816164E-02  0.1300439E+00
        -11   -1    0    0    0    0  0.00000000000E+00  0.00000000000E+00  0.45593999997E+02  0.45594000000E+02  0.51100000000E-03 0. -1.
         11   -1    0    0    0    0 -0.00000000000E+00 -0.00000000000E+00 -0.45593999997E+02  0.45594000000E+02  0.51100000000E-03 0.  1.
    9900012    2    1    2    0    0 -0.19580826237E+02 -0.32655715235E+01 -0.35483697776E+02  0.50528861774E+02  0.30000005847E+02 0.  0.
         12    1    1    2    0    0  0.19580826237E+02  0.32655715235E+01  0.35483697776E+02  0.40659138226E+02  0.00000000000E+00 0. -1.
         11    1    3    3    0    0  0.31592482656E+01 -0.25265705563E+01 -0.91343001236E+00  0.41471391379E+01  0.51100000000E-03 0. -1.
        -11    1    3    3    0    0 -0.17412327210E+02 -0.10032953500E+02 -0.20622706842E+02  0.28794883791E+02  0.51100000000E-03 0.  1.
         12    1    3    3    0    0 -0.53277472924E+01  0.92939525328E+01 -0.13947560921E+02  0.17586838845E+02  0.00000000000E+00 0. -1.
</event>
<event>
 7    1  0.8697654E-014  0.5052887E+02  0.7816164E-02  0.1300439E+00
        -11   -1    0    0    0    0  0.00000000000E+00  0.00000000000E+00  0.45593999997E+02  0.45594000000E+02  0.51100000000E-03 0. -1.
         11   -1    0    0    0    0 -0.00000000000E+00 -0.00000000000E+00 -0.45593999997E+02  0.45594000000E+02  0.51100000000E-03 0.  1.
    9900012    2    1    2    0    0 -0.72076199804E+01 -0.15467815149E+02  0.36904768771E+02  0.50528867578E+02  0.30000023490E+02 0.  0.
        -12    1    1    2    0    0  0.72076199804E+01  0.15467815149E+02 -0.36904768771E+02  0.40659132422E+02  0.00000000000E+00 0.  1.
         11    1    3    3    0    0 -0.72373588734E+01 -0.34242003100E+01  0.21397630032E+02  0.22846511385E+02  0.51100000000E-03 0. -1.
        -11    1    3    3    0    0 -0.37995641169E+01  0.45335277067E+01  0.41750435262E+01  0.72402037024E+01  0.51100000000E-03 0.  1.
        -12    1    3    3    0    0  0.38293030099E+01 -0.16577142546E+02  0.11332095213E+02  0.20442152490E+02  0.00000000000E+00 0.  1.
</event>
<event>
 7    1  0.8697654E-014  0.5052885E+02  0.7816164E-02  0.1300439E+00
        -11   -1    0    0    0    0  0.00000000000E+00  0.00000000000E+00  0.45593999997E+02  0.45594000000E+02  0.51100000000E-03 0.  1.
         11   -1    0    0    0    0 -0.00000000000E+00 -0.00000000000E+00 -0.45593999997E+02  0.45594000000E+02  0.51100000000E-03 0. -1.
    9900012    2    1    2    0    0 -0.40602106854E+02  0.20067182241E+01  0.77993431418E+00  0.50528852240E+02  0.29999976869E+02 0.  0.
         12    1    1    2    0    0  0.40602106854E+02 -0.20067182241E+01 -0.77993431418E+00  0.40659147760E+02  0.00000000000E+00 0. -1.
         11    1    3    3    0    0 -0.51729191534E+01  0.48847493800E+01  0.74109482731E+01  0.10273364767E+02  0.51100000000E-03 0. -1.
        -11    1    3    3    0    0 -0.27759936297E+02 -0.39416155426E+01  0.26564535220E+01  0.28163933352E+02  0.51100000000E-03 0.  1.
         12    1    3    3    0    0 -0.76692514041E+01  0.10635843867E+01 -0.92874674810E+01  0.12091554121E+02  0.00000000000E+00 0. -1.
</event>
<event>
 7    1  0.8697654E-014  0.5052887E+02  0.7816164E-02  0.1300439E+00
        -11   -1    0    0    0    0  0.00000000000E+00  0.00000000000E+00  0.45593999997E+02  0.45594000000E+02  0.51100000000E-03 0. -1.
         11   -1    0    0    0    0 -0.00000000000E+00 -0.00000000000E+00 -0.45593999997E+02  0.45594000000E+02  0.51100000000E-03 0.  1.
    9900012    2    1    2    0    0 -0.98781789467E+01 -0.30221492256E+02 -0.25342616028E+02  0.50528865717E+02  0.30000017835E+02 0.  0.
         12    1    1    2    0    0  0.98781789467E+01  0.30221492256E+02  0.25342616028E+02  0.40659134283E+02  0.00000000000E+00 0. -1.
         11    1    3    3    0    0 -0.56179003098E+01 -0.53532557088E+01 -0.13567919019E+01  0.78777557147E+01  0.51100000000E-03 0. -1.
        -11    1    3    3    0    0 -0.10935699228E+02 -0.15896056089E+01 -0.75429289518E+01  0.13379541884E+02  0.51100000000E-03 0.  1.
        -12    1    3    3    0    0  0.66754205909E+01 -0.23278630938E+02 -0.16442895174E+02  0.29271568119E+02  0.00000000000E+00 0.  1.
</event>
<event>
 7    1  0.8697654E-014  0.5052887E+02  0.7816164E-02  0.1300439E+00
        -11   -1    0    0    0    0  0.00000000000E+00  0.00000000000E+00  0.45593999997E+02  0.45594000000E+02  0.51100000000E-03 0.  1.
         11   -1    0    0    0    0 -0.00000000000E+00 -0.00000000000E+00 -0.45593999997E+02  0.45594000000E+02  0.51100000000E-03 0. -1.
    9900012    2    1    2    0    0  0.34072414779E+02 -0.90277721071E+01 -0.20266582946E+02  0.50528874304E+02  0.30000043933E+02 0.  0.
         12    1    1    2    0    0 -0.34072414779E+02  0.90277721071E+01  0.20266582946E+02  0.40659125696E+02  0.00000000000E+00 0. -1.
         11    1    3    3    0    0 -0.27198272305E+01  0.23198465537E+01 -0.19037348327E+01  0.40501055259E+01  0.51100000000E-03 0. -1.
        -11    1    3    3    0    0  0.17761593390E+02 -0.14786102335E+02 -0.74959453859E+01  0.24295930102E+02  0.51100000000E-03 0.  1.
         12    1    3    3    0    0  0.19030648619E+02  0.34384836738E+01 -0.10866902727E+02  0.22182838676E+02  0.00000000000E+00 0. -1.
</event>
<event>
 7    1  0.8697654E-014  0.5052886E+02  0.7816164E-02  0.1300439E+00
        -11   -1    0    0    0    0  0.00000000000E+00  0.00000000000E+00  0.45593999997E+02  0.45594000000E+02  0.51100000000E-03 0. -1.
         11   -1    0    0    0    0 -0.00000000000E+00 -0.00000000000E+00 -0.45593999997E+02  0.45594000000E+02  0.51100000000E-03 0.  1.
    9900012    2    1    2    0    0  0.19358608133E+02 -0.40648812647E+01  0.35523043784E+02  0.50528860704E+02  0.30000002597E+02 0.  0.
        -12    1    1    2    0    0 -0.19358608133E+02  0.40648812647E+01 -0.35523043784E+02  0.40659139296E+02  0.00000000000E+00 0.  1.
         11    1    3    3    0    0 -0.13822683016E+01 -0.43312619925E+01  0.52592192123E+01  0.69519697273E+01  0.51100000000E-03 0. -1.
        -11    1    3    3    0    0  0.52493822026E+01 -0.90201759568E+01  0.29750267435E+01  0.10852205867E+02  0.51100000000E-03 0.  1.
         12    1    3    3    0    0  0.15491494232E+02  0.92865566845E+01  0.27288797829E+02  0.32724685110E+02  0.00000000000E+00 0. -1.
</event>
<event>
 7    1  0.8697654E-014  0.5052885E+02  0.7816164E-02  0.1300439E+00
        -11   -1    0    0    0    0  0.00000000000E+00  0.00000000000E+00  0.45593999997E+02  0.45594000000E+02  0.51100000000E-03 0. -1.
         11   -1    0    0    0    0 -0.00000000000E+00 -0.00000000000E+00 -0.45593999997E+02  0.45594000000E+02  0.51100000000E-03 0.  1.
    9900012    2    1    2    0    0  0.24606303982E+01  0.22322721498E+02  0.33894067317E+02  0.50528851014E+02  0.29999973141E+02 0.  0.
        -12    1    1    2    0    0 -0.24606303982E+01 -0.22322721498E+02 -0.33894067317E+02  0.40659148986E+02  0.00000000000E+00 0.  1.
         11    1    3    3    0    0  0.58658661599E+01  0.13916909119E+02  0.13966616121E+02  0.20570734342E+02  0.51100000000E-03 0. -1.
        -11    1    3    3    0    0  0.62153233036E+01  0.24049015740E+01  0.16982336314E+02  0.18243177966E+02  0.51100000000E-03 0.  1.
        -12    1    3    3    0    0 -0.96205590653E+01  0.60009108043E+01  0.29451148817E+01  0.11714938706E+02  0.00000000000E+00 0.  1.
</event>
<event>
 7    1  0.8697654E-014  0.5052888E+02  0.7816164E-02  0.1300439E+00
        -11   -1    0    0    0    0  0.00000000000E+00  0.00000000000E+00  0.45593999997E+02  0.45594000000E+02  0.51100000000E-03 0. -1.
         11   -1    0    0    0    0 -0.00000000000E+00 -0.00000000000E+00 -0.45593999997E+02  0.45594000000E+02  0.51100000000E-03 0.  1.
    9900012    2    1    2    0    0  0.20581785633E+02 -0.24379740728E+02 -0.25202832163E+02  0.50528875479E+02  0.30000047505E+02 0.  0.
         12    1    1    2    0    0 -0.20581785633E+02  0.24379740728E+02  0.25202832163E+02  0.40659124521E+02  0.00000000000E+00 0. -1.
         11    1    3    3    0    0  0.10833339580E+02  0.27253901462E+00  0.33033362834E+00  0.10841800798E+02  0.51100000000E-03 0. -1.
        -11    1    3    3    0    0 -0.33567847722E+01 -0.83152991496E+01 -0.46109510706E+01  0.10083306699E+02  0.51100000000E-03 0.  1.
        -12    1    3    3    0    0  0.13105230825E+02 -0.16336980593E+02 -0.20922214721E+02  0.29603767981E+02  0.00000000000E+00 0.  1.
</event>
<event>
 7    1  0.8697654E-014  0.5052875E+02  0.7816164E-02  0.1300439E+00
        -11   -1    0    0    0    0  0.00000000000E+00  0.00000000000E+00  0.45593999997E+02  0.45594000000E+02  0.51100000000E-03 0. -1.
         11   -1    0    0    0    0 -0.00000000000E+00 -0.00000000000E+00 -0.45593999997E+02  0.45594000000E+02  0.51100000000E-03 0.  1.
    9900012    2    1    2    0    0 -0.16432282924E+02  0.37109403245E+02 -0.24590730154E+01  0.50528748022E+02  0.29999660085E+02 0.  0.
        -12    1    1    2    0    0  0.16432282924E+02 -0.37109403245E+02  0.24590730154E+01  0.40659251978E+02  0.00000000000E+00 0.  1.
         11    1    3    3    0    0  0.25292772981E+01  0.17084570917E+02  0.32296802198E+01  0.17570163393E+02  0.51100000000E-03 0. -1.
        -11    1    3    3    0    0 -0.16845330277E+02  0.16272987095E+02  0.26518567318E+01  0.23571330160E+02  0.51100000000E-03 0.  1.
        -12    1    3    3    0    0 -0.21162299459E+01  0.37518452339E+01 -0.83406099671E+01  0.93872544690E+01  0.00000000000E+00 0.  1.
</event>
<event>
 7    1  0.8697654E-014  0.5052886E+02  0.7816164E-02  0.1300439E+00
        -11   -1    0    0    0    0  0.00000000000E+00  0.00000000000E+00  0.45593999997E+02  0.45594000000E+02  0.51100000000E-03 0. -1.
         11   -1    0    0    0    0 -0.00000000000E+00 -0.00000000000E+00 -0.45593999997E+02  0.45594000000E+02  0.51100000000E-03 0.  1.
    9900012    2    1    2    0    0  0.27656637473E+02 -0.12387514119E+02  0.27107666057E+02  0.50528860051E+02  0.30000000611E+02 0.  0.
        -12    1    1    2    0    0 -0.27656637473E+02  0.12387514119E+02 -0.27107666057E+02  0.40659139949E+02  0.00000000000E+00 0.  1.
         11    1    3    3    0    0  0.15129479463E+02  0.59670684439E+01  0.12144765340E+02  0.20297841759E+02  0.51100000000E-03 0. -1.
        -11    1    3    3    0    0  0.81305054089E+00  0.77819635108E+00 -0.18710555337E+01  0.21834582236E+01  0.51100000000E-03 0.  1.
         12    1    3    3    0    0  0.11714107469E+02 -0.19132778914E+02  0.16833956251E+02  0.28047560069E+02  0.00000000000E+00 0. -1.
</event>
<event>
 7    1  0.8697654E-014  0.5052887E+02  0.7816164E-02  0.1300439E+00
        -11   -1    0    0    0    0  0.00000000000E+00  0.00000000000E+00  0.45593999997E+02  0.45594000000E+02  0.51100000000E-03 0. -1.
         11   -1    0    0    0    0 -0.00000000000E+00 -0.00000000000E+00 -0.45593999997E+02  0.45594000000E+02  0.51100000000E-03 0.  1.
    9900012    2    1    2    0    0 -0.31902985640E+01 -0.18699609611E+01  0.40490618569E+02  0.50528868786E+02  0.30000027163E+02 0.  0.
        -12    1    1    2    0    0  0.31902985640E+01  0.18699609611E+01 -0.40490618569E+02  0.40659131214E+02  0.00000000000E+00 0.  1.
         11    1    3    3    0    0  0.76187865074E+01 -0.20979352365E+01  0.81229969669E+01  0.11332710183E+02  0.51100000000E-03 0.  1.
        -11    1    3    3    0    0 -0.18237936839E+01  0.57722296898E+01  0.26364872829E+02  0.27050903470E+02  0.51100000000E-03 0. -1.
        -12    1    3    3    0    0 -0.89852913875E+01 -0.55442554145E+01  0.60027487730E+01  0.12145255133E+02  0.00000000000E+00 0.  1.
</event>
<event>
 7    1  0.8697654E-014  0.5052886E+02  0.7816164E-02  0.1300439E+00
        -11   -1    0    0    0    0  0.00000000000E+00  0.00000000000E+00  0.45593999997E+02  0.45594000000E+02  0.51100000000E-03 0. -1.
         11   -1    0    0    0    0 -0.00000000000E+00 -0.00000000000E+00 -0.45593999997E+02  0.45594000000E+02  0.51100000000E-03 0.  1.
    9900012    2    1    2    0    0  0.71840016198E+01  0.25881359988E+02 -0.30523936182E+02  0.50528863829E+02  0.30000012095E+02 0.  0.
         12    1    1    2    0    0 -0.71840016198E+01 -0.25881359988E+02  0.30523936182E+02  0.40659136171E+02  0.00000000000E+00 0. -1.
         11    1    3    3    0    0 -0.89153790496E+00  0.22067853750E+01  0.19382387643E-01  0.23801507232E+01  0.51100000000E-03 0. -1.
        -11    1    3    3    0    0  0.87706715249E+01  0.72457172677E+00 -0.21922737126E+02  0.23623210758E+02  0.51100000000E-03 0.  1.
         12    1    3    3    0    0 -0.69513200018E+00  0.22950002886E+02 -0.86205814444E+01  0.24525502348E+02  0.00000000000E+00 0. -1.
</event>
<event>
 7    1  0.8697654E-014  0.5052883E+02  0.7816164E-02  0.1300439E+00
        -11   -1    0    0    0    0  0.00000000000E+00  0.00000000000E+00  0.45593999997E+02  0.45594000000E+02  0.51100000000E-03 0. -1.
         11   -1    0    0    0    0 -0.00000000000E+00 -0.00000000000E+00 -0.45593999997E+02  0.45594000000E+02  0.51100000000E-03 0.  1.
    9900012    2    1    2    0    0 -0.80496970362E+01  0.25938881225E+02  0.30257972429E+02  0.50528830344E+02  0.29999910315E+02 0.  0.
        -12    1    1    2    0    0  0.80496970362E+01 -0.25938881225E+02 -0.30257972429E+02  0.40659169656E+02  0.00000000000E+00 0.  1.
         11    1    3    3    0    0 -0.18012129306E+01  0.31724800703E+01  0.16415337391E+02  0.16815834792E+02  0.51100000000E-03 0. -1.
        -11    1    3    3    0    0  0.37001265620E+01  0.20082883442E+02  0.87022004606E+01  0.22197780002E+02  0.51100000000E-03 0.  1.
        -12    1    3    3    0    0 -0.99486106676E+01  0.26835177126E+01  0.51404345772E+01  0.11515215550E+02  0.00000000000E+00 0.  1.
</event>
<event>
 7    1  0.1119675E-013  0.5052886E+02  0.7816164E-02  0.1300439E+00
        -11   -1    0    0    0    0  0.00000000000E+00  0.00000000000E+00  0.45593999997E+02  0.45594000000E+02  0.51100000000E-03 0. -1.
         11   -1    0    0    0    0 -0.00000000000E+00 -0.00000000000E+00 -0.45593999997E+02  0.45594000000E+02  0.51100000000E-03 0.  1.
    9900012    2    1    2    0    0 -0.11152103202E+01 -0.52805445044E+01 -0.40299353597E+02  0.50528859027E+02  0.29999997499E+02 0.  0.
         12    1    1    2    0    0  0.11152103202E+01  0.52805445044E+01  0.40299353597E+02  0.40659140973E+02  0.00000000000E+00 0. -1.
         11    1    3    3    0    0  0.69127301998E+01 -0.34114744150E+01 -0.50093682520E+01  0.91933545045E+01  0.51100000000E-03 0. -1.
        -11    1    3    3    0    0  0.13151294160E+01 -0.91880451792E+01 -0.19363762260E+02  0.21473356252E+02  0.51100000000E-03 0.  1.
         12    1    3    3    0    0 -0.93430699360E+01  0.73189750898E+01 -0.15926223085E+02  0.19862148271E+02  0.00000000000E+00 0. -1.
</event>
<event>
 7    1  0.8697654E-014  0.5052887E+02  0.7816164E-02  0.1300439E+00
        -11   -1    0    0    0    0  0.00000000000E+00  0.00000000000E+00  0.45593999997E+02  0.45594000000E+02  0.51100000000E-03 0. -1.
         11   -1    0    0    0    0 -0.00000000000E+00 -0.00000000000E+00 -0.45593999997E+02  0.45594000000E+02  0.51100000000E-03 0.  1.
    9900012    2    1    2    0    0  0.11297194691E+01 -0.29711843167E+02 -0.27732562509E+02  0.50528869244E+02  0.30000028555E+02 0.  0.
         12    1    1    2    0    0 -0.11297194691E+01  0.29711843167E+02  0.27732562509E+02  0.40659130756E+02  0.00000000000E+00 0. -1.
         11    1    3    3    0    0 -0.20923193579E+01 -0.52502534825E+01 -0.27771202870E+01  0.62972501360E+01  0.51100000000E-03 0. -1.
        -11    1    3    3    0    0 -0.28924145697E+01 -0.14349086367E+02  0.20245906442E+01  0.14777053466E+02  0.51100000000E-03 0.  1.
         12    1    3    3    0    0  0.61144533967E+01 -0.10112503318E+02 -0.26980032867E+02  0.29454565642E+02  0.00000000000E+00 0. -1.
</event>
<event>
 7    1  0.8697654E-014  0.5052886E+02  0.7816164E-02  0.1300439E+00
        -11   -1    0    0    0    0  0.00000000000E+00  0.00000000000E+00  0.45593999997E+02  0.45594000000E+02  0.51100000000E-03 0. -1.
         11   -1    0    0    0    0 -0.00000000000E+00 -0.00000000000E+00 -0.45593999997E+02  0.45594000000E+02  0.51100000000E-03 0.  1.
    9900012    2    1    2    0    0 -0.18896163935E+02  0.71692232572E+01 -0.35280348787E+02  0.50528858542E+02  0.29999996024E+02 0.  0.
         12    1    1    2    0    0  0.18896163935E+02 -0.71692232572E+01  0.35280348787E+02  0.40659141458E+02  0.00000000000E+00 0. -1.
         11    1    3    3    0    0  0.48434889811E+01 -0.13509840236E+01  0.76475236560E-01  0.50289553652E+01  0.51100000000E-03 0. -1.
        -11    1    3    3    0    0 -0.92878920624E+01  0.35251851360E+01 -0.41852020281E+01  0.10779971497E+02  0.51100000000E-03 0.  1.
         12    1    3    3    0    0 -0.14451760854E+02  0.49950221448E+01 -0.31171621995E+02  0.34719931679E+02  0.00000000000E+00 0. -1.
</event>
<event>
 7    1  0.8697654E-014  0.5052885E+02  0.7816164E-02  0.1300439E+00
        -11   -1    0    0    0    0  0.00000000000E+00  0.00000000000E+00  0.45593999997E+02  0.45594000000E+02  0.51100000000E-03 0. -1.
         11   -1    0    0    0    0 -0.00000000000E+00 -0.00000000000E+00 -0.45593999997E+02  0.45594000000E+02  0.51100000000E-03 0.  1.
    9900012    2    1    2    0    0  0.98474924769E+01 -0.32067862498E+01 -0.39318063831E+02  0.50528846915E+02  0.29999960684E+02 0.  0.
         12    1    1    2    0    0 -0.98474924769E+01  0.32067862498E+01  0.39318063831E+02  0.40659153085E+02  0.00000000000E+00 0. -1.
         11    1    3    3    0    0 -0.49944427845E+01  0.12408181461E+01 -0.10315675293E+01  0.52486398455E+01  0.51100000000E-03 0. -1.
        -11    1    3    3    0    0  0.33623152626E+01  0.34539479728E+00 -0.30320293827E+02  0.30508108423E+02  0.51100000000E-03 0.  1.
         12    1    3    3    0    0  0.11479619999E+02 -0.47929991932E+01 -0.79662024745E+01  0.14772098647E+02  0.00000000000E+00 0. -1.
</event>
<event>
 7    1  0.8697654E-014  0.5052886E+02  0.7816164E-02  0.1300439E+00
        -11   -1    0    0    0    0  0.00000000000E+00  0.00000000000E+00  0.45593999997E+02  0.45594000000E+02  0.51100000000E-03 0. -1.
         11   -1    0    0    0    0 -0.00000000000E+00 -0.00000000000E+00 -0.45593999997E+02  0.45594000000E+02  0.51100000000E-03 0.  1.
    9900012    2    1    2    0    0 -0.37544523802E+02  0.43538815401E+01 -0.14987273277E+02  0.50528856966E+02  0.29999991233E+02 0.  0.
         12    1    1    2    0    0  0.37544523802E+02 -0.43538815401E+01  0.14987273277E+02  0.40659143034E+02  0.00000000000E+00 0. -1.
         11    1    3    3    0    0 -0.13260118003E+01 -0.32711934814E+01  0.46443189161E+01  0.58334134555E+01  0.51100000000E-03 0. -1.
        -11    1    3    3    0    0 -0.15440263517E+02 -0.24120467793E+01 -0.13909300326E+02  0.20921002437E+02  0.51100000000E-03 0.  1.
        -12    1    3    3    0    0 -0.20778248484E+02  0.10037121801E+02 -0.57222918668E+01  0.23774441073E+02  0.00000000000E+00 0.  1.
</event>
<event>
 7    1  0.9159795E-014  0.5052886E+02  0.7816164E-02  0.1300439E+00
        -11   -1    0    0    0    0  0.00000000000E+00  0.00000000000E+00  0.45593999997E+02  0.45594000000E+02  0.51100000000E-03 0. -1.
         11   -1    0    0    0    0 -0.00000000000E+00 -0.00000000000E+00 -0.45593999997E+02  0.45594000000E+02  0.51100000000E-03 0.  1.
    9900012    2    1    2    0    0  0.75245849578E+01 -0.35739147186E+02 -0.17867842864E+02  0.50528857990E+02  0.29999994345E+02 0.  0.
         12    1    1    2    0    0 -0.75245849578E+01  0.35739147186E+02  0.17867842864E+02  0.40659142010E+02  0.00000000000E+00 0. -1.
         11    1    3    3    0    0 -0.16724906698E+01 -0.56623643690E+01 -0.11475012376E+02  0.12904863602E+02  0.51100000000E-03 0. -1.
        -11    1    3    3    0    0  0.85122973763E+01 -0.27779140571E+02 -0.12069890696E+02  0.31461438606E+02  0.51100000000E-03 0.  1.
         12    1    3    3    0    0  0.68477825129E+00 -0.22976422464E+01  0.56770602087E+01  0.61625557814E+01  0.00000000000E+00 0. -1.
</event>
<event>
 7    1  0.8697654E-014  0.5052886E+02  0.7816164E-02  0.1300439E+00
        -11   -1    0    0    0    0  0.00000000000E+00  0.00000000000E+00  0.45593999997E+02  0.45594000000E+02  0.51100000000E-03 0. -1.
         11   -1    0    0    0    0 -0.00000000000E+00 -0.00000000000E+00 -0.45593999997E+02  0.45594000000E+02  0.51100000000E-03 0.  1.
    9900012    2    1    2    0    0  0.10053037643E+02 -0.13709655687E+01 -0.39372869977E+02  0.50528855854E+02  0.29999987854E+02 0.  0.
         12    1    1    2    0    0 -0.10053037643E+02  0.13709655687E+01  0.39372869977E+02  0.40659144146E+02  0.00000000000E+00 0. -1.
         11    1    3    3    0    0 -0.68249140291E+01 -0.19204937217E+01  0.50357576529E+00  0.71078362708E+01  0.51100000000E-03 0. -1.
        -11    1    3    3    0    0  0.81169406045E+01  0.29701219588E+00 -0.23214945406E+02  0.24594849694E+02  0.51100000000E-03 0.  1.
        -12    1    3    3    0    0  0.87610110674E+01  0.25251595714E+00 -0.16661500337E+02  0.18826169889E+02  0.00000000000E+00 0.  1.
</event>
<event>
 7    1  0.8697654E-014  0.5052886E+02  0.7816164E-02  0.1300439E+00
        -11   -1    0    0    0    0  0.00000000000E+00  0.00000000000E+00  0.45593999997E+02  0.45594000000E+02  0.51100000000E-03 0. -1.
         11   -1    0    0    0    0 -0.00000000000E+00 -0.00000000000E+00 -0.45593999997E+02  0.45594000000E+02  0.51100000000E-03 0.  1.
    9900012    2    1    2    0    0 -0.92631181764E+01 -0.50026835352E+01 -0.39272549315E+02  0.50528864119E+02  0.30000012976E+02 0.  0.
         12    1    1    2    0    0  0.92631181764E+01  0.50026835352E+01  0.39272549315E+02  0.40659135881E+02  0.00000000000E+00 0. -1.
         11    1    3    3    0    0  0.15007350760E+01 -0.93849420708E+01 -0.55374951534E+01  0.10999690735E+02  0.51100000000E-03 0. -1.
        -11    1    3    3    0    0  0.36166681613E+01 -0.15649103317E+01 -0.13125727380E+02  0.13704523066E+02  0.51100000000E-03 0.  1.
         12    1    3    3    0    0 -0.14380521414E+02  0.59471688672E+01 -0.20609326781E+02  0.25824650318E+02  0.00000000000E+00 0. -1.
</event>
<event>
 7    1  0.8697654E-014  0.5052885E+02  0.7816164E-02  0.1300439E+00
        -11   -1    0    0    0    0  0.00000000000E+00  0.00000000000E+00  0.45593999997E+02  0.45594000000E+02  0.51100000000E-03 0. -1.
         11   -1    0    0    0    0 -0.00000000000E+00 -0.00000000000E+00 -0.45593999997E+02  0.45594000000E+02  0.51100000000E-03 0.  1.
    9900012    2    1    2    0    0 -0.51563756838E+01  0.37614910600E+02  0.14549802134E+02  0.50528850331E+02  0.29999971065E+02 0.  0.
        -12    1    1    2    0    0  0.51563756838E+01 -0.37614910600E+02 -0.14549802134E+02  0.40659149669E+02  0.00000000000E+00 0.  1.
         11    1    3    3    0    0 -0.93436083028E+01  0.85919067111E+01  0.53682719299E+01  0.13781952722E+02  0.51100000000E-03 0. -1.
        -11    1    3    3    0    0  0.63842149691E+01  0.31951719396E+01  0.81086654540E+01  0.10803600335E+02  0.51100000000E-03 0.  1.
        -12    1    3    3    0    0 -0.21969823501E+01  0.25827831950E+02  0.10728647505E+01  0.25943297274E+02  0.00000000000E+00 0.  1.
</event>
<event>
 7    1  0.8697654E-014  0.5052885E+02  0.7816164E-02  0.1300439E+00
        -11   -1    0    0    0    0  0.00000000000E+00  0.00000000000E+00  0.45593999997E+02  0.45594000000E+02  0.51100000000E-03 0. -1.
         11   -1    0    0    0    0 -0.00000000000E+00 -0.00000000000E+00 -0.45593999997E+02  0.45594000000E+02  0.51100000000E-03 0.  1.
    9900012    2    1    2    0    0  0.91300295656E+00 -0.29355143262E+02 -0.28117756029E+02  0.50528853250E+02  0.29999979938E+02 0.  0.
         12    1    1    2    0    0 -0.91300295656E+00  0.29355143262E+02  0.28117756029E+02  0.40659146750E+02  0.00000000000E+00 0. -1.
         11    1    3    3    0    0 -0.16533877743E+01  0.42266716444E+01 -0.84432812875E+00  0.46164201034E+01  0.51100000000E-03 0. -1.
        -11    1    3    3    0    0  0.49978266096E+01 -0.33734721918E+01 -0.79193261914E+01  0.99536080411E+01  0.51100000000E-03 0.  1.
         12    1    3    3    0    0 -0.24314358787E+01 -0.30208342714E+02 -0.19354101709E+02  0.35958825105E+02  0.00000000000E+00 0. -1.
</event>
<event>
 7    1  0.8697654E-014  0.5052885E+02  0.7816164E-02  0.1300439E+00
        -11   -1    0    0    0    0  0.00000000000E+00  0.00000000000E+00  0.45593999997E+02  0.45594000000E+02  0.51100000000E-03 0. -1.
         11   -1    0    0    0    0 -0.00000000000E+00 -0.00000000000E+00 -0.45593999997E+02  0.45594000000E+02  0.51100000000E-03 0.  1.
    9900012    2    1    2    0    0  0.13018319012E+02  0.26415731192E+02 -0.28033893332E+02  0.50528847775E+02  0.29999963298E+02 0.  0.
         12    1    1    2    0    0 -0.13018319012E+02 -0.26415731192E+02  0.28033893332E+02  0.40659152225E+02  0.00000000000E+00 0. -1.
         11    1    3    3    0    0 -0.15024443610E+01  0.16336045267E+00 -0.40384883386E+01  0.43120081189E+01  0.51100000000E-03 0. -1.
        -11    1    3    3    0    0  0.90665256443E+01  0.19184299215E+02 -0.29037118957E+02  0.35963780408E+02  0.51100000000E-03 0.  1.
         12    1    3    3    0    0  0.54542377289E+01  0.70680715236E+01  0.50417139637E+01  0.10253059249E+02  0.00000000000E+00 0. -1.
</event>
<event>
 7    1  0.8697654E-014  0.5052886E+02  0.7816164E-02  0.1300439E+00
        -11   -1    0    0    0    0  0.00000000000E+00  0.00000000000E+00  0.45593999997E+02  0.45594000000E+02  0.51100000000E-03 0.  1.
         11   -1    0    0    0    0 -0.00000000000E+00 -0.00000000000E+00 -0.45593999997E+02  0.45594000000E+02  0.51100000000E-03 0. -1.
    9900012    2    1    2    0    0 -0.18950504959E+02  0.26874900556E+02  0.23912003923E+02  0.50528857735E+02  0.29999993571E+02 0.  0.
        -12    1    1    2    0    0  0.18950504959E+02 -0.26874900556E+02 -0.23912003923E+02  0.40659142265E+02  0.00000000000E+00 0.  1.
         11    1    3    3    0    0 -0.80663146907E+01  0.19302941350E+02  0.93038927456E+01  0.22896100060E+02  0.51100000000E-03 0. -1.
        -11    1    3    3    0    0  0.37341614821E+00  0.63887946882E+01  0.14998117895E+02  0.16306430567E+02  0.51100000000E-03 0.  1.
        -12    1    3    3    0    0 -0.11257606417E+02  0.11831645178E+01 -0.39000671777E+00  0.11326327108E+02  0.00000000000E+00 0.  1.
</event>
<event>
 7    1  0.8782477E-014  0.5052885E+02  0.7816164E-02  0.1300439E+00
        -11   -1    0    0    0    0  0.00000000000E+00  0.00000000000E+00  0.45593999997E+02  0.45594000000E+02  0.51100000000E-03 0. -1.
         11   -1    0    0    0    0 -0.00000000000E+00 -0.00000000000E+00 -0.45593999997E+02  0.45594000000E+02  0.51100000000E-03 0.  1.
    9900012    2    1    2    0    0 -0.14606772219E+02 -0.82561131241E+01 -0.37035733602E+02  0.50528846517E+02  0.29999959472E+02 0.  0.
         12    1    1    2    0    0  0.14606772219E+02  0.82561131241E+01  0.37035733602E+02  0.40659153483E+02  0.00000000000E+00 0. -1.
         11    1    3    3    0    0 -0.73012112601E+01 -0.42682655645E+01 -0.21945578439E+02  0.23518805031E+02  0.51100000000E-03 0.  1.
        -11    1    3    3    0    0 -0.14215257730E+02 -0.44425988811E+01 -0.13021338648E+02  0.19782959778E+02  0.51100000000E-03 0. -1.
         12    1    3    3    0    0  0.69096967710E+01  0.45475132151E+00 -0.20688165142E+01  0.72270817071E+01  0.00000000000E+00 0. -1.
</event>
<event>
 7    1  0.8697654E-014  0.5052886E+02  0.7816164E-02  0.1300439E+00
        -11   -1    0    0    0    0  0.00000000000E+00  0.00000000000E+00  0.45593999997E+02  0.45594000000E+02  0.51100000000E-03 0.  1.
         11   -1    0    0    0    0 -0.00000000000E+00 -0.00000000000E+00 -0.45593999997E+02  0.45594000000E+02  0.51100000000E-03 0. -1.
    9900012    2    1    2    0    0 -0.34542787007E+02 -0.13060919447E+02  0.17010983960E+02  0.50528864171E+02  0.30000013136E+02 0.  0.
        -12    1    1    2    0    0  0.34542787007E+02  0.13060919447E+02 -0.17010983960E+02  0.40659135829E+02  0.00000000000E+00 0.  1.
         11    1    3    3    0    0 -0.23646022454E+02 -0.13659555294E+02  0.16258608888E+02  0.31781444146E+02  0.51100000000E-03 0. -1.
        -11    1    3    3    0    0 -0.36623805318E+01  0.38085771553E+00  0.78124009950E+01  0.86366482693E+01  0.51100000000E-03 0.  1.
         12    1    3    3    0    0 -0.72343840208E+01  0.21777813079E+00 -0.70600259232E+01  0.10110771756E+02  0.00000000000E+00 0. -1.
</event>
<event>
 7    1  0.8697654E-014  0.5052884E+02  0.7816164E-02  0.1300439E+00
        -11   -1    0    0    0    0  0.00000000000E+00  0.00000000000E+00  0.45593999997E+02  0.45594000000E+02  0.51100000000E-03 0. -1.
         11   -1    0    0    0    0 -0.00000000000E+00 -0.00000000000E+00 -0.45593999997E+02  0.45594000000E+02  0.51100000000E-03 0.  1.
    9900012    2    1    2    0    0  0.34120165266E+02  0.28774841588E+01  0.21924902986E+02  0.50528844034E+02  0.29999951927E+02 0.  0.
        -12    1    1    2    0    0 -0.34120165266E+02 -0.28774841588E+01 -0.21924902986E+02  0.40659155966E+02  0.00000000000E+00 0.  1.
         11    1    3    3    0    0  0.14038328090E+02 -0.47813124362E+01  0.27177610262E+01  0.15077195675E+02  0.51100000000E-03 0. -1.
        -11    1    3    3    0    0  0.16799859993E+02 -0.19768046362E+01  0.18763391161E+02  0.25262776975E+02  0.51100000000E-03 0.  1.
         12    1    3    3    0    0  0.32819771829E+01  0.96356012311E+01  0.44375079927E+00  0.10188871384E+02  0.00000000000E+00 0. -1.
</event>
<event>
 7    1  0.8697654E-014  0.5052886E+02  0.7816164E-02  0.1300439E+00
        -11   -1    0    0    0    0  0.00000000000E+00  0.00000000000E+00  0.45593999997E+02  0.45594000000E+02  0.51100000000E-03 0.  1.
         11   -1    0    0    0    0 -0.00000000000E+00 -0.00000000000E+00 -0.45593999997E+02  0.45594000000E+02  0.51100000000E-03 0. -1.
    9900012    2    1    2    0    0  0.24451161671E+02 -0.31057316348E+02 -0.95262462753E+01  0.50528861127E+02  0.30000003881E+02 0.  0.
         12    1    1    2    0    0 -0.24451161671E+02  0.31057316348E+02  0.95262462753E+01  0.40659138873E+02  0.00000000000E+00 0. -1.
         11    1    3    3    0    0  0.27962690876E+01 -0.22467973115E+02 -0.32751341261E+01  0.22876963096E+02  0.51100000000E-03 0. -1.
        -11    1    3    3    0    0  0.23866533439E+01 -0.70411090272E+01 -0.35800978869E+00  0.74432185100E+01  0.51100000000E-03 0.  1.
        -12    1    3    3    0    0  0.19268239239E+02 -0.15482342062E+01 -0.58931023605E+01  0.20208679521E+02  0.00000000000E+00 0.  1.
</event>
<event>
 7    1  0.8697654E-014  0.5052886E+02  0.7816164E-02  0.1300439E+00
        -11   -1    0    0    0    0  0.00000000000E+00  0.00000000000E+00  0.45593999997E+02  0.45594000000E+02  0.51100000000E-03 0. -1.
         11   -1    0    0    0    0 -0.00000000000E+00 -0.00000000000E+00 -0.45593999997E+02  0.45594000000E+02  0.51100000000E-03 0.  1.
    9900012    2    1    2    0    0  0.30855143309E+02  0.85164816353E+01  0.25071807789E+02  0.50528857438E+02  0.29999992669E+02 0.  0.
        -12    1    1    2    0    0 -0.30855143309E+02 -0.85164816353E+01 -0.25071807789E+02  0.40659142562E+02  0.00000000000E+00 0.  1.
         11    1    3    3    0    0  0.92012907943E+01  0.75056787993E+01 -0.18668839038E+01  0.12020158996E+02  0.51100000000E-03 0.  1.
        -11    1    3    3    0    0  0.17288092494E+02  0.81782862950E+01  0.18820169637E+02  0.26832094481E+02  0.51100000000E-03 0. -1.
        -12    1    3    3    0    0  0.43657600205E+01 -0.71674834591E+01  0.81185220557E+01  0.11676603961E+02  0.00000000000E+00 0.  1.
</event>
<event>
 7    1  0.8697654E-014  0.5052886E+02  0.7816164E-02  0.1300439E+00
        -11   -1    0    0    0    0  0.00000000000E+00  0.00000000000E+00  0.45593999997E+02  0.45594000000E+02  0.51100000000E-03 0. -1.
         11   -1    0    0    0    0 -0.00000000000E+00 -0.00000000000E+00 -0.45593999997E+02  0.45594000000E+02  0.51100000000E-03 0.  1.
    9900012    2    1    2    0    0  0.39106307173E+02 -0.64895083066E+01 -0.90415069103E+01  0.50528858027E+02  0.29999994460E+02 0.  0.
         12    1    1    2    0    0 -0.39106307173E+02  0.64895083066E+01  0.90415069103E+01  0.40659141973E+02  0.00000000000E+00 0. -1.
         11    1    3    3    0    0  0.36605332528E+02 -0.25645087818E+01 -0.76691803179E+01  0.37487910075E+02  0.51100000000E-03 0. -1.
        -11    1    3    3    0    0  0.65565317346E+01  0.65417297016E+00  0.59393056519E+00  0.66157996070E+01  0.51100000000E-03 0.  1.
        -12    1    3    3    0    0 -0.40555570900E+01 -0.45791724950E+01 -0.19662571577E+01  0.64251483453E+01  0.00000000000E+00 0.  1.
</event>
<event>
 7    1  0.8697654E-014  0.5052894E+02  0.7816164E-02  0.1300439E+00
        -11   -1    0    0    0    0  0.00000000000E+00  0.00000000000E+00  0.45593999997E+02  0.45594000000E+02  0.51100000000E-03 0. -1.
         11   -1    0    0    0    0 -0.00000000000E+00 -0.00000000000E+00 -0.45593999997E+02  0.45594000000E+02  0.51100000000E-03 0.  1.
    9900012    2    1    2    0    0 -0.23572386049E+02 -0.24488329035E+02  0.22311965853E+02  0.50528936272E+02  0.30000232292E+02 0.  0.
        -12    1    1    2    0    0  0.23572386049E+02  0.24488329035E+02 -0.22311965853E+02  0.40659063728E+02  0.00000000000E+00 0.  1.
         11    1    3    3    0    0  0.58560377971E+00 -0.39438900474E+01 -0.28623747919E+01  0.49081962271E+01  0.51100000000E-03 0. -1.
        -11    1    3    3    0    0 -0.11625514233E+02 -0.18878394199E+02  0.65638174079E+01  0.23122068419E+02  0.51100000000E-03 0.  1.
        -12    1    3    3    0    0 -0.12532475596E+02 -0.16660447884E+01  0.18610523237E+02  0.22498671627E+02  0.00000000000E+00 0.  1.
</event>
<event>
 7    1  0.8697654E-014  0.5052887E+02  0.7816164E-02  0.1300439E+00
        -11   -1    0    0    0    0  0.00000000000E+00  0.00000000000E+00  0.45593999997E+02  0.45594000000E+02  0.51100000000E-03 0. -1.
         11   -1    0    0    0    0 -0.00000000000E+00 -0.00000000000E+00 -0.45593999997E+02  0.45594000000E+02  0.51100000000E-03 0.  1.
    9900012    2    1    2    0    0 -0.22569713101E+02 -0.31366578745E+02 -0.12645566465E+02  0.50528873560E+02  0.30000041674E+02 0.  0.
         12    1    1    2    0    0  0.22569713101E+02  0.31366578745E+02  0.12645566465E+02  0.40659126440E+02  0.00000000000E+00 0. -1.
         11    1    3    3    0    0 -0.94969531410E+01 -0.73421443070E+01  0.40031778710E+01  0.12654036325E+02  0.51100000000E-03 0. -1.
        -11    1    3    3    0    0  0.28900562198E+01 -0.24865565192E+01  0.28206720842E+01  0.47425288132E+01  0.51100000000E-03 0.  1.
        -12    1    3    3    0    0 -0.15962816180E+02 -0.21537877919E+02 -0.19469416420E+02  0.33132308422E+02  0.00000000000E+00 0.  1.
</event>
<event>
 7    1  0.8697654E-014  0.5052874E+02  0.7816164E-02  0.1300439E+00
        -11   -1    0    0    0    0  0.00000000000E+00  0.00000000000E+00  0.45593999997E+02  0.45594000000E+02  0.51100000000E-03 0. -1.
         11   -1    0    0    0    0 -0.00000000000E+00 -0.00000000000E+00 -0.45593999997E+02  0.45594000000E+02  0.51100000000E-03 0.  1.
    9900012    2    1    2    0    0  0.30486650833E+02 -0.75661776048E+01 -0.25816511712E+02  0.50528742757E+02  0.29999644083E+02 0.  0.
         12    1    1    2    0    0 -0.30486650833E+02  0.75661776048E+01  0.25816511712E+02  0.40659257243E+02  0.00000000000E+00 0. -1.
         11    1    3    3    0    0  0.25079900463E+01 -0.36603939771E+01  0.44315327647E+01  0.62711227899E+01  0.51100000000E-03 0. -1.
        -11    1    3    3    0    0  0.15191482842E+02 -0.67083217057E+01 -0.79747296408E+01  0.18422243190E+02  0.51100000000E-03 0.  1.
        -12    1    3    3    0    0  0.12787177945E+02  0.28025380779E+01 -0.22273314836E+02  0.25835376777E+02  0.00000000000E+00 0.  1.
</event>
<event>
 7    1  0.8697654E-014  0.5052886E+02  0.7816164E-02  0.1300439E+00
        -11   -1    0    0    0    0  0.00000000000E+00  0.00000000000E+00  0.45593999997E+02  0.45594000000E+02  0.51100000000E-03 0. -1.
         11   -1    0    0    0    0 -0.00000000000E+00 -0.00000000000E+00 -0.45593999997E+02  0.45594000000E+02  0.51100000000E-03 0.  1.
    9900012    2    1    2    0    0 -0.32878548756E+02 -0.59257097216E+01 -0.23174388207E+02  0.50528864830E+02  0.30000015136E+02 0.  0.
         12    1    1    2    0    0  0.32878548756E+02  0.59257097216E+01  0.23174388207E+02  0.40659135170E+02  0.00000000000E+00 0. -1.
         11    1    3    3    0    0 -0.19357096216E+02 -0.40524665182E+01 -0.73648762611E+01  0.21103579351E+02  0.51100000000E-03 0. -1.
        -11    1    3    3    0    0 -0.40847642158E+01 -0.10007185923E+02 -0.12519338757E+02  0.16539737361E+02  0.51100000000E-03 0.  1.
         12    1    3    3    0    0 -0.94366883239E+01  0.81339427194E+01 -0.32901731894E+01  0.12885548118E+02  0.00000000000E+00 0. -1.
</event>
<event>
 7    1  0.8697654E-014  0.5052878E+02  0.7816164E-02  0.1300439E+00
        -11   -1    0    0    0    0  0.00000000000E+00  0.00000000000E+00  0.45593999997E+02  0.45594000000E+02  0.51100000000E-03 0. -1.
         11   -1    0    0    0    0 -0.00000000000E+00 -0.00000000000E+00 -0.45593999997E+02  0.45594000000E+02  0.51100000000E-03 0.  1.
    9900012    2    1    2    0    0  0.27306480718E+02 -0.30089487977E+02  0.14666231513E+01  0.50528780143E+02  0.29999757721E+02 0.  0.
        -12    1    1    2    0    0 -0.27306480718E+02  0.30089487977E+02 -0.14666231513E+01  0.40659219857E+02  0.00000000000E+00 0.  1.
         11    1    3    3    0    0  0.10419619693E+02 -0.23224658719E+02 -0.32139590249E+01  0.25657022041E+02  0.51100000000E-03 0. -1.
        -11    1    3    3    0    0 -0.25403537654E+01 -0.21238952573E+01 -0.19023133881E+01  0.38187857763E+01  0.51100000000E-03 0.  1.
         12    1    3    3    0    0  0.19427214790E+02 -0.47409340010E+01  0.65828955644E+01  0.21052972325E+02  0.00000000000E+00 0. -1.
</event>
<event>
 7    1  0.8697654E-014  0.5052884E+02  0.7816164E-02  0.1300439E+00
        -11   -1    0    0    0    0  0.00000000000E+00  0.00000000000E+00  0.45593999997E+02  0.45594000000E+02  0.51100000000E-03 0.  1.
         11   -1    0    0    0    0 -0.00000000000E+00 -0.00000000000E+00 -0.45593999997E+02  0.45594000000E+02  0.51100000000E-03 0. -1.
    9900012    2    1    2    0    0  0.96009735187E+01  0.39023148905E+02  0.61791808407E+01  0.50528842129E+02  0.29999946135E+02 0.  0.
        -12    1    1    2    0    0 -0.96009735187E+01 -0.39023148905E+02 -0.61791808407E+01  0.40659157871E+02  0.00000000000E+00 0.  1.
         11    1    3    3    0    0  0.54507767243E+01  0.21747526899E+02  0.52630324520E+01  0.23029663566E+02  0.51100000000E-03 0. -1.
        -11    1    3    3    0    0  0.94993961980E+01  0.79869449056E+01  0.78944757004E+01  0.14708928034E+02  0.51100000000E-03 0.  1.
         12    1    3    3    0    0 -0.53491994036E+01  0.92886771000E+01 -0.69783273117E+01  0.12790250529E+02  0.00000000000E+00 0. -1.
</event>
<event>
 7    1  0.8697654E-014  0.5052887E+02  0.7816164E-02  0.1300439E+00
        -11   -1    0    0    0    0  0.00000000000E+00  0.00000000000E+00  0.45593999997E+02  0.45594000000E+02  0.51100000000E-03 0. -1.
         11   -1    0    0    0    0 -0.00000000000E+00 -0.00000000000E+00 -0.45593999997E+02  0.45594000000E+02  0.51100000000E-03 0.  1.
    9900012    2    1    2    0    0 -0.29494470899E+02 -0.48049513321E+01 -0.27570882732E+02  0.50528868854E+02  0.30000027369E+02 0.  0.
         12    1    1    2    0    0  0.29494470899E+02  0.48049513321E+01  0.27570882732E+02  0.40659131146E+02  0.00000000000E+00 0. -1.
         11    1    3    3    0    0  0.95602949372E+00 -0.38395376741E+01  0.41900847073E+01  0.57630592622E+01  0.51100000000E-03 0. -1.
        -11    1    3    3    0    0 -0.78713683371E+01  0.24878212082E+01 -0.53014451375E+01  0.98108620757E+01  0.51100000000E-03 0.  1.
        -12    1    3    3    0    0 -0.22579132055E+02 -0.34532348662E+01 -0.26459522302E+02  0.34954947516E+02  0.00000000000E+00 0.  1.
</event>
<event>
 7    1  0.8697654E-014  0.5052886E+02  0.7816164E-02  0.1300439E+00
        -11   -1    0    0    0    0  0.00000000000E+00  0.00000000000E+00  0.45593999997E+02  0.45594000000E+02  0.51100000000E-03 0. -1.
         11   -1    0    0    0    0 -0.00000000000E+00 -0.00000000000E+00 -0.45593999997E+02  0.45594000000E+02  0.51100000000E-03 0.  1.
    9900012    2    1    2    0    0 -0.13294340563E+02 -0.13858567961E+02 -0.35838055302E+02  0.50528860747E+02  0.30000002727E+02 0.  0.
         12    1    1    2    0    0  0.13294340563E+02  0.13858567961E+02  0.35838055302E+02  0.40659139253E+02  0.00000000000E+00 0. -1.
         11    1    3    3    0    0 -0.74247900036E+01 -0.70125677076E+00  0.17609356829E+01  0.76629082205E+01  0.51100000000E-03 0. -1.
        -11    1    3    3    0    0  0.41840256860E+01 -0.36089868911E+01 -0.50447254451E+01  0.74819858593E+01  0.51100000000E-03 0.  1.
        -12    1    3    3    0    0 -0.10053576246E+02 -0.95483242990E+01 -0.32554265540E+02  0.35383966667E+02  0.00000000000E+00 0.  1.
</event>
<event>
 7    1  0.8697654E-014  0.5052886E+02  0.7816164E-02  0.1300439E+00
        -11   -1    0    0    0    0  0.00000000000E+00  0.00000000000E+00  0.45593999997E+02  0.45594000000E+02  0.51100000000E-03 0. -1.
         11   -1    0    0    0    0 -0.00000000000E+00 -0.00000000000E+00 -0.45593999997E+02  0.45594000000E+02  0.51100000000E-03 0.  1.
    9900012    2    1    2    0    0 -0.20723004859E+02  0.24862817766E+02 -0.24608197064E+02  0.50528855882E+02  0.29999987940E+02 0.  0.
         12    1    1    2    0    0  0.20723004859E+02 -0.24862817766E+02  0.24608197064E+02  0.40659144118E+02  0.00000000000E+00 0. -1.
         11    1    3    3    0    0 -0.11653193156E+02  0.14431808896E+02 -0.78955055862E+01  0.20159688179E+02  0.51100000000E-03 0. -1.
        -11    1    3    3    0    0 -0.14862620661E+02  0.64298112392E+01 -0.16792078914E+02  0.23328392144E+02  0.51100000000E-03 0.  1.
         12    1    3    3    0    0  0.57928089585E+01  0.40011976309E+01  0.79387436959E-01  0.70407755593E+01  0.00000000000E+00 0. -1.
</event>
<event>
 7    1  0.8697654E-014  0.5052889E+02  0.7816164E-02  0.1300439E+00
        -11   -1    0    0    0    0  0.00000000000E+00  0.00000000000E+00  0.45593999997E+02  0.45594000000E+02  0.51100000000E-03 0. -1.
         11   -1    0    0    0    0 -0.00000000000E+00 -0.00000000000E+00 -0.45593999997E+02  0.45594000000E+02  0.51100000000E-03 0.  1.
    9900012    2    1    2    0    0  0.30689142611E+02  0.24970392646E+02  0.93711865027E+01  0.50528891309E+02  0.30000095622E+02 0.  0.
        -12    1    1    2    0    0 -0.30689142611E+02 -0.24970392646E+02 -0.93711865027E+01  0.40659108691E+02  0.00000000000E+00 0.  1.
         11    1    3    3    0    0  0.11054821535E+02  0.31406015099E+01  0.36845459662E+00  0.11498183164E+02  0.51100000000E-03 0. -1.
        -11    1    3    3    0    0  0.15990212207E+02  0.22905875471E+02 -0.13855166609E+01  0.27969370286E+02  0.51100000000E-03 0.  1.
        -12    1    3    3    0    0  0.36441088685E+01 -0.10760843348E+01  0.10388248567E+02  0.11061337859E+02  0.00000000000E+00 0.  1.
</event>
<event>
 7    1  0.8697654E-014  0.5052886E+02  0.7816164E-02  0.1300439E+00
        -11   -1    0    0    0    0  0.00000000000E+00  0.00000000000E+00  0.45593999997E+02  0.45594000000E+02  0.51100000000E-03 0. -1.
         11   -1    0    0    0    0 -0.00000000000E+00 -0.00000000000E+00 -0.45593999997E+02  0.45594000000E+02  0.51100000000E-03 0.  1.
    9900012    2    1    2    0    0 -0.20590376266E+02 -0.16762494100E+02  0.30793193369E+02  0.50528861284E+02  0.30000004359E+02 0.  0.
        -12    1    1    2    0    0  0.20590376266E+02  0.16762494100E+02 -0.30793193369E+02  0.40659138716E+02  0.00000000000E+00 0.  1.
         11    1    3    3    0    0 -0.80836768488E+01 -0.95357413759E+01  0.31169643474E+02  0.33583074153E+02  0.51100000000E-03 0. -1.
        -11    1    3    3    0    0 -0.17120121014E+00 -0.32966804784E+01  0.18878909093E+01  0.38028337299E+01  0.51100000000E-03 0.  1.
        -12    1    3    3    0    0 -0.12335498207E+02 -0.39300722460E+01 -0.22643410146E+01  0.13142953401E+02  0.00000000000E+00 0.  1.
</event>
<event>
 7    1  0.8697654E-014  0.5052885E+02  0.7816164E-02  0.1300439E+00
        -11   -1    0    0    0    0  0.00000000000E+00  0.00000000000E+00  0.45593999997E+02  0.45594000000E+02  0.51100000000E-03 0. -1.
         11   -1    0    0    0    0 -0.00000000000E+00 -0.00000000000E+00 -0.45593999997E+02  0.45594000000E+02  0.51100000000E-03 0.  1.
    9900012    2    1    2    0    0 -0.28015441758E+02 -0.62183668094E+01  0.28803354568E+02  0.50528852234E+02  0.29999976850E+02 0.  0.
        -12    1    1    2    0    0  0.28015441758E+02  0.62183668094E+01 -0.28803354568E+02  0.40659147766E+02  0.00000000000E+00 0.  1.
         11    1    3    3    0    0 -0.74854897532E+01  0.70144454371E+00  0.65374664066E+01  0.99630842901E+01  0.51100000000E-03 0. -1.
        -11    1    3    3    0    0 -0.73722346416E+00  0.82448579010E+01  0.22134268881E+01  0.85685727571E+01  0.51100000000E-03 0.  1.
         12    1    3    3    0    0 -0.19792728541E+02 -0.15164669254E+02  0.20052461273E+02  0.31997195187E+02  0.00000000000E+00 0. -1.
</event>
<event>
 7    1  0.8697654E-014  0.5052886E+02  0.7816164E-02  0.1300439E+00
        -11   -1    0    0    0    0  0.00000000000E+00  0.00000000000E+00  0.45593999997E+02  0.45594000000E+02  0.51100000000E-03 0. -1.
         11   -1    0    0    0    0 -0.00000000000E+00 -0.00000000000E+00 -0.45593999997E+02  0.45594000000E+02  0.51100000000E-03 0.  1.
    9900012    2    1    2    0    0 -0.16530303408E+02 -0.32315131159E+02  0.18320668979E+02  0.50528861489E+02  0.30000004982E+02 0.  0.
        -12    1    1    2    0    0  0.16530303408E+02  0.32315131159E+02 -0.18320668979E+02  0.40659138511E+02  0.00000000000E+00 0.  1.
         11    1    3    3    0    0 -0.54354320169E+01 -0.54381957895E+01  0.93385141876E+01  0.12096517769E+02  0.51100000000E-03 0. -1.
        -11    1    3    3    0    0 -0.13202739181E+02 -0.29965954084E+02  0.10512566058E+02  0.34391638103E+02  0.51100000000E-03 0.  1.
        -12    1    3    3    0    0  0.21078677899E+01  0.30890187139E+01 -0.15304112665E+01  0.40407056165E+01  0.00000000000E+00 0.  1.
</event>
<event>
 7    1  0.8697654E-014  0.5052886E+02  0.7816164E-02  0.1300439E+00
        -11   -1    0    0    0    0  0.00000000000E+00  0.00000000000E+00  0.45593999997E+02  0.45594000000E+02  0.51100000000E-03 0. -1.
         11   -1    0    0    0    0 -0.00000000000E+00 -0.00000000000E+00 -0.45593999997E+02  0.45594000000E+02  0.51100000000E-03 0.  1.
    9900012    2    1    2    0    0 -0.24949273321E+02  0.29043549745E+01 -0.31972867451E+02  0.50528858714E+02  0.29999996548E+02 0.  0.
         12    1    1    2    0    0  0.24949273321E+02 -0.29043549745E+01  0.31972867451E+02  0.40659141286E+02  0.00000000000E+00 0. -1.
         11    1    3    3    0    0 -0.28624834735E+01  0.56028708541E+01 -0.39494697219E+01  0.74286125750E+01  0.51100000000E-03 0. -1.
        -11    1    3    3    0    0 -0.37024432593E+01  0.59113527229E+00 -0.23614840256E+02  0.23910629594E+02  0.51100000000E-03 0.  1.
         12    1    3    3    0    0 -0.18384346588E+02 -0.32896511518E+01 -0.44085574731E+01  0.19189616545E+02  0.00000000000E+00 0. -1.
</event>
<event>
 7    1  0.8697654E-014  0.5052892E+02  0.7816164E-02  0.1300439E+00
        -11   -1    0    0    0    0  0.00000000000E+00  0.00000000000E+00  0.45593999997E+02  0.45594000000E+02  0.51100000000E-03 0. -1.
         11   -1    0    0    0    0 -0.00000000000E+00 -0.00000000000E+00 -0.45593999997E+02  0.45594000000E+02  0.51100000000E-03 0.  1.
    9900012    2    1    2    0    0 -0.15383336682E+01 -0.83152771993E+01 -0.39769969446E+02  0.50528920140E+02  0.30000183256E+02 0.  0.
         12    1    1    2    0    0  0.15383336682E+01  0.83152771993E+01  0.39769969446E+02  0.40659079860E+02  0.00000000000E+00 0. -1.
         11    1    3    3    0    0  0.65502328779E+01  0.87905674343E+01 -0.14433860438E+02  0.18125009075E+02  0.51100000000E-03 0. -1.
        -11    1    3    3    0    0  0.75305869854E+00 -0.54808842459E+01 -0.81452636862E+01  0.98464465823E+01  0.51100000000E-03 0.  1.
        -12    1    3    3    0    0 -0.88416252446E+01 -0.11624960388E+02 -0.17190845322E+02  0.22557464482E+02  0.00000000000E+00 0.  1.
</event>
<event>
 7    1  0.8697654E-014  0.5052885E+02  0.7816164E-02  0.1300439E+00
        -11   -1    0    0    0    0  0.00000000000E+00  0.00000000000E+00  0.45593999997E+02  0.45594000000E+02  0.51100000000E-03 0.  1.
         11   -1    0    0    0    0 -0.00000000000E+00 -0.00000000000E+00 -0.45593999997E+02  0.45594000000E+02  0.51100000000E-03 0. -1.
    9900012    2    1    2    0    0 -0.12402362764E+01  0.38041781465E+02 -0.14298652640E+02  0.50528846168E+02  0.29999958411E+02 0.  0.
         12    1    1    2    0    0  0.12402362764E+01 -0.38041781465E+02  0.14298652640E+02  0.40659153832E+02  0.00000000000E+00 0. -1.
         11    1    3    3    0    0  0.41048361090E+01  0.23811955905E+02 -0.80698813176E+01  0.25475123322E+02  0.51100000000E-03 0. -1.
        -11    1    3    3    0    0 -0.50314438133E+01  0.17695970066E+02 -0.56491123438E+00  0.18406029132E+02  0.51100000000E-03 0.  1.
         12    1    3    3    0    0 -0.31362857207E+00 -0.34661445067E+01 -0.56638600879E+01  0.66476937142E+01  0.00000000000E+00 0. -1.
</event>
<event>
 7    1  0.8697654E-014  0.5052886E+02  0.7816164E-02  0.1300439E+00
        -11   -1    0    0    0    0  0.00000000000E+00  0.00000000000E+00  0.45593999997E+02  0.45594000000E+02  0.51100000000E-03 0. -1.
         11   -1    0    0    0    0 -0.00000000000E+00 -0.00000000000E+00 -0.45593999997E+02  0.45594000000E+02  0.51100000000E-03 0.  1.
    9900012    2    1    2    0    0 -0.33199228450E+02 -0.10245179230E+02 -0.21119022528E+02  0.50528861056E+02  0.30000003666E+02 0.  0.
         12    1    1    2    0    0  0.33199228450E+02  0.10245179230E+02  0.21119022528E+02  0.40659138944E+02  0.00000000000E+00 0. -1.
         11    1    3    3    0    0 -0.44186861608E+01 -0.99519725863E+01 -0.15392193146E+02  0.18854340505E+02  0.51100000000E-03 0. -1.
        -11    1    3    3    0    0 -0.28767633265E+01  0.39641305951E+01 -0.10671932871E+01  0.50128834402E+01  0.51100000000E-03 0.  1.
         12    1    3    3    0    0 -0.25903778963E+02 -0.42573372385E+01 -0.46596360940E+01  0.26661637111E+02  0.00000000000E+00 0. -1.
</event>
<event>
 7    1  0.9350613E-014  0.5052883E+02  0.7816164E-02  0.1300439E+00
        -11   -1    0    0    0    0  0.00000000000E+00  0.00000000000E+00  0.45593999997E+02  0.45594000000E+02  0.51100000000E-03 0. -1.
         11   -1    0    0    0    0 -0.00000000000E+00 -0.00000000000E+00 -0.45593999997E+02  0.45594000000E+02  0.51100000000E-03 0.  1.
    9900012    2    1    2    0    0  0.65158536255E+01  0.34924908245E+02 -0.19772762574E+02  0.50528834930E+02  0.29999924252E+02 0.  0.
         12    1    1    2    0    0 -0.65158536255E+01 -0.34924908245E+02  0.19772762574E+02  0.40659165070E+02  0.00000000000E+00 0. -1.
         11    1    3    3    0    0 -0.92700756598E+00  0.13079558901E+02 -0.14358358972E+02  0.19444708193E+02  0.51100000000E-03 0.  1.
        -11    1    3    3    0    0  0.12655193216E+02  0.18623287772E+02 -0.86909636911E+01  0.24135318786E+02  0.51100000000E-03 0. -1.
         12    1    3    3    0    0 -0.52123320247E+01  0.32220615725E+01  0.32765600893E+01  0.69488079504E+01  0.00000000000E+00 0. -1.
</event>
<event>
 7    1  0.8697654E-014  0.5052886E+02  0.7816164E-02  0.1300439E+00
        -11   -1    0    0    0    0  0.00000000000E+00  0.00000000000E+00  0.45593999997E+02  0.45594000000E+02  0.51100000000E-03 0. -1.
         11   -1    0    0    0    0 -0.00000000000E+00 -0.00000000000E+00 -0.45593999997E+02  0.45594000000E+02  0.51100000000E-03 0.  1.
    9900012    2    1    2    0    0 -0.34909501588E+02 -0.70552671452E+00 -0.20832538375E+02  0.50528859278E+02  0.29999998262E+02 0.  0.
         12    1    1    2    0    0  0.34909501588E+02  0.70552671452E+00  0.20832538375E+02  0.40659140722E+02  0.00000000000E+00 0. -1.
         11    1    3    3    0    0 -0.25588408907E+02 -0.14194701187E+02 -0.13916828806E+02  0.32402690266E+02  0.51100000000E-03 0.  1.
        -11    1    3    3    0    0 -0.58224357735E+01  0.54036611174E+01 -0.33983792311E+01  0.86399822609E+01  0.51100000000E-03 0. -1.
        -12    1    3    3    0    0 -0.34986569078E+01  0.80855133553E+01 -0.35173303387E+01  0.94861867517E+01  0.00000000000E+00 0.  1.
</event>
<event>
 7    1  0.8697654E-014  0.5052886E+02  0.7816164E-02  0.1300439E+00
        -11   -1    0    0    0    0  0.00000000000E+00  0.00000000000E+00  0.45593999997E+02  0.45594000000E+02  0.51100000000E-03 0. -1.
         11   -1    0    0    0    0 -0.00000000000E+00 -0.00000000000E+00 -0.45593999997E+02  0.45594000000E+02  0.51100000000E-03 0.  1.
    9900012    2    1    2    0    0  0.28142029206E+02  0.25673739345E+02 -0.14214455694E+02  0.50528862644E+02  0.30000008494E+02 0.  0.
         12    1    1    2    0    0 -0.28142029206E+02 -0.25673739345E+02  0.14214455694E+02  0.40659137356E+02  0.00000000000E+00 0. -1.
         11    1    3    3    0    0 -0.22355744647E+01 -0.10081293626E+01 -0.23661283523E+01  0.34077384934E+01  0.51100000000E-03 0. -1.
        -11    1    3    3    0    0  0.70675122055E+01  0.61108076666E+01  0.61619694341E+01  0.11192031392E+02  0.51100000000E-03 0.  1.
        -12    1    3    3    0    0  0.23310091466E+02  0.20571061041E+02 -0.18010296776E+02  0.35929092759E+02  0.00000000000E+00 0.  1.
</event>
<event>
 7    1  0.8697654E-014  0.5052886E+02  0.7816164E-02  0.1300439E+00
        -11   -1    0    0    0    0  0.00000000000E+00  0.00000000000E+00  0.45593999997E+02  0.45594000000E+02  0.51100000000E-03 0. -1.
         11   -1    0    0    0    0 -0.00000000000E+00 -0.00000000000E+00 -0.45593999997E+02  0.45594000000E+02  0.51100000000E-03 0.  1.
    9900012    2    1    2    0    0  0.41244215832E+00 -0.19296591802E+02  0.35785988790E+02  0.50528861330E+02  0.30000004498E+02 0.  0.
        -12    1    1    2    0    0 -0.41244215832E+00  0.19296591802E+02 -0.35785988790E+02  0.40659138670E+02  0.00000000000E+00 0.  1.
         11    1    3    3    0    0  0.70538592449E+01  0.28429328066E+01  0.10382287834E+02  0.12869774595E+02  0.51100000000E-03 0. -1.
        -11    1    3    3    0    0 -0.16580096666E+00 -0.22302960077E+01 -0.21174577562E+01  0.30798275687E+01  0.51100000000E-03 0.  1.
         12    1    3    3    0    0 -0.64756161199E+01 -0.19909228601E+02  0.27521158712E+02  0.34579259166E+02  0.00000000000E+00 0. -1.
</event>
<event>
 7    1  0.8697654E-014  0.5052887E+02  0.7816164E-02  0.1300439E+00
        -11   -1    0    0    0    0  0.00000000000E+00  0.00000000000E+00  0.45593999997E+02  0.45594000000E+02  0.51100000000E-03 0. -1.
         11   -1    0    0    0    0 -0.00000000000E+00 -0.00000000000E+00 -0.45593999997E+02  0.45594000000E+02  0.51100000000E-03 0.  1.
    9900012    2    1    2    0    0 -0.32835703679E+02 -0.83412806410E+01  0.22481204843E+02  0.50528868553E+02  0.30000026454E+02 0.  0.
        -12    1    1    2    0    0  0.32835703679E+02  0.83412806410E+01 -0.22481204843E+02  0.40659131447E+02  0.00000000000E+00 0.  1.
         11    1    3    3    0    0 -0.16057660444E+02 -0.29264671400E+01  0.22885865360E-01  0.16322168755E+02  0.51100000000E-03 0. -1.
        -11    1    3    3    0    0 -0.36426488690E+01  0.65644409368E+01  0.37247879591E+01  0.83806217667E+01  0.51100000000E-03 0.  1.
        -12    1    3    3    0    0 -0.13135394366E+02 -0.11979254438E+02  0.18733531019E+02  0.25826078031E+02  0.00000000000E+00 0.  1.
</event>
<event>
 7    1  0.8697654E-014  0.5052887E+02  0.7816164E-02  0.1300439E+00
        -11   -1    0    0    0    0  0.00000000000E+00  0.00000000000E+00  0.45593999997E+02  0.45594000000E+02  0.51100000000E-03 0.  1.
         11   -1    0    0    0    0 -0.00000000000E+00 -0.00000000000E+00 -0.45593999997E+02  0.45594000000E+02  0.51100000000E-03 0. -1.
    9900012    2    1    2    0    0  0.12812841367E+02 -0.36308310427E+02 -0.13065329692E+02  0.50528866341E+02  0.30000019729E+02 0.  0.
        -12    1    1    2    0    0 -0.12812841367E+02  0.36308310427E+02  0.13065329692E+02  0.40659133659E+02  0.00000000000E+00 0.  1.
         11    1    3    3    0    0  0.16494161890E+02 -0.24319296922E+02 -0.12755831275E+02  0.32034306782E+02  0.51100000000E-03 0.  1.
        -11    1    3    3    0    0  0.41462073721E+01 -0.39707957629E+00  0.14204744961E+01  0.44007335545E+01  0.51100000000E-03 0. -1.
        -12    1    3    3    0    0 -0.78275278948E+01 -0.11591933928E+02 -0.17299729136E+01  0.14093826004E+02  0.00000000000E+00 0.  1.
</event>
<event>
 7    1  0.8697654E-014  0.5052887E+02  0.7816164E-02  0.1300439E+00
        -11   -1    0    0    0    0  0.00000000000E+00  0.00000000000E+00  0.45593999997E+02  0.45594000000E+02  0.51100000000E-03 0. -1.
         11   -1    0    0    0    0 -0.00000000000E+00 -0.00000000000E+00 -0.45593999997E+02  0.45594000000E+02  0.51100000000E-03 0.  1.
    9900012    2    1    2    0    0  0.36673591405E+02 -0.15504596885E+02 -0.82353031243E+01  0.50528867586E+02  0.30000023515E+02 0.  0.
         12    1    1    2    0    0 -0.36673591405E+02  0.15504596885E+02  0.82353031243E+01  0.40659132414E+02  0.00000000000E+00 0. -1.
         11    1    3    3    0    0  0.89454851278E+01 -0.11256588637E+02  0.22636498921E+01  0.14555294673E+02  0.51100000000E-03 0. -1.
        -11    1    3    3    0    0  0.60111825989E+01 -0.95320779487E+01  0.25236763600E-01  0.11269226389E+02  0.51100000000E-03 0.  1.
        -12    1    3    3    0    0  0.21716923678E+02  0.52840697012E+01 -0.10524189780E+02  0.24704346524E+02  0.00000000000E+00 0.  1.
</event>
<event>
 7    1  0.8697654E-014  0.5052886E+02  0.7816164E-02  0.1300439E+00
        -11   -1    0    0    0    0  0.00000000000E+00  0.00000000000E+00  0.45593999997E+02  0.45594000000E+02  0.51100000000E-03 0. -1.
         11   -1    0    0    0    0 -0.00000000000E+00 -0.00000000000E+00 -0.45593999997E+02  0.45594000000E+02  0.51100000000E-03 0.  1.
    9900012    2    1    2    0    0 -0.12921167635E+02 -0.19948245407E+02 -0.32989039866E+02  0.50528858111E+02  0.29999994716E+02 0.  0.
         12    1    1    2    0    0  0.12921167635E+02  0.19948245407E+02  0.32989039866E+02  0.40659141889E+02  0.00000000000E+00 0. -1.
         11    1    3    3    0    0  0.27984051688E+01 -0.60975494951E+01 -0.19470920799E+02  0.20594366665E+02  0.51100000000E-03 0. -1.
        -11    1    3    3    0    0 -0.19076466097E+01 -0.11955887503E+02 -0.96051012561E+01  0.15454459938E+02  0.51100000000E-03 0.  1.
         12    1    3    3    0    0 -0.13811926194E+02 -0.18948084083E+01 -0.39130178108E+01  0.14480031508E+02  0.00000000000E+00 0. -1.
</event>
<event>
 7    1  0.8697654E-014  0.5052886E+02  0.7816164E-02  0.1300439E+00
        -11   -1    0    0    0    0  0.00000000000E+00  0.00000000000E+00  0.45593999997E+02  0.45594000000E+02  0.51100000000E-03 0. -1.
         11   -1    0    0    0    0 -0.00000000000E+00 -0.00000000000E+00 -0.45593999997E+02  0.45594000000E+02  0.51100000000E-03 0.  1.
    9900012    2    1    2    0    0 -0.23593556900E+02 -0.71435395943E+01  0.32333876606E+02  0.50528860050E+02  0.30000000608E+02 0.  0.
        -12    1    1    2    0    0  0.23593556900E+02  0.71435395943E+01 -0.32333876606E+02  0.40659139950E+02  0.00000000000E+00 0.  1.
         11    1    3    3    0    0 -0.15559423466E+01  0.11777210762E+01  0.12989544243E+01  0.23441984508E+01  0.51100000000E-03 0. -1.
        -11    1    3    3    0    0 -0.12392048315E+02 -0.34825091099E+01 -0.23625086560E+01  0.13087099700E+02  0.51100000000E-03 0.  1.
         12    1    3    3    0    0 -0.96455662379E+01 -0.48387515607E+01  0.33397430838E+02  0.35097561899E+02  0.00000000000E+00 0. -1.
</event>
<event>
 7    1  0.8697654E-014  0.5052886E+02  0.7816164E-02  0.1300439E+00
        -11   -1    0    0    0    0  0.00000000000E+00  0.00000000000E+00  0.45593999997E+02  0.45594000000E+02  0.51100000000E-03 0. -1.
         11   -1    0    0    0    0 -0.00000000000E+00 -0.00000000000E+00 -0.45593999997E+02  0.45594000000E+02  0.51100000000E-03 0.  1.
    9900012    2    1    2    0    0  0.13703974383E+01  0.87535011215E+01 -0.39682033208E+02  0.50528861660E+02  0.30000005502E+02 0.  0.
         12    1    1    2    0    0 -0.13703974383E+01 -0.87535011215E+01  0.39682033208E+02  0.40659138340E+02  0.00000000000E+00 0. -1.
         11    1    3    3    0    0  0.58938477434E+01  0.12942636029E+01 -0.21365730192E+01  0.64013673558E+01  0.51100000000E-03 0. -1.
        -11    1    3    3    0    0 -0.79251156160E+00 -0.75499987259E+01 -0.14611234203E+02  0.16465683118E+02  0.51100000000E-03 0.  1.
        -12    1    3    3    0    0 -0.37309387436E+01  0.15009236244E+02 -0.22934225986E+02  0.27661811186E+02  0.00000000000E+00 0.  1.
</event>
<event>
 7    1  0.8697654E-014  0.5052886E+02  0.7816164E-02  0.1300439E+00
        -11   -1    0    0    0    0  0.00000000000E+00  0.00000000000E+00  0.45593999997E+02  0.45594000000E+02  0.51100000000E-03 0. -1.
         11   -1    0    0    0    0 -0.00000000000E+00 -0.00000000000E+00 -0.45593999997E+02  0.45594000000E+02  0.51100000000E-03 0.  1.
    9900012    2    1    2    0    0  0.15125317912E+02 -0.10568463321E+01  0.37726299942E+02  0.50528857443E+02  0.29999992684E+02 0.  0.
        -12    1    1    2    0    0 -0.15125317912E+02  0.10568463321E+01 -0.37726299942E+02  0.40659142557E+02  0.00000000000E+00 0.  1.
         11    1    3    3    0    0  0.18373168725E+02 -0.31582666617E+01  0.35830023982E+02  0.40389832831E+02  0.51100000000E-03 0. -1.
        -11    1    3    3    0    0  0.30830624725E+01 -0.31736416528E+00 -0.78882109710E-02  0.30993639199E+01  0.51100000000E-03 0.  1.
        -12    1    3    3    0    0 -0.63309132859E+01  0.24187844949E+01  0.19041641713E+01  0.70396606919E+01  0.00000000000E+00 0.  1.
</event>
<event>
 7    1  0.8697654E-014  0.5052885E+02  0.7816164E-02  0.1300439E+00
        -11   -1    0    0    0    0  0.00000000000E+00  0.00000000000E+00  0.45593999997E+02  0.45594000000E+02  0.51100000000E-03 0. -1.
         11   -1    0    0    0    0 -0.00000000000E+00 -0.00000000000E+00 -0.45593999997E+02  0.45594000000E+02  0.51100000000E-03 0.  1.
    9900012    2    1    2    0    0 -0.22772722652E+02 -0.19261271554E+02 -0.27632829963E+02  0.50528846411E+02  0.29999959150E+02 0.  0.
         12    1    1    2    0    0  0.22772722652E+02  0.19261271554E+02  0.27632829963E+02  0.40659153589E+02  0.00000000000E+00 0. -1.
         11    1    3    3    0    0  0.26306712263E+01  0.39839974791E+01 -0.57133198541E+01  0.74454476716E+01  0.51100000000E-03 0. -1.
        -11    1    3    3    0    0 -0.77414724572E+01  0.12970326722E+00 -0.36826164980E+01  0.85737321673E+01  0.51100000000E-03 0.  1.
         12    1    3    3    0    0 -0.17661921421E+02 -0.23374972300E+02 -0.18236893610E+02  0.34509666572E+02  0.00000000000E+00 0. -1.
</event>
<event>
 7    1  0.8697654E-014  0.5052887E+02  0.7816164E-02  0.1300439E+00
        -11   -1    0    0    0    0  0.00000000000E+00  0.00000000000E+00  0.45593999997E+02  0.45594000000E+02  0.51100000000E-03 0. -1.
         11   -1    0    0    0    0 -0.00000000000E+00 -0.00000000000E+00 -0.45593999997E+02  0.45594000000E+02  0.51100000000E-03 0.  1.
    9900012    2    1    2    0    0 -0.10373391993E+02 -0.40787527491E+01 -0.39101427325E+02  0.50528866902E+02  0.30000021435E+02 0.  0.
         12    1    1    2    0    0  0.10373391993E+02  0.40787527491E+01  0.39101427325E+02  0.40659133098E+02  0.00000000000E+00 0. -1.
         11    1    3    3    0    0  0.13137611225E+01 -0.84666585898E+01 -0.33575130489E+02  0.34651113454E+02  0.51100000000E-03 0. -1.
        -11    1    3    3    0    0 -0.46544733470E+01 -0.19483710261E+01 -0.27654894649E+00  0.50533900873E+01  0.51100000000E-03 0.  1.
        -12    1    3    3    0    0 -0.70326797690E+01  0.63362768668E+01 -0.52497478893E+01  0.10824363361E+02  0.00000000000E+00 0.  1.
</event>
<event>
 7    1  0.8697654E-014  0.5052882E+02  0.7816164E-02  0.1300439E+00
        -11   -1    0    0    0    0  0.00000000000E+00  0.00000000000E+00  0.45593999997E+02  0.45594000000E+02  0.51100000000E-03 0. -1.
         11   -1    0    0    0    0 -0.00000000000E+00 -0.00000000000E+00 -0.45593999997E+02  0.45594000000E+02  0.51100000000E-03 0.  1.
    9900012    2    1    2    0    0  0.25502813592E+02 -0.29756346162E+02 -0.10832150802E+02  0.50528817409E+02  0.29999870995E+02 0.  0.
         12    1    1    2    0    0 -0.25502813592E+02  0.29756346162E+02  0.10832150802E+02  0.40659182591E+02  0.00000000000E+00 0. -1.
         11    1    3    3    0    0 -0.13695318606E+01  0.15485394481E+00  0.58562258844E+01  0.60162263198E+01  0.51100000000E-03 0. -1.
        -11    1    3    3    0    0 -0.73811177580E+00 -0.11818172083E+01 -0.86216969401E+00  0.16385474512E+01  0.51100000000E-03 0.  1.
        -12    1    3    3    0    0  0.27610457229E+02 -0.28729382898E+02 -0.15826206992E+02  0.42874043638E+02  0.00000000000E+00 0.  1.
</event>
<event>
 7    1  0.8697654E-014  0.5052886E+02  0.7816164E-02  0.1300439E+00
        -11   -1    0    0    0    0  0.00000000000E+00  0.00000000000E+00  0.45593999997E+02  0.45594000000E+02  0.51100000000E-03 0.  1.
         11   -1    0    0    0    0 -0.00000000000E+00 -0.00000000000E+00 -0.45593999997E+02  0.45594000000E+02  0.51100000000E-03 0. -1.
    9900012    2    1    2    0    0  0.39904436689E+02  0.48341613596E+01  0.61182099804E+01  0.50528859861E+02  0.30000000032E+02 0.  0.
         12    1    1    2    0    0 -0.39904436689E+02 -0.48341613596E+01 -0.61182099804E+01  0.40659140139E+02  0.00000000000E+00 0. -1.
         11    1    3    3    0    0  0.16769248719E+02 -0.30035576918E+01  0.66355526124E+01  0.18282768394E+02  0.51100000000E-03 0. -1.
        -11    1    3    3    0    0  0.11934159114E+02  0.63238274170E+01  0.10001307551E+02  0.16805984052E+02  0.51100000000E-03 0.  1.
         12    1    3    3    0    0  0.11201028856E+02  0.15138916344E+01 -0.10518650183E+02  0.15440107415E+02  0.00000000000E+00 0. -1.
</event>
<event>
 7    1  0.8697654E-014  0.5052886E+02  0.7816164E-02  0.1300439E+00
        -11   -1    0    0    0    0  0.00000000000E+00  0.00000000000E+00  0.45593999997E+02  0.45594000000E+02  0.51100000000E-03 0. -1.
         11   -1    0    0    0    0 -0.00000000000E+00 -0.00000000000E+00 -0.45593999997E+02  0.45594000000E+02  0.51100000000E-03 0.  1.
    9900012    2    1    2    0    0  0.14182978125E+02 -0.93099810724E+01 -0.36950416950E+02  0.50528856762E+02  0.29999990613E+02 0.  0.
         12    1    1    2    0    0 -0.14182978125E+02  0.93099810724E+01  0.36950416950E+02  0.40659143238E+02  0.00000000000E+00 0. -1.
         11    1    3    3    0    0 -0.51222940221E+01 -0.11518873776E+02 -0.13625973428E+02  0.18563122077E+02  0.51100000000E-03 0. -1.
        -11    1    3    3    0    0  0.65743101583E+01  0.39674098939E+01 -0.14399303891E+02  0.16318757555E+02  0.51100000000E-03 0.  1.
        -12    1    3    3    0    0  0.12730961989E+02 -0.17585171898E+01 -0.89251396309E+01  0.15646977130E+02  0.00000000000E+00 0.  1.
</event>
<event>
 7    1  0.8697654E-014  0.5052886E+02  0.7816164E-02  0.1300439E+00
        -11   -1    0    0    0    0  0.00000000000E+00  0.00000000000E+00  0.45593999997E+02  0.45594000000E+02  0.51100000000E-03 0. -1.
         11   -1    0    0    0    0 -0.00000000000E+00 -0.00000000000E+00 -0.45593999997E+02  0.45594000000E+02  0.51100000000E-03 0.  1.
    9900012    2    1    2    0    0  0.46824090138E+01 -0.28626653041E+02  0.28491328085E+02  0.50528855954E+02  0.29999988157E+02 0.  0.
        -12    1    1    2    0    0 -0.46824090138E+01  0.28626653041E+02 -0.28491328085E+02  0.40659144046E+02  0.00000000000E+00 0.  1.
         11    1    3    3    0    0  0.23887655371E+01 -0.77535552993E+00 -0.91486888330E+00  0.26728939978E+01  0.51100000000E-03 0. -1.
        -11    1    3    3    0    0  0.12443413298E+02 -0.13184541658E+02  0.22091597054E+02  0.28578126844E+02  0.51100000000E-03 0.  1.
         12    1    3    3    0    0 -0.10149769822E+02 -0.14666755853E+02  0.73145999142E+01  0.19277835112E+02  0.00000000000E+00 0. -1.
</event>
<event>
 7    1  0.8697654E-014  0.5052886E+02  0.7816164E-02  0.1300439E+00
        -11   -1    0    0    0    0  0.00000000000E+00  0.00000000000E+00  0.45593999997E+02  0.45594000000E+02  0.51100000000E-03 0. -1.
         11   -1    0    0    0    0 -0.00000000000E+00 -0.00000000000E+00 -0.45593999997E+02  0.45594000000E+02  0.51100000000E-03 0.  1.
    9900012    2    1    2    0    0  0.17067640912E+01 -0.91656670386E+01  0.39575788028E+02  0.50528862110E+02  0.30000006869E+02 0.  0.
        -12    1    1    2    0    0 -0.17067640912E+01  0.91656670386E+01 -0.39575788028E+02  0.40659137890E+02  0.00000000000E+00 0.  1.
         11    1    3    3    0    0  0.50186282980E+01 -0.11811321895E+02  0.20623037323E+02  0.24289990193E+02  0.51100000000E-03 0. -1.
        -11    1    3    3    0    0  0.63951386960E+01  0.43854261727E+01  0.52821471602E+01  0.93824751820E+01  0.51100000000E-03 0.  1.
         12    1    3    3    0    0 -0.97070029028E+01 -0.17397713164E+01  0.13670603545E+02  0.16856396735E+02  0.00000000000E+00 0. -1.
</event>
<event>
 7    1  0.8697654E-014  0.5052885E+02  0.7816164E-02  0.1300439E+00
        -11   -1    0    0    0    0  0.00000000000E+00  0.00000000000E+00  0.45593999997E+02  0.45594000000E+02  0.51100000000E-03 0. -1.
         11   -1    0    0    0    0 -0.00000000000E+00 -0.00000000000E+00 -0.45593999997E+02  0.45594000000E+02  0.51100000000E-03 0.  1.
    9900012    2    1    2    0    0  0.26465237882E+01 -0.16587775680E+02 -0.37027123163E+02  0.50528852937E+02  0.29999978986E+02 0.  0.
         12    1    1    2    0    0 -0.26465237882E+01  0.16587775680E+02  0.37027123163E+02  0.40659147063E+02  0.00000000000E+00 0. -1.
         11    1    3    3    0    0 -0.31309944821E+01 -0.96624940076E+01 -0.14208886810E+02  0.17465949203E+02  0.51100000000E-03 0. -1.
        -11    1    3    3    0    0  0.11638945986E+02 -0.11597465738E+02 -0.15742836902E+02  0.22755289257E+02  0.51100000000E-03 0.  1.
        -12    1    3    3    0    0 -0.58614277160E+01  0.46721840652E+01 -0.70753994512E+01  0.10307614477E+02  0.00000000000E+00 0.  1.
</event>
<event>
 7    1  0.8697654E-014  0.5052886E+02  0.7816164E-02  0.1300439E+00
        -11   -1    0    0    0    0  0.00000000000E+00  0.00000000000E+00  0.45593999997E+02  0.45594000000E+02  0.51100000000E-03 0. -1.
         11   -1    0    0    0    0 -0.00000000000E+00 -0.00000000000E+00 -0.45593999997E+02  0.45594000000E+02  0.51100000000E-03 0.  1.
    9900012    2    1    2    0    0  0.40292194919E+01  0.28459314725E+02  0.28757575208E+02  0.50528864050E+02  0.30000012767E+02 0.  0.
        -12    1    1    2    0    0 -0.40292194919E+01 -0.28459314725E+02 -0.28757575208E+02  0.40659135950E+02  0.00000000000E+00 0.  1.
         11    1    3    3    0    0  0.67294809233E+00 -0.34633225102E+01 -0.70719369234E+00  0.35982752985E+01  0.51100000000E-03 0. -1.
        -11    1    3    3    0    0 -0.50520303089E+01  0.12662278929E+02  0.46312733734E+01  0.14398090541E+02  0.51100000000E-03 0.  1.
         12    1    3    3    0    0  0.84083017085E+01  0.19260358306E+02  0.24833495527E+02  0.32532498210E+02  0.00000000000E+00 0. -1.
</event>
<event>
 7    1  0.8697654E-014  0.5052886E+02  0.7816164E-02  0.1300439E+00
        -11   -1    0    0    0    0  0.00000000000E+00  0.00000000000E+00  0.45593999997E+02  0.45594000000E+02  0.51100000000E-03 0. -1.
         11   -1    0    0    0    0 -0.00000000000E+00 -0.00000000000E+00 -0.45593999997E+02  0.45594000000E+02  0.51100000000E-03 0.  1.
    9900012    2    1    2    0    0  0.68723288816E+01  0.22930445250E+02  0.32865358399E+02  0.50528855809E+02  0.29999987718E+02 0.  0.
        -12    1    1    2    0    0 -0.68723288816E+01 -0.22930445250E+02 -0.32865358399E+02  0.40659144191E+02  0.00000000000E+00 0.  1.
         11    1    3    3    0    0 -0.27905032588E+01  0.96698803826E+01  0.20579365607E+02  0.22908596293E+02  0.51100000000E-03 0. -1.
        -11    1    3    3    0    0  0.73680854893E+00  0.24270252691E+01  0.13306554533E+02  0.13546133481E+02  0.51100000000E-03 0.  1.
        -12    1    3    3    0    0  0.89260235915E+01  0.10833539598E+02 -0.10205617414E+01  0.14074126035E+02  0.00000000000E+00 0.  1.
</event>
<event>
 7    1  0.8697654E-014  0.5052886E+02  0.7816164E-02  0.1300439E+00
        -11   -1    0    0    0    0  0.00000000000E+00  0.00000000000E+00  0.45593999997E+02  0.45594000000E+02  0.51100000000E-03 0. -1.
         11   -1    0    0    0    0 -0.00000000000E+00 -0.00000000000E+00 -0.45593999997E+02  0.45594000000E+02  0.51100000000E-03 0.  1.
    9900012    2    1    2    0    0  0.36610774455E+02 -0.13027473002E+02 -0.11962510506E+02  0.50528861831E+02  0.30000006023E+02 0.  0.
        -12    1    1    2    0    0 -0.36610774455E+02  0.13027473002E+02  0.11962510506E+02  0.40659138169E+02  0.00000000000E+00 0.  1.
         11    1    3    3    0    0  0.27941831531E+02 -0.12715883181E+02 -0.15695901533E+02  0.34478993019E+02  0.51100000000E-03 0. -1.
        -11    1    3    3    0    0  0.54742684616E+01 -0.63788827311E+01  0.37384054715E+00  0.84141260451E+01  0.51100000000E-03 0.  1.
         12    1    3    3    0    0  0.31946744626E+01  0.60672929108E+01  0.33595504798E+01  0.76357427676E+01  0.00000000000E+00 0. -1.
</event>
<event>
 7    1  0.8697654E-014  0.5052888E+02  0.7816164E-02  0.1300439E+00
        -11   -1    0    0    0    0  0.00000000000E+00  0.00000000000E+00  0.45593999997E+02  0.45594000000E+02  0.51100000000E-03 0. -1.
         11   -1    0    0    0    0 -0.00000000000E+00 -0.00000000000E+00 -0.45593999997E+02  0.45594000000E+02  0.51100000000E-03 0.  1.
    9900012    2    1    2    0    0 -0.10107187732E+02  0.10144331653E+02  0.38053931392E+02  0.50528875527E+02  0.30000047651E+02 0.  0.
        -12    1    1    2    0    0  0.10107187732E+02 -0.10144331653E+02 -0.38053931392E+02  0.40659124473E+02  0.00000000000E+00 0.  1.
         11    1    3    3    0    0 -0.16376426654E+02  0.40566625909E+01  0.17710171673E+02  0.24460049924E+02  0.51100000000E-03 0. -1.
        -11    1    3    3    0    0 -0.19188677423E+01  0.74951452419E+01  0.75227450777E+01  0.10791244107E+02  0.51100000000E-03 0.  1.
         12    1    3    3    0    0  0.81881066642E+01 -0.14074761795E+01  0.12821014641E+02  0.15277581496E+02  0.00000000000E+00 0. -1.
</event>
<event>
 7    1  0.8697654E-014  0.5052887E+02  0.7816164E-02  0.1300439E+00
        -11   -1    0    0    0    0  0.00000000000E+00  0.00000000000E+00  0.45593999997E+02  0.45594000000E+02  0.51100000000E-03 0. -1.
         11   -1    0    0    0    0 -0.00000000000E+00 -0.00000000000E+00 -0.45593999997E+02  0.45594000000E+02  0.51100000000E-03 0.  1.
    9900012    2    1    2    0    0 -0.16896767849E+02  0.10199755902E+02  0.35547563993E+02  0.50528867077E+02  0.30000021968E+02 0.  0.
        -12    1    1    2    0    0  0.16896767849E+02 -0.10199755902E+02 -0.35547563993E+02  0.40659132923E+02  0.00000000000E+00 0.  1.
         11    1    3    3    0    0 -0.47839731849E+01  0.20418582679E+01 -0.19219161035E+01  0.55452093188E+01  0.51100000000E-03 0. -1.
        -11    1    3    3    0    0 -0.14479388923E+02 -0.18530432032E+01  0.22494598932E+02  0.26815917923E+02  0.51100000000E-03 0.  1.
         12    1    3    3    0    0  0.23665942589E+01  0.10010940837E+02  0.14974881164E+02  0.18167739835E+02  0.00000000000E+00 0. -1.
</event>
<event>
 7    1  0.8697654E-014  0.5052887E+02  0.7816164E-02  0.1300439E+00
        -11   -1    0    0    0    0  0.00000000000E+00  0.00000000000E+00  0.45593999997E+02  0.45594000000E+02  0.51100000000E-03 0.  1.
         11   -1    0    0    0    0 -0.00000000000E+00 -0.00000000000E+00 -0.45593999997E+02  0.45594000000E+02  0.51100000000E-03 0. -1.
    9900012    2    1    2    0    0  0.33412926140E+02 -0.21487499379E+02  0.86619224636E+01  0.50528866173E+02  0.30000019220E+02 0.  0.
        -12    1    1    2    0    0 -0.33412926140E+02  0.21487499379E+02 -0.86619224636E+01  0.40659133827E+02  0.00000000000E+00 0.  1.
         11    1    3    3    0    0  0.19626014071E+02 -0.24540316553E+02  0.41153495768E+01  0.31691381592E+02  0.51100000000E-03 0. -1.
        -11    1    3    3    0    0  0.49778176789E+01 -0.26331544949E+01  0.60273040527E+01  0.82486705500E+01  0.51100000000E-03 0.  1.
        -12    1    3    3    0    0  0.88090943899E+01  0.56859716690E+01 -0.14807311658E+01  0.10588814031E+02  0.00000000000E+00 0.  1.
</event>
<event>
 7    1  0.8697654E-014  0.5052886E+02  0.7816164E-02  0.1300439E+00
        -11   -1    0    0    0    0  0.00000000000E+00  0.00000000000E+00  0.45593999997E+02  0.45594000000E+02  0.51100000000E-03 0. -1.
         11   -1    0    0    0    0 -0.00000000000E+00 -0.00000000000E+00 -0.45593999997E+02  0.45594000000E+02  0.51100000000E-03 0.  1.
    9900012    2    1    2    0    0 -0.11262939254E+02  0.12666883815E+02  0.36957572004E+02  0.50528857428E+02  0.29999992639E+02 0.  0.
        -12    1    1    2    0    0  0.11262939254E+02 -0.12666883815E+02 -0.36957572004E+02  0.40659142572E+02  0.00000000000E+00 0.  1.
         11    1    3    3    0    0 -0.64439767170E+01  0.42294971503E+01  0.21959455289E+02  0.23272970565E+02  0.51100000000E-03 0. -1.
        -11    1    3    3    0    0  0.30631940807E+01  0.10908096302E+02  0.15242213190E+02  0.18991966356E+02  0.51100000000E-03 0.  1.
        -12    1    3    3    0    0 -0.78821566172E+01 -0.24707096368E+01 -0.24409647489E+00  0.82639205065E+01  0.00000000000E+00 0.  1.
</event>
<event>
 7    1  0.8697654E-014  0.5052886E+02  0.7816164E-02  0.1300439E+00
        -11   -1    0    0    0    0  0.00000000000E+00  0.00000000000E+00  0.45593999997E+02  0.45594000000E+02  0.51100000000E-03 0. -1.
         11   -1    0    0    0    0 -0.00000000000E+00 -0.00000000000E+00 -0.45593999997E+02  0.45594000000E+02  0.51100000000E-03 0.  1.
    9900012    2    1    2    0    0 -0.25194350342E+02  0.98075642327E+01  0.30368113561E+02  0.50528856790E+02  0.29999990698E+02 0.  0.
        -12    1    1    2    0    0  0.25194350342E+02 -0.98075642327E+01 -0.30368113561E+02  0.40659143210E+02  0.00000000000E+00 0.  1.
         11    1    3    3    0    0 -0.10229123798E+02 -0.64097500686E+01  0.47432705743E+01  0.12969906924E+02  0.51100000000E-03 0. -1.
        -11    1    3    3    0    0  0.29693388567E+00 -0.19217030112E+01  0.74172898455E+01  0.76679398217E+01  0.51100000000E-03 0.  1.
         12    1    3    3    0    0 -0.15262160429E+02  0.18139017312E+02  0.18207553142E+02  0.29891010044E+02  0.00000000000E+00 0. -1.
</event>
<event>
 7    1  0.8697654E-014  0.5052888E+02  0.7816164E-02  0.1300439E+00
        -11   -1    0    0    0    0  0.00000000000E+00  0.00000000000E+00  0.45593999997E+02  0.45594000000E+02  0.51100000000E-03 0. -1.
         11   -1    0    0    0    0 -0.00000000000E+00 -0.00000000000E+00 -0.45593999997E+02  0.45594000000E+02  0.51100000000E-03 0.  1.
    9900012    2    1    2    0    0  0.21536311275E+02  0.10908989406E+02  0.32716135099E+02  0.50528877419E+02  0.30000053404E+02 0.  0.
        -12    1    1    2    0    0 -0.21536311275E+02 -0.10908989406E+02 -0.32716135099E+02  0.40659122581E+02  0.00000000000E+00 0.  1.
         11    1    3    3    0    0  0.80307908476E+01  0.59438033358E+01  0.63449355397E+01  0.11835565343E+02  0.51100000000E-03 0. -1.
        -11    1    3    3    0    0  0.17352876027E+02  0.45898470734E+01  0.28938181615E+02  0.34053008061E+02  0.51100000000E-03 0.  1.
        -12    1    3    3    0    0 -0.38473555993E+01  0.37533899724E+00 -0.25669820561E+01  0.46403040145E+01  0.00000000000E+00 0.  1.
</event>
<event>
 7    1  0.8697654E-014  0.5052887E+02  0.7816164E-02  0.1300439E+00
        -11   -1    0    0    0    0  0.00000000000E+00  0.00000000000E+00  0.45593999997E+02  0.45594000000E+02  0.51100000000E-03 0. -1.
         11   -1    0    0    0    0 -0.00000000000E+00 -0.00000000000E+00 -0.45593999997E+02  0.45594000000E+02  0.51100000000E-03 0.  1.
    9900012    2    1    2    0    0  0.23909791923E+02  0.18607566863E+02 -0.27115404172E+02  0.50528870179E+02  0.30000031397E+02 0.  0.
         12    1    1    2    0    0 -0.23909791923E+02 -0.18607566863E+02  0.27115404172E+02  0.40659129821E+02  0.00000000000E+00 0. -1.
         11    1    3    3    0    0  0.63929468661E+01 -0.38596865597E+01  0.15437374216E+01  0.76256196771E+01  0.51100000000E-03 0. -1.
        -11    1    3    3    0    0  0.90396270755E+01  0.31826273776E+01 -0.14989014099E+02  0.17790854915E+02  0.51100000000E-03 0.  1.
         12    1    3    3    0    0  0.84772179816E+01  0.19284626045E+02 -0.13670127495E+02  0.25112395587E+02  0.00000000000E+00 0. -1.
</event>
<event>
 7    1  0.8697654E-014  0.5052886E+02  0.7816164E-02  0.1300439E+00
        -11   -1    0    0    0    0  0.00000000000E+00  0.00000000000E+00  0.45593999997E+02  0.45594000000E+02  0.51100000000E-03 0. -1.
         11   -1    0    0    0    0 -0.00000000000E+00 -0.00000000000E+00 -0.45593999997E+02  0.45594000000E+02  0.51100000000E-03 0.  1.
    9900012    2    1    2    0    0 -0.23857722476E+02  0.32484525257E+02 -0.53600565037E+01  0.50528861930E+02  0.30000006322E+02 0.  0.
         12    1    1    2    0    0  0.23857722476E+02 -0.32484525257E+02  0.53600565037E+01  0.40659138070E+02  0.00000000000E+00 0. -1.
         11    1    3    3    0    0 -0.65435561577E+01 -0.17736634559E+01  0.51182187305E+01  0.84947143847E+01  0.51100000000E-03 0. -1.
        -11    1    3    3    0    0 -0.68352072715E+01  0.99456942354E+01  0.28409380893E+01  0.12397895860E+02  0.51100000000E-03 0.  1.
        -12    1    3    3    0    0 -0.10478959047E+02  0.24312494477E+02 -0.13319213323E+02  0.29636251685E+02  0.00000000000E+00 0.  1.
</event>
<event>
 7    1  0.8697654E-014  0.5052885E+02  0.7816164E-02  0.1300439E+00
        -11   -1    0    0    0    0  0.00000000000E+00  0.00000000000E+00  0.45593999997E+02  0.45594000000E+02  0.51100000000E-03 0. -1.
         11   -1    0    0    0    0 -0.00000000000E+00 -0.00000000000E+00 -0.45593999997E+02  0.45594000000E+02  0.51100000000E-03 0.  1.
    9900012    2    1    2    0    0  0.35002664872E+02 -0.82626161271E+01  0.18966004946E+02  0.50528847069E+02  0.29999961152E+02 0.  0.
        -12    1    1    2    0    0 -0.35002664872E+02  0.82626161271E+01 -0.18966004946E+02  0.40659152931E+02  0.00000000000E+00 0.  1.
         11    1    3    3    0    0  0.14911141713E+01  0.26168477361E+01  0.91740994935E+01  0.96558487625E+01  0.51100000000E-03 0.  1.
        -11    1    3    3    0    0  0.56519491027E+01 -0.79281305476E+01 -0.28387199841E+01  0.10141898937E+02  0.51100000000E-03 0. -1.
        -12    1    3    3    0    0  0.27859601598E+02 -0.29513333156E+01  0.12630625436E+02  0.30731099370E+02  0.00000000000E+00 0.  1.
</event>
<event>
 7    1  0.8697654E-014  0.5052878E+02  0.7816164E-02  0.1300439E+00
        -11   -1    0    0    0    0  0.00000000000E+00  0.00000000000E+00  0.45593999997E+02  0.45594000000E+02  0.51100000000E-03 0. -1.
         11   -1    0    0    0    0 -0.00000000000E+00 -0.00000000000E+00 -0.45593999997E+02  0.45594000000E+02  0.51100000000E-03 0.  1.
    9900012    2    1    2    0    0  0.26016390194E+01 -0.35749200396E+02 -0.19193708955E+02  0.50528778192E+02  0.29999751792E+02 0.  0.
         12    1    1    2    0    0 -0.26016390194E+01  0.35749200396E+02  0.19193708955E+02  0.40659221808E+02  0.00000000000E+00 0. -1.
         11    1    3    3    0    0 -0.40474920466E-01  0.27978542162E+01 -0.16065136479E+01  0.32265326275E+01  0.51100000000E-03 0. -1.
        -11    1    3    3    0    0  0.52123950028E+01 -0.19921911272E+02  0.13241117510E+01  0.20635040165E+02  0.51100000000E-03 0.  1.
        -12    1    3    3    0    0 -0.25702810629E+01 -0.18625143340E+02 -0.18911307058E+02  0.26667205400E+02  0.00000000000E+00 0.  1.
</event>
<event>
 7    1  0.8697654E-014  0.5052885E+02  0.7816164E-02  0.1300439E+00
        -11   -1    0    0    0    0  0.00000000000E+00  0.00000000000E+00  0.45593999997E+02  0.45594000000E+02  0.51100000000E-03 0.  1.
         11   -1    0    0    0    0 -0.00000000000E+00 -0.00000000000E+00 -0.45593999997E+02  0.45594000000E+02  0.51100000000E-03 0. -1.
    9900012    2    1    2    0    0  0.29277253677E+02 -0.20296772480E+02  0.19597183008E+02  0.50528854192E+02  0.29999982803E+02 0.  0.
         12    1    1    2    0    0 -0.29277253677E+02  0.20296772480E+02 -0.19597183008E+02  0.40659145808E+02  0.00000000000E+00 0. -1.
         11    1    3    3    0    0  0.21673492611E+01 -0.35195967007E+00 -0.12953617146E+01  0.25493608340E+01  0.51100000000E-03 0. -1.
        -11    1    3    3    0    0  0.31400525905E+02 -0.21121289465E+02  0.21443898573E+02  0.43496467466E+02  0.51100000000E-03 0.  1.
        -12    1    3    3    0    0 -0.42906214889E+01  0.11764766551E+01 -0.55135385042E+00  0.44830258921E+01  0.00000000000E+00 0.  1.
</event>
<event>
 7    1  0.8697654E-014  0.5052886E+02  0.7816164E-02  0.1300439E+00
        -11   -1    0    0    0    0  0.00000000000E+00  0.00000000000E+00  0.45593999997E+02  0.45594000000E+02  0.51100000000E-03 0. -1.
         11   -1    0    0    0    0 -0.00000000000E+00 -0.00000000000E+00 -0.45593999997E+02  0.45594000000E+02  0.51100000000E-03 0.  1.
    9900012    2    1    2    0    0 -0.24794722316E+02  0.40288082096E+01 -0.31971180829E+02  0.50528856453E+02  0.29999989676E+02 0.  0.
         12    1    1    2    0    0  0.24794722316E+02 -0.40288082096E+01  0.31971180829E+02  0.40659143547E+02  0.00000000000E+00 0. -1.
         11    1    3    3    0    0  0.26523052160E+01 -0.37247408400E+01 -0.50287798647E+01  0.67968407715E+01  0.51100000000E-03 0. -1.
        -11    1    3    3    0    0 -0.57003912265E+01  0.53351652571E+00 -0.18412306417E+02  0.19281911935E+02  0.51100000000E-03 0.  1.
         12    1    3    3    0    0 -0.21746636305E+02  0.72200325239E+01 -0.85300945478E+01  0.24450103747E+02  0.00000000000E+00 0. -1.
</event>
<event>
 7    1  0.8697654E-014  0.5052886E+02  0.7816164E-02  0.1300439E+00
        -11   -1    0    0    0    0  0.00000000000E+00  0.00000000000E+00  0.45593999997E+02  0.45594000000E+02  0.51100000000E-03 0. -1.
         11   -1    0    0    0    0 -0.00000000000E+00 -0.00000000000E+00 -0.45593999997E+02  0.45594000000E+02  0.51100000000E-03 0.  1.
    9900012    2    1    2    0    0  0.21353300522E+02 -0.22633556973E+02  0.26171065663E+02  0.50528855612E+02  0.29999987118E+02 0.  0.
        -12    1    1    2    0    0 -0.21353300522E+02  0.22633556973E+02 -0.26171065663E+02  0.40659144388E+02  0.00000000000E+00 0.  1.
         11    1    3    3    0    0  0.19404280588E+02 -0.15204066351E+02  0.13515670764E+02  0.28113397077E+02  0.51100000000E-03 0. -1.
        -11    1    3    3    0    0  0.78683380133E+01  0.11466286877E+01  0.67993720772E+01  0.10462168100E+02  0.51100000000E-03 0.  1.
         12    1    3    3    0    0 -0.59193180794E+01 -0.85761193104E+01  0.58560228217E+01  0.11953290436E+02  0.00000000000E+00 0. -1.
</event>
<event>
 7    1  0.8697654E-014  0.5052882E+02  0.7816164E-02  0.1300439E+00
        -11   -1    0    0    0    0  0.00000000000E+00  0.00000000000E+00  0.45593999997E+02  0.45594000000E+02  0.51100000000E-03 0.  1.
         11   -1    0    0    0    0 -0.00000000000E+00 -0.00000000000E+00 -0.45593999997E+02  0.45594000000E+02  0.51100000000E-03 0. -1.
    9900012    2    1    2    0    0 -0.34095760940E+02  0.84517930976E+01 -0.20474744543E+02  0.50528820412E+02  0.29999880125E+02 0.  0.
         12    1    1    2    0    0  0.34095760940E+02 -0.84517930976E+01  0.20474744543E+02  0.40659179588E+02  0.00000000000E+00 0. -1.
         11    1    3    3    0    0 -0.57364721667E+01  0.63911255155E+01 -0.85636789121E+01  0.12128074664E+02  0.51100000000E-03 0. -1.
        -11    1    3    3    0    0 -0.28834786960E+02  0.80699474846E+01 -0.12276245640E+02  0.32361631582E+02  0.51100000000E-03 0.  1.
         12    1    3    3    0    0  0.47549818592E+00 -0.60092799025E+01  0.36518000936E+00  0.60391141661E+01  0.00000000000E+00 0. -1.
</event>
<event>
 7    1  0.8697654E-014  0.5052886E+02  0.7816164E-02  0.1300439E+00
        -11   -1    0    0    0    0  0.00000000000E+00  0.00000000000E+00  0.45593999997E+02  0.45594000000E+02  0.51100000000E-03 0. -1.
         11   -1    0    0    0    0 -0.00000000000E+00 -0.00000000000E+00 -0.45593999997E+02  0.45594000000E+02  0.51100000000E-03 0.  1.
    9900012    2    1    2    0    0 -0.32323583168E+02  0.24428332287E+00  0.24663578922E+02  0.50528857997E+02  0.29999994368E+02 0.  0.
        -12    1    1    2    0    0  0.32323583168E+02 -0.24428332287E+00 -0.24663578922E+02  0.40659142003E+02  0.00000000000E+00 0.  1.
         11    1    3    3    0    0 -0.28865684483E+01  0.50002623937E+01  0.15047771740E+02  0.16117392346E+02  0.51100000000E-03 0. -1.
        -11    1    3    3    0    0 -0.87742386644E+01  0.50768017315E+01  0.35133329476E+01  0.10728685317E+02  0.51100000000E-03 0.  1.
        -12    1    3    3    0    0 -0.20662776056E+02 -0.98327808023E+01  0.61024742338E+01  0.23682780335E+02  0.00000000000E+00 0.  1.
</event>
<event>
 7    1  0.8697654E-014  0.5052886E+02  0.7816164E-02  0.1300439E+00
        -11   -1    0    0    0    0  0.00000000000E+00  0.00000000000E+00  0.45593999997E+02  0.45594000000E+02  0.51100000000E-03 0. -1.
         11   -1    0    0    0    0 -0.00000000000E+00 -0.00000000000E+00 -0.45593999997E+02  0.45594000000E+02  0.51100000000E-03 0.  1.
    9900012    2    1    2    0    0 -0.11491443500E+02  0.33450235284E+02 -0.20054777500E+02  0.50528860623E+02  0.30000002350E+02 0.  0.
         12    1    1    2    0    0  0.11491443500E+02 -0.33450235284E+02  0.20054777500E+02  0.40659139377E+02  0.00000000000E+00 0. -1.
         11    1    3    3    0    0 -0.15933534349E+02  0.16659511553E+02 -0.14164971139E+02  0.27056667379E+02  0.51100000000E-03 0. -1.
        -11    1    3    3    0    0 -0.43347577117E+01  0.75388178874E+01  0.13614122955E+01  0.88021215203E+01  0.51100000000E-03 0.  1.
         12    1    3    3    0    0  0.87768485600E+01  0.92519058442E+01 -0.72512186562E+01  0.14670071724E+02  0.00000000000E+00 0. -1.
</event>
<event>
 7    1  0.8710616E-014  0.5052886E+02  0.7816164E-02  0.1300439E+00
        -11   -1    0    0    0    0  0.00000000000E+00  0.00000000000E+00  0.45593999997E+02  0.45594000000E+02  0.51100000000E-03 0. -1.
         11   -1    0    0    0    0 -0.00000000000E+00 -0.00000000000E+00 -0.45593999997E+02  0.45594000000E+02  0.51100000000E-03 0.  1.
    9900012    2    1    2    0    0  0.15423122577E+02  0.19352075900E+02 -0.32261272781E+02  0.50528864826E+02  0.30000015124E+02 0.  0.
         12    1    1    2    0    0 -0.15423122577E+02 -0.19352075900E+02  0.32261272781E+02  0.40659135174E+02  0.00000000000E+00 0. -1.
         11    1    3    3    0    0  0.28884700730E+01 -0.39375083657E+01 -0.85826264147E+01  0.98746497623E+01  0.51100000000E-03 0. -1.
        -11    1    3    3    0    0  0.34256351460E+01  0.92608166599E+01 -0.21662181891E+02  0.23806466052E+02  0.51100000000E-03 0.  1.
         12    1    3    3    0    0  0.91090173584E+01  0.14028767606E+02 -0.20164644759E+01  0.16847749011E+02  0.00000000000E+00 0. -1.
</event>
<event>
 7    1  0.8697654E-014  0.5052886E+02  0.7816164E-02  0.1300439E+00
        -11   -1    0    0    0    0  0.00000000000E+00  0.00000000000E+00  0.45593999997E+02  0.45594000000E+02  0.51100000000E-03 0. -1.
         11   -1    0    0    0    0 -0.00000000000E+00 -0.00000000000E+00 -0.45593999997E+02  0.45594000000E+02  0.51100000000E-03 0.  1.
    9900012    2    1    2    0    0  0.86381540531E+01  0.20718169345E+02  0.33901409399E+02  0.50528858276E+02  0.29999995216E+02 0.  0.
        -12    1    1    2    0    0 -0.86381540531E+01 -0.20718169345E+02 -0.33901409399E+02  0.40659141724E+02  0.00000000000E+00 0.  1.
         11    1    3    3    0    0  0.54785352345E+00  0.91378152882E+01  0.19862530200E+02  0.21870526238E+02  0.51100000000E-03 0. -1.
        -11    1    3    3    0    0  0.12915292364E+02  0.11886511253E+02  0.15696593305E+02  0.23547334632E+02  0.51100000000E-03 0.  1.
        -12    1    3    3    0    0 -0.48249918347E+01 -0.30615719567E+00 -0.16577141055E+01  0.51109974065E+01  0.00000000000E+00 0.  1.
</event>
<event>
 7    1  0.8697654E-014  0.5052886E+02  0.7816164E-02  0.1300439E+00
        -11   -1    0    0    0    0  0.00000000000E+00  0.00000000000E+00  0.45593999997E+02  0.45594000000E+02  0.51100000000E-03 0. -1.
         11   -1    0    0    0    0 -0.00000000000E+00 -0.00000000000E+00 -0.45593999997E+02  0.45594000000E+02  0.51100000000E-03 0.  1.
    9900012    2    1    2    0    0 -0.45277362229E+01  0.24644923166E+02  0.32020191623E+02  0.50528864437E+02  0.30000013943E+02 0.  0.
        -12    1    1    2    0    0  0.45277362229E+01 -0.24644923166E+02 -0.32020191623E+02  0.40659135563E+02  0.00000000000E+00 0.  1.
         11    1    3    3    0    0  0.43219912763E+01  0.16609161783E+02  0.10121529628E+02  0.19924588478E+02  0.51100000000E-03 0. -1.
        -11    1    3    3    0    0 -0.46145100925E+01  0.73110593671E+01  0.37259347045E+00  0.86535610369E+01  0.51100000000E-03 0.  1.
         12    1    3    3    0    0 -0.42352174067E+01  0.72470201526E+00  0.21526068524E+02  0.21950714922E+02  0.00000000000E+00 0. -1.
</event>
<event>
 7    1  0.8697654E-014  0.5052886E+02  0.7816164E-02  0.1300439E+00
        -11   -1    0    0    0    0  0.00000000000E+00  0.00000000000E+00  0.45593999997E+02  0.45594000000E+02  0.51100000000E-03 0. -1.
         11   -1    0    0    0    0 -0.00000000000E+00 -0.00000000000E+00 -0.45593999997E+02  0.45594000000E+02  0.51100000000E-03 0.  1.
    9900012    2    1    2    0    0  0.28974051382E+02  0.22885508889E+02  0.17027137838E+02  0.50528860885E+02  0.30000003147E+02 0.  0.
        -12    1    1    2    0    0 -0.28974051382E+02 -0.22885508889E+02 -0.17027137838E+02  0.40659139115E+02  0.00000000000E+00 0.  1.
         11    1    3    3    0    0  0.10792005198E+02  0.27421501868E+01 -0.50661565673E+01  0.12233262299E+02  0.51100000000E-03 0. -1.
        -11    1    3    3    0    0  0.72489927023E+01  0.58353628047E+00  0.11264801041E+02  0.13408361292E+02  0.51100000000E-03 0.  1.
         12    1    3    3    0    0  0.10933053482E+02  0.19559822422E+02  0.10828493365E+02  0.24887237294E+02  0.00000000000E+00 0. -1.
</event>
<event>
 7    1  0.8697654E-014  0.5052886E+02  0.7816164E-02  0.1300439E+00
        -11   -1    0    0    0    0  0.00000000000E+00  0.00000000000E+00  0.45593999997E+02  0.45594000000E+02  0.51100000000E-03 0. -1.
         11   -1    0    0    0    0 -0.00000000000E+00 -0.00000000000E+00 -0.45593999997E+02  0.45594000000E+02  0.51100000000E-03 0.  1.
    9900012    2    1    2    0    0  0.66509571997E+01 -0.29953822864E+00  0.40110355070E+02  0.50528861560E+02  0.30000005198E+02 0.  0.
        -12    1    1    2    0    0 -0.66509571997E+01  0.29953822864E+00 -0.40110355070E+02  0.40659138440E+02  0.00000000000E+00 0.  1.
         11    1    3    3    0    0  0.50694900590E+01  0.76655039089E+01  0.15986715495E+02  0.18440031243E+02  0.51100000000E-03 0. -1.
        -11    1    3    3    0    0 -0.79260644267E+01  0.81894472115E+00  0.11636781040E+02  0.14103469111E+02  0.51100000000E-03 0.  1.
         12    1    3    3    0    0  0.95075315674E+01 -0.87839868587E+01  0.12486858535E+02  0.17985361206E+02  0.00000000000E+00 0. -1.
</event>
<event>
 7    1  0.8697654E-014  0.5052886E+02  0.7816164E-02  0.1300439E+00
        -11   -1    0    0    0    0  0.00000000000E+00  0.00000000000E+00  0.45593999997E+02  0.45594000000E+02  0.51100000000E-03 0. -1.
         11   -1    0    0    0    0 -0.00000000000E+00 -0.00000000000E+00 -0.45593999997E+02  0.45594000000E+02  0.51100000000E-03 0.  1.
    9900012    2    1    2    0    0 -0.18867099951E+01  0.22205074149E+02  0.34007951148E+02  0.50528859160E+02  0.29999997904E+02 0.  0.
        -12    1    1    2    0    0  0.18867099951E+01 -0.22205074149E+02 -0.34007951148E+02  0.40659140840E+02  0.00000000000E+00 0.  1.
         11    1    3    3    0    0  0.57689052924E+01  0.22691203082E+02  0.26674453869E+02  0.35492216824E+02  0.51100000000E-03 0. -1.
        -11    1    3    3    0    0 -0.77736801935E+01  0.31762637293E+01  0.76487763630E+01  0.11358808703E+02  0.51100000000E-03 0.  1.
        -12    1    3    3    0    0  0.11806490599E+00 -0.36623926628E+01 -0.31527908435E+00  0.36778336340E+01  0.00000000000E+00 0.  1.
</event>
<event>
 7    1  0.8697654E-014  0.5052884E+02  0.7816164E-02  0.1300439E+00
        -11   -1    0    0    0    0  0.00000000000E+00  0.00000000000E+00  0.45593999997E+02  0.45594000000E+02  0.51100000000E-03 0. -1.
         11   -1    0    0    0    0 -0.00000000000E+00 -0.00000000000E+00 -0.45593999997E+02  0.45594000000E+02  0.51100000000E-03 0.  1.
    9900012    2    1    2    0    0  0.24859891679E+02 -0.15550674746E+02 -0.28166107500E+02  0.50528839764E+02  0.29999938948E+02 0.  0.
         12    1    1    2    0    0 -0.24859891679E+02  0.15550674746E+02  0.28166107500E+02  0.40659160236E+02  0.00000000000E+00 0. -1.
         11    1    3    3    0    0 -0.19975955936E+01  0.28185440072E+01 -0.25847174070E+01  0.43145501285E+01  0.51100000000E-03 0. -1.
        -11    1    3    3    0    0  0.73930012781E+01 -0.71023748292E+01 -0.20846720457E+02  0.23231141819E+02  0.51100000000E-03 0.  1.
         12    1    3    3    0    0  0.19464485994E+02 -0.11266843924E+02 -0.47346696361E+01  0.22983147817E+02  0.00000000000E+00 0. -1.
</event>
<event>
 7    1  0.8697654E-014  0.5052886E+02  0.7816164E-02  0.1300439E+00
        -11   -1    0    0    0    0  0.00000000000E+00  0.00000000000E+00  0.45593999997E+02  0.45594000000E+02  0.51100000000E-03 0. -1.
         11   -1    0    0    0    0 -0.00000000000E+00 -0.00000000000E+00 -0.45593999997E+02  0.45594000000E+02  0.51100000000E-03 0.  1.
    9900012    2    1    2    0    0 -0.11043108884E+02 -0.26831547154E+02  0.28483036845E+02  0.50528861244E+02  0.30000004236E+02 0.  0.
        -12    1    1    2    0    0  0.11043108884E+02  0.26831547154E+02 -0.28483036845E+02  0.40659138756E+02  0.00000000000E+00 0.  1.
         11    1    3    3    0    0  0.21332091481E+01 -0.81528805952E+01 -0.13647115423E+01  0.85371237032E+01  0.51100000000E-03 0. -1.
        -11    1    3    3    0    0 -0.61321243651E+01  0.29273135454E+01  0.74687892774E+01  0.10097273263E+02  0.51100000000E-03 0.  1.
         12    1    3    3    0    0 -0.70441936674E+01 -0.21605980104E+02  0.22378959110E+02  0.31894464277E+02  0.00000000000E+00 0. -1.
</event>
<event>
 7    1  0.8697654E-014  0.5052887E+02  0.7816164E-02  0.1300439E+00
        -11   -1    0    0    0    0  0.00000000000E+00  0.00000000000E+00  0.45593999997E+02  0.45594000000E+02  0.51100000000E-03 0. -1.
         11   -1    0    0    0    0 -0.00000000000E+00 -0.00000000000E+00 -0.45593999997E+02  0.45594000000E+02  0.51100000000E-03 0.  1.
    9900012    2    1    2    0    0  0.55415115758E+01 -0.25478300408E+02  0.31197962037E+02  0.50528868462E+02  0.30000026176E+02 0.  0.
        -12    1    1    2    0    0 -0.55415115758E+01  0.25478300408E+02 -0.31197962037E+02  0.40659131538E+02  0.00000000000E+00 0.  1.
         11    1    3    3    0    0  0.12571089843E+02 -0.25670413063E+01  0.17903883998E+02  0.22026598997E+02  0.51100000000E-03 0.  1.
        -11    1    3    3    0    0  0.14095651163E+01 -0.63426533522E+01  0.46946849653E+01  0.80159960422E+01  0.51100000000E-03 0. -1.
        -12    1    3    3    0    0 -0.84391433832E+01 -0.16568605749E+02  0.85993930732E+01  0.20486273422E+02  0.00000000000E+00 0.  1.
</event>
<event>
 7    1  0.8697654E-014  0.5052885E+02  0.7816164E-02  0.1300439E+00
        -11   -1    0    0    0    0  0.00000000000E+00  0.00000000000E+00  0.45593999997E+02  0.45594000000E+02  0.51100000000E-03 0. -1.
         11   -1    0    0    0    0 -0.00000000000E+00 -0.00000000000E+00 -0.45593999997E+02  0.45594000000E+02  0.51100000000E-03 0.  1.
    9900012    2    1    2    0    0  0.61246402860E+01 -0.11773150767E+01  0.40177968406E+02  0.50528850542E+02  0.29999971707E+02 0.  0.
        -12    1    1    2    0    0 -0.61246402860E+01  0.11773150767E+01 -0.40177968406E+02  0.40659149458E+02  0.00000000000E+00 0.  1.
         11    1    3    3    0    0  0.13708174658E+02  0.34802595752E+01  0.27169795474E+02  0.30630443117E+02  0.51100000000E-03 0. -1.
        -11    1    3    3    0    0 -0.22798133944E+00  0.29391506923E+00 -0.22340066024E+01  0.22647620890E+01  0.51100000000E-03 0.  1.
        -12    1    3    3    0    0 -0.73555530328E+01 -0.49514897211E+01  0.15242179535E+02  0.17633645336E+02  0.00000000000E+00 0.  1.
</event>
<event>
 7    1  0.8697654E-014  0.5052886E+02  0.7816164E-02  0.1300439E+00
        -11   -1    0    0    0    0  0.00000000000E+00  0.00000000000E+00  0.45593999997E+02  0.45594000000E+02  0.51100000000E-03 0. -1.
         11   -1    0    0    0    0 -0.00000000000E+00 -0.00000000000E+00 -0.45593999997E+02  0.45594000000E+02  0.51100000000E-03 0.  1.
    9900012    2    1    2    0    0  0.77462740239E+01 -0.83636959526E+01 -0.39028313543E+02  0.50528862905E+02  0.30000009287E+02 0.  0.
         12    1    1    2    0    0 -0.77462740239E+01  0.83636959526E+01  0.39028313543E+02  0.40659137095E+02  0.00000000000E+00 0. -1.
         11    1    3    3    0    0  0.16224572581E+02 -0.59285164195E+00 -0.19714232694E+02  0.25538974127E+02  0.51100000000E-03 0. -1.
        -11    1    3    3    0    0  0.87438246266E+00  0.16288487264E+01 -0.56705908787E+01  0.59643351716E+01  0.51100000000E-03 0.  1.
         12    1    3    3    0    0 -0.93526810199E+01 -0.93996930371E+01 -0.13643489971E+02  0.19025553606E+02  0.00000000000E+00 0. -1.
</event>
<event>
 7    1  0.8697654E-014  0.5052886E+02  0.7816164E-02  0.1300439E+00
        -11   -1    0    0    0    0  0.00000000000E+00  0.00000000000E+00  0.45593999997E+02  0.45594000000E+02  0.51100000000E-03 0. -1.
         11   -1    0    0    0    0 -0.00000000000E+00 -0.00000000000E+00 -0.45593999997E+02  0.45594000000E+02  0.51100000000E-03 0.  1.
    9900012    2    1    2    0    0  0.22380181160E+02 -0.31479106841E+02  0.12702731385E+02  0.50528855138E+02  0.29999985677E+02 0.  0.
        -12    1    1    2    0    0 -0.22380181160E+02  0.31479106841E+02 -0.12702731385E+02  0.40659144862E+02  0.00000000000E+00 0.  1.
         11    1    3    3    0    0 -0.28253577464E+01 -0.12403922999E+02  0.29984205638E+01  0.13070213399E+02  0.51100000000E-03 0. -1.
        -11    1    3    3    0    0  0.17607545431E+02 -0.10864162263E+02 -0.25730445531E+01  0.20848890530E+02  0.51100000000E-03 0.  1.
         12    1    3    3    0    0  0.75979934759E+01 -0.82110215783E+01  0.12277355375E+02  0.16609751209E+02  0.00000000000E+00 0. -1.
</event>
<event>
 7    1  0.8697654E-014  0.5052882E+02  0.7816164E-02  0.1300439E+00
        -11   -1    0    0    0    0  0.00000000000E+00  0.00000000000E+00  0.45593999997E+02  0.45594000000E+02  0.51100000000E-03 0.  1.
         11   -1    0    0    0    0 -0.00000000000E+00 -0.00000000000E+00 -0.45593999997E+02  0.45594000000E+02  0.51100000000E-03 0. -1.
    9900012    2    1    2    0    0 -0.34707465224E+02 -0.70040769762E+01  0.19987588469E+02  0.50528819863E+02  0.29999878457E+02 0.  0.
        -12    1    1    2    0    0  0.34707465224E+02  0.70040769762E+01 -0.19987588469E+02  0.40659180137E+02  0.00000000000E+00 0.  1.
         11    1    3    3    0    0  0.23292481889E+01 -0.20767885977E+01 -0.27201832275E+01  0.41397880450E+01  0.51100000000E-03 0. -1.
        -11    1    3    3    0    0 -0.11298979704E+02  0.20045292897E+01  0.16000167034E+00  0.11476527385E+02  0.51100000000E-03 0.  1.
        -12    1    3    3    0    0 -0.25737733709E+02 -0.69318176682E+01  0.22547770026E+02  0.34912504433E+02  0.00000000000E+00 0.  1.
</event>
<event>
 7    1  0.8697654E-014  0.5052887E+02  0.7816164E-02  0.1300439E+00
        -11   -1    0    0    0    0  0.00000000000E+00  0.00000000000E+00  0.45593999997E+02  0.45594000000E+02  0.51100000000E-03 0. -1.
         11   -1    0    0    0    0 -0.00000000000E+00 -0.00000000000E+00 -0.45593999997E+02  0.45594000000E+02  0.51100000000E-03 0.  1.
    9900012    2    1    2    0    0 -0.22089671071E+02 -0.30801229780E+02  0.14713782101E+02  0.50528871779E+02  0.30000036259E+02 0.  0.
        -12    1    1    2    0    0  0.22089671071E+02  0.30801229780E+02 -0.14713782101E+02  0.40659128221E+02  0.00000000000E+00 0.  1.
         11    1    3    3    0    0 -0.54768054792E+01 -0.30018631632E+01  0.16268421822E+01  0.64539287612E+01  0.51100000000E-03 0. -1.
        -11    1    3    3    0    0  0.30918445806E+01  0.20531650844E+01  0.68146300951E+01  0.77597792087E+01  0.51100000000E-03 0.  1.
        -12    1    3    3    0    0 -0.19704710172E+02 -0.29852531701E+02  0.62723098237E+01  0.36315163809E+02  0.00000000000E+00 0.  1.
</event>
<event>
 7    1  0.8697654E-014  0.5052886E+02  0.7816164E-02  0.1300439E+00
        -11   -1    0    0    0    0  0.00000000000E+00  0.00000000000E+00  0.45593999997E+02  0.45594000000E+02  0.51100000000E-03 0.  1.
         11   -1    0    0    0    0 -0.00000000000E+00 -0.00000000000E+00 -0.45593999997E+02  0.45594000000E+02  0.51100000000E-03 0. -1.
    9900012    2    1    2    0    0 -0.15362478213E+02  0.36342324497E+02 -0.98180944032E+01  0.50528864933E+02  0.30000015450E+02 0.  0.
        -12    1    1    2    0    0  0.15362478213E+02 -0.36342324497E+02  0.98180944032E+01  0.40659135067E+02  0.00000000000E+00 0.  1.
         11    1    3    3    0    0 -0.52162999846E+01  0.13631016468E+01  0.39413234975E+01  0.66784626077E+01  0.51100000000E-03 0. -1.
        -11    1    3    3    0    0  0.58700404440E+01  0.57967699431E+01 -0.15554591934E+01  0.83951992324E+01  0.51100000000E-03 0.  1.
         12    1    3    3    0    0 -0.16016218672E+02  0.29182452907E+02 -0.12203958707E+02  0.35455203093E+02  0.00000000000E+00 0. -1.
</event>
<event>
 7    1  0.8697654E-014  0.5052886E+02  0.7816164E-02  0.1300439E+00
        -11   -1    0    0    0    0  0.00000000000E+00  0.00000000000E+00  0.45593999997E+02  0.45594000000E+02  0.51100000000E-03 0.  1.
         11   -1    0    0    0    0 -0.00000000000E+00 -0.00000000000E+00 -0.45593999997E+02  0.45594000000E+02  0.51100000000E-03 0. -1.
    9900012    2    1    2    0    0  0.21227375853E+02 -0.32154944881E+02 -0.12985520071E+02  0.50528859608E+02  0.29999999265E+02 0.  0.
         12    1    1    2    0    0 -0.21227375853E+02  0.32154944881E+02  0.12985520071E+02  0.40659140392E+02  0.00000000000E+00 0. -1.
         11    1    3    3    0    0 -0.44217863810E+01 -0.10064626992E+02  0.16688637782E+01  0.11119083499E+02  0.51100000000E-03 0. -1.
        -11    1    3    3    0    0  0.65417223814E+00 -0.20644767318E+01  0.23100917076E+01  0.31664695565E+01  0.51100000000E-03 0.  1.
        -12    1    3    3    0    0  0.24994989996E+02 -0.20025841157E+02 -0.16964475557E+02  0.36243306552E+02  0.00000000000E+00 0.  1.
</event>
<event>
 7    1  0.8697654E-014  0.5052886E+02  0.7816164E-02  0.1300439E+00
        -11   -1    0    0    0    0  0.00000000000E+00  0.00000000000E+00  0.45593999997E+02  0.45594000000E+02  0.51100000000E-03 0. -1.
         11   -1    0    0    0    0 -0.00000000000E+00 -0.00000000000E+00 -0.45593999997E+02  0.45594000000E+02  0.51100000000E-03 0.  1.
    9900012    2    1    2    0    0  0.51870461710E+01  0.23352076940E+02 -0.32877664588E+02  0.50528858665E+02  0.29999996398E+02 0.  0.
         12    1    1    2    0    0 -0.51870461710E+01 -0.23352076940E+02  0.32877664588E+02  0.40659141335E+02  0.00000000000E+00 0. -1.
         11    1    3    3    0    0  0.32154059237E+01  0.35760865572E+01 -0.73833572965E+01  0.88114241498E+01  0.51100000000E-03 0.  1.
        -11    1    3    3    0    0 -0.97962926224E+01  0.46691692597E+00 -0.42422356262E+01  0.10685594224E+02  0.51100000000E-03 0. -1.
         12    1    3    3    0    0  0.11767932870E+02  0.19309073457E+02 -0.21252071665E+02  0.31031840291E+02  0.00000000000E+00 0. -1.
</event>
<event>
 7    1  0.8697654E-014  0.5052885E+02  0.7816164E-02  0.1300439E+00
        -11   -1    0    0    0    0  0.00000000000E+00  0.00000000000E+00  0.45593999997E+02  0.45594000000E+02  0.51100000000E-03 0. -1.
         11   -1    0    0    0    0 -0.00000000000E+00 -0.00000000000E+00 -0.45593999997E+02  0.45594000000E+02  0.51100000000E-03 0.  1.
    9900012    2    1    2    0    0 -0.30991768838E+02  0.24423060228E+02 -0.98076885889E+01  0.50528851435E+02  0.29999974421E+02 0.  0.
         12    1    1    2    0    0  0.30991768838E+02 -0.24423060228E+02  0.98076885889E+01  0.40659148565E+02  0.00000000000E+00 0. -1.
         11    1    3    3    0    0 -0.82033372051E+01 -0.21031398280E+01  0.45879867602E+01  0.96315918316E+01  0.51100000000E-03 0. -1.
        -11    1    3    3    0    0 -0.10110607867E+02  0.26075656899E+01 -0.78037531227E+01  0.13035426856E+02  0.51100000000E-03 0.  1.
        -12    1    3    3    0    0 -0.12677823766E+02  0.23918634366E+02 -0.65919222264E+01  0.27861832747E+02  0.00000000000E+00 0.  1.
</event>
<event>
 7    1  0.8697654E-014  0.5052886E+02  0.7816164E-02  0.1300439E+00
        -11   -1    0    0    0    0  0.00000000000E+00  0.00000000000E+00  0.45593999997E+02  0.45594000000E+02  0.51100000000E-03 0. -1.
         11   -1    0    0    0    0 -0.00000000000E+00 -0.00000000000E+00 -0.45593999997E+02  0.45594000000E+02  0.51100000000E-03 0.  1.
    9900012    2    1    2    0    0  0.15762455956E+02  0.29849931785E+02  0.22664779288E+02  0.50528860000E+02  0.30000000457E+02 0.  0.
        -12    1    1    2    0    0 -0.15762455956E+02 -0.29849931785E+02 -0.22664779288E+02  0.40659140000E+02  0.00000000000E+00 0.  1.
         11    1    3    3    0    0  0.14615608374E+01 -0.18635995348E+00  0.10839054788E+02  0.10938738459E+02  0.51100000000E-03 0. -1.
        -11    1    3    3    0    0  0.10307653097E+02  0.10100551739E+02  0.12722254947E+02  0.19238623365E+02  0.51100000000E-03 0.  1.
        -12    1    3    3    0    0  0.39932420217E+01  0.19935740000E+02 -0.89653044690E+00  0.20351498176E+02  0.00000000000E+00 0.  1.
</event>
<event>
 7    1  0.8697654E-014  0.5052886E+02  0.7816164E-02  0.1300439E+00
        -11   -1    0    0    0    0  0.00000000000E+00  0.00000000000E+00  0.45593999997E+02  0.45594000000E+02  0.51100000000E-03 0. -1.
         11   -1    0    0    0    0 -0.00000000000E+00 -0.00000000000E+00 -0.45593999997E+02  0.45594000000E+02  0.51100000000E-03 0.  1.
    9900012    2    1    2    0    0  0.20173511947E+02  0.22269651205E+02  0.27390829873E+02  0.50528861911E+02  0.30000006264E+02 0.  0.
        -12    1    1    2    0    0 -0.20173511947E+02 -0.22269651205E+02 -0.27390829873E+02  0.40659138089E+02  0.00000000000E+00 0.  1.
         11    1    3    3    0    0 -0.12705986184E+01 -0.41995038183E+00  0.91911373660E+01  0.92880453010E+01  0.51100000000E-03 0.  1.
        -11    1    3    3    0    0  0.23206933823E+02  0.11928471263E+02  0.13273178820E+02  0.29275031689E+02  0.51100000000E-03 0. -1.
         12    1    3    3    0    0 -0.17628232572E+01  0.10761130323E+02  0.49265136872E+01  0.11965784921E+02  0.00000000000E+00 0. -1.
</event>
<event>
 7    1  0.8697654E-014  0.5052888E+02  0.7816164E-02  0.1300439E+00
        -11   -1    0    0    0    0  0.00000000000E+00  0.00000000000E+00  0.45593999997E+02  0.45594000000E+02  0.51100000000E-03 0. -1.
         11   -1    0    0    0    0 -0.00000000000E+00 -0.00000000000E+00 -0.45593999997E+02  0.45594000000E+02  0.51100000000E-03 0.  1.
    9900012    2    1    2    0    0 -0.24010242458E+02  0.11927918884E+02  0.30567914932E+02  0.50528875378E+02  0.30000047198E+02 0.  0.
        -12    1    1    2    0    0  0.24010242458E+02 -0.11927918884E+02 -0.30567914932E+02  0.40659124622E+02  0.00000000000E+00 0.  1.
         11    1    3    3    0    0  0.10572104217E+01  0.60217091498E+01  0.12146958051E+02  0.13598796458E+02  0.51100000000E-03 0.  1.
        -11    1    3    3    0    0 -0.87779686248E+01  0.33290958288E+01 -0.30365630432E+01  0.98669310118E+01  0.51100000000E-03 0. -1.
         12    1    3    3    0    0 -0.16289484255E+02  0.25771139049E+01  0.21457519924E+02  0.27063147907E+02  0.00000000000E+00 0. -1.
</event>
<event>
 7    1  0.8697654E-014  0.5052886E+02  0.7816164E-02  0.1300439E+00
        -11   -1    0    0    0    0  0.00000000000E+00  0.00000000000E+00  0.45593999997E+02  0.45594000000E+02  0.51100000000E-03 0. -1.
         11   -1    0    0    0    0 -0.00000000000E+00 -0.00000000000E+00 -0.45593999997E+02  0.45594000000E+02  0.51100000000E-03 0.  1.
    9900012    2    1    2    0    0 -0.10440352051E+02  0.70681152609E+01 -0.38654968159E+02  0.50528858744E+02  0.29999996637E+02 0.  0.
         12    1    1    2    0    0  0.10440352051E+02 -0.70681152609E+01  0.38654968159E+02  0.40659141256E+02  0.00000000000E+00 0. -1.
         11    1    3    3    0    0 -0.56988611952E+01  0.81343581789E+01 -0.40709625740E+01  0.10733943285E+02  0.51100000000E-03 0.  1.
        -11    1    3    3    0    0 -0.33705390698E+01 -0.36000701326E+01  0.15751263746E+00  0.49341513022E+01  0.51100000000E-03 0. -1.
        -12    1    3    3    0    0 -0.13709517863E+01  0.25338272147E+01 -0.34741518223E+02  0.34860764157E+02  0.00000000000E+00 0.  1.
</event>
<event>
 7    1  0.8697654E-014  0.5052881E+02  0.7816164E-02  0.1300439E+00
        -11   -1    0    0    0    0  0.00000000000E+00  0.00000000000E+00  0.45593999997E+02  0.45594000000E+02  0.51100000000E-03 0. -1.
         11   -1    0    0    0    0 -0.00000000000E+00 -0.00000000000E+00 -0.45593999997E+02  0.45594000000E+02  0.51100000000E-03 0.  1.
    9900012    2    1    2    0    0  0.28027540212E+02  0.27480386553E+02 -0.10604465438E+02  0.50528814781E+02  0.29999863009E+02 0.  0.
         12    1    1    2    0    0 -0.28027540212E+02 -0.27480386553E+02  0.10604465438E+02  0.40659185219E+02  0.00000000000E+00 0. -1.
         11    1    3    3    0    0  0.12273478937E+02  0.23650350062E+02 -0.56372763992E+00  0.26651362674E+02  0.51100000000E-03 0. -1.
        -11    1    3    3    0    0  0.67595039307E+01  0.69243217757E+01 -0.10595611951E+02  0.14349359509E+02  0.51100000000E-03 0.  1.
        -12    1    3    3    0    0  0.89945573445E+01 -0.30942852848E+01  0.55487415253E+00  0.95280925989E+01  0.00000000000E+00 0.  1.
</event>
<event>
 7    1  0.8697654E-014  0.5052887E+02  0.7816164E-02  0.1300439E+00
        -11   -1    0    0    0    0  0.00000000000E+00  0.00000000000E+00  0.45593999997E+02  0.45594000000E+02  0.51100000000E-03 0.  1.
         11   -1    0    0    0    0 -0.00000000000E+00 -0.00000000000E+00 -0.45593999997E+02  0.45594000000E+02  0.51100000000E-03 0. -1.
    9900012    2    1    2    0    0  0.36837626289E+02  0.30338904909E+00 -0.17206465688E+02  0.50528865516E+02  0.30000017223E+02 0.  0.
         12    1    1    2    0    0 -0.36837626289E+02 -0.30338904909E+00  0.17206465688E+02  0.40659134484E+02  0.00000000000E+00 0. -1.
         11    1    3    3    0    0  0.83319459555E+01 -0.85378536023E+01 -0.13469920030E+02  0.17993193530E+02  0.51100000000E-03 0. -1.
        -11    1    3    3    0    0  0.21898788355E+02  0.44693807049E+01 -0.77486197474E+01  0.23655303920E+02  0.51100000000E-03 0.  1.
         12    1    3    3    0    0  0.66068919786E+01  0.43718619466E+01  0.40120740892E+01  0.88803680664E+01  0.00000000000E+00 0. -1.
</event>
<event>
 7    1  0.8697654E-014  0.5052886E+02  0.7816164E-02  0.1300439E+00
        -11   -1    0    0    0    0  0.00000000000E+00  0.00000000000E+00  0.45593999997E+02  0.45594000000E+02  0.51100000000E-03 0. -1.
         11   -1    0    0    0    0 -0.00000000000E+00 -0.00000000000E+00 -0.45593999997E+02  0.45594000000E+02  0.51100000000E-03 0.  1.
    9900012    2    1    2    0    0  0.12854626120E+02 -0.18518553309E+01  0.38529143682E+02  0.50528859653E+02  0.29999999402E+02 0.  0.
        -12    1    1    2    0    0 -0.12854626120E+02  0.18518553309E+01 -0.38529143682E+02  0.40659140347E+02  0.00000000000E+00 0.  1.
         11    1    3    3    0    0  0.94327456551E+01  0.28191007297E+01  0.84545620803E+01  0.12977042797E+02  0.51100000000E-03 0. -1.
        -11    1    3    3    0    0  0.24969641846E+01 -0.29460596980E+01 -0.27042787446E+01  0.47145754499E+01  0.51100000000E-03 0.  1.
         12    1    3    3    0    0  0.92491628002E+00 -0.17248963626E+01  0.32778860346E+02  0.32837241407E+02  0.00000000000E+00 0. -1.
</event>
<event>
 7    1  0.8697654E-014  0.5052895E+02  0.7816164E-02  0.1300438E+00
        -11   -1    0    0    0    0  0.00000000000E+00  0.00000000000E+00  0.45593999997E+02  0.45594000000E+02  0.51100000000E-03 0. -1.
         11   -1    0    0    0    0 -0.00000000000E+00 -0.00000000000E+00 -0.45593999997E+02  0.45594000000E+02  0.51100000000E-03 0.  1.
    9900012    2    1    2    0    0  0.10369308192E+02  0.32171085358E+02 -0.22597715518E+02  0.50528953871E+02  0.30000285784E+02 0.  0.
         12    1    1    2    0    0 -0.10369308192E+02 -0.32171085358E+02  0.22597715518E+02  0.40659046129E+02  0.00000000000E+00 0. -1.
         11    1    3    3    0    0  0.26230556060E+01 -0.18143188655E+01 -0.51293842448E+00  0.32303683608E+01  0.51100000000E-03 0. -1.
        -11    1    3    3    0    0  0.10179476717E+02  0.20606008613E+02 -0.20364227992E+01  0.23073282282E+02  0.51100000000E-03 0.  1.
         12    1    3    3    0    0 -0.24332241303E+01  0.13379395611E+02 -0.20048354294E+02  0.24225303228E+02  0.00000000000E+00 0. -1.
</event>
<event>
 7    1  0.8697654E-014  0.5052885E+02  0.7816164E-02  0.1300439E+00
        -11   -1    0    0    0    0  0.00000000000E+00  0.00000000000E+00  0.45593999997E+02  0.45594000000E+02  0.51100000000E-03 0. -1.
         11   -1    0    0    0    0 -0.00000000000E+00 -0.00000000000E+00 -0.45593999997E+02  0.45594000000E+02  0.51100000000E-03 0.  1.
    9900012    2    1    2    0    0 -0.60235307666E+00 -0.18987745093E+01 -0.40610319945E+02  0.50528852691E+02  0.29999978239E+02 0.  0.
         12    1    1    2    0    0  0.60235307666E+00  0.18987745093E+01  0.40610319945E+02  0.40659147309E+02  0.00000000000E+00 0. -1.
         11    1    3    3    0    0 -0.67707782848E+00 -0.33643625983E+01 -0.13022966367E+01  0.36706057906E+01  0.51100000000E-03 0. -1.
        -11    1    3    3    0    0 -0.47440172845E+01 -0.53406505150E+01 -0.49621547611E+00  0.71606199437E+01  0.51100000000E-03 0.  1.
         12    1    3    3    0    0  0.48187420363E+01  0.68062386040E+01 -0.38811807832E+02  0.39697626956E+02  0.00000000000E+00 0. -1.
</event>
<event>
 7    1  0.8697654E-014  0.5052886E+02  0.7816164E-02  0.1300439E+00
        -11   -1    0    0    0    0  0.00000000000E+00  0.00000000000E+00  0.45593999997E+02  0.45594000000E+02  0.51100000000E-03 0.  1.
         11   -1    0    0    0    0 -0.00000000000E+00 -0.00000000000E+00 -0.45593999997E+02  0.45594000000E+02  0.51100000000E-03 0. -1.
    9900012    2    1    2    0    0  0.59406345376E+01 -0.38672676969E+02 -0.11058866595E+02  0.50528860646E+02  0.30000002420E+02 0.  0.
         12    1    1    2    0    0 -0.59406345376E+01  0.38672676969E+02  0.11058866595E+02  0.40659139354E+02  0.00000000000E+00 0. -1.
         11    1    3    3    0    0  0.67270352381E+01 -0.45609207554E+01 -0.74785969526E+00  0.81617581205E+01  0.51100000000E-03 0. -1.
        -11    1    3    3    0    0 -0.16260834268E+01 -0.56171430131E+01  0.69177760544E+01  0.90582596971E+01  0.51100000000E-03 0.  1.
        -12    1    3    3    0    0  0.83968272625E+00 -0.28494613200E+02 -0.17228782954E+02  0.33308842829E+02  0.00000000000E+00 0.  1.
</event>
<event>
 7    1  0.8697654E-014  0.5052883E+02  0.7816164E-02  0.1300439E+00
        -11   -1    0    0    0    0  0.00000000000E+00  0.00000000000E+00  0.45593999997E+02  0.45594000000E+02  0.51100000000E-03 0. -1.
         11   -1    0    0    0    0 -0.00000000000E+00 -0.00000000000E+00 -0.45593999997E+02  0.45594000000E+02  0.51100000000E-03 0.  1.
    9900012    2    1    2    0    0  0.22573615615E+02 -0.18311000493E+02 -0.28430738726E+02  0.50528834176E+02  0.29999921962E+02 0.  0.
         12    1    1    2    0    0 -0.22573615615E+02  0.18311000493E+02  0.28430738726E+02  0.40659165824E+02  0.00000000000E+00 0. -1.
         11    1    3    3    0    0  0.45416725300E+01 -0.55461105725E+01  0.39599206185E+01  0.81894507397E+01  0.51100000000E-03 0.  1.
        -11    1    3    3    0    0 -0.32963959710E+00 -0.70340849664E+01 -0.14271046343E+02  0.15913823474E+02  0.51100000000E-03 0. -1.
        -12    1    3    3    0    0  0.18361582682E+02 -0.57308049538E+01 -0.18119613002E+02  0.26425559962E+02  0.00000000000E+00 0.  1.
</event>
<event>
 7    1  0.8697654E-014  0.5052886E+02  0.7816164E-02  0.1300439E+00
        -11   -1    0    0    0    0  0.00000000000E+00  0.00000000000E+00  0.45593999997E+02  0.45594000000E+02  0.51100000000E-03 0. -1.
         11   -1    0    0    0    0 -0.00000000000E+00 -0.00000000000E+00 -0.45593999997E+02  0.45594000000E+02  0.51100000000E-03 0.  1.
    9900012    2    1    2    0    0 -0.10095776687E+02  0.75006369022E+01 -0.38664992933E+02  0.50528856632E+02  0.29999990220E+02 0.  0.
         12    1    1    2    0    0  0.10095776687E+02 -0.75006369022E+01  0.38664992933E+02  0.40659143368E+02  0.00000000000E+00 0. -1.
         11    1    3    3    0    0 -0.74130684959E+01 -0.85816090969E+00  0.13645149828E+01  0.75862985751E+01  0.51100000000E-03 0. -1.
        -11    1    3    3    0    0  0.43104306655E+01  0.22104275211E+01 -0.62751698736E+01  0.79273929858E+01  0.51100000000E-03 0.  1.
         12    1    3    3    0    0 -0.69931388568E+01  0.61483702908E+01 -0.33754338042E+02  0.35015165071E+02  0.00000000000E+00 0. -1.
</event>
<event>
 7    1  0.8697654E-014  0.5052886E+02  0.7816164E-02  0.1300439E+00
        -11   -1    0    0    0    0  0.00000000000E+00  0.00000000000E+00  0.45593999997E+02  0.45594000000E+02  0.51100000000E-03 0. -1.
         11   -1    0    0    0    0 -0.00000000000E+00 -0.00000000000E+00 -0.45593999997E+02  0.45594000000E+02  0.51100000000E-03 0.  1.
    9900012    2    1    2    0    0  0.38568260897E+02 -0.10960259053E+02 -0.67474141012E+01  0.50528860508E+02  0.30000002001E+02 0.  0.
         12    1    1    2    0    0 -0.38568260897E+02  0.10960259053E+02  0.67474141012E+01  0.40659139492E+02  0.00000000000E+00 0. -1.
         11    1    3    3    0    0  0.12934775628E+02 -0.96479294166E+01  0.27934297344E+01  0.16376636178E+02  0.51100000000E-03 0.  1.
        -11    1    3    3    0    0  0.46392371306E+01  0.66650071350E+01  0.27207149230E+01  0.85642939707E+01  0.51100000000E-03 0. -1.
        -12    1    3    3    0    0  0.20994248139E+02 -0.79773367713E+01 -0.12261558759E+02  0.25587930359E+02  0.00000000000E+00 0.  1.
</event>
<event>
 7    1  0.8697654E-014  0.5052886E+02  0.7816164E-02  0.1300439E+00
        -11   -1    0    0    0    0  0.00000000000E+00  0.00000000000E+00  0.45593999997E+02  0.45594000000E+02  0.51100000000E-03 0. -1.
         11   -1    0    0    0    0 -0.00000000000E+00 -0.00000000000E+00 -0.45593999997E+02  0.45594000000E+02  0.51100000000E-03 0.  1.
    9900012    2    1    2    0    0  0.96473953941E+00 -0.32422505175E+01  0.40518174341E+02  0.50528863724E+02  0.30000011775E+02 0.  0.
        -12    1    1    2    0    0 -0.96473953941E+00  0.32422505175E+01 -0.40518174341E+02  0.40659136276E+02  0.00000000000E+00 0.  1.
         11    1    3    3    0    0  0.37874221933E+01 -0.55612001437E+01  0.31125469651E+02  0.31844408852E+02  0.51100000000E-03 0. -1.
        -11    1    3    3    0    0  0.15880709968E+01  0.73956880521E+01  0.92615076710E+01  0.11957997151E+02  0.51100000000E-03 0.  1.
        -12    1    3    3    0    0 -0.44107536507E+01 -0.50767384259E+01  0.13119701911E+00  0.67264577208E+01  0.00000000000E+00 0.  1.
</event>
<event>
 7    1  0.8697654E-014  0.5052885E+02  0.7816164E-02  0.1300439E+00
        -11   -1    0    0    0    0  0.00000000000E+00  0.00000000000E+00  0.45593999997E+02  0.45594000000E+02  0.51100000000E-03 0. -1.
         11   -1    0    0    0    0 -0.00000000000E+00 -0.00000000000E+00 -0.45593999997E+02  0.45594000000E+02  0.51100000000E-03 0.  1.
    9900012    2    1    2    0    0 -0.17669296408E+02  0.23350463793E+02 -0.28208473511E+02  0.50528853763E+02  0.29999981499E+02 0.  0.
         12    1    1    2    0    0  0.17669296408E+02 -0.23350463793E+02  0.28208473511E+02  0.40659146237E+02  0.00000000000E+00 0. -1.
         11    1    3    3    0    0 -0.74224800113E+01  0.12594410911E+02 -0.57608050886E+01  0.15713028710E+02  0.51100000000E-03 0. -1.
        -11    1    3    3    0    0 -0.13235267534E+02  0.14096657702E+02 -0.23273695864E+02  0.30258106095E+02  0.51100000000E-03 0.  1.
        -12    1    3    3    0    0  0.29884511375E+01 -0.33406048199E+01  0.82602744165E+00  0.45577189578E+01  0.00000000000E+00 0.  1.
</event>
<event>
 7    1  0.8697654E-014  0.5052886E+02  0.7816164E-02  0.1300439E+00
        -11   -1    0    0    0    0  0.00000000000E+00  0.00000000000E+00  0.45593999997E+02  0.45594000000E+02  0.51100000000E-03 0. -1.
         11   -1    0    0    0    0 -0.00000000000E+00 -0.00000000000E+00 -0.45593999997E+02  0.45594000000E+02  0.51100000000E-03 0.  1.
    9900012    2    1    2    0    0  0.76878766255E+01 -0.38436219100E+01 -0.39740270747E+02  0.50528855943E+02  0.29999988125E+02 0.  0.
         12    1    1    2    0    0 -0.76878766255E+01  0.38436219100E+01  0.39740270747E+02  0.40659144057E+02  0.00000000000E+00 0. -1.
         11    1    3    3    0    0 -0.53740129878E+01 -0.47588255026E+01 -0.25008651717E+02  0.26018437630E+02  0.51100000000E-03 0. -1.
        -11    1    3    3    0    0 -0.42107834821E+00  0.46659065158E+01 -0.78029528842E+00  0.47494053931E+01  0.51100000000E-03 0.  1.
         12    1    3    3    0    0  0.13482967962E+02 -0.37507029232E+01 -0.13951323742E+02  0.19761012920E+02  0.00000000000E+00 0. -1.
</event>
<event>
 7    1  0.8697654E-014  0.5052886E+02  0.7816164E-02  0.1300439E+00
        -11   -1    0    0    0    0  0.00000000000E+00  0.00000000000E+00  0.45593999997E+02  0.45594000000E+02  0.51100000000E-03 0. -1.
         11   -1    0    0    0    0 -0.00000000000E+00 -0.00000000000E+00 -0.45593999997E+02  0.45594000000E+02  0.51100000000E-03 0.  1.
    9900012    2    1    2    0    0  0.15890456706E+02 -0.13978636739E+02  0.34716811149E+02  0.50528857415E+02  0.29999992599E+02 0.  0.
        -12    1    1    2    0    0 -0.15890456706E+02  0.13978636739E+02 -0.34716811149E+02  0.40659142585E+02  0.00000000000E+00 0.  1.
         11    1    3    3    0    0  0.13469047567E+01 -0.84398698946E+01  0.26129076851E+02  0.27491347977E+02  0.51100000000E-03 0.  1.
        -11    1    3    3    0    0  0.73461230555E+01  0.24293901015E+01  0.95105204747E+01  0.12260402121E+02  0.51100000000E-03 0. -1.
        -12    1    3    3    0    0  0.71974288935E+01 -0.79681569456E+01 -0.92278617652E+00  0.10777107317E+02  0.00000000000E+00 0.  1.
</event>
<event>
 7    1  0.8697654E-014  0.5052886E+02  0.7816164E-02  0.1300439E+00
        -11   -1    0    0    0    0  0.00000000000E+00  0.00000000000E+00  0.45593999997E+02  0.45594000000E+02  0.51100000000E-03 0. -1.
         11   -1    0    0    0    0 -0.00000000000E+00 -0.00000000000E+00 -0.45593999997E+02  0.45594000000E+02  0.51100000000E-03 0.  1.
    9900012    2    1    2    0    0 -0.12229159495E+02 -0.21439663763E+01  0.38717137744E+02  0.50528859714E+02  0.29999999585E+02 0.  0.
        -12    1    1    2    0    0  0.12229159495E+02  0.21439663763E+01 -0.38717137744E+02  0.40659140286E+02  0.00000000000E+00 0.  1.
         11    1    3    3    0    0  0.47049332403E+01  0.39255459403E+01  0.97945973274E+01  0.11553373741E+02  0.51100000000E-03 0. -1.
        -11    1    3    3    0    0 -0.13209623385E+02  0.21101647414E+01  0.66106208991E+01  0.14921369044E+02  0.51100000000E-03 0.  1.
        -12    1    3    3    0    0 -0.37244693506E+01 -0.81796770580E+01  0.22311919517E+02  0.24054116929E+02  0.00000000000E+00 0.  1.
</event>
<event>
 7    1  0.8697654E-014  0.5052886E+02  0.7816164E-02  0.1300439E+00
        -11   -1    0    0    0    0  0.00000000000E+00  0.00000000000E+00  0.45593999997E+02  0.45594000000E+02  0.51100000000E-03 0. -1.
         11   -1    0    0    0    0 -0.00000000000E+00 -0.00000000000E+00 -0.45593999997E+02  0.45594000000E+02  0.51100000000E-03 0.  1.
    9900012    2    1    2    0    0 -0.28859395791E+02  0.45700564375E+01 -0.28273931986E+02  0.50528863619E+02  0.30000011457E+02 0.  0.
         12    1    1    2    0    0  0.28859395791E+02 -0.45700564375E+01  0.28273931986E+02  0.40659136381E+02  0.00000000000E+00 0. -1.
         11    1    3    3    0    0 -0.13974152429E+02  0.25066880644E+01  0.94154988451E-01  0.14197509873E+02  0.51100000000E-03 0. -1.
        -11    1    3    3    0    0 -0.74889032191E+00  0.60216497832E+01 -0.24487725176E+01  0.65435151051E+01  0.51100000000E-03 0.  1.
        -12    1    3    3    0    0 -0.14136353040E+02 -0.39582814101E+01 -0.25919314457E+02  0.29787838641E+02  0.00000000000E+00 0.  1.
</event>
<event>
 7    1  0.8697654E-014  0.5052885E+02  0.7816164E-02  0.1300439E+00
        -11   -1    0    0    0    0  0.00000000000E+00  0.00000000000E+00  0.45593999997E+02  0.45594000000E+02  0.51100000000E-03 0. -1.
         11   -1    0    0    0    0 -0.00000000000E+00 -0.00000000000E+00 -0.45593999997E+02  0.45594000000E+02  0.51100000000E-03 0.  1.
    9900012    2    1    2    0    0 -0.68532587287E+01 -0.36476502665E+02  0.16603130559E+02  0.50528851629E+02  0.29999975012E+02 0.  0.
        -12    1    1    2    0    0  0.68532587287E+01  0.36476502665E+02 -0.16603130559E+02  0.40659148371E+02  0.00000000000E+00 0.  1.
         11    1    3    3    0    0 -0.23331978609E+01  0.12980249679E+01  0.58098541974E+01  0.63939883587E+01  0.51100000000E-03 0. -1.
        -11    1    3    3    0    0  0.23904336503E+01 -0.33654565276E+02  0.12371627462E+02  0.35936069670E+02  0.51100000000E-03 0.  1.
         12    1    3    3    0    0 -0.69104945181E+01 -0.41199623570E+01 -0.15783511009E+01  0.81987936007E+01  0.00000000000E+00 0. -1.
</event>
<event>
 7    1  0.8697654E-014  0.5052886E+02  0.7816164E-02  0.1300439E+00
        -11   -1    0    0    0    0  0.00000000000E+00  0.00000000000E+00  0.45593999997E+02  0.45594000000E+02  0.51100000000E-03 0. -1.
         11   -1    0    0    0    0 -0.00000000000E+00 -0.00000000000E+00 -0.45593999997E+02  0.45594000000E+02  0.51100000000E-03 0.  1.
    9900012    2    1    2    0    0 -0.88530837350E+01 -0.28206862563E+02 -0.27913464917E+02  0.50528859442E+02  0.29999998759E+02 0.  0.
         12    1    1    2    0    0  0.88530837350E+01  0.28206862563E+02  0.27913464917E+02  0.40659140558E+02  0.00000000000E+00 0. -1.
         11    1    3    3    0    0  0.51765127435E+01 -0.13271480537E+02 -0.16931322281E+02  0.22126864989E+02  0.51100000000E-03 0. -1.
        -11    1    3    3    0    0 -0.78609904398E+01 -0.70315415273E+01 -0.14364562791E+02  0.17820729821E+02  0.51100000000E-03 0.  1.
         12    1    3    3    0    0 -0.61686060387E+01 -0.79038404985E+01  0.33824201539E+01  0.10581264631E+02  0.00000000000E+00 0. -1.
</event>
<event>
 7    1  0.8697654E-014  0.5052887E+02  0.7816164E-02  0.1300439E+00
        -11   -1    0    0    0    0  0.00000000000E+00  0.00000000000E+00  0.45593999997E+02  0.45594000000E+02  0.51100000000E-03 0. -1.
         11   -1    0    0    0    0 -0.00000000000E+00 -0.00000000000E+00 -0.45593999997E+02  0.45594000000E+02  0.51100000000E-03 0.  1.
    9900012    2    1    2    0    0  0.45600253362E+01  0.14953510435E+02  0.37533496627E+02  0.50528872188E+02  0.30000037501E+02 0.  0.
        -12    1    1    2    0    0 -0.45600253362E+01 -0.14953510435E+02 -0.37533496627E+02  0.40659127812E+02  0.00000000000E+00 0.  1.
         11    1    3    3    0    0  0.29006660743E+01  0.10708562794E+02  0.35406647753E+02  0.37104149177E+02  0.51100000000E-03 0. -1.
        -11    1    3    3    0    0  0.13745966939E+01  0.85045518854E+01  0.28924004770E+01  0.90875133905E+01  0.51100000000E-03 0.  1.
        -12    1    3    3    0    0  0.28476256803E+00 -0.42596042441E+01 -0.76555160211E+00  0.43372096205E+01  0.00000000000E+00 0.  1.
</event>
<event>
 7    1  0.8697654E-014  0.5052886E+02  0.7816164E-02  0.1300439E+00
        -11   -1    0    0    0    0  0.00000000000E+00  0.00000000000E+00  0.45593999997E+02  0.45594000000E+02  0.51100000000E-03 0. -1.
         11   -1    0    0    0    0 -0.00000000000E+00 -0.00000000000E+00 -0.45593999997E+02  0.45594000000E+02  0.51100000000E-03 0.  1.
    9900012    2    1    2    0    0  0.10935152509E+02 -0.21862607013E+02  0.32490219379E+02  0.50528862022E+02  0.30000006601E+02 0.  0.
        -12    1    1    2    0    0 -0.10935152509E+02  0.21862607013E+02 -0.32490219379E+02  0.40659137978E+02  0.00000000000E+00 0.  1.
         11    1    3    3    0    0 -0.19196550098E+01 -0.12964921714E+02  0.34602584857E+01  0.13555355379E+02  0.51100000000E-03 0. -1.
        -11    1    3    3    0    0  0.23573478680E+01  0.34110658469E+01  0.50023569428E+00  0.41764452820E+01  0.51100000000E-03 0.  1.
         12    1    3    3    0    0  0.10497459651E+02 -0.12308751146E+02  0.28529725200E+02  0.32797061360E+02  0.00000000000E+00 0. -1.
</event>
<event>
 7    1  0.8697654E-014  0.5052885E+02  0.7816164E-02  0.1300439E+00
        -11   -1    0    0    0    0  0.00000000000E+00  0.00000000000E+00  0.45593999997E+02  0.45594000000E+02  0.51100000000E-03 0. -1.
         11   -1    0    0    0    0 -0.00000000000E+00 -0.00000000000E+00 -0.45593999997E+02  0.45594000000E+02  0.51100000000E-03 0.  1.
    9900012    2    1    2    0    0 -0.38370786526E+01  0.19314332804E+02  0.35572454155E+02  0.50528854425E+02  0.29999983512E+02 0.  0.
        -12    1    1    2    0    0  0.38370786526E+01 -0.19314332804E+02 -0.35572454155E+02  0.40659145575E+02  0.00000000000E+00 0.  1.
         11    1    3    3    0    0 -0.13514332805E+01  0.11211014753E+02  0.61019457123E+01  0.12835379442E+02  0.51100000000E-03 0. -1.
        -11    1    3    3    0    0 -0.15595043560E+01 -0.64424064448E+01  0.25914908435E+01  0.71170555491E+01  0.51100000000E-03 0.  1.
         12    1    3    3    0    0 -0.92614101604E+00  0.14545724496E+02  0.26879017599E+02  0.30576419434E+02  0.00000000000E+00 0. -1.
</event>
<event>
 7    1  0.8697654E-014  0.5052886E+02  0.7816164E-02  0.1300439E+00
        -11   -1    0    0    0    0  0.00000000000E+00  0.00000000000E+00  0.45593999997E+02  0.45594000000E+02  0.51100000000E-03 0. -1.
         11   -1    0    0    0    0 -0.00000000000E+00 -0.00000000000E+00 -0.45593999997E+02  0.45594000000E+02  0.51100000000E-03 0.  1.
    9900012    2    1    2    0    0 -0.21814195532E+02  0.22414873503E+02  0.25978457329E+02  0.50528856796E+02  0.29999990719E+02 0.  0.
        -12    1    1    2    0    0  0.21814195532E+02 -0.22414873503E+02 -0.25978457329E+02  0.40659143204E+02  0.00000000000E+00 0.  1.
         11    1    3    3    0    0 -0.70212262742E-01  0.64805667308E+01  0.14835932125E+00  0.64826449589E+01  0.51100000000E-03 0. -1.
        -11    1    3    3    0    0  0.24879800814E+01 -0.50839677668E+00  0.10869168353E+02  0.11161869607E+02  0.51100000000E-03 0.  1.
         12    1    3    3    0    0 -0.24231963351E+02  0.16442703549E+02  0.14960929654E+02  0.32884342231E+02  0.00000000000E+00 0. -1.
</event>
<event>
 7    1  0.8697654E-014  0.5052886E+02  0.7816164E-02  0.1300439E+00
        -11   -1    0    0    0    0  0.00000000000E+00  0.00000000000E+00  0.45593999997E+02  0.45594000000E+02  0.51100000000E-03 0. -1.
         11   -1    0    0    0    0 -0.00000000000E+00 -0.00000000000E+00 -0.45593999997E+02  0.45594000000E+02  0.51100000000E-03 0.  1.
    9900012    2    1    2    0    0 -0.15356168888E+02 -0.13392658331E+02  0.35185087484E+02  0.50528860789E+02  0.30000002856E+02 0.  0.
        -12    1    1    2    0    0  0.15356168888E+02  0.13392658331E+02 -0.35185087484E+02  0.40659139211E+02  0.00000000000E+00 0.  1.
         11    1    3    3    0    0 -0.84230701019E+01 -0.52814102465E+01  0.19795828201E+02  0.22152115442E+02  0.51100000000E-03 0. -1.
        -11    1    3    3    0    0 -0.60087269252E+01  0.48306221271E+01  0.13101710888E+02  0.15201793903E+02  0.51100000000E-03 0.  1.
        -12    1    3    3    0    0 -0.92437186130E+00 -0.12941870211E+02  0.22875483941E+01  0.13174951444E+02  0.00000000000E+00 0.  1.
</event>
<event>
 7    1  0.8697654E-014  0.5052886E+02  0.7816164E-02  0.1300439E+00
        -11   -1    0    0    0    0  0.00000000000E+00  0.00000000000E+00  0.45593999997E+02  0.45594000000E+02  0.51100000000E-03 0. -1.
         11   -1    0    0    0    0 -0.00000000000E+00 -0.00000000000E+00 -0.45593999997E+02  0.45594000000E+02  0.51100000000E-03 0.  1.
    9900012    2    1    2    0    0 -0.32456399610E+02  0.12359298108E+02 -0.21142276318E+02  0.50528856216E+02  0.29999988953E+02 0.  0.
         12    1    1    2    0    0  0.32456399610E+02 -0.12359298108E+02  0.21142276318E+02  0.40659143784E+02  0.00000000000E+00 0. -1.
         11    1    3    3    0    0 -0.17054453372E+02  0.18750790268E+02 -0.67689518333E+01  0.26234809408E+02  0.51100000000E-03 0. -1.
        -11    1    3    3    0    0 -0.15799658465E+02 -0.37083684174E+01 -0.97466327311E+01  0.18930875674E+02  0.51100000000E-03 0.  1.
        -12    1    3    3    0    0  0.39771222697E+00 -0.26831237418E+01 -0.46266917539E+01  0.53631711342E+01  0.00000000000E+00 0.  1.
</event>
<event>
 7    1  0.8697654E-014  0.5052886E+02  0.7816164E-02  0.1300439E+00
        -11   -1    0    0    0    0  0.00000000000E+00  0.00000000000E+00  0.45593999997E+02  0.45594000000E+02  0.51100000000E-03 0. -1.
         11   -1    0    0    0    0 -0.00000000000E+00 -0.00000000000E+00 -0.45593999997E+02  0.45594000000E+02  0.51100000000E-03 0.  1.
    9900012    2    1    2    0    0 -0.25102904098E+02  0.11268244887E+02 -0.29933875070E+02  0.50528855719E+02  0.29999987442E+02 0.  0.
         12    1    1    2    0    0  0.25102904098E+02 -0.11268244887E+02  0.29933875070E+02  0.40659144281E+02  0.00000000000E+00 0. -1.
         11    1    3    3    0    0 -0.52867663371E+01  0.46929072110E+01 -0.15799484499E+02  0.17308870185E+02  0.51100000000E-03 0.  1.
        -11    1    3    3    0    0  0.44040596212E+01  0.34730928290E+01 -0.20149639526E+01  0.59597143335E+01  0.51100000000E-03 0. -1.
        -12    1    3    3    0    0 -0.24220197382E+02  0.31022448468E+01 -0.12119426619E+02  0.27260271200E+02  0.00000000000E+00 0.  1.
</event>
<event>
 7    1  0.8697654E-014  0.5052886E+02  0.7816164E-02  0.1300439E+00
        -11   -1    0    0    0    0  0.00000000000E+00  0.00000000000E+00  0.45593999997E+02  0.45594000000E+02  0.51100000000E-03 0. -1.
         11   -1    0    0    0    0 -0.00000000000E+00 -0.00000000000E+00 -0.45593999997E+02  0.45594000000E+02  0.51100000000E-03 0.  1.
    9900012    2    1    2    0    0  0.78643968364E+00 -0.44472940060E+01 -0.40407534615E+02  0.50528858777E+02  0.29999996737E+02 0.  0.
         12    1    1    2    0    0 -0.78643968364E+00  0.44472940060E+01  0.40407534615E+02  0.40659141223E+02  0.00000000000E+00 0. -1.
         11    1    3    3    0    0 -0.26637154657E+01 -0.10814701856E+02 -0.61747232037E+01  0.12735005427E+02  0.51100000000E-03 0. -1.
        -11    1    3    3    0    0  0.35855525727E+01 -0.41229653069E+01 -0.13316311162E+02  0.14393719929E+02  0.51100000000E-03 0.  1.
        -12    1    3    3    0    0 -0.13539742336E+00  0.10490373157E+02 -0.20916500250E+02  0.23400133421E+02  0.00000000000E+00 0.  1.
</event>
<event>
 7    1  0.8697654E-014  0.5052887E+02  0.7816164E-02  0.1300439E+00
        -11   -1    0    0    0    0  0.00000000000E+00  0.00000000000E+00  0.45593999997E+02  0.45594000000E+02  0.51100000000E-03 0.  1.
         11   -1    0    0    0    0 -0.00000000000E+00 -0.00000000000E+00 -0.45593999997E+02  0.45594000000E+02  0.51100000000E-03 0. -1.
    9900012    2    1    2    0    0 -0.72393752579E+01  0.39990175825E+02 -0.12418076556E+01  0.50528870608E+02  0.30000032701E+02 0.  0.
        -12    1    1    2    0    0  0.72393752579E+01 -0.39990175825E+02  0.12418076556E+01  0.40659129392E+02  0.00000000000E+00 0.  1.
         11    1    3    3    0    0  0.70661939934E+01  0.16105050622E+02  0.14109764321E+00  0.17587599662E+02  0.51100000000E-03 0. -1.
        -11    1    3    3    0    0  0.68378256132E+00 -0.84768201702E+00  0.34517587659E+01  0.36194975110E+01  0.51100000000E-03 0.  1.
        -12    1    3    3    0    0 -0.14989351813E+02  0.24732807220E+02 -0.48346640647E+01  0.29321773435E+02  0.00000000000E+00 0.  1.
</event>
<event>
 7    1  0.8697654E-014  0.5052885E+02  0.7816164E-02  0.1300439E+00
        -11   -1    0    0    0    0  0.00000000000E+00  0.00000000000E+00  0.45593999997E+02  0.45594000000E+02  0.51100000000E-03 0. -1.
         11   -1    0    0    0    0 -0.00000000000E+00 -0.00000000000E+00 -0.45593999997E+02  0.45594000000E+02  0.51100000000E-03 0.  1.
    9900012    2    1    2    0    0 -0.28107083821E+02  0.53281712164E+01 -0.28892370071E+02  0.50528848291E+02  0.29999964864E+02 0.  0.
         12    1    1    2    0    0  0.28107083821E+02 -0.53281712164E+01  0.28892370071E+02  0.40659151709E+02  0.00000000000E+00 0. -1.
         11    1    3    3    0    0  0.33169638645E+01  0.50592681126E+01 -0.11214773782E+02  0.12742432827E+02  0.51100000000E-03 0. -1.
        -11    1    3    3    0    0 -0.76301280683E+01  0.28901075379E+01 -0.94247542606E+01  0.12465856130E+02  0.51100000000E-03 0.  1.
         12    1    3    3    0    0 -0.23793919617E+02 -0.26212044340E+01 -0.82528420280E+01  0.25320559333E+02  0.00000000000E+00 0. -1.
</event>
<event>
 7    1  0.8697654E-014  0.5052886E+02  0.7816164E-02  0.1300439E+00
        -11   -1    0    0    0    0  0.00000000000E+00  0.00000000000E+00  0.45593999997E+02  0.45594000000E+02  0.51100000000E-03 0. -1.
         11   -1    0    0    0    0 -0.00000000000E+00 -0.00000000000E+00 -0.45593999997E+02  0.45594000000E+02  0.51100000000E-03 0.  1.
    9900012    2    1    2    0    0  0.33060541937E+02 -0.10157269153E+02 -0.21377470352E+02  0.50528858489E+02  0.29999995862E+02 0.  0.
         12    1    1    2    0    0 -0.33060541937E+02  0.10157269153E+02  0.21377470352E+02  0.40659141511E+02  0.00000000000E+00 0. -1.
         11    1    3    3    0    0  0.19124486681E+01 -0.87611354341E+01 -0.10916487114E+02  0.14127442981E+02  0.51100000000E-03 0. -1.
        -11    1    3    3    0    0  0.14903683921E+02 -0.83116085468E+01 -0.68063796622E+01  0.18371974184E+02  0.51100000000E-03 0.  1.
         12    1    3    3    0    0  0.16244409347E+02  0.69154748280E+01 -0.36546035754E+01  0.18029441323E+02  0.00000000000E+00 0. -1.
</event>
<event>
 7    1  0.8697654E-014  0.5052886E+02  0.7816164E-02  0.1300439E+00
        -11   -1    0    0    0    0  0.00000000000E+00  0.00000000000E+00  0.45593999997E+02  0.45594000000E+02  0.51100000000E-03 0. -1.
         11   -1    0    0    0    0 -0.00000000000E+00 -0.00000000000E+00 -0.45593999997E+02  0.45594000000E+02  0.51100000000E-03 0.  1.
    9900012    2    1    2    0    0 -0.12064043674E+02 -0.14671016607E+02  0.35949766121E+02  0.50528861270E+02  0.30000004318E+02 0.  0.
        -12    1    1    2    0    0  0.12064043674E+02  0.14671016607E+02 -0.35949766121E+02  0.40659138730E+02  0.00000000000E+00 0.  1.
         11    1    3    3    0    0 -0.58719611471E+01 -0.51016016506E+01  0.38198430045E+01  0.86658795257E+01  0.51100000000E-03 0. -1.
        -11    1    3    3    0    0 -0.45408395036E+00 -0.17198715680E+02  0.19038083141E+02  0.25660292734E+02  0.51100000000E-03 0.  1.
         12    1    3    3    0    0 -0.57379985766E+01  0.76293007240E+01  0.13091839976E+02  0.16202689010E+02  0.00000000000E+00 0. -1.
</event>
<event>
 7    1  0.8697654E-014  0.5052887E+02  0.7816164E-02  0.1300439E+00
        -11   -1    0    0    0    0  0.00000000000E+00  0.00000000000E+00  0.45593999997E+02  0.45594000000E+02  0.51100000000E-03 0. -1.
         11   -1    0    0    0    0 -0.00000000000E+00 -0.00000000000E+00 -0.45593999997E+02  0.45594000000E+02  0.51100000000E-03 0.  1.
    9900012    2    1    2    0    0  0.13273640134E+02 -0.83193913852E+01  0.37520172672E+02  0.50528866305E+02  0.30000019622E+02 0.  0.
        -12    1    1    2    0    0 -0.13273640134E+02  0.83193913852E+01 -0.37520172672E+02  0.40659133695E+02  0.00000000000E+00 0.  1.
         11    1    3    3    0    0  0.20090435494E+01 -0.14401072219E+02  0.21264954998E+02  0.25760928718E+02  0.51100000000E-03 0. -1.
        -11    1    3    3    0    0 -0.11745968869E+01 -0.15081324640E+01 -0.10207967371E+01  0.21670642850E+01  0.51100000000E-03 0.  1.
         12    1    3    3    0    0  0.12439193471E+02  0.75898132982E+01  0.17276014411E+02  0.22600873303E+02  0.00000000000E+00 0. -1.
</event>
<event>
 7    1  0.8697654E-014  0.5052884E+02  0.7816164E-02  0.1300439E+00
        -11   -1    0    0    0    0  0.00000000000E+00  0.00000000000E+00  0.45593999997E+02  0.45594000000E+02  0.51100000000E-03 0. -1.
         11   -1    0    0    0    0 -0.00000000000E+00 -0.00000000000E+00 -0.45593999997E+02  0.45594000000E+02  0.51100000000E-03 0.  1.
    9900012    2    1    2    0    0  0.56420479353E+01 -0.14333407806E+02  0.37628284062E+02  0.50528843027E+02  0.29999948866E+02 0.  0.
        -12    1    1    2    0    0 -0.56420479353E+01  0.14333407806E+02 -0.37628284062E+02  0.40659156973E+02  0.00000000000E+00 0.  1.
         11    1    3    3    0    0 -0.74272204366E+01 -0.35467198422E+01  0.40106061529E+01  0.91557515819E+01  0.51100000000E-03 0. -1.
        -11    1    3    3    0    0  0.90424544837E-01  0.41801889158E+01  0.43735990746E+01  0.60506631948E+01  0.51100000000E-03 0.  1.
         12    1    3    3    0    0  0.12978843827E+02 -0.14966876880E+02  0.29244078835E+02  0.35322428251E+02  0.00000000000E+00 0. -1.
</event>
<event>
 7    1  0.1011369E-013  0.5052886E+02  0.7816164E-02  0.1300439E+00
        -11   -1    0    0    0    0  0.00000000000E+00  0.00000000000E+00  0.45593999997E+02  0.45594000000E+02  0.51100000000E-03 0.  1.
         11   -1    0    0    0    0 -0.00000000000E+00 -0.00000000000E+00 -0.45593999997E+02  0.45594000000E+02  0.51100000000E-03 0. -1.
    9900012    2    1    2    0    0  0.28006480141E+02  0.19171441863E+02 -0.22388809752E+02  0.50528856931E+02  0.29999991128E+02 0.  0.
         12    1    1    2    0    0 -0.28006480141E+02 -0.19171441863E+02  0.22388809752E+02  0.40659143069E+02  0.00000000000E+00 0. -1.
         11    1    3    3    0    0  0.19826437537E+02  0.13164673157E+02 -0.25891306101E+02  0.35167541521E+02  0.51100000000E-03 0. -1.
        -11    1    3    3    0    0  0.71869198004E+01  0.60917458488E+01 -0.21152304403E+01  0.96558471291E+01  0.51100000000E-03 0.  1.
         12    1    3    3    0    0  0.99312280296E+00 -0.84977142119E-01  0.56177267899E+01  0.57054682808E+01  0.00000000000E+00 0. -1.
</event>
<event>
 7    1  0.8697654E-014  0.5052885E+02  0.7816164E-02  0.1300439E+00
        -11   -1    0    0    0    0  0.00000000000E+00  0.00000000000E+00  0.45593999997E+02  0.45594000000E+02  0.51100000000E-03 0. -1.
         11   -1    0    0    0    0 -0.00000000000E+00 -0.00000000000E+00 -0.45593999997E+02  0.45594000000E+02  0.51100000000E-03 0.  1.
    9900012    2    1    2    0    0 -0.18291501393E+01 -0.36318152185E+00  0.40616360440E+02  0.50528850643E+02  0.29999972015E+02 0.  0.
        -12    1    1    2    0    0  0.18291501393E+01  0.36318152185E+00 -0.40616360440E+02  0.40659149357E+02  0.00000000000E+00 0.  1.
         11    1    3    3    0    0  0.55489296625E+01  0.26565680979E+01  0.38401409809E+01  0.72522174176E+01  0.51100000000E-03 0. -1.
        -11    1    3    3    0    0 -0.51386971017E+01  0.80151837090E+01  0.26010415922E+02  0.27698215006E+02  0.51100000000E-03 0.  1.
        -12    1    3    3    0    0 -0.22393827001E+01 -0.11034933329E+02  0.10765803537E+02  0.15578418220E+02  0.00000000000E+00 0.  1.
</event>
<event>
 7    1  0.8697654E-014  0.5052885E+02  0.7816164E-02  0.1300439E+00
        -11   -1    0    0    0    0  0.00000000000E+00  0.00000000000E+00  0.45593999997E+02  0.45594000000E+02  0.51100000000E-03 0.  1.
         11   -1    0    0    0    0 -0.00000000000E+00 -0.00000000000E+00 -0.45593999997E+02  0.45594000000E+02  0.51100000000E-03 0. -1.
    9900012    2    1    2    0    0  0.11885408328E+02  0.38841405212E+02 -0.18024873464E+01  0.50528847887E+02  0.29999963636E+02 0.  0.
        -12    1    1    2    0    0 -0.11885408328E+02 -0.38841405212E+02  0.18024873464E+01  0.40659152113E+02  0.00000000000E+00 0.  1.
         11    1    3    3    0    0  0.11857364941E+02  0.26603023435E+02 -0.52179137829E+01  0.29589602628E+02  0.51100000000E-03 0. -1.
        -11    1    3    3    0    0 -0.37223627000E+01  0.11317500356E+02 -0.40091293563E+01  0.12570398436E+02  0.51100000000E-03 0.  1.
         12    1    3    3    0    0  0.37504060874E+01  0.92088142076E+00  0.74245557927E+01  0.83688468221E+01  0.00000000000E+00 0. -1.
</event>
<event>
 7    1  0.8697654E-014  0.5052884E+02  0.7816164E-02  0.1300439E+00
        -11   -1    0    0    0    0  0.00000000000E+00  0.00000000000E+00  0.45593999997E+02  0.45594000000E+02  0.51100000000E-03 0. -1.
         11   -1    0    0    0    0 -0.00000000000E+00 -0.00000000000E+00 -0.45593999997E+02  0.45594000000E+02  0.51100000000E-03 0.  1.
    9900012    2    1    2    0    0  0.13998351033E+02  0.25295639341E+01 -0.38089566562E+02  0.50528836134E+02  0.29999927914E+02 0.  0.
         12    1    1    2    0    0 -0.13998351033E+02 -0.25295639341E+01  0.38089566562E+02  0.40659163866E+02  0.00000000000E+00 0. -1.
         11    1    3    3    0    0  0.69232572495E+01  0.37331627108E+01 -0.45210975958E+01  0.90723932069E+01  0.51100000000E-03 0. -1.
        -11    1    3    3    0    0 -0.59625974165E+01  0.66343956878E+01 -0.99513247851E+01  0.13364005363E+02  0.51100000000E-03 0.  1.
        -12    1    3    3    0    0  0.13037691200E+02 -0.78379944644E+01 -0.23617144181E+02  0.28092437565E+02  0.00000000000E+00 0.  1.
</event>
<event>
 7    1  0.8697654E-014  0.5052886E+02  0.7816164E-02  0.1300439E+00
        -11   -1    0    0    0    0  0.00000000000E+00  0.00000000000E+00  0.45593999997E+02  0.45594000000E+02  0.51100000000E-03 0. -1.
         11   -1    0    0    0    0 -0.00000000000E+00 -0.00000000000E+00 -0.45593999997E+02  0.45594000000E+02  0.51100000000E-03 0.  1.
    9900012    2    1    2    0    0 -0.18482921900E+02 -0.28528810847E+02  0.22308164043E+02  0.50528860396E+02  0.30000001661E+02 0.  0.
        -12    1    1    2    0    0  0.18482921900E+02  0.28528810847E+02 -0.22308164043E+02  0.40659139604E+02  0.00000000000E+00 0.  1.
         11    1    3    3    0    0 -0.52068381002E+01 -0.27756389692E+02  0.11981969831E+02  0.30677286924E+02  0.51100000000E-03 0. -1.
        -11    1    3    3    0    0 -0.77806495372E+00  0.12505919867E+01  0.64423363851E+01  0.66085598846E+01  0.51100000000E-03 0.  1.
        -12    1    3    3    0    0 -0.12498018846E+02 -0.20230131418E+01  0.38838578269E+01  0.13243013587E+02  0.00000000000E+00 0.  1.
</event>
<event>
 7    1  0.8710579E-014  0.5052885E+02  0.7816164E-02  0.1300439E+00
        -11   -1    0    0    0    0  0.00000000000E+00  0.00000000000E+00  0.45593999997E+02  0.45594000000E+02  0.51100000000E-03 0. -1.
         11   -1    0    0    0    0 -0.00000000000E+00 -0.00000000000E+00 -0.45593999997E+02  0.45594000000E+02  0.51100000000E-03 0.  1.
    9900012    2    1    2    0    0  0.41329472669E+01  0.10737131817E+02 -0.38997421491E+02  0.50528854219E+02  0.29999982883E+02 0.  0.
         12    1    1    2    0    0 -0.41329472669E+01 -0.10737131817E+02  0.38997421491E+02  0.40659145781E+02  0.00000000000E+00 0. -1.
         11    1    3    3    0    0 -0.52413387865E+01 -0.47135046964E+01 -0.19642595331E+02  0.20869123374E+02  0.51100000000E-03 0. -1.
        -11    1    3    3    0    0 -0.15521494699E+01  0.64838307395E+01 -0.11995901819E+02  0.13724098868E+02  0.51100000000E-03 0.  1.
         12    1    3    3    0    0  0.10926435523E+02  0.89668057740E+01 -0.73589243406E+01  0.15935631976E+02  0.00000000000E+00 0. -1.
</event>
<event>
 7    1  0.8697654E-014  0.5052887E+02  0.7816164E-02  0.1300439E+00
        -11   -1    0    0    0    0  0.00000000000E+00  0.00000000000E+00  0.45593999997E+02  0.45594000000E+02  0.51100000000E-03 0.  1.
         11   -1    0    0    0    0 -0.00000000000E+00 -0.00000000000E+00 -0.45593999997E+02  0.45594000000E+02  0.51100000000E-03 0. -1.
    9900012    2    1    2    0    0  0.82456151610E+01  0.37526704546E+02  0.13301168444E+02  0.50528870577E+02  0.30000032606E+02 0.  0.
        -12    1    1    2    0    0 -0.82456151610E+01 -0.37526704546E+02 -0.13301168444E+02  0.40659129423E+02  0.00000000000E+00 0.  1.
         11    1    3    3    0    0  0.55137023447E+01  0.23299260975E+02  0.94707501001E+01  0.25747846187E+02  0.51100000000E-03 0. -1.
        -11    1    3    3    0    0  0.46611938788E+01  0.16154273163E+02 -0.33114873330E+01  0.17136312859E+02  0.51100000000E-03 0.  1.
         12    1    3    3    0    0 -0.19292810625E+01 -0.19268295920E+01  0.71419056768E+01  0.76447115310E+01  0.00000000000E+00 0. -1.
</event>
<event>
 7    1  0.8697654E-014  0.5052887E+02  0.7816164E-02  0.1300439E+00
        -11   -1    0    0    0    0  0.00000000000E+00  0.00000000000E+00  0.45593999997E+02  0.45594000000E+02  0.51100000000E-03 0. -1.
         11   -1    0    0    0    0 -0.00000000000E+00 -0.00000000000E+00 -0.45593999997E+02  0.45594000000E+02  0.51100000000E-03 0.  1.
    9900012    2    1    2    0    0 -0.27333847878E+02 -0.37101145357E+01  0.29870736063E+02  0.50528867414E+02  0.30000022992E+02 0.  0.
        -12    1    1    2    0    0  0.27333847878E+02  0.37101145357E+01 -0.29870736063E+02  0.40659132586E+02  0.00000000000E+00 0.  1.
         11    1    3    3    0    0 -0.18823846331E+02 -0.48199917697E+00  0.20152714731E+02  0.27580816253E+02  0.51100000000E-03 0. -1.
        -11    1    3    3    0    0 -0.12794373625E+02 -0.51078461145E+01  0.19972090638E+01  0.13920306487E+02  0.51100000000E-03 0.  1.
        -12    1    3    3    0    0  0.42843720782E+01  0.18797307558E+01  0.77208122686E+01  0.90277446744E+01  0.00000000000E+00 0.  1.
</event>
<event>
 7    1  0.8697654E-014  0.5052886E+02  0.7816164E-02  0.1300439E+00
        -11   -1    0    0    0    0  0.00000000000E+00  0.00000000000E+00  0.45593999997E+02  0.45594000000E+02  0.51100000000E-03 0. -1.
         11   -1    0    0    0    0 -0.00000000000E+00 -0.00000000000E+00 -0.45593999997E+02  0.45594000000E+02  0.51100000000E-03 0.  1.
    9900012    2    1    2    0    0 -0.65124770254E+01  0.19372977350E+02 -0.35148846195E+02  0.50528855921E+02  0.29999988057E+02 0.  0.
         12    1    1    2    0    0  0.65124770254E+01 -0.19372977350E+02  0.35148846195E+02  0.40659144079E+02  0.00000000000E+00 0. -1.
         11    1    3    3    0    0  0.37028084394E+01  0.29679550822E+01 -0.67115162299E+01  0.82197322386E+01  0.51100000000E-03 0. -1.
        -11    1    3    3    0    0 -0.15853608630E+01 -0.62439217934E+01 -0.98303286827E+01  0.11753097068E+02  0.51100000000E-03 0.  1.
        -12    1    3    3    0    0 -0.86299246018E+01  0.22648944061E+02 -0.18607001282E+02  0.30556026614E+02  0.00000000000E+00 0.  1.
</event>
<event>
 7    1  0.8697654E-014  0.5052885E+02  0.7816164E-02  0.1300439E+00
        -11   -1    0    0    0    0  0.00000000000E+00  0.00000000000E+00  0.45593999997E+02  0.45594000000E+02  0.51100000000E-03 0.  1.
         11   -1    0    0    0    0 -0.00000000000E+00 -0.00000000000E+00 -0.45593999997E+02  0.45594000000E+02  0.51100000000E-03 0. -1.
    9900012    2    1    2    0    0  0.31149991844E+02 -0.13401063856E+02  0.22433359321E+02  0.50528854475E+02  0.29999983663E+02 0.  0.
         12    1    1    2    0    0 -0.31149991844E+02  0.13401063856E+02 -0.22433359321E+02  0.40659145525E+02  0.00000000000E+00 0. -1.
         11    1    3    3    0    0  0.11624146144E+02  0.89931628369E-01 -0.24817754779E+01  0.11886465878E+02  0.51100000000E-03 0. -1.
        -11    1    3    3    0    0  0.22413057566E+02 -0.11887111412E+02  0.18407541808E+02  0.31344635313E+02  0.51100000000E-03 0.  1.
         12    1    3    3    0    0 -0.28872118660E+01 -0.16038840722E+01  0.65075929908E+01  0.72977532851E+01  0.00000000000E+00 0. -1.
</event>
<event>
 7    1  0.8697654E-014  0.5052886E+02  0.7816164E-02  0.1300439E+00
        -11   -1    0    0    0    0  0.00000000000E+00  0.00000000000E+00  0.45593999997E+02  0.45594000000E+02  0.51100000000E-03 0.  1.
         11   -1    0    0    0    0 -0.00000000000E+00 -0.00000000000E+00 -0.45593999997E+02  0.45594000000E+02  0.51100000000E-03 0. -1.
    9900012    2    1    2    0    0  0.14328011533E+02 -0.27366204214E+02 -0.26437936209E+02  0.50528861807E+02  0.30000005949E+02 0.  0.
         12    1    1    2    0    0 -0.14328011533E+02  0.27366204214E+02  0.26437936209E+02  0.40659138193E+02  0.00000000000E+00 0. -1.
         11    1    3    3    0    0  0.12973192239E+01  0.38972196316E+01 -0.46028315526E+01  0.61690693454E+01  0.51100000000E-03 0. -1.
        -11    1    3    3    0    0  0.12130656216E+02 -0.70416648434E+01 -0.51872457727E+01  0.14954777931E+02  0.51100000000E-03 0.  1.
         12    1    3    3    0    0  0.90003609340E+00 -0.24221759002E+02 -0.16647858884E+02  0.29405014531E+02  0.00000000000E+00 0. -1.
</event>
<event>
 7    1  0.8697654E-014  0.5052886E+02  0.7816164E-02  0.1300439E+00
        -11   -1    0    0    0    0  0.00000000000E+00  0.00000000000E+00  0.45593999997E+02  0.45594000000E+02  0.51100000000E-03 0.  1.
         11   -1    0    0    0    0 -0.00000000000E+00 -0.00000000000E+00 -0.45593999997E+02  0.45594000000E+02  0.51100000000E-03 0. -1.
    9900012    2    1    2    0    0  0.22730522028E+02 -0.69830774126E+00 -0.33704623440E+02  0.50528857036E+02  0.29999991447E+02 0.  0.
         12    1    1    2    0    0 -0.22730522028E+02  0.69830774126E+00  0.33704623440E+02  0.40659142964E+02  0.00000000000E+00 0. -1.
         11    1    3    3    0    0  0.19571233442E+02  0.53277695019E+01 -0.16486514958E+02  0.26138543992E+02  0.51100000000E-03 0. -1.
        -11    1    3    3    0    0  0.47820364608E+01 -0.56152084701E+01 -0.29166188927E+00  0.73812943170E+01  0.51100000000E-03 0.  1.
        -12    1    3    3    0    0 -0.16227478752E+01 -0.41086877301E+00 -0.16926446592E+02  0.17009018727E+02  0.00000000000E+00 0.  1.
</event>
<event>
 7    1  0.8697654E-014  0.5052885E+02  0.7816164E-02  0.1300439E+00
        -11   -1    0    0    0    0  0.00000000000E+00  0.00000000000E+00  0.45593999997E+02  0.45594000000E+02  0.51100000000E-03 0. -1.
         11   -1    0    0    0    0 -0.00000000000E+00 -0.00000000000E+00 -0.45593999997E+02  0.45594000000E+02  0.51100000000E-03 0.  1.
    9900012    2    1    2    0    0 -0.40603204973E+01  0.35364296538E+02 -0.19648078221E+02  0.50528847894E+02  0.29999963660E+02 0.  0.
         12    1    1    2    0    0  0.40603204973E+01 -0.35364296538E+02  0.19648078221E+02  0.40659152106E+02  0.00000000000E+00 0. -1.
         11    1    3    3    0    0  0.26385973782E+01 -0.18349410240E+01 -0.67754481870E+01  0.74990601466E+01  0.51100000000E-03 0. -1.
        -11    1    3    3    0    0 -0.48615881607E+01  0.90057219607E+01 -0.10522974731E+02  0.14678932690E+02  0.51100000000E-03 0.  1.
         12    1    3    3    0    0 -0.18373297148E+01  0.28193515601E+02 -0.23496553028E+01  0.28350855057E+02  0.00000000000E+00 0. -1.
</event>
<event>
 7    1  0.8697654E-014  0.5052886E+02  0.7816164E-02  0.1300439E+00
        -11   -1    0    0    0    0  0.00000000000E+00  0.00000000000E+00  0.45593999997E+02  0.45594000000E+02  0.51100000000E-03 0. -1.
         11   -1    0    0    0    0 -0.00000000000E+00 -0.00000000000E+00 -0.45593999997E+02  0.45594000000E+02  0.51100000000E-03 0.  1.
    9900012    2    1    2    0    0  0.62965915390E+01  0.19126602422E+02  0.35322676986E+02  0.50528862101E+02  0.30000006843E+02 0.  0.
        -12    1    1    2    0    0 -0.62965915390E+01 -0.19126602422E+02 -0.35322676986E+02  0.40659137899E+02  0.00000000000E+00 0.  1.
         11    1    3    3    0    0 -0.19164025948E+01  0.61395018248E+01  0.73986878392E+01  0.98034006123E+01  0.51100000000E-03 0. -1.
        -11    1    3    3    0    0 -0.30263235832E+01 -0.63329615150E+01  0.91735164788E+01  0.11550690059E+02  0.51100000000E-03 0.  1.
         12    1    3    3    0    0  0.11239317717E+02  0.19320062112E+02  0.18750472668E+02  0.29174771431E+02  0.00000000000E+00 0. -1.
</event>
<event>
 7    1  0.8697654E-014  0.5052885E+02  0.7816164E-02  0.1300439E+00
        -11   -1    0    0    0    0  0.00000000000E+00  0.00000000000E+00  0.45593999997E+02  0.45594000000E+02  0.51100000000E-03 0. -1.
         11   -1    0    0    0    0 -0.00000000000E+00 -0.00000000000E+00 -0.45593999997E+02  0.45594000000E+02  0.51100000000E-03 0.  1.
    9900012    2    1    2    0    0 -0.84163602486E+01 -0.24356105259E+02  0.31450138632E+02  0.50528853388E+02  0.29999980359E+02 0.  0.
        -12    1    1    2    0    0  0.84163602486E+01  0.24356105259E+02 -0.31450138632E+02  0.40659146612E+02  0.00000000000E+00 0.  1.
         11    1    3    3    0    0  0.28757131193E+01 -0.14009675843E+02  0.22647961635E+02  0.26785647457E+02  0.51100000000E-03 0. -1.
        -11    1    3    3    0    0 -0.87382681620E+01 -0.12121017332E+02  0.12087556504E+02  0.19219402023E+02  0.51100000000E-03 0.  1.
         12    1    3    3    0    0 -0.25538052058E+01  0.17745879155E+01 -0.32853795071E+01  0.45238039088E+01  0.00000000000E+00 0. -1.
</event>
<event>
 7    1  0.8697654E-014  0.5052883E+02  0.7816164E-02  0.1300439E+00
        -11   -1    0    0    0    0  0.00000000000E+00  0.00000000000E+00  0.45593999997E+02  0.45594000000E+02  0.51100000000E-03 0. -1.
         11   -1    0    0    0    0 -0.00000000000E+00 -0.00000000000E+00 -0.45593999997E+02  0.45594000000E+02  0.51100000000E-03 0.  1.
    9900012    2    1    2    0    0 -0.33542641620E+02 -0.22727026652E+02  0.33972390658E+01  0.50528833991E+02  0.29999921399E+02 0.  0.
        -12    1    1    2    0    0  0.33542641620E+02  0.22727026652E+02 -0.33972390658E+01  0.40659166009E+02  0.00000000000E+00 0.  1.
         11    1    3    3    0    0 -0.21336090176E+01 -0.93338130907E+01  0.41938821431E+01  0.10452798761E+02  0.51100000000E-03 0. -1.
        -11    1    3    3    0    0 -0.31468280839E+01  0.43858916082E+01  0.34670909304E+01  0.64155507924E+01  0.51100000000E-03 0.  1.
        -12    1    3    3    0    0 -0.28262204518E+02 -0.17779105169E+02 -0.42637340077E+01  0.33660484437E+02  0.00000000000E+00 0.  1.
</event>
<event>
 7    1  0.8697654E-014  0.5052885E+02  0.7816164E-02  0.1300439E+00
        -11   -1    0    0    0    0  0.00000000000E+00  0.00000000000E+00  0.45593999997E+02  0.45594000000E+02  0.51100000000E-03 0. -1.
         11   -1    0    0    0    0 -0.00000000000E+00 -0.00000000000E+00 -0.45593999997E+02  0.45594000000E+02  0.51100000000E-03 0.  1.
    9900012    2    1    2    0    0  0.38977602427E+02 -0.45210099131E+01  0.10652407137E+02  0.50528846056E+02  0.29999958073E+02 0.  0.
        -12    1    1    2    0    0 -0.38977602427E+02  0.45210099131E+01 -0.10652407137E+02  0.40659153944E+02  0.00000000000E+00 0.  1.
         11    1    3    3    0    0  0.19064622164E+02  0.30594178640E+00  0.39971726830E+01  0.19481550461E+02  0.51100000000E-03 0. -1.
        -11    1    3    3    0    0  0.18093748517E+02 -0.86683545708E+01  0.12635572823E+02  0.23710373409E+02  0.51100000000E-03 0.  1.
        -12    1    3    3    0    0  0.18192317463E+01  0.38414028713E+01 -0.59803383693E+01  0.73369221870E+01  0.00000000000E+00 0.  1.
</event>
<event>
 7    1  0.8697654E-014  0.5052888E+02  0.7816164E-02  0.1300439E+00
        -11   -1    0    0    0    0  0.00000000000E+00  0.00000000000E+00  0.45593999997E+02  0.45594000000E+02  0.51100000000E-03 0. -1.
         11   -1    0    0    0    0 -0.00000000000E+00 -0.00000000000E+00 -0.45593999997E+02  0.45594000000E+02  0.51100000000E-03 0.  1.
    9900012    2    1    2    0    0  0.58654175102E+01 -0.17700226741E+02  0.36131192484E+02  0.50528877782E+02  0.30000054506E+02 0.  0.
        -12    1    1    2    0    0 -0.58654175102E+01  0.17700226741E+02 -0.36131192484E+02  0.40659122218E+02  0.00000000000E+00 0.  1.
         11    1    3    3    0    0  0.88388446474E+00  0.26795635007E+01  0.14105290901E+01  0.31545054884E+01  0.51100000000E-03 0.  1.
        -11    1    3    3    0    0  0.94210699207E+01 -0.75900942251E+01  0.31085119511E+02  0.33356419833E+02  0.51100000000E-03 0. -1.
        -12    1    3    3    0    0 -0.44395368752E+01 -0.12789696017E+02  0.36355438827E+01  0.14017952461E+02  0.00000000000E+00 0.  1.
</event>
<event>
 7    1  0.8697654E-014  0.5052887E+02  0.7816164E-02  0.1300439E+00
        -11   -1    0    0    0    0  0.00000000000E+00  0.00000000000E+00  0.45593999997E+02  0.45594000000E+02  0.51100000000E-03 0. -1.
         11   -1    0    0    0    0 -0.00000000000E+00 -0.00000000000E+00 -0.45593999997E+02  0.45594000000E+02  0.51100000000E-03 0.  1.
    9900012    2    1    2    0    0 -0.17923814388E+02 -0.20645458764E+02  0.30094304169E+02  0.50528865317E+02  0.30000016618E+02 0.  0.
        -12    1    1    2    0    0  0.17923814388E+02  0.20645458764E+02 -0.30094304169E+02  0.40659134683E+02  0.00000000000E+00 0.  1.
         11    1    3    3    0    0 -0.17624627015E+02 -0.95872680848E+01  0.20880005686E+02  0.28957172246E+02  0.51100000000E-03 0. -1.
        -11    1    3    3    0    0 -0.61226106764E+01 -0.64338697467E+00 -0.51188842106E+00  0.61775673457E+01  0.51100000000E-03 0.  1.
         12    1    3    3    0    0  0.58234233041E+01 -0.10414803704E+02  0.97261869033E+01  0.15394125726E+02  0.00000000000E+00 0. -1.
</event>
<event>
 7    1  0.8697654E-014  0.5052886E+02  0.7816164E-02  0.1300439E+00
        -11   -1    0    0    0    0  0.00000000000E+00  0.00000000000E+00  0.45593999997E+02  0.45594000000E+02  0.51100000000E-03 0. -1.
         11   -1    0    0    0    0 -0.00000000000E+00 -0.00000000000E+00 -0.45593999997E+02  0.45594000000E+02  0.51100000000E-03 0.  1.
    9900012    2    1    2    0    0 -0.14691029368E+02 -0.13188108159E+02  0.35544523671E+02  0.50528859530E+02  0.29999999029E+02 0.  0.
        -12    1    1    2    0    0  0.14691029368E+02  0.13188108159E+02 -0.35544523671E+02  0.40659140470E+02  0.00000000000E+00 0.  1.
         11    1    3    3    0    0  0.52371627135E+01 -0.54878100914E+01  0.62832276970E+01  0.98500194640E+01  0.51100000000E-03 0. -1.
        -11    1    3    3    0    0 -0.72285520493E+01  0.41884287547E+01  0.24280712951E+01  0.87000247493E+01  0.51100000000E-03 0.  1.
         12    1    3    3    0    0 -0.12699640033E+02 -0.11888726822E+02  0.26833224679E+02  0.31978815317E+02  0.00000000000E+00 0. -1.
</event>
<event>
 7    1  0.8697654E-014  0.5052882E+02  0.7816164E-02  0.1300439E+00
        -11   -1    0    0    0    0  0.00000000000E+00  0.00000000000E+00  0.45593999997E+02  0.45594000000E+02  0.51100000000E-03 0. -1.
         11   -1    0    0    0    0 -0.00000000000E+00 -0.00000000000E+00 -0.45593999997E+02  0.45594000000E+02  0.51100000000E-03 0.  1.
    9900012    2    1    2    0    0  0.10688860424E+02  0.21413323809E+02 -0.32869232088E+02  0.50528824015E+02  0.29999891075E+02 0.  0.
         12    1    1    2    0    0 -0.10688860424E+02 -0.21413323809E+02  0.32869232088E+02  0.40659175985E+02  0.00000000000E+00 0. -1.
         11    1    3    3    0    0  0.71491821509E+01  0.11793253222E+02 -0.66543418123E+01  0.15312475052E+02  0.51100000000E-03 0. -1.
        -11    1    3    3    0    0  0.76418923577E+01 -0.52607727224E+00 -0.99509994319E+00  0.77243446493E+01  0.51100000000E-03 0.  1.
         12    1    3    3    0    0 -0.41022140842E+01  0.10146147859E+02 -0.25219790333E+02  0.27492004314E+02  0.00000000000E+00 0. -1.
</event>
<event>
 7    1  0.8697654E-014  0.5052886E+02  0.7816164E-02  0.1300439E+00
        -11   -1    0    0    0    0  0.00000000000E+00  0.00000000000E+00  0.45593999997E+02  0.45594000000E+02  0.51100000000E-03 0. -1.
         11   -1    0    0    0    0 -0.00000000000E+00 -0.00000000000E+00 -0.45593999997E+02  0.45594000000E+02  0.51100000000E-03 0.  1.
    9900012    2    1    2    0    0 -0.19104402412E+02  0.16998751415E+02 -0.31610600753E+02  0.50528858086E+02  0.29999994639E+02 0.  0.
         12    1    1    2    0    0  0.19104402412E+02 -0.16998751415E+02  0.31610600753E+02  0.40659141914E+02  0.00000000000E+00 0. -1.
         11    1    3    3    0    0 -0.19812605538E+01  0.21738025769E+01 -0.12492021967E+02  0.12833605266E+02  0.51100000000E-03 0. -1.
        -11    1    3    3    0    0 -0.20214932711E+02  0.56161553327E+01 -0.18482541471E+02  0.27960490781E+02  0.51100000000E-03 0.  1.
         12    1    3    3    0    0  0.30917908531E+01  0.92087935052E+01 -0.63603731509E+00  0.97347620395E+01  0.00000000000E+00 0. -1.
</event>
<event>
 7    1  0.8697654E-014  0.5052886E+02  0.7816164E-02  0.1300439E+00
        -11   -1    0    0    0    0  0.00000000000E+00  0.00000000000E+00  0.45593999997E+02  0.45594000000E+02  0.51100000000E-03 0. -1.
         11   -1    0    0    0    0 -0.00000000000E+00 -0.00000000000E+00 -0.45593999997E+02  0.45594000000E+02  0.51100000000E-03 0.  1.
    9900012    2    1    2    0    0  0.17966941068E+02 -0.48224795905E+01  0.36153815234E+02  0.50528860354E+02  0.30000001532E+02 0.  0.
        -12    1    1    2    0    0 -0.17966941068E+02  0.48224795905E+01 -0.36153815234E+02  0.40659139646E+02  0.00000000000E+00 0.  1.
         11    1    3    3    0    0 -0.34256572743E+01 -0.22934255725E+01  0.53800524888E+01  0.67778974365E+01  0.51100000000E-03 0.  1.
        -11    1    3    3    0    0  0.25942255721E+02 -0.22400626041E+01  0.23015510615E+02  0.34752442238E+02  0.51100000000E-03 0. -1.
         12    1    3    3    0    0 -0.45496573787E+01 -0.28899141389E+00  0.77582521303E+01  0.89985206795E+01  0.00000000000E+00 0. -1.
</event>
<event>
 7    1  0.8697654E-014  0.5052885E+02  0.7816164E-02  0.1300439E+00
        -11   -1    0    0    0    0  0.00000000000E+00  0.00000000000E+00  0.45593999997E+02  0.45594000000E+02  0.51100000000E-03 0. -1.
         11   -1    0    0    0    0 -0.00000000000E+00 -0.00000000000E+00 -0.45593999997E+02  0.45594000000E+02  0.51100000000E-03 0.  1.
    9900012    2    1    2    0    0  0.20702158178E+02 -0.98558793640E+01  0.33577500107E+02  0.50528853124E+02  0.29999979555E+02 0.  0.
        -12    1    1    2    0    0 -0.20702158178E+02  0.98558793640E+01 -0.33577500107E+02  0.40659146876E+02  0.00000000000E+00 0.  1.
         11    1    3    3    0    0  0.11082341999E+02 -0.98248929261E+01  0.15548141119E+02  0.21473041651E+02  0.51100000000E-03 0. -1.
        -11    1    3    3    0    0  0.14621241757E+02  0.28291272774E+01  0.17910461711E+02  0.23293117238E+02  0.51100000000E-03 0.  1.
        -12    1    3    3    0    0 -0.50014255793E+01 -0.28601137154E+01  0.11889727677E+00  0.57626942356E+01  0.00000000000E+00 0.  1.
</event>
<event>
 7    1  0.8697654E-014  0.5052885E+02  0.7816164E-02  0.1300439E+00
        -11   -1    0    0    0    0  0.00000000000E+00  0.00000000000E+00  0.45593999997E+02  0.45594000000E+02  0.51100000000E-03 0.  1.
         11   -1    0    0    0    0 -0.00000000000E+00 -0.00000000000E+00 -0.45593999997E+02  0.45594000000E+02  0.51100000000E-03 0. -1.
    9900012    2    1    2    0    0 -0.84584877723E+01  0.36215423005E+02 -0.16433601106E+02  0.50528854360E+02  0.29999983313E+02 0.  0.
         12    1    1    2    0    0  0.84584877723E+01 -0.36215423005E+02  0.16433601106E+02  0.40659145640E+02  0.00000000000E+00 0. -1.
         11    1    3    3    0    0 -0.79181215341E+00  0.53542190814E+01  0.68172245576E+01  0.87045493501E+01  0.51100000000E-03 0. -1.
        -11    1    3    3    0    0  0.29001791406E+01  0.16327099660E+02 -0.88502441559E+01  0.18796596613E+02  0.51100000000E-03 0.  1.
         12    1    3    3    0    0 -0.10566854759E+02  0.14534104264E+02 -0.14400581508E+02  0.23027708397E+02  0.00000000000E+00 0. -1.
</event>
<event>
 7    1  0.8697654E-014  0.5052886E+02  0.7816164E-02  0.1300439E+00
        -11   -1    0    0    0    0  0.00000000000E+00  0.00000000000E+00  0.45593999997E+02  0.45594000000E+02  0.51100000000E-03 0. -1.
         11   -1    0    0    0    0 -0.00000000000E+00 -0.00000000000E+00 -0.45593999997E+02  0.45594000000E+02  0.51100000000E-03 0.  1.
    9900012    2    1    2    0    0 -0.14300021158E+02  0.17482389744E+02  0.33808893448E+02  0.50528857948E+02  0.29999994218E+02 0.  0.
        -12    1    1    2    0    0  0.14300021158E+02 -0.17482389744E+02 -0.33808893448E+02  0.40659142052E+02  0.00000000000E+00 0.  1.
         11    1    3    3    0    0 -0.10202619265E+02  0.12559662161E+02  0.19279820225E+02  0.25170419577E+02  0.51100000000E-03 0. -1.
        -11    1    3    3    0    0  0.19522567365E+00  0.12263825042E+02  0.90386239686E+01  0.15236017893E+02  0.51100000000E-03 0.  1.
        -12    1    3    3    0    0 -0.42926275659E+01 -0.73410974593E+01  0.54904492537E+01  0.10122420478E+02  0.00000000000E+00 0.  1.
</event>
<event>
 7    1  0.8697654E-014  0.5052886E+02  0.7816164E-02  0.1300439E+00
        -11   -1    0    0    0    0  0.00000000000E+00  0.00000000000E+00  0.45593999997E+02  0.45594000000E+02  0.51100000000E-03 0. -1.
         11   -1    0    0    0    0 -0.00000000000E+00 -0.00000000000E+00 -0.45593999997E+02  0.45594000000E+02  0.51100000000E-03 0.  1.
    9900012    2    1    2    0    0  0.18503622041E+02  0.10871274553E+02  0.34534000821E+02  0.50528857710E+02  0.29999993495E+02 0.  0.
        -12    1    1    2    0    0 -0.18503622041E+02 -0.10871274553E+02 -0.34534000821E+02  0.40659142290E+02  0.00000000000E+00 0.  1.
         11    1    3    3    0    0  0.61933114017E+01 -0.37956740225E+01  0.12548025695E+02  0.14498868801E+02  0.51100000000E-03 0. -1.
        -11    1    3    3    0    0 -0.39924793414E+01  0.32899816690E+01  0.13420668023E+02  0.14383261144E+02  0.51100000000E-03 0.  1.
        -12    1    3    3    0    0  0.16302789981E+02  0.11376966907E+02  0.85653071023E+01  0.21646727765E+02  0.00000000000E+00 0.  1.
</event>
<event>
 7    1  0.8697654E-014  0.5052884E+02  0.7816164E-02  0.1300439E+00
        -11   -1    0    0    0    0  0.00000000000E+00  0.00000000000E+00  0.45593999997E+02  0.45594000000E+02  0.51100000000E-03 0. -1.
         11   -1    0    0    0    0 -0.00000000000E+00 -0.00000000000E+00 -0.45593999997E+02  0.45594000000E+02  0.51100000000E-03 0.  1.
    9900012    2    1    2    0    0  0.21485916920E+01  0.12055857780E+02  0.38771220104E+02  0.50528835456E+02  0.29999925851E+02 0.  0.
        -12    1    1    2    0    0 -0.21485916920E+01 -0.12055857780E+02 -0.38771220104E+02  0.40659164544E+02  0.00000000000E+00 0.  1.
         11    1    3    3    0    0  0.47540441512E+01  0.70847407195E+01  0.15330009220E+02  0.17544334408E+02  0.51100000000E-03 0. -1.
        -11    1    3    3    0    0  0.64938312477E+01  0.48645405065E+01  0.30106828165E+00  0.81193744208E+01  0.51100000000E-03 0.  1.
         12    1    3    3    0    0 -0.90992837069E+01  0.10657655421E+00  0.23140142602E+02  0.24865126627E+02  0.00000000000E+00 0. -1.
</event>
<event>
 7    1  0.8697654E-014  0.5052886E+02  0.7816164E-02  0.1300439E+00
        -11   -1    0    0    0    0  0.00000000000E+00  0.00000000000E+00  0.45593999997E+02  0.45594000000E+02  0.51100000000E-03 0. -1.
         11   -1    0    0    0    0 -0.00000000000E+00 -0.00000000000E+00 -0.45593999997E+02  0.45594000000E+02  0.51100000000E-03 0.  1.
    9900012    2    1    2    0    0 -0.25075775012E+02 -0.65830961732E+01  0.31321461037E+02  0.50528861186E+02  0.30000004060E+02 0.  0.
        -12    1    1    2    0    0  0.25075775012E+02  0.65830961732E+01 -0.31321461037E+02  0.40659138814E+02  0.00000000000E+00 0.  1.
         11    1    3    3    0    0 -0.33489080325E+01  0.50240806189E+01  0.38296393618E+01  0.71500146138E+01  0.51100000000E-03 0. -1.
        -11    1    3    3    0    0  0.58964617280E+00  0.52127362326E+01  0.22027396181E+01  0.56896716712E+01  0.51100000000E-03 0.  1.
         12    1    3    3    0    0 -0.22316513152E+02 -0.16819913025E+02  0.25289082057E+02  0.37689174901E+02  0.00000000000E+00 0. -1.
</event>
<event>
 7    1  0.8697654E-014  0.5052884E+02  0.7816164E-02  0.1300439E+00
        -11   -1    0    0    0    0  0.00000000000E+00  0.00000000000E+00  0.45593999997E+02  0.45594000000E+02  0.51100000000E-03 0. -1.
         11   -1    0    0    0    0 -0.00000000000E+00 -0.00000000000E+00 -0.45593999997E+02  0.45594000000E+02  0.51100000000E-03 0.  1.
    9900012    2    1    2    0    0 -0.20017843226E+02  0.20549492680E+02 -0.28812701388E+02  0.50528837956E+02  0.29999933452E+02 0.  0.
         12    1    1    2    0    0  0.20017843226E+02 -0.20549492680E+02  0.28812701388E+02  0.40659162044E+02  0.00000000000E+00 0. -1.
         11    1    3    3    0    0 -0.90246095032E+01  0.50356131098E+01 -0.21307822713E+02  0.23681728930E+02  0.51100000000E-03 0. -1.
        -11    1    3    3    0    0 -0.99834676168E+01  0.14696620361E+02 -0.12475585818E+02  0.21709456867E+02  0.51100000000E-03 0.  1.
         12    1    3    3    0    0 -0.10097661056E+01  0.81725920928E+00  0.49707071435E+01  0.51376521592E+01  0.00000000000E+00 0. -1.
</event>
<event>
 7    1  0.8697654E-014  0.5052886E+02  0.7816164E-02  0.1300439E+00
        -11   -1    0    0    0    0  0.00000000000E+00  0.00000000000E+00  0.45593999997E+02  0.45594000000E+02  0.51100000000E-03 0. -1.
         11   -1    0    0    0    0 -0.00000000000E+00 -0.00000000000E+00 -0.45593999997E+02  0.45594000000E+02  0.51100000000E-03 0.  1.
    9900012    2    1    2    0    0 -0.51834428309E+01 -0.38801038517E+01 -0.40140283169E+02  0.50528860580E+02  0.30000002218E+02 0.  0.
         12    1    1    2    0    0  0.51834428309E+01  0.38801038517E+01  0.40140283169E+02  0.40659139420E+02  0.00000000000E+00 0. -1.
         11    1    3    3    0    0 -0.92728351158E+01 -0.76965989399E+01 -0.34814014316E+01  0.12543654273E+02  0.51100000000E-03 0. -1.
        -11    1    3    3    0    0 -0.15163718411E+01  0.27583648100E+01 -0.57585502973E+01  0.65626870848E+01  0.51100000000E-03 0.  1.
        -12    1    3    3    0    0  0.56057641260E+01  0.10581302782E+01 -0.30900331441E+02  0.31422519222E+02  0.00000000000E+00 0.  1.
</event>
<event>
 7    1  0.8697655E-014  0.5052885E+02  0.7816164E-02  0.1300439E+00
        -11   -1    0    0    0    0  0.00000000000E+00  0.00000000000E+00  0.45593999997E+02  0.45594000000E+02  0.51100000000E-03 0. -1.
         11   -1    0    0    0    0 -0.00000000000E+00 -0.00000000000E+00 -0.45593999997E+02  0.45594000000E+02  0.51100000000E-03 0.  1.
    9900012    2    1    2    0    0 -0.21590776392E+02  0.21746724607E+01 -0.34384240820E+02  0.50528845529E+02  0.29999956469E+02 0.  0.
         12    1    1    2    0    0  0.21590776392E+02 -0.21746724607E+01  0.34384240820E+02  0.40659154471E+02  0.00000000000E+00 0. -1.
         11    1    3    3    0    0  0.17759801671E+00  0.59962754875E+01 -0.54583307903E+01  0.81105015909E+01  0.51100000000E-03 0. -1.
        -11    1    3    3    0    0 -0.22502357902E+02 -0.29478562677E+01 -0.31947838293E+02  0.39188140292E+02  0.51100000000E-03 0.  1.
         12    1    3    3    0    0  0.73398349273E+00 -0.87374675919E+00  0.30219282629E+01  0.32302036458E+01  0.00000000000E+00 0. -1.
</event>
<event>
 7    1  0.8697654E-014  0.5052886E+02  0.7816164E-02  0.1300439E+00
        -11   -1    0    0    0    0  0.00000000000E+00  0.00000000000E+00  0.45593999997E+02  0.45594000000E+02  0.51100000000E-03 0. -1.
         11   -1    0    0    0    0 -0.00000000000E+00 -0.00000000000E+00 -0.45593999997E+02  0.45594000000E+02  0.51100000000E-03 0.  1.
    9900012    2    1    2    0    0 -0.37952511157E+01 -0.24065444863E+02 -0.32551748628E+02  0.50528857040E+02  0.29999991460E+02 0.  0.
         12    1    1    2    0    0  0.37952511157E+01  0.24065444863E+02  0.32551748628E+02  0.40659142960E+02  0.00000000000E+00 0. -1.
         11    1    3    3    0    0  0.36697679228E+00  0.19153936069E+01 -0.17751222500E+01  0.26371317561E+01  0.51100000000E-03 0. -1.
        -11    1    3    3    0    0 -0.14174464120E+02 -0.95959989077E+01 -0.17930324748E+02  0.24789013170E+02  0.51100000000E-03 0.  1.
        -12    1    3    3    0    0  0.10012236212E+02 -0.16384839562E+02 -0.12846301630E+02  0.23102712114E+02  0.00000000000E+00 0.  1.
</event>
<event>
 7    1  0.8697654E-014  0.5052882E+02  0.7816164E-02  0.1300439E+00
        -11   -1    0    0    0    0  0.00000000000E+00  0.00000000000E+00  0.45593999997E+02  0.45594000000E+02  0.51100000000E-03 0. -1.
         11   -1    0    0    0    0 -0.00000000000E+00 -0.00000000000E+00 -0.45593999997E+02  0.45594000000E+02  0.51100000000E-03 0.  1.
    9900012    2    1    2    0    0  0.15825669549E+01 -0.39912909123E+02  0.75910740608E+01  0.50528816066E+02  0.29999866913E+02 0.  0.
        -12    1    1    2    0    0 -0.15825669549E+01  0.39912909123E+02 -0.75910740608E+01  0.40659183934E+02  0.00000000000E+00 0.  1.
         11    1    3    3    0    0  0.17971334327E+01 -0.15718171343E+02 -0.38779402225E+01  0.16288923217E+02  0.51100000000E-03 0.  1.
        -11    1    3    3    0    0  0.81932067013E+01 -0.21696578320E+02  0.61944529601E+01  0.24005028527E+02  0.51100000000E-03 0. -1.
         12    1    3    3    0    0 -0.84077731791E+01 -0.24981594591E+01  0.52745613231E+01  0.10234864321E+02  0.00000000000E+00 0. -1.
</event>
<event>
 7    1  0.8697654E-014  0.5052886E+02  0.7816164E-02  0.1300439E+00
        -11   -1    0    0    0    0  0.00000000000E+00  0.00000000000E+00  0.45593999997E+02  0.45594000000E+02  0.51100000000E-03 0. -1.
         11   -1    0    0    0    0 -0.00000000000E+00 -0.00000000000E+00 -0.45593999997E+02  0.45594000000E+02  0.51100000000E-03 0.  1.
    9900012    2    1    2    0    0 -0.27483244781E+02  0.13877094580E+02  0.26556795731E+02  0.50528857151E+02  0.29999991797E+02 0.  0.
        -12    1    1    2    0    0  0.27483244781E+02 -0.13877094580E+02 -0.26556795731E+02  0.40659142849E+02  0.00000000000E+00 0.  1.
         11    1    3    3    0    0 -0.45657118807E+01 -0.20758320676E+01 -0.29147246673E+01  0.58008985422E+01  0.51100000000E-03 0. -1.
        -11    1    3    3    0    0 -0.63079359934E+01  0.50537227206E+01 -0.12135220665E+01  0.81732983489E+01  0.51100000000E-03 0.  1.
         12    1    3    3    0    0 -0.16609596907E+02  0.10899203927E+02  0.30685042465E+02  0.36554660260E+02  0.00000000000E+00 0. -1.
</event>
<event>
 7    1  0.8697654E-014  0.5052886E+02  0.7816164E-02  0.1300439E+00
        -11   -1    0    0    0    0  0.00000000000E+00  0.00000000000E+00  0.45593999997E+02  0.45594000000E+02  0.51100000000E-03 0. -1.
         11   -1    0    0    0    0 -0.00000000000E+00 -0.00000000000E+00 -0.45593999997E+02  0.45594000000E+02  0.51100000000E-03 0.  1.
    9900012    2    1    2    0    0 -0.54370101686E+01 -0.28390172525E+01 -0.40193840189E+02  0.50528857269E+02  0.29999992153E+02 0.  0.
         12    1    1    2    0    0  0.54370101686E+01  0.28390172525E+01  0.40193840189E+02  0.40659142731E+02  0.00000000000E+00 0. -1.
         11    1    3    3    0    0 -0.35229446903E+00  0.14789309544E+01  0.24102058174E+01  0.28496386620E+01  0.51100000000E-03 0. -1.
        -11    1    3    3    0    0  0.75615277055E+01 -0.16856242473E+01 -0.22370198659E+02  0.23673694655E+02  0.51100000000E-03 0.  1.
         12    1    3    3    0    0 -0.12646243405E+02 -0.26323239595E+01 -0.20233847348E+02  0.24005523951E+02  0.00000000000E+00 0. -1.
</event>
<event>
 7    1  0.8697654E-014  0.5052887E+02  0.7816164E-02  0.1300439E+00
        -11   -1    0    0    0    0  0.00000000000E+00  0.00000000000E+00  0.45593999997E+02  0.45594000000E+02  0.51100000000E-03 0. -1.
         11   -1    0    0    0    0 -0.00000000000E+00 -0.00000000000E+00 -0.45593999997E+02  0.45594000000E+02  0.51100000000E-03 0.  1.
    9900012    2    1    2    0    0 -0.19587000185E+02 -0.12384117626E+02 -0.33408805525E+02  0.50528865328E+02  0.30000016652E+02 0.  0.
         12    1    1    2    0    0  0.19587000185E+02  0.12384117626E+02  0.33408805525E+02  0.40659134672E+02  0.00000000000E+00 0. -1.
         11    1    3    3    0    0 -0.62933713968E+01 -0.40849492945E+01  0.63417304695E+00  0.75296420892E+01  0.51100000000E-03 0. -1.
        -11    1    3    3    0    0 -0.21692750358E+01  0.68852527090E+01 -0.70430354121E+01  0.10085475057E+02  0.51100000000E-03 0.  1.
        -12    1    3    3    0    0 -0.11124353752E+02 -0.15184421041E+02 -0.26999943160E+02  0.32913748182E+02  0.00000000000E+00 0.  1.
</event>
<event>
 7    1  0.8697654E-014  0.5052887E+02  0.7816164E-02  0.1300439E+00
        -11   -1    0    0    0    0  0.00000000000E+00  0.00000000000E+00  0.45593999997E+02  0.45594000000E+02  0.51100000000E-03 0. -1.
         11   -1    0    0    0    0 -0.00000000000E+00 -0.00000000000E+00 -0.45593999997E+02  0.45594000000E+02  0.51100000000E-03 0.  1.
    9900012    2    1    2    0    0  0.80565594584E+01  0.21952666762E+02 -0.33261651678E+02  0.50528865717E+02  0.30000017833E+02 0.  0.
         12    1    1    2    0    0 -0.80565594584E+01 -0.21952666762E+02  0.33261651678E+02  0.40659134283E+02  0.00000000000E+00 0. -1.
         11    1    3    3    0    0  0.55977565179E+01 -0.48925983204E+01 -0.57963591346E+01  0.94270979541E+01  0.51100000000E-03 0. -1.
        -11    1    3    3    0    0  0.68581605564E+01  0.74177430001E+01 -0.57085624441E+01  0.11603661615E+02  0.51100000000E-03 0.  1.
        -12    1    3    3    0    0 -0.43993576159E+01  0.19427522082E+02 -0.21756730100E+02  0.29498106148E+02  0.00000000000E+00 0.  1.
</event>
<event>
 7    1  0.8697654E-014  0.5052886E+02  0.7816164E-02  0.1300439E+00
        -11   -1    0    0    0    0  0.00000000000E+00  0.00000000000E+00  0.45593999997E+02  0.45594000000E+02  0.51100000000E-03 0. -1.
         11   -1    0    0    0    0 -0.00000000000E+00 -0.00000000000E+00 -0.45593999997E+02  0.45594000000E+02  0.51100000000E-03 0.  1.
    9900012    2    1    2    0    0  0.82314782525E+01 -0.21963256746E+02  0.33211802773E+02  0.50528859274E+02  0.29999998249E+02 0.  0.
        -12    1    1    2    0    0 -0.82314782525E+01  0.21963256746E+02 -0.33211802773E+02  0.40659140726E+02  0.00000000000E+00 0.  1.
         11    1    3    3    0    0  0.34197078845E+01 -0.54270104813E+01 -0.37870074895E+01  0.74490449567E+01  0.51100000000E-03 0. -1.
        -11    1    3    3    0    0  0.14404557503E+01 -0.41708661086E+00 -0.90613208666E+00  0.17521271727E+01  0.51100000000E-03 0.  1.
         12    1    3    3    0    0  0.33713146177E+01 -0.16119159654E+02  0.37904942350E+02  0.41327687145E+02  0.00000000000E+00 0. -1.
</event>
<event>
 7    1  0.8697654E-014  0.5052885E+02  0.7816164E-02  0.1300439E+00
        -11   -1    0    0    0    0  0.00000000000E+00  0.00000000000E+00  0.45593999997E+02  0.45594000000E+02  0.51100000000E-03 0. -1.
         11   -1    0    0    0    0 -0.00000000000E+00 -0.00000000000E+00 -0.45593999997E+02  0.45594000000E+02  0.51100000000E-03 0.  1.
    9900012    2    1    2    0    0  0.48718283497E+01 -0.28328125753E+02 -0.28756723768E+02  0.50528848730E+02  0.29999966199E+02 0.  0.
         12    1    1    2    0    0 -0.48718283497E+01  0.28328125753E+02  0.28756723768E+02  0.40659151270E+02  0.00000000000E+00 0. -1.
         11    1    3    3    0    0 -0.78318662418E+01 -0.11440405180E+02 -0.16225033873E+02  0.21341806951E+02  0.51100000000E-03 0. -1.
        -11    1    3    3    0    0  0.39230707312E+00  0.29168140195E+01 -0.22355419359E+01  0.36958567169E+01  0.51100000000E-03 0.  1.
        -12    1    3    3    0    0  0.12311387518E+02 -0.19804534593E+02 -0.10296147959E+02  0.25491185062E+02  0.00000000000E+00 0.  1.
</event>
<event>
 7    1  0.8697654E-014  0.5052886E+02  0.7816164E-02  0.1300439E+00
        -11   -1    0    0    0    0  0.00000000000E+00  0.00000000000E+00  0.45593999997E+02  0.45594000000E+02  0.51100000000E-03 0. -1.
         11   -1    0    0    0    0 -0.00000000000E+00 -0.00000000000E+00 -0.45593999997E+02  0.45594000000E+02  0.51100000000E-03 0.  1.
    9900012    2    1    2    0    0 -0.42817415269E+01  0.36961770284E+02  0.16390852159E+02  0.50528858254E+02  0.29999995147E+02 0.  0.
        -12    1    1    2    0    0  0.42817415269E+01 -0.36961770284E+02 -0.16390852159E+02  0.40659141746E+02  0.00000000000E+00 0.  1.
         11    1    3    3    0    0  0.16372577091E+01  0.56485094407E+01  0.94806885138E+01  0.11156600139E+02  0.51100000000E-03 0. -1.
        -11    1    3    3    0    0 -0.99290959690E+01  0.11301123435E+02  0.10898429682E+02  0.18576278084E+02  0.51100000000E-03 0.  1.
         12    1    3    3    0    0  0.40100967330E+01  0.20012137408E+02 -0.39882660361E+01  0.20795980031E+02  0.00000000000E+00 0. -1.
</event>
<event>
 7    1  0.8697654E-014  0.5052886E+02  0.7816164E-02  0.1300439E+00
        -11   -1    0    0    0    0  0.00000000000E+00  0.00000000000E+00  0.45593999997E+02  0.45594000000E+02  0.51100000000E-03 0. -1.
         11   -1    0    0    0    0 -0.00000000000E+00 -0.00000000000E+00 -0.45593999997E+02  0.45594000000E+02  0.51100000000E-03 0.  1.
    9900012    2    1    2    0    0 -0.75678360362E+01 -0.13424015521E+00 -0.39948412509E+02  0.50528858043E+02  0.29999994506E+02 0.  0.
         12    1    1    2    0    0  0.75678360362E+01  0.13424015521E+00  0.39948412509E+02  0.40659141957E+02  0.00000000000E+00 0. -1.
         11    1    3    3    0    0  0.76074377792E+01 -0.37741712292E+01 -0.18988424883E+02  0.20800907620E+02  0.51100000000E-03 0. -1.
        -11    1    3    3    0    0 -0.33489195879E+01 -0.20594930996E+01 -0.14638357716E+02  0.15157120145E+02  0.51100000000E-03 0.  1.
         12    1    3    3    0    0 -0.11826354228E+02  0.56994241736E+01 -0.63216299107E+01  0.14570830277E+02  0.00000000000E+00 0. -1.
</event>
<event>
 7    1  0.8697654E-014  0.5052887E+02  0.7816164E-02  0.1300439E+00
        -11   -1    0    0    0    0  0.00000000000E+00  0.00000000000E+00  0.45593999997E+02  0.45594000000E+02  0.51100000000E-03 0. -1.
         11   -1    0    0    0    0 -0.00000000000E+00 -0.00000000000E+00 -0.45593999997E+02  0.45594000000E+02  0.51100000000E-03 0.  1.
    9900012    2    1    2    0    0  0.19836505080E+01 -0.16022473838E+02  0.37316357291E+02  0.50528867462E+02  0.30000023138E+02 0.  0.
        -12    1    1    2    0    0 -0.19836505080E+01  0.16022473838E+02 -0.37316357291E+02  0.40659132538E+02  0.00000000000E+00 0.  1.
         11    1    3    3    0    0  0.24968959266E+01 -0.20596122283E+00 -0.46613445707E+00  0.25483702413E+01  0.51100000000E-03 0. -1.
        -11    1    3    3    0    0 -0.20747839067E+01 -0.65103546349E+00 -0.34172495192E+01  0.40504530576E+01  0.51100000000E-03 0.  1.
         12    1    3    3    0    0  0.15615384881E+01 -0.15165477152E+02  0.41199741267E+02  0.43930044163E+02  0.00000000000E+00 0. -1.
</event>
<event>
 7    1  0.8697654E-014  0.5052886E+02  0.7816164E-02  0.1300439E+00
        -11   -1    0    0    0    0  0.00000000000E+00  0.00000000000E+00  0.45593999997E+02  0.45594000000E+02  0.51100000000E-03 0. -1.
         11   -1    0    0    0    0 -0.00000000000E+00 -0.00000000000E+00 -0.45593999997E+02  0.45594000000E+02  0.51100000000E-03 0.  1.
    9900012    2    1    2    0    0 -0.78847749191E+01 -0.30175861080E+02  0.26084731996E+02  0.50528861903E+02  0.30000006241E+02 0.  0.
        -12    1    1    2    0    0  0.78847749191E+01  0.30175861080E+02 -0.26084731996E+02  0.40659138097E+02  0.00000000000E+00 0.  1.
         11    1    3    3    0    0 -0.42661582639E+01 -0.34331805716E+01 -0.16246285878E+01  0.57119395549E+01  0.51100000000E-03 0.  1.
        -11    1    3    3    0    0 -0.10449731284E+02 -0.25332452556E+02  0.17719719972E+02  0.32633089228E+02  0.51100000000E-03 0. -1.
        -12    1    3    3    0    0  0.68311146284E+01 -0.14102279525E+01  0.99896406119E+01  0.12183833120E+02  0.00000000000E+00 0.  1.
</event>
<event>
 7    1  0.8697654E-014  0.5052887E+02  0.7816164E-02  0.1300439E+00
        -11   -1    0    0    0    0  0.00000000000E+00  0.00000000000E+00  0.45593999997E+02  0.45594000000E+02  0.51100000000E-03 0. -1.
         11   -1    0    0    0    0 -0.00000000000E+00 -0.00000000000E+00 -0.45593999997E+02  0.45594000000E+02  0.51100000000E-03 0.  1.
    9900012    2    1    2    0    0 -0.31747495083E+01  0.10331995905E+02 -0.39196119749E+02  0.50528868464E+02  0.30000026184E+02 0.  0.
         12    1    1    2    0    0  0.31747495083E+01 -0.10331995905E+02  0.39196119749E+02  0.40659131536E+02  0.00000000000E+00 0. -1.
         11    1    3    3    0    0 -0.90383035664E+01  0.96094949520E+01 -0.61602244258E+01  0.14559590991E+02  0.51100000000E-03 0. -1.
        -11    1    3    3    0    0  0.28483061270E+01  0.13377419187E+01 -0.38110427718E+00  0.31698015656E+01  0.51100000000E-03 0.  1.
        -12    1    3    3    0    0  0.30152479311E+01 -0.61524096544E+00 -0.32654791046E+02  0.32799475908E+02  0.00000000000E+00 0.  1.
</event>
<event>
 7    1  0.8697654E-014  0.5052885E+02  0.7816164E-02  0.1300439E+00
        -11   -1    0    0    0    0  0.00000000000E+00  0.00000000000E+00  0.45593999997E+02  0.45594000000E+02  0.51100000000E-03 0. -1.
         11   -1    0    0    0    0 -0.00000000000E+00 -0.00000000000E+00 -0.45593999997E+02  0.45594000000E+02  0.51100000000E-03 0.  1.
    9900012    2    1    2    0    0  0.18731398646E+02  0.13079888568E+02 -0.33633575516E+02  0.50528853647E+02  0.29999981144E+02 0.  0.
         12    1    1    2    0    0 -0.18731398646E+02 -0.13079888568E+02  0.33633575516E+02  0.40659146353E+02  0.00000000000E+00 0. -1.
         11    1    3    3    0    0  0.18516326544E+02  0.36948685830E+01 -0.79159824820E+01  0.20473621601E+02  0.51100000000E-03 0. -1.
        -11    1    3    3    0    0  0.25689993137E+01 -0.24122223934E+01 -0.57912684047E+01  0.67791861123E+01  0.51100000000E-03 0.  1.
        -12    1    3    3    0    0 -0.23539272123E+01  0.11797242378E+02 -0.19926324630E+02  0.23276045933E+02  0.00000000000E+00 0.  1.
</event>
<event>
 7    1  0.8697654E-014  0.5052886E+02  0.7816164E-02  0.1300439E+00
        -11   -1    0    0    0    0  0.00000000000E+00  0.00000000000E+00  0.45593999997E+02  0.45594000000E+02  0.51100000000E-03 0. -1.
         11   -1    0    0    0    0 -0.00000000000E+00 -0.00000000000E+00 -0.45593999997E+02  0.45594000000E+02  0.51100000000E-03 0.  1.
    9900012    2    1    2    0    0 -0.29695732667E+02  0.15693769762E+02  0.22913642081E+02  0.50528856608E+02  0.29999990145E+02 0.  0.
        -12    1    1    2    0    0  0.29695732667E+02 -0.15693769762E+02 -0.22913642081E+02  0.40659143392E+02  0.00000000000E+00 0.  1.
         11    1    3    3    0    0 -0.14440809334E+02  0.18532385375E+02  0.77723117455E+01  0.24746618194E+02  0.51100000000E-03 0. -1.
        -11    1    3    3    0    0  0.19147934709E+01  0.30387632627E+00  0.55214675738E+01  0.58519551679E+01  0.51100000000E-03 0.  1.
        -12    1    3    3    0    0 -0.17169716804E+02 -0.31424919391E+01  0.96198627613E+01  0.19930283246E+02  0.00000000000E+00 0.  1.
</event>
<event>
 7    1  0.8697654E-014  0.5052885E+02  0.7816164E-02  0.1300439E+00
        -11   -1    0    0    0    0  0.00000000000E+00  0.00000000000E+00  0.45593999997E+02  0.45594000000E+02  0.51100000000E-03 0. -1.
         11   -1    0    0    0    0 -0.00000000000E+00 -0.00000000000E+00 -0.45593999997E+02  0.45594000000E+02  0.51100000000E-03 0.  1.
    9900012    2    1    2    0    0  0.23993576336E+02 -0.97121831543E+01  0.31355189927E+02  0.50528854137E+02  0.29999982633E+02 0.  0.
        -12    1    1    2    0    0 -0.23993576336E+02  0.97121831543E+01 -0.31355189927E+02  0.40659145863E+02  0.00000000000E+00 0.  1.
         11    1    3    3    0    0  0.10147255227E+01  0.48420440767E+01  0.95620086554E-01  0.49481513911E+01  0.51100000000E-03 0.  1.
        -11    1    3    3    0    0  0.16058796878E+02 -0.11266483101E+02  0.32359096198E+02  0.37840847053E+02  0.51100000000E-03 0. -1.
         12    1    3    3    0    0  0.69200539354E+01 -0.32877441301E+01 -0.10995263582E+01  0.77398556929E+01  0.00000000000E+00 0. -1.
</event>
<event>
 7    1  0.1005980E-013  0.5052886E+02  0.7816164E-02  0.1300439E+00
        -11   -1    0    0    0    0  0.00000000000E+00  0.00000000000E+00  0.45593999997E+02  0.45594000000E+02  0.51100000000E-03 0. -1.
         11   -1    0    0    0    0 -0.00000000000E+00 -0.00000000000E+00 -0.45593999997E+02  0.45594000000E+02  0.51100000000E-03 0.  1.
    9900012    2    1    2    0    0 -0.88531805975E+01  0.14025793451E+02 -0.37122282960E+02  0.50528861042E+02  0.30000003623E+02 0.  0.
         12    1    1    2    0    0  0.88531805975E+01 -0.14025793451E+02  0.37122282960E+02  0.40659138958E+02  0.00000000000E+00 0. -1.
         11    1    3    3    0    0 -0.84248312796E+00  0.10387090406E+02 -0.14018387514E+02  0.17467587518E+02  0.51100000000E-03 0. -1.
        -11    1    3    3    0    0 -0.10197483847E+02 -0.22786007410E+00 -0.25883771465E+02  0.27821039207E+02  0.51100000000E-03 0.  1.
         12    1    3    3    0    0  0.21867863776E+01  0.38665631194E+01  0.27798760196E+01  0.52402343174E+01  0.00000000000E+00 0. -1.
</event>
<event>
 7    1  0.8697654E-014  0.5052886E+02  0.7816164E-02  0.1300439E+00
        -11   -1    0    0    0    0  0.00000000000E+00  0.00000000000E+00  0.45593999997E+02  0.45594000000E+02  0.51100000000E-03 0. -1.
         11   -1    0    0    0    0 -0.00000000000E+00 -0.00000000000E+00 -0.45593999997E+02  0.45594000000E+02  0.51100000000E-03 0.  1.
    9900012    2    1    2    0    0  0.44888637750E+01 -0.11853174595E+02 -0.38633124388E+02  0.50528856551E+02  0.29999989974E+02 0.  0.
         12    1    1    2    0    0 -0.44888637750E+01  0.11853174595E+02  0.38633124388E+02  0.40659143449E+02  0.00000000000E+00 0. -1.
         11    1    3    3    0    0  0.96849386912E+01 -0.11224109765E+02 -0.11415262869E+02  0.18710609400E+02  0.51100000000E-03 0. -1.
        -11    1    3    3    0    0 -0.44743236541E+00  0.52327348106E+01 -0.22109995508E+01  0.56982654022E+01  0.51100000000E-03 0.  1.
        -12    1    3    3    0    0 -0.47486425508E+01 -0.58617996401E+01 -0.25006861968E+02  0.26119981749E+02  0.00000000000E+00 0.  1.
</event>
<event>
 7    1  0.8697654E-014  0.5052887E+02  0.7816164E-02  0.1300439E+00
        -11   -1    0    0    0    0  0.00000000000E+00  0.00000000000E+00  0.45593999997E+02  0.45594000000E+02  0.51100000000E-03 0. -1.
         11   -1    0    0    0    0 -0.00000000000E+00 -0.00000000000E+00 -0.45593999997E+02  0.45594000000E+02  0.51100000000E-03 0.  1.
    9900012    2    1    2    0    0 -0.32652575619E+02 -0.71351054596E+01  0.23153072878E+02  0.50528865624E+02  0.30000017552E+02 0.  0.
        -12    1    1    2    0    0  0.32652575619E+02  0.71351054596E+01 -0.23153072878E+02  0.40659134376E+02  0.00000000000E+00 0.  1.
         11    1    3    3    0    0 -0.43910159696E+01  0.18297994340E+01  0.10620375780E+02  0.11637077347E+02  0.51100000000E-03 0. -1.
        -11    1    3    3    0    0  0.30291366836E+01 -0.21913663933E-01 -0.15839671998E+01  0.34183477892E+01  0.51100000000E-03 0.  1.
         12    1    3    3    0    0 -0.31290696333E+02 -0.89429912297E+01  0.14116664297E+02  0.35473440488E+02  0.00000000000E+00 0. -1.
</event>
<event>
 7    1  0.8697654E-014  0.5052886E+02  0.7816164E-02  0.1300439E+00
        -11   -1    0    0    0    0  0.00000000000E+00  0.00000000000E+00  0.45593999997E+02  0.45594000000E+02  0.51100000000E-03 0. -1.
         11   -1    0    0    0    0 -0.00000000000E+00 -0.00000000000E+00 -0.45593999997E+02  0.45594000000E+02  0.51100000000E-03 0.  1.
    9900012    2    1    2    0    0 -0.24547895699E+02  0.44382338169E+01 -0.32107141999E+02  0.50528859945E+02  0.30000000288E+02 0.  0.
         12    1    1    2    0    0  0.24547895699E+02 -0.44382338169E+01  0.32107141999E+02  0.40659140055E+02  0.00000000000E+00 0. -1.
         11    1    3    3    0    0 -0.12153224452E+02 -0.18421796139E+00 -0.60707654321E+01  0.13586353228E+02  0.51100000000E-03 0. -1.
        -11    1    3    3    0    0 -0.10311251643E+02  0.13376250128E+02 -0.14144079444E+02  0.22029547464E+02  0.51100000000E-03 0.  1.
         12    1    3    3    0    0 -0.20834196046E+01 -0.87537983495E+01 -0.11892297124E+02  0.14912959253E+02  0.00000000000E+00 0. -1.
</event>
<event>
 7    1  0.8697654E-014  0.5052885E+02  0.7816164E-02  0.1300439E+00
        -11   -1    0    0    0    0  0.00000000000E+00  0.00000000000E+00  0.45593999997E+02  0.45594000000E+02  0.51100000000E-03 0. -1.
         11   -1    0    0    0    0 -0.00000000000E+00 -0.00000000000E+00 -0.45593999997E+02  0.45594000000E+02  0.51100000000E-03 0.  1.
    9900012    2    1    2    0    0  0.25156220692E+02  0.21351996786E+02 -0.23757587853E+02  0.50528853589E+02  0.29999980970E+02 0.  0.
         12    1    1    2    0    0 -0.25156220692E+02 -0.21351996786E+02  0.23757587853E+02  0.40659146411E+02  0.00000000000E+00 0. -1.
         11    1    3    3    0    0  0.16863576301E+02  0.10152587044E+01  0.15566595053E+01  0.16965675494E+02  0.51100000000E-03 0. -1.
        -11    1    3    3    0    0  0.19987916448E+01  0.37550774619E+01 -0.40535272883E+01  0.58759559666E+01  0.51100000000E-03 0.  1.
         12    1    3    3    0    0  0.62938527468E+01  0.16581660620E+02 -0.21260720070E+02  0.27687222129E+02  0.00000000000E+00 0. -1.
</event>
<event>
 7    1  0.8697654E-014  0.5052887E+02  0.7816164E-02  0.1300439E+00
        -11   -1    0    0    0    0  0.00000000000E+00  0.00000000000E+00  0.45593999997E+02  0.45594000000E+02  0.51100000000E-03 0. -1.
         11   -1    0    0    0    0 -0.00000000000E+00 -0.00000000000E+00 -0.45593999997E+02  0.45594000000E+02  0.51100000000E-03 0.  1.
    9900012    2    1    2    0    0 -0.18710304285E+02  0.34489891154E+02 -0.10655376425E+02  0.50528866647E+02  0.30000020661E+02 0.  0.
        -12    1    1    2    0    0  0.18710304285E+02 -0.34489891154E+02  0.10655376425E+02  0.40659133353E+02  0.00000000000E+00 0.  1.
         11    1    3    3    0    0 -0.82038813544E+01  0.27264049960E+02 -0.19923072479E+01  0.28541222432E+02  0.51100000000E-03 0. -1.
        -11    1    3    3    0    0 -0.38529124732E+01  0.35096559394E+01  0.44286721620E+01  0.68392804241E+01  0.51100000000E-03 0.  1.
         12    1    3    3    0    0 -0.66535104573E+01  0.37161852541E+01 -0.13091741339E+02  0.15148363791E+02  0.00000000000E+00 0. -1.
</event>
<event>
 7    1  0.8697654E-014  0.5052886E+02  0.7816164E-02  0.1300439E+00
        -11   -1    0    0    0    0  0.00000000000E+00  0.00000000000E+00  0.45593999997E+02  0.45594000000E+02  0.51100000000E-03 0. -1.
         11   -1    0    0    0    0 -0.00000000000E+00 -0.00000000000E+00 -0.45593999997E+02  0.45594000000E+02  0.51100000000E-03 0.  1.
    9900012    2    1    2    0    0  0.10896075146E+02  0.12153301718E+02 -0.37238932499E+02  0.50528864620E+02  0.30000014498E+02 0.  0.
         12    1    1    2    0    0 -0.10896075146E+02 -0.12153301718E+02  0.37238932499E+02  0.40659135380E+02  0.00000000000E+00 0. -1.
         11    1    3    3    0    0  0.30301040327E+01 -0.67197557329E+00 -0.15490947868E+02  0.15798814757E+02  0.51100000000E-03 0. -1.
        -11    1    3    3    0    0 -0.30756372638E+01  0.90412765761E+01 -0.21069378334E+02  0.23132724231E+02  0.51100000000E-03 0.  1.
         12    1    3    3    0    0  0.10941608377E+02  0.37840007152E+01 -0.67860629621E+00  0.11597325631E+02  0.00000000000E+00 0. -1.
</event>
<event>
 7    1  0.8697654E-014  0.5052886E+02  0.7816164E-02  0.1300439E+00
        -11   -1    0    0    0    0  0.00000000000E+00  0.00000000000E+00  0.45593999997E+02  0.45594000000E+02  0.51100000000E-03 0. -1.
         11   -1    0    0    0    0 -0.00000000000E+00 -0.00000000000E+00 -0.45593999997E+02  0.45594000000E+02  0.51100000000E-03 0.  1.
    9900012    2    1    2    0    0 -0.22891015750E+02 -0.10388918437E+02  0.31956806584E+02  0.50528859386E+02  0.29999998591E+02 0.  0.
        -12    1    1    2    0    0  0.22891015750E+02  0.10388918437E+02 -0.31956806584E+02  0.40659140614E+02  0.00000000000E+00 0.  1.
         11    1    3    3    0    0  0.16959535901E+01 -0.30557106440E+01  0.78038754848E+01  0.85506782750E+01  0.51100000000E-03 0. -1.
        -11    1    3    3    0    0 -0.41595787189E+01  0.23378461496E+00 -0.44031917646E+01  0.60617529100E+01  0.51100000000E-03 0.  1.
         12    1    3    3    0    0 -0.20427390622E+02 -0.75669924082E+01  0.28556122864E+02  0.35916428201E+02  0.00000000000E+00 0. -1.
</event>
<event>
 7    1  0.8697654E-014  0.5052887E+02  0.7816164E-02  0.1300439E+00
        -11   -1    0    0    0    0  0.00000000000E+00  0.00000000000E+00  0.45593999997E+02  0.45594000000E+02  0.51100000000E-03 0. -1.
         11   -1    0    0    0    0 -0.00000000000E+00 -0.00000000000E+00 -0.45593999997E+02  0.45594000000E+02  0.51100000000E-03 0.  1.
    9900012    2    1    2    0    0  0.38225384380E+02 -0.13612766490E+02 -0.25841061984E+01  0.50528867848E+02  0.30000024312E+02 0.  0.
        -12    1    1    2    0    0 -0.38225384380E+02  0.13612766490E+02  0.25841061984E+01  0.40659132152E+02  0.00000000000E+00 0.  1.
         11    1    3    3    0    0 -0.36156276588E+01 -0.11165605778E+01 -0.15144631726E+01  0.40759133766E+01  0.51100000000E-03 0. -1.
        -11    1    3    3    0    0  0.61312438959E+01 -0.70568664864E+01  0.36268952557E+01  0.10027257141E+02  0.51100000000E-03 0.  1.
         12    1    3    3    0    0  0.35709768143E+02 -0.54393394254E+01 -0.46965382814E+01  0.36425697331E+02  0.00000000000E+00 0. -1.
</event>
<event>
 7    1  0.8697654E-014  0.5052884E+02  0.7816164E-02  0.1300439E+00
        -11   -1    0    0    0    0  0.00000000000E+00  0.00000000000E+00  0.45593999997E+02  0.45594000000E+02  0.51100000000E-03 0. -1.
         11   -1    0    0    0    0 -0.00000000000E+00 -0.00000000000E+00 -0.45593999997E+02  0.45594000000E+02  0.51100000000E-03 0.  1.
    9900012    2    1    2    0    0 -0.28600457617E+02  0.87056586180E-01 -0.28899364097E+02  0.50528843591E+02  0.29999950578E+02 0.  0.
         12    1    1    2    0    0  0.28600457617E+02 -0.87056586180E-01  0.28899364097E+02  0.40659156409E+02  0.00000000000E+00 0. -1.
         11    1    3    3    0    0 -0.47215881751E+01  0.96018702650E+00  0.41821384248E+01  0.63800968713E+01  0.51100000000E-03 0. -1.
        -11    1    3    3    0    0 -0.10754705706E+02 -0.65490308819E+01 -0.70049883387E+01  0.14409141619E+02  0.51100000000E-03 0.  1.
        -12    1    3    3    0    0 -0.13124163736E+02  0.56759004416E+01 -0.26076514183E+02  0.29739605100E+02  0.00000000000E+00 0.  1.
</event>
<event>
 7    1  0.8697654E-014  0.5052879E+02  0.7816164E-02  0.1300439E+00
        -11   -1    0    0    0    0  0.00000000000E+00  0.00000000000E+00  0.45593999997E+02  0.45594000000E+02  0.51100000000E-03 0. -1.
         11   -1    0    0    0    0 -0.00000000000E+00 -0.00000000000E+00 -0.45593999997E+02  0.45594000000E+02  0.51100000000E-03 0.  1.
    9900012    2    1    2    0    0  0.57627562911E+01 -0.91600825824E+01  0.39192538230E+02  0.50528787933E+02  0.29999781401E+02 0.  0.
        -12    1    1    2    0    0 -0.57627562911E+01  0.91600825824E+01 -0.39192538230E+02  0.40659212067E+02  0.00000000000E+00 0.  1.
         11    1    3    3    0    0 -0.49953749451E+01 -0.33180222981E+00  0.11256101016E+02  0.12319239989E+02  0.51100000000E-03 0.  1.
        -11    1    3    3    0    0 -0.58988824348E+01  0.12293613286E+01  0.10378522828E+02  0.12000911616E+02  0.51100000000E-03 0. -1.
        -12    1    3    3    0    0  0.16657013671E+02 -0.10057641681E+02  0.17557914386E+02  0.26208636329E+02  0.00000000000E+00 0.  1.
</event>
<event>
 7    1  0.8697654E-014  0.5052887E+02  0.7816164E-02  0.1300439E+00
        -11   -1    0    0    0    0  0.00000000000E+00  0.00000000000E+00  0.45593999997E+02  0.45594000000E+02  0.51100000000E-03 0. -1.
         11   -1    0    0    0    0 -0.00000000000E+00 -0.00000000000E+00 -0.45593999997E+02  0.45594000000E+02  0.51100000000E-03 0.  1.
    9900012    2    1    2    0    0 -0.69757221203E+01  0.58595603088E+01 -0.39625364255E+02  0.50528872630E+02  0.30000038848E+02 0.  0.
         12    1    1    2    0    0  0.69757221203E+01 -0.58595603088E+01  0.39625364255E+02  0.40659127370E+02  0.00000000000E+00 0. -1.
         11    1    3    3    0    0 -0.12534600289E+01  0.40577607692E+01 -0.31167568872E+01  0.52678988467E+01  0.51100000000E-03 0. -1.
        -11    1    3    3    0    0 -0.30275431115E+01  0.39039898196E+01 -0.40041711204E+02  0.40345331703E+02  0.51100000000E-03 0.  1.
         12    1    3    3    0    0 -0.26947189799E+01 -0.21021902801E+01  0.35331038360E+01  0.49156420812E+01  0.00000000000E+00 0. -1.
</event>
<event>
 7    1  0.8697654E-014  0.5052886E+02  0.7816164E-02  0.1300439E+00
        -11   -1    0    0    0    0  0.00000000000E+00  0.00000000000E+00  0.45593999997E+02  0.45594000000E+02  0.51100000000E-03 0. -1.
         11   -1    0    0    0    0 -0.00000000000E+00 -0.00000000000E+00 -0.45593999997E+02  0.45594000000E+02  0.51100000000E-03 0.  1.
    9900012    2    1    2    0    0  0.30578557563E+02 -0.57968410059E+01 -0.26163226469E+02  0.50528856286E+02  0.29999989167E+02 0.  0.
         12    1    1    2    0    0 -0.30578557563E+02  0.57968410059E+01  0.26163226469E+02  0.40659143714E+02  0.00000000000E+00 0. -1.
         11    1    3    3    0    0 -0.88440602002E+00 -0.78388603761E-01 -0.27636438073E+01  0.29027652568E+01  0.51100000000E-03 0. -1.
        -11    1    3    3    0    0  0.34990816491E+02 -0.95305380361E+01 -0.19947070513E+02  0.41389298330E+02  0.51100000000E-03 0.  1.
         12    1    3    3    0    0 -0.35278529086E+01  0.38120856339E+01 -0.34525121495E+01  0.62367926988E+01  0.00000000000E+00 0. -1.
</event>
<event>
 7    1  0.8697654E-014  0.5052884E+02  0.7816164E-02  0.1300439E+00
        -11   -1    0    0    0    0  0.00000000000E+00  0.00000000000E+00  0.45593999997E+02  0.45594000000E+02  0.51100000000E-03 0. -1.
         11   -1    0    0    0    0 -0.00000000000E+00 -0.00000000000E+00 -0.45593999997E+02  0.45594000000E+02  0.51100000000E-03 0.  1.
    9900012    2    1    2    0    0  0.27484432727E+02  0.62798911493E+01 -0.29297374198E+02  0.50528841006E+02  0.29999942721E+02 0.  0.
         12    1    1    2    0    0 -0.27484432727E+02 -0.62798911493E+01  0.29297374198E+02  0.40659158994E+02  0.00000000000E+00 0. -1.
         11    1    3    3    0    0 -0.14823557741E+01 -0.29113648355E+01  0.26423589949E+01  0.42018430677E+01  0.51100000000E-03 0. -1.
        -11    1    3    3    0    0  0.15651353520E+02 -0.21595780870E+01 -0.12294058358E+02  0.20019303577E+02  0.51100000000E-03 0.  1.
        -12    1    3    3    0    0  0.13315434981E+02  0.11350834072E+02 -0.19645674835E+02  0.26307694361E+02  0.00000000000E+00 0.  1.
</event>
<event>
 7    1  0.8697654E-014  0.5052886E+02  0.7816164E-02  0.1300439E+00
        -11   -1    0    0    0    0  0.00000000000E+00  0.00000000000E+00  0.45593999997E+02  0.45594000000E+02  0.51100000000E-03 0. -1.
         11   -1    0    0    0    0 -0.00000000000E+00 -0.00000000000E+00 -0.45593999997E+02  0.45594000000E+02  0.51100000000E-03 0.  1.
    9900012    2    1    2    0    0 -0.83353793700E+01  0.28439153120E+02 -0.27837053227E+02  0.50528861891E+02  0.30000006204E+02 0.  0.
         12    1    1    2    0    0  0.83353793700E+01 -0.28439153120E+02  0.27837053227E+02  0.40659138109E+02  0.00000000000E+00 0. -1.
         11    1    3    3    0    0  0.46008218582E+01 -0.48139841334E+00 -0.16134020280E+01  0.48992216289E+01  0.51100000000E-03 0. -1.
        -11    1    3    3    0    0 -0.51672865912E+01  0.23471445787E+01 -0.14486730092E+02  0.15558768827E+02  0.51100000000E-03 0.  1.
        -12    1    3    3    0    0 -0.77689146371E+01  0.26573406954E+02 -0.11736921107E+02  0.30070871435E+02  0.00000000000E+00 0.  1.
</event>
<event>
 7    1  0.8697654E-014  0.5052885E+02  0.7816164E-02  0.1300439E+00
        -11   -1    0    0    0    0  0.00000000000E+00  0.00000000000E+00  0.45593999997E+02  0.45594000000E+02  0.51100000000E-03 0. -1.
         11   -1    0    0    0    0 -0.00000000000E+00 -0.00000000000E+00 -0.45593999997E+02  0.45594000000E+02  0.51100000000E-03 0.  1.
    9900012    2    1    2    0    0 -0.43315435681E+01 -0.22499323473E+02 -0.33588461891E+02  0.50528848526E+02  0.29999965579E+02 0.  0.
         12    1    1    2    0    0  0.43315435681E+01  0.22499323473E+02  0.33588461891E+02  0.40659151474E+02  0.00000000000E+00 0. -1.
         11    1    3    3    0    0 -0.76898195446E+00 -0.10266264889E+02 -0.56168969197E+00  0.10310335765E+02  0.51100000000E-03 0. -1.
        -11    1    3    3    0    0  0.32780552259E+01  0.16883188318E+01  0.47530082712E-01  0.36875908005E+01  0.51100000000E-03 0.  1.
        -12    1    3    3    0    0 -0.68406168396E+01 -0.13921377416E+02 -0.33074302281E+02  0.36530921961E+02  0.00000000000E+00 0.  1.
</event>
<event>
 7    1  0.8697654E-014  0.5052886E+02  0.7816164E-02  0.1300439E+00
        -11   -1    0    0    0    0  0.00000000000E+00  0.00000000000E+00  0.45593999997E+02  0.45594000000E+02  0.51100000000E-03 0. -1.
         11   -1    0    0    0    0 -0.00000000000E+00 -0.00000000000E+00 -0.45593999997E+02  0.45594000000E+02  0.51100000000E-03 0.  1.
    9900012    2    1    2    0    0  0.36659323903E+01  0.83641716736E+00  0.40484900195E+02  0.50528858374E+02  0.29999995514E+02 0.  0.
        -12    1    1    2    0    0 -0.36659323903E+01 -0.83641716736E+00 -0.40484900195E+02  0.40659141626E+02  0.00000000000E+00 0.  1.
         11    1    3    3    0    0  0.32492723541E+01 -0.38868036910E+01  0.73047342352E+01  0.88895532099E+01  0.51100000000E-03 0. -1.
        -11    1    3    3    0    0 -0.72774633526E+01 -0.52861977417E+01  0.39979082001E+01  0.98432022051E+01  0.51100000000E-03 0.  1.
         12    1    3    3    0    0  0.76941233887E+01  0.10009418600E+02  0.29182257760E+02  0.31796102959E+02  0.00000000000E+00 0. -1.
</event>
<event>
 7    1  0.8697654E-014  0.5052886E+02  0.7816164E-02  0.1300439E+00
        -11   -1    0    0    0    0  0.00000000000E+00  0.00000000000E+00  0.45593999997E+02  0.45594000000E+02  0.51100000000E-03 0. -1.
         11   -1    0    0    0    0 -0.00000000000E+00 -0.00000000000E+00 -0.45593999997E+02  0.45594000000E+02  0.51100000000E-03 0.  1.
    9900012    2    1    2    0    0 -0.54995483317E+01 -0.40093615353E+02 -0.39271702702E+01  0.50528859696E+02  0.29999999531E+02 0.  0.
         12    1    1    2    0    0  0.54995483317E+01  0.40093615353E+02  0.39271702702E+01  0.40659140304E+02  0.00000000000E+00 0. -1.
         11    1    3    3    0    0 -0.61761822753E+01 -0.14331239119E+02 -0.17547534761E+01  0.15703783054E+02  0.51100000000E-03 0.  1.
        -11    1    3    3    0    0 -0.47555572397E+01 -0.13121980510E+02  0.94163348916E+01  0.16836539437E+02  0.51100000000E-03 0. -1.
         12    1    3    3    0    0  0.54321911833E+01 -0.12640395725E+02 -0.11588751686E+02  0.17988537205E+02  0.00000000000E+00 0. -1.
</event>
<event>
 7    1  0.8697654E-014  0.5052888E+02  0.7816164E-02  0.1300439E+00
        -11   -1    0    0    0    0  0.00000000000E+00  0.00000000000E+00  0.45593999997E+02  0.45594000000E+02  0.51100000000E-03 0. -1.
         11   -1    0    0    0    0 -0.00000000000E+00 -0.00000000000E+00 -0.45593999997E+02  0.45594000000E+02  0.51100000000E-03 0.  1.
    9900012    2    1    2    0    0 -0.50975641147E+01 -0.36302087976E+02 -0.17587997623E+02  0.50528875418E+02  0.30000047322E+02 0.  0.
         12    1    1    2    0    0  0.50975641147E+01  0.36302087976E+02  0.17587997623E+02  0.40659124582E+02  0.00000000000E+00 0. -1.
         11    1    3    3    0    0  0.22069887655E+01 -0.81227419054E+01 -0.49777449811E+01  0.97789406804E+01  0.51100000000E-03 0. -1.
        -11    1    3    3    0    0 -0.15883127164E+02 -0.21754873642E+02 -0.13239618454E+02  0.30013925980E+02  0.51100000000E-03 0.  1.
         12    1    3    3    0    0  0.85785742833E+01 -0.64244724285E+01  0.62936581174E+00  0.10736008758E+02  0.00000000000E+00 0. -1.
</event>
<event>
 7    1  0.8697654E-014  0.5052885E+02  0.7816164E-02  0.1300439E+00
        -11   -1    0    0    0    0  0.00000000000E+00  0.00000000000E+00  0.45593999997E+02  0.45594000000E+02  0.51100000000E-03 0. -1.
         11   -1    0    0    0    0 -0.00000000000E+00 -0.00000000000E+00 -0.45593999997E+02  0.45594000000E+02  0.51100000000E-03 0.  1.
    9900012    2    1    2    0    0  0.29519028002E+01  0.62653743198E+01  0.40064915300E+02  0.50528854860E+02  0.29999984833E+02 0.  0.
        -12    1    1    2    0    0 -0.29519028002E+01 -0.62653743198E+01 -0.40064915300E+02  0.40659145140E+02  0.00000000000E+00 0.  1.
         11    1    3    3    0    0 -0.65512624402E+01 -0.34127237069E+01  0.95713604294E+01  0.12090354147E+02  0.51100000000E-03 0. -1.
        -11    1    3    3    0    0 -0.62914609897E+00  0.23743120882E+01 -0.22887597284E+01  0.33573209649E+01  0.51100000000E-03 0.  1.
        -12    1    3    3    0    0  0.10132311339E+02  0.73037859384E+01  0.32782314599E+02  0.35081179749E+02  0.00000000000E+00 0.  1.
</event>
<event>
 7    1  0.8697654E-014  0.5052888E+02  0.7816164E-02  0.1300439E+00
        -11   -1    0    0    0    0  0.00000000000E+00  0.00000000000E+00  0.45593999997E+02  0.45594000000E+02  0.51100000000E-03 0. -1.
         11   -1    0    0    0    0 -0.00000000000E+00 -0.00000000000E+00 -0.45593999997E+02  0.45594000000E+02  0.51100000000E-03 0.  1.
    9900012    2    1    2    0    0  0.10508387184E+02  0.14127013298E+02 -0.36649221778E+02  0.50528878479E+02  0.30000056625E+02 0.  0.
         12    1    1    2    0    0 -0.10508387184E+02 -0.14127013298E+02  0.36649221778E+02  0.40659121521E+02  0.00000000000E+00 0. -1.
         11    1    3    3    0    0  0.60017525906E+01  0.40698798242E+01 -0.78011748049E+00  0.72933901230E+01  0.51100000000E-03 0. -1.
        -11    1    3    3    0    0  0.10773515327E+02  0.12710312005E+02 -0.29677948820E+02  0.34035295065E+02  0.51100000000E-03 0.  1.
        -12    1    3    3    0    0 -0.62668807335E+01 -0.26531785305E+01 -0.61911554776E+01  0.92001932909E+01  0.00000000000E+00 0.  1.
</event>
<event>
 7    1  0.8697654E-014  0.5052882E+02  0.7816164E-02  0.1300439E+00
        -11   -1    0    0    0    0  0.00000000000E+00  0.00000000000E+00  0.45593999997E+02  0.45594000000E+02  0.51100000000E-03 0.  1.
         11   -1    0    0    0    0 -0.00000000000E+00 -0.00000000000E+00 -0.45593999997E+02  0.45594000000E+02  0.51100000000E-03 0. -1.
    9900012    2    1    2    0    0 -0.15712938115E+02  0.36018177174E+02  0.10438553673E+02  0.50528820054E+02  0.29999879035E+02 0.  0.
        -12    1    1    2    0    0  0.15712938115E+02 -0.36018177174E+02 -0.10438553673E+02  0.40659179946E+02  0.00000000000E+00 0.  1.
         11    1    3    3    0    0 -0.14993579200E+02  0.21035579112E+02  0.15361258536E+02  0.30054471712E+02  0.51100000000E-03 0. -1.
        -11    1    3    3    0    0 -0.33016338085E+01 -0.10899578513E+01 -0.17379677566E+01  0.38870716622E+01  0.51100000000E-03 0.  1.
         12    1    3    3    0    0  0.25822748929E+01  0.16072555913E+02 -0.31847371074E+01  0.16587276679E+02  0.00000000000E+00 0. -1.
</event>
<event>
 7    1  0.8697654E-014  0.5052886E+02  0.7816164E-02  0.1300439E+00
        -11   -1    0    0    0    0  0.00000000000E+00  0.00000000000E+00  0.45593999997E+02  0.45594000000E+02  0.51100000000E-03 0.  1.
         11   -1    0    0    0    0 -0.00000000000E+00 -0.00000000000E+00 -0.45593999997E+02  0.45594000000E+02  0.51100000000E-03 0. -1.
    9900012    2    1    2    0    0  0.11345795982E+01 -0.33975900069E+02  0.22305079869E+02  0.50528860261E+02  0.30000001249E+02 0.  0.
        -12    1    1    2    0    0 -0.11345795982E+01  0.33975900069E+02 -0.22305079869E+02  0.40659139739E+02  0.00000000000E+00 0.  1.
         11    1    3    3    0    0  0.11935918011E+01 -0.33320538237E+02  0.15619245278E+02  0.36819067793E+02  0.51100000000E-03 0. -1.
        -11    1    3    3    0    0 -0.18960355737E+01 -0.33373730094E+01  0.89565979514E+01  0.97444166898E+01  0.51100000000E-03 0.  1.
        -12    1    3    3    0    0  0.18370233708E+01  0.26820111777E+01 -0.22707633605E+01  0.39653757781E+01  0.00000000000E+00 0.  1.
</event>
<event>
 7    1  0.8697654E-014  0.5052886E+02  0.7816164E-02  0.1300439E+00
        -11   -1    0    0    0    0  0.00000000000E+00  0.00000000000E+00  0.45593999997E+02  0.45594000000E+02  0.51100000000E-03 0. -1.
         11   -1    0    0    0    0 -0.00000000000E+00 -0.00000000000E+00 -0.45593999997E+02  0.45594000000E+02  0.51100000000E-03 0.  1.
    9900012    2    1    2    0    0  0.10890761183E+02 -0.28796427581E+02 -0.26557907543E+02  0.50528863589E+02  0.30000011366E+02 0.  0.
         12    1    1    2    0    0 -0.10890761183E+02  0.28796427581E+02  0.26557907543E+02  0.40659136411E+02  0.00000000000E+00 0. -1.
         11    1    3    3    0    0  0.26893645559E+01 -0.13726626400E+01 -0.72637421586E+01  0.78663101163E+01  0.51100000000E-03 0. -1.
        -11    1    3    3    0    0 -0.36606444483E+01  0.17584931178E+01 -0.84013288021E+01  0.93313954864E+01  0.51100000000E-03 0.  1.
        -12    1    3    3    0    0  0.11862041075E+02 -0.29182258059E+02 -0.10892836583E+02  0.33331157987E+02  0.00000000000E+00 0.  1.
</event>
<event>
 7    1  0.8697654E-014  0.5052886E+02  0.7816164E-02  0.1300439E+00
        -11   -1    0    0    0    0  0.00000000000E+00  0.00000000000E+00  0.45593999997E+02  0.45594000000E+02  0.51100000000E-03 0. -1.
         11   -1    0    0    0    0 -0.00000000000E+00 -0.00000000000E+00 -0.45593999997E+02  0.45594000000E+02  0.51100000000E-03 0.  1.
    9900012    2    1    2    0    0 -0.20664490384E+02 -0.72646750708E+01  0.34254472420E+02  0.50528861451E+02  0.30000004868E+02 0.  0.
        -12    1    1    2    0    0  0.20664490384E+02  0.72646750708E+01 -0.34254472420E+02  0.40659138549E+02  0.00000000000E+00 0.  1.
         11    1    3    3    0    0 -0.52413723598E+01 -0.11978843304E+01  0.12977192407E+02  0.14046865633E+02  0.51100000000E-03 0. -1.
        -11    1    3    3    0    0 -0.13490034932E+00 -0.58755779735E+01  0.20330901249E+02  0.21163321112E+02  0.51100000000E-03 0.  1.
        -12    1    3    3    0    0 -0.15288217675E+02 -0.19121276686E+00  0.94637876421E+00  0.15318674707E+02  0.00000000000E+00 0.  1.
</event>
<event>
 7    1  0.8697654E-014  0.5052885E+02  0.7816164E-02  0.1300439E+00
        -11   -1    0    0    0    0  0.00000000000E+00  0.00000000000E+00  0.45593999997E+02  0.45594000000E+02  0.51100000000E-03 0. -1.
         11   -1    0    0    0    0 -0.00000000000E+00 -0.00000000000E+00 -0.45593999997E+02  0.45594000000E+02  0.51100000000E-03 0.  1.
    9900012    2    1    2    0    0 -0.16936749312E+02 -0.17036631482E+02  0.32803443316E+02  0.50528853638E+02  0.29999981119E+02 0.  0.
        -12    1    1    2    0    0  0.16936749312E+02  0.17036631482E+02 -0.32803443316E+02  0.40659146362E+02  0.00000000000E+00 0.  1.
         11    1    3    3    0    0  0.11360413505E+01 -0.14171565916E+02  0.82383514572E+01  0.16431503445E+02  0.51100000000E-03 0. -1.
        -11    1    3    3    0    0 -0.70822700130E+00  0.39713461695E+01  0.12292117405E+01  0.42171243339E+01  0.51100000000E-03 0.  1.
         12    1    3    3    0    0 -0.17364563661E+02 -0.68364117351E+01  0.23335880118E+02  0.29880225860E+02  0.00000000000E+00 0. -1.
</event>
<event>
 7    1  0.8697654E-014  0.5052886E+02  0.7816164E-02  0.1300439E+00
        -11   -1    0    0    0    0  0.00000000000E+00  0.00000000000E+00  0.45593999997E+02  0.45594000000E+02  0.51100000000E-03 0. -1.
         11   -1    0    0    0    0 -0.00000000000E+00 -0.00000000000E+00 -0.45593999997E+02  0.45594000000E+02  0.51100000000E-03 0.  1.
    9900012    2    1    2    0    0 -0.22536239210E+02 -0.20854173008E+02 -0.26653092345E+02  0.50528856612E+02  0.29999990156E+02 0.  0.
         12    1    1    2    0    0  0.22536239210E+02  0.20854173008E+02  0.26653092345E+02  0.40659143388E+02  0.00000000000E+00 0. -1.
         11    1    3    3    0    0 -0.53813478367E+01 -0.18450539918E+02 -0.67497224769E+01  0.20370078095E+02  0.51100000000E-03 0. -1.
        -11    1    3    3    0    0 -0.10670135601E+02 -0.70525500136E+01 -0.59979446336E+01  0.14126768757E+02  0.51100000000E-03 0.  1.
        -12    1    3    3    0    0 -0.64847557724E+01  0.46489169239E+01 -0.13905425234E+02  0.16032009760E+02  0.00000000000E+00 0.  1.
</event>
<event>
 7    1  0.8697654E-014  0.5052886E+02  0.7816164E-02  0.1300439E+00
        -11   -1    0    0    0    0  0.00000000000E+00  0.00000000000E+00  0.45593999997E+02  0.45594000000E+02  0.51100000000E-03 0. -1.
         11   -1    0    0    0    0 -0.00000000000E+00 -0.00000000000E+00 -0.45593999997E+02  0.45594000000E+02  0.51100000000E-03 0.  1.
    9900012    2    1    2    0    0 -0.12027686462E+02  0.26470504331E+02  0.28422042039E+02  0.50528864312E+02  0.30000013564E+02 0.  0.
        -12    1    1    2    0    0  0.12027686462E+02 -0.26470504331E+02 -0.28422042039E+02  0.40659135688E+02  0.00000000000E+00 0.  1.
         11    1    3    3    0    0 -0.19918826452E+01  0.29381062187E+02  0.21793651309E+02  0.36635742784E+02  0.51100000000E-03 0. -1.
        -11    1    3    3    0    0 -0.29985292750E-01 -0.21833676477E+00 -0.10014249191E+01  0.10253887996E+01  0.51100000000E-03 0.  1.
        -12    1    3    3    0    0 -0.10005818524E+02 -0.26922210905E+01  0.76298156491E+01  0.12867732729E+02  0.00000000000E+00 0.  1.
</event>
<event>
 7    1  0.8697654E-014  0.5052887E+02  0.7816164E-02  0.1300439E+00
        -11   -1    0    0    0    0  0.00000000000E+00  0.00000000000E+00  0.45593999997E+02  0.45594000000E+02  0.51100000000E-03 0. -1.
         11   -1    0    0    0    0 -0.00000000000E+00 -0.00000000000E+00 -0.45593999997E+02  0.45594000000E+02  0.51100000000E-03 0.  1.
    9900012    2    1    2    0    0 -0.73599375602E+01 -0.27140447793E+02  0.29366513707E+02  0.50528871694E+02  0.30000036001E+02 0.  0.
        -12    1    1    2    0    0  0.73599375602E+01  0.27140447793E+02 -0.29366513707E+02  0.40659128306E+02  0.00000000000E+00 0.  1.
         11    1    3    3    0    0 -0.93772277096E+01 -0.14005069085E+02  0.22284265908E+02  0.27940344789E+02  0.51100000000E-03 0. -1.
        -11    1    3    3    0    0 -0.35332385351E+01  0.20560002919E+01  0.47186154100E+01  0.62430956580E+01  0.51100000000E-03 0.  1.
        -12    1    3    3    0    0  0.55505286844E+01 -0.15191379000E+02  0.23636323889E+01  0.16345431247E+02  0.00000000000E+00 0.  1.
</event>
<event>
 7    1  0.8697654E-014  0.5052887E+02  0.7816164E-02  0.1300439E+00
        -11   -1    0    0    0    0  0.00000000000E+00  0.00000000000E+00  0.45593999997E+02  0.45594000000E+02  0.51100000000E-03 0. -1.
         11   -1    0    0    0    0 -0.00000000000E+00 -0.00000000000E+00 -0.45593999997E+02  0.45594000000E+02  0.51100000000E-03 0.  1.
    9900012    2    1    2    0    0  0.26597252602E+01 -0.32784094883E+02  0.23901753331E+02  0.50528870299E+02  0.30000031760E+02 0.  0.
        -12    1    1    2    0    0 -0.26597252602E+01  0.32784094883E+02 -0.23901753331E+02  0.40659129701E+02  0.00000000000E+00 0.  1.
         11    1    3    3    0    0  0.29787794878E+01  0.95349858360E+00  0.88057876455E+01  0.93447409330E+01  0.51100000000E-03 0. -1.
        -11    1    3    3    0    0 -0.19615357810E+01 -0.17400763937E+01 -0.33187077586E+01  0.42295756199E+01  0.51100000000E-03 0.  1.
         12    1    3    3    0    0  0.16424815534E+01 -0.31997517073E+02  0.18414673445E+02  0.36954553746E+02  0.00000000000E+00 0. -1.
</event>
<event>
 7    1  0.8697654E-014  0.5052886E+02  0.7816164E-02  0.1300439E+00
        -11   -1    0    0    0    0  0.00000000000E+00  0.00000000000E+00  0.45593999997E+02  0.45594000000E+02  0.51100000000E-03 0. -1.
         11   -1    0    0    0    0 -0.00000000000E+00 -0.00000000000E+00 -0.45593999997E+02  0.45594000000E+02  0.51100000000E-03 0.  1.
    9900012    2    1    2    0    0 -0.79338602545E+00 -0.66565901378E+01  0.40102694260E+02  0.50528859077E+02  0.29999997651E+02 0.  0.
        -12    1    1    2    0    0  0.79338602545E+00  0.66565901378E+01 -0.40102694260E+02  0.40659140923E+02  0.00000000000E+00 0.  1.
         11    1    3    3    0    0  0.60062270605E+00  0.20156768481E+01  0.26330435108E+02  0.26414305102E+02  0.51100000000E-03 0. -1.
        -11    1    3    3    0    0  0.81754061278E+01 -0.47106990140E+01  0.63785388456E+01  0.11389192624E+02  0.51100000000E-03 0.  1.
        -12    1    3    3    0    0 -0.95694148593E+01 -0.39615679719E+01  0.73937203065E+01  0.12725361351E+02  0.00000000000E+00 0.  1.
</event>
<event>
 7    1  0.8697654E-014  0.5052886E+02  0.7816164E-02  0.1300439E+00
        -11   -1    0    0    0    0  0.00000000000E+00  0.00000000000E+00  0.45593999997E+02  0.45594000000E+02  0.51100000000E-03 0. -1.
         11   -1    0    0    0    0 -0.00000000000E+00 -0.00000000000E+00 -0.45593999997E+02  0.45594000000E+02  0.51100000000E-03 0.  1.
    9900012    2    1    2    0    0 -0.25487962733E+02  0.77368091408E+01 -0.30719234781E+02  0.50528857787E+02  0.29999993728E+02 0.  0.
         12    1    1    2    0    0  0.25487962733E+02 -0.77368091408E+01  0.30719234781E+02  0.40659142213E+02  0.00000000000E+00 0. -1.
         11    1    3    3    0    0 -0.32819986139E+01  0.87209744149E+01 -0.10883130942E+02  0.14327227541E+02  0.51100000000E-03 0. -1.
        -11    1    3    3    0    0 -0.11619583853E+01 -0.22624115842E+01 -0.14134462579E+02  0.14361465319E+02  0.51100000000E-03 0.  1.
        -12    1    3    3    0    0 -0.21044005734E+02  0.12782463100E+01 -0.57016412608E+01  0.21840164927E+02  0.00000000000E+00 0.  1.
</event>
<event>
 7    1  0.8697654E-014  0.5052887E+02  0.7816164E-02  0.1300439E+00
        -11   -1    0    0    0    0  0.00000000000E+00  0.00000000000E+00  0.45593999997E+02  0.45594000000E+02  0.51100000000E-03 0.  1.
         11   -1    0    0    0    0 -0.00000000000E+00 -0.00000000000E+00 -0.45593999997E+02  0.45594000000E+02  0.51100000000E-03 0. -1.
    9900012    2    1    2    0    0 -0.31687791502E+02  0.23823042845E+02 -0.90283699450E+01  0.50528868621E+02  0.30000026661E+02 0.  0.
         12    1    1    2    0    0  0.31687791502E+02 -0.23823042845E+02  0.90283699450E+01  0.40659131379E+02  0.00000000000E+00 0. -1.
         11    1    3    3    0    0 -0.44826134478E+01 -0.25067327176E+01 -0.11841250842E+01  0.52706436719E+01  0.51100000000E-03 0. -1.
        -11    1    3    3    0    0 -0.46690563338E+00  0.59642522107E+01  0.63936334314E+01  0.87560752635E+01  0.51100000000E-03 0.  1.
         12    1    3    3    0    0 -0.26738272420E+02  0.20365523352E+02 -0.14237878292E+02  0.36502149686E+02  0.00000000000E+00 0. -1.
</event>
<event>
 7    1  0.8697654E-014  0.5052886E+02  0.7816164E-02  0.1300439E+00
        -11   -1    0    0    0    0  0.00000000000E+00  0.00000000000E+00  0.45593999997E+02  0.45594000000E+02  0.51100000000E-03 0. -1.
         11   -1    0    0    0    0 -0.00000000000E+00 -0.00000000000E+00 -0.45593999997E+02  0.45594000000E+02  0.51100000000E-03 0.  1.
    9900012    2    1    2    0    0  0.10246686986E+02 -0.29709267896E+02  0.25797880994E+02  0.50528857647E+02  0.29999993304E+02 0.  0.
        -12    1    1    2    0    0 -0.10246686986E+02  0.29709267896E+02 -0.25797880994E+02  0.40659142353E+02  0.00000000000E+00 0.  1.
         11    1    3    3    0    0  0.13728687808E+02 -0.19309545084E+02  0.68615876321E+01  0.24666106003E+02  0.51100000000E-03 0. -1.
        -11    1    3    3    0    0  0.35673124816E+01 -0.94558553596E+01  0.13730421758E+02  0.17048853359E+02  0.51100000000E-03 0.  1.
        -12    1    3    3    0    0 -0.70493133039E+01 -0.94386745213E+00  0.52058716034E+01  0.88138982848E+01  0.00000000000E+00 0.  1.
</event>
<event>
 7    1  0.8697654E-014  0.5052887E+02  0.7816164E-02  0.1300439E+00
        -11   -1    0    0    0    0  0.00000000000E+00  0.00000000000E+00  0.45593999997E+02  0.45594000000E+02  0.51100000000E-03 0. -1.
         11   -1    0    0    0    0 -0.00000000000E+00 -0.00000000000E+00 -0.45593999997E+02  0.45594000000E+02  0.51100000000E-03 0.  1.
    9900012    2    1    2    0    0 -0.27988317776E+02  0.20826101317E+02  0.20882820624E+02  0.50528872793E+02  0.30000039342E+02 0.  0.
        -12    1    1    2    0    0  0.27988317776E+02 -0.20826101317E+02 -0.20882820624E+02  0.40659127207E+02  0.00000000000E+00 0.  1.
         11    1    3    3    0    0 -0.16266699098E+02  0.17612987818E+02  0.73777622623E+01  0.25084940018E+02  0.51100000000E-03 0. -1.
        -11    1    3    3    0    0 -0.81043172752E+01 -0.11317963170E+01 -0.24296142295E+01  0.85360381305E+01  0.51100000000E-03 0.  1.
        -12    1    3    3    0    0 -0.36173014031E+01  0.43449098157E+01  0.15934672591E+02  0.16907894645E+02  0.00000000000E+00 0.  1.
</event>
<event>
 7    1  0.8697654E-014  0.5052886E+02  0.7816164E-02  0.1300439E+00
        -11   -1    0    0    0    0  0.00000000000E+00  0.00000000000E+00  0.45593999997E+02  0.45594000000E+02  0.51100000000E-03 0.  1.
         11   -1    0    0    0    0 -0.00000000000E+00 -0.00000000000E+00 -0.45593999997E+02  0.45594000000E+02  0.51100000000E-03 0. -1.
    9900012    2    1    2    0    0 -0.13916485772E+02 -0.33487665062E+02  0.18386773204E+02  0.50528859374E+02  0.29999998554E+02 0.  0.
         12    1    1    2    0    0  0.13916485772E+02  0.33487665062E+02 -0.18386773204E+02  0.40659140626E+02  0.00000000000E+00 0. -1.
         11    1    3    3    0    0 -0.63686930268E+01 -0.34019155530E+01  0.26593959745E+00  0.72252338668E+01  0.51100000000E-03 0. -1.
        -11    1    3    3    0    0 -0.44307886928E+01 -0.12403316918E+02 -0.49489945424E+01  0.14070064188E+02  0.51100000000E-03 0.  1.
        -12    1    3    3    0    0 -0.31170040528E+01 -0.17682432591E+02  0.23069828149E+02  0.29233561320E+02  0.00000000000E+00 0.  1.
</event>
<event>
 7    1  0.8697654E-014  0.5052896E+02  0.7816164E-02  0.1300438E+00
        -11   -1    0    0    0    0  0.00000000000E+00  0.00000000000E+00  0.45593999997E+02  0.45594000000E+02  0.51100000000E-03 0. -1.
         11   -1    0    0    0    0 -0.00000000000E+00 -0.00000000000E+00 -0.45593999997E+02  0.45594000000E+02  0.51100000000E-03 0.  1.
    9900012    2    1    2    0    0  0.20385716332E+02  0.42010592874E+00 -0.35176750616E+02  0.50528957915E+02  0.30000298078E+02 0.  0.
         12    1    1    2    0    0 -0.20385716332E+02 -0.42010592874E+00  0.35176750616E+02  0.40659042085E+02  0.00000000000E+00 0. -1.
         11    1    3    3    0    0 -0.96407291496E+00 -0.12403961498E+01  0.19405229500E+01  0.24967276132E+01  0.51100000000E-03 0. -1.
        -11    1    3    3    0    0 -0.31994217980E+00  0.16056588794E+01 -0.20904982339E+02  0.20968995929E+02  0.51100000000E-03 0.  1.
        -12    1    3    3    0    0  0.21669731427E+02  0.54843199095E-01 -0.16212291227E+02  0.27063234373E+02  0.00000000000E+00 0.  1.
</event>
<event>
 7    1  0.8697654E-014  0.5052886E+02  0.7816164E-02  0.1300439E+00
        -11   -1    0    0    0    0  0.00000000000E+00  0.00000000000E+00  0.45593999997E+02  0.45594000000E+02  0.51100000000E-03 0. -1.
         11   -1    0    0    0    0 -0.00000000000E+00 -0.00000000000E+00 -0.45593999997E+02  0.45594000000E+02  0.51100000000E-03 0.  1.
    9900012    2    1    2    0    0  0.20499229312E+02 -0.16810086611E+02 -0.30828045354E+02  0.50528858413E+02  0.29999995633E+02 0.  0.
         12    1    1    2    0    0 -0.20499229312E+02  0.16810086611E+02  0.30828045354E+02  0.40659141587E+02  0.00000000000E+00 0. -1.
         11    1    3    3    0    0  0.64576221864E+01  0.56196807330E+00 -0.22597241837E+02  0.23508552301E+02  0.51100000000E-03 0. -1.
        -11    1    3    3    0    0 -0.70876601721E+00 -0.61543778399E+01 -0.55088980913E+01  0.82901552642E+01  0.51100000000E-03 0.  1.
         12    1    3    3    0    0  0.14750373143E+02 -0.11217676844E+02 -0.27219054259E+01  0.18730150848E+02  0.00000000000E+00 0. -1.
</event>
<event>
 7    1  0.8697654E-014  0.5052885E+02  0.7816164E-02  0.1300439E+00
        -11   -1    0    0    0    0  0.00000000000E+00  0.00000000000E+00  0.45593999997E+02  0.45594000000E+02  0.51100000000E-03 0. -1.
         11   -1    0    0    0    0 -0.00000000000E+00 -0.00000000000E+00 -0.45593999997E+02  0.45594000000E+02  0.51100000000E-03 0.  1.
    9900012    2    1    2    0    0 -0.33859622356E+02 -0.15910608180E+02  0.15923083970E+02  0.50528854880E+02  0.29999984894E+02 0.  0.
        -12    1    1    2    0    0  0.33859622356E+02  0.15910608180E+02 -0.15923083970E+02  0.40659145120E+02  0.00000000000E+00 0.  1.
         11    1    3    3    0    0 -0.25053693843E+01 -0.54173526303E+01  0.13886187341E+02  0.15114588463E+02  0.51100000000E-03 0. -1.
        -11    1    3    3    0    0 -0.43935909650E+01  0.26148843153E+01  0.18442751437E+01  0.54353116393E+01  0.51100000000E-03 0.  1.
        -12    1    3    3    0    0 -0.26960662007E+02 -0.13108139865E+02  0.19262148549E+00  0.29978954778E+02  0.00000000000E+00 0.  1.
</event>
<event>
 7    1  0.8697654E-014  0.5052885E+02  0.7816164E-02  0.1300439E+00
        -11   -1    0    0    0    0  0.00000000000E+00  0.00000000000E+00  0.45593999997E+02  0.45594000000E+02  0.51100000000E-03 0. -1.
         11   -1    0    0    0    0 -0.00000000000E+00 -0.00000000000E+00 -0.45593999997E+02  0.45594000000E+02  0.51100000000E-03 0.  1.
    9900012    2    1    2    0    0 -0.54070139532E+01  0.40172692794E+02  0.31757310457E+01  0.50528852027E+02  0.29999976221E+02 0.  0.
        -12    1    1    2    0    0  0.54070139532E+01 -0.40172692794E+02 -0.31757310457E+01  0.40659147973E+02  0.00000000000E+00 0.  1.
         11    1    3    3    0    0 -0.29101617789E+01  0.48330918225E+01  0.54299505482E+01  0.78302095349E+01  0.51100000000E-03 0. -1.
        -11    1    3    3    0    0 -0.10292122115E+02  0.28551524427E+02 -0.72713774914E+01  0.31208816953E+02  0.51100000000E-03 0.  1.
        -12    1    3    3    0    0  0.77952699409E+01  0.67880765449E+01  0.50171579889E+01  0.11489825539E+02  0.00000000000E+00 0.  1.
</event>
<event>
 7    1  0.8697654E-014  0.5052886E+02  0.7816164E-02  0.1300439E+00
        -11   -1    0    0    0    0  0.00000000000E+00  0.00000000000E+00  0.45593999997E+02  0.45594000000E+02  0.51100000000E-03 0. -1.
         11   -1    0    0    0    0 -0.00000000000E+00 -0.00000000000E+00 -0.45593999997E+02  0.45594000000E+02  0.51100000000E-03 0.  1.
    9900012    2    1    2    0    0  0.11386237210E+02  0.12664941732E+02  0.36920436443E+02  0.50528858666E+02  0.29999996402E+02 0.  0.
        -12    1    1    2    0    0 -0.11386237210E+02 -0.12664941732E+02 -0.36920436443E+02  0.40659141334E+02  0.00000000000E+00 0.  1.
         11    1    3    3    0    0 -0.11347855415E+00  0.11233713582E+02  0.22822890530E+02  0.25438033152E+02  0.51100000000E-03 0. -1.
        -11    1    3    3    0    0  0.52457859439E+01  0.44154631954E+01 -0.23459178991E+01  0.72469246201E+01  0.51100000000E-03 0.  1.
         12    1    3    3    0    0  0.62539298201E+01 -0.29842350449E+01  0.16443463811E+02  0.17843900894E+02  0.00000000000E+00 0. -1.
</event>
<event>
 7    1  0.8697654E-014  0.5052885E+02  0.7816164E-02  0.1300439E+00
        -11   -1    0    0    0    0  0.00000000000E+00  0.00000000000E+00  0.45593999997E+02  0.45594000000E+02  0.51100000000E-03 0. -1.
         11   -1    0    0    0    0 -0.00000000000E+00 -0.00000000000E+00 -0.45593999997E+02  0.45594000000E+02  0.51100000000E-03 0.  1.
    9900012    2    1    2    0    0 -0.16855569900E+02 -0.25024947192E+02 -0.27254507746E+02  0.50528850832E+02  0.29999972588E+02 0.  0.
         12    1    1    2    0    0  0.16855569900E+02  0.25024947192E+02  0.27254507746E+02  0.40659149168E+02  0.00000000000E+00 0. -1.
         11    1    3    3    0    0 -0.11265631131E+01 -0.10192218204E+02  0.31754453046E+01  0.10734705842E+02  0.51100000000E-03 0. -1.
        -11    1    3    3    0    0 -0.33072206576E+01 -0.12115521801E+02 -0.11759021491E+02  0.17204597167E+02  0.51100000000E-03 0.  1.
         12    1    3    3    0    0 -0.12421786129E+02 -0.27172071869E+01 -0.18670931559E+02  0.22589547823E+02  0.00000000000E+00 0. -1.
</event>
<event>
 7    1  0.8697654E-014  0.5052891E+02  0.7816164E-02  0.1300439E+00
        -11   -1    0    0    0    0  0.00000000000E+00  0.00000000000E+00  0.45593999997E+02  0.45594000000E+02  0.51100000000E-03 0. -1.
         11   -1    0    0    0    0 -0.00000000000E+00 -0.00000000000E+00 -0.45593999997E+02  0.45594000000E+02  0.51100000000E-03 0.  1.
    9900012    2    1    2    0    0  0.16996007293E+02  0.13211148493E+02  0.34492935786E+02  0.50528913346E+02  0.30000162605E+02 0.  0.
        -12    1    1    2    0    0 -0.16996007293E+02 -0.13211148493E+02 -0.34492935786E+02  0.40659086654E+02  0.00000000000E+00 0.  1.
         11    1    3    3    0    0 -0.18335917965E+01  0.26982131609E+01  0.75083786424E+00  0.33475619333E+01  0.51100000000E-03 0.  1.
        -11    1    3    3    0    0  0.11614458383E+01 -0.75912925780E+01  0.76603139132E+01  0.10846985247E+02  0.51100000000E-03 0. -1.
         12    1    3    3    0    0  0.17668153251E+02  0.18104227910E+02  0.26081784009E+02  0.36334366165E+02  0.00000000000E+00 0. -1.
</event>
<event>
 7    1  0.8697654E-014  0.5052886E+02  0.7816164E-02  0.1300439E+00
        -11   -1    0    0    0    0  0.00000000000E+00  0.00000000000E+00  0.45593999997E+02  0.45594000000E+02  0.51100000000E-03 0. -1.
         11   -1    0    0    0    0 -0.00000000000E+00 -0.00000000000E+00 -0.45593999997E+02  0.45594000000E+02  0.51100000000E-03 0.  1.
    9900012    2    1    2    0    0  0.13682936977E+02  0.48197609126E+01  0.37983063799E+02  0.50528855947E+02  0.29999988136E+02 0.  0.
        -12    1    1    2    0    0 -0.13682936977E+02 -0.48197609126E+01 -0.37983063799E+02  0.40659144053E+02  0.00000000000E+00 0.  1.
         11    1    3    3    0    0 -0.26271489419E+01  0.40672496732E+01  0.26912353563E+01  0.55396010209E+01  0.51100000000E-03 0. -1.
        -11    1    3    3    0    0 -0.19354973607E+01 -0.25418710798E+01  0.21865703765E+02  0.22097879084E+02  0.51100000000E-03 0.  1.
        -12    1    3    3    0    0  0.18245583279E+02  0.32943823192E+01  0.13426124678E+02  0.22891375842E+02  0.00000000000E+00 0.  1.
</event>
<event>
 7    1  0.8697654E-014  0.5052886E+02  0.7816164E-02  0.1300439E+00
        -11   -1    0    0    0    0  0.00000000000E+00  0.00000000000E+00  0.45593999997E+02  0.45594000000E+02  0.51100000000E-03 0. -1.
         11   -1    0    0    0    0 -0.00000000000E+00 -0.00000000000E+00 -0.45593999997E+02  0.45594000000E+02  0.51100000000E-03 0.  1.
    9900012    2    1    2    0    0  0.14144171526E+02  0.19695275789E+02  0.32637467000E+02  0.50528859223E+02  0.29999998094E+02 0.  0.
        -12    1    1    2    0    0 -0.14144171526E+02 -0.19695275789E+02 -0.32637467000E+02  0.40659140777E+02  0.00000000000E+00 0.  1.
         11    1    3    3    0    0 -0.18757962341E+01  0.30742136676E+01  0.93928298493E+01  0.10059555359E+02  0.51100000000E-03 0. -1.
        -11    1    3    3    0    0  0.14921318124E+02  0.15610319550E+02  0.28071635005E+02  0.35416726318E+02  0.51100000000E-03 0.  1.
        -12    1    3    3    0    0  0.10986496360E+01  0.10107425711E+01 -0.48269978542E+01  0.50525775453E+01  0.00000000000E+00 0.  1.
</event>
<event>
 7    1  0.8697654E-014  0.5052887E+02  0.7816164E-02  0.1300439E+00
        -11   -1    0    0    0    0  0.00000000000E+00  0.00000000000E+00  0.45593999997E+02  0.45594000000E+02  0.51100000000E-03 0. -1.
         11   -1    0    0    0    0 -0.00000000000E+00 -0.00000000000E+00 -0.45593999997E+02  0.45594000000E+02  0.51100000000E-03 0.  1.
    9900012    2    1    2    0    0  0.19908342385E+02  0.77735892061E+00 -0.35443174227E+02  0.50528868398E+02  0.30000025981E+02 0.  0.
         12    1    1    2    0    0 -0.19908342385E+02 -0.77735892061E+00  0.35443174227E+02  0.40659131602E+02  0.00000000000E+00 0. -1.
         11    1    3    3    0    0  0.89687368698E+01 -0.11300731654E+02 -0.21124967246E+02  0.25581419397E+02  0.51100000000E-03 0. -1.
        -11    1    3    3    0    0 -0.54926990609E+00  0.13548644432E+01 -0.77963935036E+01  0.79322825853E+01  0.51100000000E-03 0.  1.
        -12    1    3    3    0    0  0.11488875421E+02  0.10723226132E+02 -0.65218134774E+01  0.17015166416E+02  0.00000000000E+00 0.  1.
</event>
<event>
 7    1  0.8697654E-014  0.5052886E+02  0.7816164E-02  0.1300439E+00
        -11   -1    0    0    0    0  0.00000000000E+00  0.00000000000E+00  0.45593999997E+02  0.45594000000E+02  0.51100000000E-03 0. -1.
         11   -1    0    0    0    0 -0.00000000000E+00 -0.00000000000E+00 -0.45593999997E+02  0.45594000000E+02  0.51100000000E-03 0.  1.
    9900012    2    1    2    0    0  0.13350607513E+02  0.26197691331E+00 -0.38403888701E+02  0.50528855639E+02  0.29999987199E+02 0.  0.
         12    1    1    2    0    0 -0.13350607513E+02 -0.26197691331E+00  0.38403888701E+02  0.40659144361E+02  0.00000000000E+00 0. -1.
         11    1    3    3    0    0 -0.80329540524E+01 -0.42414660286E+01 -0.10694277409E+02  0.14031605555E+02  0.51100000000E-03 0. -1.
        -11    1    3    3    0    0  0.27762643019E+01  0.22779260923E+01 -0.10338884975E+02  0.10944822225E+02  0.51100000000E-03 0.  1.
        -12    1    3    3    0    0  0.18607297264E+02  0.22255168497E+01 -0.17370726316E+02  0.25552427859E+02  0.00000000000E+00 0.  1.
</event>
<event>
 7    1  0.9417878E-014  0.5052887E+02  0.7816164E-02  0.1300439E+00
        -11   -1    0    0    0    0  0.00000000000E+00  0.00000000000E+00  0.45593999997E+02  0.45594000000E+02  0.51100000000E-03 0.  1.
         11   -1    0    0    0    0 -0.00000000000E+00 -0.00000000000E+00 -0.45593999997E+02  0.45594000000E+02  0.51100000000E-03 0. -1.
    9900012    2    1    2    0    0  0.35990952041E+01 -0.28578648592E+02 -0.28696204374E+02  0.50528870802E+02  0.30000033291E+02 0.  0.
         12    1    1    2    0    0 -0.35990952041E+01  0.28578648592E+02  0.28696204374E+02  0.40659129198E+02  0.00000000000E+00 0. -1.
         11    1    3    3    0    0  0.64999971916E+01 -0.50861920611E+01  0.13063927627E+01  0.83561938396E+01  0.51100000000E-03 0. -1.
        -11    1    3    3    0    0  0.57873767887E+01 -0.15606427150E+02 -0.23378149268E+02  0.28698295454E+02  0.51100000000E-03 0.  1.
         12    1    3    3    0    0 -0.86882787762E+01 -0.78860293810E+01 -0.66244478684E+01  0.13474381509E+02  0.00000000000E+00 0. -1.
</event>
<event>
 7    1  0.8697654E-014  0.5052886E+02  0.7816164E-02  0.1300439E+00
        -11   -1    0    0    0    0  0.00000000000E+00  0.00000000000E+00  0.45593999997E+02  0.45594000000E+02  0.51100000000E-03 0. -1.
         11   -1    0    0    0    0 -0.00000000000E+00 -0.00000000000E+00 -0.45593999997E+02  0.45594000000E+02  0.51100000000E-03 0.  1.
    9900012    2    1    2    0    0 -0.28617137494E+02 -0.23272031582E+01 -0.28789052303E+02  0.50528856313E+02  0.29999989248E+02 0.  0.
         12    1    1    2    0    0  0.28617137494E+02  0.23272031582E+01  0.28789052303E+02  0.40659143687E+02  0.00000000000E+00 0. -1.
         11    1    3    3    0    0 -0.16133000520E+01 -0.93426560674E+01 -0.18422702511E+02  0.20719168119E+02  0.51100000000E-03 0. -1.
        -11    1    3    3    0    0 -0.49122582757E+01  0.64750843411E+00 -0.16619654990E+01  0.52260576078E+01  0.51100000000E-03 0.  1.
        -12    1    3    3    0    0 -0.22091579166E+02  0.63679444751E+01 -0.87043842927E+01  0.24583630586E+02  0.00000000000E+00 0.  1.
</event>
<event>
 7    1  0.8697654E-014  0.5052884E+02  0.7816164E-02  0.1300439E+00
        -11   -1    0    0    0    0  0.00000000000E+00  0.00000000000E+00  0.45593999997E+02  0.45594000000E+02  0.51100000000E-03 0. -1.
         11   -1    0    0    0    0 -0.00000000000E+00 -0.00000000000E+00 -0.45593999997E+02  0.45594000000E+02  0.51100000000E-03 0.  1.
    9900012    2    1    2    0    0 -0.73092373782E+01 -0.18686010698E+02 -0.35363471266E+02  0.50528843013E+02  0.29999948823E+02 0.  0.
         12    1    1    2    0    0  0.73092373782E+01  0.18686010698E+02  0.35363471266E+02  0.40659156987E+02  0.00000000000E+00 0. -1.
         11    1    3    3    0    0 -0.86982409806E+01 -0.17182565772E+02 -0.23914823093E+02  0.30705353385E+02  0.51100000000E-03 0. -1.
        -11    1    3    3    0    0  0.11829270458E+01 -0.63933117005E+01  0.87794070605E+00  0.65608331056E+01  0.51100000000E-03 0.  1.
         12    1    3    3    0    0  0.20607655656E+00  0.48898667747E+01 -0.12326588880E+02  0.13262656523E+02  0.00000000000E+00 0. -1.
</event>
<event>
 7    1  0.8697654E-014  0.5052886E+02  0.7816164E-02  0.1300439E+00
        -11   -1    0    0    0    0  0.00000000000E+00  0.00000000000E+00  0.45593999997E+02  0.45594000000E+02  0.51100000000E-03 0. -1.
         11   -1    0    0    0    0 -0.00000000000E+00 -0.00000000000E+00 -0.45593999997E+02  0.45594000000E+02  0.51100000000E-03 0.  1.
    9900012    2    1    2    0    0  0.23803713558E+02  0.11666544725E+02  0.30829222723E+02  0.50528855657E+02  0.29999987256E+02 0.  0.
        -12    1    1    2    0    0 -0.23803713558E+02 -0.11666544725E+02 -0.30829222723E+02  0.40659144343E+02  0.00000000000E+00 0.  1.
         11    1    3    3    0    0  0.15408745118E+02  0.80273074984E+01  0.52197185748E+01  0.18141459535E+02  0.51100000000E-03 0. -1.
        -11    1    3    3    0    0  0.10703646749E+02  0.24810419705E+01  0.58269187424E+01  0.12436904972E+02  0.51100000000E-03 0.  1.
        -12    1    3    3    0    0 -0.23086783101E+01  0.11581952565E+01  0.19782585406E+02  0.19950491150E+02  0.00000000000E+00 0.  1.
</event>
<event>
 7    1  0.8697654E-014  0.5052887E+02  0.7816164E-02  0.1300439E+00
        -11   -1    0    0    0    0  0.00000000000E+00  0.00000000000E+00  0.45593999997E+02  0.45594000000E+02  0.51100000000E-03 0. -1.
         11   -1    0    0    0    0 -0.00000000000E+00 -0.00000000000E+00 -0.45593999997E+02  0.45594000000E+02  0.51100000000E-03 0.  1.
    9900012    2    1    2    0    0  0.31397141586E+02 -0.20032608576E+02 -0.16311937582E+02  0.50528865555E+02  0.30000017342E+02 0.  0.
         12    1    1    2    0    0 -0.31397141586E+02  0.20032608576E+02  0.16311937582E+02  0.40659134445E+02  0.00000000000E+00 0. -1.
         11    1    3    3    0    0  0.15701114311E+02 -0.67664993252E+01 -0.43311552178E+01  0.17637159905E+02  0.51100000000E-03 0. -1.
        -11    1    3    3    0    0  0.27530710603E+01  0.53546434305E+01 -0.77653388143E+01  0.98260924936E+01  0.51100000000E-03 0.  1.
         12    1    3    3    0    0  0.12942956215E+02 -0.18620752681E+02 -0.42154435503E+01  0.23065613157E+02  0.00000000000E+00 0. -1.
</event>
<event>
 7    1  0.8697654E-014  0.5052886E+02  0.7816164E-02  0.1300439E+00
        -11   -1    0    0    0    0  0.00000000000E+00  0.00000000000E+00  0.45593999997E+02  0.45594000000E+02  0.51100000000E-03 0. -1.
         11   -1    0    0    0    0 -0.00000000000E+00 -0.00000000000E+00 -0.45593999997E+02  0.45594000000E+02  0.51100000000E-03 0.  1.
    9900012    2    1    2    0    0  0.79323432776E+01  0.20437203418E+00  0.39877337937E+02  0.50528856887E+02  0.29999990993E+02 0.  0.
        -12    1    1    2    0    0 -0.79323432776E+01 -0.20437203418E+00 -0.39877337937E+02  0.40659143113E+02  0.00000000000E+00 0.  1.
         11    1    3    3    0    0  0.63000764066E+01 -0.58271615882E+01  0.13343012332E+02  0.15864512387E+02  0.51100000000E-03 0. -1.
        -11    1    3    3    0    0  0.23596044833E+01  0.13005604808E+01 -0.34065680334E+01  0.43432587891E+01  0.51100000000E-03 0.  1.
        -12    1    3    3    0    0 -0.72733761223E+00  0.47309731416E+01  0.29940893638E+02  0.30321085711E+02  0.00000000000E+00 0.  1.
</event>
<event>
 7    1  0.8697654E-014  0.5052885E+02  0.7816164E-02  0.1300439E+00
        -11   -1    0    0    0    0  0.00000000000E+00  0.00000000000E+00  0.45593999997E+02  0.45594000000E+02  0.51100000000E-03 0.  1.
         11   -1    0    0    0    0 -0.00000000000E+00 -0.00000000000E+00 -0.45593999997E+02  0.45594000000E+02  0.51100000000E-03 0. -1.
    9900012    2    1    2    0    0 -0.24152459278E+01  0.40585538842E+02  0.38335456553E+00  0.50528851746E+02  0.29999975367E+02 0.  0.
         12    1    1    2    0    0  0.24152459278E+01 -0.40585538842E+02 -0.38335456553E+00  0.40659148254E+02  0.00000000000E+00 0. -1.
         11    1    3    3    0    0  0.57222648710E+00  0.55483564751E+01 -0.62807202109E+01  0.83999493662E+01  0.51100000000E-03 0. -1.
        -11    1    3    3    0    0  0.71258517129E+01  0.36599895929E+01  0.42638054778E+01  0.90748732150E+01  0.51100000000E-03 0.  1.
         12    1    3    3    0    0 -0.10113324128E+02  0.31377192774E+02  0.24002692986E+01  0.33054029165E+02  0.00000000000E+00 0. -1.
</event>
<event>
 7    1  0.8697654E-014  0.5052886E+02  0.7816164E-02  0.1300439E+00
        -11   -1    0    0    0    0  0.00000000000E+00  0.00000000000E+00  0.45593999997E+02  0.45594000000E+02  0.51100000000E-03 0. -1.
         11   -1    0    0    0    0 -0.00000000000E+00 -0.00000000000E+00 -0.45593999997E+02  0.45594000000E+02  0.51100000000E-03 0.  1.
    9900012    2    1    2    0    0 -0.31450294233E+01  0.32077551898E+02 -0.24785174192E+02  0.50528863197E+02  0.30000010173E+02 0.  0.
         12    1    1    2    0    0  0.31450294233E+01 -0.32077551898E+02  0.24785174192E+02  0.40659136803E+02  0.00000000000E+00 0. -1.
         11    1    3    3    0    0  0.58972007371E+01  0.30861020275E+01 -0.42285861646E+01  0.78855528323E+01  0.51100000000E-03 0. -1.
        -11    1    3    3    0    0 -0.19624584965E+01  0.10699634187E+02 -0.20296071857E+02  0.23027460741E+02  0.51100000000E-03 0.  1.
        -12    1    3    3    0    0 -0.70797716640E+01  0.18291815683E+02 -0.26051617119E+00  0.19615849624E+02  0.00000000000E+00 0.  1.
</event>
<event>
 7    1  0.8697654E-014  0.5052891E+02  0.7816164E-02  0.1300439E+00
        -11   -1    0    0    0    0  0.00000000000E+00  0.00000000000E+00  0.45593999997E+02  0.45594000000E+02  0.51100000000E-03 0. -1.
         11   -1    0    0    0    0 -0.00000000000E+00 -0.00000000000E+00 -0.45593999997E+02  0.45594000000E+02  0.51100000000E-03 0.  1.
    9900012    2    1    2    0    0 -0.21718726704E+02 -0.16032950436E+02  0.30404003150E+02  0.50528905115E+02  0.30000137587E+02 0.  0.
        -12    1    1    2    0    0  0.21718726704E+02  0.16032950436E+02 -0.30404003150E+02  0.40659094885E+02  0.00000000000E+00 0.  1.
         11    1    3    3    0    0 -0.12730143508E+02 -0.15296172337E+02  0.11868178829E+02  0.23170738246E+02  0.51100000000E-03 0. -1.
        -11    1    3    3    0    0  0.54955885087E+01 -0.72814392825E+00  0.39851865188E+01  0.68274005660E+01  0.51100000000E-03 0.  1.
         12    1    3    3    0    0 -0.14484171705E+02 -0.86341703574E-02  0.14550637802E+02  0.20530766303E+02  0.00000000000E+00 0. -1.
</event>
<event>
 7    1  0.8697654E-014  0.5052886E+02  0.7816164E-02  0.1300439E+00
        -11   -1    0    0    0    0  0.00000000000E+00  0.00000000000E+00  0.45593999997E+02  0.45594000000E+02  0.51100000000E-03 0. -1.
         11   -1    0    0    0    0 -0.00000000000E+00 -0.00000000000E+00 -0.45593999997E+02  0.45594000000E+02  0.51100000000E-03 0.  1.
    9900012    2    1    2    0    0 -0.34030848033E+02  0.85108250158E+01 -0.20558042583E+02  0.50528857423E+02  0.29999992622E+02 0.  0.
         12    1    1    2    0    0  0.34030848033E+02 -0.85108250158E+01  0.20558042583E+02  0.40659142577E+02  0.00000000000E+00 0. -1.
         11    1    3    3    0    0 -0.67697174620E+01  0.14324134728E-01  0.73630200808E+00  0.68096564234E+01  0.51100000000E-03 0. -1.
        -11    1    3    3    0    0  0.16839145495E+01 -0.54884926354E+01 -0.53007332703E+01  0.78138910334E+01  0.51100000000E-03 0.  1.
        -12    1    3    3    0    0 -0.28945045120E+02  0.13984993516E+02 -0.15993611321E+02  0.35905309966E+02  0.00000000000E+00 0.  1.
</event>
<event>
 7    1  0.8697654E-014  0.5052884E+02  0.7816164E-02  0.1300439E+00
        -11   -1    0    0    0    0  0.00000000000E+00  0.00000000000E+00  0.45593999997E+02  0.45594000000E+02  0.51100000000E-03 0. -1.
         11   -1    0    0    0    0 -0.00000000000E+00 -0.00000000000E+00 -0.45593999997E+02  0.45594000000E+02  0.51100000000E-03 0.  1.
    9900012    2    1    2    0    0 -0.42383470414E+01  0.32803784964E+02 -0.23645623281E+02  0.50528838745E+02  0.29999935849E+02 0.  0.
         12    1    1    2    0    0  0.42383470414E+01 -0.32803784964E+02  0.23645623281E+02  0.40659161255E+02  0.00000000000E+00 0. -1.
         11    1    3    3    0    0 -0.11477963964E+02  0.62407524400E+01 -0.38900226063E+01  0.13631688227E+02  0.51100000000E-03 0. -1.
        -11    1    3    3    0    0 -0.77766110442E+00  0.12210042023E+02 -0.14944268130E+01  0.12325712748E+02  0.51100000000E-03 0.  1.
         12    1    3    3    0    0  0.80172780266E+01  0.14352990502E+02 -0.18261173862E+02  0.24571437770E+02  0.00000000000E+00 0. -1.
</event>
<event>
 7    1  0.8697654E-014  0.5052887E+02  0.7816164E-02  0.1300439E+00
        -11   -1    0    0    0    0  0.00000000000E+00  0.00000000000E+00  0.45593999997E+02  0.45594000000E+02  0.51100000000E-03 0.  1.
         11   -1    0    0    0    0 -0.00000000000E+00 -0.00000000000E+00 -0.45593999997E+02  0.45594000000E+02  0.51100000000E-03 0. -1.
    9900012    2    1    2    0    0  0.30336997041E+02 -0.11510125480E+02 -0.24502017485E+02  0.50528865247E+02  0.30000016405E+02 0.  0.
         12    1    1    2    0    0 -0.30336997041E+02  0.11510125480E+02  0.24502017485E+02  0.40659134753E+02  0.00000000000E+00 0. -1.
         11    1    3    3    0    0  0.87273451537E+01 -0.10793235929E+02 -0.60734593538E+01  0.15150821893E+02  0.51100000000E-03 0. -1.
        -11    1    3    3    0    0  0.24398233402E+02 -0.20810358312E+01 -0.10096884168E+02  0.26486818862E+02  0.51100000000E-03 0.  1.
         12    1    3    3    0    0 -0.27885815147E+01  0.13641462802E+01 -0.83316739633E+01  0.88912244921E+01  0.00000000000E+00 0. -1.
</event>
<event>
 7    1  0.8697654E-014  0.5052886E+02  0.7816164E-02  0.1300439E+00
        -11   -1    0    0    0    0  0.00000000000E+00  0.00000000000E+00  0.45593999997E+02  0.45594000000E+02  0.51100000000E-03 0. -1.
         11   -1    0    0    0    0 -0.00000000000E+00 -0.00000000000E+00 -0.45593999997E+02  0.45594000000E+02  0.51100000000E-03 0.  1.
    9900012    2    1    2    0    0 -0.12890808580E+02  0.98149203600E+01 -0.37291556876E+02  0.50528858079E+02  0.29999994617E+02 0.  0.
         12    1    1    2    0    0  0.12890808580E+02 -0.98149203600E+01  0.37291556876E+02  0.40659141921E+02  0.00000000000E+00 0. -1.
         11    1    3    3    0    0  0.19559134224E+01  0.48640463662E+01 -0.15163670742E+02  0.16044358978E+02  0.51100000000E-03 0. -1.
        -11    1    3    3    0    0  0.26176236973E+01  0.53385447232E+01  0.42109139815E+00  0.59606486064E+01  0.51100000000E-03 0.  1.
        -12    1    3    3    0    0 -0.17464345699E+02 -0.38767072935E+00 -0.22548977532E+02  0.28523850495E+02  0.00000000000E+00 0.  1.
</event>
<event>
 7    1  0.8697654E-014  0.5052888E+02  0.7816164E-02  0.1300439E+00
        -11   -1    0    0    0    0  0.00000000000E+00  0.00000000000E+00  0.45593999997E+02  0.45594000000E+02  0.51100000000E-03 0. -1.
         11   -1    0    0    0    0 -0.00000000000E+00 -0.00000000000E+00 -0.45593999997E+02  0.45594000000E+02  0.51100000000E-03 0.  1.
    9900012    2    1    2    0    0  0.12928496610E+02 -0.18657166501E+02  0.33733189048E+02  0.50528881345E+02  0.30000065338E+02 0.  0.
        -12    1    1    2    0    0 -0.12928496610E+02  0.18657166501E+02 -0.33733189048E+02  0.40659118655E+02  0.00000000000E+00 0.  1.
         11    1    3    3    0    0  0.61413711142E+01 -0.51425080328E+01  0.20558450834E+01  0.82697235321E+01  0.51100000000E-03 0. -1.
        -11    1    3    3    0    0  0.92195818234E+01 -0.68286822065E+01  0.18823358193E+01  0.11626468857E+02  0.51100000000E-03 0.  1.
         12    1    3    3    0    0 -0.24324563276E+01 -0.66859762613E+01  0.29795008145E+02  0.30632688957E+02  0.00000000000E+00 0. -1.
</event>
<event>
 7    1  0.8697654E-014  0.5052886E+02  0.7816164E-02  0.1300439E+00
        -11   -1    0    0    0    0  0.00000000000E+00  0.00000000000E+00  0.45593999997E+02  0.45594000000E+02  0.51100000000E-03 0. -1.
         11   -1    0    0    0    0 -0.00000000000E+00 -0.00000000000E+00 -0.45593999997E+02  0.45594000000E+02  0.51100000000E-03 0.  1.
    9900012    2    1    2    0    0  0.14000326293E+02  0.14125736575E+02  0.35462934835E+02  0.50528864283E+02  0.30000013475E+02 0.  0.
        -12    1    1    2    0    0 -0.14000326293E+02 -0.14125736575E+02 -0.35462934835E+02  0.40659135717E+02  0.00000000000E+00 0.  1.
         11    1    3    3    0    0  0.13896863054E+02  0.73381543826E+01  0.17270899257E+02  0.23350701786E+02  0.51100000000E-03 0. -1.
        -11    1    3    3    0    0 -0.52451795380E+00 -0.64048726793E+01  0.31374971530E+01  0.71513216798E+01  0.51100000000E-03 0.  1.
         12    1    3    3    0    0  0.62798119234E+00  0.13192454872E+02  0.15054538425E+02  0.20026840817E+02  0.00000000000E+00 0. -1.
</event>
<event>
 7    1  0.8697654E-014  0.5052886E+02  0.7816164E-02  0.1300439E+00
        -11   -1    0    0    0    0  0.00000000000E+00  0.00000000000E+00  0.45593999997E+02  0.45594000000E+02  0.51100000000E-03 0. -1.
         11   -1    0    0    0    0 -0.00000000000E+00 -0.00000000000E+00 -0.45593999997E+02  0.45594000000E+02  0.51100000000E-03 0.  1.
    9900012    2    1    2    0    0  0.74222066312E+01 -0.27938632173E+01  0.39878200031E+02  0.50528860060E+02  0.30000000639E+02 0.  0.
        -12    1    1    2    0    0 -0.74222066312E+01  0.27938632173E+01 -0.39878200031E+02  0.40659139940E+02  0.00000000000E+00 0.  1.
         11    1    3    3    0    0  0.61522807140E+00 -0.76987430633E+01  0.71893624562E+01  0.10551591497E+02  0.51100000000E-03 0. -1.
        -11    1    3    3    0    0 -0.20966855790E+01 -0.43030241647E+01  0.24064097454E+02  0.24535543481E+02  0.51100000000E-03 0.  1.
        -12    1    3    3    0    0  0.89036641388E+01  0.92079040107E+01  0.86247401210E+01  0.15441725082E+02  0.00000000000E+00 0.  1.
</event>
<event>
 7    1  0.8697654E-014  0.5052888E+02  0.7816164E-02  0.1300439E+00
        -11   -1    0    0    0    0  0.00000000000E+00  0.00000000000E+00  0.45593999997E+02  0.45594000000E+02  0.51100000000E-03 0. -1.
         11   -1    0    0    0    0 -0.00000000000E+00 -0.00000000000E+00 -0.45593999997E+02  0.45594000000E+02  0.51100000000E-03 0.  1.
    9900012    2    1    2    0    0 -0.14445862397E+01  0.31999104074E+02  0.25042657209E+02  0.50528878378E+02  0.30000056319E+02 0.  0.
        -12    1    1    2    0    0  0.14445862397E+01 -0.31999104074E+02 -0.25042657209E+02  0.40659121622E+02  0.00000000000E+00 0.  1.
         11    1    3    3    0    0  0.64870195175E+01  0.69040561187E+01  0.20458524643E+01  0.96919000035E+01  0.51100000000E-03 0. -1.
        -11    1    3    3    0    0 -0.11008071587E+02  0.31675895796E+01  0.60536020064E+01  0.12955977822E+02  0.51100000000E-03 0.  1.
         12    1    3    3    0    0  0.30764658294E+01  0.21927458376E+02  0.16943202739E+02  0.27881000553E+02  0.00000000000E+00 0. -1.
</event>
<event>
 7    1  0.8697654E-014  0.5052886E+02  0.7816164E-02  0.1300439E+00
        -11   -1    0    0    0    0  0.00000000000E+00  0.00000000000E+00  0.45593999997E+02  0.45594000000E+02  0.51100000000E-03 0. -1.
         11   -1    0    0    0    0 -0.00000000000E+00 -0.00000000000E+00 -0.45593999997E+02  0.45594000000E+02  0.51100000000E-03 0.  1.
    9900012    2    1    2    0    0 -0.43663999476E+01 -0.52879920211E+01 -0.40076643516E+02  0.50528860024E+02  0.30000000529E+02 0.  0.
         12    1    1    2    0    0  0.43663999476E+01  0.52879920211E+01  0.40076643516E+02  0.40659139976E+02  0.00000000000E+00 0. -1.
         11    1    3    3    0    0 -0.86223110795E+00  0.31406563516E+00  0.37858340641E+01  0.38954614013E+01  0.51100000000E-03 0. -1.
        -11    1    3    3    0    0  0.16641171701E+01 -0.89376900170E+01 -0.19640596626E+02  0.21642657528E+02  0.51100000000E-03 0.  1.
        -12    1    3    3    0    0 -0.51682860097E+01  0.33356323607E+01 -0.24221880953E+02  0.24990741094E+02  0.00000000000E+00 0.  1.
</event>
<event>
 7    1  0.8697654E-014  0.5052887E+02  0.7816164E-02  0.1300439E+00
        -11   -1    0    0    0    0  0.00000000000E+00  0.00000000000E+00  0.45593999997E+02  0.45594000000E+02  0.51100000000E-03 0. -1.
         11   -1    0    0    0    0 -0.00000000000E+00 -0.00000000000E+00 -0.45593999997E+02  0.45594000000E+02  0.51100000000E-03 0.  1.
    9900012    2    1    2    0    0 -0.10389427171E+02  0.73284487001E+01 -0.38620180318E+02  0.50528872057E+02  0.30000037103E+02 0.  0.
         12    1    1    2    0    0  0.10389427171E+02 -0.73284487001E+01  0.38620180318E+02  0.40659127943E+02  0.00000000000E+00 0. -1.
         11    1    3    3    0    0 -0.59062952265E+01  0.11590026729E+01 -0.42220185659E+01  0.73520780417E+01  0.51100000000E-03 0. -1.
        -11    1    3    3    0    0 -0.78995320411E+01  0.14524050053E+02 -0.26216237230E+02  0.30994220932E+02  0.51100000000E-03 0.  1.
         12    1    3    3    0    0  0.34164000962E+01 -0.83546040255E+01 -0.81819245221E+01  0.12182573083E+02  0.00000000000E+00 0. -1.
</event>
<event>
 7    1  0.8697654E-014  0.5052886E+02  0.7816164E-02  0.1300439E+00
        -11   -1    0    0    0    0  0.00000000000E+00  0.00000000000E+00  0.45593999997E+02  0.45594000000E+02  0.51100000000E-03 0. -1.
         11   -1    0    0    0    0 -0.00000000000E+00 -0.00000000000E+00 -0.45593999997E+02  0.45594000000E+02  0.51100000000E-03 0.  1.
    9900012    2    1    2    0    0  0.23849371711E+02  0.25234800624E+02  0.21156035965E+02  0.50528861405E+02  0.30000004726E+02 0.  0.
        -12    1    1    2    0    0 -0.23849371711E+02 -0.25234800624E+02 -0.21156035965E+02  0.40659138595E+02  0.00000000000E+00 0.  1.
         11    1    3    3    0    0  0.13043943808E+02  0.37090893247E+01  0.18181681995E+02  0.22682049602E+02  0.51100000000E-03 0. -1.
        -11    1    3    3    0    0  0.89323967418E+01  0.54234514943E+01 -0.24850531727E+01  0.10741369894E+02  0.51100000000E-03 0.  1.
         12    1    3    3    0    0  0.18730311613E+01  0.16102259805E+02  0.54594071425E+01  0.17105441909E+02  0.00000000000E+00 0. -1.
</event>
<event>
 7    1  0.8697654E-014  0.5052890E+02  0.7816164E-02  0.1300439E+00
        -11   -1    0    0    0    0  0.00000000000E+00  0.00000000000E+00  0.45593999997E+02  0.45594000000E+02  0.51100000000E-03 0. -1.
         11   -1    0    0    0    0 -0.00000000000E+00 -0.00000000000E+00 -0.45593999997E+02  0.45594000000E+02  0.51100000000E-03 0.  1.
    9900012    2    1    2    0    0 -0.67487017204E+00 -0.24980590138E+01  0.40576680232E+02  0.50528896133E+02  0.30000110286E+02 0.  0.
        -12    1    1    2    0    0  0.67487017204E+00  0.24980590138E+01 -0.40576680232E+02  0.40659103867E+02  0.00000000000E+00 0.  1.
         11    1    3    3    0    0 -0.23673621184E+01 -0.69577548877E+01  0.32091494766E+01  0.80195633984E+01  0.51100000000E-03 0.  1.
        -11    1    3    3    0    0 -0.37343035696E+01  0.18600961656E+01  0.36124965721E+02  0.36365067435E+02  0.51100000000E-03 0. -1.
         12    1    3    3    0    0  0.54267955160E+01  0.25995997083E+01  0.12425650343E+01  0.61442653003E+01  0.00000000000E+00 0. -1.
</event>
<event>
 7    1  0.8697654E-014  0.5052886E+02  0.7816164E-02  0.1300439E+00
        -11   -1    0    0    0    0  0.00000000000E+00  0.00000000000E+00  0.45593999997E+02  0.45594000000E+02  0.51100000000E-03 0. -1.
         11   -1    0    0    0    0 -0.00000000000E+00 -0.00000000000E+00 -0.45593999997E+02  0.45594000000E+02  0.51100000000E-03 0.  1.
    9900012    2    1    2    0    0 -0.82204258034E+01  0.28473534450E+02 -0.27836092292E+02  0.50528860824E+02  0.30000002960E+02 0.  0.
         12    1    1    2    0    0  0.82204258034E+01 -0.28473534450E+02  0.27836092292E+02  0.40659139176E+02  0.00000000000E+00 0. -1.
         11    1    3    3    0    0  0.21984077570E+01  0.16399570235E+02 -0.22012205924E+02  0.27537540022E+02  0.51100000000E-03 0. -1.
        -11    1    3    3    0    0 -0.20318458391E+01 -0.31726141222E+01 -0.39999366679E+01  0.54948495421E+01  0.51100000000E-03 0.  1.
         12    1    3    3    0    0 -0.83869877213E+01  0.15246578338E+02 -0.18239496998E+01  0.17496471260E+02  0.00000000000E+00 0. -1.
</event>
<event>
 7    1  0.8697654E-014  0.5052886E+02  0.7816164E-02  0.1300439E+00
        -11   -1    0    0    0    0  0.00000000000E+00  0.00000000000E+00  0.45593999997E+02  0.45594000000E+02  0.51100000000E-03 0. -1.
         11   -1    0    0    0    0 -0.00000000000E+00 -0.00000000000E+00 -0.45593999997E+02  0.45594000000E+02  0.51100000000E-03 0.  1.
    9900012    2    1    2    0    0 -0.86433756010E+01  0.31619457105E+01 -0.39603780621E+02  0.50528864717E+02  0.30000014794E+02 0.  0.
         12    1    1    2    0    0  0.86433756010E+01 -0.31619457105E+01  0.39603780621E+02  0.40659135283E+02  0.00000000000E+00 0. -1.
         11    1    3    3    0    0 -0.18373860873E+00 -0.50551388177E+01 -0.19090108991E+00  0.50620778174E+01  0.51100000000E-03 0. -1.
        -11    1    3    3    0    0 -0.10214391097E+02 -0.33949606728E+01 -0.21559657853E+02  0.24097269357E+02  0.51100000000E-03 0.  1.
         12    1    3    3    0    0  0.17547541052E+01  0.11612045201E+02 -0.17853221678E+02  0.21369517543E+02  0.00000000000E+00 0. -1.
</event>
<event>
 7    1  0.8697654E-014  0.5052885E+02  0.7816164E-02  0.1300439E+00
        -11   -1    0    0    0    0  0.00000000000E+00  0.00000000000E+00  0.45593999997E+02  0.45594000000E+02  0.51100000000E-03 0. -1.
         11   -1    0    0    0    0 -0.00000000000E+00 -0.00000000000E+00 -0.45593999997E+02  0.45594000000E+02  0.51100000000E-03 0.  1.
    9900012    2    1    2    0    0 -0.29217338220E+02 -0.18840544903E+01  0.28212837958E+02  0.50528846792E+02  0.29999960309E+02 0.  0.
        -12    1    1    2    0    0  0.29217338220E+02  0.18840544903E+01 -0.28212837958E+02  0.40659153208E+02  0.00000000000E+00 0.  1.
         11    1    3    3    0    0 -0.18358882569E+02 -0.68846041455E+01  0.58083382620E+01  0.20449526572E+02  0.51100000000E-03 0. -1.
        -11    1    3    3    0    0 -0.14061653726E+02  0.32579718315E+01  0.22131652442E+02  0.26422613914E+02  0.51100000000E-03 0.  1.
        -12    1    3    3    0    0  0.32031980753E+01  0.17425778237E+01  0.27284725366E+00  0.36567063055E+01  0.00000000000E+00 0.  1.
</event>
<event>
 7    1  0.8697654E-014  0.5052887E+02  0.7816164E-02  0.1300439E+00
        -11   -1    0    0    0    0  0.00000000000E+00  0.00000000000E+00  0.45593999997E+02  0.45594000000E+02  0.51100000000E-03 0. -1.
         11   -1    0    0    0    0 -0.00000000000E+00 -0.00000000000E+00 -0.45593999997E+02  0.45594000000E+02  0.51100000000E-03 0.  1.
    9900012    2    1    2    0    0 -0.14013513493E+02 -0.36753022917E+01 -0.37990501807E+02  0.50528872674E+02  0.30000038979E+02 0.  0.
         12    1    1    2    0    0  0.14013513493E+02  0.36753022917E+01  0.37990501807E+02  0.40659127326E+02  0.00000000000E+00 0. -1.
         11    1    3    3    0    0  0.38209317621E+00  0.19857580217E+01 -0.48654278009E+01  0.52689294988E+01  0.51100000000E-03 0. -1.
        -11    1    3    3    0    0  0.12917588017E+01  0.91391771376E+01 -0.11057596403E+02  0.14403598093E+02  0.51100000000E-03 0.  1.
        -12    1    3    3    0    0 -0.15687365471E+02 -0.14800237451E+02 -0.22067477604E+02  0.30856345082E+02  0.00000000000E+00 0.  1.
</event>
<event>
 7    1  0.8697654E-014  0.5052886E+02  0.7816164E-02  0.1300439E+00
        -11   -1    0    0    0    0  0.00000000000E+00  0.00000000000E+00  0.45593999997E+02  0.45594000000E+02  0.51100000000E-03 0. -1.
         11   -1    0    0    0    0 -0.00000000000E+00 -0.00000000000E+00 -0.45593999997E+02  0.45594000000E+02  0.51100000000E-03 0.  1.
    9900012    2    1    2    0    0  0.15466558962E+02  0.16574973475E+02  0.33752353723E+02  0.50528861130E+02  0.30000003890E+02 0.  0.
        -12    1    1    2    0    0 -0.15466558962E+02 -0.16574973475E+02 -0.33752353723E+02  0.40659138870E+02  0.00000000000E+00 0.  1.
         11    1    3    3    0    0  0.17725138793E+02  0.14557395522E+01  0.16844506561E+02  0.24495655215E+02  0.51100000000E-03 0. -1.
        -11    1    3    3    0    0  0.16781552775E+01  0.10460610352E+02  0.16885527202E+02  0.19933930953E+02  0.51100000000E-03 0.  1.
        -12    1    3    3    0    0 -0.39367351082E+01  0.46586235704E+01  0.22319960187E-01  0.60992749621E+01  0.00000000000E+00 0.  1.
</event>
<event>
 7    1  0.8697654E-014  0.5052886E+02  0.7816164E-02  0.1300439E+00
        -11   -1    0    0    0    0  0.00000000000E+00  0.00000000000E+00  0.45593999997E+02  0.45594000000E+02  0.51100000000E-03 0. -1.
         11   -1    0    0    0    0 -0.00000000000E+00 -0.00000000000E+00 -0.45593999997E+02  0.45594000000E+02  0.51100000000E-03 0.  1.
    9900012    2    1    2    0    0  0.31707436444E+02 -0.23573478566E+02 -0.95966101979E+01  0.50528863944E+02  0.30000012443E+02 0.  0.
         12    1    1    2    0    0 -0.31707436444E+02  0.23573478566E+02  0.95966101979E+01  0.40659136056E+02  0.00000000000E+00 0. -1.
         11    1    3    3    0    0  0.44995871741E+01  0.12610923653E+01 -0.12211143843E+01  0.48298819128E+01  0.51100000000E-03 0. -1.
        -11    1    3    3    0    0  0.92093816892E+01 -0.65140219045E+00 -0.12212940685E+02  0.15309897333E+02  0.51100000000E-03 0.  1.
         12    1    3    3    0    0  0.17998467581E+02 -0.24183168741E+02  0.38374448718E+01  0.30389084697E+02  0.00000000000E+00 0. -1.
</event>
<event>
 7    1  0.8697654E-014  0.5052886E+02  0.7816164E-02  0.1300439E+00
        -11   -1    0    0    0    0  0.00000000000E+00  0.00000000000E+00  0.45593999997E+02  0.45594000000E+02  0.51100000000E-03 0. -1.
         11   -1    0    0    0    0 -0.00000000000E+00 -0.00000000000E+00 -0.45593999997E+02  0.45594000000E+02  0.51100000000E-03 0.  1.
    9900012    2    1    2    0    0 -0.88249886554E+01 -0.31069663564E+02 -0.24697386836E+02  0.50528864061E+02  0.30000012801E+02 0.  0.
         12    1    1    2    0    0  0.88249886554E+01  0.31069663564E+02  0.24697386836E+02  0.40659135939E+02  0.00000000000E+00 0. -1.
         11    1    3    3    0    0 -0.81231424875E+01 -0.92407175485E+01 -0.83108777088E+01  0.14847457467E+02  0.51100000000E-03 0. -1.
        -11    1    3    3    0    0 -0.18084412496E+01 -0.26495045104E+02 -0.15663041134E+02  0.30831619041E+02  0.51100000000E-03 0.  1.
         12    1    3    3    0    0  0.11065950817E+01  0.46660990886E+01 -0.72346799308E+00  0.48497875537E+01  0.00000000000E+00 0. -1.
</event>
<event>
 7    1  0.8697654E-014  0.5052887E+02  0.7816164E-02  0.1300439E+00
        -11   -1    0    0    0    0  0.00000000000E+00  0.00000000000E+00  0.45593999997E+02  0.45594000000E+02  0.51100000000E-03 0. -1.
         11   -1    0    0    0    0 -0.00000000000E+00 -0.00000000000E+00 -0.45593999997E+02  0.45594000000E+02  0.51100000000E-03 0.  1.
    9900012    2    1    2    0    0 -0.17389284107E+02 -0.67138619288E+01  0.36134496387E+02  0.50528868517E+02  0.30000026345E+02 0.  0.
        -12    1    1    2    0    0  0.17389284107E+02  0.67138619288E+01 -0.36134496387E+02  0.40659131483E+02  0.00000000000E+00 0.  1.
         11    1    3    3    0    0 -0.76951609404E+01  0.23852583533E+01  0.13993598319E+02  0.16147004474E+02  0.51100000000E-03 0. -1.
        -11    1    3    3    0    0 -0.46220369388E+01  0.62058610101E+01  0.10122271788E+01  0.78038798340E+01  0.51100000000E-03 0.  1.
        -12    1    3    3    0    0 -0.50720862282E+01 -0.15304981292E+02  0.21128670890E+02  0.26577984209E+02  0.00000000000E+00 0.  1.
</event>
<event>
 7    1  0.8697654E-014  0.5052886E+02  0.7816164E-02  0.1300439E+00
        -11   -1    0    0    0    0  0.00000000000E+00  0.00000000000E+00  0.45593999997E+02  0.45594000000E+02  0.51100000000E-03 0. -1.
         11   -1    0    0    0    0 -0.00000000000E+00 -0.00000000000E+00 -0.45593999997E+02  0.45594000000E+02  0.51100000000E-03 0.  1.
    9900012    2    1    2    0    0  0.26632630519E+02  0.98422222888E+01 -0.29103258036E+02  0.50528856179E+02  0.29999988842E+02 0.  0.
         12    1    1    2    0    0 -0.26632630519E+02 -0.98422222888E+01  0.29103258036E+02  0.40659143821E+02  0.00000000000E+00 0. -1.
         11    1    3    3    0    0  0.44278118324E+01 -0.24458455658E+01 -0.17778668900E+02  0.18484283764E+02  0.51100000000E-03 0. -1.
        -11    1    3    3    0    0 -0.64139388146E+00  0.44447159735E+01  0.14506309815E+01  0.47192389960E+01  0.51100000000E-03 0.  1.
        -12    1    3    3    0    0  0.22846212568E+02  0.78433518811E+01 -0.12775220118E+02  0.27325333420E+02  0.00000000000E+00 0.  1.
</event>
<event>
 7    1  0.8697654E-014  0.5052882E+02  0.7816164E-02  0.1300439E+00
        -11   -1    0    0    0    0  0.00000000000E+00  0.00000000000E+00  0.45593999997E+02  0.45594000000E+02  0.51100000000E-03 0. -1.
         11   -1    0    0    0    0 -0.00000000000E+00 -0.00000000000E+00 -0.45593999997E+02  0.45594000000E+02  0.51100000000E-03 0.  1.
    9900012    2    1    2    0    0 -0.27084434149E+02 -0.60363358573E+01 -0.29718086251E+02  0.50528824231E+02  0.29999891733E+02 0.  0.
         12    1    1    2    0    0  0.27084434149E+02  0.60363358573E+01  0.29718086251E+02  0.40659175769E+02  0.00000000000E+00 0. -1.
         11    1    3    3    0    0 -0.11311457050E+02 -0.17128549585E+01 -0.46037754821E+01  0.12331978011E+02  0.51100000000E-03 0. -1.
        -11    1    3    3    0    0 -0.17085507749E+02  0.50415074011E+01 -0.21853105854E+02  0.28193786685E+02  0.51100000000E-03 0.  1.
        -12    1    3    3    0    0  0.13125306501E+01 -0.93649882998E+01 -0.32612049152E+01  0.10003059535E+02  0.00000000000E+00 0.  1.
</event>
<event>
 7    1  0.8697654E-014  0.5052886E+02  0.7816164E-02  0.1300439E+00
        -11   -1    0    0    0    0  0.00000000000E+00  0.00000000000E+00  0.45593999997E+02  0.45594000000E+02  0.51100000000E-03 0. -1.
         11   -1    0    0    0    0 -0.00000000000E+00 -0.00000000000E+00 -0.45593999997E+02  0.45594000000E+02  0.51100000000E-03 0.  1.
    9900012    2    1    2    0    0 -0.16986434991E+02  0.11878569507E+02 -0.34978941119E+02  0.50528859465E+02  0.29999998829E+02 0.  0.
         12    1    1    2    0    0  0.16986434991E+02 -0.11878569507E+02  0.34978941119E+02  0.40659140535E+02  0.00000000000E+00 0. -1.
         11    1    3    3    0    0  0.66665222372E+01  0.60839945297E+01 -0.13634647500E+02  0.16351181024E+02  0.51100000000E-03 0. -1.
        -11    1    3    3    0    0 -0.12044123855E+02  0.82924978356E+01 -0.13818966597E+02  0.20119400534E+02  0.51100000000E-03 0.  1.
        -12    1    3    3    0    0 -0.11608833374E+02 -0.24979228588E+01 -0.75253270226E+01  0.14058277907E+02  0.00000000000E+00 0.  1.
</event>
<event>
 7    1  0.8697654E-014  0.5052885E+02  0.7816164E-02  0.1300439E+00
        -11   -1    0    0    0    0  0.00000000000E+00  0.00000000000E+00  0.45593999997E+02  0.45594000000E+02  0.51100000000E-03 0.  1.
         11   -1    0    0    0    0 -0.00000000000E+00 -0.00000000000E+00 -0.45593999997E+02  0.45594000000E+02  0.51100000000E-03 0. -1.
    9900012    2    1    2    0    0 -0.17024666047E+02 -0.35846563571E+02 -0.88516110327E+01  0.50528851070E+02  0.29999973313E+02 0.  0.
        -12    1    1    2    0    0  0.17024666047E+02  0.35846563571E+02  0.88516110327E+01  0.40659148930E+02  0.00000000000E+00 0.  1.
         11    1    3    3    0    0 -0.70336014040E+01 -0.11192161358E+02 -0.79057603111E+01  0.15402502100E+02  0.51100000000E-03 0. -1.
        -11    1    3    3    0    0 -0.17427310980E+02 -0.17351061002E+02  0.54047192212E+00  0.24598020165E+02  0.51100000000E-03 0.  1.
        -12    1    3    3    0    0  0.74362463373E+01 -0.73033412109E+01 -0.14863226437E+01  0.10528328805E+02  0.00000000000E+00 0.  1.
</event>
<event>
 7    1  0.8697654E-014  0.5052885E+02  0.7816164E-02  0.1300439E+00
        -11   -1    0    0    0    0  0.00000000000E+00  0.00000000000E+00  0.45593999997E+02  0.45594000000E+02  0.51100000000E-03 0. -1.
         11   -1    0    0    0    0 -0.00000000000E+00 -0.00000000000E+00 -0.45593999997E+02  0.45594000000E+02  0.51100000000E-03 0.  1.
    9900012    2    1    2    0    0 -0.25908647996E+02 -0.54414942911E+01  0.30859331344E+02  0.50528853033E+02  0.29999979279E+02 0.  0.
        -12    1    1    2    0    0  0.25908647996E+02  0.54414942911E+01 -0.30859331344E+02  0.40659146967E+02  0.00000000000E+00 0.  1.
         11    1    3    3    0    0 -0.77368945770E+01  0.85704356125E+01  0.74273123503E+01  0.13728687967E+02  0.51100000000E-03 0. -1.
        -11    1    3    3    0    0 -0.18488660010E+02 -0.63181001427E+01  0.11721323076E+02  0.22784607816E+02  0.51100000000E-03 0.  1.
        -12    1    3    3    0    0  0.31690659129E+00 -0.76938297609E+01  0.11710695917E+02  0.14015557250E+02  0.00000000000E+00 0.  1.
</event>
<event>
 7    1  0.8697654E-014  0.5052885E+02  0.7816164E-02  0.1300439E+00
        -11   -1    0    0    0    0  0.00000000000E+00  0.00000000000E+00  0.45593999997E+02  0.45594000000E+02  0.51100000000E-03 0. -1.
         11   -1    0    0    0    0 -0.00000000000E+00 -0.00000000000E+00 -0.45593999997E+02  0.45594000000E+02  0.51100000000E-03 0.  1.
    9900012    2    1    2    0    0 -0.49680332784E-01 -0.24383622194E+02 -0.32536177428E+02  0.50528851693E+02  0.29999975205E+02 0.  0.
         12    1    1    2    0    0  0.49680332784E-01  0.24383622194E+02  0.32536177428E+02  0.40659148307E+02  0.00000000000E+00 0. -1.
         11    1    3    3    0    0  0.16899179165E+01 -0.49318446512E+01 -0.11455475858E+01  0.53377142824E+01  0.51100000000E-03 0. -1.
        -11    1    3    3    0    0 -0.82850259168E+00 -0.24514073606E+02 -0.16825097455E+02  0.29744077157E+02  0.51100000000E-03 0.  1.
        -12    1    3    3    0    0 -0.91109565759E+00  0.50622960631E+01 -0.14565532387E+02  0.15447060253E+02  0.00000000000E+00 0.  1.
</event>
<event>
 7    1  0.8697654E-014  0.5052886E+02  0.7816164E-02  0.1300439E+00
        -11   -1    0    0    0    0  0.00000000000E+00  0.00000000000E+00  0.45593999997E+02  0.45594000000E+02  0.51100000000E-03 0.  1.
         11   -1    0    0    0    0 -0.00000000000E+00 -0.00000000000E+00 -0.45593999997E+02  0.45594000000E+02  0.51100000000E-03 0. -1.
    9900012    2    1    2    0    0 -0.36602867716E+01  0.36822995955E+02 -0.16847405755E+02  0.50528858211E+02  0.29999995018E+02 0.  0.
         12    1    1    2    0    0  0.36602867716E+01 -0.36822995955E+02  0.16847405755E+02  0.40659141789E+02  0.00000000000E+00 0. -1.
         11    1    3    3    0    0 -0.64265030219E+00  0.13241970287E+01 -0.36983766339E+01  0.39805134304E+01  0.51100000000E-03 0. -1.
        -11    1    3    3    0    0 -0.13624038709E+02  0.16733675206E+02 -0.55905208785E+00  0.21585709535E+02  0.51100000000E-03 0.  1.
        -12    1    3    3    0    0  0.10606402239E+02  0.18765123720E+02 -0.12589977034E+02  0.24962635245E+02  0.00000000000E+00 0.  1.
</event>
<event>
 7    1  0.1021187E-013  0.5052885E+02  0.7816164E-02  0.1300439E+00
        -11   -1    0    0    0    0  0.00000000000E+00  0.00000000000E+00  0.45593999997E+02  0.45594000000E+02  0.51100000000E-03 0. -1.
         11   -1    0    0    0    0 -0.00000000000E+00 -0.00000000000E+00 -0.45593999997E+02  0.45594000000E+02  0.51100000000E-03 0.  1.
    9900012    2    1    2    0    0 -0.42670084988E+01  0.28093554423E+02 -0.29081112075E+02  0.50528852922E+02  0.29999978940E+02 0.  0.
         12    1    1    2    0    0  0.42670084988E+01 -0.28093554423E+02  0.29081112075E+02  0.40659147078E+02  0.00000000000E+00 0. -1.
         11    1    3    3    0    0  0.10179146442E+01  0.50255800508E+01 -0.17465922477E+02  0.18203050660E+02  0.51100000000E-03 0. -1.
        -11    1    3    3    0    0  0.21478719220E+00  0.23695058176E+02 -0.12384591041E+02  0.26737240153E+02  0.51100000000E-03 0.  1.
         12    1    3    3    0    0 -0.54997103352E+01 -0.62708380336E+00  0.76940144330E+00  0.55885621092E+01  0.00000000000E+00 0. -1.
</event>
<event>
 7    1  0.8697654E-014  0.5052883E+02  0.7816164E-02  0.1300439E+00
        -11   -1    0    0    0    0  0.00000000000E+00  0.00000000000E+00  0.45593999997E+02  0.45594000000E+02  0.51100000000E-03 0.  1.
         11   -1    0    0    0    0 -0.00000000000E+00 -0.00000000000E+00 -0.45593999997E+02  0.45594000000E+02  0.51100000000E-03 0. -1.
    9900012    2    1    2    0    0  0.18687807039E+02 -0.32918332197E+02 -0.14843094856E+02  0.50528828938E+02  0.29999906040E+02 0.  0.
         12    1    1    2    0    0 -0.18687807039E+02  0.32918332197E+02  0.14843094856E+02  0.40659171062E+02  0.00000000000E+00 0. -1.
         11    1    3    3    0    0  0.61544173976E+01 -0.25933724374E+01  0.34798189253E+01  0.75307087394E+01  0.51100000000E-03 0.  1.
        -11    1    3    3    0    0  0.64918808009E+01 -0.97429295654E+00 -0.98860243445E+01  0.11867065379E+02  0.51100000000E-03 0. -1.
         12    1    3    3    0    0  0.60415088409E+01 -0.29350666803E+02 -0.84368894368E+01  0.31131054820E+02  0.00000000000E+00 0. -1.
</event>
<event>
 7    1  0.8697654E-014  0.5052877E+02  0.7816164E-02  0.1300439E+00
        -11   -1    0    0    0    0  0.00000000000E+00  0.00000000000E+00  0.45593999997E+02  0.45594000000E+02  0.51100000000E-03 0.  1.
         11   -1    0    0    0    0 -0.00000000000E+00 -0.00000000000E+00 -0.45593999997E+02  0.45594000000E+02  0.51100000000E-03 0. -1.
    9900012    2    1    2    0    0 -0.28415027388E+02 -0.25158130265E+02  0.14588625391E+02  0.50528766231E+02  0.29999715434E+02 0.  0.
         12    1    1    2    0    0  0.28415027388E+02  0.25158130265E+02 -0.14588625391E+02  0.40659233769E+02  0.00000000000E+00 0. -1.
         11    1    3    3    0    0 -0.25938162790E+02 -0.28846785135E+02  0.16919164937E+02  0.42322375217E+02  0.51100000000E-03 0.  1.
        -11    1    3    3    0    0  0.17702013559E+01 -0.39937183126E+00 -0.12748448751E+01  0.22177331708E+01  0.51100000000E-03 0. -1.
        -12    1    3    3    0    0 -0.42470659539E+01  0.40880267014E+01 -0.10556946709E+01  0.59886578435E+01  0.00000000000E+00 0.  1.
</event>
<event>
 7    1  0.8697654E-014  0.5052887E+02  0.7816164E-02  0.1300439E+00
        -11   -1    0    0    0    0  0.00000000000E+00  0.00000000000E+00  0.45593999997E+02  0.45594000000E+02  0.51100000000E-03 0. -1.
         11   -1    0    0    0    0 -0.00000000000E+00 -0.00000000000E+00 -0.45593999997E+02  0.45594000000E+02  0.51100000000E-03 0.  1.
    9900012    2    1    2    0    0 -0.17040661010E+02  0.58358729551E+01 -0.36451658082E+02  0.50528869196E+02  0.30000028408E+02 0.  0.
         12    1    1    2    0    0  0.17040661010E+02 -0.58358729551E+01  0.36451658082E+02  0.40659130804E+02  0.00000000000E+00 0. -1.
         11    1    3    3    0    0 -0.14335806596E+02  0.63923100552E+00 -0.73470665272E+01  0.16121518348E+02  0.51100000000E-03 0. -1.
        -11    1    3    3    0    0 -0.33606907363E+01  0.39824227699E+00  0.12956592691E+01  0.36237511419E+01  0.51100000000E-03 0.  1.
         12    1    3    3    0    0  0.65583632154E+00  0.47983996726E+01 -0.30400250824E+02  0.30783599706E+02  0.00000000000E+00 0. -1.
</event>
<event>
 7    1  0.8697654E-014  0.5052885E+02  0.7816164E-02  0.1300439E+00
        -11   -1    0    0    0    0  0.00000000000E+00  0.00000000000E+00  0.45593999997E+02  0.45594000000E+02  0.51100000000E-03 0. -1.
         11   -1    0    0    0    0 -0.00000000000E+00 -0.00000000000E+00 -0.45593999997E+02  0.45594000000E+02  0.51100000000E-03 0.  1.
    9900012    2    1    2    0    0 -0.27899880307E+01 -0.64597513070E+01 -0.40045652133E+02  0.50528847587E+02  0.29999962726E+02 0.  0.
         12    1    1    2    0    0  0.27899880307E+01  0.64597513070E+01  0.40045652133E+02  0.40659152413E+02  0.00000000000E+00 0. -1.
         11    1    3    3    0    0  0.42844203438E+01  0.68726152539E+01 -0.73514099623E+01  0.10937656367E+02  0.51100000000E-03 0. -1.
        -11    1    3    3    0    0 -0.75637517977E+01  0.11291885399E+01 -0.88155513464E+01  0.11670447884E+02  0.51100000000E-03 0.  1.
         12    1    3    3    0    0  0.48934342328E+00 -0.14461555101E+02 -0.23878690825E+02  0.27920743336E+02  0.00000000000E+00 0. -1.
</event>
<event>
 7    1  0.8697654E-014  0.5052886E+02  0.7816164E-02  0.1300439E+00
        -11   -1    0    0    0    0  0.00000000000E+00  0.00000000000E+00  0.45593999997E+02  0.45594000000E+02  0.51100000000E-03 0. -1.
         11   -1    0    0    0    0 -0.00000000000E+00 -0.00000000000E+00 -0.45593999997E+02  0.45594000000E+02  0.51100000000E-03 0.  1.
    9900012    2    1    2    0    0  0.97647483513E+01 -0.80155637547E+01  0.38646681101E+02  0.50528861632E+02  0.30000005418E+02 0.  0.
        -12    1    1    2    0    0 -0.97647483513E+01  0.80155637547E+01 -0.38646681101E+02  0.40659138368E+02  0.00000000000E+00 0.  1.
         11    1    3    3    0    0  0.52982048852E+01 -0.12172279002E+02  0.15906861783E+02  0.20718677640E+02  0.51100000000E-03 0. -1.
        -11    1    3    3    0    0  0.13902249575E+01 -0.70965823985E+01  0.59471986803E+01  0.93628723998E+01  0.51100000000E-03 0.  1.
        -12    1    3    3    0    0  0.30763185087E+01  0.11253297646E+02  0.16792620637E+02  0.20447311592E+02  0.00000000000E+00 0.  1.
</event>
<event>
 7    1  0.8697654E-014  0.5052887E+02  0.7816164E-02  0.1300439E+00
        -11   -1    0    0    0    0  0.00000000000E+00  0.00000000000E+00  0.45593999997E+02  0.45594000000E+02  0.51100000000E-03 0. -1.
         11   -1    0    0    0    0 -0.00000000000E+00 -0.00000000000E+00 -0.45593999997E+02  0.45594000000E+02  0.51100000000E-03 0.  1.
    9900012    2    1    2    0    0  0.47891932746E+00 -0.39024476191E+02 -0.11402884925E+02  0.50528869534E+02  0.30000029434E+02 0.  0.
         12    1    1    2    0    0 -0.47891932746E+00  0.39024476191E+02  0.11402884925E+02  0.40659130466E+02  0.00000000000E+00 0. -1.
         11    1    3    3    0    0 -0.97644034996E+01 -0.17289504507E+02  0.20281753179E+01  0.19959560045E+02  0.51100000000E-03 0. -1.
        -11    1    3    3    0    0  0.82495101393E+01 -0.10931929652E+02 -0.64268826778E+00  0.13710381173E+02  0.51100000000E-03 0.  1.
         12    1    3    3    0    0  0.19938126877E+01 -0.10803042032E+02 -0.12788371975E+02  0.16858928315E+02  0.00000000000E+00 0. -1.
</event>
<event>
 7    1  0.8697654E-014  0.5052885E+02  0.7816164E-02  0.1300439E+00
        -11   -1    0    0    0    0  0.00000000000E+00  0.00000000000E+00  0.45593999997E+02  0.45594000000E+02  0.51100000000E-03 0. -1.
         11   -1    0    0    0    0 -0.00000000000E+00 -0.00000000000E+00 -0.45593999997E+02  0.45594000000E+02  0.51100000000E-03 0.  1.
    9900012    2    1    2    0    0  0.39740564650E+02  0.73735519938E+01 -0.44141430680E+01  0.50528850885E+02  0.29999972749E+02 0.  0.
         12    1    1    2    0    0 -0.39740564650E+02 -0.73735519938E+01  0.44141430680E+01  0.40659149115E+02  0.00000000000E+00 0. -1.
         11    1    3    3    0    0  0.25214248308E+02  0.84877091023E+01  0.66555953647E+01  0.27424377358E+02  0.51100000000E-03 0. -1.
        -11    1    3    3    0    0  0.12837559376E+02 -0.14724689399E+01 -0.10801322592E+01  0.12966795343E+02  0.51100000000E-03 0.  1.
         12    1    3    3    0    0  0.16887569665E+01  0.35831183147E+00 -0.99896061735E+01  0.10137678184E+02  0.00000000000E+00 0. -1.
</event>
<event>
 7    1  0.8697654E-014  0.5052886E+02  0.7816164E-02  0.1300439E+00
        -11   -1    0    0    0    0  0.00000000000E+00  0.00000000000E+00  0.45593999997E+02  0.45594000000E+02  0.51100000000E-03 0. -1.
         11   -1    0    0    0    0 -0.00000000000E+00 -0.00000000000E+00 -0.45593999997E+02  0.45594000000E+02  0.51100000000E-03 0.  1.
    9900012    2    1    2    0    0  0.87526206294E+01  0.27296932856E+02 -0.28834606312E+02  0.50528862867E+02  0.30000009171E+02 0.  0.
         12    1    1    2    0    0 -0.87526206294E+01 -0.27296932856E+02  0.28834606312E+02  0.40659137133E+02  0.00000000000E+00 0. -1.
         11    1    3    3    0    0 -0.26938396004E+01  0.13782682743E+02 -0.20859012055E+02  0.25145924115E+02  0.51100000000E-03 0. -1.
        -11    1    3    3    0    0  0.83599397979E+01 -0.11567752440E+01 -0.57840545626E+01  0.10231422669E+02  0.51100000000E-03 0.  1.
        -12    1    3    3    0    0  0.30865204320E+01  0.14671025357E+02 -0.21915396938E+01  0.15151516084E+02  0.00000000000E+00 0.  1.
</event>
<event>
 7    1  0.8697654E-014  0.5052890E+02  0.7816164E-02  0.1300439E+00
        -11   -1    0    0    0    0  0.00000000000E+00  0.00000000000E+00  0.45593999997E+02  0.45594000000E+02  0.51100000000E-03 0. -1.
         11   -1    0    0    0    0 -0.00000000000E+00 -0.00000000000E+00 -0.45593999997E+02  0.45594000000E+02  0.51100000000E-03 0.  1.
    9900012    2    1    2    0    0  0.12172519628E+02 -0.21637362616E+02  0.32199632386E+02  0.50528904820E+02  0.30000136689E+02 0.  0.
        -12    1    1    2    0    0 -0.12172519628E+02  0.21637362616E+02 -0.32199632386E+02  0.40659095180E+02  0.00000000000E+00 0.  1.
         11    1    3    3    0    0  0.79448245808E+01 -0.52461380915E+01 -0.18148909910E+01  0.96920602591E+01  0.51100000000E-03 0. -1.
        -11    1    3    3    0    0 -0.23872956327E+01  0.18255701579E+01  0.28765033155E+01  0.41600671178E+01  0.51100000000E-03 0.  1.
         12    1    3    3    0    0  0.66149906795E+01 -0.18216794683E+02  0.31138020062E+02  0.36676777443E+02  0.00000000000E+00 0. -1.
</event>
<event>
 7    1  0.1068268E-013  0.5052887E+02  0.7816164E-02  0.1300439E+00
        -11   -1    0    0    0    0  0.00000000000E+00  0.00000000000E+00  0.45593999997E+02  0.45594000000E+02  0.51100000000E-03 0. -1.
         11   -1    0    0    0    0 -0.00000000000E+00 -0.00000000000E+00 -0.45593999997E+02  0.45594000000E+02  0.51100000000E-03 0.  1.
    9900012    2    1    2    0    0 -0.24108267825E+02 -0.79525607114E+01 -0.31760237224E+02  0.50528874728E+02  0.30000045224E+02 0.  0.
         12    1    1    2    0    0  0.24108267825E+02  0.79525607114E+01  0.31760237224E+02  0.40659125272E+02  0.00000000000E+00 0. -1.
         11    1    3    3    0    0 -0.20564291473E+01 -0.89145530084E+01 -0.14191136160E+02  0.16884504788E+02  0.51100000000E-03 0.  1.
        -11    1    3    3    0    0 -0.20715847072E+02 -0.42536835980E+01 -0.18598456475E+02  0.28162789769E+02  0.51100000000E-03 0. -1.
         12    1    3    3    0    0 -0.13359916057E+01  0.52156758950E+01  0.10293554112E+01  0.54815801713E+01  0.00000000000E+00 0. -1.
</event>
<event>
 7    1  0.8697654E-014  0.5052891E+02  0.7816164E-02  0.1300439E+00
        -11   -1    0    0    0    0  0.00000000000E+00  0.00000000000E+00  0.45593999997E+02  0.45594000000E+02  0.51100000000E-03 0.  1.
         11   -1    0    0    0    0 -0.00000000000E+00 -0.00000000000E+00 -0.45593999997E+02  0.45594000000E+02  0.51100000000E-03 0. -1.
    9900012    2    1    2    0    0  0.40015250352E+02 -0.71051193866E+01 -0.12077897478E+01  0.50528908295E+02  0.30000147253E+02 0.  0.
         12    1    1    2    0    0 -0.40015250352E+02  0.71051193866E+01  0.12077897478E+01  0.40659091705E+02  0.00000000000E+00 0. -1.
         11    1    3    3    0    0  0.74982830632E+01 -0.68669010708E+01 -0.66926143302E+01  0.12172496295E+02  0.51100000000E-03 0. -1.
        -11    1    3    3    0    0  0.27180724532E+02 -0.78626334666E+01  0.18169214528E+01  0.28353377135E+02  0.51100000000E-03 0.  1.
         12    1    3    3    0    0  0.53362427563E+01  0.76244151508E+01  0.36679031297E+01  0.10003034865E+02  0.00000000000E+00 0. -1.
</event>
<event>
 7    1  0.8697654E-014  0.5052886E+02  0.7816164E-02  0.1300439E+00
        -11   -1    0    0    0    0  0.00000000000E+00  0.00000000000E+00  0.45593999997E+02  0.45594000000E+02  0.51100000000E-03 0. -1.
         11   -1    0    0    0    0 -0.00000000000E+00 -0.00000000000E+00 -0.45593999997E+02  0.45594000000E+02  0.51100000000E-03 0.  1.
    9900012    2    1    2    0    0 -0.18504846928E+02  0.36191913619E+02 -0.93883442827E+00  0.50528863495E+02  0.30000011080E+02 0.  0.
        -12    1    1    2    0    0  0.18504846928E+02 -0.36191913619E+02  0.93883442827E+00  0.40659136505E+02  0.00000000000E+00 0.  1.
         11    1    3    3    0    0 -0.43809616056E+01  0.24860693378E+02 -0.70814291683E+01  0.26218190997E+02  0.51100000000E-03 0. -1.
        -11    1    3    3    0    0 -0.17194526888E+01  0.10390380918E+02  0.22313072506E+00  0.10534055285E+02  0.51100000000E-03 0.  1.
        -12    1    3    3    0    0 -0.12404432634E+02  0.94083932266E+00  0.59194640150E+01  0.13776617213E+02  0.00000000000E+00 0.  1.
</event>
<event>
 7    1  0.8697654E-014  0.5052876E+02  0.7816164E-02  0.1300439E+00
        -11   -1    0    0    0    0  0.00000000000E+00  0.00000000000E+00  0.45593999997E+02  0.45594000000E+02  0.51100000000E-03 0. -1.
         11   -1    0    0    0    0 -0.00000000000E+00 -0.00000000000E+00 -0.45593999997E+02  0.45594000000E+02  0.51100000000E-03 0.  1.
    9900012    2    1    2    0    0  0.14374644158E+02  0.36189122356E+01 -0.37860893760E+02  0.50528755089E+02  0.29999681568E+02 0.  0.
         12    1    1    2    0    0 -0.14374644158E+02 -0.36189122356E+01  0.37860893760E+02  0.40659244911E+02  0.00000000000E+00 0. -1.
         11    1    3    3    0    0  0.42009948201E+01  0.69364018238E+01  0.12188859782E+01  0.82004701712E+01  0.51100000000E-03 0. -1.
        -11    1    3    3    0    0  0.72012573605E+01  0.93261875667E+00 -0.79406288781E+01  0.10760179950E+02  0.51100000000E-03 0.  1.
        -12    1    3    3    0    0  0.29723919774E+01 -0.42501083448E+01 -0.31139150860E+02  0.31568104968E+02  0.00000000000E+00 0.  1.
</event>
<event>
 7    1  0.8697654E-014  0.5052887E+02  0.7816164E-02  0.1300439E+00
        -11   -1    0    0    0    0  0.00000000000E+00  0.00000000000E+00  0.45593999997E+02  0.45594000000E+02  0.51100000000E-03 0. -1.
         11   -1    0    0    0    0 -0.00000000000E+00 -0.00000000000E+00 -0.45593999997E+02  0.45594000000E+02  0.51100000000E-03 0.  1.
    9900012    2    1    2    0    0 -0.66545198350E+01 -0.62651971755E+01 -0.39618549924E+02  0.50528870300E+02  0.30000031765E+02 0.  0.
         12    1    1    2    0    0  0.66545198350E+01  0.62651971755E+01  0.39618549924E+02  0.40659129700E+02  0.00000000000E+00 0. -1.
         11    1    3    3    0    0  0.51802518735E+01 -0.26871096552E+01 -0.57729688964E+01  0.82086989171E+01  0.51100000000E-03 0. -1.
        -11    1    3    3    0    0 -0.18502787583E+01  0.90217236769E+01 -0.10389358566E+02  0.13883580275E+02  0.51100000000E-03 0.  1.
        -12    1    3    3    0    0 -0.99844929502E+01 -0.12599811197E+02 -0.23456222462E+02  0.28436591108E+02  0.00000000000E+00 0.  1.
</event>
<event>
 7    1  0.8697654E-014  0.5052889E+02  0.7816164E-02  0.1300439E+00
        -11   -1    0    0    0    0  0.00000000000E+00  0.00000000000E+00  0.45593999997E+02  0.45594000000E+02  0.51100000000E-03 0. -1.
         11   -1    0    0    0    0 -0.00000000000E+00 -0.00000000000E+00 -0.45593999997E+02  0.45594000000E+02  0.51100000000E-03 0.  1.
    9900012    2    1    2    0    0 -0.19018126887E+02 -0.89328583640E+01 -0.34809172288E+02  0.50528885594E+02  0.30000078253E+02 0.  0.
         12    1    1    2    0    0  0.19018126887E+02  0.89328583640E+01  0.34809172288E+02  0.40659114406E+02  0.00000000000E+00 0. -1.
         11    1    3    3    0    0 -0.11014383510E+02 -0.87737374065E+01 -0.22279984537E+02  0.26357026073E+02  0.51100000000E-03 0. -1.
        -11    1    3    3    0    0 -0.48866977275E+01  0.27782269841E+01 -0.17044999575E+02  0.17947990713E+02  0.51100000000E-03 0.  1.
         12    1    3    3    0    0 -0.31170456497E+01 -0.29373479415E+01  0.45158118240E+01  0.62238688082E+01  0.00000000000E+00 0. -1.
</event>
<event>
 7    1  0.8697654E-014  0.5052885E+02  0.7816164E-02  0.1300439E+00
        -11   -1    0    0    0    0  0.00000000000E+00  0.00000000000E+00  0.45593999997E+02  0.45594000000E+02  0.51100000000E-03 0. -1.
         11   -1    0    0    0    0 -0.00000000000E+00 -0.00000000000E+00 -0.45593999997E+02  0.45594000000E+02  0.51100000000E-03 0.  1.
    9900012    2    1    2    0    0 -0.62625668754E+01  0.25193037017E+02  0.31293086795E+02  0.50528854176E+02  0.29999982752E+02 0.  0.
        -12    1    1    2    0    0  0.62625668754E+01 -0.25193037017E+02 -0.31293086795E+02  0.40659145824E+02  0.00000000000E+00 0.  1.
         11    1    3    3    0    0 -0.78214449903E+01  0.10175859719E+02 -0.94380708712E+00  0.12869106218E+02  0.51100000000E-03 0. -1.
        -11    1    3    3    0    0  0.25921430747E+01 -0.42998303072E+00  0.10273006801E+01  0.28212476097E+01  0.51100000000E-03 0.  1.
         12    1    3    3    0    0 -0.10332649598E+01  0.15447160329E+02  0.31209593202E+02  0.34838500348E+02  0.00000000000E+00 0. -1.
</event>
<event>
 7    1  0.8697654E-014  0.5052885E+02  0.7816164E-02  0.1300439E+00
        -11   -1    0    0    0    0  0.00000000000E+00  0.00000000000E+00  0.45593999997E+02  0.45594000000E+02  0.51100000000E-03 0. -1.
         11   -1    0    0    0    0 -0.00000000000E+00 -0.00000000000E+00 -0.45593999997E+02  0.45594000000E+02  0.51100000000E-03 0.  1.
    9900012    2    1    2    0    0 -0.63718446838E+01 -0.39895902314E+02 -0.45697713674E+01  0.50528852979E+02  0.29999979116E+02 0.  0.
         12    1    1    2    0    0  0.63718446838E+01  0.39895902314E+02  0.45697713674E+01  0.40659147021E+02  0.00000000000E+00 0. -1.
         11    1    3    3    0    0 -0.72665405858E+01 -0.16692691892E+02  0.64090024564E+01  0.19300877893E+02  0.51100000000E-03 0. -1.
        -11    1    3    3    0    0  0.16687284807E+01 -0.24284771403E+02 -0.46768686135E+01  0.24787252311E+02  0.51100000000E-03 0.  1.
         12    1    3    3    0    0 -0.77403257872E+00  0.10815609813E+01 -0.63019052103E+01  0.64407227753E+01  0.00000000000E+00 0. -1.
</event>
<event>
 7    1  0.8697654E-014  0.5052886E+02  0.7816164E-02  0.1300439E+00
        -11   -1    0    0    0    0  0.00000000000E+00  0.00000000000E+00  0.45593999997E+02  0.45594000000E+02  0.51100000000E-03 0. -1.
         11   -1    0    0    0    0 -0.00000000000E+00 -0.00000000000E+00 -0.45593999997E+02  0.45594000000E+02  0.51100000000E-03 0.  1.
    9900012    2    1    2    0    0  0.25468916490E+01 -0.23655925416E+02 -0.32970840208E+02  0.50528858735E+02  0.29999996611E+02 0.  0.
         12    1    1    2    0    0 -0.25468916490E+01  0.23655925416E+02  0.32970840208E+02  0.40659141265E+02  0.00000000000E+00 0. -1.
         11    1    3    3    0    0 -0.28578446251E+01  0.14103386502E+01 -0.79300494690E+01  0.85464621833E+01  0.51100000000E-03 0. -1.
        -11    1    3    3    0    0 -0.57309294313E+01 -0.21110896515E+02 -0.16590222955E+02  0.27454489647E+02  0.51100000000E-03 0.  1.
         12    1    3    3    0    0  0.11135665705E+02 -0.39553675512E+01 -0.84505677846E+01  0.14527906905E+02  0.00000000000E+00 0. -1.
</event>
<event>
 7    1  0.8697654E-014  0.5052888E+02  0.7816164E-02  0.1300439E+00
        -11   -1    0    0    0    0  0.00000000000E+00  0.00000000000E+00  0.45593999997E+02  0.45594000000E+02  0.51100000000E-03 0. -1.
         11   -1    0    0    0    0 -0.00000000000E+00 -0.00000000000E+00 -0.45593999997E+02  0.45594000000E+02  0.51100000000E-03 0.  1.
    9900012    2    1    2    0    0 -0.21566281016E+02 -0.15956640562E+02  0.30552332715E+02  0.50528881844E+02  0.30000066854E+02 0.  0.
        -12    1    1    2    0    0  0.21566281016E+02  0.15956640562E+02 -0.30552332715E+02  0.40659118156E+02  0.00000000000E+00 0.  1.
         11    1    3    3    0    0 -0.70629113178E+01  0.33807837808E+01  0.45507245281E+01  0.90566831262E+01  0.51100000000E-03 0. -1.
        -11    1    3    3    0    0  0.28314949964E+01  0.90605053641E+00  0.98948568963E+01  0.10331819044E+02  0.51100000000E-03 0.  1.
         12    1    3    3    0    0 -0.17334864695E+02 -0.20243474879E+02  0.16106751290E+02  0.31140379675E+02  0.00000000000E+00 0. -1.
</event>
<event>
 7    1  0.8697654E-014  0.5052886E+02  0.7816164E-02  0.1300439E+00
        -11   -1    0    0    0    0  0.00000000000E+00  0.00000000000E+00  0.45593999997E+02  0.45594000000E+02  0.51100000000E-03 0.  1.
         11   -1    0    0    0    0 -0.00000000000E+00 -0.00000000000E+00 -0.45593999997E+02  0.45594000000E+02  0.51100000000E-03 0. -1.
    9900012    2    1    2    0    0 -0.10746278144E+02  0.19396079101E+02  0.34080427687E+02  0.50528856751E+02  0.29999990580E+02 0.  0.
        -12    1    1    2    0    0  0.10746278144E+02 -0.19396079101E+02 -0.34080427687E+02  0.40659143249E+02  0.00000000000E+00 0.  1.
         11    1    3    3    0    0 -0.95231842104E+01  0.87282094626E+01  0.14967578593E+02  0.19771218655E+02  0.51100000000E-03 0.  1.
        -11    1    3    3    0    0  0.97207081704E+01  0.27212415925E+01  0.52022810839E+01  0.11356101967E+02  0.51100000000E-03 0. -1.
         12    1    3    3    0    0 -0.10943802104E+02  0.79466280461E+01  0.13910568010E+02  0.19401536129E+02  0.00000000000E+00 0. -1.
</event>
<event>
 7    1  0.8697654E-014  0.5052880E+02  0.7816164E-02  0.1300439E+00
        -11   -1    0    0    0    0  0.00000000000E+00  0.00000000000E+00  0.45593999997E+02  0.45594000000E+02  0.51100000000E-03 0.  1.
         11   -1    0    0    0    0 -0.00000000000E+00 -0.00000000000E+00 -0.45593999997E+02  0.45594000000E+02  0.51100000000E-03 0. -1.
    9900012    2    1    2    0    0 -0.34791476277E+02  0.66134440777E+01  0.19974634632E+02  0.50528800637E+02  0.29999820017E+02 0.  0.
        -12    1    1    2    0    0  0.34791476277E+02 -0.66134440777E+01 -0.19974634632E+02  0.40659199363E+02  0.00000000000E+00 0.  1.
         11    1    3    3    0    0 -0.13132407541E+02  0.73116408841E+01  0.21021760195E+01  0.15176935281E+02  0.51100000000E-03 0. -1.
        -11    1    3    3    0    0  0.41561941148E+01  0.17685241458E+01  0.19403220018E+01  0.49159411008E+01  0.51100000000E-03 0.  1.
        -12    1    3    3    0    0 -0.25815262851E+02 -0.24667209522E+01  0.15932136611E+02  0.30435924256E+02  0.00000000000E+00 0.  1.
</event>
<event>
 7    1  0.8697654E-014  0.5052886E+02  0.7816164E-02  0.1300439E+00
        -11   -1    0    0    0    0  0.00000000000E+00  0.00000000000E+00  0.45593999997E+02  0.45594000000E+02  0.51100000000E-03 0. -1.
         11   -1    0    0    0    0 -0.00000000000E+00 -0.00000000000E+00 -0.45593999997E+02  0.45594000000E+02  0.51100000000E-03 0.  1.
    9900012    2    1    2    0    0  0.22419273612E+02 -0.14720725570E+02 -0.30558828660E+02  0.50528860810E+02  0.30000002918E+02 0.  0.
         12    1    1    2    0    0 -0.22419273612E+02  0.14720725570E+02  0.30558828660E+02  0.40659139190E+02  0.00000000000E+00 0. -1.
         11    1    3    3    0    0  0.18889229083E+02 -0.12278452763E+02 -0.30471508624E+02  0.37895596257E+02  0.51100000000E-03 0. -1.
        -11    1    3    3    0    0  0.58426580018E+01 -0.55524512514E+01 -0.20097241436E+01  0.83069464197E+01  0.51100000000E-03 0.  1.
         12    1    3    3    0    0 -0.23126134724E+01  0.31101784450E+01  0.19224041077E+01  0.43263181327E+01  0.00000000000E+00 0. -1.
</event>
<event>
 7    1  0.8697654E-014  0.5052886E+02  0.7816164E-02  0.1300439E+00
        -11   -1    0    0    0    0  0.00000000000E+00  0.00000000000E+00  0.45593999997E+02  0.45594000000E+02  0.51100000000E-03 0. -1.
         11   -1    0    0    0    0 -0.00000000000E+00 -0.00000000000E+00 -0.45593999997E+02  0.45594000000E+02  0.51100000000E-03 0.  1.
    9900012    2    1    2    0    0 -0.61448479665E+01 -0.70963814535E-01 -0.40192058366E+02  0.50528858984E+02  0.29999997369E+02 0.  0.
         12    1    1    2    0    0  0.61448479665E+01  0.70963814535E-01  0.40192058366E+02  0.40659141016E+02  0.00000000000E+00 0. -1.
         11    1    3    3    0    0  0.17165428764E+01  0.40875004487E+01 -0.62922747049E+01  0.76972008281E+01  0.51100000000E-03 0. -1.
        -11    1    3    3    0    0 -0.45169958851E+01 -0.69264233716E+01 -0.36729993784E+02  0.37649316543E+02  0.51100000000E-03 0.  1.
         12    1    3    3    0    0 -0.33443949578E+01  0.27679591084E+01  0.28302101224E+01  0.51823416132E+01  0.00000000000E+00 0. -1.
</event>
<event>
 7    1  0.8697654E-014  0.5052886E+02  0.7816164E-02  0.1300439E+00
        -11   -1    0    0    0    0  0.00000000000E+00  0.00000000000E+00  0.45593999997E+02  0.45594000000E+02  0.51100000000E-03 0.  1.
         11   -1    0    0    0    0 -0.00000000000E+00 -0.00000000000E+00 -0.45593999997E+02  0.45594000000E+02  0.51100000000E-03 0. -1.
    9900012    2    1    2    0    0  0.26806951531E+02  0.68309816038E+01 -0.29797489959E+02  0.50528863660E+02  0.30000011581E+02 0.  0.
         12    1    1    2    0    0 -0.26806951531E+02 -0.68309816038E+01  0.29797489959E+02  0.40659136340E+02  0.00000000000E+00 0. -1.
         11    1    3    3    0    0  0.12140268766E+02  0.12425820521E+02 -0.29893456905E+02  0.34574642548E+02  0.51100000000E-03 0. -1.
        -11    1    3    3    0    0  0.37892027938E+01 -0.25696598996E+00 -0.45510776842E+00  0.38250768194E+01  0.51100000000E-03 0.  1.
        -12    1    3    3    0    0  0.10877479971E+02 -0.53378729277E+01  0.55107471482E+00  0.12129144292E+02  0.00000000000E+00 0.  1.
</event>
<event>
 7    1  0.8697654E-014  0.5052886E+02  0.7816164E-02  0.1300439E+00
        -11   -1    0    0    0    0  0.00000000000E+00  0.00000000000E+00  0.45593999997E+02  0.45594000000E+02  0.51100000000E-03 0. -1.
         11   -1    0    0    0    0 -0.00000000000E+00 -0.00000000000E+00 -0.45593999997E+02  0.45594000000E+02  0.51100000000E-03 0.  1.
    9900012    2    1    2    0    0  0.31834650331E+02 -0.37753200581E+01  0.25009345484E+02  0.50528863699E+02  0.30000011698E+02 0.  0.
        -12    1    1    2    0    0 -0.31834650331E+02  0.37753200581E+01 -0.25009345484E+02  0.40659136301E+02  0.00000000000E+00 0.  1.
         11    1    3    3    0    0  0.28692405479E+02 -0.73971244074E+01  0.20044103109E+02  0.35773421018E+02  0.51100000000E-03 0. -1.
        -11    1    3    3    0    0  0.55068881272E+01 -0.24250791589E+01 -0.80287857290E+00  0.60705386941E+01  0.51100000000E-03 0.  1.
        -12    1    3    3    0    0 -0.23646432747E+01  0.60468835083E+01  0.57681209482E+01  0.86849039864E+01  0.00000000000E+00 0.  1.
</event>
<event>
 7    1  0.8697654E-014  0.5052898E+02  0.7816164E-02  0.1300438E+00
        -11   -1    0    0    0    0  0.00000000000E+00  0.00000000000E+00  0.45593999997E+02  0.45594000000E+02  0.51100000000E-03 0.  1.
         11   -1    0    0    0    0 -0.00000000000E+00 -0.00000000000E+00 -0.45593999997E+02  0.45594000000E+02  0.51100000000E-03 0. -1.
    9900012    2    1    2    0    0 -0.36690923331E+02 -0.16758046522E+02  0.51088137373E+01  0.50528979403E+02  0.30000363392E+02 0.  0.
        -12    1    1    2    0    0  0.36690923331E+02  0.16758046522E+02 -0.51088137373E+01  0.40659020597E+02  0.00000000000E+00 0.  1.
         11    1    3    3    0    0 -0.25597458737E+02 -0.19460526906E+02  0.75166222725E+00  0.32163752854E+02  0.51100000000E-03 0. -1.
        -11    1    3    3    0    0 -0.90472090225E+00 -0.49018303546E+01  0.22867553092E+01  0.54841326425E+01  0.51100000000E-03 0.  1.
         12    1    3    3    0    0 -0.10188743691E+02  0.76043107386E+01  0.20703962008E+01  0.12881093907E+02  0.00000000000E+00 0. -1.
</event>
<event>
 7    1  0.8697654E-014  0.5052886E+02  0.7816164E-02  0.1300439E+00
        -11   -1    0    0    0    0  0.00000000000E+00  0.00000000000E+00  0.45593999997E+02  0.45594000000E+02  0.51100000000E-03 0.  1.
         11   -1    0    0    0    0 -0.00000000000E+00 -0.00000000000E+00 -0.45593999997E+02  0.45594000000E+02  0.51100000000E-03 0. -1.
    9900012    2    1    2    0    0 -0.25878874665E+02  0.30667871462E+02  0.65521708371E+01  0.50528862815E+02  0.30000009012E+02 0.  0.
         12    1    1    2    0    0  0.25878874665E+02 -0.30667871462E+02 -0.65521708371E+01  0.40659137185E+02  0.00000000000E+00 0. -1.
         11    1    3    3    0    0 -0.22805032743E+02  0.16147859190E+02  0.75548840112E+01  0.28946487654E+02  0.51100000000E-03 0. -1.
        -11    1    3    3    0    0 -0.75005937050E+01  0.14121314655E+02  0.21492907012E+01  0.16133501923E+02  0.51100000000E-03 0.  1.
         12    1    3    3    0    0  0.44267517825E+01  0.39869761723E+00 -0.31520038753E+01  0.54488732380E+01  0.00000000000E+00 0. -1.
</event>
<event>
 7    1  0.8697654E-014  0.5052884E+02  0.7816164E-02  0.1300439E+00
        -11   -1    0    0    0    0  0.00000000000E+00  0.00000000000E+00  0.45593999997E+02  0.45594000000E+02  0.51100000000E-03 0. -1.
         11   -1    0    0    0    0 -0.00000000000E+00 -0.00000000000E+00 -0.45593999997E+02  0.45594000000E+02  0.51100000000E-03 0.  1.
    9900012    2    1    2    0    0  0.63901815270E+00  0.28511907637E+02  0.28979825047E+02  0.50528837673E+02  0.29999932592E+02 0.  0.
        -12    1    1    2    0    0 -0.63901815270E+00 -0.28511907637E+02 -0.28979825047E+02  0.40659162327E+02  0.00000000000E+00 0.  1.
         11    1    3    3    0    0  0.47013036777E+00 -0.50935207456E+01  0.88818451678E+01  0.10249495109E+02  0.51100000000E-03 0.  1.
        -11    1    3    3    0    0  0.30311162026E+01  0.19289480016E+02  0.72402493866E+01  0.20825295103E+02  0.51100000000E-03 0. -1.
        -12    1    3    3    0    0 -0.28622284176E+01  0.14315948367E+02  0.12857730493E+02  0.19454047461E+02  0.00000000000E+00 0.  1.
</event>
<event>
 7    1  0.8697654E-014  0.5052887E+02  0.7816164E-02  0.1300439E+00
        -11   -1    0    0    0    0  0.00000000000E+00  0.00000000000E+00  0.45593999997E+02  0.45594000000E+02  0.51100000000E-03 0. -1.
         11   -1    0    0    0    0 -0.00000000000E+00 -0.00000000000E+00 -0.45593999997E+02  0.45594000000E+02  0.51100000000E-03 0.  1.
    9900012    2    1    2    0    0  0.10550237110E+02 -0.11931528725E+02 -0.37409839546E+02  0.50528868484E+02  0.30000026243E+02 0.  0.
         12    1    1    2    0    0 -0.10550237110E+02  0.11931528725E+02  0.37409839546E+02  0.40659131516E+02  0.00000000000E+00 0. -1.
         11    1    3    3    0    0 -0.25222289919E+01  0.31362374930E+01  0.24091677216E+01  0.46905984770E+01  0.51100000000E-03 0. -1.
        -11    1    3    3    0    0  0.12158276824E+01 -0.94707460104E+01 -0.15337851521E+02  0.18067178985E+02  0.51100000000E-03 0.  1.
        -12    1    3    3    0    0  0.11856638420E+02 -0.55970202075E+01 -0.24481155747E+02  0.27771091022E+02  0.00000000000E+00 0.  1.
</event>
<event>
 7    1  0.8697654E-014  0.5052885E+02  0.7816164E-02  0.1300439E+00
        -11   -1    0    0    0    0  0.00000000000E+00  0.00000000000E+00  0.45593999997E+02  0.45594000000E+02  0.51100000000E-03 0. -1.
         11   -1    0    0    0    0 -0.00000000000E+00 -0.00000000000E+00 -0.45593999997E+02  0.45594000000E+02  0.51100000000E-03 0.  1.
    9900012    2    1    2    0    0  0.18782980487E+02 -0.11424683440E+02 -0.34202960270E+02  0.50528852949E+02  0.29999979024E+02 0.  0.
         12    1    1    2    0    0 -0.18782980487E+02  0.11424683440E+02  0.34202960270E+02  0.40659147051E+02  0.00000000000E+00 0. -1.
         11    1    3    3    0    0  0.32955182430E+01  0.28783888874E+01 -0.13829591898E+02  0.14505280949E+02  0.51100000000E-03 0. -1.
        -11    1    3    3    0    0  0.49197173676E+01 -0.11361609871E+02 -0.21690461978E+02  0.24975306583E+02  0.51100000000E-03 0.  1.
         12    1    3    3    0    0  0.10567744877E+02 -0.29414624569E+01  0.13170936064E+01  0.11048265417E+02  0.00000000000E+00 0. -1.
</event>
<event>
 7    1  0.8697654E-014  0.5052886E+02  0.7816164E-02  0.1300439E+00
        -11   -1    0    0    0    0  0.00000000000E+00  0.00000000000E+00  0.45593999997E+02  0.45594000000E+02  0.51100000000E-03 0. -1.
         11   -1    0    0    0    0 -0.00000000000E+00 -0.00000000000E+00 -0.45593999997E+02  0.45594000000E+02  0.51100000000E-03 0.  1.
    9900012    2    1    2    0    0 -0.99183761474E+01 -0.42674624433E+01  0.39199242478E+02  0.50528855494E+02  0.29999986760E+02 0.  0.
        -12    1    1    2    0    0  0.99183761474E+01  0.42674624433E+01 -0.39199242478E+02  0.40659144506E+02  0.00000000000E+00 0.  1.
         11    1    3    3    0    0  0.10254468462E+01  0.74532490427E+01  0.20501061321E+02  0.21837948119E+02  0.51100000000E-03 0. -1.
        -11    1    3    3    0    0  0.13351070892E+01  0.96312727248E+00 -0.12395682923E+01  0.20607413459E+01  0.51100000000E-03 0.  1.
         12    1    3    3    0    0 -0.12278930083E+02 -0.12683838758E+02  0.19937749449E+02  0.26630166029E+02  0.00000000000E+00 0. -1.
</event>
<event>
 7    1  0.8697654E-014  0.5052883E+02  0.7816164E-02  0.1300439E+00
        -11   -1    0    0    0    0  0.00000000000E+00  0.00000000000E+00  0.45593999997E+02  0.45594000000E+02  0.51100000000E-03 0. -1.
         11   -1    0    0    0    0 -0.00000000000E+00 -0.00000000000E+00 -0.45593999997E+02  0.45594000000E+02  0.51100000000E-03 0.  1.
    9900012    2    1    2    0    0  0.35896791306E+01  0.20929586094E+02  0.34673256199E+02  0.50528830484E+02  0.29999910738E+02 0.  0.
        -12    1    1    2    0    0 -0.35896791306E+01 -0.20929586094E+02 -0.34673256199E+02  0.40659169516E+02  0.00000000000E+00 0.  1.
         11    1    3    3    0    0 -0.26495384958E+01  0.17022019355E+02  0.48034135387E+01  0.17884126454E+02  0.51100000000E-03 0.  1.
        -11    1    3    3    0    0 -0.61781012418E+00  0.52874414386E+01  0.18894134989E+02  0.19629749452E+02  0.51100000000E-03 0. -1.
        -12    1    3    3    0    0  0.68570277506E+01 -0.13798746990E+01  0.10975707672E+02  0.13014954577E+02  0.00000000000E+00 0.  1.
</event>
<event>
 7    1  0.8697654E-014  0.5052885E+02  0.7816164E-02  0.1300439E+00
        -11   -1    0    0    0    0  0.00000000000E+00  0.00000000000E+00  0.45593999997E+02  0.45594000000E+02  0.51100000000E-03 0. -1.
         11   -1    0    0    0    0 -0.00000000000E+00 -0.00000000000E+00 -0.45593999997E+02  0.45594000000E+02  0.51100000000E-03 0.  1.
    9900012    2    1    2    0    0 -0.12704639387E+02 -0.23350490627E+02 -0.30765452792E+02  0.50528851460E+02  0.29999974499E+02 0.  0.
         12    1    1    2    0    0  0.12704639387E+02  0.23350490627E+02  0.30765452792E+02  0.40659148540E+02  0.00000000000E+00 0. -1.
         11    1    3    3    0    0 -0.10290614412E+02 -0.67975569194E+01 -0.29514223937E+00  0.12336556823E+02  0.51100000000E-03 0. -1.
        -11    1    3    3    0    0 -0.88644313573E+01 -0.81098823659E+01 -0.12660280785E+02  0.17453682852E+02  0.51100000000E-03 0.  1.
        -12    1    3    3    0    0  0.64504063824E+01 -0.84430513414E+01 -0.17810029768E+02  0.20738611785E+02  0.00000000000E+00 0.  1.
</event>
<event>
 7    1  0.8697654E-014  0.5052885E+02  0.7816164E-02  0.1300439E+00
        -11   -1    0    0    0    0  0.00000000000E+00  0.00000000000E+00  0.45593999997E+02  0.45594000000E+02  0.51100000000E-03 0. -1.
         11   -1    0    0    0    0 -0.00000000000E+00 -0.00000000000E+00 -0.45593999997E+02  0.45594000000E+02  0.51100000000E-03 0.  1.
    9900012    2    1    2    0    0  0.26919668487E+02  0.16601370701E+02  0.25551767455E+02  0.50528845057E+02  0.29999955036E+02 0.  0.
        -12    1    1    2    0    0 -0.26919668487E+02 -0.16601370701E+02 -0.25551767455E+02  0.40659154943E+02  0.00000000000E+00 0.  1.
         11    1    3    3    0    0  0.20981020024E+02  0.16960037061E+02  0.42989533425E+01  0.27318987142E+02  0.51100000000E-03 0. -1.
        -11    1    3    3    0    0  0.52922551407E+01  0.21548133280E+01  0.88211061514E+01  0.10510142670E+02  0.51100000000E-03 0.  1.
        -12    1    3    3    0    0  0.64639332170E+00 -0.25134796885E+01  0.12431707961E+02  0.12699715245E+02  0.00000000000E+00 0.  1.
</event>
<event>
 7    1  0.8697654E-014  0.5052886E+02  0.7816164E-02  0.1300439E+00
        -11   -1    0    0    0    0  0.00000000000E+00  0.00000000000E+00  0.45593999997E+02  0.45594000000E+02  0.51100000000E-03 0. -1.
         11   -1    0    0    0    0 -0.00000000000E+00 -0.00000000000E+00 -0.45593999997E+02  0.45594000000E+02  0.51100000000E-03 0.  1.
    9900012    2    1    2    0    0 -0.25535453576E+02 -0.27598249366E+02 -0.15473952062E+02  0.50528856505E+02  0.29999989832E+02 0.  0.
         12    1    1    2    0    0  0.25535453576E+02  0.27598249366E+02  0.15473952062E+02  0.40659143495E+02  0.00000000000E+00 0. -1.
         11    1    3    3    0    0 -0.82696246862E+01  0.17672883719E+00  0.29013186441E+01  0.87655904347E+01  0.51100000000E-03 0. -1.
        -11    1    3    3    0    0 -0.78769638914E+01 -0.21017825974E+01  0.10616546839E+01  0.82213843823E+01  0.51100000000E-03 0.  1.
        -12    1    3    3    0    0 -0.93888649980E+01 -0.25673195605E+02 -0.19436925390E+02  0.33541881688E+02  0.00000000000E+00 0.  1.
</event>
<event>
 7    1  0.8697654E-014  0.5052887E+02  0.7816164E-02  0.1300439E+00
        -11   -1    0    0    0    0  0.00000000000E+00  0.00000000000E+00  0.45593999997E+02  0.45594000000E+02  0.51100000000E-03 0. -1.
         11   -1    0    0    0    0 -0.00000000000E+00 -0.00000000000E+00 -0.45593999997E+02  0.45594000000E+02  0.51100000000E-03 0.  1.
    9900012    2    1    2    0    0 -0.18240620990E+02  0.62914697120E+01  0.35789137020E+02  0.50528866046E+02  0.30000018833E+02 0.  0.
        -12    1    1    2    0    0  0.18240620990E+02 -0.62914697120E+01 -0.35789137020E+02  0.40659133954E+02  0.00000000000E+00 0.  1.
         11    1    3    3    0    0 -0.14522284579E+02  0.45995233987E+01  0.20534368646E+02  0.25567805162E+02  0.51100000000E-03 0. -1.
        -11    1    3    3    0    0  0.14970116390E+01  0.37850430065E+01  0.18176890703E+02  0.18627048889E+02  0.51100000000E-03 0.  1.
        -12    1    3    3    0    0 -0.52153480500E+01 -0.20930966932E+01 -0.29221223283E+01  0.63340119949E+01  0.00000000000E+00 0.  1.
</event>
<event>
 7    1  0.8697654E-014  0.5052885E+02  0.7816164E-02  0.1300439E+00
        -11   -1    0    0    0    0  0.00000000000E+00  0.00000000000E+00  0.45593999997E+02  0.45594000000E+02  0.51100000000E-03 0. -1.
         11   -1    0    0    0    0 -0.00000000000E+00 -0.00000000000E+00 -0.45593999997E+02  0.45594000000E+02  0.51100000000E-03 0.  1.
    9900012    2    1    2    0    0  0.18311042304E+01  0.23416591648E+01 -0.40550343381E+02  0.50528847787E+02  0.29999963334E+02 0.  0.
         12    1    1    2    0    0 -0.18311042304E+01 -0.23416591648E+01  0.40550343381E+02  0.40659152213E+02  0.00000000000E+00 0. -1.
         11    1    3    3    0    0 -0.48609582574E+01  0.36060375221E+01 -0.35157208835E+00  0.60626747386E+01  0.51100000000E-03 0. -1.
        -11    1    3    3    0    0  0.25087564898E+00 -0.89415658695E+01 -0.17499357587E+02  0.19653041877E+02  0.51100000000E-03 0.  1.
        -12    1    3    3    0    0  0.64411868389E+01  0.76771875121E+01 -0.22699413705E+02  0.24813131172E+02  0.00000000000E+00 0.  1.
</event>
<event>
 7    1  0.8697654E-014  0.5052888E+02  0.7816164E-02  0.1300439E+00
        -11   -1    0    0    0    0  0.00000000000E+00  0.00000000000E+00  0.45593999997E+02  0.45594000000E+02  0.51100000000E-03 0. -1.
         11   -1    0    0    0    0 -0.00000000000E+00 -0.00000000000E+00 -0.45593999997E+02  0.45594000000E+02  0.51100000000E-03 0.  1.
    9900012    2    1    2    0    0 -0.14022173978E+02 -0.29074070805E+02  0.24723288347E+02  0.50528881184E+02  0.30000064846E+02 0.  0.
        -12    1    1    2    0    0  0.14022173978E+02  0.29074070805E+02 -0.24723288347E+02  0.40659118816E+02  0.00000000000E+00 0.  1.
         11    1    3    3    0    0 -0.56361534904E+01 -0.53452053113E+01  0.11300526384E+02  0.13712743810E+02  0.51100000000E-03 0. -1.
        -11    1    3    3    0    0 -0.51488116766E+01 -0.92510385338E+00 -0.50650787270E+01  0.72815590084E+01  0.51100000000E-03 0.  1.
         12    1    3    3    0    0 -0.32372088109E+01 -0.22803761640E+02  0.18487840691E+02  0.29534578365E+02  0.00000000000E+00 0. -1.
</event>
<event>
 7    1  0.8697654E-014  0.5052884E+02  0.7816164E-02  0.1300439E+00
        -11   -1    0    0    0    0  0.00000000000E+00  0.00000000000E+00  0.45593999997E+02  0.45594000000E+02  0.51100000000E-03 0. -1.
         11   -1    0    0    0    0 -0.00000000000E+00 -0.00000000000E+00 -0.45593999997E+02  0.45594000000E+02  0.51100000000E-03 0.  1.
    9900012    2    1    2    0    0 -0.14272180691E+02 -0.16329332224E+02 -0.34392221119E+02  0.50528842286E+02  0.29999946612E+02 0.  0.
         12    1    1    2    0    0  0.14272180691E+02  0.16329332224E+02  0.34392221119E+02  0.40659157714E+02  0.00000000000E+00 0. -1.
         11    1    3    3    0    0 -0.57106620664E+01 -0.16193085075E+01  0.20811965116E+01  0.62900874763E+01  0.51100000000E-03 0. -1.
        -11    1    3    3    0    0  0.18064729778E+00  0.16592643422E+01  0.13246758799E+01  0.21308585244E+01  0.51100000000E-03 0.  1.
        -12    1    3    3    0    0 -0.87421659228E+01 -0.16369288058E+02 -0.37798093510E+02  0.42107896285E+02  0.00000000000E+00 0.  1.
</event>
<event>
 7    1  0.8697654E-014  0.5052885E+02  0.7816164E-02  0.1300439E+00
        -11   -1    0    0    0    0  0.00000000000E+00  0.00000000000E+00  0.45593999997E+02  0.45594000000E+02  0.51100000000E-03 0.  1.
         11   -1    0    0    0    0 -0.00000000000E+00 -0.00000000000E+00 -0.45593999997E+02  0.45594000000E+02  0.51100000000E-03 0. -1.
    9900012    2    1    2    0    0  0.18531640630E+02 -0.34664689293E+02 -0.10397313005E+02  0.50528849666E+02  0.29999969043E+02 0.  0.
         12    1    1    2    0    0 -0.18531640630E+02  0.34664689293E+02  0.10397313005E+02  0.40659150334E+02  0.00000000000E+00 0. -1.
         11    1    3    3    0    0  0.11632841282E+02 -0.49081709242E+01  0.48565683948E+01  0.13527726895E+02  0.51100000000E-03 0. -1.
        -11    1    3    3    0    0 -0.21155429825E+01 -0.54935625441E+01 -0.83433943319E+01  0.10211120447E+02  0.51100000000E-03 0.  1.
        -12    1    3    3    0    0  0.90143423301E+01 -0.24262955825E+02 -0.69104870679E+01  0.26790002324E+02  0.00000000000E+00 0.  1.
</event>
<event>
 7    1  0.8697654E-014  0.5052886E+02  0.7816164E-02  0.1300439E+00
        -11   -1    0    0    0    0  0.00000000000E+00  0.00000000000E+00  0.45593999997E+02  0.45594000000E+02  0.51100000000E-03 0. -1.
         11   -1    0    0    0    0 -0.00000000000E+00 -0.00000000000E+00 -0.45593999997E+02  0.45594000000E+02  0.51100000000E-03 0.  1.
    9900012    2    1    2    0    0  0.52992084884E+01 -0.19518706892E+02  0.35271861469E+02  0.50528859074E+02  0.29999997642E+02 0.  0.
        -12    1    1    2    0    0 -0.52992084884E+01  0.19518706892E+02 -0.35271861469E+02  0.40659140926E+02  0.00000000000E+00 0.  1.
         11    1    3    3    0    0  0.10751292065E+02 -0.58505009901E+01  0.24239842388E+02  0.27154900150E+02  0.51100000000E-03 0. -1.
        -11    1    3    3    0    0 -0.53695346567E+01  0.56538074385E+00  0.64700779831E+01  0.84269488656E+01  0.51100000000E-03 0.  1.
        -12    1    3    3    0    0 -0.82548919578E-01 -0.14233586645E+02  0.45619410984E+01  0.14947010059E+02  0.00000000000E+00 0.  1.
</event>
<event>
 7    1  0.8697654E-014  0.5052886E+02  0.7816164E-02  0.1300439E+00
        -11   -1    0    0    0    0  0.00000000000E+00  0.00000000000E+00  0.45593999997E+02  0.45594000000E+02  0.51100000000E-03 0. -1.
         11   -1    0    0    0    0 -0.00000000000E+00 -0.00000000000E+00 -0.45593999997E+02  0.45594000000E+02  0.51100000000E-03 0.  1.
    9900012    2    1    2    0    0  0.31852342392E+02  0.18259650356E+02 -0.17469376970E+02  0.50528859838E+02  0.29999999963E+02 0.  0.
         12    1    1    2    0    0 -0.31852342392E+02 -0.18259650356E+02  0.17469376970E+02  0.40659140162E+02  0.00000000000E+00 0. -1.
         11    1    3    3    0    0  0.41756910617E+01  0.26138206174E+01  0.27801656915E+00  0.49341410130E+01  0.51100000000E-03 0. -1.
        -11    1    3    3    0    0  0.25622365434E+02  0.18110924199E+02 -0.41813122323E+01  0.31654297623E+02  0.51100000000E-03 0.  1.
         12    1    3    3    0    0  0.20542858967E+01 -0.24650944603E+01 -0.13566081307E+02  0.13940421201E+02  0.00000000000E+00 0. -1.
</event>
<event>
 7    1  0.8697654E-014  0.5052884E+02  0.7816164E-02  0.1300439E+00
        -11   -1    0    0    0    0  0.00000000000E+00  0.00000000000E+00  0.45593999997E+02  0.45594000000E+02  0.51100000000E-03 0. -1.
         11   -1    0    0    0    0 -0.00000000000E+00 -0.00000000000E+00 -0.45593999997E+02  0.45594000000E+02  0.51100000000E-03 0.  1.
    9900012    2    1    2    0    0 -0.29247087152E+02 -0.13715072695E+02 -0.24691534586E+02  0.50528841055E+02  0.29999942871E+02 0.  0.
         12    1    1    2    0    0  0.29247087152E+02  0.13715072695E+02  0.24691534586E+02  0.40659158945E+02  0.00000000000E+00 0. -1.
         11    1    3    3    0    0 -0.42667719841E+01  0.63762338468E+01 -0.17370286115E+01  0.78663187000E+01  0.51100000000E-03 0. -1.
        -11    1    3    3    0    0 -0.21011130378E+01 -0.95356950155E+01 -0.21775786743E+01  0.10004299304E+02  0.51100000000E-03 0.  1.
        -12    1    3    3    0    0 -0.22879202130E+02 -0.10555611526E+02 -0.20776927300E+02  0.32658223051E+02  0.00000000000E+00 0.  1.
</event>
<event>
 7    1  0.8697654E-014  0.5052886E+02  0.7816164E-02  0.1300439E+00
        -11   -1    0    0    0    0  0.00000000000E+00  0.00000000000E+00  0.45593999997E+02  0.45594000000E+02  0.51100000000E-03 0. -1.
         11   -1    0    0    0    0 -0.00000000000E+00 -0.00000000000E+00 -0.45593999997E+02  0.45594000000E+02  0.51100000000E-03 0.  1.
    9900012    2    1    2    0    0  0.83930119950E+01  0.30779994729E+02 -0.25205448864E+02  0.50528863533E+02  0.30000011194E+02 0.  0.
         12    1    1    2    0    0 -0.83930119950E+01 -0.30779994729E+02  0.25205448864E+02  0.40659136467E+02  0.00000000000E+00 0. -1.
         11    1    3    3    0    0  0.31693130325E+01  0.13328171998E+02 -0.24428887903E+02  0.28008128790E+02  0.51100000000E-03 0. -1.
        -11    1    3    3    0    0 -0.38266777961E+01  0.75642772178E+01 -0.28789313945E+01  0.89526531832E+01  0.51100000000E-03 0.  1.
         12    1    3    3    0    0  0.90503767586E+01  0.98875455136E+01  0.21023704338E+01  0.13568081559E+02  0.00000000000E+00 0. -1.
</event>
<event>
 7    1  0.9635332E-014  0.5052890E+02  0.7816164E-02  0.1300439E+00
        -11   -1    0    0    0    0  0.00000000000E+00  0.00000000000E+00  0.45593999997E+02  0.45594000000E+02  0.51100000000E-03 0. -1.
         11   -1    0    0    0    0 -0.00000000000E+00 -0.00000000000E+00 -0.45593999997E+02  0.45594000000E+02  0.51100000000E-03 0.  1.
    9900012    2    1    2    0    0  0.33354908049E+02  0.59576291961E+00 -0.23243449017E+02  0.50528895895E+02  0.30000109562E+02 0.  0.
         12    1    1    2    0    0 -0.33354908049E+02 -0.59576291961E+00  0.23243449017E+02  0.40659104105E+02  0.00000000000E+00 0. -1.
         11    1    3    3    0    0  0.29273787735E+01 -0.61479663102E+01  0.11321280291E+01  0.69028074268E+01  0.51100000000E-03 0. -1.
        -11    1    3    3    0    0  0.28884981379E+02 -0.13760685582E+00 -0.17477857300E+02  0.33761465919E+02  0.51100000000E-03 0.  1.
         12    1    3    3    0    0  0.15425478961E+01  0.68813360857E+01 -0.68977197469E+01  0.98646225494E+01  0.00000000000E+00 0. -1.
</event>
<event>
 7    1  0.8697654E-014  0.5052885E+02  0.7816164E-02  0.1300439E+00
        -11   -1    0    0    0    0  0.00000000000E+00  0.00000000000E+00  0.45593999997E+02  0.45594000000E+02  0.51100000000E-03 0. -1.
         11   -1    0    0    0    0 -0.00000000000E+00 -0.00000000000E+00 -0.45593999997E+02  0.45594000000E+02  0.51100000000E-03 0.  1.
    9900012    2    1    2    0    0  0.46309878155E+01 -0.14353379578E+02  0.37758458051E+02  0.50528847182E+02  0.29999961496E+02 0.  0.
        -12    1    1    2    0    0 -0.46309878155E+01  0.14353379578E+02 -0.37758458051E+02  0.40659152818E+02  0.00000000000E+00 0.  1.
         11    1    3    3    0    0  0.57839742757E+01 -0.87846942401E+01  0.20750648788E+02  0.23264020217E+02  0.51100000000E-03 0. -1.
        -11    1    3    3    0    0 -0.58046205064E+01 -0.11345020073E+02  0.62384227906E+01  0.14188763824E+02  0.51100000000E-03 0.  1.
        -12    1    3    3    0    0  0.46516340462E+01  0.57763347347E+01  0.10769386473E+02  0.13076063141E+02  0.00000000000E+00 0.  1.
</event>
<event>
 7    1  0.8697654E-014  0.5052886E+02  0.7816164E-02  0.1300439E+00
        -11   -1    0    0    0    0  0.00000000000E+00  0.00000000000E+00  0.45593999997E+02  0.45594000000E+02  0.51100000000E-03 0. -1.
         11   -1    0    0    0    0 -0.00000000000E+00 -0.00000000000E+00 -0.45593999997E+02  0.45594000000E+02  0.51100000000E-03 0.  1.
    9900012    2    1    2    0    0  0.29477445265E+02 -0.16374544774E+02  0.22718279506E+02  0.50528859335E+02  0.29999998435E+02 0.  0.
        -12    1    1    2    0    0 -0.29477445265E+02  0.16374544774E+02 -0.22718279506E+02  0.40659140665E+02  0.00000000000E+00 0.  1.
         11    1    3    3    0    0  0.23291239236E+02 -0.12102612227E+02  0.19563402169E+02  0.32736550713E+02  0.51100000000E-03 0. -1.
        -11    1    3    3    0    0  0.10128016647E+02  0.79991363810E+00 -0.89466266919E+00  0.10198872712E+02  0.51100000000E-03 0.  1.
         12    1    3    3    0    0 -0.39418106182E+01 -0.50718461851E+01  0.40495400058E+01  0.75934359109E+01  0.00000000000E+00 0. -1.
</event>
<event>
 7    1  0.8697654E-014  0.5052886E+02  0.7816164E-02  0.1300439E+00
        -11   -1    0    0    0    0  0.00000000000E+00  0.00000000000E+00  0.45593999997E+02  0.45594000000E+02  0.51100000000E-03 0. -1.
         11   -1    0    0    0    0 -0.00000000000E+00 -0.00000000000E+00 -0.45593999997E+02  0.45594000000E+02  0.51100000000E-03 0.  1.
    9900012    2    1    2    0    0  0.23951887945E+02 -0.36680789524E+01 -0.32649928348E+02  0.50528861292E+02  0.30000004383E+02 0.  0.
         12    1    1    2    0    0 -0.23951887945E+02  0.36680789524E+01  0.32649928348E+02  0.40659138708E+02  0.00000000000E+00 0. -1.
         11    1    3    3    0    0  0.10927396212E+02  0.18460743688E+01 -0.25933495377E+00  0.11085271013E+02  0.51100000000E-03 0. -1.
        -11    1    3    3    0    0  0.17321892245E+02 -0.31846202542E+01 -0.24902194646E+02  0.30500968109E+02  0.51100000000E-03 0.  1.
         12    1    3    3    0    0 -0.42974005120E+01 -0.23295330670E+01 -0.74883987482E+01  0.89426221704E+01  0.00000000000E+00 0. -1.
</event>
<event>
 7    1  0.8697654E-014  0.5052886E+02  0.7816164E-02  0.1300439E+00
        -11   -1    0    0    0    0  0.00000000000E+00  0.00000000000E+00  0.45593999997E+02  0.45594000000E+02  0.51100000000E-03 0. -1.
         11   -1    0    0    0    0 -0.00000000000E+00 -0.00000000000E+00 -0.45593999997E+02  0.45594000000E+02  0.51100000000E-03 0.  1.
    9900012    2    1    2    0    0  0.13897762437E+02 -0.23958179346E+02  0.29766141960E+02  0.50528863690E+02  0.30000011671E+02 0.  0.
        -12    1    1    2    0    0 -0.13897762437E+02  0.23958179346E+02 -0.29766141960E+02  0.40659136310E+02  0.00000000000E+00 0.  1.
         11    1    3    3    0    0  0.47874836762E+01 -0.17949277627E+02  0.50829046841E+01  0.19259607670E+02  0.51100000000E-03 0. -1.
        -11    1    3    3    0    0  0.42276836146E+01  0.77131591564E+00 -0.87005069522E+00  0.43846579639E+01  0.51100000000E-03 0.  1.
         12    1    3    3    0    0  0.48825951466E+01 -0.67802176341E+01  0.25553287971E+02  0.26884598056E+02  0.00000000000E+00 0. -1.
</event>
<event>
 7    1  0.8697654E-014  0.5052885E+02  0.7816164E-02  0.1300439E+00
        -11   -1    0    0    0    0  0.00000000000E+00  0.00000000000E+00  0.45593999997E+02  0.45594000000E+02  0.51100000000E-03 0. -1.
         11   -1    0    0    0    0 -0.00000000000E+00 -0.00000000000E+00 -0.45593999997E+02  0.45594000000E+02  0.51100000000E-03 0.  1.
    9900012    2    1    2    0    0 -0.11769813808E+02 -0.40347999845E+01  0.38708628849E+02  0.50528854961E+02  0.29999985138E+02 0.  0.
        -12    1    1    2    0    0  0.11769813808E+02  0.40347999845E+01 -0.38708628849E+02  0.40659145039E+02  0.00000000000E+00 0.  1.
         11    1    3    3    0    0 -0.10645567292E+02  0.42437041465E+00  0.15608705183E+02  0.18898144644E+02  0.51100000000E-03 0. -1.
        -11    1    3    3    0    0 -0.71791474147E+01 -0.13717275281E+01 -0.24841981292E+00  0.73132418719E+01  0.51100000000E-03 0.  1.
         12    1    3    3    0    0  0.60549008990E+01 -0.30874428711E+01  0.23348343478E+02  0.24317468445E+02  0.00000000000E+00 0. -1.
</event>
<event>
 7    1  0.8697654E-014  0.5052883E+02  0.7816164E-02  0.1300439E+00
        -11   -1    0    0    0    0  0.00000000000E+00  0.00000000000E+00  0.45593999997E+02  0.45594000000E+02  0.51100000000E-03 0. -1.
         11   -1    0    0    0    0 -0.00000000000E+00 -0.00000000000E+00 -0.45593999997E+02  0.45594000000E+02  0.51100000000E-03 0.  1.
    9900012    2    1    2    0    0 -0.29535201174E+02  0.11677363762E+02  0.25386595538E+02  0.50528829254E+02  0.29999906999E+02 0.  0.
        -12    1    1    2    0    0  0.29535201174E+02 -0.11677363762E+02 -0.25386595538E+02  0.40659170746E+02  0.00000000000E+00 0.  1.
         11    1    3    3    0    0 -0.19103154792E+02  0.91298711591E+01  0.43850160550E+01  0.21622059025E+02  0.51100000000E-03 0. -1.
        -11    1    3    3    0    0 -0.74543097041E+01  0.64713325766E+01  0.31103423290E+01  0.10349836141E+02  0.51100000000E-03 0.  1.
        -12    1    3    3    0    0 -0.29777366773E+01 -0.39238399736E+01  0.17891237154E+02  0.18556934088E+02  0.00000000000E+00 0.  1.
</event>
<event>
 7    1  0.8697654E-014  0.5052886E+02  0.7816164E-02  0.1300439E+00
        -11   -1    0    0    0    0  0.00000000000E+00  0.00000000000E+00  0.45593999997E+02  0.45594000000E+02  0.51100000000E-03 0. -1.
         11   -1    0    0    0    0 -0.00000000000E+00 -0.00000000000E+00 -0.45593999997E+02  0.45594000000E+02  0.51100000000E-03 0.  1.
    9900012    2    1    2    0    0 -0.71413521609E+01 -0.33583292653E+02 -0.21779094988E+02  0.50528862840E+02  0.30000009087E+02 0.  0.
         12    1    1    2    0    0  0.71413521609E+01  0.33583292653E+02  0.21779094988E+02  0.40659137160E+02  0.00000000000E+00 0. -1.
         11    1    3    3    0    0  0.26222581701E+01 -0.52852779817E+00  0.64874160367E+00  0.27525343728E+01  0.51100000000E-03 0. -1.
        -11    1    3    3    0    0  0.24194138355E+01 -0.79171057541E+01  0.41129887210E+01  0.92439603693E+01  0.51100000000E-03 0.  1.
        -12    1    3    3    0    0 -0.12183024166E+02 -0.25137659101E+02 -0.26540825313E+02  0.38532368098E+02  0.00000000000E+00 0.  1.
</event>
<event>
 7    1  0.8697654E-014  0.5052886E+02  0.7816164E-02  0.1300439E+00
        -11   -1    0    0    0    0  0.00000000000E+00  0.00000000000E+00  0.45593999997E+02  0.45594000000E+02  0.51100000000E-03 0. -1.
         11   -1    0    0    0    0 -0.00000000000E+00 -0.00000000000E+00 -0.45593999997E+02  0.45594000000E+02  0.51100000000E-03 0.  1.
    9900012    2    1    2    0    0 -0.27870245000E+01  0.25995962000E+02 -0.31138532201E+02  0.50528859164E+02  0.29999997916E+02 0.  0.
         12    1    1    2    0    0  0.27870245000E+01 -0.25995962000E+02  0.31138532201E+02  0.40659140836E+02  0.00000000000E+00 0. -1.
         11    1    3    3    0    0  0.90280751521E+01  0.14825458238E+02 -0.19048108484E+02  0.25770735146E+02  0.51100000000E-03 0. -1.
        -11    1    3    3    0    0 -0.55786725150E+01  0.55367930851E+01 -0.14076650451E+02  0.16122337078E+02  0.51100000000E-03 0.  1.
         12    1    3    3    0    0 -0.62364271372E+01  0.56337106775E+01  0.19862267333E+01  0.86357869399E+01  0.00000000000E+00 0. -1.
</event>
<event>
 7    1  0.8697654E-014  0.5052886E+02  0.7816164E-02  0.1300439E+00
        -11   -1    0    0    0    0  0.00000000000E+00  0.00000000000E+00  0.45593999997E+02  0.45594000000E+02  0.51100000000E-03 0.  1.
         11   -1    0    0    0    0 -0.00000000000E+00 -0.00000000000E+00 -0.45593999997E+02  0.45594000000E+02  0.51100000000E-03 0. -1.
    9900012    2    1    2    0    0 -0.23694220156E+02  0.31206018419E+02  0.10859752240E+02  0.50528857448E+02  0.29999992699E+02 0.  0.
        -12    1    1    2    0    0  0.23694220156E+02 -0.31206018419E+02 -0.10859752240E+02  0.40659142552E+02  0.00000000000E+00 0.  1.
         11    1    3    3    0    0 -0.65258043016E+01  0.52561131955E+01 -0.33723354898E+01  0.90324689107E+01  0.51100000000E-03 0. -1.
        -11    1    3    3    0    0 -0.21749668730E+02  0.25659873554E+02  0.96126489330E+01  0.34983999492E+02  0.51100000000E-03 0.  1.
        -12    1    3    3    0    0  0.45812528755E+01  0.29003166871E+00  0.46194387971E+01  0.65123890454E+01  0.00000000000E+00 0.  1.
</event>
<event>
 7    1  0.8697654E-014  0.5052886E+02  0.7816164E-02  0.1300439E+00
        -11   -1    0    0    0    0  0.00000000000E+00  0.00000000000E+00  0.45593999997E+02  0.45594000000E+02  0.51100000000E-03 0. -1.
         11   -1    0    0    0    0 -0.00000000000E+00 -0.00000000000E+00 -0.45593999997E+02  0.45594000000E+02  0.51100000000E-03 0.  1.
    9900012    2    1    2    0    0 -0.69353281648E+00  0.23595963636E+02 -0.33104609821E+02  0.50528859834E+02  0.29999999951E+02 0.  0.
         12    1    1    2    0    0  0.69353281648E+00 -0.23595963636E+02  0.33104609821E+02  0.40659140166E+02  0.00000000000E+00 0. -1.
         11    1    3    3    0    0  0.80471290102E+01  0.12144240043E+02 -0.63631601537E+01  0.15897441899E+02  0.51100000000E-03 0. -1.
        -11    1    3    3    0    0  0.10083293692E+00  0.12029422470E+02 -0.98136569302E+01  0.15524980994E+02  0.51100000000E-03 0.  1.
         12    1    3    3    0    0 -0.88414947636E+01 -0.57769887712E+00 -0.16927792737E+02  0.19106436941E+02  0.00000000000E+00 0. -1.
</event>
<event>
 7    1  0.8697654E-014  0.5052888E+02  0.7816164E-02  0.1300439E+00
        -11   -1    0    0    0    0  0.00000000000E+00  0.00000000000E+00  0.45593999997E+02  0.45594000000E+02  0.51100000000E-03 0. -1.
         11   -1    0    0    0    0 -0.00000000000E+00 -0.00000000000E+00 -0.45593999997E+02  0.45594000000E+02  0.51100000000E-03 0.  1.
    9900012    2    1    2    0    0 -0.19184977031E+02 -0.15323235471E+02  0.32408314365E+02  0.50528883815E+02  0.30000072845E+02 0.  0.
        -12    1    1    2    0    0  0.19184977031E+02  0.15323235471E+02 -0.32408314365E+02  0.40659116185E+02  0.00000000000E+00 0.  1.
         11    1    3    3    0    0 -0.10453359658E+01 -0.21310305651E+00  0.65344993976E+01  0.66210137315E+01  0.51100000000E-03 0.  1.
        -11    1    3    3    0    0  0.15080133793E+01 -0.14970189078E+02  0.67543663522E+01  0.16492487091E+02  0.51100000000E-03 0. -1.
         12    1    3    3    0    0 -0.19647654444E+02 -0.13994333646E+00  0.19119448615E+02  0.27415382993E+02  0.00000000000E+00 0. -1.
</event>
<event>
 7    1  0.8697654E-014  0.5052886E+02  0.7816164E-02  0.1300439E+00
        -11   -1    0    0    0    0  0.00000000000E+00  0.00000000000E+00  0.45593999997E+02  0.45594000000E+02  0.51100000000E-03 0. -1.
         11   -1    0    0    0    0 -0.00000000000E+00 -0.00000000000E+00 -0.45593999997E+02  0.45594000000E+02  0.51100000000E-03 0.  1.
    9900012    2    1    2    0    0  0.19904782414E+01 -0.41013683040E+01  0.40402748847E+02  0.50528864003E+02  0.30000012624E+02 0.  0.
        -12    1    1    2    0    0 -0.19904782414E+01  0.41013683040E+01 -0.40402748847E+02  0.40659135997E+02  0.00000000000E+00 0.  1.
         11    1    3    3    0    0  0.64730021166E+00 -0.96183331791E+01  0.22521813640E+02  0.24498233010E+02  0.51100000000E-03 0. -1.
        -11    1    3    3    0    0 -0.65564429081E+01  0.42741938173E+00  0.14713676280E+02  0.16114028077E+02  0.51100000000E-03 0.  1.
         12    1    3    3    0    0  0.78996209378E+01  0.50895454934E+01  0.31672589272E+01  0.99166029164E+01  0.00000000000E+00 0. -1.
</event>
<event>
 7    1  0.8697654E-014  0.5052886E+02  0.7816164E-02  0.1300439E+00
        -11   -1    0    0    0    0  0.00000000000E+00  0.00000000000E+00  0.45593999997E+02  0.45594000000E+02  0.51100000000E-03 0. -1.
         11   -1    0    0    0    0 -0.00000000000E+00 -0.00000000000E+00 -0.45593999997E+02  0.45594000000E+02  0.51100000000E-03 0.  1.
    9900012    2    1    2    0    0  0.94704870399E+01 -0.10892281670E+02  0.38010969921E+02  0.50528858850E+02  0.29999996961E+02 0.  0.
        -12    1    1    2    0    0 -0.94704870399E+01  0.10892281670E+02 -0.38010969921E+02  0.40659141150E+02  0.00000000000E+00 0.  1.
         11    1    3    3    0    0 -0.65374104055E+01  0.30944293815E+01  0.20855883545E+02  0.22074444653E+02  0.51100000000E-03 0. -1.
        -11    1    3    3    0    0  0.10969620579E+02 -0.58237562703E+01  0.61614156408E+01  0.13864045430E+02  0.51100000000E-03 0.  1.
        -12    1    3    3    0    0  0.50382768670E+01 -0.81629547810E+01  0.10993670734E+02  0.14590368767E+02  0.00000000000E+00 0.  1.
</event>
<event>
 7    1  0.8697654E-014  0.5052886E+02  0.7816164E-02  0.1300439E+00
        -11   -1    0    0    0    0  0.00000000000E+00  0.00000000000E+00  0.45593999997E+02  0.45594000000E+02  0.51100000000E-03 0. -1.
         11   -1    0    0    0    0 -0.00000000000E+00 -0.00000000000E+00 -0.45593999997E+02  0.45594000000E+02  0.51100000000E-03 0.  1.
    9900012    2    1    2    0    0 -0.13665452290E+02  0.11179688622E+02 -0.36625610208E+02  0.50528863916E+02  0.30000012360E+02 0.  0.
         12    1    1    2    0    0  0.13665452290E+02 -0.11179688622E+02  0.36625610208E+02  0.40659136084E+02  0.00000000000E+00 0. -1.
         11    1    3    3    0    0 -0.12398224092E+01  0.53986673364E+01 -0.22895617656E+01  0.59937352257E+01  0.51100000000E-03 0. -1.
        -11    1    3    3    0    0 -0.13787163840E+02 -0.22452604881E+01 -0.62685609797E+01  0.15310843819E+02  0.51100000000E-03 0.  1.
        -12    1    3    3    0    0  0.13615339597E+01  0.80262817740E+01 -0.28067487462E+02  0.29224284872E+02  0.00000000000E+00 0.  1.
</event>
<event>
 7    1  0.8697654E-014  0.5052886E+02  0.7816164E-02  0.1300439E+00
        -11   -1    0    0    0    0  0.00000000000E+00  0.00000000000E+00  0.45593999997E+02  0.45594000000E+02  0.51100000000E-03 0. -1.
         11   -1    0    0    0    0 -0.00000000000E+00 -0.00000000000E+00 -0.45593999997E+02  0.45594000000E+02  0.51100000000E-03 0.  1.
    9900012    2    1    2    0    0  0.18546124685E+01 -0.14011638751E+02 -0.38123486337E+02  0.50528858120E+02  0.29999994742E+02 0.  0.
         12    1    1    2    0    0 -0.18546124685E+01  0.14011638751E+02  0.38123486337E+02  0.40659141880E+02  0.00000000000E+00 0. -1.
         11    1    3    3    0    0  0.17924334693E+00 -0.10103530344E+02 -0.11506498343E+02  0.15313815918E+02  0.51100000000E-03 0. -1.
        -11    1    3    3    0    0  0.11263871290E+02 -0.54945096566E+01 -0.10295989992E+02  0.16219489603E+02  0.51100000000E-03 0.  1.
         12    1    3    3    0    0 -0.95885021685E+01  0.15864012495E+01 -0.16320998002E+02  0.18995552599E+02  0.00000000000E+00 0. -1.
</event>
<event>
 7    1  0.8697654E-014  0.5052887E+02  0.7816164E-02  0.1300439E+00
        -11   -1    0    0    0    0  0.00000000000E+00  0.00000000000E+00  0.45593999997E+02  0.45594000000E+02  0.51100000000E-03 0.  1.
         11   -1    0    0    0    0 -0.00000000000E+00 -0.00000000000E+00 -0.45593999997E+02  0.45594000000E+02  0.51100000000E-03 0. -1.
    9900012    2    1    2    0    0  0.13897083578E+02 -0.37125129662E+02 -0.90421810515E+01  0.50528865448E+02  0.30000017015E+02 0.  0.
        -12    1    1    2    0    0 -0.13897083578E+02  0.37125129662E+02  0.90421810515E+01  0.40659134552E+02  0.00000000000E+00 0.  1.
         11    1    3    3    0    0  0.17450938530E+02 -0.28038743685E+02 -0.62335208390E+01  0.33608974774E+02  0.51100000000E-03 0. -1.
        -11    1    3    3    0    0  0.32893320013E+01 -0.35131464987E+01  0.36023679441E+01  0.60115687140E+01  0.51100000000E-03 0.  1.
        -12    1    3    3    0    0 -0.68431869539E+01 -0.55732394775E+01 -0.64110281566E+01  0.10908321960E+02  0.00000000000E+00 0.  1.
</event>
<event>
 7    1  0.8697654E-014  0.5052889E+02  0.7816164E-02  0.1300439E+00
        -11   -1    0    0    0    0  0.00000000000E+00  0.00000000000E+00  0.45593999997E+02  0.45594000000E+02  0.51100000000E-03 0. -1.
         11   -1    0    0    0    0 -0.00000000000E+00 -0.00000000000E+00 -0.45593999997E+02  0.45594000000E+02  0.51100000000E-03 0.  1.
    9900012    2    1    2    0    0  0.50346495093E-01 -0.18150212259E+02  0.36383106831E+02  0.50528890289E+02  0.30000092521E+02 0.  0.
        -12    1    1    2    0    0 -0.50346495093E-01  0.18150212259E+02 -0.36383106831E+02  0.40659109711E+02  0.00000000000E+00 0.  1.
         11    1    3    3    0    0  0.30303222999E+01 -0.98639976653E+01  0.29325011045E+02  0.31087579131E+02  0.51100000000E-03 0. -1.
        -11    1    3    3    0    0 -0.87143922719E+01 -0.81178126743E+01  0.67651181105E+01  0.13696946324E+02  0.51100000000E-03 0.  1.
         12    1    3    3    0    0  0.57344164670E+01 -0.16840191984E+00  0.29297767570E+00  0.57443648337E+01  0.00000000000E+00 0. -1.
</event>
<event>
 7    1  0.8697654E-014  0.5052886E+02  0.7816164E-02  0.1300439E+00
        -11   -1    0    0    0    0  0.00000000000E+00  0.00000000000E+00  0.45593999997E+02  0.45594000000E+02  0.51100000000E-03 0. -1.
         11   -1    0    0    0    0 -0.00000000000E+00 -0.00000000000E+00 -0.45593999997E+02  0.45594000000E+02  0.51100000000E-03 0.  1.
    9900012    2    1    2    0    0  0.15288177534E+02  0.90812998028E+01  0.36564558449E+02  0.50528864336E+02  0.30000013635E+02 0.  0.
        -12    1    1    2    0    0 -0.15288177534E+02 -0.90812998028E+01 -0.36564558449E+02  0.40659135664E+02  0.00000000000E+00 0.  1.
         11    1    3    3    0    0  0.70299017069E+01  0.55029046414E+01  0.96464590589E+01  0.13143654368E+02  0.51100000000E-03 0. -1.
        -11    1    3    3    0    0  0.13271374984E+02 -0.51806480866E+01  0.21869625413E+02  0.26100747585E+02  0.51100000000E-03 0.  1.
        -12    1    3    3    0    0 -0.50130991567E+01  0.87590432479E+01  0.50484739769E+01  0.11284462383E+02  0.00000000000E+00 0.  1.
</event>
<event>
 7    1  0.8697654E-014  0.5052887E+02  0.7816164E-02  0.1300439E+00
        -11   -1    0    0    0    0  0.00000000000E+00  0.00000000000E+00  0.45593999997E+02  0.45594000000E+02  0.51100000000E-03 0.  1.
         11   -1    0    0    0    0 -0.00000000000E+00 -0.00000000000E+00 -0.45593999997E+02  0.45594000000E+02  0.51100000000E-03 0. -1.
    9900012    2    1    2    0    0 -0.11681185086E+01  0.39725682707E+02 -0.85831623354E+01  0.50528867655E+02  0.30000023725E+02 0.  0.
         12    1    1    2    0    0  0.11681185086E+01 -0.39725682707E+02  0.85831623354E+01  0.40659132345E+02  0.00000000000E+00 0. -1.
         11    1    3    3    0    0 -0.27434157015E+01  0.31458299679E+02 -0.13744057703E+02  0.34439077670E+02  0.51100000000E-03 0.  1.
        -11    1    3    3    0    0  0.39565015855E+01  0.59884650961E+01 -0.26191333998E+01  0.76403847436E+01  0.51100000000E-03 0. -1.
        -12    1    3    3    0    0 -0.23812043926E+01  0.22789179320E+01  0.77800287679E+01  0.84494052411E+01  0.00000000000E+00 0.  1.
</event>
<event>
 7    1  0.8697654E-014  0.5052886E+02  0.7816164E-02  0.1300439E+00
        -11   -1    0    0    0    0  0.00000000000E+00  0.00000000000E+00  0.45593999997E+02  0.45594000000E+02  0.51100000000E-03 0.  1.
         11   -1    0    0    0    0 -0.00000000000E+00 -0.00000000000E+00 -0.45593999997E+02  0.45594000000E+02  0.51100000000E-03 0. -1.
    9900012    2    1    2    0    0  0.64936712172E+01  0.39228525136E+02  0.84924009514E+01  0.50528858050E+02  0.29999994528E+02 0.  0.
         12    1    1    2    0    0 -0.64936712172E+01 -0.39228525136E+02 -0.84924009514E+01  0.40659141950E+02  0.00000000000E+00 0. -1.
         11    1    3    3    0    0 -0.15883428503E+01 -0.28374875433E+00  0.54080736582E+01  0.56436342298E+01  0.51100000000E-03 0. -1.
        -11    1    3    3    0    0  0.11430350180E+02  0.11232893695E+02  0.35069751195E+01  0.16405172378E+02  0.51100000000E-03 0.  1.
        -12    1    3    3    0    0 -0.33483361125E+01  0.28279380195E+02 -0.42264782631E+00  0.28480051442E+02  0.00000000000E+00 0.  1.
</event>
<event>
 7    1  0.8697654E-014  0.5052885E+02  0.7816164E-02  0.1300439E+00
        -11   -1    0    0    0    0  0.00000000000E+00  0.00000000000E+00  0.45593999997E+02  0.45594000000E+02  0.51100000000E-03 0. -1.
         11   -1    0    0    0    0 -0.00000000000E+00 -0.00000000000E+00 -0.45593999997E+02  0.45594000000E+02  0.51100000000E-03 0.  1.
    9900012    2    1    2    0    0 -0.34382079430E+02 -0.91911550059E+01  0.19661184317E+02  0.50528845003E+02  0.29999954872E+02 0.  0.
        -12    1    1    2    0    0  0.34382079430E+02  0.91911550059E+01 -0.19661184317E+02  0.40659154997E+02  0.00000000000E+00 0.  1.
         11    1    3    3    0    0 -0.55030041876E+01  0.63271744898E+01 -0.31549273247E+01  0.89593391943E+01  0.51100000000E-03 0. -1.
        -11    1    3    3    0    0  0.70314657292E-01 -0.14616554905E+01 -0.78559685737E+00  0.16608863921E+01  0.51100000000E-03 0.  1.
         12    1    3    3    0    0 -0.28949389900E+02 -0.14056674005E+02  0.23601708499E+02  0.39908619417E+02  0.00000000000E+00 0. -1.
</event>
<event>
 7    1  0.1099582E-013  0.5052886E+02  0.7816164E-02  0.1300439E+00
        -11   -1    0    0    0    0  0.00000000000E+00  0.00000000000E+00  0.45593999997E+02  0.45594000000E+02  0.51100000000E-03 0. -1.
         11   -1    0    0    0    0 -0.00000000000E+00 -0.00000000000E+00 -0.45593999997E+02  0.45594000000E+02  0.51100000000E-03 0.  1.
    9900012    2    1    2    0    0  0.17738680133E+02  0.14452531802E+02 -0.33609960773E+02  0.50528856975E+02  0.29999991262E+02 0.  0.
         12    1    1    2    0    0 -0.17738680133E+02 -0.14452531802E+02  0.33609960773E+02  0.40659143025E+02  0.00000000000E+00 0. -1.
         11    1    3    3    0    0  0.26616930322E+01  0.80688413101E+01 -0.23986250789E+02  0.25446631153E+02  0.51100000000E-03 0. -1.
        -11    1    3    3    0    0  0.11391475739E+02  0.16836179561E+01 -0.13665641987E+02  0.17870368214E+02  0.51100000000E-03 0.  1.
         12    1    3    3    0    0  0.36855113618E+01  0.47000725363E+01  0.40419320029E+01  0.72118576082E+01  0.00000000000E+00 0. -1.
</event>
<event>
 7    1  0.8697654E-014  0.5052887E+02  0.7816164E-02  0.1300439E+00
        -11   -1    0    0    0    0  0.00000000000E+00  0.00000000000E+00  0.45593999997E+02  0.45594000000E+02  0.51100000000E-03 0. -1.
         11   -1    0    0    0    0 -0.00000000000E+00 -0.00000000000E+00 -0.45593999997E+02  0.45594000000E+02  0.51100000000E-03 0.  1.
    9900012    2    1    2    0    0  0.32069929182E+02 -0.17600288770E+02 -0.17745836595E+02  0.50528865246E+02  0.30000016401E+02 0.  0.
         12    1    1    2    0    0 -0.32069929182E+02  0.17600288770E+02  0.17745836595E+02  0.40659134754E+02  0.00000000000E+00 0. -1.
         11    1    3    3    0    0  0.16668623802E+01 -0.77066289094E+01  0.30453853023E+01  0.84525103515E+01  0.51100000000E-03 0.  1.
        -11    1    3    3    0    0  0.62365753513E+00  0.11692416280E+01 -0.75398763158E+01  0.76554431501E+01  0.51100000000E-03 0. -1.
        -12    1    3    3    0    0  0.29779409266E+02 -0.11062901489E+02 -0.13251345581E+02  0.34420911744E+02  0.00000000000E+00 0.  1.
</event>
<event>
 7    1  0.8697654E-014  0.5052886E+02  0.7816164E-02  0.1300439E+00
        -11   -1    0    0    0    0  0.00000000000E+00  0.00000000000E+00  0.45593999997E+02  0.45594000000E+02  0.51100000000E-03 0. -1.
         11   -1    0    0    0    0 -0.00000000000E+00 -0.00000000000E+00 -0.45593999997E+02  0.45594000000E+02  0.51100000000E-03 0.  1.
    9900012    2    1    2    0    0  0.23652662587E+02  0.28540089877E+02 -0.16708692265E+02  0.50528861115E+02  0.30000003846E+02 0.  0.
         12    1    1    2    0    0 -0.23652662587E+02 -0.28540089877E+02  0.16708692265E+02  0.40659138885E+02  0.00000000000E+00 0. -1.
         11    1    3    3    0    0  0.16932318348E+02  0.14537440356E+02  0.65770393326E+00  0.22326512300E+02  0.51100000000E-03 0. -1.
        -11    1    3    3    0    0 -0.27453511707E+01 -0.33966918054E+00  0.11001914174E+01  0.29770370537E+01  0.51100000000E-03 0.  1.
        -12    1    3    3    0    0  0.94656954090E+01  0.14342318702E+02 -0.18466587616E+02  0.25225311762E+02  0.00000000000E+00 0.  1.
</event>
<event>
 7    1  0.8697654E-014  0.5052885E+02  0.7816164E-02  0.1300439E+00
        -11   -1    0    0    0    0  0.00000000000E+00  0.00000000000E+00  0.45593999997E+02  0.45594000000E+02  0.51100000000E-03 0. -1.
         11   -1    0    0    0    0 -0.00000000000E+00 -0.00000000000E+00 -0.45593999997E+02  0.45594000000E+02  0.51100000000E-03 0.  1.
    9900012    2    1    2    0    0 -0.17395428474E+01 -0.17268037123E+02 -0.36768942758E+02  0.50528852604E+02  0.29999977976E+02 0.  0.
         12    1    1    2    0    0  0.17395428474E+01  0.17268037123E+02  0.36768942758E+02  0.40659147396E+02  0.00000000000E+00 0. -1.
         11    1    3    3    0    0  0.23236052922E+01 -0.14747336310E+02 -0.16615926678E+02  0.22337683171E+02  0.51100000000E-03 0. -1.
        -11    1    3    3    0    0  0.67754424320E+01 -0.34386601982E+01 -0.36586147850E+01  0.84330579575E+01  0.51100000000E-03 0.  1.
        -12    1    3    3    0    0 -0.10838590572E+02  0.91795938539E+00 -0.16494401295E+02  0.19758111476E+02  0.00000000000E+00 0.  1.
</event>
<event>
 7    1  0.8697654E-014  0.5052886E+02  0.7816164E-02  0.1300439E+00
        -11   -1    0    0    0    0  0.00000000000E+00  0.00000000000E+00  0.45593999997E+02  0.45594000000E+02  0.51100000000E-03 0.  1.
         11   -1    0    0    0    0 -0.00000000000E+00 -0.00000000000E+00 -0.45593999997E+02  0.45594000000E+02  0.51100000000E-03 0. -1.
    9900012    2    1    2    0    0 -0.34303879900E+02 -0.10893639031E+01  0.21799605767E+02  0.50528859557E+02  0.29999999110E+02 0.  0.
        -12    1    1    2    0    0  0.34303879900E+02  0.10893639031E+01 -0.21799605767E+02  0.40659140443E+02  0.00000000000E+00 0.  1.
         11    1    3    3    0    0 -0.21192865963E+02 -0.10178906097E+02  0.35326972293E+00  0.23513240883E+02  0.51100000000E-03 0. -1.
        -11    1    3    3    0    0 -0.64728762884E+01  0.28756338623E+01  0.70879407266E+01  0.10020294485E+02  0.51100000000E-03 0.  1.
        -12    1    3    3    0    0 -0.66381376485E+01  0.62139083317E+01  0.14358395318E+02  0.16995324189E+02  0.00000000000E+00 0.  1.
</event>
<event>
 7    1  0.8697654E-014  0.5052886E+02  0.7816164E-02  0.1300439E+00
        -11   -1    0    0    0    0  0.00000000000E+00  0.00000000000E+00  0.45593999997E+02  0.45594000000E+02  0.51100000000E-03 0.  1.
         11   -1    0    0    0    0 -0.00000000000E+00 -0.00000000000E+00 -0.45593999997E+02  0.45594000000E+02  0.51100000000E-03 0. -1.
    9900012    2    1    2    0    0 -0.21338179870E+01  0.36860750534E+02  0.17026370349E+02  0.50528863310E+02  0.30000010517E+02 0.  0.
        -12    1    1    2    0    0  0.21338179870E+01 -0.36860750534E+02 -0.17026370349E+02  0.40659136690E+02  0.00000000000E+00 0.  1.
         11    1    3    3    0    0  0.40809406747E+01  0.79038265164E+01  0.74609304414E+01  0.11609911012E+02  0.51100000000E-03 0. -1.
        -11    1    3    3    0    0  0.64478647643E+01  0.19588278780E+02  0.10496500332E+02  0.23139838916E+02  0.51100000000E-03 0.  1.
         12    1    3    3    0    0 -0.12662623426E+02  0.93686452381E+01 -0.93106042444E+00  0.15779113383E+02  0.00000000000E+00 0. -1.
</event>
<event>
 7    1  0.8697654E-014  0.5052886E+02  0.7816164E-02  0.1300439E+00
        -11   -1    0    0    0    0  0.00000000000E+00  0.00000000000E+00  0.45593999997E+02  0.45594000000E+02  0.51100000000E-03 0. -1.
         11   -1    0    0    0    0 -0.00000000000E+00 -0.00000000000E+00 -0.45593999997E+02  0.45594000000E+02  0.51100000000E-03 0.  1.
    9900012    2    1    2    0    0  0.92255867119E+01 -0.29077609215E+02 -0.26880225400E+02  0.50528864183E+02  0.30000013170E+02 0.  0.
         12    1    1    2    0    0 -0.92255867119E+01  0.29077609215E+02  0.26880225400E+02  0.40659135817E+02  0.00000000000E+00 0. -1.
         11    1    3    3    0    0  0.12167713784E+02 -0.27871575879E+01 -0.33490902475E+01  0.12924314756E+02  0.51100000000E-03 0. -1.
        -11    1    3    3    0    0  0.22041472247E+00 -0.20837146052E+02 -0.10968024646E+02  0.23548520190E+02  0.51100000000E-03 0.  1.
        -12    1    3    3    0    0 -0.31625417950E+01 -0.54533055752E+01 -0.12563110507E+02  0.14056029237E+02  0.00000000000E+00 0.  1.
</event>
<event>
 7    1  0.8697654E-014  0.5052887E+02  0.7816164E-02  0.1300439E+00
        -11   -1    0    0    0    0  0.00000000000E+00  0.00000000000E+00  0.45593999997E+02  0.45594000000E+02  0.51100000000E-03 0. -1.
         11   -1    0    0    0    0 -0.00000000000E+00 -0.00000000000E+00 -0.45593999997E+02  0.45594000000E+02  0.51100000000E-03 0.  1.
    9900012    2    1    2    0    0 -0.98131754916E+01 -0.33143546980E+02  0.21409624491E+02  0.50528866456E+02  0.30000020081E+02 0.  0.
        -12    1    1    2    0    0  0.98131754916E+01  0.33143546980E+02 -0.21409624491E+02  0.40659133544E+02  0.00000000000E+00 0.  1.
         11    1    3    3    0    0 -0.47935304089E+01 -0.70870287764E+01  0.85187844334E+01  0.12073673805E+02  0.51100000000E-03 0. -1.
        -11    1    3    3    0    0 -0.13196651526E+02 -0.23890737470E+02  0.12411295945E+02  0.29982648576E+02  0.51100000000E-03 0.  1.
         12    1    3    3    0    0  0.81770064429E+01 -0.21657807341E+01  0.47954411296E+00  0.84725440756E+01  0.00000000000E+00 0. -1.
</event>
<event>
 7    1  0.8697654E-014  0.5052886E+02  0.7816164E-02  0.1300439E+00
        -11   -1    0    0    0    0  0.00000000000E+00  0.00000000000E+00  0.45593999997E+02  0.45594000000E+02  0.51100000000E-03 0. -1.
         11   -1    0    0    0    0 -0.00000000000E+00 -0.00000000000E+00 -0.45593999997E+02  0.45594000000E+02  0.51100000000E-03 0.  1.
    9900012    2    1    2    0    0  0.22765635373E+02 -0.76817590550E+01 -0.32800642675E+02  0.50528859134E+02  0.29999997822E+02 0.  0.
         12    1    1    2    0    0 -0.22765635373E+02  0.76817590550E+01  0.32800642675E+02  0.40659140866E+02  0.00000000000E+00 0. -1.
         11    1    3    3    0    0 -0.24526031725E-01 -0.20955254104E+01  0.36463636358E+01  0.42056861863E+01  0.51100000000E-03 0. -1.
        -11    1    3    3    0    0 -0.59302673081E+00  0.23840667689E+01 -0.20907281617E+00  0.24655966348E+01  0.51100000000E-03 0.  1.
        -12    1    3    3    0    0  0.23383188135E+02 -0.79703004134E+01 -0.36237933494E+02  0.43857576313E+02  0.00000000000E+00 0.  1.
</event>
<event>
 7    1  0.8697654E-014  0.5052885E+02  0.7816164E-02  0.1300439E+00
        -11   -1    0    0    0    0  0.00000000000E+00  0.00000000000E+00  0.45593999997E+02  0.45594000000E+02  0.51100000000E-03 0. -1.
         11   -1    0    0    0    0 -0.00000000000E+00 -0.00000000000E+00 -0.45593999997E+02  0.45594000000E+02  0.51100000000E-03 0.  1.
    9900012    2    1    2    0    0 -0.17804665493E+02 -0.27524267147E+02  0.24053587638E+02  0.50528850064E+02  0.29999970253E+02 0.  0.
        -12    1    1    2    0    0  0.17804665493E+02  0.27524267147E+02 -0.24053587638E+02  0.40659149936E+02  0.00000000000E+00 0.  1.
         11    1    3    3    0    0 -0.66577574908E+01 -0.14873069044E+02  0.23437493501E+02  0.28545577932E+02  0.51100000000E-03 0. -1.
        -11    1    3    3    0    0  0.16033858337E+01  0.11039083414E+01  0.24602192706E+01  0.31372183346E+01  0.51100000000E-03 0.  1.
        -12    1    3    3    0    0 -0.12750293836E+02 -0.13755106445E+02 -0.18441251341E+01  0.18846053797E+02  0.00000000000E+00 0.  1.
</event>
<event>
 7    1  0.8697654E-014  0.5052886E+02  0.7816164E-02  0.1300439E+00
        -11   -1    0    0    0    0  0.00000000000E+00  0.00000000000E+00  0.45593999997E+02  0.45594000000E+02  0.51100000000E-03 0. -1.
         11   -1    0    0    0    0 -0.00000000000E+00 -0.00000000000E+00 -0.45593999997E+02  0.45594000000E+02  0.51100000000E-03 0.  1.
    9900012    2    1    2    0    0 -0.19965077013E+02  0.84441489976E+01 -0.34398510217E+02  0.50528862557E+02  0.30000008228E+02 0.  0.
         12    1    1    2    0    0  0.19965077013E+02 -0.84441489976E+01  0.34398510217E+02  0.40659137443E+02  0.00000000000E+00 0. -1.
         11    1    3    3    0    0  0.31986784854E+01 -0.48573769067E+01 -0.47381849996E+01  0.75017365869E+01  0.51100000000E-03 0. -1.
        -11    1    3    3    0    0  0.14743121017E+00  0.53124040351E+01 -0.10656892316E+02  0.11908514882E+02  0.51100000000E-03 0.  1.
         12    1    3    3    0    0 -0.23311186709E+02  0.79891218693E+01 -0.19003432902E+02  0.31118611089E+02  0.00000000000E+00 0. -1.
</event>
<event>
 7    1  0.8697654E-014  0.5052890E+02  0.7816164E-02  0.1300439E+00
        -11   -1    0    0    0    0  0.00000000000E+00  0.00000000000E+00  0.45593999997E+02  0.45594000000E+02  0.51100000000E-03 0. -1.
         11   -1    0    0    0    0 -0.00000000000E+00 -0.00000000000E+00 -0.45593999997E+02  0.45594000000E+02  0.51100000000E-03 0.  1.
    9900012    2    1    2    0    0  0.34229215575E+02 -0.16148888652E+01  0.21884129830E+02  0.50528902576E+02  0.30000129871E+02 0.  0.
        -12    1    1    2    0    0 -0.34229215575E+02  0.16148888652E+01 -0.21884129830E+02  0.40659097424E+02  0.00000000000E+00 0.  1.
         11    1    3    3    0    0  0.34609380160E+01 -0.97187063157E+01  0.12310737444E+02  0.16061930179E+02  0.51100000000E-03 0. -1.
        -11    1    3    3    0    0  0.11377249245E+01  0.27811924360E+01  0.79069171321E+00  0.31071921434E+01  0.51100000000E-03 0.  1.
         12    1    3    3    0    0  0.29630552634E+02  0.53226250145E+01  0.87827006723E+01  0.31359780253E+02  0.00000000000E+00 0. -1.
</event>
<event>
 7    1  0.8697654E-014  0.5052886E+02  0.7816164E-02  0.1300439E+00
        -11   -1    0    0    0    0  0.00000000000E+00  0.00000000000E+00  0.45593999997E+02  0.45594000000E+02  0.51100000000E-03 0. -1.
         11   -1    0    0    0    0 -0.00000000000E+00 -0.00000000000E+00 -0.45593999997E+02  0.45594000000E+02  0.51100000000E-03 0.  1.
    9900012    2    1    2    0    0  0.28310382665E+02 -0.36609936451E+01 -0.28953149987E+02  0.50528861602E+02  0.30000005325E+02 0.  0.
         12    1    1    2    0    0 -0.28310382665E+02  0.36609936451E+01  0.28953149987E+02  0.40659138398E+02  0.00000000000E+00 0. -1.
         11    1    3    3    0    0 -0.57262978692E-01 -0.43482933809E+01 -0.77396059614E+01  0.88776367955E+01  0.51100000000E-03 0. -1.
        -11    1    3    3    0    0 -0.46233843502E+00  0.53952153735E+01  0.22025740285E+00  0.54194667025E+01  0.51100000000E-03 0.  1.
        -12    1    3    3    0    0  0.28829984079E+02 -0.47079156377E+01 -0.21433801428E+02  0.36231758104E+02  0.00000000000E+00 0.  1.
</event>
<event>
 7    1  0.8697654E-014  0.5052886E+02  0.7816164E-02  0.1300439E+00
        -11   -1    0    0    0    0  0.00000000000E+00  0.00000000000E+00  0.45593999997E+02  0.45594000000E+02  0.51100000000E-03 0. -1.
         11   -1    0    0    0    0 -0.00000000000E+00 -0.00000000000E+00 -0.45593999997E+02  0.45594000000E+02  0.51100000000E-03 0.  1.
    9900012    2    1    2    0    0 -0.26392421838E+02  0.87546628064E+01 -0.29664141826E+02  0.50528863738E+02  0.30000011817E+02 0.  0.
         12    1    1    2    0    0  0.26392421838E+02 -0.87546628064E+01  0.29664141826E+02  0.40659136262E+02  0.00000000000E+00 0. -1.
         11    1    3    3    0    0 -0.81648883028E+01  0.12647962487E+01  0.20358393127E+01  0.85093920180E+01  0.51100000000E-03 0. -1.
        -11    1    3    3    0    0 -0.77444951298E+01 -0.64484262625E+01 -0.10255475003E+02  0.14378253506E+02  0.51100000000E-03 0.  1.
         12    1    3    3    0    0 -0.10483038405E+02  0.13938292820E+02 -0.21444506135E+02  0.27641218214E+02  0.00000000000E+00 0. -1.
</event>
<event>
 7    1  0.8697654E-014  0.5052885E+02  0.7816164E-02  0.1300439E+00
        -11   -1    0    0    0    0  0.00000000000E+00  0.00000000000E+00  0.45593999997E+02  0.45594000000E+02  0.51100000000E-03 0.  1.
         11   -1    0    0    0    0 -0.00000000000E+00 -0.00000000000E+00 -0.45593999997E+02  0.45594000000E+02  0.51100000000E-03 0. -1.
    9900012    2    1    2    0    0  0.38124588570E+02  0.11727018303E+02 -0.78841115485E+01  0.50528850639E+02  0.29999972001E+02 0.  0.
         12    1    1    2    0    0 -0.38124588570E+02 -0.11727018303E+02  0.78841115485E+01  0.40659149361E+02  0.00000000000E+00 0. -1.
         11    1    3    3    0    0  0.17119133475E+02 -0.56872857314E+01 -0.85741143587E+00  0.18059487937E+02  0.51100000000E-03 0. -1.
        -11    1    3    3    0    0  0.48046398615E+01 -0.65911627801E+00 -0.66047500968E+01  0.81940052825E+01  0.51100000000E-03 0.  1.
        -12    1    3    3    0    0  0.16200815233E+02  0.18073420312E+02 -0.42195001577E+00  0.24275357419E+02  0.00000000000E+00 0.  1.
</event>
<event>
 7    1  0.8697654E-014  0.5052888E+02  0.7816164E-02  0.1300439E+00
        -11   -1    0    0    0    0  0.00000000000E+00  0.00000000000E+00  0.45593999997E+02  0.45594000000E+02  0.51100000000E-03 0. -1.
         11   -1    0    0    0    0 -0.00000000000E+00 -0.00000000000E+00 -0.45593999997E+02  0.45594000000E+02  0.51100000000E-03 0.  1.
    9900012    2    1    2    0    0  0.79735560177E+01 -0.35471571354E+02 -0.18203125540E+02  0.50528883564E+02  0.30000072081E+02 0.  0.
         12    1    1    2    0    0 -0.79735560177E+01  0.35471571354E+02  0.18203125540E+02  0.40659116436E+02  0.00000000000E+00 0. -1.
         11    1    3    3    0    0 -0.13258723172E+01  0.20148498659E+01 -0.60316807178E+00  0.24862359839E+01  0.51100000000E-03 0. -1.
        -11    1    3    3    0    0  0.34030805836E+01 -0.10555118523E+02 -0.17206236687E+02  0.20470614688E+02  0.51100000000E-03 0.  1.
         12    1    3    3    0    0  0.58963477513E+01 -0.26931302697E+02 -0.39372078103E+00  0.27572032893E+02  0.00000000000E+00 0. -1.
</event>
<event>
 7    1  0.8697654E-014  0.5052887E+02  0.7816164E-02  0.1300439E+00
        -11   -1    0    0    0    0  0.00000000000E+00  0.00000000000E+00  0.45593999997E+02  0.45594000000E+02  0.51100000000E-03 0. -1.
         11   -1    0    0    0    0 -0.00000000000E+00 -0.00000000000E+00 -0.45593999997E+02  0.45594000000E+02  0.51100000000E-03 0.  1.
    9900012    2    1    2    0    0 -0.14344383649E+02  0.35680151085E+01  0.37877079771E+02  0.50528865159E+02  0.30000016136E+02 0.  0.
        -12    1    1    2    0    0  0.14344383649E+02 -0.35680151085E+01 -0.37877079771E+02  0.40659134841E+02  0.00000000000E+00 0.  1.
         11    1    3    3    0    0  0.87447178099E+00 -0.12392012237E+01  0.58362189964E+01  0.60300723879E+01  0.51100000000E-03 0. -1.
        -11    1    3    3    0    0 -0.70752432109E+01 -0.26693684561E+01 -0.27091048778E+01  0.80326735243E+01  0.51100000000E-03 0.  1.
         12    1    3    3    0    0 -0.81436122187E+01  0.74765847882E+01  0.34749965652E+02  0.36466119246E+02  0.00000000000E+00 0. -1.
</event>
<event>
 7    1  0.8697654E-014  0.5052894E+02  0.7816164E-02  0.1300439E+00
        -11   -1    0    0    0    0  0.00000000000E+00  0.00000000000E+00  0.45593999997E+02  0.45594000000E+02  0.51100000000E-03 0.  1.
         11   -1    0    0    0    0 -0.00000000000E+00 -0.00000000000E+00 -0.45593999997E+02  0.45594000000E+02  0.51100000000E-03 0. -1.
    9900012    2    1    2    0    0  0.24919768051E+02 -0.25559263689E+02  0.19465063826E+02  0.50528935699E+02  0.30000230550E+02 0.  0.
        -12    1    1    2    0    0 -0.24919768051E+02  0.25559263689E+02 -0.19465063826E+02  0.40659064301E+02  0.00000000000E+00 0.  1.
         11    1    3    3    0    0  0.24415887215E+02 -0.13750304077E+02  0.14255730249E+02  0.31439342485E+02  0.51100000000E-03 0. -1.
        -11    1    3    3    0    0 -0.19640603520E+00 -0.39379009792E+01  0.93651478054E+01  0.10161281077E+02  0.51100000000E-03 0.  1.
         12    1    3    3    0    0  0.70028687059E+00 -0.78710586332E+01 -0.41558142280E+01  0.89283121365E+01  0.00000000000E+00 0. -1.
</event>
<event>
 7    1  0.8697654E-014  0.5052888E+02  0.7816164E-02  0.1300439E+00
        -11   -1    0    0    0    0  0.00000000000E+00  0.00000000000E+00  0.45593999997E+02  0.45594000000E+02  0.51100000000E-03 0.  1.
         11   -1    0    0    0    0 -0.00000000000E+00 -0.00000000000E+00 -0.45593999997E+02  0.45594000000E+02  0.51100000000E-03 0. -1.
    9900012    2    1    2    0    0  0.30978778161E+02 -0.26169449098E+02 -0.29393124156E+01  0.50528876547E+02  0.30000050753E+02 0.  0.
         12    1    1    2    0    0 -0.30978778161E+02  0.26169449098E+02  0.29393124156E+01  0.40659123453E+02  0.00000000000E+00 0. -1.
         11    1    3    3    0    0  0.57889953213E+01 -0.17348900324E+02 -0.86935748607E+00  0.18309904204E+02  0.51100000000E-03 0. -1.
        -11    1    3    3    0    0  0.99407146319E+01 -0.62972575657E+01 -0.94488608762E+01  0.15091528496E+02  0.51100000000E-03 0.  1.
        -12    1    3    3    0    0  0.15249068208E+02 -0.25232912090E+01  0.73789059467E+01  0.17127443846E+02  0.00000000000E+00 0.  1.
</event>
<event>
 7    1  0.8697654E-014  0.5052886E+02  0.7816164E-02  0.1300439E+00
        -11   -1    0    0    0    0  0.00000000000E+00  0.00000000000E+00  0.45593999997E+02  0.45594000000E+02  0.51100000000E-03 0. -1.
         11   -1    0    0    0    0 -0.00000000000E+00 -0.00000000000E+00 -0.45593999997E+02  0.45594000000E+02  0.51100000000E-03 0.  1.
    9900012    2    1    2    0    0 -0.36749629307E+02 -0.14643958330E+02 -0.93906708054E+01  0.50528862430E+02  0.30000007843E+02 0.  0.
         12    1    1    2    0    0  0.36749629307E+02  0.14643958330E+02  0.93906708054E+01  0.40659137570E+02  0.00000000000E+00 0. -1.
         11    1    3    3    0    0 -0.10198852788E+02 -0.18238141240E+02 -0.84045923268E+01  0.22522956434E+02  0.51100000000E-03 0. -1.
        -11    1    3    3    0    0 -0.20666166566E+01  0.14378293130E+01 -0.22749853135E+01  0.33932014347E+01  0.51100000000E-03 0.  1.
         12    1    3    3    0    0 -0.24484159862E+02  0.21563535978E+01  0.12889068349E+01  0.24612704561E+02  0.00000000000E+00 0. -1.
</event>
<event>
 7    1  0.8697654E-014  0.5052883E+02  0.7816164E-02  0.1300439E+00
        -11   -1    0    0    0    0  0.00000000000E+00  0.00000000000E+00  0.45593999997E+02  0.45594000000E+02  0.51100000000E-03 0. -1.
         11   -1    0    0    0    0 -0.00000000000E+00 -0.00000000000E+00 -0.45593999997E+02  0.45594000000E+02  0.51100000000E-03 0.  1.
    9900012    2    1    2    0    0 -0.38089702185E+02 -0.42632538583E+01 -0.13570830849E+02  0.50528828883E+02  0.29999905872E+02 0.  0.
         12    1    1    2    0    0  0.38089702185E+02  0.42632538583E+01  0.13570830849E+02  0.40659171117E+02  0.00000000000E+00 0. -1.
         11    1    3    3    0    0 -0.99986076931E+01 -0.65666346023E+01 -0.23117954618E+01  0.12183482438E+02  0.51100000000E-03 0. -1.
        -11    1    3    3    0    0 -0.31840117054E+02  0.13398141849E+01 -0.12571108186E+02  0.34258151109E+02  0.51100000000E-03 0.  1.
         12    1    3    3    0    0  0.37490225624E+01  0.96356655903E+00  0.13120727993E+01  0.40871953363E+01  0.00000000000E+00 0. -1.
</event>
<event>
 7    1  0.8697654E-014  0.5052882E+02  0.7816164E-02  0.1300439E+00
        -11   -1    0    0    0    0  0.00000000000E+00  0.00000000000E+00  0.45593999997E+02  0.45594000000E+02  0.51100000000E-03 0. -1.
         11   -1    0    0    0    0 -0.00000000000E+00 -0.00000000000E+00 -0.45593999997E+02  0.45594000000E+02  0.51100000000E-03 0.  1.
    9900012    2    1    2    0    0  0.29695512657E+02  0.12628680735E+02 -0.24735845981E+02  0.50528817452E+02  0.29999871127E+02 0.  0.
         12    1    1    2    0    0 -0.29695512657E+02 -0.12628680735E+02  0.24735845981E+02  0.40659182548E+02  0.00000000000E+00 0. -1.
         11    1    3    3    0    0  0.30239707055E+01 -0.18163692138E+01  0.24557783862E+01  0.42981907463E+01  0.51100000000E-03 0. -1.
        -11    1    3    3    0    0  0.25534955223E+02  0.12900215889E+02 -0.12174097166E+02  0.31091126553E+02  0.51100000000E-03 0.  1.
        -12    1    3    3    0    0  0.11365867282E+01  0.15448340597E+01 -0.15017527201E+02  0.15139500153E+02  0.00000000000E+00 0.  1.
</event>
<event>
 7    1  0.8697654E-014  0.5052884E+02  0.7816164E-02  0.1300439E+00
        -11   -1    0    0    0    0  0.00000000000E+00  0.00000000000E+00  0.45593999997E+02  0.45594000000E+02  0.51100000000E-03 0. -1.
         11   -1    0    0    0    0 -0.00000000000E+00 -0.00000000000E+00 -0.45593999997E+02  0.45594000000E+02  0.51100000000E-03 0.  1.
    9900012    2    1    2    0    0 -0.27013744387E+02 -0.18170852397E+02 -0.24356627287E+02  0.50528836759E+02  0.29999929813E+02 0.  0.
         12    1    1    2    0    0  0.27013744387E+02  0.18170852397E+02  0.24356627287E+02  0.40659163241E+02  0.00000000000E+00 0. -1.
         11    1    3    3    0    0 -0.88957715898E+01  0.33053251976E+01 -0.50873964884E+00  0.95036173708E+01  0.51100000000E-03 0. -1.
        -11    1    3    3    0    0 -0.20392078302E+02 -0.12468422423E+02 -0.15150579409E+02  0.28299089595E+02  0.51100000000E-03 0.  1.
        -12    1    3    3    0    0  0.22741055050E+01 -0.90077551715E+01 -0.86973082296E+01  0.12726129793E+02  0.00000000000E+00 0.  1.
</event>
<event>
 7    1  0.8697654E-014  0.5052887E+02  0.7816164E-02  0.1300439E+00
        -11   -1    0    0    0    0  0.00000000000E+00  0.00000000000E+00  0.45593999997E+02  0.45594000000E+02  0.51100000000E-03 0. -1.
         11   -1    0    0    0    0 -0.00000000000E+00 -0.00000000000E+00 -0.45593999997E+02  0.45594000000E+02  0.51100000000E-03 0.  1.
    9900012    2    1    2    0    0  0.76990264829E+01 -0.13925741867E+02 -0.37416085213E+02  0.50528871530E+02  0.30000035501E+02 0.  0.
         12    1    1    2    0    0 -0.76990264829E+01  0.13925741867E+02  0.37416085213E+02  0.40659128470E+02  0.00000000000E+00 0. -1.
         11    1    3    3    0    0  0.15239064730E+01 -0.12652640474E+01  0.65661020778E+00  0.20867010505E+01  0.51100000000E-03 0. -1.
        -11    1    3    3    0    0  0.33653641003E+01  0.49019067766E+01 -0.26647784810E+02  0.27303091421E+02  0.51100000000E-03 0.  1.
        -12    1    3    3    0    0  0.28097559095E+01 -0.17562384596E+02 -0.11424910610E+02  0.21139079058E+02  0.00000000000E+00 0.  1.
</event>
<event>
 7    1  0.8697654E-014  0.5052886E+02  0.7816164E-02  0.1300439E+00
        -11   -1    0    0    0    0  0.00000000000E+00  0.00000000000E+00  0.45593999997E+02  0.45594000000E+02  0.51100000000E-03 0. -1.
         11   -1    0    0    0    0 -0.00000000000E+00 -0.00000000000E+00 -0.45593999997E+02  0.45594000000E+02  0.51100000000E-03 0.  1.
    9900012    2    1    2    0    0  0.19772560894E+02  0.32869690938E+02 -0.13483132310E+02  0.50528860763E+02  0.30000002774E+02 0.  0.
         12    1    1    2    0    0 -0.19772560894E+02 -0.32869690938E+02  0.13483132310E+02  0.40659139237E+02  0.00000000000E+00 0. -1.
         11    1    3    3    0    0 -0.41549774492E+01  0.23711084649E+01  0.94966261655E+00  0.48772791905E+01  0.51100000000E-03 0. -1.
        -11    1    3    3    0    0  0.87911484487E+01  0.24186151495E+02 -0.35709553606E+01  0.25980876383E+02  0.51100000000E-03 0.  1.
         12    1    3    3    0    0  0.15136389894E+02  0.63124309780E+01 -0.10861839566E+02  0.19670705189E+02  0.00000000000E+00 0. -1.
</event>
<event>
 7    1  0.8697654E-014  0.5052886E+02  0.7816164E-02  0.1300439E+00
        -11   -1    0    0    0    0  0.00000000000E+00  0.00000000000E+00  0.45593999997E+02  0.45594000000E+02  0.51100000000E-03 0. -1.
         11   -1    0    0    0    0 -0.00000000000E+00 -0.00000000000E+00 -0.45593999997E+02  0.45594000000E+02  0.51100000000E-03 0.  1.
    9900012    2    1    2    0    0 -0.86678304028E+01  0.25014022817E+02 -0.30859889968E+02  0.50528862894E+02  0.30000009252E+02 0.  0.
         12    1    1    2    0    0  0.86678304028E+01 -0.25014022817E+02  0.30859889968E+02  0.40659137106E+02  0.00000000000E+00 0. -1.
         11    1    3    3    0    0  0.52591880583E+01  0.44384872512E+01  0.19240741074E+01  0.71457182665E+01  0.51100000000E-03 0. -1.
        -11    1    3    3    0    0 -0.57379224134E+01 -0.14181471432E+00 -0.40483191033E+01  0.70237278463E+01  0.51100000000E-03 0.  1.
        -12    1    3    3    0    0 -0.81890960477E+01  0.20717350280E+02 -0.28735644972E+02  0.36359416781E+02  0.00000000000E+00 0.  1.
</event>
<event>
 7    1  0.8697654E-014  0.5052886E+02  0.7816164E-02  0.1300439E+00
        -11   -1    0    0    0    0  0.00000000000E+00  0.00000000000E+00  0.45593999997E+02  0.45594000000E+02  0.51100000000E-03 0.  1.
         11   -1    0    0    0    0 -0.00000000000E+00 -0.00000000000E+00 -0.45593999997E+02  0.45594000000E+02  0.51100000000E-03 0. -1.
    9900012    2    1    2    0    0 -0.22718106649E+02  0.33160920731E+02 -0.61161006098E+01  0.50528859329E+02  0.29999998416E+02 0.  0.
         12    1    1    2    0    0  0.22718106649E+02 -0.33160920731E+02  0.61161006098E+01  0.40659140671E+02  0.00000000000E+00 0. -1.
         11    1    3    3    0    0 -0.32154334968E+01  0.13142396792E+02  0.82382101595E+01  0.15840761121E+02  0.51100000000E-03 0. -1.
        -11    1    3    3    0    0 -0.21281810119E+01 -0.22103959857E+01 -0.29514479248E+01  0.42574698997E+01  0.51100000000E-03 0.  1.
        -12    1    3    3    0    0 -0.17374492140E+02  0.22228919925E+02 -0.11402862845E+02  0.30430628308E+02  0.00000000000E+00 0.  1.
</event>
<event>
 7    1  0.1362115E-013  0.5052888E+02  0.7816164E-02  0.1300439E+00
        -11   -1    0    0    0    0  0.00000000000E+00  0.00000000000E+00  0.45593999997E+02  0.45594000000E+02  0.51100000000E-03 0. -1.
         11   -1    0    0    0    0 -0.00000000000E+00 -0.00000000000E+00 -0.45593999997E+02  0.45594000000E+02  0.51100000000E-03 0.  1.
    9900012    2    1    2    0    0 -0.27788360549E+02 -0.43450922766E+01 -0.29361394635E+02  0.50528876746E+02  0.30000051357E+02 0.  0.
         12    1    1    2    0    0  0.27788360549E+02  0.43450922766E+01  0.29361394635E+02  0.40659123254E+02  0.00000000000E+00 0. -1.
         11    1    3    3    0    0 -0.18299334639E+01 -0.70591022054E+01 -0.14870527700E+02  0.16562372257E+02  0.51100000000E-03 0. -1.
        -11    1    3    3    0    0 -0.12993229698E+02 -0.44594390335E+01 -0.13268505289E+02  0.19098791777E+02  0.51100000000E-03 0.  1.
         12    1    3    3    0    0 -0.12965197387E+02  0.71734489623E+01 -0.12223616457E+01  0.14867712712E+02  0.00000000000E+00 0. -1.
</event>
<event>
 7    1  0.8697654E-014  0.5052882E+02  0.7816164E-02  0.1300439E+00
        -11   -1    0    0    0    0  0.00000000000E+00  0.00000000000E+00  0.45593999997E+02  0.45594000000E+02  0.51100000000E-03 0. -1.
         11   -1    0    0    0    0 -0.00000000000E+00 -0.00000000000E+00 -0.45593999997E+02  0.45594000000E+02  0.51100000000E-03 0.  1.
    9900012    2    1    2    0    0  0.13261232965E+02  0.85313066493E+01 -0.37476999271E+02  0.50528819398E+02  0.29999877041E+02 0.  0.
         12    1    1    2    0    0 -0.13261232965E+02 -0.85313066493E+01  0.37476999271E+02  0.40659180602E+02  0.00000000000E+00 0. -1.
         11    1    3    3    0    0  0.20971561155E+01  0.95761061280E+01 -0.13316344348E+02  0.16535564684E+02  0.51100000000E-03 0. -1.
        -11    1    3    3    0    0  0.63841100944E+01  0.95555732708E+01 -0.76751931572E+01  0.13819349930E+02  0.51100000000E-03 0.  1.
         12    1    3    3    0    0  0.47799667551E+01 -0.10600372749E+02 -0.16485461766E+02  0.20173904784E+02  0.00000000000E+00 0. -1.
</event>
<event>
 7    1  0.8697654E-014  0.5052886E+02  0.7816164E-02  0.1300439E+00
        -11   -1    0    0    0    0  0.00000000000E+00  0.00000000000E+00  0.45593999997E+02  0.45594000000E+02  0.51100000000E-03 0. -1.
         11   -1    0    0    0    0 -0.00000000000E+00 -0.00000000000E+00 -0.45593999997E+02  0.45594000000E+02  0.51100000000E-03 0.  1.
    9900012    2    1    2    0    0 -0.73899418361E+01  0.20420158078E+02  0.34373994603E+02  0.50528860791E+02  0.30000002860E+02 0.  0.
        -12    1    1    2    0    0  0.73899418361E+01 -0.20420158078E+02 -0.34373994603E+02  0.40659139209E+02  0.00000000000E+00 0.  1.
         11    1    3    3    0    0 -0.27655219882E+01  0.10286824357E+02  0.20268183420E+02  0.22896858444E+02  0.51100000000E-03 0. -1.
        -11    1    3    3    0    0 -0.10319759543E+02 -0.87393199326E+00  0.10445151479E+02  0.14709261839E+02  0.51100000000E-03 0.  1.
        -12    1    3    3    0    0  0.56953396955E+01  0.11007265715E+02  0.36606597035E+01  0.12922740508E+02  0.00000000000E+00 0.  1.
</event>
<event>
 7    1  0.8697654E-014  0.5052889E+02  0.7816164E-02  0.1300439E+00
        -11   -1    0    0    0    0  0.00000000000E+00  0.00000000000E+00  0.45593999997E+02  0.45594000000E+02  0.51100000000E-03 0. -1.
         11   -1    0    0    0    0 -0.00000000000E+00 -0.00000000000E+00 -0.45593999997E+02  0.45594000000E+02  0.51100000000E-03 0.  1.
    9900012    2    1    2    0    0 -0.11406883952E+02  0.23076410521E+02  0.31472613416E+02  0.50528891312E+02  0.30000095633E+02 0.  0.
        -12    1    1    2    0    0  0.11406883952E+02 -0.23076410521E+02 -0.31472613416E+02  0.40659108688E+02  0.00000000000E+00 0.  1.
         11    1    3    3    0    0 -0.49786219350E+01 -0.51776539197E-01  0.34731359481E+01  0.60705873486E+01  0.51100000000E-03 0. -1.
        -11    1    3    3    0    0  0.32365613585E+01  0.14841978505E+00  0.16833421183E+02  0.17142386848E+02  0.51100000000E-03 0.  1.
         12    1    3    3    0    0 -0.96648233751E+01  0.22979767276E+02  0.11166056284E+02  0.27315917115E+02  0.00000000000E+00 0. -1.
</event>
<event>
 7    1  0.8697654E-014  0.5052886E+02  0.7816164E-02  0.1300439E+00
        -11   -1    0    0    0    0  0.00000000000E+00  0.00000000000E+00  0.45593999997E+02  0.45594000000E+02  0.51100000000E-03 0. -1.
         11   -1    0    0    0    0 -0.00000000000E+00 -0.00000000000E+00 -0.45593999997E+02  0.45594000000E+02  0.51100000000E-03 0.  1.
    9900012    2    1    2    0    0 -0.60643174370E+01  0.81991887096E+01  0.39359408457E+02  0.50528859877E+02  0.30000000082E+02 0.  0.
        -12    1    1    2    0    0  0.60643174370E+01 -0.81991887096E+01 -0.39359408457E+02  0.40659140123E+02  0.00000000000E+00 0.  1.
         11    1    3    3    0    0  0.93507968349E+00 -0.75596546783E+01  0.84276338436E+01  0.11359919249E+02  0.51100000000E-03 0.  1.
        -11    1    3    3    0    0  0.23162981942E+01  0.59678042602E+01  0.22138380973E+02  0.23045343074E+02  0.51100000000E-03 0. -1.
        -12    1    3    3    0    0 -0.93156953147E+01  0.97910391277E+01  0.87933936400E+01  0.16123597555E+02  0.00000000000E+00 0.  1.
</event>
<event>
 7    1  0.8697654E-014  0.5052886E+02  0.7816164E-02  0.1300439E+00
        -11   -1    0    0    0    0  0.00000000000E+00  0.00000000000E+00  0.45593999997E+02  0.45594000000E+02  0.51100000000E-03 0. -1.
         11   -1    0    0    0    0 -0.00000000000E+00 -0.00000000000E+00 -0.45593999997E+02  0.45594000000E+02  0.51100000000E-03 0.  1.
    9900012    2    1    2    0    0  0.46306160395E+01  0.18849589857E+02 -0.35726969415E+02  0.50528856056E+02  0.29999988468E+02 0.  0.
         12    1    1    2    0    0 -0.46306160395E+01 -0.18849589857E+02  0.35726969415E+02  0.40659143944E+02  0.00000000000E+00 0. -1.
         11    1    3    3    0    0  0.36035567468E+01 -0.82129693238E+00  0.13222619918E+00  0.36983285289E+01  0.51100000000E-03 0. -1.
        -11    1    3    3    0    0  0.87118768998E+01  0.22788242700E+01 -0.20490303958E+02  0.22381742464E+02  0.51100000000E-03 0.  1.
        -12    1    3    3    0    0 -0.76848176071E+01  0.17392062519E+02 -0.15368891656E+02  0.24448785063E+02  0.00000000000E+00 0.  1.
</event>
<event>
 7    1  0.8697654E-014  0.5052889E+02  0.7816164E-02  0.1300439E+00
        -11   -1    0    0    0    0  0.00000000000E+00  0.00000000000E+00  0.45593999997E+02  0.45594000000E+02  0.51100000000E-03 0. -1.
         11   -1    0    0    0    0 -0.00000000000E+00 -0.00000000000E+00 -0.45593999997E+02  0.45594000000E+02  0.51100000000E-03 0.  1.
    9900012    2    1    2    0    0 -0.20657993640E+02 -0.25135495577E+02 -0.24384785759E+02  0.50528885208E+02  0.30000077080E+02 0.  0.
         12    1    1    2    0    0  0.20657993640E+02  0.25135495577E+02  0.24384785759E+02  0.40659114792E+02  0.00000000000E+00 0. -1.
         11    1    3    3    0    0 -0.13354819836E+02 -0.17509659060E+01  0.36441908326E+00  0.13474045272E+02  0.51100000000E-03 0. -1.
        -11    1    3    3    0    0 -0.74947442684E+01 -0.12597842898E+02 -0.69066597626E+01  0.16204282973E+02  0.51100000000E-03 0.  1.
        -12    1    3    3    0    0  0.19157046485E+00 -0.10786686773E+02 -0.17842545079E+02  0.20850556964E+02  0.00000000000E+00 0.  1.
</event>
<event>
 7    1  0.8697654E-014  0.5052886E+02  0.7816164E-02  0.1300439E+00
        -11   -1    0    0    0    0  0.00000000000E+00  0.00000000000E+00  0.45593999997E+02  0.45594000000E+02  0.51100000000E-03 0. -1.
         11   -1    0    0    0    0 -0.00000000000E+00 -0.00000000000E+00 -0.45593999997E+02  0.45594000000E+02  0.51100000000E-03 0.  1.
    9900012    2    1    2    0    0  0.37215485462E+02  0.58028477635E+01  0.15313392545E+02  0.50528863369E+02  0.30000010697E+02 0.  0.
        -12    1    1    2    0    0 -0.37215485462E+02 -0.58028477635E+01 -0.15313392545E+02  0.40659136631E+02  0.00000000000E+00 0.  1.
         11    1    3    3    0    0  0.28731414975E+01  0.68226775395E+01  0.83073957603E+00  0.74494294665E+01  0.51100000000E-03 0. -1.
        -11    1    3    3    0    0  0.15279347464E+02 -0.79883977355E+01  0.14886044001E+02  0.22778658072E+02  0.51100000000E-03 0.  1.
         12    1    3    3    0    0  0.19062996501E+02  0.69685679595E+01 -0.40339103253E+00  0.20300775830E+02  0.00000000000E+00 0. -1.
</event>
<event>
 7    1  0.8697654E-014  0.5052886E+02  0.7816164E-02  0.1300439E+00
        -11   -1    0    0    0    0  0.00000000000E+00  0.00000000000E+00  0.45593999997E+02  0.45594000000E+02  0.51100000000E-03 0. -1.
         11   -1    0    0    0    0 -0.00000000000E+00 -0.00000000000E+00 -0.45593999997E+02  0.45594000000E+02  0.51100000000E-03 0.  1.
    9900012    2    1    2    0    0 -0.94368630236E+01  0.83972312707E+01 -0.38647092838E+02  0.50528860049E+02  0.30000000604E+02 0.  0.
         12    1    1    2    0    0  0.94368630236E+01 -0.83972312707E+01  0.38647092838E+02  0.40659139951E+02  0.00000000000E+00 0. -1.
         11    1    3    3    0    0 -0.21104030230E+01  0.12569554154E+02 -0.30219043580E+02  0.32796921924E+02  0.51100000000E-03 0. -1.
        -11    1    3    3    0    0  0.22148774549E+01 -0.13854443549E+01 -0.72694426631E+01  0.77246317125E+01  0.51100000000E-03 0.  1.
         12    1    3    3    0    0 -0.95413374555E+01 -0.27868785288E+01 -0.11586065950E+01  0.10007306412E+02  0.00000000000E+00 0. -1.
</event>
<event>
 7    1  0.8697654E-014  0.5052885E+02  0.7816164E-02  0.1300439E+00
        -11   -1    0    0    0    0  0.00000000000E+00  0.00000000000E+00  0.45593999997E+02  0.45594000000E+02  0.51100000000E-03 0. -1.
         11   -1    0    0    0    0 -0.00000000000E+00 -0.00000000000E+00 -0.45593999997E+02  0.45594000000E+02  0.51100000000E-03 0.  1.
    9900012    2    1    2    0    0 -0.22518152275E+02 -0.26021936590E+02  0.21655434015E+02  0.50528853574E+02  0.29999980922E+02 0.  0.
        -12    1    1    2    0    0  0.22518152275E+02  0.26021936590E+02 -0.21655434015E+02  0.40659146426E+02  0.00000000000E+00 0.  1.
         11    1    3    3    0    0 -0.12922908858E+02 -0.74997406245E+01  0.14807972938E+02  0.21036248372E+02  0.51100000000E-03 0. -1.
        -11    1    3    3    0    0  0.56445543518E+01 -0.53715440057E+01  0.50452563089E+01  0.92827307576E+01  0.51100000000E-03 0.  1.
         12    1    3    3    0    0 -0.15239797769E+02 -0.13150651960E+02  0.18022047675E+01  0.20209874444E+02  0.00000000000E+00 0. -1.
</event>
<event>
 7    1  0.8697654E-014  0.5052886E+02  0.7816164E-02  0.1300439E+00
        -11   -1    0    0    0    0  0.00000000000E+00  0.00000000000E+00  0.45593999997E+02  0.45594000000E+02  0.51100000000E-03 0. -1.
         11   -1    0    0    0    0 -0.00000000000E+00 -0.00000000000E+00 -0.45593999997E+02  0.45594000000E+02  0.51100000000E-03 0.  1.
    9900012    2    1    2    0    0 -0.23990587878E+01 -0.25014597700E+02  0.31963726163E+02  0.50528863617E+02  0.30000011450E+02 0.  0.
        -12    1    1    2    0    0  0.23990587878E+01  0.25014597700E+02 -0.31963726163E+02  0.40659136383E+02  0.00000000000E+00 0.  1.
         11    1    3    3    0    0 -0.52470547213E+01  0.94592534703E+00 -0.38232914840E+00  0.53453282265E+01  0.51100000000E-03 0. -1.
        -11    1    3    3    0    0  0.88978640249E+01 -0.65913840271E+01  0.91517837070E+01  0.14365704747E+02  0.51100000000E-03 0.  1.
         12    1    3    3    0    0 -0.60498680914E+01 -0.19369139020E+02  0.23194271605E+02  0.30817830643E+02  0.00000000000E+00 0. -1.
</event>
<event>
 7    1  0.8697654E-014  0.5052886E+02  0.7816164E-02  0.1300439E+00
        -11   -1    0    0    0    0  0.00000000000E+00  0.00000000000E+00  0.45593999997E+02  0.45594000000E+02  0.51100000000E-03 0. -1.
         11   -1    0    0    0    0 -0.00000000000E+00 -0.00000000000E+00 -0.45593999997E+02  0.45594000000E+02  0.51100000000E-03 0.  1.
    9900012    2    1    2    0    0  0.20307649357E+00 -0.58209156230E+01  0.40239799198E+02  0.50528859106E+02  0.29999997740E+02 0.  0.
        -12    1    1    2    0    0 -0.20307649357E+00  0.58209156230E+01 -0.40239799198E+02  0.40659140894E+02  0.00000000000E+00 0.  1.
         11    1    3    3    0    0 -0.73195272861E+01 -0.92042192713E+01  0.22312155979E+02  0.25221527249E+02  0.51100000000E-03 0. -1.
        -11    1    3    3    0    0 -0.35013497338E+01  0.41685785685E+01  0.10973336298E+02  0.12249514562E+02  0.51100000000E-03 0.  1.
        -12    1    3    3    0    0  0.11023953513E+02 -0.78527492014E+00  0.69543069208E+01  0.13057817295E+02  0.00000000000E+00 0.  1.
</event>
<event>
 7    1  0.8697654E-014  0.5052886E+02  0.7816164E-02  0.1300439E+00
        -11   -1    0    0    0    0  0.00000000000E+00  0.00000000000E+00  0.45593999997E+02  0.45594000000E+02  0.51100000000E-03 0. -1.
         11   -1    0    0    0    0 -0.00000000000E+00 -0.00000000000E+00 -0.45593999997E+02  0.45594000000E+02  0.51100000000E-03 0.  1.
    9900012    2    1    2    0    0 -0.19022458864E+02  0.14714129471E+02 -0.32784235645E+02  0.50528860140E+02  0.30000000882E+02 0.  0.
         12    1    1    2    0    0  0.19022458864E+02 -0.14714129471E+02  0.32784235645E+02  0.40659139860E+02  0.00000000000E+00 0. -1.
         11    1    3    3    0    0 -0.10612337328E+02 -0.14347541068E+01 -0.72064597695E+00  0.10733105506E+02  0.51100000000E-03 0. -1.
        -11    1    3    3    0    0 -0.11337638320E+02  0.57712568462E+01 -0.15851669780E+02  0.20325473755E+02  0.51100000000E-03 0.  1.
        -12    1    3    3    0    0  0.29275167837E+01  0.10377626732E+02 -0.16211919887E+02  0.19470280880E+02  0.00000000000E+00 0.  1.
</event>
<event>
 7    1  0.8697654E-014  0.5052886E+02  0.7816164E-02  0.1300439E+00
        -11   -1    0    0    0    0  0.00000000000E+00  0.00000000000E+00  0.45593999997E+02  0.45594000000E+02  0.51100000000E-03 0. -1.
         11   -1    0    0    0    0 -0.00000000000E+00 -0.00000000000E+00 -0.45593999997E+02  0.45594000000E+02  0.51100000000E-03 0.  1.
    9900012    2    1    2    0    0  0.26364478919E+02  0.12065901213E+01  0.30929336727E+02  0.50528862297E+02  0.30000007437E+02 0.  0.
        -12    1    1    2    0    0 -0.26364478919E+02 -0.12065901213E+01 -0.30929336727E+02  0.40659137703E+02  0.00000000000E+00 0.  1.
         11    1    3    3    0    0  0.11653269791E+02 -0.63959827276E+01  0.17828804333E+02  0.22239009782E+02  0.51100000000E-03 0. -1.
        -11    1    3    3    0    0 -0.95188197100E+00  0.23400705948E+00 -0.39039030724E+01  0.40250836079E+01  0.51100000000E-03 0.  1.
         12    1    3    3    0    0  0.15663091098E+02  0.73685657894E+01  0.17004435466E+02  0.24264768906E+02  0.00000000000E+00 0. -1.
</event>
<event>
 7    1  0.8697654E-014  0.5052886E+02  0.7816164E-02  0.1300439E+00
        -11   -1    0    0    0    0  0.00000000000E+00  0.00000000000E+00  0.45593999997E+02  0.45594000000E+02  0.51100000000E-03 0. -1.
         11   -1    0    0    0    0 -0.00000000000E+00 -0.00000000000E+00 -0.45593999997E+02  0.45594000000E+02  0.51100000000E-03 0.  1.
    9900012    2    1    2    0    0  0.11854053037E+02 -0.24707319390E+02 -0.30036569407E+02  0.50528859496E+02  0.29999998923E+02 0.  0.
         12    1    1    2    0    0 -0.11854053037E+02  0.24707319390E+02  0.30036569407E+02  0.40659140504E+02  0.00000000000E+00 0. -1.
         11    1    3    3    0    0  0.49930587930E+01 -0.15359393184E+01 -0.10143124837E+02  0.11409326335E+02  0.51100000000E-03 0. -1.
        -11    1    3    3    0    0  0.10237159863E+02 -0.68355072503E+00 -0.99785015118E+01  0.14312133885E+02  0.51100000000E-03 0.  1.
         12    1    3    3    0    0 -0.33761656186E+01 -0.22487829346E+02 -0.99149430576E+01  0.24807399276E+02  0.00000000000E+00 0. -1.
</event>
<event>
 7    1  0.8697654E-014  0.5052886E+02  0.7816164E-02  0.1300439E+00
        -11   -1    0    0    0    0  0.00000000000E+00  0.00000000000E+00  0.45593999997E+02  0.45594000000E+02  0.51100000000E-03 0. -1.
         11   -1    0    0    0    0 -0.00000000000E+00 -0.00000000000E+00 -0.45593999997E+02  0.45594000000E+02  0.51100000000E-03 0.  1.
    9900012    2    1    2    0    0  0.93573743652E+01  0.10150485267E+02 -0.38243599696E+02  0.50528859282E+02  0.29999998274E+02 0.  0.
         12    1    1    2    0    0 -0.93573743652E+01 -0.10150485267E+02  0.38243599696E+02  0.40659140718E+02  0.00000000000E+00 0. -1.
         11    1    3    3    0    0 -0.41063961197E+01 -0.47650874238E+01 -0.42136147621E+01  0.75712018117E+01  0.51100000000E-03 0. -1.
        -11    1    3    3    0    0  0.10568276725E+02  0.15174685815E+02 -0.35249144040E+02  0.39805297616E+02  0.51100000000E-03 0.  1.
         12    1    3    3    0    0  0.28954937598E+01 -0.25911312364E+00  0.12191591058E+01  0.31523598540E+01  0.00000000000E+00 0. -1.
</event>
<event>
 7    1  0.8697654E-014  0.5052886E+02  0.7816164E-02  0.1300439E+00
        -11   -1    0    0    0    0  0.00000000000E+00  0.00000000000E+00  0.45593999997E+02  0.45594000000E+02  0.51100000000E-03 0.  1.
         11   -1    0    0    0    0 -0.00000000000E+00 -0.00000000000E+00 -0.45593999997E+02  0.45594000000E+02  0.51100000000E-03 0. -1.
    9900012    2    1    2    0    0  0.37882223848E+02 -0.57741202497E+01 -0.13592728088E+02  0.50528860742E+02  0.30000002711E+02 0.  0.
         12    1    1    2    0    0 -0.37882223848E+02  0.57741202497E+01  0.13592728088E+02  0.40659139258E+02  0.00000000000E+00 0. -1.
         11    1    3    3    0    0  0.69389339068E+01 -0.85980020120E+01 -0.14414109997E+01  0.11142356496E+02  0.51100000000E-03 0. -1.
        -11    1    3    3    0    0  0.29082952632E+02  0.40783486375E+01 -0.24954315575E+01  0.29473347966E+02  0.51100000000E-03 0.  1.
         12    1    3    3    0    0  0.18603373091E+01 -0.12544668752E+01 -0.96558855305E+01  0.99131562795E+01  0.00000000000E+00 0. -1.
</event>
<event>
 7    1  0.8697654E-014  0.5052886E+02  0.7816164E-02  0.1300439E+00
        -11   -1    0    0    0    0  0.00000000000E+00  0.00000000000E+00  0.45593999997E+02  0.45594000000E+02  0.51100000000E-03 0. -1.
         11   -1    0    0    0    0 -0.00000000000E+00 -0.00000000000E+00 -0.45593999997E+02  0.45594000000E+02  0.51100000000E-03 0.  1.
    9900012    2    1    2    0    0  0.34348297893E+02 -0.99087048071E+01 -0.19369513045E+02  0.50528855460E+02  0.29999986656E+02 0.  0.
         12    1    1    2    0    0 -0.34348297893E+02  0.99087048071E+01  0.19369513045E+02  0.40659144540E+02  0.00000000000E+00 0. -1.
         11    1    3    3    0    0  0.17428814207E+02 -0.88734388403E+01 -0.13481617992E+01  0.19604056265E+02  0.51100000000E-03 0. -1.
        -11    1    3    3    0    0  0.16464303555E+02 -0.78749898036E+01 -0.13713930756E+02  0.22828943318E+02  0.51100000000E-03 0.  1.
         12    1    3    3    0    0  0.45518013051E+00  0.68397238368E+01 -0.43074204901E+01  0.80958558777E+01  0.00000000000E+00 0. -1.
</event>
<event>
 7    1  0.8697654E-014  0.5052886E+02  0.7816164E-02  0.1300439E+00
        -11   -1    0    0    0    0  0.00000000000E+00  0.00000000000E+00  0.45593999997E+02  0.45594000000E+02  0.51100000000E-03 0. -1.
         11   -1    0    0    0    0 -0.00000000000E+00 -0.00000000000E+00 -0.45593999997E+02  0.45594000000E+02  0.51100000000E-03 0.  1.
    9900012    2    1    2    0    0 -0.12688851022E+02  0.28281681052E+02  0.26311687482E+02  0.50528864230E+02  0.30000013314E+02 0.  0.
        -12    1    1    2    0    0  0.12688851022E+02 -0.28281681052E+02 -0.26311687482E+02  0.40659135770E+02  0.00000000000E+00 0.  1.
         11    1    3    3    0    0 -0.12041086824E+02  0.31215760713E+01  0.91428799732E+01  0.15437754485E+02  0.51100000000E-03 0. -1.
        -11    1    3    3    0    0 -0.45518407540E+01  0.23637195523E+02  0.86162811022E+01  0.25567099302E+02  0.51100000000E-03 0.  1.
        -12    1    3    3    0    0  0.39040765561E+01  0.15229094575E+01  0.85525264072E+01  0.95240104429E+01  0.00000000000E+00 0.  1.
</event>
<event>
 7    1  0.8697654E-014  0.5052886E+02  0.7816164E-02  0.1300439E+00
        -11   -1    0    0    0    0  0.00000000000E+00  0.00000000000E+00  0.45593999997E+02  0.45594000000E+02  0.51100000000E-03 0. -1.
         11   -1    0    0    0    0 -0.00000000000E+00 -0.00000000000E+00 -0.45593999997E+02  0.45594000000E+02  0.51100000000E-03 0.  1.
    9900012    2    1    2    0    0 -0.23727542401E+02 -0.20444205022E+02 -0.25926899424E+02  0.50528857103E+02  0.29999991651E+02 0.  0.
         12    1    1    2    0    0  0.23727542401E+02  0.20444205022E+02  0.25926899424E+02  0.40659142897E+02  0.00000000000E+00 0. -1.
         11    1    3    3    0    0 -0.57363613127E+01 -0.59871035561E+01 -0.78993052230E+00  0.83291800673E+01  0.51100000000E-03 0. -1.
        -11    1    3    3    0    0 -0.22051325103E+02 -0.17139415182E+02 -0.24751404106E+02  0.37318259566E+02  0.51100000000E-03 0.  1.
        -12    1    3    3    0    0  0.40601440152E+01  0.26823137169E+01 -0.38556479608E+00  0.48814174695E+01  0.00000000000E+00 0.  1.
</event>
<event>
 7    1  0.8697654E-014  0.5052886E+02  0.7816164E-02  0.1300439E+00
        -11   -1    0    0    0    0  0.00000000000E+00  0.00000000000E+00  0.45593999997E+02  0.45594000000E+02  0.51100000000E-03 0. -1.
         11   -1    0    0    0    0 -0.00000000000E+00 -0.00000000000E+00 -0.45593999997E+02  0.45594000000E+02  0.51100000000E-03 0.  1.
    9900012    2    1    2    0    0  0.16145593116E+02  0.18580615828E+02 -0.32361179470E+02  0.50528863287E+02  0.30000010446E+02 0.  0.
         12    1    1    2    0    0 -0.16145593116E+02 -0.18580615828E+02  0.32361179470E+02  0.40659136713E+02  0.00000000000E+00 0. -1.
         11    1    3    3    0    0  0.56955566501E+01 -0.41077807037E+01 -0.52453616229E+01  0.87651039172E+01  0.51100000000E-03 0. -1.
        -11    1    3    3    0    0 -0.25237561908E+01  0.21460875988E+01 -0.13524641687E+02  0.13924473789E+02  0.51100000000E-03 0.  1.
         12    1    3    3    0    0  0.12973792656E+02  0.20542308933E+02 -0.13591176160E+02  0.27839285580E+02  0.00000000000E+00 0. -1.
</event>
<event>
 7    1  0.8697654E-014  0.5052888E+02  0.7816164E-02  0.1300439E+00
        -11   -1    0    0    0    0  0.00000000000E+00  0.00000000000E+00  0.45593999997E+02  0.45594000000E+02  0.51100000000E-03 0. -1.
         11   -1    0    0    0    0 -0.00000000000E+00 -0.00000000000E+00 -0.45593999997E+02  0.45594000000E+02  0.51100000000E-03 0.  1.
    9900012    2    1    2    0    0  0.29442491795E+02 -0.21634423752E+02 -0.17839707147E+02  0.50528883369E+02  0.30000071487E+02 0.  0.
         12    1    1    2    0    0 -0.29442491795E+02  0.21634423752E+02  0.17839707147E+02  0.40659116631E+02  0.00000000000E+00 0. -1.
         11    1    3    3    0    0  0.96261180805E+01 -0.12559328807E+00 -0.95507043348E+01  0.13560747639E+02  0.51100000000E-03 0. -1.
        -11    1    3    3    0    0  0.81183417202E+01 -0.12285175342E+02 -0.14648558473E+02  0.20770490391E+02  0.51100000000E-03 0.  1.
        -12    1    3    3    0    0  0.11698031994E+02 -0.92236551216E+01  0.63595556606E+01  0.16197645339E+02  0.00000000000E+00 0.  1.
</event>
<event>
 7    1  0.8697654E-014  0.5052887E+02  0.7816164E-02  0.1300439E+00
        -11   -1    0    0    0    0  0.00000000000E+00  0.00000000000E+00  0.45593999997E+02  0.45594000000E+02  0.51100000000E-03 0.  1.
         11   -1    0    0    0    0 -0.00000000000E+00 -0.00000000000E+00 -0.45593999997E+02  0.45594000000E+02  0.51100000000E-03 0. -1.
    9900012    2    1    2    0    0  0.64204981798E+01 -0.38959603876E+02  0.97000827337E+01  0.50528866511E+02  0.30000020246E+02 0.  0.
        -12    1    1    2    0    0 -0.64204981798E+01  0.38959603876E+02 -0.97000827337E+01  0.40659133489E+02  0.00000000000E+00 0.  1.
         11    1    3    3    0    0  0.48435895391E+00 -0.16131609583E+01 -0.66368937553E+01  0.68472805444E+01  0.51100000000E-03 0. -1.
        -11    1    3    3    0    0 -0.13479793504E+01 -0.52956018258E+01  0.81445143201E+01  0.98078316053E+01  0.51100000000E-03 0.  1.
         12    1    3    3    0    0  0.72841185763E+01 -0.32050841092E+02  0.81924621690E+01  0.33873754361E+02  0.00000000000E+00 0. -1.
</event>
<event>
 7    1  0.8697654E-014  0.5052886E+02  0.7816164E-02  0.1300439E+00
        -11   -1    0    0    0    0  0.00000000000E+00  0.00000000000E+00  0.45593999997E+02  0.45594000000E+02  0.51100000000E-03 0. -1.
         11   -1    0    0    0    0 -0.00000000000E+00 -0.00000000000E+00 -0.45593999997E+02  0.45594000000E+02  0.51100000000E-03 0.  1.
    9900012    2    1    2    0    0  0.22685318894E+01  0.74802752290E+01  0.39900690523E+02  0.50528857625E+02  0.29999993238E+02 0.  0.
        -12    1    1    2    0    0 -0.22685318894E+01 -0.74802752290E+01 -0.39900690523E+02  0.40659142375E+02  0.00000000000E+00 0.  1.
         11    1    3    3    0    0  0.52165534109E+01 -0.57559343087E+01  0.18809424893E+02  0.20350372830E+02  0.51100000000E-03 0. -1.
        -11    1    3    3    0    0  0.70450392455E+01  0.51071465472E+01  0.83375406602E+01  0.12051145520E+02  0.51100000000E-03 0.  1.
        -12    1    3    3    0    0 -0.99930607671E+01  0.81290629905E+01  0.12753724970E+02  0.18127339276E+02  0.00000000000E+00 0.  1.
</event>
<event>
 7    1  0.8697654E-014  0.5052887E+02  0.7816164E-02  0.1300439E+00
        -11   -1    0    0    0    0  0.00000000000E+00  0.00000000000E+00  0.45593999997E+02  0.45594000000E+02  0.51100000000E-03 0. -1.
         11   -1    0    0    0    0 -0.00000000000E+00 -0.00000000000E+00 -0.45593999997E+02  0.45594000000E+02  0.51100000000E-03 0.  1.
    9900012    2    1    2    0    0 -0.23453391863E+02 -0.24185678915E+02 -0.22763051382E+02  0.50528866184E+02  0.30000019252E+02 0.  0.
         12    1    1    2    0    0  0.23453391863E+02  0.24185678915E+02  0.22763051382E+02  0.40659133816E+02  0.00000000000E+00 0. -1.
         11    1    3    3    0    0 -0.98695980034E+00 -0.17162537967E+02 -0.64055809222E+01  0.18345524423E+02  0.51100000000E-03 0. -1.
        -11    1    3    3    0    0 -0.10689432058E+00  0.24593330965E+01  0.63468792132E+00  0.25421594549E+01  0.51100000000E-03 0.  1.
        -12    1    3    3    0    0 -0.22359537742E+02 -0.94824740443E+01 -0.16992158381E+02  0.29641182306E+02  0.00000000000E+00 0.  1.
</event>
<event>
 7    1  0.8697654E-014  0.5052886E+02  0.7816164E-02  0.1300439E+00
        -11   -1    0    0    0    0  0.00000000000E+00  0.00000000000E+00  0.45593999997E+02  0.45594000000E+02  0.51100000000E-03 0. -1.
         11   -1    0    0    0    0 -0.00000000000E+00 -0.00000000000E+00 -0.45593999997E+02  0.45594000000E+02  0.51100000000E-03 0.  1.
    9900012    2    1    2    0    0  0.16627999609E+02  0.17789014782E+02 -0.32561119395E+02  0.50528856943E+02  0.29999991163E+02 0.  0.
         12    1    1    2    0    0 -0.16627999609E+02 -0.17789014782E+02  0.32561119395E+02  0.40659143057E+02  0.00000000000E+00 0. -1.
         11    1    3    3    0    0  0.12416503654E+02  0.67537386745E+01 -0.70237553038E+01  0.15783399124E+02  0.51100000000E-03 0. -1.
        -11    1    3    3    0    0  0.66329349068E+01 -0.33915550694E+01 -0.14898611007E+02  0.16657343170E+02  0.51100000000E-03 0.  1.
        -12    1    3    3    0    0 -0.24214389513E+01  0.14426831177E+02 -0.10638753084E+02  0.18088114649E+02  0.00000000000E+00 0.  1.
</event>
<event>
 7    1  0.8697654E-014  0.5052886E+02  0.7816164E-02  0.1300439E+00
        -11   -1    0    0    0    0  0.00000000000E+00  0.00000000000E+00  0.45593999997E+02  0.45594000000E+02  0.51100000000E-03 0. -1.
         11   -1    0    0    0    0 -0.00000000000E+00 -0.00000000000E+00 -0.45593999997E+02  0.45594000000E+02  0.51100000000E-03 0.  1.
    9900012    2    1    2    0    0 -0.29971143150E+02  0.12697548525E+01  0.27446018260E+02  0.50528860591E+02  0.30000002252E+02 0.  0.
        -12    1    1    2    0    0  0.29971143150E+02 -0.12697548525E+01 -0.27446018260E+02  0.40659139409E+02  0.00000000000E+00 0.  1.
         11    1    3    3    0    0 -0.10787956810E+02 -0.10819829115E+02  0.84425565294E+00  0.15302335837E+02  0.51100000000E-03 0. -1.
        -11    1    3    3    0    0 -0.89986694840E+00  0.12559782539E+01  0.35585090891E+01  0.38794624753E+01  0.51100000000E-03 0.  1.
         12    1    3    3    0    0 -0.18283319393E+02  0.10833605714E+02  0.23043253518E+02  0.31347062278E+02  0.00000000000E+00 0. -1.
</event>
<event>
 7    1  0.8697654E-014  0.5052885E+02  0.7816164E-02  0.1300439E+00
        -11   -1    0    0    0    0  0.00000000000E+00  0.00000000000E+00  0.45593999997E+02  0.45594000000E+02  0.51100000000E-03 0. -1.
         11   -1    0    0    0    0 -0.00000000000E+00 -0.00000000000E+00 -0.45593999997E+02  0.45594000000E+02  0.51100000000E-03 0.  1.
    9900012    2    1    2    0    0 -0.16944083539E+01 -0.12947973241E+02 -0.38505130920E+02  0.50528854192E+02  0.29999982801E+02 0.  0.
         12    1    1    2    0    0  0.16944083539E+01  0.12947973241E+02  0.38505130920E+02  0.40659145808E+02  0.00000000000E+00 0. -1.
         11    1    3    3    0    0 -0.10350582423E+02 -0.10832483222E+02 -0.10188334284E+02  0.18118482414E+02  0.51100000000E-03 0. -1.
        -11    1    3    3    0    0 -0.22723330159E+01  0.26621057432E+01 -0.95810184852E+01  0.10200304888E+02  0.51100000000E-03 0.  1.
        -12    1    3    3    0    0  0.10928507085E+02 -0.47775957626E+01 -0.18735778151E+02  0.22210066891E+02  0.00000000000E+00 0.  1.
</event>
<event>
 7    1  0.8697654E-014  0.5052888E+02  0.7816164E-02  0.1300439E+00
        -11   -1    0    0    0    0  0.00000000000E+00  0.00000000000E+00  0.45593999997E+02  0.45594000000E+02  0.51100000000E-03 0. -1.
         11   -1    0    0    0    0 -0.00000000000E+00 -0.00000000000E+00 -0.45593999997E+02  0.45594000000E+02  0.51100000000E-03 0.  1.
    9900012    2    1    2    0    0 -0.31895615422E+00 -0.38500953116E+02 -0.13066706994E+02  0.50528881029E+02  0.30000064375E+02 0.  0.
         12    1    1    2    0    0  0.31895615422E+00  0.38500953116E+02  0.13066706994E+02  0.40659118971E+02  0.00000000000E+00 0. -1.
         11    1    3    3    0    0 -0.32258264719E-01  0.15399176725E+01 -0.32521772741E+01  0.35984780557E+01  0.51100000000E-03 0. -1.
        -11    1    3    3    0    0 -0.79766274965E+01 -0.17164806536E+02  0.36767155809E+01  0.19281478350E+02  0.51100000000E-03 0.  1.
        -12    1    3    3    0    0  0.76899296070E+01 -0.22876064253E+02 -0.13491245301E+02  0.27648924623E+02  0.00000000000E+00 0.  1.
</event>
<event>
 7    1  0.8697654E-014  0.5052888E+02  0.7816164E-02  0.1300439E+00
        -11   -1    0    0    0    0  0.00000000000E+00  0.00000000000E+00  0.45593999997E+02  0.45594000000E+02  0.51100000000E-03 0. -1.
         11   -1    0    0    0    0 -0.00000000000E+00 -0.00000000000E+00 -0.45593999997E+02  0.45594000000E+02  0.51100000000E-03 0.  1.
    9900012    2    1    2    0    0  0.33755663423E+02 -0.22113715128E+02 -0.49701977112E+01  0.50528879557E+02  0.30000059902E+02 0.  0.
         12    1    1    2    0    0 -0.33755663423E+02  0.22113715128E+02  0.49701977112E+01  0.40659120443E+02  0.00000000000E+00 0. -1.
         11    1    3    3    0    0  0.26767307847E+02 -0.27792860309E+01 -0.19257745929E+01  0.26980026098E+02  0.51100000000E-03 0.  1.
        -11    1    3    3    0    0  0.95793652012E+01 -0.11345738769E+02 -0.30074683875E+01  0.15150408979E+02  0.51100000000E-03 0. -1.
         12    1    3    3    0    0 -0.25910096250E+01 -0.79886903281E+01 -0.36954730735E-01  0.83984444802E+01  0.00000000000E+00 0. -1.
</event>
<event>
 7    1  0.1347675E-013  0.5052886E+02  0.7816164E-02  0.1300439E+00
        -11   -1    0    0    0    0  0.00000000000E+00  0.00000000000E+00  0.45593999997E+02  0.45594000000E+02  0.51100000000E-03 0. -1.
         11   -1    0    0    0    0 -0.00000000000E+00 -0.00000000000E+00 -0.45593999997E+02  0.45594000000E+02  0.51100000000E-03 0.  1.
    9900012    2    1    2    0    0  0.86470958518E+01 -0.32581473272E+02 -0.22734134863E+02  0.50528861357E+02  0.30000004580E+02 0.  0.
         12    1    1    2    0    0 -0.86470958518E+01  0.32581473272E+02  0.22734134863E+02  0.40659138643E+02  0.00000000000E+00 0. -1.
         11    1    3    3    0    0 -0.63078219510E+01 -0.45488788367E+01 -0.70614568462E+01  0.10504527095E+02  0.51100000000E-03 0. -1.
        -11    1    3    3    0    0  0.43859101514E+01 -0.51772590591E+01 -0.13048437791E+02  0.14707207358E+02  0.51100000000E-03 0.  1.
         12    1    3    3    0    0  0.10569007651E+02 -0.22855335376E+02 -0.26242402252E+01  0.25317126904E+02  0.00000000000E+00 0. -1.
</event>
<event>
 7    1  0.8697654E-014  0.5052885E+02  0.7816164E-02  0.1300439E+00
        -11   -1    0    0    0    0  0.00000000000E+00  0.00000000000E+00  0.45593999997E+02  0.45594000000E+02  0.51100000000E-03 0. -1.
         11   -1    0    0    0    0 -0.00000000000E+00 -0.00000000000E+00 -0.45593999997E+02  0.45594000000E+02  0.51100000000E-03 0.  1.
    9900012    2    1    2    0    0 -0.37768941139E+02  0.90039871551E+01  0.12066566209E+02  0.50528847039E+02  0.29999961059E+02 0.  0.
        -12    1    1    2    0    0  0.37768941139E+02 -0.90039871551E+01 -0.12066566209E+02  0.40659152961E+02  0.00000000000E+00 0.  1.
         11    1    3    3    0    0 -0.13077017811E+02  0.77346074950E+01 -0.84425107367E+00  0.15216612897E+02  0.51100000000E-03 0. -1.
        -11    1    3    3    0    0  0.13420381794E+01  0.29971768939E+01 -0.32509791702E+01  0.46209308190E+01  0.51100000000E-03 0.  1.
        -12    1    3    3    0    0 -0.26033961507E+02 -0.17277972338E+01  0.16161796453E+02  0.30691303322E+02  0.00000000000E+00 0.  1.
</event>
<event>
 7    1  0.8697654E-014  0.5052886E+02  0.7816164E-02  0.1300439E+00
        -11   -1    0    0    0    0  0.00000000000E+00  0.00000000000E+00  0.45593999997E+02  0.45594000000E+02  0.51100000000E-03 0. -1.
         11   -1    0    0    0    0 -0.00000000000E+00 -0.00000000000E+00 -0.45593999997E+02  0.45594000000E+02  0.51100000000E-03 0.  1.
    9900012    2    1    2    0    0  0.29205111304E+02 -0.52365594297E+01 -0.27799385462E+02  0.50528856957E+02  0.29999991208E+02 0.  0.
         12    1    1    2    0    0 -0.29205111304E+02  0.52365594297E+01  0.27799385462E+02  0.40659143043E+02  0.00000000000E+00 0. -1.
         11    1    3    3    0    0  0.81301278095E+01 -0.87503808204E+00  0.30022120459E+01  0.87107948703E+01  0.51100000000E-03 0. -1.
        -11    1    3    3    0    0  0.43715257479E+01  0.59686278527E+01 -0.14563205372E+02  0.16334678043E+02  0.51100000000E-03 0.  1.
        -12    1    3    3    0    0  0.16703457746E+02 -0.10330149200E+02 -0.16238392136E+02  0.25483384044E+02  0.00000000000E+00 0.  1.
</event>
<event>
 7    1  0.8697654E-014  0.5052886E+02  0.7816164E-02  0.1300439E+00
        -11   -1    0    0    0    0  0.00000000000E+00  0.00000000000E+00  0.45593999997E+02  0.45594000000E+02  0.51100000000E-03 0. -1.
         11   -1    0    0    0    0 -0.00000000000E+00 -0.00000000000E+00 -0.45593999997E+02  0.45594000000E+02  0.51100000000E-03 0.  1.
    9900012    2    1    2    0    0 -0.25533866989E+02 -0.17317164569E+02 -0.26482131156E+02  0.50528858068E+02  0.29999994583E+02 0.  0.
         12    1    1    2    0    0  0.25533866989E+02  0.17317164569E+02  0.26482131156E+02  0.40659141932E+02  0.00000000000E+00 0. -1.
         11    1    3    3    0    0 -0.35129566124E+01  0.43284011574E+01 -0.14992566314E+02  0.15995404517E+02  0.51100000000E-03 0. -1.
        -11    1    3    3    0    0 -0.43424070431E+00 -0.77596186313E+00 -0.32907647684E+01  0.34087849484E+01  0.51100000000E-03 0.  1.
        -12    1    3    3    0    0 -0.21586669672E+02 -0.20869603864E+02 -0.81988000737E+01  0.31124668602E+02  0.00000000000E+00 0.  1.
</event>
<event>
 7    1  0.1020102E-013  0.5052886E+02  0.7816164E-02  0.1300439E+00
        -11   -1    0    0    0    0  0.00000000000E+00  0.00000000000E+00  0.45593999997E+02  0.45594000000E+02  0.51100000000E-03 0. -1.
         11   -1    0    0    0    0 -0.00000000000E+00 -0.00000000000E+00 -0.45593999997E+02  0.45594000000E+02  0.51100000000E-03 0.  1.
    9900012    2    1    2    0    0  0.55273287503E+01 -0.11138776557E+02 -0.38711005380E+02  0.50528860267E+02  0.30000001267E+02 0.  0.
         12    1    1    2    0    0 -0.55273287503E+01  0.11138776557E+02  0.38711005380E+02  0.40659139733E+02  0.00000000000E+00 0. -1.
         11    1    3    3    0    0  0.17559521834E+01  0.42990171428E+01  0.53550207109E+00  0.46745779696E+01  0.51100000000E-03 0. -1.
        -11    1    3    3    0    0  0.62756119450E+01 -0.91838700138E-01 -0.20812546013E+02  0.21738302865E+02  0.51100000000E-03 0.  1.
        -12    1    3    3    0    0 -0.25042353782E+01 -0.15345954999E+02 -0.18433961438E+02  0.24115979432E+02  0.00000000000E+00 0.  1.
</event>
<event>
 7    1  0.8697654E-014  0.5052886E+02  0.7816164E-02  0.1300439E+00
        -11   -1    0    0    0    0  0.00000000000E+00  0.00000000000E+00  0.45593999997E+02  0.45594000000E+02  0.51100000000E-03 0.  1.
         11   -1    0    0    0    0 -0.00000000000E+00 -0.00000000000E+00 -0.45593999997E+02  0.45594000000E+02  0.51100000000E-03 0. -1.
    9900012    2    1    2    0    0  0.17024795812E+02 -0.17187824256E+02  0.32678744531E+02  0.50528864259E+02  0.30000013401E+02 0.  0.
        -12    1    1    2    0    0 -0.17024795812E+02  0.17187824256E+02 -0.32678744531E+02  0.40659135741E+02  0.00000000000E+00 0.  1.
         11    1    3    3    0    0 -0.59013445103E+01 -0.79545531174E+01  0.14642654976E+02  0.17677899404E+02  0.51100000000E-03 0. -1.
        -11    1    3    3    0    0  0.80557131984E+01 -0.96407394316E+01  0.88447309950E+01  0.15364492786E+02  0.51100000000E-03 0.  1.
        -12    1    3    3    0    0  0.14870427124E+02  0.40746829327E+00  0.91913585605E+01  0.17486472070E+02  0.00000000000E+00 0.  1.
</event>
<event>
 7    1  0.8697654E-014  0.5052888E+02  0.7816164E-02  0.1300439E+00
        -11   -1    0    0    0    0  0.00000000000E+00  0.00000000000E+00  0.45593999997E+02  0.45594000000E+02  0.51100000000E-03 0. -1.
         11   -1    0    0    0    0 -0.00000000000E+00 -0.00000000000E+00 -0.45593999997E+02  0.45594000000E+02  0.51100000000E-03 0.  1.
    9900012    2    1    2    0    0 -0.16594322983E+02 -0.15531843133E+02 -0.33712822124E+02  0.50528879475E+02  0.30000059651E+02 0.  0.
         12    1    1    2    0    0  0.16594322983E+02  0.15531843133E+02  0.33712822124E+02  0.40659120525E+02  0.00000000000E+00 0. -1.
         11    1    3    3    0    0  0.10747094077E+01 -0.31869961732E+01 -0.33075538305E+01  0.47171874589E+01  0.51100000000E-03 0. -1.
        -11    1    3    3    0    0 -0.22204856684E+01 -0.14856711410E+02 -0.25162806851E+02  0.29305618564E+02  0.51100000000E-03 0.  1.
        -12    1    3    3    0    0 -0.15448546722E+02  0.25118644503E+01 -0.52424614424E+01  0.16506073452E+02  0.00000000000E+00 0.  1.
</event>
<event>
 7    1  0.8697654E-014  0.5052886E+02  0.7816164E-02  0.1300439E+00
        -11   -1    0    0    0    0  0.00000000000E+00  0.00000000000E+00  0.45593999997E+02  0.45594000000E+02  0.51100000000E-03 0. -1.
         11   -1    0    0    0    0 -0.00000000000E+00 -0.00000000000E+00 -0.45593999997E+02  0.45594000000E+02  0.51100000000E-03 0.  1.
    9900012    2    1    2    0    0  0.19029289615E+02  0.31113760875E+01  0.35796245586E+02  0.50528859300E+02  0.29999998329E+02 0.  0.
        -12    1    1    2    0    0 -0.19029289615E+02 -0.31113760875E+01 -0.35796245586E+02  0.40659140700E+02  0.00000000000E+00 0.  1.
         11    1    3    3    0    0  0.56076095374E+01 -0.55896859339E+01  0.82770809073E+00  0.79608400630E+01  0.51100000000E-03 0. -1.
        -11    1    3    3    0    0  0.16048799210E+02  0.68993793942E+01  0.17197265646E+02  0.24513492980E+02  0.51100000000E-03 0.  1.
         12    1    3    3    0    0 -0.26271191331E+01  0.18016826272E+01  0.17771271850E+02  0.18054526257E+02  0.00000000000E+00 0. -1.
</event>
<event>
 7    1  0.8697654E-014  0.5052885E+02  0.7816164E-02  0.1300439E+00
        -11   -1    0    0    0    0  0.00000000000E+00  0.00000000000E+00  0.45593999997E+02  0.45594000000E+02  0.51100000000E-03 0. -1.
         11   -1    0    0    0    0 -0.00000000000E+00 -0.00000000000E+00 -0.45593999997E+02  0.45594000000E+02  0.51100000000E-03 0.  1.
    9900012    2    1    2    0    0 -0.34267222237E+02  0.12060774358E+02  0.18260927533E+02  0.50528852538E+02  0.29999977775E+02 0.  0.
        -12    1    1    2    0    0  0.34267222237E+02 -0.12060774358E+02 -0.18260927533E+02  0.40659147462E+02  0.00000000000E+00 0.  1.
         11    1    3    3    0    0 -0.98994398957E+00  0.14369645731E+01 -0.21963513965E+01  0.28051409955E+01  0.51100000000E-03 0. -1.
        -11    1    3    3    0    0 -0.16987501792E+02 -0.62903456281E+01  0.15229330919E+02  0.23665928796E+02  0.51100000000E-03 0.  1.
         12    1    3    3    0    0 -0.16289776455E+02  0.16914155414E+02  0.52279480105E+01  0.24057782747E+02  0.00000000000E+00 0. -1.
</event>
<event>
 7    1  0.8697654E-014  0.5052882E+02  0.7816164E-02  0.1300439E+00
        -11   -1    0    0    0    0  0.00000000000E+00  0.00000000000E+00  0.45593999997E+02  0.45594000000E+02  0.51100000000E-03 0. -1.
         11   -1    0    0    0    0 -0.00000000000E+00 -0.00000000000E+00 -0.45593999997E+02  0.45594000000E+02  0.51100000000E-03 0.  1.
    9900012    2    1    2    0    0  0.19775387041E+02  0.14723989266E+02  0.32331206965E+02  0.50528822237E+02  0.29999885672E+02 0.  0.
        -12    1    1    2    0    0 -0.19775387041E+02 -0.14723989266E+02 -0.32331206965E+02  0.40659177763E+02  0.00000000000E+00 0.  1.
         11    1    3    3    0    0 -0.37071347029E+00 -0.75340607811E+00  0.41995610158E+01  0.42826816578E+01  0.51100000000E-03 0. -1.
        -11    1    3    3    0    0  0.17357821008E+02 -0.12697546508E+01  0.61225639782E+01  0.18449715904E+02  0.51100000000E-03 0.  1.
         12    1    3    3    0    0  0.27882795039E+01  0.16747149995E+02  0.22009081971E+02  0.27796424676E+02  0.00000000000E+00 0. -1.
</event>
<event>
 7    1  0.8697654E-014  0.5052887E+02  0.7816164E-02  0.1300439E+00
        -11   -1    0    0    0    0  0.00000000000E+00  0.00000000000E+00  0.45593999997E+02  0.45594000000E+02  0.51100000000E-03 0. -1.
         11   -1    0    0    0    0 -0.00000000000E+00 -0.00000000000E+00 -0.45593999997E+02  0.45594000000E+02  0.51100000000E-03 0.  1.
    9900012    2    1    2    0    0 -0.31554355875E+02  0.20090659518E+02 -0.15932751391E+02  0.50528873823E+02  0.30000042473E+02 0.  0.
         12    1    1    2    0    0  0.31554355875E+02 -0.20090659518E+02  0.15932751391E+02  0.40659126177E+02  0.00000000000E+00 0. -1.
         11    1    3    3    0    0 -0.10667065845E+02  0.17832125598E+02 -0.71536524276E+01  0.21976026493E+02  0.51100000000E-03 0. -1.
        -11    1    3    3    0    0 -0.93984059017E+01  0.44121580254E+01 -0.12533870229E+02  0.16275597534E+02  0.51100000000E-03 0.  1.
         12    1    3    3    0    0 -0.11488884128E+02 -0.21536241054E+01  0.37547712658E+01  0.12277249796E+02  0.00000000000E+00 0. -1.
</event>
<event>
 7    1  0.8697654E-014  0.5052887E+02  0.7816164E-02  0.1300439E+00
        -11   -1    0    0    0    0  0.00000000000E+00  0.00000000000E+00  0.45593999997E+02  0.45594000000E+02  0.51100000000E-03 0. -1.
         11   -1    0    0    0    0 -0.00000000000E+00 -0.00000000000E+00 -0.45593999997E+02  0.45594000000E+02  0.51100000000E-03 0.  1.
    9900012    2    1    2    0    0  0.14781632493E+01 -0.46104495608E+01 -0.40369832707E+02  0.50528873048E+02  0.30000040116E+02 0.  0.
         12    1    1    2    0    0 -0.14781632493E+01  0.46104495608E+01  0.40369832707E+02  0.40659126952E+02  0.00000000000E+00 0. -1.
         11    1    3    3    0    0  0.87449614461E+01 -0.90923041616E+00 -0.39995973852E+01  0.96590801916E+01  0.51100000000E-03 0. -1.
        -11    1    3    3    0    0 -0.12405127919E+01 -0.39799757488E+01 -0.34208292958E+02  0.34461375281E+02  0.51100000000E-03 0.  1.
        -12    1    3    3    0    0 -0.60262854049E+01  0.27875660421E+00 -0.21619423639E+01  0.64084175746E+01  0.00000000000E+00 0.  1.
</event>
<event>
 7    1  0.8697654E-014  0.5052886E+02  0.7816164E-02  0.1300439E+00
        -11   -1    0    0    0    0  0.00000000000E+00  0.00000000000E+00  0.45593999997E+02  0.45594000000E+02  0.51100000000E-03 0.  1.
         11   -1    0    0    0    0 -0.00000000000E+00 -0.00000000000E+00 -0.45593999997E+02  0.45594000000E+02  0.51100000000E-03 0. -1.
    9900012    2    1    2    0    0  0.22149625831E+02 -0.33745809464E+02 -0.48765008334E+01  0.50528857840E+02  0.29999993891E+02 0.  0.
        -12    1    1    2    0    0 -0.22149625831E+02  0.33745809464E+02  0.48765008334E+01  0.40659142160E+02  0.00000000000E+00 0.  1.
         11    1    3    3    0    0  0.15019419747E+00 -0.15910094508E+02  0.23176495371E+01  0.16078717772E+02  0.51100000000E-03 0. -1.
        -11    1    3    3    0    0  0.13944901401E+02 -0.11028270465E+02  0.48628499751E+01  0.18431775137E+02  0.51100000000E-03 0.  1.
         12    1    3    3    0    0  0.80545302319E+01 -0.68074444906E+01 -0.12057000346E+02  0.16018364932E+02  0.00000000000E+00 0. -1.
</event>
<event>
 7    1  0.8697654E-014  0.5052874E+02  0.7816164E-02  0.1300439E+00
        -11   -1    0    0    0    0  0.00000000000E+00  0.00000000000E+00  0.45593999997E+02  0.45594000000E+02  0.51100000000E-03 0. -1.
         11   -1    0    0    0    0 -0.00000000000E+00 -0.00000000000E+00 -0.45593999997E+02  0.45594000000E+02  0.51100000000E-03 0.  1.
    9900012    2    1    2    0    0 -0.11144485840E+02 -0.18059450145E+01 -0.39060398152E+02  0.50528736531E+02  0.29999625157E+02 0.  0.
         12    1    1    2    0    0  0.11144485840E+02  0.18059450145E+01  0.39060398152E+02  0.40659263469E+02  0.00000000000E+00 0. -1.
         11    1    3    3    0    0  0.64184031676E+01 -0.55455202421E+01 -0.15355028081E+02  0.17542108813E+02  0.51100000000E-03 0. -1.
        -11    1    3    3    0    0  0.74514534112E-01  0.10250735969E+01  0.16722997847E+01  0.19628843893E+01  0.51100000000E-03 0.  1.
        -12    1    3    3    0    0 -0.17637403542E+02  0.27145016308E+01 -0.25377669856E+02  0.31023743329E+02  0.00000000000E+00 0.  1.
</event>
<event>
 7    1  0.8697654E-014  0.5052886E+02  0.7816164E-02  0.1300439E+00
        -11   -1    0    0    0    0  0.00000000000E+00  0.00000000000E+00  0.45593999997E+02  0.45594000000E+02  0.51100000000E-03 0. -1.
         11   -1    0    0    0    0 -0.00000000000E+00 -0.00000000000E+00 -0.45593999997E+02  0.45594000000E+02  0.51100000000E-03 0.  1.
    9900012    2    1    2    0    0 -0.26474140873E+01  0.21653284684E+01 -0.40515038400E+02  0.50528858527E+02  0.29999995980E+02 0.  0.
         12    1    1    2    0    0  0.26474140873E+01 -0.21653284684E+01  0.40515038400E+02  0.40659141473E+02  0.00000000000E+00 0. -1.
         11    1    3    3    0    0  0.39765747454E+00 -0.70113829757E+01 -0.41350547272E+01  0.81496196572E+01  0.51100000000E-03 0. -1.
        -11    1    3    3    0    0  0.70205848678E+01  0.41271467915E+01 -0.64115932773E+01  0.10364867637E+02  0.51100000000E-03 0.  1.
        -12    1    3    3    0    0 -0.10065656430E+02  0.50495646526E+01 -0.29968390396E+02  0.32014371233E+02  0.00000000000E+00 0.  1.
</event>
<event>
 7    1  0.8697654E-014  0.5052890E+02  0.7816164E-02  0.1300439E+00
        -11   -1    0    0    0    0  0.00000000000E+00  0.00000000000E+00  0.45593999997E+02  0.45594000000E+02  0.51100000000E-03 0.  1.
         11   -1    0    0    0    0 -0.00000000000E+00 -0.00000000000E+00 -0.45593999997E+02  0.45594000000E+02  0.51100000000E-03 0. -1.
    9900012    2    1    2    0    0 -0.37727416155E+02 -0.96119004725E+01  0.11722443547E+02  0.50528902087E+02  0.30000128383E+02 0.  0.
        -12    1    1    2    0    0  0.37727416155E+02  0.96119004725E+01 -0.11722443547E+02  0.40659097913E+02  0.00000000000E+00 0.  1.
         11    1    3    3    0    0 -0.78202607647E+01 -0.11341553462E+02 -0.20029315027E+01  0.13921172660E+02  0.51100000000E-03 0. -1.
        -11    1    3    3    0    0 -0.79045531601E+01 -0.42934195185E+01  0.10073430219E+02  0.13505162289E+02  0.51100000000E-03 0.  1.
         12    1    3    3    0    0 -0.22002602230E+02  0.60230725079E+01  0.36519448306E+01  0.23102567138E+02  0.00000000000E+00 0. -1.
</event>
<event>
 7    1  0.8697654E-014  0.5052884E+02  0.7816164E-02  0.1300439E+00
        -11   -1    0    0    0    0  0.00000000000E+00  0.00000000000E+00  0.45593999997E+02  0.45594000000E+02  0.51100000000E-03 0.  1.
         11   -1    0    0    0    0 -0.00000000000E+00 -0.00000000000E+00 -0.45593999997E+02  0.45594000000E+02  0.51100000000E-03 0. -1.
    9900012    2    1    2    0    0  0.37846796765E+02  0.39594338251E+01  0.14321675018E+02  0.50528837233E+02  0.29999931255E+02 0.  0.
        -12    1    1    2    0    0 -0.37846796765E+02 -0.39594338251E+01 -0.14321675018E+02  0.40659162767E+02  0.00000000000E+00 0.  1.
         11    1    3    3    0    0  0.33030153330E+02  0.22003647179E+01  0.69644155123E+01  0.33828031536E+02  0.51100000000E-03 0. -1.
        -11    1    3    3    0    0  0.22616476493E+01  0.74306161495E+01  0.70228013813E+01  0.10471334488E+02  0.51100000000E-03 0.  1.
         12    1    3    3    0    0  0.25549957849E+01 -0.56715470423E+01  0.33445812445E+00  0.62294712096E+01  0.00000000000E+00 0. -1.
</event>
<event>
 7    1  0.8697654E-014  0.5052886E+02  0.7816164E-02  0.1300439E+00
        -11   -1    0    0    0    0  0.00000000000E+00  0.00000000000E+00  0.45593999997E+02  0.45594000000E+02  0.51100000000E-03 0. -1.
         11   -1    0    0    0    0 -0.00000000000E+00 -0.00000000000E+00 -0.45593999997E+02  0.45594000000E+02  0.51100000000E-03 0.  1.
    9900012    2    1    2    0    0  0.13118908496E+02  0.14027428053E+02  0.35837005589E+02  0.50528862435E+02  0.30000007858E+02 0.  0.
        -12    1    1    2    0    0 -0.13118908496E+02 -0.14027428053E+02 -0.35837005589E+02  0.40659137565E+02  0.00000000000E+00 0.  1.
         11    1    3    3    0    0 -0.10426821919E+01 -0.19845177129E+01 -0.61896599671E+00  0.23256431094E+01  0.51100000000E-03 0. -1.
        -11    1    3    3    0    0  0.15365426387E+02  0.20809785345E+01  0.10518523263E+02  0.18736758834E+02  0.51100000000E-03 0.  1.
         12    1    3    3    0    0 -0.12038356996E+01  0.13930967231E+02  0.25937448323E+02  0.29466460492E+02  0.00000000000E+00 0. -1.
</event>
<event>
 7    1  0.8697654E-014  0.5052886E+02  0.7816164E-02  0.1300439E+00
        -11   -1    0    0    0    0  0.00000000000E+00  0.00000000000E+00  0.45593999997E+02  0.45594000000E+02  0.51100000000E-03 0. -1.
         11   -1    0    0    0    0 -0.00000000000E+00 -0.00000000000E+00 -0.45593999997E+02  0.45594000000E+02  0.51100000000E-03 0.  1.
    9900012    2    1    2    0    0 -0.15745366879E+02  0.19018828368E+02  0.32303765427E+02  0.50528859927E+02  0.30000000236E+02 0.  0.
        -12    1    1    2    0    0  0.15745366879E+02 -0.19018828368E+02 -0.32303765427E+02  0.40659140073E+02  0.00000000000E+00 0.  1.
         11    1    3    3    0    0 -0.15114118207E+02  0.42413350221E+01  0.77874580647E+01  0.17523412776E+02  0.51100000000E-03 0. -1.
        -11    1    3    3    0    0 -0.37399657308E+01  0.16560497582E+02  0.14362556246E+02  0.22237815676E+02  0.51100000000E-03 0.  1.
        -12    1    3    3    0    0  0.31087170595E+01 -0.17830042359E+01  0.10153751117E+02  0.10767631476E+02  0.00000000000E+00 0.  1.
</event>
<event>
 7    1  0.8697654E-014  0.5052887E+02  0.7816164E-02  0.1300439E+00
        -11   -1    0    0    0    0  0.00000000000E+00  0.00000000000E+00  0.45593999997E+02  0.45594000000E+02  0.51100000000E-03 0.  1.
         11   -1    0    0    0    0 -0.00000000000E+00 -0.00000000000E+00 -0.45593999997E+02  0.45594000000E+02  0.51100000000E-03 0. -1.
    9900012    2    1    2    0    0 -0.11782529296E+02  0.38859899558E+02  0.20604439807E+01  0.50528865483E+02  0.30000017121E+02 0.  0.
         12    1    1    2    0    0  0.11782529296E+02 -0.38859899558E+02 -0.20604439807E+01  0.40659134517E+02  0.00000000000E+00 0. -1.
         11    1    3    3    0    0 -0.78844222174E+01  0.92968106270E+01 -0.13169027923E+01  0.12260874143E+02  0.51100000000E-03 0. -1.
        -11    1    3    3    0    0  0.22250957439E+01  0.23744508425E+02 -0.70310146410E+01  0.24863384697E+02  0.51100000000E-03 0.  1.
         12    1    3    3    0    0 -0.61232028227E+01  0.58185805060E+01  0.10408361414E+02  0.13404606642E+02  0.00000000000E+00 0. -1.
</event>
<event>
 7    1  0.8697654E-014  0.5052886E+02  0.7816164E-02  0.1300439E+00
        -11   -1    0    0    0    0  0.00000000000E+00  0.00000000000E+00  0.45593999997E+02  0.45594000000E+02  0.51100000000E-03 0. -1.
         11   -1    0    0    0    0 -0.00000000000E+00 -0.00000000000E+00 -0.45593999997E+02  0.45594000000E+02  0.51100000000E-03 0.  1.
    9900012    2    1    2    0    0 -0.79695444432E+01  0.33401335085E+02  0.21771607502E+02  0.50528859363E+02  0.29999998520E+02 0.  0.
        -12    1    1    2    0    0  0.79695444432E+01 -0.33401335085E+02 -0.21771607502E+02  0.40659140637E+02  0.00000000000E+00 0.  1.
         11    1    3    3    0    0 -0.57821614658E+01  0.29194814588E+00  0.80714021778E+00  0.58455196971E+01  0.51100000000E-03 0. -1.
        -11    1    3    3    0    0 -0.71500164609E+01  0.10284631556E+02  0.16802239288E+02  0.20957376434E+02  0.51100000000E-03 0.  1.
         12    1    3    3    0    0  0.49626334836E+01  0.22824755383E+02  0.41622279964E+01  0.23725963232E+02  0.00000000000E+00 0. -1.
</event>
<event>
 7    1  0.8697654E-014  0.5052883E+02  0.7816164E-02  0.1300439E+00
        -11   -1    0    0    0    0  0.00000000000E+00  0.00000000000E+00  0.45593999997E+02  0.45594000000E+02  0.51100000000E-03 0.  1.
         11   -1    0    0    0    0 -0.00000000000E+00 -0.00000000000E+00 -0.45593999997E+02  0.45594000000E+02  0.51100000000E-03 0. -1.
    9900012    2    1    2    0    0  0.38977534216E+02 -0.52060641342E+01  0.10335238963E+02  0.50528825860E+02  0.29999896685E+02 0.  0.
         12    1    1    2    0    0 -0.38977534216E+02  0.52060641342E+01 -0.10335238963E+02  0.40659174140E+02  0.00000000000E+00 0. -1.
         11    1    3    3    0    0  0.69496728819E+01 -0.78197740022E+01 -0.40036648972E+01  0.11201613789E+02  0.51100000000E-03 0. -1.
        -11    1    3    3    0    0  0.15352437070E+02  0.11638044878E+01 -0.24842040999E+01  0.15595609483E+02  0.51100000000E-03 0.  1.
         12    1    3    3    0    0  0.16675424264E+02  0.14499053802E+01  0.16823107960E+02  0.23731602589E+02  0.00000000000E+00 0. -1.
</event>
<event>
 7    1  0.8697654E-014  0.5052886E+02  0.7816164E-02  0.1300439E+00
        -11   -1    0    0    0    0  0.00000000000E+00  0.00000000000E+00  0.45593999997E+02  0.45594000000E+02  0.51100000000E-03 0. -1.
         11   -1    0    0    0    0 -0.00000000000E+00 -0.00000000000E+00 -0.45593999997E+02  0.45594000000E+02  0.51100000000E-03 0.  1.
    9900012    2    1    2    0    0  0.34072282425E+02  0.18494646698E+02 -0.12255327190E+02  0.50528862888E+02  0.30000009234E+02 0.  0.
         12    1    1    2    0    0 -0.34072282425E+02 -0.18494646698E+02  0.12255327190E+02  0.40659137112E+02  0.00000000000E+00 0. -1.
         11    1    3    3    0    0  0.12925946264E+02  0.44901443081E+01  0.55576331731E+01  0.14769183102E+02  0.51100000000E-03 0. -1.
        -11    1    3    3    0    0 -0.21059936087E+01 -0.12948037055E+01  0.38861173855E+00  0.25025477139E+01  0.51100000000E-03 0.  1.
        -12    1    3    3    0    0  0.23252329770E+02  0.15299306096E+02 -0.18201572101E+02  0.33257132073E+02  0.00000000000E+00 0.  1.
</event>
<event>
 7    1  0.8697654E-014  0.5052886E+02  0.7816164E-02  0.1300439E+00
        -11   -1    0    0    0    0  0.00000000000E+00  0.00000000000E+00  0.45593999997E+02  0.45594000000E+02  0.51100000000E-03 0.  1.
         11   -1    0    0    0    0 -0.00000000000E+00 -0.00000000000E+00 -0.45593999997E+02  0.45594000000E+02  0.51100000000E-03 0. -1.
    9900012    2    1    2    0    0 -0.30033488572E+02  0.26376152649E+02 -0.74467079608E+01  0.50528864202E+02  0.30000013229E+02 0.  0.
        -12    1    1    2    0    0  0.30033488572E+02 -0.26376152649E+02  0.74467079608E+01  0.40659135798E+02  0.00000000000E+00 0.  1.
         11    1    3    3    0    0 -0.31061104608E+02  0.29373813711E+02 -0.70232770080E+01  0.43323660644E+02  0.51100000000E-03 0. -1.
        -11    1    3    3    0    0  0.23881751088E-01  0.10526595840E+01  0.20854696633E+01  0.23362034405E+01  0.51100000000E-03 0.  1.
        -12    1    3    3    0    0  0.10037342843E+01 -0.40503206460E+01 -0.25089006161E+01  0.48690001181E+01  0.00000000000E+00 0.  1.
</event>
<event>
 7    1  0.8697654E-014  0.5052886E+02  0.7816164E-02  0.1300439E+00
        -11   -1    0    0    0    0  0.00000000000E+00  0.00000000000E+00  0.45593999997E+02  0.45594000000E+02  0.51100000000E-03 0. -1.
         11   -1    0    0    0    0 -0.00000000000E+00 -0.00000000000E+00 -0.45593999997E+02  0.45594000000E+02  0.51100000000E-03 0.  1.
    9900012    2    1    2    0    0 -0.21420747487E+02  0.36985099658E+01  0.34360412014E+02  0.50528864340E+02  0.30000013648E+02 0.  0.
        -12    1    1    2    0    0  0.21420747487E+02 -0.36985099658E+01 -0.34360412014E+02  0.40659135660E+02  0.00000000000E+00 0.  1.
         11    1    3    3    0    0 -0.89558447027E+01 -0.18310840443E+01  0.32154464082E+01  0.96901557770E+01  0.51100000000E-03 0. -1.
        -11    1    3    3    0    0 -0.94610238008E+01  0.12355789436E+02  0.10203325888E+02  0.18608717403E+02  0.51100000000E-03 0.  1.
        -12    1    3    3    0    0 -0.30038789839E+01 -0.68261954254E+01  0.20941639717E+02  0.22229991160E+02  0.00000000000E+00 0.  1.
</event>
<event>
 7    1  0.8697654E-014  0.5052884E+02  0.7816164E-02  0.1300439E+00
        -11   -1    0    0    0    0  0.00000000000E+00  0.00000000000E+00  0.45593999997E+02  0.45594000000E+02  0.51100000000E-03 0. -1.
         11   -1    0    0    0    0 -0.00000000000E+00 -0.00000000000E+00 -0.45593999997E+02  0.45594000000E+02  0.51100000000E-03 0.  1.
    9900012    2    1    2    0    0 -0.24900523450E+02 -0.26080106432E+02  0.18787200627E+02  0.50528844487E+02  0.29999953304E+02 0.  0.
        -12    1    1    2    0    0  0.24900523450E+02  0.26080106432E+02 -0.18787200627E+02  0.40659155513E+02  0.00000000000E+00 0.  1.
         11    1    3    3    0    0 -0.21447425455E+02 -0.14141766640E+02 -0.73739335426E+00  0.25700688154E+02  0.51100000000E-03 0.  1.
        -11    1    3    3    0    0  0.92611536564E+00  0.13636915970E+00  0.63861833646E+01  0.64544267326E+01  0.51100000000E-03 0. -1.
        -12    1    3    3    0    0 -0.43792133607E+01 -0.12074708952E+02  0.13138410616E+02  0.18373729601E+02  0.00000000000E+00 0.  1.
</event>
<event>
 7    1  0.8697654E-014  0.5052887E+02  0.7816164E-02  0.1300439E+00
        -11   -1    0    0    0    0  0.00000000000E+00  0.00000000000E+00  0.45593999997E+02  0.45594000000E+02  0.51100000000E-03 0. -1.
         11   -1    0    0    0    0 -0.00000000000E+00 -0.00000000000E+00 -0.45593999997E+02  0.45594000000E+02  0.51100000000E-03 0.  1.
    9900012    2    1    2    0    0 -0.29212816734E+02 -0.16623362153E+02  0.22878817660E+02  0.50528866606E+02  0.30000020536E+02 0.  0.
        -12    1    1    2    0    0  0.29212816734E+02  0.16623362153E+02 -0.22878817660E+02  0.40659133394E+02  0.00000000000E+00 0.  1.
         11    1    3    3    0    0 -0.35516060125E+01 -0.87018066104E+01  0.19094444244E+00  0.94006278297E+01  0.51100000000E-03 0. -1.
        -11    1    3    3    0    0 -0.14188637085E+02 -0.26430698673E+01 -0.80612875634E+00  0.14455209596E+02  0.51100000000E-03 0.  1.
         12    1    3    3    0    0 -0.11472573637E+02 -0.52784856755E+01  0.23494001974E+02  0.26673029180E+02  0.00000000000E+00 0. -1.
</event>
<event>
 7    1  0.8697654E-014  0.5052885E+02  0.7816164E-02  0.1300439E+00
        -11   -1    0    0    0    0  0.00000000000E+00  0.00000000000E+00  0.45593999997E+02  0.45594000000E+02  0.51100000000E-03 0. -1.
         11   -1    0    0    0    0 -0.00000000000E+00 -0.00000000000E+00 -0.45593999997E+02  0.45594000000E+02  0.51100000000E-03 0.  1.
    9900012    2    1    2    0    0 -0.34271822306E+02  0.19092940329E+02 -0.10680288033E+02  0.50528846946E+02  0.29999960777E+02 0.  0.
         12    1    1    2    0    0  0.34271822306E+02 -0.19092940329E+02  0.10680288033E+02  0.40659153054E+02  0.00000000000E+00 0. -1.
         11    1    3    3    0    0 -0.47848799559E+00  0.74020471154E+01  0.39234595573E+01  0.83912327712E+01  0.51100000000E-03 0. -1.
        -11    1    3    3    0    0 -0.13492079555E+02  0.13196541203E+02 -0.44571580928E+01  0.19392038804E+02  0.51100000000E-03 0.  1.
        -12    1    3    3    0    0 -0.20301254756E+02 -0.15056479894E+01 -0.10146589498E+02  0.22745575371E+02  0.00000000000E+00 0.  1.
</event>
<event>
 7    1  0.8697654E-014  0.5052887E+02  0.7816164E-02  0.1300439E+00
        -11   -1    0    0    0    0  0.00000000000E+00  0.00000000000E+00  0.45593999997E+02  0.45594000000E+02  0.51100000000E-03 0. -1.
         11   -1    0    0    0    0 -0.00000000000E+00 -0.00000000000E+00 -0.45593999997E+02  0.45594000000E+02  0.51100000000E-03 0.  1.
    9900012    2    1    2    0    0  0.27771834907E+01 -0.15886248232E+02 -0.37323976609E+02  0.50528869895E+02  0.30000030532E+02 0.  0.
         12    1    1    2    0    0 -0.27771834907E+01  0.15886248232E+02  0.37323976609E+02  0.40659130105E+02  0.00000000000E+00 0. -1.
         11    1    3    3    0    0  0.60625314117E+01 -0.46821025113E+01  0.10192367915E+01  0.77275620309E+01  0.51100000000E-03 0. -1.
        -11    1    3    3    0    0  0.26009820361E+01 -0.12401012813E+02 -0.21983489261E+02  0.25373687685E+02  0.51100000000E-03 0.  1.
         12    1    3    3    0    0 -0.58863299570E+01  0.11968670929E+01 -0.16359724139E+02  0.17427620179E+02  0.00000000000E+00 0. -1.
</event>
<event>
 7    1  0.9523626E-014  0.5052885E+02  0.7816164E-02  0.1300439E+00
        -11   -1    0    0    0    0  0.00000000000E+00  0.00000000000E+00  0.45593999997E+02  0.45594000000E+02  0.51100000000E-03 0. -1.
         11   -1    0    0    0    0 -0.00000000000E+00 -0.00000000000E+00 -0.45593999997E+02  0.45594000000E+02  0.51100000000E-03 0.  1.
    9900012    2    1    2    0    0  0.13622079544E+02 -0.10678042932E+02 -0.36791092182E+02  0.50528854462E+02  0.29999983623E+02 0.  0.
         12    1    1    2    0    0 -0.13622079544E+02  0.10678042932E+02  0.36791092182E+02  0.40659145538E+02  0.00000000000E+00 0. -1.
         11    1    3    3    0    0  0.70279559480E+01 -0.13631509197E+02 -0.23082593495E+02  0.27713107558E+02  0.51100000000E-03 0. -1.
        -11    1    3    3    0    0  0.65054431339E+01 -0.59557332720E+00 -0.16852005666E+02  0.18073892585E+02  0.51100000000E-03 0.  1.
         12    1    3    3    0    0  0.88680461668E-01  0.35490395920E+01  0.31435069797E+01  0.47418543189E+01  0.00000000000E+00 0. -1.
</event>
<event>
 7    1  0.8697654E-014  0.5052886E+02  0.7816164E-02  0.1300439E+00
        -11   -1    0    0    0    0  0.00000000000E+00  0.00000000000E+00  0.45593999997E+02  0.45594000000E+02  0.51100000000E-03 0.  1.
         11   -1    0    0    0    0 -0.00000000000E+00 -0.00000000000E+00 -0.45593999997E+02  0.45594000000E+02  0.51100000000E-03 0. -1.
    9900012    2    1    2    0    0  0.21536195221E+02 -0.19263506815E+02  0.28605513304E+02  0.50528858460E+02  0.29999995774E+02 0.  0.
        -12    1    1    2    0    0 -0.21536195221E+02  0.19263506815E+02 -0.28605513304E+02  0.40659141540E+02  0.00000000000E+00 0.  1.
         11    1    3    3    0    0  0.76296945905E+01  0.52896891848E+01  0.82214273062E+01  0.12401004735E+02  0.51100000000E-03 0. -1.
        -11    1    3    3    0    0 -0.11683654500E+01 -0.38987617726E+01  0.95038718907E+01  0.10338713767E+02  0.51100000000E-03 0.  1.
         12    1    3    3    0    0  0.15074866080E+02 -0.20654434227E+02  0.10880214108E+02  0.27789139958E+02  0.00000000000E+00 0. -1.
</event>
<event>
 7    1  0.8697654E-014  0.5052886E+02  0.7816164E-02  0.1300439E+00
        -11   -1    0    0    0    0  0.00000000000E+00  0.00000000000E+00  0.45593999997E+02  0.45594000000E+02  0.51100000000E-03 0. -1.
         11   -1    0    0    0    0 -0.00000000000E+00 -0.00000000000E+00 -0.45593999997E+02  0.45594000000E+02  0.51100000000E-03 0.  1.
    9900012    2    1    2    0    0 -0.23160017991E+01 -0.32867445615E+02 -0.23822944602E+02  0.50528861604E+02  0.30000005333E+02 0.  0.
         12    1    1    2    0    0  0.23160017991E+01  0.32867445615E+02  0.23822944602E+02  0.40659138396E+02  0.00000000000E+00 0. -1.
         11    1    3    3    0    0 -0.36308896213E+01 -0.16659416705E+02 -0.16721051106E+01  0.17132292905E+02  0.51100000000E-03 0. -1.
        -11    1    3    3    0    0 -0.68696214463E+01 -0.33803289249E+01 -0.14425795501E+02  0.16331622655E+02  0.51100000000E-03 0.  1.
         12    1    3    3    0    0  0.81845092685E+01 -0.12827699984E+02 -0.77250439909E+01  0.17064946045E+02  0.00000000000E+00 0. -1.
</event>
<event>
 7    1  0.8697654E-014  0.5052886E+02  0.7816164E-02  0.1300439E+00
        -11   -1    0    0    0    0  0.00000000000E+00  0.00000000000E+00  0.45593999997E+02  0.45594000000E+02  0.51100000000E-03 0.  1.
         11   -1    0    0    0    0 -0.00000000000E+00 -0.00000000000E+00 -0.45593999997E+02  0.45594000000E+02  0.51100000000E-03 0. -1.
    9900012    2    1    2    0    0  0.33191234071E+02 -0.16947324333E+02  0.16257184339E+02  0.50528857561E+02  0.29999993043E+02 0.  0.
        -12    1    1    2    0    0 -0.33191234071E+02  0.16947324333E+02 -0.16257184339E+02  0.40659142439E+02  0.00000000000E+00 0.  1.
         11    1    3    3    0    0  0.10483369004E+01 -0.74121141201E+01 -0.71203531001E+00  0.75196702407E+01  0.51100000000E-03 0. -1.
        -11    1    3    3    0    0  0.13982331773E+02  0.76703187402E+00  0.17135104859E+02  0.22129296385E+02  0.51100000000E-03 0.  1.
         12    1    3    3    0    0  0.18160565398E+02 -0.10302242087E+02 -0.16588520974E+00  0.20879890936E+02  0.00000000000E+00 0. -1.
</event>
<event>
 7    1  0.8697654E-014  0.5052888E+02  0.7816164E-02  0.1300439E+00
        -11   -1    0    0    0    0  0.00000000000E+00  0.00000000000E+00  0.45593999997E+02  0.45594000000E+02  0.51100000000E-03 0. -1.
         11   -1    0    0    0    0 -0.00000000000E+00 -0.00000000000E+00 -0.45593999997E+02  0.45594000000E+02  0.51100000000E-03 0.  1.
    9900012    2    1    2    0    0  0.60634522798E+01  0.37958146242E+02  0.13250559222E+02  0.50528884917E+02  0.30000076193E+02 0.  0.
        -12    1    1    2    0    0 -0.60634522798E+01 -0.37958146242E+02 -0.13250559222E+02  0.40659115083E+02  0.00000000000E+00 0.  1.
         11    1    3    3    0    0 -0.63022195607E+01  0.45174774676E+01 -0.43638899098E+01  0.88977024825E+01  0.51100000000E-03 0. -1.
        -11    1    3    3    0    0  0.15335279492E+01  0.28653707427E+00  0.38151933887E+01  0.41218336114E+01  0.51100000000E-03 0.  1.
         12    1    3    3    0    0  0.10832143891E+02  0.33154131700E+02  0.13799255743E+02  0.37509348823E+02  0.00000000000E+00 0. -1.
</event>
<event>
 7    1  0.8697654E-014  0.5052886E+02  0.7816164E-02  0.1300439E+00
        -11   -1    0    0    0    0  0.00000000000E+00  0.00000000000E+00  0.45593999997E+02  0.45594000000E+02  0.51100000000E-03 0. -1.
         11   -1    0    0    0    0 -0.00000000000E+00 -0.00000000000E+00 -0.45593999997E+02  0.45594000000E+02  0.51100000000E-03 0.  1.
    9900012    2    1    2    0    0 -0.13563760237E+02  0.57486530816E+01  0.37896474772E+02  0.50528863214E+02  0.30000010225E+02 0.  0.
        -12    1    1    2    0    0  0.13563760237E+02 -0.57486530816E+01 -0.37896474772E+02  0.40659136786E+02  0.00000000000E+00 0.  1.
         11    1    3    3    0    0  0.48348216524E+01 -0.50319192486E+01  0.71345421055E+01  0.99798498511E+01  0.51100000000E-03 0. -1.
        -11    1    3    3    0    0 -0.53494054782E+01 -0.18750323550E+01  0.11215758581E+01  0.57783923343E+01  0.51100000000E-03 0.  1.
         12    1    3    3    0    0 -0.13049176411E+02  0.12655604685E+02  0.29640356809E+02  0.34770621029E+02  0.00000000000E+00 0. -1.
</event>
<event>
 7    1  0.8697654E-014  0.5052885E+02  0.7816164E-02  0.1300439E+00
        -11   -1    0    0    0    0  0.00000000000E+00  0.00000000000E+00  0.45593999997E+02  0.45594000000E+02  0.51100000000E-03 0. -1.
         11   -1    0    0    0    0 -0.00000000000E+00 -0.00000000000E+00 -0.45593999997E+02  0.45594000000E+02  0.51100000000E-03 0.  1.
    9900012    2    1    2    0    0  0.41438439689E+01 -0.39648355239E+02 -0.80002011525E+01  0.50528846855E+02  0.29999960500E+02 0.  0.
         12    1    1    2    0    0 -0.41438439689E+01  0.39648355239E+02  0.80002011525E+01  0.40659153145E+02  0.00000000000E+00 0. -1.
         11    1    3    3    0    0 -0.12500111292E+01 -0.37697023188E+01  0.58344907844E+01  0.70579364101E+01  0.51100000000E-03 0. -1.
        -11    1    3    3    0    0  0.49697305764E+00 -0.53060829473E+01 -0.11192017168E+02  0.12396077888E+02  0.51100000000E-03 0.  1.
        -12    1    3    3    0    0  0.48968820404E+01 -0.30572569973E+02 -0.26426747687E+01  0.31074832556E+02  0.00000000000E+00 0.  1.
</event>
<event>
 7    1  0.8697654E-014  0.5052886E+02  0.7816164E-02  0.1300439E+00
        -11   -1    0    0    0    0  0.00000000000E+00  0.00000000000E+00  0.45593999997E+02  0.45594000000E+02  0.51100000000E-03 0. -1.
         11   -1    0    0    0    0 -0.00000000000E+00 -0.00000000000E+00 -0.45593999997E+02  0.45594000000E+02  0.51100000000E-03 0.  1.
    9900012    2    1    2    0    0 -0.20153481545E+02  0.20000140712E+02 -0.29103217694E+02  0.50528859244E+02  0.29999998157E+02 0.  0.
         12    1    1    2    0    0  0.20153481545E+02 -0.20000140712E+02  0.29103217694E+02  0.40659140756E+02  0.00000000000E+00 0. -1.
         11    1    3    3    0    0 -0.56136328487E+01  0.16611458519E+02 -0.95392883993E+01  0.19961248741E+02  0.51100000000E-03 0.  1.
        -11    1    3    3    0    0  0.29038178237E+01  0.51892022997E+01 -0.47083962519E+01  0.75847856915E+01  0.51100000000E-03 0. -1.
         12    1    3    3    0    0 -0.17443666520E+02 -0.18005201062E+01 -0.14855533043E+02  0.22982824811E+02  0.00000000000E+00 0. -1.
</event>
<event>
 7    1  0.8697654E-014  0.5052886E+02  0.7816164E-02  0.1300439E+00
        -11   -1    0    0    0    0  0.00000000000E+00  0.00000000000E+00  0.45593999997E+02  0.45594000000E+02  0.51100000000E-03 0. -1.
         11   -1    0    0    0    0 -0.00000000000E+00 -0.00000000000E+00 -0.45593999997E+02  0.45594000000E+02  0.51100000000E-03 0.  1.
    9900012    2    1    2    0    0 -0.60198969397E+00  0.32624724206E+02 -0.24257581606E+02  0.50528864662E+02  0.30000014627E+02 0.  0.
         12    1    1    2    0    0  0.60198969397E+00 -0.32624724206E+02  0.24257581606E+02  0.40659135338E+02  0.00000000000E+00 0. -1.
         11    1    3    3    0    0  0.47152379686E+00  0.59905944559E+01 -0.76885512293E+00  0.60581098610E+01  0.51100000000E-03 0.  1.
        -11    1    3    3    0    0 -0.50902953020E+01  0.26126702386E+02 -0.70429701455E+01  0.27533962893E+02  0.51100000000E-03 0. -1.
         12    1    3    3    0    0  0.40167818112E+01  0.50742736339E+00 -0.16445756337E+02  0.16936791908E+02  0.00000000000E+00 0. -1.
</event>
<event>
 7    1  0.8697654E-014  0.5052889E+02  0.7816164E-02  0.1300439E+00
        -11   -1    0    0    0    0  0.00000000000E+00  0.00000000000E+00  0.45593999997E+02  0.45594000000E+02  0.51100000000E-03 0. -1.
         11   -1    0    0    0    0 -0.00000000000E+00 -0.00000000000E+00 -0.45593999997E+02  0.45594000000E+02  0.51100000000E-03 0.  1.
    9900012    2    1    2    0    0 -0.50969199054E+01  0.27148880991E+02  0.29834934041E+02  0.50528885145E+02  0.30000076886E+02 0.  0.
        -12    1    1    2    0    0  0.50969199054E+01 -0.27148880991E+02 -0.29834934041E+02  0.40659114855E+02  0.00000000000E+00 0.  1.
         11    1    3    3    0    0  0.13664821690E+00  0.19304325801E+01  0.16375509944E+02  0.16489468423E+02  0.51100000000E-03 0. -1.
        -11    1    3    3    0    0  0.42306847377E+01  0.66722897032E+01 -0.19481798657E+01  0.81371707788E+01  0.51100000000E-03 0.  1.
         12    1    3    3    0    0 -0.94642528600E+01  0.18546158708E+02  0.15407603962E+02  0.25902245943E+02  0.00000000000E+00 0. -1.
</event>
<event>
 7    1  0.8697654E-014  0.5052883E+02  0.7816164E-02  0.1300439E+00
        -11   -1    0    0    0    0  0.00000000000E+00  0.00000000000E+00  0.45593999997E+02  0.45594000000E+02  0.51100000000E-03 0.  1.
         11   -1    0    0    0    0 -0.00000000000E+00 -0.00000000000E+00 -0.45593999997E+02  0.45594000000E+02  0.51100000000E-03 0. -1.
    9900012    2    1    2    0    0 -0.24464200058E+02 -0.30080975579E+02  0.12239522707E+02  0.50528830157E+02  0.29999909745E+02 0.  0.
         12    1    1    2    0    0  0.24464200058E+02  0.30080975579E+02 -0.12239522707E+02  0.40659169843E+02  0.00000000000E+00 0. -1.
         11    1    3    3    0    0  0.15593375670E+01 -0.71651387711E+01 -0.69318644081E+01  0.10090663590E+02  0.51100000000E-03 0. -1.
        -11    1    3    3    0    0 -0.88210633767E+01 -0.73348526209E+01  0.21895870092E+01  0.11679277101E+02  0.51100000000E-03 0.  1.
        -12    1    3    3    0    0 -0.17202474248E+02 -0.15580984187E+02  0.16981800106E+02  0.28758889466E+02  0.00000000000E+00 0.  1.
</event>
<event>
 7    1  0.8697654E-014  0.5052885E+02  0.7816164E-02  0.1300439E+00
        -11   -1    0    0    0    0  0.00000000000E+00  0.00000000000E+00  0.45593999997E+02  0.45594000000E+02  0.51100000000E-03 0. -1.
         11   -1    0    0    0    0 -0.00000000000E+00 -0.00000000000E+00 -0.45593999997E+02  0.45594000000E+02  0.51100000000E-03 0.  1.
    9900012    2    1    2    0    0  0.56256132155E+01 -0.83752603930E+01 -0.39387479773E+02  0.50528854982E+02  0.29999985204E+02 0.  0.
         12    1    1    2    0    0 -0.56256132155E+01  0.83752603930E+01  0.39387479773E+02  0.40659145018E+02  0.00000000000E+00 0. -1.
         11    1    3    3    0    0  0.39064165189E-02  0.79900153181E+01 -0.14427758593E+02  0.16492440036E+02  0.51100000000E-03 0. -1.
        -11    1    3    3    0    0  0.83526017582E+01 -0.47376068088E+01 -0.17479053061E+02  0.19943123391E+02  0.51100000000E-03 0.  1.
         12    1    3    3    0    0 -0.27308949592E+01 -0.11627668902E+02 -0.74806681189E+01  0.14093291556E+02  0.00000000000E+00 0. -1.
</event>
<event>
 7    1  0.8697654E-014  0.5052886E+02  0.7816164E-02  0.1300439E+00
        -11   -1    0    0    0    0  0.00000000000E+00  0.00000000000E+00  0.45593999997E+02  0.45594000000E+02  0.51100000000E-03 0.  1.
         11   -1    0    0    0    0 -0.00000000000E+00 -0.00000000000E+00 -0.45593999997E+02  0.45594000000E+02  0.51100000000E-03 0. -1.
    9900012    2    1    2    0    0 -0.31119196744E+02 -0.10844690093E+02 -0.23815000583E+02  0.50528856355E+02  0.29999989376E+02 0.  0.
         12    1    1    2    0    0  0.31119196744E+02  0.10844690093E+02  0.23815000583E+02  0.40659143645E+02  0.00000000000E+00 0. -1.
         11    1    3    3    0    0 -0.99410308905E+01 -0.27758199107E+00 -0.15170297558E+02  0.18139434258E+02  0.51100000000E-03 0. -1.
        -11    1    3    3    0    0 -0.21086580476E+02 -0.45212101099E+00 -0.61775170881E+01  0.21977488647E+02  0.51100000000E-03 0.  1.
        -12    1    3    3    0    0 -0.91585376914E-01 -0.10114987091E+02 -0.24671859370E+01  0.10411933450E+02  0.00000000000E+00 0.  1.
</event>
<event>
 7    1  0.8697654E-014  0.5052890E+02  0.7816164E-02  0.1300439E+00
        -11   -1    0    0    0    0  0.00000000000E+00  0.00000000000E+00  0.45593999997E+02  0.45594000000E+02  0.51100000000E-03 0. -1.
         11   -1    0    0    0    0 -0.00000000000E+00 -0.00000000000E+00 -0.45593999997E+02  0.45594000000E+02  0.51100000000E-03 0.  1.
    9900012    2    1    2    0    0  0.16187023719E+02  0.11021574518E+02  0.35632391304E+02  0.50528903210E+02  0.30000131796E+02 0.  0.
        -12    1    1    2    0    0 -0.16187023719E+02 -0.11021574518E+02 -0.35632391304E+02  0.40659096790E+02  0.00000000000E+00 0.  1.
         11    1    3    3    0    0  0.12234201398E+02 -0.58649334204E+01  0.11133103223E+02  0.17550473370E+02  0.51100000000E-03 0.  1.
        -11    1    3    3    0    0  0.36415030375E+01  0.18957221869E+01  0.14216038941E+02  0.14796961526E+02  0.51100000000E-03 0. -1.
         12    1    3    3    0    0  0.31131928415E+00  0.14990785752E+02  0.10283249140E+02  0.18181468313E+02  0.00000000000E+00 0. -1.
</event>
<event>
 7    1  0.8697654E-014  0.5052887E+02  0.7816164E-02  0.1300439E+00
        -11   -1    0    0    0    0  0.00000000000E+00  0.00000000000E+00  0.45593999997E+02  0.45594000000E+02  0.51100000000E-03 0. -1.
         11   -1    0    0    0    0 -0.00000000000E+00 -0.00000000000E+00 -0.45593999997E+02  0.45594000000E+02  0.51100000000E-03 0.  1.
    9900012    2    1    2    0    0 -0.62388083787E+01  0.34105585644E+02 -0.21237973826E+02  0.50528865302E+02  0.30000016572E+02 0.  0.
         12    1    1    2    0    0  0.62388083787E+01 -0.34105585644E+02  0.21237973826E+02  0.40659134698E+02  0.00000000000E+00 0. -1.
         11    1    3    3    0    0  0.29679302306E+01  0.20341230051E+00  0.15844140916E+01  0.33705125267E+01  0.51100000000E-03 0. -1.
        -11    1    3    3    0    0 -0.11697908877E+02  0.22999239608E+02 -0.52547439135E+01  0.26332839355E+02  0.51100000000E-03 0.  1.
         12    1    3    3    0    0  0.24911702681E+01  0.10902933736E+02 -0.17567644004E+02  0.20825513420E+02  0.00000000000E+00 0. -1.
</event>
<event>
 7    1  0.8697654E-014  0.5052886E+02  0.7816164E-02  0.1300439E+00
        -11   -1    0    0    0    0  0.00000000000E+00  0.00000000000E+00  0.45593999997E+02  0.45594000000E+02  0.51100000000E-03 0. -1.
         11   -1    0    0    0    0 -0.00000000000E+00 -0.00000000000E+00 -0.45593999997E+02  0.45594000000E+02  0.51100000000E-03 0.  1.
    9900012    2    1    2    0    0 -0.57195733279E+01 -0.39341761478E+02 -0.85251232916E+01  0.50528862744E+02  0.30000008798E+02 0.  0.
         12    1    1    2    0    0  0.57195733279E+01  0.39341761478E+02  0.85251232916E+01  0.40659137256E+02  0.00000000000E+00 0. -1.
         11    1    3    3    0    0 -0.65531018150E+01 -0.26912656791E+01  0.66061103178E+01  0.96864208119E+01  0.51100000000E-03 0. -1.
        -11    1    3    3    0    0  0.20748034043E-01 -0.25435699584E+02 -0.54688333341E+01  0.26016982571E+02  0.51100000000E-03 0.  1.
        -12    1    3    3    0    0  0.81278045305E+00 -0.11214796215E+02 -0.96624002753E+01  0.14825459362E+02  0.00000000000E+00 0.  1.
</event>
<event>
 7    1  0.8697654E-014  0.5052889E+02  0.7816164E-02  0.1300439E+00
        -11   -1    0    0    0    0  0.00000000000E+00  0.00000000000E+00  0.45593999997E+02  0.45594000000E+02  0.51100000000E-03 0. -1.
         11   -1    0    0    0    0 -0.00000000000E+00 -0.00000000000E+00 -0.45593999997E+02  0.45594000000E+02  0.51100000000E-03 0.  1.
    9900012    2    1    2    0    0  0.25153496085E+01  0.33054041609E+02  0.23542861310E+02  0.50528893161E+02  0.30000101251E+02 0.  0.
        -12    1    1    2    0    0 -0.25153496085E+01 -0.33054041609E+02 -0.23542861310E+02  0.40659106839E+02  0.00000000000E+00 0.  1.
         11    1    3    3    0    0 -0.80946088899E+00  0.20726694345E+02  0.15996280037E+02  0.26194122636E+02  0.51100000000E-03 0. -1.
        -11    1    3    3    0    0 -0.80944215565E+01  0.42110739684E+01  0.28655694429E+01  0.95636966072E+01  0.51100000000E-03 0.  1.
        -12    1    3    3    0    0  0.11419232054E+02  0.81162732955E+01  0.46810118297E+01  0.14771073917E+02  0.00000000000E+00 0.  1.
</event>
<event>
 7    1  0.8697654E-014  0.5052886E+02  0.7816164E-02  0.1300439E+00
        -11   -1    0    0    0    0  0.00000000000E+00  0.00000000000E+00  0.45593999997E+02  0.45594000000E+02  0.51100000000E-03 0. -1.
         11   -1    0    0    0    0 -0.00000000000E+00 -0.00000000000E+00 -0.45593999997E+02  0.45594000000E+02  0.51100000000E-03 0.  1.
    9900012    2    1    2    0    0 -0.17626101398E+02  0.25138550135E+02 -0.26655948270E+02  0.50528859188E+02  0.29999997989E+02 0.  0.
         12    1    1    2    0    0  0.17626101398E+02 -0.25138550135E+02  0.26655948270E+02  0.40659140812E+02  0.00000000000E+00 0. -1.
         11    1    3    3    0    0 -0.86794778365E+01  0.15009973404E+02 -0.37286976498E+01  0.17735157838E+02  0.51100000000E-03 0. -1.
        -11    1    3    3    0    0 -0.68304930162E+01  0.15890899250E+02 -0.16458342727E+02  0.23875790236E+02  0.51100000000E-03 0.  1.
         12    1    3    3    0    0 -0.21161305452E+01 -0.57623225198E+01 -0.64689078931E+01  0.89179111139E+01  0.00000000000E+00 0. -1.
</event>
<event>
 7    1  0.8697654E-014  0.5052889E+02  0.7816164E-02  0.1300439E+00
        -11   -1    0    0    0    0  0.00000000000E+00  0.00000000000E+00  0.45593999997E+02  0.45594000000E+02  0.51100000000E-03 0. -1.
         11   -1    0    0    0    0 -0.00000000000E+00 -0.00000000000E+00 -0.45593999997E+02  0.45594000000E+02  0.51100000000E-03 0.  1.
    9900012    2    1    2    0    0  0.14696096891E+02 -0.37317047393E+02 -0.66802826886E+01  0.50528887039E+02  0.30000082644E+02 0.  0.
         12    1    1    2    0    0 -0.14696096891E+02  0.37317047393E+02  0.66802826886E+01  0.40659112961E+02  0.00000000000E+00 0. -1.
         11    1    3    3    0    0  0.12201219038E+02 -0.80004861893E+01 -0.32819888753E+01  0.14954898078E+02  0.51100000000E-03 0. -1.
        -11    1    3    3    0    0  0.54491244197E+01 -0.30664728204E+02 -0.39028825847E+00  0.31147565522E+02  0.51100000000E-03 0.  1.
         12    1    3    3    0    0 -0.29542465670E+01  0.13481670004E+01 -0.30080055548E+01  0.44264234386E+01  0.00000000000E+00 0. -1.
</event>
<event>
 7    1  0.8697654E-014  0.5052886E+02  0.7816164E-02  0.1300439E+00
        -11   -1    0    0    0    0  0.00000000000E+00  0.00000000000E+00  0.45593999997E+02  0.45594000000E+02  0.51100000000E-03 0. -1.
         11   -1    0    0    0    0 -0.00000000000E+00 -0.00000000000E+00 -0.45593999997E+02  0.45594000000E+02  0.51100000000E-03 0.  1.
    9900012    2    1    2    0    0 -0.28245425888E+02 -0.18844227803E+02 -0.22366416666E+02  0.50528860812E+02  0.30000002923E+02 0.  0.
         12    1    1    2    0    0  0.28245425888E+02  0.18844227803E+02  0.22366416666E+02  0.40659139188E+02  0.00000000000E+00 0. -1.
         11    1    3    3    0    0 -0.26822811658E+00 -0.47129739508E+00 -0.68116858519E+01  0.68332372975E+01  0.51100000000E-03 0. -1.
        -11    1    3    3    0    0 -0.48665872910E+01 -0.14297691727E+02  0.74742500301E+00  0.15121716337E+02  0.51100000000E-03 0.  1.
         12    1    3    3    0    0 -0.23110610480E+02 -0.40752386808E+01 -0.16302155817E+02  0.28573907177E+02  0.00000000000E+00 0. -1.
</event>
<event>
 7    1  0.8697654E-014  0.5052887E+02  0.7816164E-02  0.1300439E+00
        -11   -1    0    0    0    0  0.00000000000E+00  0.00000000000E+00  0.45593999997E+02  0.45594000000E+02  0.51100000000E-03 0. -1.
         11   -1    0    0    0    0 -0.00000000000E+00 -0.00000000000E+00 -0.45593999997E+02  0.45594000000E+02  0.51100000000E-03 0.  1.
    9900012    2    1    2    0    0 -0.18496102956E+02  0.33033812404E+02 -0.14826537143E+02  0.50528870765E+02  0.30000033177E+02 0.  0.
         12    1    1    2    0    0  0.18496102956E+02 -0.33033812404E+02  0.14826537143E+02  0.40659129235E+02  0.00000000000E+00 0. -1.
         11    1    3    3    0    0  0.86653307489E+00  0.21927317522E+02 -0.83313270564E+01  0.23472731926E+02  0.51100000000E-03 0. -1.
        -11    1    3    3    0    0 -0.10598676164E+01  0.24159804455E+01 -0.62603811435E+01  0.67935744053E+01  0.51100000000E-03 0.  1.
        -12    1    3    3    0    0 -0.18302768414E+02  0.86905144361E+01 -0.23482894347E+00  0.20262564434E+02  0.00000000000E+00 0.  1.
</event>
<event>
 7    1  0.8697654E-014  0.5052886E+02  0.7816164E-02  0.1300439E+00
        -11   -1    0    0    0    0  0.00000000000E+00  0.00000000000E+00  0.45593999997E+02  0.45594000000E+02  0.51100000000E-03 0. -1.
         11   -1    0    0    0    0 -0.00000000000E+00 -0.00000000000E+00 -0.45593999997E+02  0.45594000000E+02  0.51100000000E-03 0.  1.
    9900012    2    1    2    0    0 -0.82381749192E+01  0.27905466815E+02  0.28400407882E+02  0.50528858691E+02  0.29999996477E+02 0.  0.
        -12    1    1    2    0    0  0.82381749192E+01 -0.27905466815E+02 -0.28400407882E+02  0.40659141309E+02  0.00000000000E+00 0.  1.
         11    1    3    3    0    0 -0.17396334842E+01 -0.11438701062E+01  0.82035115786E+01  0.84635906069E+01  0.51100000000E-03 0. -1.
        -11    1    3    3    0    0 -0.46635995769E+00  0.11489032810E+01 -0.42842715714E+01  0.44600956849E+01  0.51100000000E-03 0.  1.
         12    1    3    3    0    0 -0.60321814773E+01  0.27900433640E+02  0.24481167874E+02  0.37605172399E+02  0.00000000000E+00 0. -1.
</event>
<event>
 7    1  0.8697654E-014  0.5052885E+02  0.7816164E-02  0.1300439E+00
        -11   -1    0    0    0    0  0.00000000000E+00  0.00000000000E+00  0.45593999997E+02  0.45594000000E+02  0.51100000000E-03 0. -1.
         11   -1    0    0    0    0 -0.00000000000E+00 -0.00000000000E+00 -0.45593999997E+02  0.45594000000E+02  0.51100000000E-03 0.  1.
    9900012    2    1    2    0    0  0.38451470808E+02  0.42816833469E+01  0.12502706902E+02  0.50528854664E+02  0.29999984238E+02 0.  0.
        -12    1    1    2    0    0 -0.38451470808E+02 -0.42816833469E+01 -0.12502706902E+02  0.40659145336E+02  0.00000000000E+00 0.  1.
         11    1    3    3    0    0  0.31511679163E+02  0.62594996268E+01  0.20631366772E+01  0.32193536501E+02  0.51100000000E-03 0. -1.
        -11    1    3    3    0    0  0.57561399700E+01 -0.37801978170E+01 -0.76165535662E+00  0.69284314267E+01  0.51100000000E-03 0.  1.
        -12    1    3    3    0    0  0.11836516745E+01  0.18023815371E+01  0.11201225581E+02  0.11406886736E+02  0.00000000000E+00 0.  1.
</event>
<event>
 7    1  0.8697654E-014  0.5052885E+02  0.7816164E-02  0.1300439E+00
        -11   -1    0    0    0    0  0.00000000000E+00  0.00000000000E+00  0.45593999997E+02  0.45594000000E+02  0.51100000000E-03 0. -1.
         11   -1    0    0    0    0 -0.00000000000E+00 -0.00000000000E+00 -0.45593999997E+02  0.45594000000E+02  0.51100000000E-03 0.  1.
    9900012    2    1    2    0    0 -0.32965978311E+02  0.48028710405E+01  0.23309715562E+02  0.50528854217E+02  0.29999982877E+02 0.  0.
        -12    1    1    2    0    0  0.32965978311E+02 -0.48028710405E+01 -0.23309715562E+02  0.40659145783E+02  0.00000000000E+00 0.  1.
         11    1    3    3    0    0 -0.81164220434E+01  0.62914944920E+01  0.11220549208E+02  0.15210520521E+02  0.51100000000E-03 0. -1.
        -11    1    3    3    0    0 -0.13525448204E+02  0.98129586439E+01  0.31931429661E+01  0.17012585598E+02  0.51100000000E-03 0.  1.
        -12    1    3    3    0    0 -0.11324108065E+02 -0.11301582095E+02  0.88960233879E+01  0.18305748098E+02  0.00000000000E+00 0.  1.
</event>
<event>
 7    1  0.8697654E-014  0.5052887E+02  0.7816164E-02  0.1300439E+00
        -11   -1    0    0    0    0  0.00000000000E+00  0.00000000000E+00  0.45593999997E+02  0.45594000000E+02  0.51100000000E-03 0. -1.
         11   -1    0    0    0    0 -0.00000000000E+00 -0.00000000000E+00 -0.45593999997E+02  0.45594000000E+02  0.51100000000E-03 0.  1.
    9900012    2    1    2    0    0 -0.21130166035E+02  0.28492706277E+02  0.19870745300E+02  0.50528871302E+02  0.30000034811E+02 0.  0.
        -12    1    1    2    0    0  0.21130166035E+02 -0.28492706277E+02 -0.19870745300E+02  0.40659128698E+02  0.00000000000E+00 0.  1.
         11    1    3    3    0    0 -0.14789473135E+02  0.40910321935E+01  0.22369342977E+01  0.15507060822E+02  0.51100000000E-03 0. -1.
        -11    1    3    3    0    0 -0.68665746131E+01  0.52674471737E+01 -0.48107892407E+00  0.86675996583E+01  0.51100000000E-03 0.  1.
        -12    1    3    3    0    0  0.52588171290E+00  0.19134226910E+02  0.18114889926E+02  0.26354210822E+02  0.00000000000E+00 0.  1.
</event>
<event>
 7    1  0.8697654E-014  0.5052886E+02  0.7816164E-02  0.1300439E+00
        -11   -1    0    0    0    0  0.00000000000E+00  0.00000000000E+00  0.45593999997E+02  0.45594000000E+02  0.51100000000E-03 0. -1.
         11   -1    0    0    0    0 -0.00000000000E+00 -0.00000000000E+00 -0.45593999997E+02  0.45594000000E+02  0.51100000000E-03 0.  1.
    9900012    2    1    2    0    0  0.15184852049E+02  0.37631288738E+02  0.25440003061E+01  0.50528861281E+02  0.30000004349E+02 0.  0.
        -12    1    1    2    0    0 -0.15184852049E+02 -0.37631288738E+02 -0.25440003061E+01  0.40659138719E+02  0.00000000000E+00 0.  1.
         11    1    3    3    0    0  0.14424738804E+01  0.11561709231E+02 -0.69790956510E+01  0.13581665127E+02  0.51100000000E-03 0. -1.
        -11    1    3    3    0    0 -0.36912536981E+01  0.13622290036E+02  0.55231761569E+01  0.15155778265E+02  0.51100000000E-03 0.  1.
         12    1    3    3    0    0  0.17433631867E+02  0.12447289471E+02  0.39999198003E+01  0.21791417890E+02  0.00000000000E+00 0. -1.
</event>
<event>
 7    1  0.8697654E-014  0.5052889E+02  0.7816164E-02  0.1300439E+00
        -11   -1    0    0    0    0  0.00000000000E+00  0.00000000000E+00  0.45593999997E+02  0.45594000000E+02  0.51100000000E-03 0. -1.
         11   -1    0    0    0    0 -0.00000000000E+00 -0.00000000000E+00 -0.45593999997E+02  0.45594000000E+02  0.51100000000E-03 0.  1.
    9900012    2    1    2    0    0  0.47568156717E+01 -0.36589034455E+02  0.17081526790E+02  0.50528889149E+02  0.30000089059E+02 0.  0.
        -12    1    1    2    0    0 -0.47568156717E+01  0.36589034455E+02 -0.17081526790E+02  0.40659110851E+02  0.00000000000E+00 0.  1.
         11    1    3    3    0    0  0.37943608513E+01 -0.64023748181E+01  0.62345347771E+01  0.97086045202E+01  0.51100000000E-03 0. -1.
        -11    1    3    3    0    0  0.10527639622E+02 -0.27445935395E+02  0.77708615694E+01  0.30405539882E+02  0.51100000000E-03 0.  1.
        -12    1    3    3    0    0 -0.95651848011E+01 -0.27407242416E+01  0.30761304438E+01  0.10414744747E+02  0.00000000000E+00 0.  1.
</event>
<event>
 7    1  0.8697654E-014  0.5052890E+02  0.7816164E-02  0.1300439E+00
        -11   -1    0    0    0    0  0.00000000000E+00  0.00000000000E+00  0.45593999997E+02  0.45594000000E+02  0.51100000000E-03 0. -1.
         11   -1    0    0    0    0 -0.00000000000E+00 -0.00000000000E+00 -0.45593999997E+02  0.45594000000E+02  0.51100000000E-03 0.  1.
    9900012    2    1    2    0    0  0.30022568403E+02 -0.26573960466E+02  0.67551832925E+01  0.50528899055E+02  0.30000119166E+02 0.  0.
        -12    1    1    2    0    0 -0.30022568403E+02  0.26573960466E+02 -0.67551832925E+01  0.40659100945E+02  0.00000000000E+00 0.  1.
         11    1    3    3    0    0  0.85134381677E+01  0.88304588969E+00  0.55380714507E+01  0.10194539476E+02  0.51100000000E-03 0. -1.
        -11    1    3    3    0    0  0.12585073552E+02 -0.78605172134E+01 -0.80624862097E+01  0.16887139820E+02  0.51100000000E-03 0.  1.
         12    1    3    3    0    0  0.89240566838E+01 -0.19596489142E+02  0.92795980515E+01  0.23447219758E+02  0.00000000000E+00 0. -1.
</event>
<event>
 7    1  0.1324923E-013  0.5052886E+02  0.7816164E-02  0.1300439E+00
        -11   -1    0    0    0    0  0.00000000000E+00  0.00000000000E+00  0.45593999997E+02  0.45594000000E+02  0.51100000000E-03 0. -1.
         11   -1    0    0    0    0 -0.00000000000E+00 -0.00000000000E+00 -0.45593999997E+02  0.45594000000E+02  0.51100000000E-03 0.  1.
    9900012    2    1    2    0    0  0.47470039025E+00  0.15460612556E+02 -0.37601994660E+02  0.50528857320E+02  0.29999992308E+02 0.  0.
         12    1    1    2    0    0 -0.47470039025E+00 -0.15460612556E+02  0.37601994660E+02  0.40659142680E+02  0.00000000000E+00 0. -1.
         11    1    3    3    0    0 -0.86599641351E+01  0.11473328171E+01 -0.91015657134E+01  0.12615460757E+02  0.51100000000E-03 0. -1.
        -11    1    3    3    0    0  0.88746112699E+01  0.65805536956E+01 -0.28068101884E+02  0.30164229740E+02  0.51100000000E-03 0.  1.
         12    1    3    3    0    0  0.26005325544E+00  0.77327260435E+01 -0.43232706259E+00  0.77491668229E+01  0.00000000000E+00 0. -1.
</event>
<event>
 7    1  0.8697654E-014  0.5052885E+02  0.7816164E-02  0.1300439E+00
        -11   -1    0    0    0    0  0.00000000000E+00  0.00000000000E+00  0.45593999997E+02  0.45594000000E+02  0.51100000000E-03 0. -1.
         11   -1    0    0    0    0 -0.00000000000E+00 -0.00000000000E+00 -0.45593999997E+02  0.45594000000E+02  0.51100000000E-03 0.  1.
    9900012    2    1    2    0    0  0.10520267025E+02 -0.33884796773E+02  0.19857256778E+02  0.50528854443E+02  0.29999983565E+02 0.  0.
        -12    1    1    2    0    0 -0.10520267025E+02  0.33884796773E+02 -0.19857256778E+02  0.40659145557E+02  0.00000000000E+00 0.  1.
         11    1    3    3    0    0  0.91875080129E+01 -0.10478405441E+02  0.16440403208E+02  0.21552126159E+02  0.51100000000E-03 0. -1.
        -11    1    3    3    0    0  0.65439151960E+01 -0.25938614579E+01 -0.88510794707E+00  0.70946712182E+01  0.51100000000E-03 0.  1.
         12    1    3    3    0    0 -0.52111561837E+01 -0.20812529874E+02  0.43019615179E+01  0.21882057066E+02  0.00000000000E+00 0. -1.
</event>
<event>
 7    1  0.8697654E-014  0.5052886E+02  0.7816164E-02  0.1300439E+00
        -11   -1    0    0    0    0  0.00000000000E+00  0.00000000000E+00  0.45593999997E+02  0.45594000000E+02  0.51100000000E-03 0.  1.
         11   -1    0    0    0    0 -0.00000000000E+00 -0.00000000000E+00 -0.45593999997E+02  0.45594000000E+02  0.51100000000E-03 0. -1.
    9900012    2    1    2    0    0  0.35155277469E+02  0.18906437764E+02 -0.77342684339E+01  0.50528857964E+02  0.29999994268E+02 0.  0.
         12    1    1    2    0    0 -0.35155277469E+02 -0.18906437764E+02  0.77342684339E+01  0.40659142036E+02  0.00000000000E+00 0. -1.
         11    1    3    3    0    0  0.19437369520E+02  0.15263021723E+02 -0.12322870638E+01  0.24744488227E+02  0.51100000000E-03 0. -1.
        -11    1    3    3    0    0 -0.36522351333E+01 -0.38237044806E+00  0.20786140437E+01  0.42196759630E+01  0.51100000000E-03 0.  1.
         12    1    3    3    0    0  0.19370143083E+02  0.40257864886E+01 -0.85805954138E+01  0.21564693774E+02  0.00000000000E+00 0. -1.
</event>
<event>
 7    1  0.8697654E-014  0.5052886E+02  0.7816164E-02  0.1300439E+00
        -11   -1    0    0    0    0  0.00000000000E+00  0.00000000000E+00  0.45593999997E+02  0.45594000000E+02  0.51100000000E-03 0. -1.
         11   -1    0    0    0    0 -0.00000000000E+00 -0.00000000000E+00 -0.45593999997E+02  0.45594000000E+02  0.51100000000E-03 0.  1.
    9900012    2    1    2    0    0 -0.34611017905E+02  0.17952776533E+02 -0.11529994091E+02  0.50528861920E+02  0.30000006294E+02 0.  0.
         12    1    1    2    0    0  0.34611017905E+02 -0.17952776533E+02  0.11529994091E+02  0.40659138080E+02  0.00000000000E+00 0. -1.
         11    1    3    3    0    0 -0.88420934238E+01 -0.33345549659E+01 -0.10506623326E+01  0.95081945991E+01  0.51100000000E-03 0. -1.
        -11    1    3    3    0    0 -0.26797872092E+01  0.82104376831E+01  0.53145898600E+01  0.10140878269E+02  0.51100000000E-03 0.  1.
         12    1    3    3    0    0 -0.23089137272E+02  0.13076893816E+02 -0.15793921618E+02  0.30879789052E+02  0.00000000000E+00 0. -1.
</event>
<event>
 7    1  0.8697654E-014  0.5052886E+02  0.7816164E-02  0.1300439E+00
        -11   -1    0    0    0    0  0.00000000000E+00  0.00000000000E+00  0.45593999997E+02  0.45594000000E+02  0.51100000000E-03 0. -1.
         11   -1    0    0    0    0 -0.00000000000E+00 -0.00000000000E+00 -0.45593999997E+02  0.45594000000E+02  0.51100000000E-03 0.  1.
    9900012    2    1    2    0    0 -0.95766415265E+01 -0.25850449942E+02  0.29886580684E+02  0.50528861665E+02  0.30000005518E+02 0.  0.
        -12    1    1    2    0    0  0.95766415265E+01  0.25850449942E+02 -0.29886580684E+02  0.40659138335E+02  0.00000000000E+00 0.  1.
         11    1    3    3    0    0 -0.96474261447E+00 -0.17556784390E+02  0.24901133097E+02  0.30483402635E+02  0.51100000000E-03 0. -1.
        -11    1    3    3    0    0 -0.11467696006E+01  0.83695347358E+00  0.77935903759E+01  0.79218446616E+01  0.51100000000E-03 0.  1.
         12    1    3    3    0    0 -0.74651293115E+01 -0.91306190260E+01 -0.28081427895E+01  0.12123614369E+02  0.00000000000E+00 0. -1.
</event>
<event>
 7    1  0.8697654E-014  0.5052886E+02  0.7816164E-02  0.1300439E+00
        -11   -1    0    0    0    0  0.00000000000E+00  0.00000000000E+00  0.45593999997E+02  0.45594000000E+02  0.51100000000E-03 0. -1.
         11   -1    0    0    0    0 -0.00000000000E+00 -0.00000000000E+00 -0.45593999997E+02  0.45594000000E+02  0.51100000000E-03 0.  1.
    9900012    2    1    2    0    0 -0.26364685059E+02 -0.16862363242E+02 -0.25956310728E+02  0.50528856146E+02  0.29999988741E+02 0.  0.
         12    1    1    2    0    0  0.26364685059E+02  0.16862363242E+02  0.25956310728E+02  0.40659143854E+02  0.00000000000E+00 0. -1.
         11    1    3    3    0    0 -0.13767492201E+01  0.14016641650E+01  0.19993897724E+01  0.28031518991E+01  0.51100000000E-03 0. -1.
        -11    1    3    3    0    0  0.72191923501E+00 -0.12013241075E+02 -0.10967114906E+02  0.16282405785E+02  0.51100000000E-03 0.  1.
        -12    1    3    3    0    0 -0.25709855074E+02 -0.62507863321E+01 -0.16988585594E+02  0.31443298462E+02  0.00000000000E+00 0.  1.
</event>
<event>
 7    1  0.8697654E-014  0.5052886E+02  0.7816164E-02  0.1300439E+00
        -11   -1    0    0    0    0  0.00000000000E+00  0.00000000000E+00  0.45593999997E+02  0.45594000000E+02  0.51100000000E-03 0. -1.
         11   -1    0    0    0    0 -0.00000000000E+00 -0.00000000000E+00 -0.45593999997E+02  0.45594000000E+02  0.51100000000E-03 0.  1.
    9900012    2    1    2    0    0  0.17568950227E+02  0.16690857180E+02 -0.32648320732E+02  0.50528861149E+02  0.30000003949E+02 0.  0.
         12    1    1    2    0    0 -0.17568950227E+02 -0.16690857180E+02  0.32648320732E+02  0.40659138851E+02  0.00000000000E+00 0. -1.
         11    1    3    3    0    0 -0.72108968926E+01  0.11137233845E+01 -0.36065817073E+01  0.81390936624E+01  0.51100000000E-03 0. -1.
        -11    1    3    3    0    0  0.43784011811E+01  0.51592425981E+01 -0.12223169966E+02  0.13971186970E+02  0.51100000000E-03 0.  1.
        -12    1    3    3    0    0  0.20401445938E+02  0.10417891198E+02 -0.16818569059E+02  0.28418580516E+02  0.00000000000E+00 0.  1.
</event>
<event>
 7    1  0.8697654E-014  0.5052886E+02  0.7816164E-02  0.1300439E+00
        -11   -1    0    0    0    0  0.00000000000E+00  0.00000000000E+00  0.45593999997E+02  0.45594000000E+02  0.51100000000E-03 0. -1.
         11   -1    0    0    0    0 -0.00000000000E+00 -0.00000000000E+00 -0.45593999997E+02  0.45594000000E+02  0.51100000000E-03 0.  1.
    9900012    2    1    2    0    0  0.15633353629E+02 -0.73434054200E+01 -0.36808133801E+02  0.50528855115E+02  0.29999985608E+02 0.  0.
         12    1    1    2    0    0 -0.15633353629E+02  0.73434054200E+01  0.36808133801E+02  0.40659144885E+02  0.00000000000E+00 0. -1.
         11    1    3    3    0    0 -0.41795238333E+01 -0.72796740736E+01 -0.97585199192E+01  0.12872093278E+02  0.51100000000E-03 0.  1.
        -11    1    3    3    0    0  0.48896939639E+01  0.75911714451E+01 -0.12706524183E+02  0.15588160508E+02  0.51100000000E-03 0. -1.
        -12    1    3    3    0    0  0.14923183498E+02 -0.76549027915E+01 -0.14343089700E+02  0.22068601328E+02  0.00000000000E+00 0.  1.
</event>
<event>
 7    1  0.8697654E-014  0.5052892E+02  0.7816164E-02  0.1300439E+00
        -11   -1    0    0    0    0  0.00000000000E+00  0.00000000000E+00  0.45593999997E+02  0.45594000000E+02  0.51100000000E-03 0. -1.
         11   -1    0    0    0    0 -0.00000000000E+00 -0.00000000000E+00 -0.45593999997E+02  0.45594000000E+02  0.51100000000E-03 0.  1.
    9900012    2    1    2    0    0  0.16542009397E+02  0.32167946220E+02 -0.18567327335E+02  0.50528923729E+02  0.30000194165E+02 0.  0.
         12    1    1    2    0    0 -0.16542009397E+02 -0.32167946220E+02  0.18567327335E+02  0.40659076271E+02  0.00000000000E+00 0. -1.
         11    1    3    3    0    0 -0.55101542175E+01  0.23368222213E+01 -0.42362249785E+01  0.73326761775E+01  0.51100000000E-03 0.  1.
        -11    1    3    3    0    0  0.25582975896E+01  0.16232545401E+00  0.27852621818E+01  0.37853562306E+01  0.51100000000E-03 0. -1.
         12    1    3    3    0    0  0.19493866025E+02  0.29668798544E+02 -0.17116364538E+02  0.39410891320E+02  0.00000000000E+00 0. -1.
</event>
<event>
 7    1  0.8697654E-014  0.5052886E+02  0.7816164E-02  0.1300439E+00
        -11   -1    0    0    0    0  0.00000000000E+00  0.00000000000E+00  0.45593999997E+02  0.45594000000E+02  0.51100000000E-03 0. -1.
         11   -1    0    0    0    0 -0.00000000000E+00 -0.00000000000E+00 -0.45593999997E+02  0.45594000000E+02  0.51100000000E-03 0.  1.
    9900012    2    1    2    0    0  0.55141763357E+01 -0.23090519430E+02 -0.33008898449E+02  0.50528860744E+02  0.30000002717E+02 0.  0.
         12    1    1    2    0    0 -0.55141763357E+01  0.23090519430E+02  0.33008898449E+02  0.40659139256E+02  0.00000000000E+00 0. -1.
         11    1    3    3    0    0  0.78129511668E+01 -0.58709982883E+01 -0.10447538788E+02  0.14306009011E+02  0.51100000000E-03 0. -1.
        -11    1    3    3    0    0  0.42726935580E+01 -0.15416469296E+02 -0.40575200769E+01  0.16504148122E+02  0.51100000000E-03 0.  1.
        -12    1    3    3    0    0 -0.65714683891E+01 -0.18030518462E+01 -0.18503839584E+02  0.19718703611E+02  0.00000000000E+00 0.  1.
</event>
<event>
 7    1  0.8697654E-014  0.5052896E+02  0.7816164E-02  0.1300438E+00
        -11   -1    0    0    0    0  0.00000000000E+00  0.00000000000E+00  0.45593999997E+02  0.45594000000E+02  0.51100000000E-03 0. -1.
         11   -1    0    0    0    0 -0.00000000000E+00 -0.00000000000E+00 -0.45593999997E+02  0.45594000000E+02  0.51100000000E-03 0.  1.
    9900012    2    1    2    0    0  0.74859608912E+01 -0.11042119169E+02  0.38408194265E+02  0.50528961732E+02  0.30000309679E+02 0.  0.
        -12    1    1    2    0    0 -0.74859608912E+01  0.11042119169E+02 -0.38408194265E+02  0.40659038268E+02  0.00000000000E+00 0.  1.
         11    1    3    3    0    0  0.23932427852E+01  0.67962891825E+00  0.13173846164E+01  0.28151392478E+01  0.51100000000E-03 0. -1.
        -11    1    3    3    0    0  0.10199811711E+02  0.57130982248E+01  0.12189608578E+02  0.16889707156E+02  0.51100000000E-03 0.  1.
        -12    1    3    3    0    0 -0.51070936054E+01 -0.17434846312E+02  0.24901201070E+02  0.30824115328E+02  0.00000000000E+00 0.  1.
</event>
<event>
 7    1  0.8697654E-014  0.5052885E+02  0.7816164E-02  0.1300439E+00
        -11   -1    0    0    0    0  0.00000000000E+00  0.00000000000E+00  0.45593999997E+02  0.45594000000E+02  0.51100000000E-03 0. -1.
         11   -1    0    0    0    0 -0.00000000000E+00 -0.00000000000E+00 -0.45593999997E+02  0.45594000000E+02  0.51100000000E-03 0.  1.
    9900012    2    1    2    0    0 -0.30244357642E+02  0.21570546772E+02  0.16527457769E+02  0.50528849522E+02  0.29999968609E+02 0.  0.
        -12    1    1    2    0    0  0.30244357642E+02 -0.21570546772E+02 -0.16527457769E+02  0.40659150478E+02  0.00000000000E+00 0.  1.
         11    1    3    3    0    0 -0.32556413033E+01  0.11437429679E+02 -0.42385253038E+00  0.11899312971E+02  0.51100000000E-03 0.  1.
        -11    1    3    3    0    0 -0.23582081099E+02  0.46876720608E+01  0.42775653661E+01  0.24421023403E+02  0.51100000000E-03 0. -1.
         12    1    3    3    0    0 -0.34066352397E+01  0.54454450325E+01  0.12673744933E+02  0.14208513149E+02  0.00000000000E+00 0. -1.
</event>
<event>
 7    1  0.8697654E-014  0.5052889E+02  0.7816164E-02  0.1300439E+00
        -11   -1    0    0    0    0  0.00000000000E+00  0.00000000000E+00  0.45593999997E+02  0.45594000000E+02  0.51100000000E-03 0. -1.
         11   -1    0    0    0    0 -0.00000000000E+00 -0.00000000000E+00 -0.45593999997E+02  0.45594000000E+02  0.51100000000E-03 0.  1.
    9900012    2    1    2    0    0 -0.23553160974E+02 -0.25402802790E+02 -0.21286374347E+02  0.50528886455E+02  0.30000080868E+02 0.  0.
         12    1    1    2    0    0  0.23553160974E+02  0.25402802790E+02  0.21286374347E+02  0.40659113545E+02  0.00000000000E+00 0. -1.
         11    1    3    3    0    0 -0.92010520400E+01 -0.19486183332E+02 -0.33479820874E+01  0.21807789521E+02  0.51100000000E-03 0. -1.
        -11    1    3    3    0    0 -0.12179118140E+02 -0.48063951454E+01 -0.28025258031E+01  0.13389791040E+02  0.51100000000E-03 0.  1.
         12    1    3    3    0    0 -0.21729907935E+01 -0.11102243132E+01 -0.15135866456E+02  0.15331305893E+02  0.00000000000E+00 0. -1.
</event>
<event>
 7    1  0.8697654E-014  0.5052886E+02  0.7816164E-02  0.1300439E+00
        -11   -1    0    0    0    0  0.00000000000E+00  0.00000000000E+00  0.45593999997E+02  0.45594000000E+02  0.51100000000E-03 0. -1.
         11   -1    0    0    0    0 -0.00000000000E+00 -0.00000000000E+00 -0.45593999997E+02  0.45594000000E+02  0.51100000000E-03 0.  1.
    9900012    2    1    2    0    0 -0.28706162926E+02 -0.72238224840E+01  0.27873611082E+02  0.50528860855E+02  0.30000003056E+02 0.  0.
        -12    1    1    2    0    0  0.28706162926E+02  0.72238224840E+01 -0.27873611082E+02  0.40659139145E+02  0.00000000000E+00 0.  1.
         11    1    3    3    0    0 -0.21491200881E+02 -0.24930973898E+01  0.17695141755E+02  0.27950049945E+02  0.51100000000E-03 0. -1.
        -11    1    3    3    0    0  0.34651871366E+01  0.30556444582E+01  0.79215406510E+01  0.91703484936E+01  0.51100000000E-03 0.  1.
         12    1    3    3    0    0 -0.10680149181E+02 -0.77863695525E+01  0.22569286758E+01  0.13408462417E+02  0.00000000000E+00 0. -1.
</event>
<event>
 7    1  0.8697654E-014  0.5052886E+02  0.7816164E-02  0.1300439E+00
        -11   -1    0    0    0    0  0.00000000000E+00  0.00000000000E+00  0.45593999997E+02  0.45594000000E+02  0.51100000000E-03 0. -1.
         11   -1    0    0    0    0 -0.00000000000E+00 -0.00000000000E+00 -0.45593999997E+02  0.45594000000E+02  0.51100000000E-03 0.  1.
    9900012    2    1    2    0    0 -0.10309387775E+02 -0.17624237945E+02  0.35160604455E+02  0.50528863941E+02  0.30000012435E+02 0.  0.
        -12    1    1    2    0    0  0.10309387775E+02  0.17624237945E+02 -0.35160604455E+02  0.40659136059E+02  0.00000000000E+00 0.  1.
         11    1    3    3    0    0 -0.88099352468E+01  0.56956604731E+00  0.45327402871E+01  0.99239659061E+01  0.51100000000E-03 0. -1.
        -11    1    3    3    0    0  0.72220372352E+00 -0.11818843550E+02  0.30703168628E+01  0.12232476732E+02  0.51100000000E-03 0.  1.
         12    1    3    3    0    0 -0.22216562517E+01 -0.63749604419E+01  0.27557547305E+02  0.28372421303E+02  0.00000000000E+00 0. -1.
</event>
<event>
 7    1  0.8697654E-014  0.5052886E+02  0.7816164E-02  0.1300439E+00
        -11   -1    0    0    0    0  0.00000000000E+00  0.00000000000E+00  0.45593999997E+02  0.45594000000E+02  0.51100000000E-03 0. -1.
         11   -1    0    0    0    0 -0.00000000000E+00 -0.00000000000E+00 -0.45593999997E+02  0.45594000000E+02  0.51100000000E-03 0.  1.
    9900012    2    1    2    0    0 -0.34495297979E+02  0.10609303310E+02 -0.18726517341E+02  0.50528863866E+02  0.30000012207E+02 0.  0.
         12    1    1    2    0    0  0.34495297979E+02 -0.10609303310E+02  0.18726517341E+02  0.40659136134E+02  0.00000000000E+00 0. -1.
         11    1    3    3    0    0 -0.17479289087E+02  0.92568948437E+01 -0.59045319966E+01  0.20641684706E+02  0.51100000000E-03 0. -1.
        -11    1    3    3    0    0 -0.20884560244E+02 -0.29312890190E+01 -0.11262756848E+02  0.23908304080E+02  0.51100000000E-03 0.  1.
         12    1    3    3    0    0  0.38685513522E+01  0.42836974857E+01 -0.15592284968E+01  0.59788750797E+01  0.00000000000E+00 0. -1.
</event>
<event>
 7    1  0.8697654E-014  0.5052886E+02  0.7816164E-02  0.1300439E+00
        -11   -1    0    0    0    0  0.00000000000E+00  0.00000000000E+00  0.45593999997E+02  0.45594000000E+02  0.51100000000E-03 0.  1.
         11   -1    0    0    0    0 -0.00000000000E+00 -0.00000000000E+00 -0.45593999997E+02  0.45594000000E+02  0.51100000000E-03 0. -1.
    9900012    2    1    2    0    0 -0.32068919718E+02  0.23255717155E+02  0.91608668690E+01  0.50528862354E+02  0.30000007612E+02 0.  0.
        -12    1    1    2    0    0  0.32068919718E+02 -0.23255717155E+02 -0.91608668690E+01  0.40659137646E+02  0.00000000000E+00 0.  1.
         11    1    3    3    0    0 -0.14110508162E+02  0.66265931225E+01  0.60431293918E+00  0.15600749065E+02  0.51100000000E-03 0. -1.
        -11    1    3    3    0    0 -0.15263428734E+02  0.28265248244E+01 -0.40489618503E+01  0.16042306306E+02  0.51100000000E-03 0.  1.
         12    1    3    3    0    0 -0.26949828226E+01  0.13802599208E+02  0.12605515780E+02  0.18885806983E+02  0.00000000000E+00 0. -1.
</event>
<event>
 7    1  0.8697654E-014  0.5052886E+02  0.7816164E-02  0.1300439E+00
        -11   -1    0    0    0    0  0.00000000000E+00  0.00000000000E+00  0.45593999997E+02  0.45594000000E+02  0.51100000000E-03 0. -1.
         11   -1    0    0    0    0 -0.00000000000E+00 -0.00000000000E+00 -0.45593999997E+02  0.45594000000E+02  0.51100000000E-03 0.  1.
    9900012    2    1    2    0    0 -0.11839426418E+02  0.28077638820E+02  0.26919142523E+02  0.50528855226E+02  0.29999985946E+02 0.  0.
        -12    1    1    2    0    0  0.11839426418E+02 -0.28077638820E+02 -0.26919142523E+02  0.40659144774E+02  0.00000000000E+00 0.  1.
         11    1    3    3    0    0 -0.11573792410E+02  0.15171745032E+02  0.17481517836E+02  0.25879296439E+02  0.51100000000E-03 0. -1.
        -11    1    3    3    0    0  0.52089794237E+01  0.11275077683E+02 -0.12989707871E+01  0.12487920914E+02  0.51100000000E-03 0.  1.
         12    1    3    3    0    0 -0.54746134315E+01  0.16308161047E+01  0.10736595473E+02  0.12161637873E+02  0.00000000000E+00 0. -1.
</event>
<event>
 7    1  0.8697654E-014  0.5052886E+02  0.7816164E-02  0.1300439E+00
        -11   -1    0    0    0    0  0.00000000000E+00  0.00000000000E+00  0.45593999997E+02  0.45594000000E+02  0.51100000000E-03 0. -1.
         11   -1    0    0    0    0 -0.00000000000E+00 -0.00000000000E+00 -0.45593999997E+02  0.45594000000E+02  0.51100000000E-03 0.  1.
    9900012    2    1    2    0    0  0.30965655083E+02  0.16260117365E+02  0.20734093162E+02  0.50528857968E+02  0.29999994281E+02 0.  0.
        -12    1    1    2    0    0 -0.30965655083E+02 -0.16260117365E+02 -0.20734093162E+02  0.40659142032E+02  0.00000000000E+00 0.  1.
         11    1    3    3    0    0  0.27122258123E+01  0.48471803437E+01  0.63321899531E+01  0.84230609641E+01  0.51100000000E-03 0. -1.
        -11    1    3    3    0    0  0.19560918942E+02 -0.40747088859E+00  0.18442416079E+02  0.26887139927E+02  0.51100000000E-03 0.  1.
        -12    1    3    3    0    0  0.86925103290E+01  0.11820407910E+02 -0.40405128695E+01  0.15218657077E+02  0.00000000000E+00 0.  1.
</event>
<event>
 7    1  0.8697654E-014  0.5052878E+02  0.7816164E-02  0.1300439E+00
        -11   -1    0    0    0    0  0.00000000000E+00  0.00000000000E+00  0.45593999997E+02  0.45594000000E+02  0.51100000000E-03 0. -1.
         11   -1    0    0    0    0 -0.00000000000E+00 -0.00000000000E+00 -0.45593999997E+02  0.45594000000E+02  0.51100000000E-03 0.  1.
    9900012    2    1    2    0    0  0.24949901815E+02 -0.12840542690E+02 -0.29424389007E+02  0.50528784494E+02  0.29999770946E+02 0.  0.
         12    1    1    2    0    0 -0.24949901815E+02  0.12840542690E+02  0.29424389007E+02  0.40659215506E+02  0.00000000000E+00 0. -1.
         11    1    3    3    0    0  0.90475915814E+01 -0.58378825525E+01 -0.39793490656E+01  0.11479329482E+02  0.51100000000E-03 0.  1.
        -11    1    3    3    0    0  0.17874744595E+01  0.48135542682E+01 -0.18784421174E+02  0.19473567951E+02  0.51100000000E-03 0. -1.
         12    1    3    3    0    0  0.14114835775E+02 -0.11816214406E+02 -0.66606187667E+01  0.19575887060E+02  0.00000000000E+00 0. -1.
</event>
<event>
 7    1  0.9472421E-014  0.5052886E+02  0.7816164E-02  0.1300439E+00
        -11   -1    0    0    0    0  0.00000000000E+00  0.00000000000E+00  0.45593999997E+02  0.45594000000E+02  0.51100000000E-03 0. -1.
         11   -1    0    0    0    0 -0.00000000000E+00 -0.00000000000E+00 -0.45593999997E+02  0.45594000000E+02  0.51100000000E-03 0.  1.
    9900012    2    1    2    0    0  0.22612031916E+02  0.18932382329E+02 -0.27989764083E+02  0.50528856115E+02  0.29999988648E+02 0.  0.
         12    1    1    2    0    0 -0.22612031916E+02 -0.18932382329E+02  0.27989764083E+02  0.40659143885E+02  0.00000000000E+00 0. -1.
         11    1    3    3    0    0  0.63500701076E+01  0.58084817491E+01 -0.22378988854E+02  0.23976676020E+02  0.51100000000E-03 0. -1.
        -11    1    3    3    0    0  0.15097739834E+02  0.83079892351E+01 -0.10007740386E+02  0.19927852396E+02  0.51100000000E-03 0.  1.
         12    1    3    3    0    0  0.11642219747E+01  0.48159113445E+01  0.43969651565E+01  0.66243276996E+01  0.00000000000E+00 0. -1.
</event>
<event>
 7    1  0.8697654E-014  0.5052886E+02  0.7816164E-02  0.1300439E+00
        -11   -1    0    0    0    0  0.00000000000E+00  0.00000000000E+00  0.45593999997E+02  0.45594000000E+02  0.51100000000E-03 0. -1.
         11   -1    0    0    0    0 -0.00000000000E+00 -0.00000000000E+00 -0.45593999997E+02  0.45594000000E+02  0.51100000000E-03 0.  1.
    9900012    2    1    2    0    0  0.32534956478E+02  0.19669154344E+02 -0.14414107741E+02  0.50528861696E+02  0.30000005612E+02 0.  0.
         12    1    1    2    0    0 -0.32534956478E+02 -0.19669154344E+02  0.14414107741E+02  0.40659138304E+02  0.00000000000E+00 0. -1.
         11    1    3    3    0    0  0.10619829182E+02 -0.51227006138E+00 -0.66891452192E+01  0.12561363640E+02  0.51100000000E-03 0. -1.
        -11    1    3    3    0    0 -0.30456440963E+00  0.13023937795E+02  0.95381358556E+00  0.13062368689E+02  0.51100000000E-03 0.  1.
         12    1    3    3    0    0  0.22219691706E+02  0.71574866107E+01 -0.86787761076E+01  0.24905129367E+02  0.00000000000E+00 0. -1.
</event>
<event>
 7    1  0.8697654E-014  0.5052885E+02  0.7816164E-02  0.1300439E+00
        -11   -1    0    0    0    0  0.00000000000E+00  0.00000000000E+00  0.45593999997E+02  0.45594000000E+02  0.51100000000E-03 0.  1.
         11   -1    0    0    0    0 -0.00000000000E+00 -0.00000000000E+00 -0.45593999997E+02  0.45594000000E+02  0.51100000000E-03 0. -1.
    9900012    2    1    2    0    0 -0.37382463779E+02  0.13042582156E+02 -0.92525208707E+01  0.50528847402E+02  0.29999962164E+02 0.  0.
         12    1    1    2    0    0  0.37382463779E+02 -0.13042582156E+02  0.92525208707E+01  0.40659152598E+02  0.00000000000E+00 0. -1.
         11    1    3    3    0    0 -0.16297114232E+02  0.11052836597E+02 -0.82090774120E+01  0.21334246679E+02  0.51100000000E-03 0. -1.
        -11    1    3    3    0    0 -0.21237699451E+02 -0.47452138423E+01 -0.34658359729E+01  0.22035629140E+02  0.51100000000E-03 0.  1.
         12    1    3    3    0    0  0.15234990339E+00  0.67349594018E+01  0.24223925142E+01  0.71589715832E+01  0.00000000000E+00 0. -1.
</event>
<event>
 7    1  0.8697654E-014  0.5052886E+02  0.7816164E-02  0.1300439E+00
        -11   -1    0    0    0    0  0.00000000000E+00  0.00000000000E+00  0.45593999997E+02  0.45594000000E+02  0.51100000000E-03 0.  1.
         11   -1    0    0    0    0 -0.00000000000E+00 -0.00000000000E+00 -0.45593999997E+02  0.45594000000E+02  0.51100000000E-03 0. -1.
    9900012    2    1    2    0    0  0.37404927222E+02  0.14191623738E+02  0.72549857901E+01  0.50528861008E+02  0.30000003519E+02 0.  0.
        -12    1    1    2    0    0 -0.37404927222E+02 -0.14191623738E+02 -0.72549857901E+01  0.40659138992E+02  0.00000000000E+00 0.  1.
         11    1    3    3    0    0  0.12471033137E+02  0.89875271921E+01 -0.90644169600E+00  0.15398829480E+02  0.51100000000E-03 0. -1.
        -11    1    3    3    0    0 -0.39782400837E+00  0.76492538001E+01  0.57280378618E+01  0.95645055098E+01  0.51100000000E-03 0.  1.
        -12    1    3    3    0    0  0.25331718093E+02 -0.24451572539E+01  0.24333896244E+01  0.25565526018E+02  0.00000000000E+00 0.  1.
</event>
<event>
 7    1  0.8697654E-014  0.5052885E+02  0.7816164E-02  0.1300439E+00
        -11   -1    0    0    0    0  0.00000000000E+00  0.00000000000E+00  0.45593999997E+02  0.45594000000E+02  0.51100000000E-03 0. -1.
         11   -1    0    0    0    0 -0.00000000000E+00 -0.00000000000E+00 -0.45593999997E+02  0.45594000000E+02  0.51100000000E-03 0.  1.
    9900012    2    1    2    0    0  0.27921988896E+02 -0.13794384316E+02  0.26138928803E+02  0.50528854639E+02  0.29999984159E+02 0.  0.
        -12    1    1    2    0    0 -0.27921988896E+02  0.13794384316E+02 -0.26138928803E+02  0.40659145361E+02  0.00000000000E+00 0.  1.
         11    1    3    3    0    0  0.14251582710E+02 -0.13355648615E+02  0.14304733390E+02  0.24209633564E+02  0.51100000000E-03 0. -1.
        -11    1    3    3    0    0  0.13657303595E+02 -0.48782151184E+01  0.91405882416E+00  0.14531153705E+02  0.51100000000E-03 0.  1.
         12    1    3    3    0    0  0.13102591373E-01  0.44394794181E+01  0.10920136589E+02  0.11788067370E+02  0.00000000000E+00 0. -1.
</event>
<event>
 7    1  0.8697654E-014  0.5052885E+02  0.7816164E-02  0.1300439E+00
        -11   -1    0    0    0    0  0.00000000000E+00  0.00000000000E+00  0.45593999997E+02  0.45594000000E+02  0.51100000000E-03 0. -1.
         11   -1    0    0    0    0 -0.00000000000E+00 -0.00000000000E+00 -0.45593999997E+02  0.45594000000E+02  0.51100000000E-03 0.  1.
    9900012    2    1    2    0    0  0.14119807953E+02 -0.13198521232E+02  0.35771447078E+02  0.50528851393E+02  0.29999974295E+02 0.  0.
        -12    1    1    2    0    0 -0.14119807953E+02  0.13198521232E+02 -0.35771447078E+02  0.40659148607E+02  0.00000000000E+00 0.  1.
         11    1    3    3    0    0 -0.26875315382E+01 -0.36923727028E+01  0.12357244476E+02  0.13174138805E+02  0.51100000000E-03 0. -1.
        -11    1    3    3    0    0  0.17455017699E+01 -0.11338204687E+02  0.28885240985E+01  0.11829845040E+02  0.51100000000E-03 0.  1.
        -12    1    3    3    0    0  0.15061837722E+02  0.18320561575E+01  0.20525678504E+02  0.25524867549E+02  0.00000000000E+00 0.  1.
</event>
<event>
 7    1  0.8697654E-014  0.5052884E+02  0.7816164E-02  0.1300439E+00
        -11   -1    0    0    0    0  0.00000000000E+00  0.00000000000E+00  0.45593999997E+02  0.45594000000E+02  0.51100000000E-03 0. -1.
         11   -1    0    0    0    0 -0.00000000000E+00 -0.00000000000E+00 -0.45593999997E+02  0.45594000000E+02  0.51100000000E-03 0.  1.
    9900012    2    1    2    0    0  0.47560756874E+01  0.17212027035E+02  0.36527975626E+02  0.50528841943E+02  0.29999945569E+02 0.  0.
        -12    1    1    2    0    0 -0.47560756874E+01 -0.17212027035E+02 -0.36527975626E+02  0.40659158057E+02  0.00000000000E+00 0.  1.
         11    1    3    3    0    0  0.40760614282E+01 -0.29072750365E+01  0.17738843557E+01  0.53116090663E+01  0.51100000000E-03 0. -1.
        -11    1    3    3    0    0  0.45960913569E+01 -0.27943887455E+01  0.93176276646E+01  0.10758756888E+02  0.51100000000E-03 0.  1.
        -12    1    3    3    0    0 -0.39160770977E+01  0.22913690817E+02  0.25436463606E+02  0.34458475988E+02  0.00000000000E+00 0.  1.
</event>
<event>
 7    1  0.8697654E-014  0.5052884E+02  0.7816164E-02  0.1300439E+00
        -11   -1    0    0    0    0  0.00000000000E+00  0.00000000000E+00  0.45593999997E+02  0.45594000000E+02  0.51100000000E-03 0. -1.
         11   -1    0    0    0    0 -0.00000000000E+00 -0.00000000000E+00 -0.45593999997E+02  0.45594000000E+02  0.51100000000E-03 0.  1.
    9900012    2    1    2    0    0 -0.12104994611E+02 -0.12158889291E+02  0.36861875833E+02  0.50528839000E+02  0.29999936625E+02 0.  0.
        -12    1    1    2    0    0  0.12104994611E+02  0.12158889291E+02 -0.36861875833E+02  0.40659161000E+02  0.00000000000E+00 0.  1.
         11    1    3    3    0    0 -0.10668616099E+02 -0.61252042997E-01  0.58635285506E+01  0.12173910161E+02  0.51100000000E-03 0. -1.
        -11    1    3    3    0    0 -0.27019812473E+01 -0.94216035246E+01  0.30711539969E+01  0.10271285351E+02  0.51100000000E-03 0.  1.
        -12    1    3    3    0    0  0.12656027349E+01 -0.26760337230E+01  0.27927193285E+02  0.28083643488E+02  0.00000000000E+00 0.  1.
</event>
<event>
 7    1  0.8697654E-014  0.5052886E+02  0.7816164E-02  0.1300439E+00
        -11   -1    0    0    0    0  0.00000000000E+00  0.00000000000E+00  0.45593999997E+02  0.45594000000E+02  0.51100000000E-03 0. -1.
         11   -1    0    0    0    0 -0.00000000000E+00 -0.00000000000E+00 -0.45593999997E+02  0.45594000000E+02  0.51100000000E-03 0.  1.
    9900012    2    1    2    0    0 -0.26273033050E+02  0.10768196080E+02  0.29102223900E+02  0.50528858981E+02  0.29999997360E+02 0.  0.
        -12    1    1    2    0    0  0.26273033050E+02 -0.10768196080E+02 -0.29102223900E+02  0.40659141019E+02  0.00000000000E+00 0.  1.
         11    1    3    3    0    0 -0.26880972691E+02  0.99046256039E+01  0.26351811472E+02  0.38924366010E+02  0.51100000000E-03 0. -1.
        -11    1    3    3    0    0 -0.48510188839E+01  0.41612030848E+00 -0.99451358864E+00  0.49693659416E+01  0.51100000000E-03 0.  1.
        -12    1    3    3    0    0  0.54589585250E+01  0.44745016737E+00  0.37449260166E+01  0.66351270297E+01  0.00000000000E+00 0.  1.
</event>
<event>
 7    1  0.8697654E-014  0.5052885E+02  0.7816164E-02  0.1300439E+00
        -11   -1    0    0    0    0  0.00000000000E+00  0.00000000000E+00  0.45593999997E+02  0.45594000000E+02  0.51100000000E-03 0. -1.
         11   -1    0    0    0    0 -0.00000000000E+00 -0.00000000000E+00 -0.45593999997E+02  0.45594000000E+02  0.51100000000E-03 0.  1.
    9900012    2    1    2    0    0  0.10987334931E+02  0.29687496877E+02  0.25516616827E+02  0.50528846861E+02  0.29999960518E+02 0.  0.
        -12    1    1    2    0    0 -0.10987334931E+02 -0.29687496877E+02 -0.25516616827E+02  0.40659153139E+02  0.00000000000E+00 0.  1.
         11    1    3    3    0    0  0.56315407691E+01  0.15156967212E+02  0.19632425829E+02  0.25433836728E+02  0.51100000000E-03 0. -1.
        -11    1    3    3    0    0 -0.87144869140E+00  0.15844662196E+02  0.87433132252E+01  0.18117899142E+02  0.51100000000E-03 0.  1.
        -12    1    3    3    0    0  0.62272428532E+01 -0.13141325314E+01 -0.28591222272E+01  0.69771109904E+01  0.00000000000E+00 0.  1.
</event>
<event>
 7    1  0.9332375E-014  0.5052886E+02  0.7816164E-02  0.1300439E+00
        -11   -1    0    0    0    0  0.00000000000E+00  0.00000000000E+00  0.45593999997E+02  0.45594000000E+02  0.51100000000E-03 0. -1.
         11   -1    0    0    0    0 -0.00000000000E+00 -0.00000000000E+00 -0.45593999997E+02  0.45594000000E+02  0.51100000000E-03 0.  1.
    9900012    2    1    2    0    0  0.66321491886E+01 -0.19135152759E+02 -0.35256578506E+02  0.50528858323E+02  0.29999995358E+02 0.  0.
         12    1    1    2    0    0 -0.66321491886E+01  0.19135152759E+02  0.35256578506E+02  0.40659141677E+02  0.00000000000E+00 0. -1.
         11    1    3    3    0    0 -0.53457291962E+01 -0.68815807850E+01 -0.80632759778E+01  0.11872211020E+02  0.51100000000E-03 0. -1.
        -11    1    3    3    0    0  0.47388939687E+01 -0.13122147289E+02 -0.28037611755E+02  0.31317016759E+02  0.51100000000E-03 0.  1.
         12    1    3    3    0    0  0.72389844161E+01  0.86857531503E+00  0.84430922657E+00  0.73396305441E+01  0.00000000000E+00 0. -1.
</event>
<event>
 7    1  0.8697654E-014  0.5052885E+02  0.7816164E-02  0.1300439E+00
        -11   -1    0    0    0    0  0.00000000000E+00  0.00000000000E+00  0.45593999997E+02  0.45594000000E+02  0.51100000000E-03 0. -1.
         11   -1    0    0    0    0 -0.00000000000E+00 -0.00000000000E+00 -0.45593999997E+02  0.45594000000E+02  0.51100000000E-03 0.  1.
    9900012    2    1    2    0    0 -0.13543620920E+01  0.24322665002E+02 -0.32553649667E+02  0.50528850524E+02  0.29999971653E+02 0.  0.
         12    1    1    2    0    0  0.13543620920E+01 -0.24322665002E+02  0.32553649667E+02  0.40659149476E+02  0.00000000000E+00 0. -1.
         11    1    3    3    0    0  0.32779653812E+01  0.13524273276E+02 -0.14883791126E+02  0.20375923616E+02  0.51100000000E-03 0. -1.
        -11    1    3    3    0    0  0.25694160290E+00  0.14166729045E+02 -0.32192573121E+01  0.14530170292E+02  0.51100000000E-03 0.  1.
         12    1    3    3    0    0 -0.48892690760E+01 -0.33683373187E+01 -0.14450601229E+02  0.15622756616E+02  0.00000000000E+00 0. -1.
</event>
<event>
 7    1  0.8697654E-014  0.5052885E+02  0.7816164E-02  0.1300439E+00
        -11   -1    0    0    0    0  0.00000000000E+00  0.00000000000E+00  0.45593999997E+02  0.45594000000E+02  0.51100000000E-03 0.  1.
         11   -1    0    0    0    0 -0.00000000000E+00 -0.00000000000E+00 -0.45593999997E+02  0.45594000000E+02  0.51100000000E-03 0. -1.
    9900012    2    1    2    0    0 -0.93517616560E+01  0.39275326634E+02 -0.48124731028E+01  0.50528848193E+02  0.29999964568E+02 0.  0.
         12    1    1    2    0    0  0.93517616560E+01 -0.39275326634E+02  0.48124731028E+01  0.40659151807E+02  0.00000000000E+00 0. -1.
         11    1    3    3    0    0  0.44699755012E+01  0.18078528343E+02 -0.73951592979E+01  0.20037521037E+02  0.51100000000E-03 0. -1.
        -11    1    3    3    0    0  0.21494811905E+01  0.34087065574E+01  0.50472268559E+01  0.64586414190E+01  0.51100000000E-03 0.  1.
        -12    1    3    3    0    0 -0.15971218348E+02  0.17788091734E+02 -0.24645406608E+01  0.24032685737E+02  0.00000000000E+00 0.  1.
</event>
<event>
 7    1  0.8697654E-014  0.5052885E+02  0.7816164E-02  0.1300439E+00
        -11   -1    0    0    0    0  0.00000000000E+00  0.00000000000E+00  0.45593999997E+02  0.45594000000E+02  0.51100000000E-03 0.  1.
         11   -1    0    0    0    0 -0.00000000000E+00 -0.00000000000E+00 -0.45593999997E+02  0.45594000000E+02  0.51100000000E-03 0. -1.
    9900012    2    1    2    0    0  0.38479924385E+02 -0.11856129936E+02  0.56474742971E+01  0.50528851414E+02  0.29999974359E+02 0.  0.
         12    1    1    2    0    0 -0.38479924385E+02  0.11856129936E+02 -0.56474742971E+01  0.40659148586E+02  0.00000000000E+00 0. -1.
         11    1    3    3    0    0  0.22122134296E+02 -0.66119453643E+01  0.33145445296E+01  0.23325798014E+02  0.51100000000E-03 0.  1.
        -11    1    3    3    0    0  0.18001127504E+02 -0.10870991704E+02  0.32211328340E+01  0.21274274348E+02  0.51100000000E-03 0. -1.
         12    1    3    3    0    0 -0.16433374140E+01  0.56268071326E+01 -0.88820306645E+00  0.59287790523E+01  0.00000000000E+00 0. -1.
</event>
<event>
 7    1  0.8697654E-014  0.5052886E+02  0.7816164E-02  0.1300439E+00
        -11   -1    0    0    0    0  0.00000000000E+00  0.00000000000E+00  0.45593999997E+02  0.45594000000E+02  0.51100000000E-03 0. -1.
         11   -1    0    0    0    0 -0.00000000000E+00 -0.00000000000E+00 -0.45593999997E+02  0.45594000000E+02  0.51100000000E-03 0.  1.
    9900012    2    1    2    0    0 -0.32734309137E+02 -0.11243607429E+01  0.24090798212E+02  0.50528859081E+02  0.29999997664E+02 0.  0.
        -12    1    1    2    0    0  0.32734309137E+02  0.11243607429E+01 -0.24090798212E+02  0.40659140919E+02  0.00000000000E+00 0.  1.
         11    1    3    3    0    0  0.85678065431E+00 -0.78828193035E+00  0.55724468683E+01  0.56927696117E+01  0.51100000000E-03 0. -1.
        -11    1    3    3    0    0 -0.14494172169E+02 -0.10674662798E+02  0.32549658284E+01  0.18292737781E+02  0.51100000000E-03 0.  1.
        -12    1    3    3    0    0 -0.19096917622E+02  0.10338583985E+02  0.15263385515E+02  0.26543351689E+02  0.00000000000E+00 0.  1.
</event>
<event>
 7    1  0.8697654E-014  0.5052886E+02  0.7816164E-02  0.1300439E+00
        -11   -1    0    0    0    0  0.00000000000E+00  0.00000000000E+00  0.45593999997E+02  0.45594000000E+02  0.51100000000E-03 0. -1.
         11   -1    0    0    0    0 -0.00000000000E+00 -0.00000000000E+00 -0.45593999997E+02  0.45594000000E+02  0.51100000000E-03 0.  1.
    9900012    2    1    2    0    0 -0.18503096754E+02 -0.20115949656E+01  0.36149063218E+02  0.50528857420E+02  0.29999992614E+02 0.  0.
        -12    1    1    2    0    0  0.18503096754E+02  0.20115949656E+01 -0.36149063218E+02  0.40659142580E+02  0.00000000000E+00 0.  1.
         11    1    3    3    0    0  0.34671916874E+01  0.14389186141E+01 -0.14369427611E+00  0.37566678429E+01  0.51100000000E-03 0.  1.
        -11    1    3    3    0    0 -0.63309147463E+01  0.77542473064E+01  0.96085339586E+01  0.13875617388E+02  0.51100000000E-03 0. -1.
         12    1    3    3    0    0 -0.15639373695E+02 -0.11204760886E+02  0.26684223536E+02  0.32896572189E+02  0.00000000000E+00 0. -1.
</event>
<event>
 7    1  0.8697654E-014  0.5052888E+02  0.7816164E-02  0.1300439E+00
        -11   -1    0    0    0    0  0.00000000000E+00  0.00000000000E+00  0.45593999997E+02  0.45594000000E+02  0.51100000000E-03 0. -1.
         11   -1    0    0    0    0 -0.00000000000E+00 -0.00000000000E+00 -0.45593999997E+02  0.45594000000E+02  0.51100000000E-03 0.  1.
    9900012    2    1    2    0    0  0.14524055741E+02 -0.36044592249E+02 -0.11958401958E+02  0.50528877986E+02  0.30000055126E+02 0.  0.
         12    1    1    2    0    0 -0.14524055741E+02  0.36044592249E+02  0.11958401958E+02  0.40659122014E+02  0.00000000000E+00 0. -1.
         11    1    3    3    0    0  0.45014628738E+01 -0.37643452420E+02 -0.52081868357E+01  0.38267713395E+02  0.51100000000E-03 0. -1.
        -11    1    3    3    0    0  0.90661915862E+00  0.23541324787E+00 -0.11208569925E+01  0.14607184379E+01  0.51100000000E-03 0.  1.
         12    1    3    3    0    0  0.91159737081E+01  0.13634469228E+01 -0.56293581295E+01  0.10800446153E+02  0.00000000000E+00 0. -1.
</event>
<event>
 7    1  0.8697654E-014  0.5052888E+02  0.7816164E-02  0.1300439E+00
        -11   -1    0    0    0    0  0.00000000000E+00  0.00000000000E+00  0.45593999997E+02  0.45594000000E+02  0.51100000000E-03 0. -1.
         11   -1    0    0    0    0 -0.00000000000E+00 -0.00000000000E+00 -0.45593999997E+02  0.45594000000E+02  0.51100000000E-03 0.  1.
    9900012    2    1    2    0    0  0.89862670563E+01  0.29128518078E+02 -0.26906139080E+02  0.50528881943E+02  0.30000067152E+02 0.  0.
         12    1    1    2    0    0 -0.89862670563E+01 -0.29128518078E+02  0.26906139080E+02  0.40659118057E+02  0.00000000000E+00 0. -1.
         11    1    3    3    0    0  0.18582326417E+02  0.15267847980E+02 -0.11420730583E+02  0.26624107953E+02  0.51100000000E-03 0. -1.
        -11    1    3    3    0    0  0.61809165037E-01  0.20791217259E+01 -0.49873750868E+01  0.54037466670E+01  0.51100000000E-03 0.  1.
         12    1    3    3    0    0 -0.96578685255E+01  0.11781548372E+02 -0.10498033410E+02  0.18501027322E+02  0.00000000000E+00 0. -1.
</event>
<event>
 7    1  0.8697654E-014  0.5052886E+02  0.7816164E-02  0.1300439E+00
        -11   -1    0    0    0    0  0.00000000000E+00  0.00000000000E+00  0.45593999997E+02  0.45594000000E+02  0.51100000000E-03 0. -1.
         11   -1    0    0    0    0 -0.00000000000E+00 -0.00000000000E+00 -0.45593999997E+02  0.45594000000E+02  0.51100000000E-03 0.  1.
    9900012    2    1    2    0    0  0.58234804289E+01  0.10475928207E+02  0.38852379681E+02  0.50528863229E+02  0.30000010271E+02 0.  0.
        -12    1    1    2    0    0 -0.58234804289E+01 -0.10475928207E+02 -0.38852379681E+02  0.40659136771E+02  0.00000000000E+00 0.  1.
         11    1    3    3    0    0 -0.29789897456E+01  0.29601164851E+01  0.12655700120E+02  0.13334294706E+02  0.51100000000E-03 0. -1.
        -11    1    3    3    0    0  0.12127333279E+02  0.76086143126E+01  0.29322047937E+02  0.32630441611E+02  0.51100000000E-03 0.  1.
        -12    1    3    3    0    0 -0.33248631046E+01 -0.92802590996E-01 -0.31253683766E+01  0.45641269126E+01  0.00000000000E+00 0.  1.
</event>
<event>
 7    1  0.8697654E-014  0.5052886E+02  0.7816164E-02  0.1300439E+00
        -11   -1    0    0    0    0  0.00000000000E+00  0.00000000000E+00  0.45593999997E+02  0.45594000000E+02  0.51100000000E-03 0. -1.
         11   -1    0    0    0    0 -0.00000000000E+00 -0.00000000000E+00 -0.45593999997E+02  0.45594000000E+02  0.51100000000E-03 0.  1.
    9900012    2    1    2    0    0 -0.37792896744E+02 -0.13737419701E+02  0.60121568587E+01  0.50528858661E+02  0.29999996387E+02 0.  0.
        -12    1    1    2    0    0  0.37792896744E+02  0.13737419701E+02 -0.60121568587E+01  0.40659141339E+02  0.00000000000E+00 0.  1.
         11    1    3    3    0    0 -0.33242573918E+02 -0.18124889732E+02  0.29204897842E+01  0.37975118293E+02  0.51100000000E-03 0. -1.
        -11    1    3    3    0    0 -0.67649928312E+00  0.14613955494E+01 -0.37980890047E+01  0.41253858705E+01  0.51100000000E-03 0.  1.
        -12    1    3    3    0    0 -0.38738235423E+01  0.29260744821E+01  0.68897560793E+01  0.84283544980E+01  0.00000000000E+00 0.  1.
</event>
<event>
 7    1  0.8697654E-014  0.5052888E+02  0.7816164E-02  0.1300439E+00
        -11   -1    0    0    0    0  0.00000000000E+00  0.00000000000E+00  0.45593999997E+02  0.45594000000E+02  0.51100000000E-03 0. -1.
         11   -1    0    0    0    0 -0.00000000000E+00 -0.00000000000E+00 -0.45593999997E+02  0.45594000000E+02  0.51100000000E-03 0.  1.
    9900012    2    1    2    0    0  0.12369350701E+02 -0.10074039266E+02 -0.37398891360E+02  0.50528878282E+02  0.30000056027E+02 0.  0.
         12    1    1    2    0    0 -0.12369350701E+02  0.10074039266E+02  0.37398891360E+02  0.40659121718E+02  0.00000000000E+00 0. -1.
         11    1    3    3    0    0  0.14772161731E+01  0.15144959165E+01  0.15496712129E+01  0.26224695675E+01  0.51100000000E-03 0. -1.
        -11    1    3    3    0    0  0.12070338328E+01 -0.15776199448E+02 -0.15296698773E+02  0.22007598536E+02  0.51100000000E-03 0.  1.
        -12    1    3    3    0    0  0.96851006949E+01  0.41876642663E+01 -0.23651863800E+02  0.25898810179E+02  0.00000000000E+00 0.  1.
</event>
<event>
 7    1  0.8697654E-014  0.5052888E+02  0.7816164E-02  0.1300439E+00
        -11   -1    0    0    0    0  0.00000000000E+00  0.00000000000E+00  0.45593999997E+02  0.45594000000E+02  0.51100000000E-03 0. -1.
         11   -1    0    0    0    0 -0.00000000000E+00 -0.00000000000E+00 -0.45593999997E+02  0.45594000000E+02  0.51100000000E-03 0.  1.
    9900012    2    1    2    0    0  0.45535959858E+01 -0.22601398231E+02 -0.33490385711E+02  0.50528875889E+02  0.30000048752E+02 0.  0.
         12    1    1    2    0    0 -0.45535959858E+01  0.22601398231E+02  0.33490385711E+02  0.40659124111E+02  0.00000000000E+00 0. -1.
         11    1    3    3    0    0 -0.45449526097E+01 -0.14198134046E+01 -0.26752948623E+01  0.54616542540E+01  0.51100000000E-03 0. -1.
        -11    1    3    3    0    0  0.14309466760E+02 -0.53904449236E+01 -0.20216605343E+02  0.25348153134E+02  0.51100000000E-03 0.  1.
         12    1    3    3    0    0 -0.52109181645E+01 -0.15791139903E+02 -0.10598485506E+02  0.19719068501E+02  0.00000000000E+00 0. -1.
</event>
<event>
 7    1  0.8697654E-014  0.5052886E+02  0.7816164E-02  0.1300439E+00
        -11   -1    0    0    0    0  0.00000000000E+00  0.00000000000E+00  0.45593999997E+02  0.45594000000E+02  0.51100000000E-03 0. -1.
         11   -1    0    0    0    0 -0.00000000000E+00 -0.00000000000E+00 -0.45593999997E+02  0.45594000000E+02  0.51100000000E-03 0.  1.
    9900012    2    1    2    0    0 -0.16960352529E+02  0.24536418469E+02  0.27631072774E+02  0.50528861153E+02  0.30000003959E+02 0.  0.
        -12    1    1    2    0    0  0.16960352529E+02 -0.24536418469E+02 -0.27631072774E+02  0.40659138847E+02  0.00000000000E+00 0.  1.
         11    1    3    3    0    0 -0.50149365127E+01  0.11584433819E+02  0.19384106720E+02  0.23132061922E+02  0.51100000000E-03 0. -1.
        -11    1    3    3    0    0  0.40338561655E+01  0.86957010939E+01  0.32542824179E+01  0.10123120438E+02  0.51100000000E-03 0.  1.
        -12    1    3    3    0    0 -0.15979272182E+02  0.42562835558E+01  0.49926836352E+01  0.17273678793E+02  0.00000000000E+00 0.  1.
</event>
<event>
 7    1  0.8697654E-014  0.5052886E+02  0.7816164E-02  0.1300439E+00
        -11   -1    0    0    0    0  0.00000000000E+00  0.00000000000E+00  0.45593999997E+02  0.45594000000E+02  0.51100000000E-03 0.  1.
         11   -1    0    0    0    0 -0.00000000000E+00 -0.00000000000E+00 -0.45593999997E+02  0.45594000000E+02  0.51100000000E-03 0. -1.
    9900012    2    1    2    0    0 -0.34276880594E+02  0.20229589420E+02 -0.83081077357E+01  0.50528862214E+02  0.30000007186E+02 0.  0.
         12    1    1    2    0    0  0.34276880594E+02 -0.20229589420E+02  0.83081077357E+01  0.40659137786E+02  0.00000000000E+00 0. -1.
         11    1    3    3    0    0 -0.19773852821E+02  0.27686970560E+01  0.64230841650E+01  0.20974435611E+02  0.51100000000E-03 0.  1.
        -11    1    3    3    0    0  0.37715158379E+00  0.71239531637E+01 -0.19951491023E+01  0.74076698224E+01  0.51100000000E-03 0. -1.
        -12    1    3    3    0    0 -0.14880179357E+02  0.10336939200E+02 -0.12736042798E+02  0.22146756780E+02  0.00000000000E+00 0.  1.
</event>
<event>
 7    1  0.8697654E-014  0.5052887E+02  0.7816164E-02  0.1300439E+00
        -11   -1    0    0    0    0  0.00000000000E+00  0.00000000000E+00  0.45593999997E+02  0.45594000000E+02  0.51100000000E-03 0. -1.
         11   -1    0    0    0    0 -0.00000000000E+00 -0.00000000000E+00 -0.45593999997E+02  0.45594000000E+02  0.51100000000E-03 0.  1.
    9900012    2    1    2    0    0  0.12052401506E+02  0.85030308528E+00 -0.38822437859E+02  0.50528867217E+02  0.30000022392E+02 0.  0.
         12    1    1    2    0    0 -0.12052401506E+02 -0.85030308528E+00  0.38822437859E+02  0.40659132783E+02  0.00000000000E+00 0. -1.
         11    1    3    3    0    0  0.16973562989E+02  0.12561875330E+01 -0.19271143700E+02  0.25711025406E+02  0.51100000000E-03 0. -1.
        -11    1    3    3    0    0  0.34355648697E+01 -0.46745328707E+01 -0.88860468610E+01  0.10612077676E+02  0.51100000000E-03 0.  1.
         12    1    3    3    0    0 -0.83567263534E+01  0.42686484230E+01 -0.10665247298E+02  0.14205764134E+02  0.00000000000E+00 0. -1.
</event>
<event>
 7    1  0.8697654E-014  0.5052886E+02  0.7816164E-02  0.1300439E+00
        -11   -1    0    0    0    0  0.00000000000E+00  0.00000000000E+00  0.45593999997E+02  0.45594000000E+02  0.51100000000E-03 0. -1.
         11   -1    0    0    0    0 -0.00000000000E+00 -0.00000000000E+00 -0.45593999997E+02  0.45594000000E+02  0.51100000000E-03 0.  1.
    9900012    2    1    2    0    0  0.92306159909E+01 -0.24444150611E+01  0.39521969322E+02  0.50528862089E+02  0.30000006806E+02 0.  0.
        -12    1    1    2    0    0 -0.92306159909E+01  0.24444150611E+01 -0.39521969322E+02  0.40659137911E+02  0.00000000000E+00 0.  1.
         11    1    3    3    0    0 -0.22161433184E+01 -0.62853050257E+01  0.23386967823E+02  0.24318030649E+02  0.51100000000E-03 0. -1.
        -11    1    3    3    0    0  0.37158622437E+01 -0.65428675322E+01  0.42762285229E+01  0.86546449031E+01  0.51100000000E-03 0.  1.
        -12    1    3    3    0    0  0.77308970657E+01  0.10383757497E+02  0.11858772977E+02  0.17556186536E+02  0.00000000000E+00 0.  1.
</event>
<event>
 7    1  0.8697654E-014  0.5052888E+02  0.7816164E-02  0.1300439E+00
        -11   -1    0    0    0    0  0.00000000000E+00  0.00000000000E+00  0.45593999997E+02  0.45594000000E+02  0.51100000000E-03 0. -1.
         11   -1    0    0    0    0 -0.00000000000E+00 -0.00000000000E+00 -0.45593999997E+02  0.45594000000E+02  0.51100000000E-03 0.  1.
    9900012    2    1    2    0    0  0.57975590160E+01  0.82334511037E+01 -0.39392419246E+02  0.50528879231E+02  0.30000058911E+02 0.  0.
         12    1    1    2    0    0 -0.57975590160E+01 -0.82334511037E+01  0.39392419246E+02  0.40659120769E+02  0.00000000000E+00 0. -1.
         11    1    3    3    0    0 -0.26142557939E+01 -0.30744392699E+01  0.14075578633E+01  0.42740764593E+01  0.51100000000E-03 0. -1.
        -11    1    3    3    0    0 -0.23222793166E+00 -0.37263292672E+01 -0.12670778049E+02  0.13209393485E+02  0.51100000000E-03 0.  1.
         12    1    3    3    0    0  0.86440427416E+01  0.15034219641E+02 -0.28129199061E+02  0.33045409287E+02  0.00000000000E+00 0. -1.
</event>
<event>
 7    1  0.8697654E-014  0.5052887E+02  0.7816164E-02  0.1300439E+00
        -11   -1    0    0    0    0  0.00000000000E+00  0.00000000000E+00  0.45593999997E+02  0.45594000000E+02  0.51100000000E-03 0. -1.
         11   -1    0    0    0    0 -0.00000000000E+00 -0.00000000000E+00 -0.45593999997E+02  0.45594000000E+02  0.51100000000E-03 0.  1.
    9900012    2    1    2    0    0 -0.12389074625E+02  0.11460362040E+02  0.36991027684E+02  0.50528865759E+02  0.30000017960E+02 0.  0.
        -12    1    1    2    0    0  0.12389074625E+02 -0.11460362040E+02 -0.36991027684E+02  0.40659134241E+02  0.00000000000E+00 0.  1.
         11    1    3    3    0    0 -0.15841999754E+02 -0.39786473504E+01  0.27383634595E+02  0.31885138150E+02  0.51100000000E-03 0. -1.
        -11    1    3    3    0    0 -0.29320244288E-01  0.36504336681E+01  0.27300270657E+01  0.45584617671E+01  0.51100000000E-03 0.  1.
         12    1    3    3    0    0  0.34822453739E+01  0.11788575722E+02  0.68773660231E+01  0.14085265841E+02  0.00000000000E+00 0. -1.
</event>
<event>
 7    1  0.8697654E-014  0.5052886E+02  0.7816164E-02  0.1300439E+00
        -11   -1    0    0    0    0  0.00000000000E+00  0.00000000000E+00  0.45593999997E+02  0.45594000000E+02  0.51100000000E-03 0. -1.
         11   -1    0    0    0    0 -0.00000000000E+00 -0.00000000000E+00 -0.45593999997E+02  0.45594000000E+02  0.51100000000E-03 0.  1.
    9900012    2    1    2    0    0 -0.22030525288E+02 -0.88734305732E+01 -0.33001267170E+02  0.50528862658E+02  0.30000008534E+02 0.  0.
         12    1    1    2    0    0  0.22030525288E+02  0.88734305732E+01  0.33001267170E+02  0.40659137342E+02  0.00000000000E+00 0. -1.
         11    1    3    3    0    0 -0.73559275014E+01 -0.15783412018E+02 -0.13226266866E+02  0.21866867626E+02  0.51100000000E-03 0. -1.
        -11    1    3    3    0    0 -0.13889760056E+01  0.71867190882E+01 -0.54743097494E+01  0.91403639474E+01  0.51100000000E-03 0.  1.
        -12    1    3    3    0    0 -0.13285621781E+02 -0.27673764357E+00 -0.14300690555E+02  0.19521631084E+02  0.00000000000E+00 0.  1.
</event>
<event>
 7    1  0.1608408E-013  0.5052886E+02  0.7816164E-02  0.1300439E+00
        -11   -1    0    0    0    0  0.00000000000E+00  0.00000000000E+00  0.45593999997E+02  0.45594000000E+02  0.51100000000E-03 0. -1.
         11   -1    0    0    0    0 -0.00000000000E+00 -0.00000000000E+00 -0.45593999997E+02  0.45594000000E+02  0.51100000000E-03 0.  1.
    9900012    2    1    2    0    0 -0.10758981144E+02 -0.37746402374E+02 -0.10612207114E+02  0.50528861946E+02  0.30000006370E+02 0.  0.
         12    1    1    2    0    0  0.10758981144E+02  0.37746402374E+02  0.10612207114E+02  0.40659138054E+02  0.00000000000E+00 0. -1.
         11    1    3    3    0    0 -0.91795260189E+01 -0.18224976394E+02 -0.12208181745E+02  0.23779259120E+02  0.51100000000E-03 0. -1.
        -11    1    3    3    0    0  0.13070896416E+01 -0.21082300234E+02 -0.27530543236E+01  0.21301435981E+02  0.51100000000E-03 0.  1.
         12    1    3    3    0    0 -0.28865447670E+01  0.15608742531E+01  0.43490289548E+01  0.54481668454E+01  0.00000000000E+00 0. -1.
</event>
<event>
 7    1  0.8697654E-014  0.5052887E+02  0.7816164E-02  0.1300439E+00
        -11   -1    0    0    0    0  0.00000000000E+00  0.00000000000E+00  0.45593999997E+02  0.45594000000E+02  0.51100000000E-03 0. -1.
         11   -1    0    0    0    0 -0.00000000000E+00 -0.00000000000E+00 -0.45593999997E+02  0.45594000000E+02  0.51100000000E-03 0.  1.
    9900012    2    1    2    0    0  0.13656930844E+02 -0.12638407578E+02 -0.36151404879E+02  0.50528865959E+02  0.30000018570E+02 0.  0.
         12    1    1    2    0    0 -0.13656930844E+02  0.12638407578E+02  0.36151404879E+02  0.40659134041E+02  0.00000000000E+00 0. -1.
         11    1    3    3    0    0  0.18905567613E+01 -0.17352524120E+02 -0.19675399836E+02  0.26302198714E+02  0.51100000000E-03 0. -1.
        -11    1    3    3    0    0  0.73199013535E+00 -0.32636326308E+01 -0.66222173421E+01  0.74189534500E+01  0.51100000000E-03 0.  1.
         12    1    3    3    0    0  0.11034383947E+02  0.79777491733E+01 -0.98537877010E+01  0.16807713795E+02  0.00000000000E+00 0. -1.
</event>
<event>
 7    1  0.8697654E-014  0.5052886E+02  0.7816164E-02  0.1300439E+00
        -11   -1    0    0    0    0  0.00000000000E+00  0.00000000000E+00  0.45593999997E+02  0.45594000000E+02  0.51100000000E-03 0. -1.
         11   -1    0    0    0    0 -0.00000000000E+00 -0.00000000000E+00 -0.45593999997E+02  0.45594000000E+02  0.51100000000E-03 0.  1.
    9900012    2    1    2    0    0 -0.18957174424E+01 -0.14837765399E+02 -0.37807573864E+02  0.50528859968E+02  0.30000000358E+02 0.  0.
         12    1    1    2    0    0  0.18957174424E+01  0.14837765399E+02  0.37807573864E+02  0.40659140032E+02  0.00000000000E+00 0. -1.
         11    1    3    3    0    0 -0.21836395882E+01 -0.74678203881E+01  0.22588165402E+01  0.81017822499E+01  0.51100000000E-03 0. -1.
        -11    1    3    3    0    0  0.37910646993E+01 -0.40840998848E+01 -0.66896137160E+01  0.87064904154E+01  0.51100000000E-03 0.  1.
         12    1    3    3    0    0 -0.35031425534E+01 -0.32858451265E+01 -0.33376776688E+02  0.33720587303E+02  0.00000000000E+00 0. -1.
</event>
<event>
 7    1  0.8697654E-014  0.5052884E+02  0.7816164E-02  0.1300439E+00
        -11   -1    0    0    0    0  0.00000000000E+00  0.00000000000E+00  0.45593999997E+02  0.45594000000E+02  0.51100000000E-03 0. -1.
         11   -1    0    0    0    0 -0.00000000000E+00 -0.00000000000E+00 -0.45593999997E+02  0.45594000000E+02  0.51100000000E-03 0.  1.
    9900012    2    1    2    0    0  0.17536767015E+02  0.69244771127E+01 -0.36023334594E+02  0.50528840935E+02  0.29999942506E+02 0.  0.
         12    1    1    2    0    0 -0.17536767015E+02 -0.69244771127E+01  0.36023334594E+02  0.40659159065E+02  0.00000000000E+00 0. -1.
         11    1    3    3    0    0  0.24023021955E+00 -0.36307362382E+01 -0.18062527904E+02  0.18425386583E+02  0.51100000000E-03 0. -1.
        -11    1    3    3    0    0  0.41589414834E+00  0.20413794919E+01 -0.12145933870E+02  0.12323307511E+02  0.51100000000E-03 0.  1.
        -12    1    3    3    0    0  0.16880642647E+02  0.85138338590E+01 -0.58148728202E+01  0.19780146842E+02  0.00000000000E+00 0.  1.
</event>
<event>
 7    1  0.8697654E-014  0.5052886E+02  0.7816164E-02  0.1300439E+00
        -11   -1    0    0    0    0  0.00000000000E+00  0.00000000000E+00  0.45593999997E+02  0.45594000000E+02  0.51100000000E-03 0. -1.
         11   -1    0    0    0    0 -0.00000000000E+00 -0.00000000000E+00 -0.45593999997E+02  0.45594000000E+02  0.51100000000E-03 0.  1.
    9900012    2    1    2    0    0 -0.34935822275E+01 -0.22611643041E+00 -0.40508137599E+02  0.50528862562E+02  0.30000008244E+02 0.  0.
         12    1    1    2    0    0  0.34935822275E+01  0.22611643041E+00  0.40508137599E+02  0.40659137438E+02  0.00000000000E+00 0. -1.
         11    1    3    3    0    0  0.19831033792E+01  0.65318865250E+01 -0.72411498152E+01  0.99515069962E+01  0.51100000000E-03 0. -1.
        -11    1    3    3    0    0 -0.26374918683E+00 -0.18478726353E+01 -0.33363242610E+02  0.33415417918E+02  0.51100000000E-03 0.  1.
        -12    1    3    3    0    0 -0.52129364198E+01 -0.49101303202E+01  0.96254826190E-01  0.71619376477E+01  0.00000000000E+00 0.  1.
</event>
<event>
 7    1  0.8697654E-014  0.5052886E+02  0.7816164E-02  0.1300439E+00
        -11   -1    0    0    0    0  0.00000000000E+00  0.00000000000E+00  0.45593999997E+02  0.45594000000E+02  0.51100000000E-03 0.  1.
         11   -1    0    0    0    0 -0.00000000000E+00 -0.00000000000E+00 -0.45593999997E+02  0.45594000000E+02  0.51100000000E-03 0. -1.
    9900012    2    1    2    0    0  0.10124368111E+02 -0.31892277084E+02  0.23098612129E+02  0.50528855278E+02  0.29999986103E+02 0.  0.
        -12    1    1    2    0    0 -0.10124368111E+02  0.31892277084E+02 -0.23098612129E+02  0.40659144722E+02  0.00000000000E+00 0.  1.
         11    1    3    3    0    0 -0.66938998364E+01 -0.52261467266E+01  0.10528740692E+02  0.13526835751E+02  0.51100000000E-03 0.  1.
        -11    1    3    3    0    0  0.47194200415E+00 -0.32317662179E+01 -0.30243535101E+01  0.44512646021E+01  0.51100000000E-03 0. -1.
         12    1    3    3    0    0  0.16346325943E+02 -0.23434364140E+02  0.15594224947E+02  0.32550754925E+02  0.00000000000E+00 0. -1.
</event>
<event>
 7    1  0.8697654E-014  0.5052887E+02  0.7816164E-02  0.1300439E+00
        -11   -1    0    0    0    0  0.00000000000E+00  0.00000000000E+00  0.45593999997E+02  0.45594000000E+02  0.51100000000E-03 0. -1.
         11   -1    0    0    0    0 -0.00000000000E+00 -0.00000000000E+00 -0.45593999997E+02  0.45594000000E+02  0.51100000000E-03 0.  1.
    9900012    2    1    2    0    0  0.28063593511E+02  0.18311283764E+02  0.23028169978E+02  0.50528868106E+02  0.30000025095E+02 0.  0.
        -12    1    1    2    0    0 -0.28063593511E+02 -0.18311283764E+02 -0.23028169978E+02  0.40659131894E+02  0.00000000000E+00 0.  1.
         11    1    3    3    0    0  0.23977168192E+01  0.98261245388E+01  0.35463558055E+01  0.10718134593E+02  0.51100000000E-03 0. -1.
        -11    1    3    3    0    0  0.45421635411E+01 -0.18499566726E+01  0.15116885827E+02  0.15892571431E+02  0.51100000000E-03 0.  1.
        -12    1    3    3    0    0  0.21123713151E+02  0.10335115898E+02  0.43649283449E+01  0.23918162082E+02  0.00000000000E+00 0.  1.
</event>
<event>
 7    1  0.8697654E-014  0.5052887E+02  0.7816164E-02  0.1300439E+00
        -11   -1    0    0    0    0  0.00000000000E+00  0.00000000000E+00  0.45593999997E+02  0.45594000000E+02  0.51100000000E-03 0. -1.
         11   -1    0    0    0    0 -0.00000000000E+00 -0.00000000000E+00 -0.45593999997E+02  0.45594000000E+02  0.51100000000E-03 0.  1.
    9900012    2    1    2    0    0  0.13570832555E+02 -0.24666980696E+02  0.29334920519E+02  0.50528868249E+02  0.30000025529E+02 0.  0.
        -12    1    1    2    0    0 -0.13570832555E+02  0.24666980696E+02 -0.29334920519E+02  0.40659131751E+02  0.00000000000E+00 0.  1.
         11    1    3    3    0    0  0.23056550781E+01 -0.20168681393E+02  0.11325327388E+02  0.23245532800E+02  0.51100000000E-03 0. -1.
        -11    1    3    3    0    0 -0.41351408736E+01 -0.25062708326E+01  0.30239238973E+01  0.57030605405E+01  0.51100000000E-03 0.  1.
         12    1    3    3    0    0  0.15400318351E+02 -0.19920284711E+01  0.14985669234E+02  0.21580274908E+02  0.00000000000E+00 0. -1.
</event>
<event>
 7    1  0.8697654E-014  0.5052886E+02  0.7816164E-02  0.1300439E+00
        -11   -1    0    0    0    0  0.00000000000E+00  0.00000000000E+00  0.45593999997E+02  0.45594000000E+02  0.51100000000E-03 0. -1.
         11   -1    0    0    0    0 -0.00000000000E+00 -0.00000000000E+00 -0.45593999997E+02  0.45594000000E+02  0.51100000000E-03 0.  1.
    9900012    2    1    2    0    0 -0.16361987114E+02  0.16711949547E+01  0.37184115855E+02  0.50528856049E+02  0.29999988448E+02 0.  0.
        -12    1    1    2    0    0  0.16361987114E+02 -0.16711949547E+01 -0.37184115855E+02  0.40659143951E+02  0.00000000000E+00 0.  1.
         11    1    3    3    0    0 -0.78406488158E+01 -0.63448105738E+01  0.28522302706E+02  0.30253167553E+02  0.51100000000E-03 0. -1.
        -11    1    3    3    0    0 -0.94987520665E+01 -0.29403930759E-01  0.74694836236E+01  0.12083887672E+02  0.51100000000E-03 0.  1.
        -12    1    3    3    0    0  0.97741376778E+00  0.80454094593E+01  0.11923295245E+01  0.81918008238E+01  0.00000000000E+00 0.  1.
</event>
<event>
 7    1  0.8697654E-014  0.5052887E+02  0.7816164E-02  0.1300439E+00
        -11   -1    0    0    0    0  0.00000000000E+00  0.00000000000E+00  0.45593999997E+02  0.45594000000E+02  0.51100000000E-03 0. -1.
         11   -1    0    0    0    0 -0.00000000000E+00 -0.00000000000E+00 -0.45593999997E+02  0.45594000000E+02  0.51100000000E-03 0.  1.
    9900012    2    1    2    0    0  0.24874575441E+02  0.20291364501E+01 -0.32098335685E+02  0.50528867547E+02  0.30000023396E+02 0.  0.
         12    1    1    2    0    0 -0.24874575441E+02 -0.20291364501E+01  0.32098335685E+02  0.40659132453E+02  0.00000000000E+00 0. -1.
         11    1    3    3    0    0  0.11021173020E+02  0.21688418946E+01 -0.57428700654E+00  0.11247219022E+02  0.51100000000E-03 0.  1.
        -11    1    3    3    0    0 -0.35846503775E+01 -0.13971154931E+01 -0.14033761836E+02  0.14551567667E+02  0.51100000000E-03 0. -1.
         12    1    3    3    0    0  0.17438052798E+02  0.12574100486E+01 -0.17490286843E+02  0.24730080858E+02  0.00000000000E+00 0. -1.
</event>
<event>
 7    1  0.8697654E-014  0.5052887E+02  0.7816164E-02  0.1300439E+00
        -11   -1    0    0    0    0  0.00000000000E+00  0.00000000000E+00  0.45593999997E+02  0.45594000000E+02  0.51100000000E-03 0.  1.
         11   -1    0    0    0    0 -0.00000000000E+00 -0.00000000000E+00 -0.45593999997E+02  0.45594000000E+02  0.51100000000E-03 0. -1.
    9900012    2    1    2    0    0  0.61844958587E+01  0.38879306993E+02  0.10164472877E+02  0.50528868060E+02  0.30000024955E+02 0.  0.
        -12    1    1    2    0    0 -0.61844958587E+01 -0.38879306993E+02 -0.10164472877E+02  0.40659131940E+02  0.00000000000E+00 0.  1.
         11    1    3    3    0    0  0.27187681164E+01  0.98944832646E+01  0.88543326515E+01  0.13553291339E+02  0.51100000000E-03 0. -1.
        -11    1    3    3    0    0  0.73590262106E+01  0.11321419111E+02  0.10103010812E+02  0.16864181723E+02  0.51100000000E-03 0.  1.
        -12    1    3    3    0    0 -0.38932984683E+01  0.17663404617E+02 -0.87928705863E+01  0.20111394999E+02  0.00000000000E+00 0.  1.
</event>
<event>
 7    1  0.8697654E-014  0.5052886E+02  0.7816164E-02  0.1300439E+00
        -11   -1    0    0    0    0  0.00000000000E+00  0.00000000000E+00  0.45593999997E+02  0.45594000000E+02  0.51100000000E-03 0. -1.
         11   -1    0    0    0    0 -0.00000000000E+00 -0.00000000000E+00 -0.45593999997E+02  0.45594000000E+02  0.51100000000E-03 0.  1.
    9900012    2    1    2    0    0  0.11391135739E+02  0.25818872573E+02  0.29271033588E+02  0.50528861278E+02  0.30000004340E+02 0.  0.
        -12    1    1    2    0    0 -0.11391135739E+02 -0.25818872573E+02 -0.29271033588E+02  0.40659138722E+02  0.00000000000E+00 0.  1.
         11    1    3    3    0    0  0.44104223450E+01  0.18529433799E+02  0.16319870260E+02  0.25082462154E+02  0.51100000000E-03 0. -1.
        -11    1    3    3    0    0  0.20589888056E+01 -0.33803792196E+01  0.13110623550E+02  0.13695066582E+02  0.51100000000E-03 0.  1.
        -12    1    3    3    0    0  0.49217245880E+01  0.10669817993E+02 -0.15946022197E+00  0.11751332541E+02  0.00000000000E+00 0.  1.
</event>
<event>
 7    1  0.8697654E-014  0.5052885E+02  0.7816164E-02  0.1300439E+00
        -11   -1    0    0    0    0  0.00000000000E+00  0.00000000000E+00  0.45593999997E+02  0.45594000000E+02  0.51100000000E-03 0. -1.
         11   -1    0    0    0    0 -0.00000000000E+00 -0.00000000000E+00 -0.45593999997E+02  0.45594000000E+02  0.51100000000E-03 0.  1.
    9900012    2    1    2    0    0 -0.13283560111E+02  0.17225821675E+02  0.34350908073E+02  0.50528846209E+02  0.29999958536E+02 0.  0.
        -12    1    1    2    0    0  0.13283560111E+02 -0.17225821675E+02 -0.34350908073E+02  0.40659153791E+02  0.00000000000E+00 0.  1.
         11    1    3    3    0    0 -0.74006039744E+01  0.88278369424E+01  0.16401483702E+01  0.11635709313E+02  0.51100000000E-03 0.  1.
        -11    1    3    3    0    0 -0.59784102211E+01 -0.38431157088E+01  0.20093420240E+02  0.21313293137E+02  0.51100000000E-03 0. -1.
         12    1    3    3    0    0  0.95454084840E-01  0.12241100441E+02  0.12617339463E+02  0.17579843759E+02  0.00000000000E+00 0. -1.
</event>
<event>
 7    1  0.8697654E-014  0.5052886E+02  0.7816164E-02  0.1300439E+00
        -11   -1    0    0    0    0  0.00000000000E+00  0.00000000000E+00  0.45593999997E+02  0.45594000000E+02  0.51100000000E-03 0.  1.
         11   -1    0    0    0    0 -0.00000000000E+00 -0.00000000000E+00 -0.45593999997E+02  0.45594000000E+02  0.51100000000E-03 0. -1.
    9900012    2    1    2    0    0 -0.16050771543E+02  0.25886721327E+02 -0.26933541578E+02  0.50528864863E+02  0.30000015237E+02 0.  0.
         12    1    1    2    0    0  0.16050771543E+02 -0.25886721327E+02  0.26933541578E+02  0.40659135137E+02  0.00000000000E+00 0. -1.
         11    1    3    3    0    0 -0.14383714462E+01  0.12479113606E+02 -0.22655438128E+01  0.12764398843E+02  0.51100000000E-03 0.  1.
        -11    1    3    3    0    0 -0.52341031096E+01  0.15403034188E+02 -0.22779458010E+02  0.27992016809E+02  0.51100000000E-03 0. -1.
        -12    1    3    3    0    0 -0.93782969873E+01 -0.19954264663E+01 -0.18885397546E+01  0.97724492104E+01  0.00000000000E+00 0.  1.
</event>
<event>
 7    1  0.8697654E-014  0.5052886E+02  0.7816164E-02  0.1300439E+00
        -11   -1    0    0    0    0  0.00000000000E+00  0.00000000000E+00  0.45593999997E+02  0.45594000000E+02  0.51100000000E-03 0. -1.
         11   -1    0    0    0    0 -0.00000000000E+00 -0.00000000000E+00 -0.45593999997E+02  0.45594000000E+02  0.51100000000E-03 0.  1.
    9900012    2    1    2    0    0  0.82350009785E+00  0.36164003530E+02  0.18564810184E+02  0.50528862271E+02  0.30000007359E+02 0.  0.
        -12    1    1    2    0    0 -0.82350009785E+00 -0.36164003530E+02 -0.18564810184E+02  0.40659137729E+02  0.00000000000E+00 0.  1.
         11    1    3    3    0    0  0.41566414348E+01 -0.53253659850E+00  0.62722134198E+01  0.75433364429E+01  0.51100000000E-03 0. -1.
        -11    1    3    3    0    0 -0.99773574211E+01  0.19927218171E+02  0.11130696264E+02  0.24910521566E+02  0.51100000000E-03 0.  1.
         12    1    3    3    0    0  0.66442160841E+01  0.16769321957E+02  0.11619005003E+01  0.18075004262E+02  0.00000000000E+00 0. -1.
</event>
<event>
 7    1  0.8697654E-014  0.5052886E+02  0.7816164E-02  0.1300439E+00
        -11   -1    0    0    0    0  0.00000000000E+00  0.00000000000E+00  0.45593999997E+02  0.45594000000E+02  0.51100000000E-03 0. -1.
         11   -1    0    0    0    0 -0.00000000000E+00 -0.00000000000E+00 -0.45593999997E+02  0.45594000000E+02  0.51100000000E-03 0.  1.
    9900012    2    1    2    0    0  0.21697248740E+02 -0.22865670418E+02 -0.25681819995E+02  0.50528863698E+02  0.30000011696E+02 0.  0.
         12    1    1    2    0    0 -0.21697248740E+02  0.22865670418E+02  0.25681819995E+02  0.40659136302E+02  0.00000000000E+00 0. -1.
         11    1    3    3    0    0  0.43194940283E+01 -0.11706717305E+02 -0.29066113822E+01  0.12812246044E+02  0.51100000000E-03 0.  1.
        -11    1    3    3    0    0  0.20838522181E+02 -0.11543340236E+02 -0.12572805773E+02  0.26936372357E+02  0.51100000000E-03 0. -1.
         12    1    3    3    0    0 -0.34607674688E+01  0.38438712340E+00 -0.10202402840E+02  0.10780245296E+02  0.00000000000E+00 0. -1.
</event>
<event>
 7    1  0.9196807E-014  0.5052888E+02  0.7816164E-02  0.1300439E+00
        -11   -1    0    0    0    0  0.00000000000E+00  0.00000000000E+00  0.45593999997E+02  0.45594000000E+02  0.51100000000E-03 0. -1.
         11   -1    0    0    0    0 -0.00000000000E+00 -0.00000000000E+00 -0.45593999997E+02  0.45594000000E+02  0.51100000000E-03 0.  1.
    9900012    2    1    2    0    0  0.16454167833E+02  0.15096819544E+02 -0.33978089270E+02  0.50528878639E+02  0.30000057112E+02 0.  0.
         12    1    1    2    0    0 -0.16454167833E+02 -0.15096819544E+02  0.33978089270E+02  0.40659121361E+02  0.00000000000E+00 0. -1.
         11    1    3    3    0    0 -0.28641805900E+01 -0.33153127535E+00  0.15381972333E+01  0.32679495756E+01  0.51100000000E-03 0. -1.
        -11    1    3    3    0    0  0.20042855853E+02  0.12809971888E+02 -0.18783238149E+02  0.30308769129E+02  0.51100000000E-03 0.  1.
         12    1    3    3    0    0 -0.72450742988E+00  0.26183789318E+01 -0.16733048354E+02  0.16952159935E+02  0.00000000000E+00 0. -1.
</event>
<event>
 7    1  0.8697654E-014  0.5052886E+02  0.7816164E-02  0.1300439E+00
        -11   -1    0    0    0    0  0.00000000000E+00  0.00000000000E+00  0.45593999997E+02  0.45594000000E+02  0.51100000000E-03 0. -1.
         11   -1    0    0    0    0 -0.00000000000E+00 -0.00000000000E+00 -0.45593999997E+02  0.45594000000E+02  0.51100000000E-03 0.  1.
    9900012    2    1    2    0    0 -0.36502772624E+02 -0.80954513429E+01 -0.15974261724E+02  0.50528858601E+02  0.29999996203E+02 0.  0.
         12    1    1    2    0    0  0.36502772624E+02  0.80954513429E+01  0.15974261724E+02  0.40659141399E+02  0.00000000000E+00 0. -1.
         11    1    3    3    0    0 -0.12779986156E+02  0.82956582364E+01 -0.60391055607E+01  0.16389532878E+02  0.51100000000E-03 0. -1.
        -11    1    3    3    0    0 -0.41308462754E+00  0.24583732073E+01 -0.18089447562E+01  0.30800193389E+01  0.51100000000E-03 0.  1.
         12    1    3    3    0    0 -0.23309701840E+02 -0.18849482787E+02 -0.81262114070E+01  0.31059306384E+02  0.00000000000E+00 0. -1.
</event>
<event>
 7    1  0.8697654E-014  0.5052886E+02  0.7816164E-02  0.1300439E+00
        -11   -1    0    0    0    0  0.00000000000E+00  0.00000000000E+00  0.45593999997E+02  0.45594000000E+02  0.51100000000E-03 0. -1.
         11   -1    0    0    0    0 -0.00000000000E+00 -0.00000000000E+00 -0.45593999997E+02  0.45594000000E+02  0.51100000000E-03 0.  1.
    9900012    2    1    2    0    0 -0.10960626195E+02 -0.18526083478E+02  0.34493692514E+02  0.50528856885E+02  0.29999990987E+02 0.  0.
        -12    1    1    2    0    0  0.10960626195E+02  0.18526083478E+02 -0.34493692514E+02  0.40659143115E+02  0.00000000000E+00 0.  1.
         11    1    3    3    0    0 -0.11283627423E+02  0.29430797789E+00  0.56099135508E+01  0.12604681484E+02  0.51100000000E-03 0. -1.
        -11    1    3    3    0    0 -0.15100952988E+01 -0.43885089691E+01  0.20738143979E+02  0.21251117965E+02  0.51100000000E-03 0.  1.
        -12    1    3    3    0    0  0.18330965262E+01 -0.14431882487E+02  0.81456349835E+01  0.16673057436E+02  0.00000000000E+00 0.  1.
</event>
<event>
 7    1  0.8697654E-014  0.5052886E+02  0.7816164E-02  0.1300439E+00
        -11   -1    0    0    0    0  0.00000000000E+00  0.00000000000E+00  0.45593999997E+02  0.45594000000E+02  0.51100000000E-03 0. -1.
         11   -1    0    0    0    0 -0.00000000000E+00 -0.00000000000E+00 -0.45593999997E+02  0.45594000000E+02  0.51100000000E-03 0.  1.
    9900012    2    1    2    0    0 -0.34405021972E+01 -0.68863097107E+01 -0.39923771691E+02  0.50528857574E+02  0.29999993081E+02 0.  0.
         12    1    1    2    0    0  0.34405021972E+01  0.68863097107E+01  0.39923771691E+02  0.40659142426E+02  0.00000000000E+00 0. -1.
         11    1    3    3    0    0 -0.11768168147E+02 -0.40239747952E+01 -0.96468284969E+01  0.15739868328E+02  0.51100000000E-03 0. -1.
        -11    1    3    3    0    0  0.19307978291E+01 -0.46861471246E+01 -0.15471539826E+01  0.52992113410E+01  0.51100000000E-03 0.  1.
         12    1    3    3    0    0  0.63968681204E+01  0.18238122090E+01 -0.28729789211E+02  0.29489777905E+02  0.00000000000E+00 0. -1.
</event>
<event>
 7    1  0.8697654E-014  0.5052894E+02  0.7816164E-02  0.1300439E+00
        -11   -1    0    0    0    0  0.00000000000E+00  0.00000000000E+00  0.45593999997E+02  0.45594000000E+02  0.51100000000E-03 0. -1.
         11   -1    0    0    0    0 -0.00000000000E+00 -0.00000000000E+00 -0.45593999997E+02  0.45594000000E+02  0.51100000000E-03 0.  1.
    9900012    2    1    2    0    0  0.12146244073E+02  0.12610176353E+02  0.36696208915E+02  0.50528935310E+02  0.30000229366E+02 0.  0.
        -12    1    1    2    0    0 -0.12146244073E+02 -0.12610176353E+02 -0.36696208915E+02  0.40659064690E+02  0.00000000000E+00 0.  1.
         11    1    3    3    0    0  0.26639743728E+00 -0.39743770353E+01  0.27356220093E+01  0.48322115488E+01  0.51100000000E-03 0. -1.
        -11    1    3    3    0    0 -0.61193496868E+01  0.81310070321E+01  0.15633674131E+02  0.18653993756E+02  0.51100000000E-03 0.  1.
         12    1    3    3    0    0  0.17999196323E+02  0.84535463561E+01  0.18326912775E+02  0.27042730005E+02  0.00000000000E+00 0. -1.
</event>
<event>
 7    1  0.8697654E-014  0.5052886E+02  0.7816164E-02  0.1300439E+00
        -11   -1    0    0    0    0  0.00000000000E+00  0.00000000000E+00  0.45593999997E+02  0.45594000000E+02  0.51100000000E-03 0. -1.
         11   -1    0    0    0    0 -0.00000000000E+00 -0.00000000000E+00 -0.45593999997E+02  0.45594000000E+02  0.51100000000E-03 0.  1.
    9900012    2    1    2    0    0  0.10410323739E+02 -0.31773967732E+01 -0.39175185499E+02  0.50528857738E+02  0.29999993579E+02 0.  0.
         12    1    1    2    0    0 -0.10410323739E+02  0.31773967732E+01  0.39175185499E+02  0.40659142262E+02  0.00000000000E+00 0. -1.
         11    1    3    3    0    0  0.70343449454E+00  0.48267014952E+01 -0.11098925395E+00  0.48789534008E+01  0.51100000000E-03 0. -1.
        -11    1    3    3    0    0  0.32261455863E+00  0.63662668668E+01 -0.12336515232E+02  0.13886073682E+02  0.51100000000E-03 0.  1.
         12    1    3    3    0    0  0.93842746860E+01 -0.14370365135E+02 -0.26727681014E+02  0.31763830655E+02  0.00000000000E+00 0. -1.
</event>
<event>
 7    1  0.1359092E-013  0.5052886E+02  0.7816164E-02  0.1300439E+00
        -11   -1    0    0    0    0  0.00000000000E+00  0.00000000000E+00  0.45593999997E+02  0.45594000000E+02  0.51100000000E-03 0. -1.
         11   -1    0    0    0    0 -0.00000000000E+00 -0.00000000000E+00 -0.45593999997E+02  0.45594000000E+02  0.51100000000E-03 0.  1.
    9900012    2    1    2    0    0 -0.72813403358E+01  0.25747562898E+02 -0.30613895619E+02  0.50528861824E+02  0.30000005999E+02 0.  0.
         12    1    1    2    0    0  0.72813403358E+01 -0.25747562898E+02  0.30613895619E+02  0.40659138176E+02  0.00000000000E+00 0. -1.
         11    1    3    3    0    0  0.52614163884E+01  0.12422662967E+02 -0.50452052354E+01  0.14403442426E+02  0.51100000000E-03 0. -1.
        -11    1    3    3    0    0 -0.15457561720E+01  0.11571609558E+02 -0.21123880917E+02  0.24135240938E+02  0.51100000000E-03 0.  1.
         12    1    3    3    0    0 -0.10997000552E+02  0.17532903727E+01 -0.44448094671E+01  0.11990178459E+02  0.00000000000E+00 0. -1.
</event>
<event>
 7    1  0.8697654E-014  0.5052886E+02  0.7816164E-02  0.1300439E+00
        -11   -1    0    0    0    0  0.00000000000E+00  0.00000000000E+00  0.45593999997E+02  0.45594000000E+02  0.51100000000E-03 0. -1.
         11   -1    0    0    0    0 -0.00000000000E+00 -0.00000000000E+00 -0.45593999997E+02  0.45594000000E+02  0.51100000000E-03 0.  1.
    9900012    2    1    2    0    0  0.19387007759E+01  0.73871099525E+01 -0.39935419738E+02  0.50528859529E+02  0.29999999024E+02 0.  0.
         12    1    1    2    0    0 -0.19387007759E+01 -0.73871099525E+01  0.39935419738E+02  0.40659140471E+02  0.00000000000E+00 0. -1.
         11    1    3    3    0    0 -0.82789632074E+00  0.12053994038E+02 -0.38075242159E+01  0.12668126361E+02  0.51100000000E-03 0. -1.
        -11    1    3    3    0    0  0.18227444245E+01  0.23578454142E+01 -0.20309153049E+02  0.20526654137E+02  0.51100000000E-03 0.  1.
        -12    1    3    3    0    0  0.94385267212E+00 -0.70247294994E+01 -0.15818742473E+02  0.17334079031E+02  0.00000000000E+00 0.  1.
</event>
<event>
 7    1  0.8697654E-014  0.5052880E+02  0.7816164E-02  0.1300439E+00
        -11   -1    0    0    0    0  0.00000000000E+00  0.00000000000E+00  0.45593999997E+02  0.45594000000E+02  0.51100000000E-03 0. -1.
         11   -1    0    0    0    0 -0.00000000000E+00 -0.00000000000E+00 -0.45593999997E+02  0.45594000000E+02  0.51100000000E-03 0.  1.
    9900012    2    1    2    0    0  0.56592361992E+01  0.28227905359E+02 -0.28711123442E+02  0.50528804181E+02  0.29999830788E+02 0.  0.
         12    1    1    2    0    0 -0.56592361992E+01 -0.28227905359E+02  0.28711123442E+02  0.40659195819E+02  0.00000000000E+00 0. -1.
         11    1    3    3    0    0  0.25903846444E+01  0.12756884332E+01  0.29441944526E+01  0.41238034410E+01  0.51100000000E-03 0. -1.
        -11    1    3    3    0    0  0.10400701357E+02  0.22179860495E+02 -0.18913153017E+02  0.30948798968E+02  0.51100000000E-03 0.  1.
        -12    1    3    3    0    0 -0.73318498021E+01  0.47723564317E+01 -0.12742164878E+02  0.15456201772E+02  0.00000000000E+00 0.  1.
</event>
<event>
 7    1  0.8697654E-014  0.5052886E+02  0.7816164E-02  0.1300439E+00
        -11   -1    0    0    0    0  0.00000000000E+00  0.00000000000E+00  0.45593999997E+02  0.45594000000E+02  0.51100000000E-03 0. -1.
         11   -1    0    0    0    0 -0.00000000000E+00 -0.00000000000E+00 -0.45593999997E+02  0.45594000000E+02  0.51100000000E-03 0.  1.
    9900012    2    1    2    0    0 -0.21461571642E+02  0.33266291410E+02 -0.92693442590E+01  0.50528856570E+02  0.29999990029E+02 0.  0.
        -12    1    1    2    0    0  0.21461571642E+02 -0.33266291410E+02  0.92693442590E+01  0.40659143430E+02  0.00000000000E+00 0.  1.
         11    1    3    3    0    0 -0.13811582207E+01  0.13373957246E+02  0.27280173586E+00  0.13447853044E+02  0.51100000000E-03 0. -1.
        -11    1    3    3    0    0 -0.27326597395E+01  0.10804712451E+02 -0.13075669704E+02  0.17180872471E+02  0.51100000000E-03 0.  1.
         12    1    3    3    0    0 -0.17347753682E+02  0.90876217127E+01  0.35335237087E+01  0.19900131055E+02  0.00000000000E+00 0. -1.
</event>
<event>
 7    1  0.8697654E-014  0.5052886E+02  0.7816164E-02  0.1300439E+00
        -11   -1    0    0    0    0  0.00000000000E+00  0.00000000000E+00  0.45593999997E+02  0.45594000000E+02  0.51100000000E-03 0. -1.
         11   -1    0    0    0    0 -0.00000000000E+00 -0.00000000000E+00 -0.45593999997E+02  0.45594000000E+02  0.51100000000E-03 0.  1.
    9900012    2    1    2    0    0 -0.14998940739E+01 -0.34249968615E+02  0.21859902893E+02  0.50528863427E+02  0.30000010874E+02 0.  0.
        -12    1    1    2    0    0  0.14998940739E+01  0.34249968615E+02 -0.21859902893E+02  0.40659136573E+02  0.00000000000E+00 0.  1.
         11    1    3    3    0    0  0.82681803648E+01 -0.12435140862E+02  0.66775238301E+01  0.16358021261E+02  0.51100000000E-03 0. -1.
        -11    1    3    3    0    0 -0.90626220189E+01 -0.11783982006E+02  0.18361218907E+02  0.23624726661E+02  0.51100000000E-03 0.  1.
         12    1    3    3    0    0 -0.70545241976E+00 -0.10030845747E+02 -0.31788398442E+01  0.10546115506E+02  0.00000000000E+00 0. -1.
</event>
<event>
 7    1  0.8697654E-014  0.5052888E+02  0.7816164E-02  0.1300439E+00
        -11   -1    0    0    0    0  0.00000000000E+00  0.00000000000E+00  0.45593999997E+02  0.45594000000E+02  0.51100000000E-03 0. -1.
         11   -1    0    0    0    0 -0.00000000000E+00 -0.00000000000E+00 -0.45593999997E+02  0.45594000000E+02  0.51100000000E-03 0.  1.
    9900012    2    1    2    0    0  0.13922010910E+02 -0.76641762473E+01 -0.37424613605E+02  0.50528884309E+02  0.30000074344E+02 0.  0.
         12    1    1    2    0    0 -0.13922010910E+02  0.76641762473E+01  0.37424613605E+02  0.40659115691E+02  0.00000000000E+00 0. -1.
         11    1    3    3    0    0  0.11464844796E+02 -0.20427178129E+01 -0.25976110588E+01  0.11931594434E+02  0.51100000000E-03 0. -1.
        -11    1    3    3    0    0  0.10415368044E+01 -0.22119790848E+01  0.95539272574E+00  0.26249620774E+01  0.51100000000E-03 0.  1.
        -12    1    3    3    0    0  0.14156293100E+01 -0.34094793497E+01 -0.35782395272E+02  0.35972327797E+02  0.00000000000E+00 0.  1.
</event>
<event>
 7    1  0.8697654E-014  0.5052887E+02  0.7816164E-02  0.1300439E+00
        -11   -1    0    0    0    0  0.00000000000E+00  0.00000000000E+00  0.45593999997E+02  0.45594000000E+02  0.51100000000E-03 0. -1.
         11   -1    0    0    0    0 -0.00000000000E+00 -0.00000000000E+00 -0.45593999997E+02  0.45594000000E+02  0.51100000000E-03 0.  1.
    9900012    2    1    2    0    0  0.26085483057E+01  0.57646470450E+01 -0.40163777016E+02  0.50528872316E+02  0.30000037892E+02 0.  0.
         12    1    1    2    0    0 -0.26085483057E+01 -0.57646470450E+01  0.40163777016E+02  0.40659127684E+02  0.00000000000E+00 0. -1.
         11    1    3    3    0    0  0.78522021080E+01  0.29895749245E+01 -0.11650599888E+02  0.14364230372E+02  0.51100000000E-03 0. -1.
        -11    1    3    3    0    0  0.12418197366E+01  0.10448144708E+02 -0.76510769290E+01  0.13009412844E+02  0.51100000000E-03 0.  1.
         12    1    3    3    0    0 -0.64854735389E+01 -0.76730725877E+01 -0.20862100199E+02  0.23155229100E+02  0.00000000000E+00 0. -1.
</event>
<event>
 7    1  0.8697654E-014  0.5052886E+02  0.7816164E-02  0.1300439E+00
        -11   -1    0    0    0    0  0.00000000000E+00  0.00000000000E+00  0.45593999997E+02  0.45594000000E+02  0.51100000000E-03 0. -1.
         11   -1    0    0    0    0 -0.00000000000E+00 -0.00000000000E+00 -0.45593999997E+02  0.45594000000E+02  0.51100000000E-03 0.  1.
    9900012    2    1    2    0    0 -0.10235331965E+02 -0.24945562150E+02  0.30432261022E+02  0.50528860777E+02  0.30000002818E+02 0.  0.
        -12    1    1    2    0    0  0.10235331965E+02  0.24945562150E+02 -0.30432261022E+02  0.40659139223E+02  0.00000000000E+00 0.  1.
         11    1    3    3    0    0 -0.16306962741E+01 -0.16269961540E+02  0.20046637306E+02  0.25869644110E+02  0.51100000000E-03 0. -1.
        -11    1    3    3    0    0 -0.98178995684E+01 -0.93370940676E+01  0.14781317239E+02  0.20051429304E+02  0.51100000000E-03 0.  1.
        -12    1    3    3    0    0  0.12132638776E+01  0.66149345727E+00 -0.43956935231E+01  0.46077873626E+01  0.00000000000E+00 0.  1.
</event>
<event>
 7    1  0.8697654E-014  0.5052886E+02  0.7816164E-02  0.1300439E+00
        -11   -1    0    0    0    0  0.00000000000E+00  0.00000000000E+00  0.45593999997E+02  0.45594000000E+02  0.51100000000E-03 0.  1.
         11   -1    0    0    0    0 -0.00000000000E+00 -0.00000000000E+00 -0.45593999997E+02  0.45594000000E+02  0.51100000000E-03 0. -1.
    9900012    2    1    2    0    0 -0.19052175198E+02 -0.35795000445E+02  0.29830398028E+01  0.50528856341E+02  0.29999989335E+02 0.  0.
         12    1    1    2    0    0  0.19052175198E+02  0.35795000445E+02 -0.29830398028E+01  0.40659143659E+02  0.00000000000E+00 0. -1.
         11    1    3    3    0    0 -0.94818685574E+00 -0.13433220219E+01 -0.68466413454E+01  0.70413116919E+01  0.51100000000E-03 0. -1.
        -11    1    3    3    0    0 -0.14303701876E+02 -0.13632337543E+02 -0.85905731807E+00  0.19778131711E+02  0.51100000000E-03 0.  1.
        -12    1    3    3    0    0 -0.38002864658E+01 -0.20819340880E+02  0.10688738466E+02  0.23709412938E+02  0.00000000000E+00 0.  1.
</event>
<event>
 7    1  0.8697654E-014  0.5052885E+02  0.7816164E-02  0.1300439E+00
        -11   -1    0    0    0    0  0.00000000000E+00  0.00000000000E+00  0.45593999997E+02  0.45594000000E+02  0.51100000000E-03 0. -1.
         11   -1    0    0    0    0 -0.00000000000E+00 -0.00000000000E+00 -0.45593999997E+02  0.45594000000E+02  0.51100000000E-03 0.  1.
    9900012    2    1    2    0    0 -0.33573480200E+02 -0.10102317466E+02 -0.20589589140E+02  0.50528848854E+02  0.29999966578E+02 0.  0.
         12    1    1    2    0    0  0.33573480200E+02  0.10102317466E+02  0.20589589140E+02  0.40659151146E+02  0.00000000000E+00 0. -1.
         11    1    3    3    0    0 -0.21202625074E+02 -0.49964776588E+01 -0.40119574697E+01  0.22149760767E+02  0.51100000000E-03 0. -1.
        -11    1    3    3    0    0 -0.10447095702E+02 -0.10720940591E+02 -0.16719972935E+02  0.22441877617E+02  0.51100000000E-03 0.  1.
        -12    1    3    3    0    0 -0.19237594242E+01  0.56151007843E+01  0.14234126436E+00  0.59372104709E+01  0.00000000000E+00 0.  1.
</event>
<event>
 7    1  0.9132715E-014  0.5052886E+02  0.7816164E-02  0.1300439E+00
        -11   -1    0    0    0    0  0.00000000000E+00  0.00000000000E+00  0.45593999997E+02  0.45594000000E+02  0.51100000000E-03 0. -1.
         11   -1    0    0    0    0 -0.00000000000E+00 -0.00000000000E+00 -0.45593999997E+02  0.45594000000E+02  0.51100000000E-03 0.  1.
    9900012    2    1    2    0    0  0.12129088363E+02 -0.43103631369E+01 -0.38567751212E+02  0.50528862669E+02  0.30000008570E+02 0.  0.
         12    1    1    2    0    0 -0.12129088363E+02  0.43103631369E+01  0.38567751212E+02  0.40659137331E+02  0.00000000000E+00 0. -1.
         11    1    3    3    0    0  0.10703431054E+02 -0.83946775029E+01 -0.15211798544E+02  0.20406686696E+02  0.51100000000E-03 0. -1.
        -11    1    3    3    0    0 -0.44362936806E+01 -0.32912226561E+00 -0.22263601113E+02  0.22703677188E+02  0.51100000000E-03 0.  1.
         12    1    3    3    0    0  0.58619509900E+01  0.44134366316E+01 -0.10923515555E+01  0.74184987855E+01  0.00000000000E+00 0. -1.
</event>
<event>
 7    1  0.8697654E-014  0.5052886E+02  0.7816164E-02  0.1300439E+00
        -11   -1    0    0    0    0  0.00000000000E+00  0.00000000000E+00  0.45593999997E+02  0.45594000000E+02  0.51100000000E-03 0. -1.
         11   -1    0    0    0    0 -0.00000000000E+00 -0.00000000000E+00 -0.45593999997E+02  0.45594000000E+02  0.51100000000E-03 0.  1.
    9900012    2    1    2    0    0 -0.12061007383E+02 -0.33233268975E+02  0.20081029442E+02  0.50528858232E+02  0.29999995083E+02 0.  0.
        -12    1    1    2    0    0  0.12061007383E+02  0.33233268975E+02 -0.20081029442E+02  0.40659141768E+02  0.00000000000E+00 0.  1.
         11    1    3    3    0    0  0.76714822502E+01 -0.87852444272E+00  0.65107609728E+01  0.10100170980E+02  0.51100000000E-03 0. -1.
        -11    1    3    3    0    0 -0.75758404816E+01 -0.15957723296E+02  0.66687007438E+01  0.18881574661E+02  0.51100000000E-03 0.  1.
        -12    1    3    3    0    0 -0.12156649151E+02 -0.16397021236E+02  0.69015677255E+01  0.21547112592E+02  0.00000000000E+00 0.  1.
</event>
<event>
 7    1  0.8697654E-014  0.5052886E+02  0.7816164E-02  0.1300439E+00
        -11   -1    0    0    0    0  0.00000000000E+00  0.00000000000E+00  0.45593999997E+02  0.45594000000E+02  0.51100000000E-03 0.  1.
         11   -1    0    0    0    0 -0.00000000000E+00 -0.00000000000E+00 -0.45593999997E+02  0.45594000000E+02  0.51100000000E-03 0. -1.
    9900012    2    1    2    0    0  0.24467438775E+02 -0.31348405197E+02 -0.84727497556E+01  0.50528861334E+02  0.30000004511E+02 0.  0.
        -12    1    1    2    0    0 -0.24467438775E+02  0.31348405197E+02  0.84727497556E+01  0.40659138666E+02  0.00000000000E+00 0.  1.
         11    1    3    3    0    0  0.97904238873E+01 -0.16844629145E+02 -0.12920707745E+02  0.23378165450E+02  0.51100000000E-03 0. -1.
        -11    1    3    3    0    0  0.45749675305E+01 -0.23704483828E+01 -0.62344278211E+01  0.80881050908E+01  0.51100000000E-03 0.  1.
        -12    1    3    3    0    0  0.10102047357E+02 -0.12133327669E+02  0.10682385810E+02  0.19062590793E+02  0.00000000000E+00 0.  1.
</event>
<event>
 7    1  0.8697654E-014  0.5052886E+02  0.7816164E-02  0.1300439E+00
        -11   -1    0    0    0    0  0.00000000000E+00  0.00000000000E+00  0.45593999997E+02  0.45594000000E+02  0.51100000000E-03 0. -1.
         11   -1    0    0    0    0 -0.00000000000E+00 -0.00000000000E+00 -0.45593999997E+02  0.45594000000E+02  0.51100000000E-03 0.  1.
    9900012    2    1    2    0    0 -0.77789604816E+01  0.30087945492E+02  0.26217723882E+02  0.50528859137E+02  0.29999997834E+02 0.  0.
        -12    1    1    2    0    0  0.77789604816E+01 -0.30087945492E+02 -0.26217723882E+02  0.40659140863E+02  0.00000000000E+00 0.  1.
         11    1    3    3    0    0  0.21961037131E+01  0.18692515129E+02  0.14180884921E+02  0.23565451211E+02  0.51100000000E-03 0. -1.
        -11    1    3    3    0    0 -0.10213192322E+02  0.12881246895E+02  0.15867608842E+02  0.22847687620E+02  0.51100000000E-03 0.  1.
        -12    1    3    3    0    0  0.23812812686E+00 -0.14858165310E+01 -0.38307698803E+01  0.41157203069E+01  0.00000000000E+00 0.  1.
</event>
<event>
 7    1  0.8697654E-014  0.5052886E+02  0.7816164E-02  0.1300439E+00
        -11   -1    0    0    0    0  0.00000000000E+00  0.00000000000E+00  0.45593999997E+02  0.45594000000E+02  0.51100000000E-03 0. -1.
         11   -1    0    0    0    0 -0.00000000000E+00 -0.00000000000E+00 -0.45593999997E+02  0.45594000000E+02  0.51100000000E-03 0.  1.
    9900012    2    1    2    0    0 -0.12793210185E+02 -0.14358359723E+02  0.35823688142E+02  0.50528863845E+02  0.30000012142E+02 0.  0.
        -12    1    1    2    0    0  0.12793210185E+02  0.14358359723E+02 -0.35823688142E+02  0.40659136155E+02  0.00000000000E+00 0.  1.
         11    1    3    3    0    0 -0.87223342462E+01 -0.17324866596E+02  0.15766472145E+02  0.24996234946E+02  0.51100000000E-03 0. -1.
        -11    1    3    3    0    0 -0.29672519306E+01  0.10576441987E+01 -0.17571951574E+01  0.36070667242E+01  0.51100000000E-03 0.  1.
         12    1    3    3    0    0 -0.11036240078E+01  0.19088626744E+01  0.21814411155E+02  0.21925562175E+02  0.00000000000E+00 0. -1.
</event>
<event>
 7    1  0.8697654E-014  0.5052886E+02  0.7816164E-02  0.1300439E+00
        -11   -1    0    0    0    0  0.00000000000E+00  0.00000000000E+00  0.45593999997E+02  0.45594000000E+02  0.51100000000E-03 0. -1.
         11   -1    0    0    0    0 -0.00000000000E+00 -0.00000000000E+00 -0.45593999997E+02  0.45594000000E+02  0.51100000000E-03 0.  1.
    9900012    2    1    2    0    0 -0.29674399012E+01  0.26280128468E+02 -0.30882271546E+02  0.50528861449E+02  0.30000004860E+02 0.  0.
         12    1    1    2    0    0  0.29674399012E+01 -0.26280128468E+02  0.30882271546E+02  0.40659138551E+02  0.00000000000E+00 0. -1.
         11    1    3    3    0    0  0.76748858070E+01  0.33663058028E+01 -0.58425842795E+01  0.10216245799E+02  0.51100000000E-03 0. -1.
        -11    1    3    3    0    0 -0.78381791553E+00  0.12121909151E+02 -0.22367940924E+02  0.25453483719E+02  0.51100000000E-03 0.  1.
         12    1    3    3    0    0 -0.98585077927E+01  0.10791913514E+02 -0.26717463425E+01  0.14859131930E+02  0.00000000000E+00 0. -1.
</event>
<event>
 7    1  0.8697654E-014  0.5052886E+02  0.7816164E-02  0.1300439E+00
        -11   -1    0    0    0    0  0.00000000000E+00  0.00000000000E+00  0.45593999997E+02  0.45594000000E+02  0.51100000000E-03 0. -1.
         11   -1    0    0    0    0 -0.00000000000E+00 -0.00000000000E+00 -0.45593999997E+02  0.45594000000E+02  0.51100000000E-03 0.  1.
    9900012    2    1    2    0    0 -0.22218364658E+02 -0.15080641045E+02  0.30530055167E+02  0.50528859197E+02  0.29999998014E+02 0.  0.
        -12    1    1    2    0    0  0.22218364658E+02  0.15080641045E+02 -0.30530055167E+02  0.40659140803E+02  0.00000000000E+00 0.  1.
         11    1    3    3    0    0 -0.14190253221E+02 -0.14105666758E+02  0.25335863019E+02  0.32283727733E+02  0.51100000000E-03 0. -1.
        -11    1    3    3    0    0 -0.11831332039E+02  0.65393358070E+00  0.69649356353E+01  0.13744758114E+02  0.51100000000E-03 0.  1.
        -12    1    3    3    0    0  0.38032206015E+01 -0.16289078674E+01 -0.17707434882E+01  0.45003733496E+01  0.00000000000E+00 0.  1.
</event>
<event>
 7    1  0.8697654E-014  0.5052886E+02  0.7816164E-02  0.1300439E+00
        -11   -1    0    0    0    0  0.00000000000E+00  0.00000000000E+00  0.45593999997E+02  0.45594000000E+02  0.51100000000E-03 0. -1.
         11   -1    0    0    0    0 -0.00000000000E+00 -0.00000000000E+00 -0.45593999997E+02  0.45594000000E+02  0.51100000000E-03 0.  1.
    9900012    2    1    2    0    0 -0.29287556948E+02 -0.19958633519E+02  0.19926305510E+02  0.50528859635E+02  0.29999999347E+02 0.  0.
        -12    1    1    2    0    0  0.29287556948E+02  0.19958633519E+02 -0.19926305510E+02  0.40659140365E+02  0.00000000000E+00 0.  1.
         11    1    3    3    0    0 -0.62975097681E+01 -0.13583417620E+02  0.11735122229E+02  0.19023168966E+02  0.51100000000E-03 0. -1.
        -11    1    3    3    0    0 -0.20206902002E+02 -0.33640916914E+01  0.13695879196E+02  0.24641694517E+02  0.51100000000E-03 0.  1.
        -12    1    3    3    0    0 -0.27831451772E+01 -0.30111242077E+01 -0.55046959145E+01  0.68639961526E+01  0.00000000000E+00 0.  1.
</event>
<event>
 7    1  0.8697654E-014  0.5052886E+02  0.7816164E-02  0.1300439E+00
        -11   -1    0    0    0    0  0.00000000000E+00  0.00000000000E+00  0.45593999997E+02  0.45594000000E+02  0.51100000000E-03 0.  1.
         11   -1    0    0    0    0 -0.00000000000E+00 -0.00000000000E+00 -0.45593999997E+02  0.45594000000E+02  0.51100000000E-03 0. -1.
    9900012    2    1    2    0    0  0.27630397202E+02  0.29756992897E+02  0.20611841614E+01  0.50528856428E+02  0.29999989599E+02 0.  0.
        -12    1    1    2    0    0 -0.27630397202E+02 -0.29756992897E+02 -0.20611841614E+01  0.40659143572E+02  0.00000000000E+00 0.  1.
         11    1    3    3    0    0  0.18935495737E+02  0.23086750664E+02 -0.89679226900E+00  0.29872316476E+02  0.51100000000E-03 0. -1.
        -11    1    3    3    0    0 -0.17284611669E+01  0.92764056051E+01 -0.26351282844E+00  0.94397414280E+01  0.51100000000E-03 0.  1.
         12    1    3    3    0    0  0.10423362632E+02 -0.26061633716E+01  0.32214892588E+01  0.11216798524E+02  0.00000000000E+00 0. -1.
</event>
<event>
 7    1  0.8697654E-014  0.5052886E+02  0.7816164E-02  0.1300439E+00
        -11   -1    0    0    0    0  0.00000000000E+00  0.00000000000E+00  0.45593999997E+02  0.45594000000E+02  0.51100000000E-03 0. -1.
         11   -1    0    0    0    0 -0.00000000000E+00 -0.00000000000E+00 -0.45593999997E+02  0.45594000000E+02  0.51100000000E-03 0.  1.
    9900012    2    1    2    0    0  0.14846471650E+02  0.30327129867E+01 -0.37729971770E+02  0.50528857876E+02  0.29999993999E+02 0.  0.
         12    1    1    2    0    0 -0.14846471650E+02 -0.30327129867E+01  0.37729971770E+02  0.40659142124E+02  0.00000000000E+00 0. -1.
         11    1    3    3    0    0  0.26531895279E+01  0.74157016748E+01 -0.21194590914E+02  0.22610677351E+02  0.51100000000E-03 0.  1.
        -11    1    3    3    0    0 -0.35198539767E+01 -0.55912448373E+01 -0.35638038995E+01  0.75068028709E+01  0.51100000000E-03 0. -1.
        -12    1    3    3    0    0  0.15713136099E+02  0.12082561491E+01 -0.12971576957E+02  0.20411377654E+02  0.00000000000E+00 0.  1.
</event>
<event>
 7    1  0.8697654E-014  0.5052886E+02  0.7816164E-02  0.1300439E+00
        -11   -1    0    0    0    0  0.00000000000E+00  0.00000000000E+00  0.45593999997E+02  0.45594000000E+02  0.51100000000E-03 0. -1.
         11   -1    0    0    0    0 -0.00000000000E+00 -0.00000000000E+00 -0.45593999997E+02  0.45594000000E+02  0.51100000000E-03 0.  1.
    9900012    2    1    2    0    0 -0.31377550671E+02  0.52776429491E+01  0.25313271309E+02  0.50528857048E+02  0.29999991483E+02 0.  0.
        -12    1    1    2    0    0  0.31377550671E+02 -0.52776429491E+01 -0.25313271309E+02  0.40659142952E+02  0.00000000000E+00 0.  1.
         11    1    3    3    0    0 -0.19599961180E+02  0.67458196232E+01  0.17420785466E+02  0.27076711897E+02  0.51100000000E-03 0. -1.
        -11    1    3    3    0    0 -0.34811349164E+01 -0.79566572623E+00  0.13137241951E+02  0.13613908719E+02  0.51100000000E-03 0.  1.
        -12    1    3    3    0    0 -0.82964545744E+01 -0.67251094785E+00 -0.52447561073E+01  0.98382364327E+01  0.00000000000E+00 0.  1.
</event>
<event>
 7    1  0.8697654E-014  0.5052885E+02  0.7816164E-02  0.1300439E+00
        -11   -1    0    0    0    0  0.00000000000E+00  0.00000000000E+00  0.45593999997E+02  0.45594000000E+02  0.51100000000E-03 0. -1.
         11   -1    0    0    0    0 -0.00000000000E+00 -0.00000000000E+00 -0.45593999997E+02  0.45594000000E+02  0.51100000000E-03 0.  1.
    9900012    2    1    2    0    0  0.81357647622E+01  0.16593717553E+02  0.36216352668E+02  0.50528851816E+02  0.29999975579E+02 0.  0.
        -12    1    1    2    0    0 -0.81357647622E+01 -0.16593717553E+02 -0.36216352668E+02  0.40659148184E+02  0.00000000000E+00 0.  1.
         11    1    3    3    0    0 -0.40355230297E+01  0.72974085212E+01  0.17879455803E+02  0.19728470730E+02  0.51100000000E-03 0. -1.
        -11    1    3    3    0    0  0.11749934115E+02  0.12706068734E+02  0.20431955796E+02  0.26776294596E+02  0.51100000000E-03 0.  1.
        -12    1    3    3    0    0  0.42135367657E+00 -0.34097597029E+01 -0.20950589312E+01  0.40240864898E+01  0.00000000000E+00 0.  1.
</event>
<event>
 7    1  0.8697654E-014  0.5052886E+02  0.7816164E-02  0.1300439E+00
        -11   -1    0    0    0    0  0.00000000000E+00  0.00000000000E+00  0.45593999997E+02  0.45594000000E+02  0.51100000000E-03 0. -1.
         11   -1    0    0    0    0 -0.00000000000E+00 -0.00000000000E+00 -0.45593999997E+02  0.45594000000E+02  0.51100000000E-03 0.  1.
    9900012    2    1    2    0    0  0.96360514361E+01 -0.28374562450E+02  0.27480838974E+02  0.50528858442E+02  0.29999995722E+02 0.  0.
        -12    1    1    2    0    0 -0.96360514361E+01  0.28374562450E+02 -0.27480838974E+02  0.40659141558E+02  0.00000000000E+00 0.  1.
         11    1    3    3    0    0  0.79708705600E+01 -0.12769059336E+02  0.25357290378E+02  0.29488571165E+02  0.51100000000E-03 0. -1.
        -11    1    3    3    0    0  0.65027452064E+01 -0.34383446764E+01  0.29392947766E+01  0.79213233350E+01  0.51100000000E-03 0.  1.
         12    1    3    3    0    0 -0.48375643302E+01 -0.12167158437E+02 -0.81574618057E+00  0.13118963942E+02  0.00000000000E+00 0. -1.
</event>
<event>
 7    1  0.8697654E-014  0.5052886E+02  0.7816164E-02  0.1300439E+00
        -11   -1    0    0    0    0  0.00000000000E+00  0.00000000000E+00  0.45593999997E+02  0.45594000000E+02  0.51100000000E-03 0. -1.
         11   -1    0    0    0    0 -0.00000000000E+00 -0.00000000000E+00 -0.45593999997E+02  0.45594000000E+02  0.51100000000E-03 0.  1.
    9900012    2    1    2    0    0  0.13067197640E+02  0.10419015247E+02 -0.37065594712E+02  0.50528857802E+02  0.29999993776E+02 0.  0.
         12    1    1    2    0    0 -0.13067197640E+02 -0.10419015247E+02  0.37065594712E+02  0.40659142198E+02  0.00000000000E+00 0. -1.
         11    1    3    3    0    0  0.15053691264E+02  0.41089817809E+01 -0.82636132065E+01  0.17657424938E+02  0.51100000000E-03 0.  1.
        -11    1    3    3    0    0 -0.44691159965E+01  0.89778711231E+00 -0.13112836825E+01  0.47432567552E+01  0.51100000000E-03 0. -1.
        -12    1    3    3    0    0  0.24826223728E+01  0.54122463539E+01 -0.27490697823E+02  0.28128176109E+02  0.00000000000E+00 0.  1.
</event>
<event>
 7    1  0.8697654E-014  0.5052887E+02  0.7816164E-02  0.1300439E+00
        -11   -1    0    0    0    0  0.00000000000E+00  0.00000000000E+00  0.45593999997E+02  0.45594000000E+02  0.51100000000E-03 0.  1.
         11   -1    0    0    0    0 -0.00000000000E+00 -0.00000000000E+00 -0.45593999997E+02  0.45594000000E+02  0.51100000000E-03 0. -1.
    9900012    2    1    2    0    0  0.71976607739E+01  0.40016738175E+02 -0.13919480512E+00  0.50528867816E+02  0.30000024213E+02 0.  0.
        -12    1    1    2    0    0 -0.71976607739E+01 -0.40016738175E+02  0.13919480512E+00  0.40659132184E+02  0.00000000000E+00 0.  1.
         11    1    3    3    0    0  0.35876423092E+01  0.66743498569E+01  0.39798316026E+01  0.85590410209E+01  0.51100000000E-03 0. -1.
        -11    1    3    3    0    0 -0.37845253409E+01 -0.27493861657E+01  0.97355250840E+00  0.47780289965E+01  0.51100000000E-03 0.  1.
         12    1    3    3    0    0  0.73945438056E+01  0.36091774484E+02 -0.50925789161E+01  0.37191797798E+02  0.00000000000E+00 0. -1.
</event>
<event>
 7    1  0.8697654E-014  0.5052891E+02  0.7816164E-02  0.1300439E+00
        -11   -1    0    0    0    0  0.00000000000E+00  0.00000000000E+00  0.45593999997E+02  0.45594000000E+02  0.51100000000E-03 0.  1.
         11   -1    0    0    0    0 -0.00000000000E+00 -0.00000000000E+00 -0.45593999997E+02  0.45594000000E+02  0.51100000000E-03 0. -1.
    9900012    2    1    2    0    0 -0.44815226662E+01  0.33295088526E+02 -0.22902290776E+02  0.50528906452E+02  0.30000141651E+02 0.  0.
         12    1    1    2    0    0  0.44815226662E+01 -0.33295088526E+02  0.22902290776E+02  0.40659093548E+02  0.00000000000E+00 0. -1.
         11    1    3    3    0    0 -0.32142791154E+01  0.52292393266E+01  0.53374391323E+01  0.81341742616E+01  0.51100000000E-03 0. -1.
        -11    1    3    3    0    0 -0.42846076584E+01  0.44628336669E+01 -0.12258090565E+02  0.13730824144E+02  0.51100000000E-03 0.  1.
        -12    1    3    3    0    0  0.30173641076E+01  0.23603015532E+02 -0.15981639344E+02  0.28663908046E+02  0.00000000000E+00 0.  1.
</event>
<event>
 7    1  0.8697654E-014  0.5052886E+02  0.7816164E-02  0.1300439E+00
        -11   -1    0    0    0    0  0.00000000000E+00  0.00000000000E+00  0.45593999997E+02  0.45594000000E+02  0.51100000000E-03 0. -1.
         11   -1    0    0    0    0 -0.00000000000E+00 -0.00000000000E+00 -0.45593999997E+02  0.45594000000E+02  0.51100000000E-03 0.  1.
    9900012    2    1    2    0    0 -0.32342899796E+02 -0.19990729839E+02 -0.14403935223E+02  0.50528858388E+02  0.29999995556E+02 0.  0.
         12    1    1    2    0    0  0.32342899796E+02  0.19990729839E+02  0.14403935223E+02  0.40659141612E+02  0.00000000000E+00 0. -1.
         11    1    3    3    0    0 -0.97673834961E+01 -0.42189753667E+01  0.35129922675E+01  0.11204581582E+02  0.51100000000E-03 0.  1.
        -11    1    3    3    0    0 -0.21582496852E+02 -0.20743537268E+02 -0.15401175345E+02  0.33664442829E+02  0.51100000000E-03 0. -1.
        -12    1    3    3    0    0 -0.99301944844E+00  0.49717827948E+01 -0.25157521458E+01  0.56598339766E+01  0.00000000000E+00 0.  1.
</event>
<event>
 7    1  0.8697654E-014  0.5052885E+02  0.7816164E-02  0.1300439E+00
        -11   -1    0    0    0    0  0.00000000000E+00  0.00000000000E+00  0.45593999997E+02  0.45594000000E+02  0.51100000000E-03 0. -1.
         11   -1    0    0    0    0 -0.00000000000E+00 -0.00000000000E+00 -0.45593999997E+02  0.45594000000E+02  0.51100000000E-03 0.  1.
    9900012    2    1    2    0    0 -0.18940129737E+02  0.12426745644E+02  0.33764095635E+02  0.50528847577E+02  0.29999962694E+02 0.  0.
        -12    1    1    2    0    0  0.18940129737E+02 -0.12426745644E+02 -0.33764095635E+02  0.40659152423E+02  0.00000000000E+00 0.  1.
         11    1    3    3    0    0 -0.93985491826E+01  0.10184088021E+01  0.16280818662E+01  0.95927333983E+01  0.51100000000E-03 0. -1.
        -11    1    3    3    0    0  0.33413436598E+01  0.44986071482E+00 -0.11806631087E+01  0.35722426783E+01  0.51100000000E-03 0.  1.
         12    1    3    3    0    0 -0.12882924214E+02  0.10958476127E+02  0.33316676877E+02  0.37363871500E+02  0.00000000000E+00 0. -1.
</event>
<event>
 7    1  0.8697654E-014  0.5052886E+02  0.7816164E-02  0.1300439E+00
        -11   -1    0    0    0    0  0.00000000000E+00  0.00000000000E+00  0.45593999997E+02  0.45594000000E+02  0.51100000000E-03 0.  1.
         11   -1    0    0    0    0 -0.00000000000E+00 -0.00000000000E+00 -0.45593999997E+02  0.45594000000E+02  0.51100000000E-03 0. -1.
    9900012    2    1    2    0    0  0.10600761071E+02  0.23356938984E+02 -0.31547468684E+02  0.50528861859E+02  0.30000006106E+02 0.  0.
         12    1    1    2    0    0 -0.10600761071E+02 -0.23356938984E+02  0.31547468684E+02  0.40659138141E+02  0.00000000000E+00 0. -1.
         11    1    3    3    0    0  0.68571471280E+01  0.65947637204E+01  0.25533603227E+01  0.98504327043E+01  0.51100000000E-03 0. -1.
        -11    1    3    3    0    0  0.81954108661E+00  0.98676048078E+01 -0.59573509424E+01  0.11555574531E+02  0.51100000000E-03 0.  1.
         12    1    3    3    0    0  0.29240728564E+01  0.68945704556E+01 -0.28143478065E+02  0.29122854623E+02  0.00000000000E+00 0. -1.
</event>
<event>
 7    1  0.8697654E-014  0.5052891E+02  0.7816164E-02  0.1300439E+00
        -11   -1    0    0    0    0  0.00000000000E+00  0.00000000000E+00  0.45593999997E+02  0.45594000000E+02  0.51100000000E-03 0. -1.
         11   -1    0    0    0    0 -0.00000000000E+00 -0.00000000000E+00 -0.45593999997E+02  0.45594000000E+02  0.51100000000E-03 0.  1.
    9900012    2    1    2    0    0 -0.32144799130E+02  0.21011573720E+02  0.13356154807E+02  0.50528914760E+02  0.30000166904E+02 0.  0.
        -12    1    1    2    0    0  0.32144799130E+02 -0.21011573720E+02 -0.13356154807E+02  0.40659085240E+02  0.00000000000E+00 0.  1.
         11    1    3    3    0    0 -0.13110931883E+02  0.10066358304E+02 -0.21287116550E+00  0.16530983599E+02  0.51100000000E-03 0. -1.
        -11    1    3    3    0    0  0.57342613521E-01  0.12030737202E+02  0.58326199724E+01  0.13370167606E+02  0.51100000000E-03 0.  1.
         12    1    3    3    0    0 -0.19091209860E+02 -0.10855217863E+01  0.77364060006E+01  0.20627763555E+02  0.00000000000E+00 0. -1.
</event>
<event>
 7    1  0.8697654E-014  0.5052888E+02  0.7816164E-02  0.1300439E+00
        -11   -1    0    0    0    0  0.00000000000E+00  0.00000000000E+00  0.45593999997E+02  0.45594000000E+02  0.51100000000E-03 0.  1.
         11   -1    0    0    0    0 -0.00000000000E+00 -0.00000000000E+00 -0.45593999997E+02  0.45594000000E+02  0.51100000000E-03 0. -1.
    9900012    2    1    2    0    0  0.23348051702E+02 -0.32186699454E+02  0.84881824425E+01  0.50528875794E+02  0.30000048463E+02 0.  0.
        -12    1    1    2    0    0 -0.23348051702E+02  0.32186699454E+02 -0.84881824425E+01  0.40659124206E+02  0.00000000000E+00 0.  1.
         11    1    3    3    0    0  0.10938793301E+02 -0.93382832033E+01  0.12986235302E+00  0.14383240127E+02  0.51100000000E-03 0. -1.
        -11    1    3    3    0    0  0.34831202715E+01 -0.12090305833E+02 -0.77813192308E+01  0.14793801107E+02  0.51100000000E-03 0.  1.
        -12    1    3    3    0    0  0.89261381294E+01 -0.10758110417E+02  0.16139639320E+02  0.21351834559E+02  0.00000000000E+00 0.  1.
</event>
<event>
 7    1  0.8697654E-014  0.5052887E+02  0.7816164E-02  0.1300439E+00
        -11   -1    0    0    0    0  0.00000000000E+00  0.00000000000E+00  0.45593999997E+02  0.45594000000E+02  0.51100000000E-03 0. -1.
         11   -1    0    0    0    0 -0.00000000000E+00 -0.00000000000E+00 -0.45593999997E+02  0.45594000000E+02  0.51100000000E-03 0.  1.
    9900012    2    1    2    0    0 -0.16239466237E+02 -0.26015044341E+02 -0.26695730937E+02  0.50528870078E+02  0.30000031090E+02 0.  0.
         12    1    1    2    0    0  0.16239466237E+02  0.26015044341E+02  0.26695730937E+02  0.40659129922E+02  0.00000000000E+00 0. -1.
         11    1    3    3    0    0 -0.26108008444E+01 -0.11027819585E+02  0.18828376052E+01  0.11488000851E+02  0.51100000000E-03 0. -1.
        -11    1    3    3    0    0 -0.14341146939E+02 -0.79137602180E+01 -0.10103514081E+02  0.19245183641E+02  0.51100000000E-03 0.  1.
         12    1    3    3    0    0  0.71248154635E+00 -0.70734645384E+01 -0.18475054460E+02  0.19795685587E+02  0.00000000000E+00 0. -1.
</event>
<event>
 7    1  0.8697654E-014  0.5052886E+02  0.7816164E-02  0.1300439E+00
        -11   -1    0    0    0    0  0.00000000000E+00  0.00000000000E+00  0.45593999997E+02  0.45594000000E+02  0.51100000000E-03 0. -1.
         11   -1    0    0    0    0 -0.00000000000E+00 -0.00000000000E+00 -0.45593999997E+02  0.45594000000E+02  0.51100000000E-03 0.  1.
    9900012    2    1    2    0    0 -0.38471886854E+02 -0.23339894094E+01  0.12947280708E+02  0.50528860038E+02  0.30000000572E+02 0.  0.
        -12    1    1    2    0    0  0.38471886854E+02  0.23339894094E+01 -0.12947280708E+02  0.40659139962E+02  0.00000000000E+00 0.  1.
         11    1    3    3    0    0 -0.19660872351E+02  0.49790696458E+01  0.19749776549E+02  0.28308915736E+02  0.51100000000E-03 0. -1.
        -11    1    3    3    0    0  0.18955904628E+00 -0.33265398722E+00 -0.11371251160E+01  0.11998521150E+01  0.51100000000E-03 0.  1.
         12    1    3    3    0    0 -0.19000573550E+02 -0.69804050679E+01 -0.56653707245E+01  0.21020092187E+02  0.00000000000E+00 0. -1.
</event>
<event>
 7    1  0.8697654E-014  0.5052887E+02  0.7816164E-02  0.1300439E+00
        -11   -1    0    0    0    0  0.00000000000E+00  0.00000000000E+00  0.45593999997E+02  0.45594000000E+02  0.51100000000E-03 0. -1.
         11   -1    0    0    0    0 -0.00000000000E+00 -0.00000000000E+00 -0.45593999997E+02  0.45594000000E+02  0.51100000000E-03 0.  1.
    9900012    2    1    2    0    0 -0.25890513820E+02 -0.26556512655E+02 -0.16661271990E+02  0.50528867513E+02  0.30000023292E+02 0.  0.
         12    1    1    2    0    0  0.25890513820E+02  0.26556512655E+02  0.16661271990E+02  0.40659132487E+02  0.00000000000E+00 0. -1.
         11    1    3    3    0    0 -0.24760434919E+01 -0.37026478293E+01 -0.30410019499E+01  0.53933371340E+01  0.51100000000E-03 0. -1.
        -11    1    3    3    0    0 -0.63345401559E+01 -0.63685838369E+00 -0.15792935073E+02  0.17027882606E+02  0.51100000000E-03 0.  1.
         12    1    3    3    0    0 -0.17079930172E+02 -0.22217006443E+02  0.21726650325E+01  0.28107647772E+02  0.00000000000E+00 0. -1.
</event>
<event>
 7    1  0.8697654E-014  0.5052886E+02  0.7816164E-02  0.1300439E+00
        -11   -1    0    0    0    0  0.00000000000E+00  0.00000000000E+00  0.45593999997E+02  0.45594000000E+02  0.51100000000E-03 0. -1.
         11   -1    0    0    0    0 -0.00000000000E+00 -0.00000000000E+00 -0.45593999997E+02  0.45594000000E+02  0.51100000000E-03 0.  1.
    9900012    2    1    2    0    0 -0.22339031065E+02  0.19693687646E+02 -0.27681977703E+02  0.50528861647E+02  0.30000005463E+02 0.  0.
         12    1    1    2    0    0  0.22339031065E+02 -0.19693687646E+02  0.27681977703E+02  0.40659138353E+02  0.00000000000E+00 0. -1.
         11    1    3    3    0    0  0.68918553401E+00  0.13480399902E+02 -0.78212538670E+01  0.15600261874E+02  0.51100000000E-03 0. -1.
        -11    1    3    3    0    0 -0.46466246083E+01  0.59788061358E+01 -0.13495545325E+02  0.15474720900E+02  0.51100000000E-03 0.  1.
        -12    1    3    3    0    0 -0.18381591991E+02  0.23448160827E+00 -0.63651785116E+01  0.19453878873E+02  0.00000000000E+00 0.  1.
</event>
<event>
 7    1  0.8697654E-014  0.5052887E+02  0.7816164E-02  0.1300439E+00
        -11   -1    0    0    0    0  0.00000000000E+00  0.00000000000E+00  0.45593999997E+02  0.45594000000E+02  0.51100000000E-03 0. -1.
         11   -1    0    0    0    0 -0.00000000000E+00 -0.00000000000E+00 -0.45593999997E+02  0.45594000000E+02  0.51100000000E-03 0.  1.
    9900012    2    1    2    0    0 -0.34547127363E+02  0.17338529755E+02  0.12610951178E+02  0.50528871717E+02  0.30000036070E+02 0.  0.
        -12    1    1    2    0    0  0.34547127363E+02 -0.17338529755E+02 -0.12610951178E+02  0.40659128283E+02  0.00000000000E+00 0.  1.
         11    1    3    3    0    0 -0.15915241237E+02  0.11080033225E+01  0.12122354390E+02  0.20036817393E+02  0.51100000000E-03 0. -1.
        -11    1    3    3    0    0 -0.48103074498E+01  0.91752836867E+01  0.81541291409E+01  0.13183880719E+02  0.51100000000E-03 0.  1.
        -12    1    3    3    0    0 -0.13821578676E+02  0.70552427459E+01 -0.76655323529E+01  0.17308173606E+02  0.00000000000E+00 0.  1.
</event>
<event>
 7    1  0.8697654E-014  0.5052886E+02  0.7816164E-02  0.1300439E+00
        -11   -1    0    0    0    0  0.00000000000E+00  0.00000000000E+00  0.45593999997E+02  0.45594000000E+02  0.51100000000E-03 0. -1.
         11   -1    0    0    0    0 -0.00000000000E+00 -0.00000000000E+00 -0.45593999997E+02  0.45594000000E+02  0.51100000000E-03 0.  1.
    9900012    2    1    2    0    0  0.22071355733E+01  0.36325459468E+02 -0.18131602113E+02  0.50528862673E+02  0.30000008581E+02 0.  0.
         12    1    1    2    0    0 -0.22071355733E+01 -0.36325459468E+02  0.18131602113E+02  0.40659137327E+02  0.00000000000E+00 0. -1.
         11    1    3    3    0    0 -0.20761103652E+01  0.10632258038E+00 -0.61541827738E+01  0.64958066947E+01  0.51100000000E-03 0. -1.
        -11    1    3    3    0    0  0.22411403423E+01  0.38372257302E+02 -0.83281523473E+01  0.39329517697E+02  0.51100000000E-03 0.  1.
         12    1    3    3    0    0  0.20421055962E+01 -0.21531204146E+01 -0.36492669922E+01  0.47035382816E+01  0.00000000000E+00 0. -1.
</event>
<event>
 7    1  0.1367281E-013  0.5052886E+02  0.7816164E-02  0.1300439E+00
        -11   -1    0    0    0    0  0.00000000000E+00  0.00000000000E+00  0.45593999997E+02  0.45594000000E+02  0.51100000000E-03 0. -1.
         11   -1    0    0    0    0 -0.00000000000E+00 -0.00000000000E+00 -0.45593999997E+02  0.45594000000E+02  0.51100000000E-03 0.  1.
    9900012    2    1    2    0    0 -0.28748422386E+01  0.84359798821E+01 -0.39670331159E+02  0.50528860207E+02  0.30000001084E+02 0.  0.
         12    1    1    2    0    0  0.28748422386E+01 -0.84359798821E+01  0.39670331159E+02  0.40659139793E+02  0.00000000000E+00 0. -1.
         11    1    3    3    0    0  0.28899186847E+01 -0.55983280686E+00 -0.13442480704E+02  0.13761007612E+02  0.51100000000E-03 0. -1.
        -11    1    3    3    0    0 -0.61733996802E+01  0.12112580419E+02 -0.29344805889E+02  0.32341043597E+02  0.51100000000E-03 0.  1.
         12    1    3    3    0    0  0.40863875692E+00 -0.31167677305E+01  0.31169554338E+01  0.44268089970E+01  0.00000000000E+00 0. -1.
</event>
<event>
 7    1  0.8697654E-014  0.5052885E+02  0.7816164E-02  0.1300439E+00
        -11   -1    0    0    0    0  0.00000000000E+00  0.00000000000E+00  0.45593999997E+02  0.45594000000E+02  0.51100000000E-03 0. -1.
         11   -1    0    0    0    0 -0.00000000000E+00 -0.00000000000E+00 -0.45593999997E+02  0.45594000000E+02  0.51100000000E-03 0.  1.
    9900012    2    1    2    0    0 -0.62631272539E+01 -0.11205019317E+02  0.38579617537E+02  0.50528854532E+02  0.29999983835E+02 0.  0.
        -12    1    1    2    0    0  0.62631272539E+01  0.11205019317E+02 -0.38579617537E+02  0.40659145468E+02  0.00000000000E+00 0.  1.
         11    1    3    3    0    0 -0.20557455884E+01 -0.88756493681E+00  0.15917322964E+02  0.16074048402E+02  0.51100000000E-03 0. -1.
        -11    1    3    3    0    0 -0.64514886088E+01  0.63675547787E+01  0.68950049944E+01  0.11388966295E+02  0.51100000000E-03 0.  1.
        -12    1    3    3    0    0  0.22441069434E+01 -0.16685009159E+02  0.15767289579E+02  0.23065839835E+02  0.00000000000E+00 0.  1.
</event>
<event>
 7    1  0.8697654E-014  0.5052886E+02  0.7816164E-02  0.1300439E+00
        -11   -1    0    0    0    0  0.00000000000E+00  0.00000000000E+00  0.45593999997E+02  0.45594000000E+02  0.51100000000E-03 0. -1.
         11   -1    0    0    0    0 -0.00000000000E+00 -0.00000000000E+00 -0.45593999997E+02  0.45594000000E+02  0.51100000000E-03 0.  1.
    9900012    2    1    2    0    0 -0.20398216318E+02  0.11793044547E+02 -0.33136125377E+02  0.50528856703E+02  0.29999990434E+02 0.  0.
         12    1    1    2    0    0  0.20398216318E+02 -0.11793044547E+02  0.33136125377E+02  0.40659143297E+02  0.00000000000E+00 0. -1.
         11    1    3    3    0    0  0.87348918643E+00  0.92548760833E+01 -0.45635244247E+01  0.10355745754E+02  0.51100000000E-03 0. -1.
        -11    1    3    3    0    0  0.14563673250E+01 -0.10440319892E+00 -0.11581512212E+02  0.11673188561E+02  0.51100000000E-03 0.  1.
        -12    1    3    3    0    0 -0.22728072830E+02  0.26425716625E+01 -0.16991088740E+02  0.28499922388E+02  0.00000000000E+00 0.  1.
</event>
<event>
 7    1  0.8697654E-014  0.5052886E+02  0.7816164E-02  0.1300439E+00
        -11   -1    0    0    0    0  0.00000000000E+00  0.00000000000E+00  0.45593999997E+02  0.45594000000E+02  0.51100000000E-03 0. -1.
         11   -1    0    0    0    0 -0.00000000000E+00 -0.00000000000E+00 -0.45593999997E+02  0.45594000000E+02  0.51100000000E-03 0.  1.
    9900012    2    1    2    0    0 -0.19949921682E+02  0.13744058559E+02  0.32653742507E+02  0.50528863013E+02  0.30000009615E+02 0.  0.
        -12    1    1    2    0    0  0.19949921682E+02 -0.13744058559E+02 -0.32653742507E+02  0.40659136987E+02  0.00000000000E+00 0.  1.
         11    1    3    3    0    0 -0.16526763906E+02  0.12358153179E+02  0.30207135785E+02  0.36583178208E+02  0.51100000000E-03 0. -1.
        -11    1    3    3    0    0  0.24733602140E+01  0.16910671841E+01  0.62439267162E+01  0.69255931203E+01  0.51100000000E-03 0.  1.
        -12    1    3    3    0    0 -0.58965179893E+01 -0.30516180437E+00 -0.37973199938E+01  0.70200916846E+01  0.00000000000E+00 0.  1.
</event>
<event>
 7    1  0.8697654E-014  0.5052887E+02  0.7816164E-02  0.1300439E+00
        -11   -1    0    0    0    0  0.00000000000E+00  0.00000000000E+00  0.45593999997E+02  0.45594000000E+02  0.51100000000E-03 0. -1.
         11   -1    0    0    0    0 -0.00000000000E+00 -0.00000000000E+00 -0.45593999997E+02  0.45594000000E+02  0.51100000000E-03 0.  1.
    9900012    2    1    2    0    0  0.12053125887E+02 -0.25880135582E+02  0.28950057366E+02  0.50528867165E+02  0.30000022234E+02 0.  0.
        -12    1    1    2    0    0 -0.12053125887E+02  0.25880135582E+02 -0.28950057366E+02  0.40659132835E+02  0.00000000000E+00 0.  1.
         11    1    3    3    0    0  0.89501356296E+01 -0.10029618569E+02  0.16200101696E+02  0.21050925672E+02  0.51100000000E-03 0. -1.
        -11    1    3    3    0    0  0.11228119979E+02 -0.13681515897E+02  0.11147395794E+02  0.20916954576E+02  0.51100000000E-03 0.  1.
        -12    1    3    3    0    0 -0.81251297210E+01 -0.21690011161E+01  0.16025598765E+01  0.85609869164E+01  0.00000000000E+00 0.  1.
</event>
<event>
 7    1  0.8697654E-014  0.5052887E+02  0.7816164E-02  0.1300439E+00
        -11   -1    0    0    0    0  0.00000000000E+00  0.00000000000E+00  0.45593999997E+02  0.45594000000E+02  0.51100000000E-03 0.  1.
         11   -1    0    0    0    0 -0.00000000000E+00 -0.00000000000E+00 -0.45593999997E+02  0.45594000000E+02  0.51100000000E-03 0. -1.
    9900012    2    1    2    0    0  0.39171809517E+02 -0.78404630044E+01  0.75671149010E+01  0.50528871273E+02  0.30000034720E+02 0.  0.
        -12    1    1    2    0    0 -0.39171809517E+02  0.78404630044E+01 -0.75671149010E+01  0.40659128727E+02  0.00000000000E+00 0.  1.
         11    1    3    3    0    0  0.74680958849E+01 -0.63083142464E+00 -0.75190585601E+01  0.10616338650E+02  0.51100000000E-03 0. -1.
        -11    1    3    3    0    0  0.10744323546E+02 -0.10911197909E+02  0.36141936106E+01  0.15733948137E+02  0.51100000000E-03 0.  1.
         12    1    3    3    0    0  0.20959390086E+02  0.37015663289E+01  0.11471979850E+02  0.24178584486E+02  0.00000000000E+00 0. -1.
</event>
<event>
 7    1  0.8697654E-014  0.5052888E+02  0.7816164E-02  0.1300439E+00
        -11   -1    0    0    0    0  0.00000000000E+00  0.00000000000E+00  0.45593999997E+02  0.45594000000E+02  0.51100000000E-03 0. -1.
         11   -1    0    0    0    0 -0.00000000000E+00 -0.00000000000E+00 -0.45593999997E+02  0.45594000000E+02  0.51100000000E-03 0.  1.
    9900012    2    1    2    0    0 -0.26828474093E+02 -0.25666502046E+02 -0.16571900474E+02  0.50528877595E+02  0.30000053937E+02 0.  0.
         12    1    1    2    0    0  0.26828474093E+02  0.25666502046E+02  0.16571900474E+02  0.40659122405E+02  0.00000000000E+00 0. -1.
         11    1    3    3    0    0 -0.13320637816E+02 -0.15457016739E+02 -0.11328642345E+02  0.23338742381E+02  0.51100000000E-03 0. -1.
        -11    1    3    3    0    0 -0.63725622345E+01 -0.40551924749E+01 -0.12966878111E+02  0.15006467394E+02  0.51100000000E-03 0.  1.
         12    1    3    3    0    0 -0.71352740433E+01 -0.61542928313E+01  0.77236199813E+01  0.12183667820E+02  0.00000000000E+00 0. -1.
</event>
<event>
 7    1  0.8697654E-014  0.5052895E+02  0.7816164E-02  0.1300438E+00
        -11   -1    0    0    0    0  0.00000000000E+00  0.00000000000E+00  0.45593999997E+02  0.45594000000E+02  0.51100000000E-03 0. -1.
         11   -1    0    0    0    0 -0.00000000000E+00 -0.00000000000E+00 -0.45593999997E+02  0.45594000000E+02  0.51100000000E-03 0.  1.
    9900012    2    1    2    0    0 -0.23457115125E+02 -0.93884269925E+01  0.31855610155E+02  0.50528945539E+02  0.30000260458E+02 0.  0.
        -12    1    1    2    0    0  0.23457115125E+02  0.93884269925E+01 -0.31855610155E+02  0.40659054461E+02  0.00000000000E+00 0.  1.
         11    1    3    3    0    0 -0.17601623880E+02 -0.12361674666E+02  0.25966720842E+02  0.33717929285E+02  0.51100000000E-03 0. -1.
        -11    1    3    3    0    0 -0.10206773373E+02  0.13145681256E+01  0.14775729282E+01  0.10396611663E+02  0.51100000000E-03 0.  1.
         12    1    3    3    0    0  0.43512821283E+01  0.16586795479E+01  0.44113163848E+01  0.64144045904E+01  0.00000000000E+00 0. -1.
</event>
<event>
 7    1  0.8697654E-014  0.5052887E+02  0.7816164E-02  0.1300439E+00
        -11   -1    0    0    0    0  0.00000000000E+00  0.00000000000E+00  0.45593999997E+02  0.45594000000E+02  0.51100000000E-03 0. -1.
         11   -1    0    0    0    0 -0.00000000000E+00 -0.00000000000E+00 -0.45593999997E+02  0.45594000000E+02  0.51100000000E-03 0.  1.
    9900012    2    1    2    0    0 -0.25011331735E+02  0.20479622881E+02 -0.24661376201E+02  0.50528866406E+02  0.30000019928E+02 0.  0.
         12    1    1    2    0    0  0.25011331735E+02 -0.20479622881E+02  0.24661376201E+02  0.40659133594E+02  0.00000000000E+00 0. -1.
         11    1    3    3    0    0 -0.18647311516E+02  0.14970322818E+02 -0.14103201420E+02  0.27762079940E+02  0.51100000000E-03 0. -1.
        -11    1    3    3    0    0 -0.16210694869E+01  0.11777371159E+02 -0.40420143806E+01  0.12556759861E+02  0.51100000000E-03 0.  1.
         12    1    3    3    0    0 -0.47429507315E+01 -0.62680710959E+01 -0.65161604000E+01  0.10210026604E+02  0.00000000000E+00 0. -1.
</event>
<event>
 7    1  0.8697654E-014  0.5052889E+02  0.7816164E-02  0.1300439E+00
        -11   -1    0    0    0    0  0.00000000000E+00  0.00000000000E+00  0.45593999997E+02  0.45594000000E+02  0.51100000000E-03 0. -1.
         11   -1    0    0    0    0 -0.00000000000E+00 -0.00000000000E+00 -0.45593999997E+02  0.45594000000E+02  0.51100000000E-03 0.  1.
    9900012    2    1    2    0    0  0.11816723391E+02  0.14581543893E+02 -0.36068082448E+02  0.50528893449E+02  0.30000102128E+02 0.  0.
         12    1    1    2    0    0 -0.11816723391E+02 -0.14581543893E+02  0.36068082448E+02  0.40659106551E+02  0.00000000000E+00 0. -1.
         11    1    3    3    0    0  0.83225497662E+01  0.53508815065E+01 -0.12115816022E+02  0.15642562630E+02  0.51100000000E-03 0. -1.
        -11    1    3    3    0    0  0.10457335580E+01  0.91456299461E+00 -0.25952385761E+02  0.25989542341E+02  0.51100000000E-03 0.  1.
         12    1    3    3    0    0  0.24484400667E+01  0.83160993923E+01  0.20001193350E+01  0.88967884777E+01  0.00000000000E+00 0. -1.
</event>
<event>
 7    1  0.8697654E-014  0.5052886E+02  0.7816164E-02  0.1300439E+00
        -11   -1    0    0    0    0  0.00000000000E+00  0.00000000000E+00  0.45593999997E+02  0.45594000000E+02  0.51100000000E-03 0. -1.
         11   -1    0    0    0    0 -0.00000000000E+00 -0.00000000000E+00 -0.45593999997E+02  0.45594000000E+02  0.51100000000E-03 0.  1.
    9900012    2    1    2    0    0 -0.29844358469E+02 -0.19591413301E+02 -0.19459102271E+02  0.50528857501E+02  0.29999992860E+02 0.  0.
         12    1    1    2    0    0  0.29844358469E+02  0.19591413301E+02  0.19459102271E+02  0.40659142499E+02  0.00000000000E+00 0. -1.
         11    1    3    3    0    0 -0.70140900864E+00 -0.52621774600E+01  0.12479474176E+01  0.54534263758E+01  0.51100000000E-03 0. -1.
        -11    1    3    3    0    0 -0.50501586725E+01 -0.99264866097E+01 -0.16972796130E+02  0.20300616930E+02  0.51100000000E-03 0.  1.
        -12    1    3    3    0    0 -0.24092790788E+02 -0.44027492312E+01 -0.37342535586E+01  0.24774814195E+02  0.00000000000E+00 0.  1.
</event>
<event>
 7    1  0.8697654E-014  0.5052886E+02  0.7816164E-02  0.1300439E+00
        -11   -1    0    0    0    0  0.00000000000E+00  0.00000000000E+00  0.45593999997E+02  0.45594000000E+02  0.51100000000E-03 0.  1.
         11   -1    0    0    0    0 -0.00000000000E+00 -0.00000000000E+00 -0.45593999997E+02  0.45594000000E+02  0.51100000000E-03 0. -1.
    9900012    2    1    2    0    0 -0.31722712767E+02 -0.80395015804E+01  0.24128852741E+02  0.50528860492E+02  0.30000001952E+02 0.  0.
        -12    1    1    2    0    0  0.31722712767E+02  0.80395015804E+01 -0.24128852741E+02  0.40659139508E+02  0.00000000000E+00 0.  1.
         11    1    3    3    0    0 -0.23679220462E+02  0.27489871222E+01  0.99617615356E+01  0.25836004046E+02  0.51100000000E-03 0. -1.
        -11    1    3    3    0    0 -0.98763286473E+01 -0.11923582321E+02  0.66106827481E+01  0.16834928262E+02  0.51100000000E-03 0.  1.
        -12    1    3    3    0    0  0.18328363429E+01  0.11350936188E+01  0.75564084570E+01  0.78579281845E+01  0.00000000000E+00 0.  1.
</event>
<event>
 7    1  0.8697654E-014  0.5052886E+02  0.7816164E-02  0.1300439E+00
        -11   -1    0    0    0    0  0.00000000000E+00  0.00000000000E+00  0.45593999997E+02  0.45594000000E+02  0.51100000000E-03 0. -1.
         11   -1    0    0    0    0 -0.00000000000E+00 -0.00000000000E+00 -0.45593999997E+02  0.45594000000E+02  0.51100000000E-03 0.  1.
    9900012    2    1    2    0    0 -0.10740229706E+01 -0.15166172202E+02  0.37709401792E+02  0.50528864641E+02  0.30000014563E+02 0.  0.
        -12    1    1    2    0    0  0.10740229706E+01  0.15166172202E+02 -0.37709401792E+02  0.40659135359E+02  0.00000000000E+00 0.  1.
         11    1    3    3    0    0 -0.54736548948E+01  0.33861869521E+01  0.11039359733E+02  0.12778678474E+02  0.51100000000E-03 0. -1.
        -11    1    3    3    0    0  0.79459531498E+01 -0.39018903023E+00  0.10515130268E+02  0.13185536916E+02  0.51100000000E-03 0.  1.
         12    1    3    3    0    0 -0.35463212255E+01 -0.18162170124E+02  0.16154911792E+02  0.24564649251E+02  0.00000000000E+00 0. -1.
</event>
<event>
 7    1  0.8697654E-014  0.5052884E+02  0.7816164E-02  0.1300439E+00
        -11   -1    0    0    0    0  0.00000000000E+00  0.00000000000E+00  0.45593999997E+02  0.45594000000E+02  0.51100000000E-03 0. -1.
         11   -1    0    0    0    0 -0.00000000000E+00 -0.00000000000E+00 -0.45593999997E+02  0.45594000000E+02  0.51100000000E-03 0.  1.
    9900012    2    1    2    0    0  0.12268006074E+02  0.48415227009E+00  0.38761175998E+02  0.50528841853E+02  0.29999945296E+02 0.  0.
        -12    1    1    2    0    0 -0.12268006074E+02 -0.48415227009E+00 -0.38761175998E+02  0.40659158147E+02  0.00000000000E+00 0.  1.
         11    1    3    3    0    0 -0.44984111465E+01  0.37440773680E+01  0.30248592948E+02  0.30809595806E+02  0.51100000000E-03 0. -1.
        -11    1    3    3    0    0  0.10731320598E+01 -0.15013124345E+01  0.15350605582E+00  0.18517871946E+01  0.51100000000E-03 0.  1.
         12    1    3    3    0    0  0.15693285160E+02 -0.17586126634E+01  0.83590769950E+01  0.17867458852E+02  0.00000000000E+00 0. -1.
</event>
<event>
 7    1  0.9199125E-014  0.5052885E+02  0.7816164E-02  0.1300439E+00
        -11   -1    0    0    0    0  0.00000000000E+00  0.00000000000E+00  0.45593999997E+02  0.45594000000E+02  0.51100000000E-03 0. -1.
         11   -1    0    0    0    0 -0.00000000000E+00 -0.00000000000E+00 -0.45593999997E+02  0.45594000000E+02  0.51100000000E-03 0.  1.
    9900012    2    1    2    0    0  0.17960332221E+02 -0.11805253866E+00 -0.36477107533E+02  0.50528845510E+02  0.29999956413E+02 0.  0.
         12    1    1    2    0    0 -0.17960332221E+02  0.11805253866E+00  0.36477107533E+02  0.40659154490E+02  0.00000000000E+00 0. -1.
         11    1    3    3    0    0  0.29833199753E+01 -0.39519045562E+01 -0.25019202601E+02  0.25504475033E+02  0.51100000000E-03 0. -1.
        -11    1    3    3    0    0  0.70982073992E+01  0.50385444299E+01 -0.14148772795E+02  0.16612021253E+02  0.51100000000E-03 0.  1.
         12    1    3    3    0    0  0.78788048462E+01 -0.12046924124E+01  0.26908678626E+01  0.84123492240E+01  0.00000000000E+00 0. -1.
</event>
<event>
 7    1  0.8697654E-014  0.5052887E+02  0.7816164E-02  0.1300439E+00
        -11   -1    0    0    0    0  0.00000000000E+00  0.00000000000E+00  0.45593999997E+02  0.45594000000E+02  0.51100000000E-03 0. -1.
         11   -1    0    0    0    0 -0.00000000000E+00 -0.00000000000E+00 -0.45593999997E+02  0.45594000000E+02  0.51100000000E-03 0.  1.
    9900012    2    1    2    0    0 -0.24178238781E+02  0.47669165619E+01  0.32339667000E+02  0.50528870819E+02  0.30000033342E+02 0.  0.
        -12    1    1    2    0    0  0.24178238781E+02 -0.47669165619E+01 -0.32339667000E+02  0.40659129181E+02  0.00000000000E+00 0.  1.
         11    1    3    3    0    0  0.35317951050E+00 -0.10580988711E+01  0.10614621059E+01  0.15398087709E+01  0.51100000000E-03 0.  1.
        -11    1    3    3    0    0 -0.27386799320E+02 -0.26992675125E+01  0.28409157847E+02  0.39552535595E+02  0.51100000000E-03 0. -1.
         12    1    3    3    0    0  0.28553810286E+01  0.85242829454E+01  0.28690470467E+01  0.94365264536E+01  0.00000000000E+00 0. -1.
</event>
<event>
 7    1  0.8697654E-014  0.5052886E+02  0.7816164E-02  0.1300439E+00
        -11   -1    0    0    0    0  0.00000000000E+00  0.00000000000E+00  0.45593999997E+02  0.45594000000E+02  0.51100000000E-03 0.  1.
         11   -1    0    0    0    0 -0.00000000000E+00 -0.00000000000E+00 -0.45593999997E+02  0.45594000000E+02  0.51100000000E-03 0. -1.
    9900012    2    1    2    0    0 -0.38145494637E+02  0.13862958596E+02  0.24300585019E+01  0.50528861219E+02  0.30000004160E+02 0.  0.
         12    1    1    2    0    0  0.38145494637E+02 -0.13862958596E+02 -0.24300585019E+01  0.40659138781E+02  0.00000000000E+00 0. -1.
         11    1    3    3    0    0  0.27775897610E+01 -0.72925987171E+00  0.83754212361E+00  0.29913712426E+01  0.51100000000E-03 0. -1.
        -11    1    3    3    0    0 -0.20903822347E+02 -0.13896260145E+01  0.54129624020E+01  0.21637953032E+02  0.51100000000E-03 0.  1.
         12    1    3    3    0    0 -0.20019262051E+02  0.15981844483E+02 -0.38204460237E+01  0.25899536945E+02  0.00000000000E+00 0. -1.
</event>
<event>
 7    1  0.8697654E-014  0.5052886E+02  0.7816164E-02  0.1300439E+00
        -11   -1    0    0    0    0  0.00000000000E+00  0.00000000000E+00  0.45593999997E+02  0.45594000000E+02  0.51100000000E-03 0. -1.
         11   -1    0    0    0    0 -0.00000000000E+00 -0.00000000000E+00 -0.45593999997E+02  0.45594000000E+02  0.51100000000E-03 0.  1.
    9900012    2    1    2    0    0  0.39990302657E+01 -0.95647871915E+01 -0.39315243858E+02  0.50528858387E+02  0.29999995553E+02 0.  0.
         12    1    1    2    0    0 -0.39990302657E+01  0.95647871915E+01  0.39315243858E+02  0.40659141613E+02  0.00000000000E+00 0. -1.
         11    1    3    3    0    0  0.63261184095E+01 -0.11808396313E+02 -0.20420572691E+02  0.24422485273E+02  0.51100000000E-03 0.  1.
        -11    1    3    3    0    0  0.42461530155E+01 -0.70084247787E+00  0.14365604637E+01  0.45370366801E+01  0.51100000000E-03 0. -1.
        -12    1    3    3    0    0 -0.65732411593E+01  0.29444515994E+01 -0.20331231631E+02  0.21569336433E+02  0.00000000000E+00 0.  1.
</event>
<event>
 7    1  0.8697654E-014  0.5052890E+02  0.7816164E-02  0.1300439E+00
        -11   -1    0    0    0    0  0.00000000000E+00  0.00000000000E+00  0.45593999997E+02  0.45594000000E+02  0.51100000000E-03 0.  1.
         11   -1    0    0    0    0 -0.00000000000E+00 -0.00000000000E+00 -0.45593999997E+02  0.45594000000E+02  0.51100000000E-03 0. -1.
    9900012    2    1    2    0    0 -0.12875512044E+02 -0.38564780100E+02  0.37584773873E+00  0.50528900944E+02  0.30000124908E+02 0.  0.
         12    1    1    2    0    0  0.12875512044E+02  0.38564780100E+02 -0.37584773873E+00  0.40659099056E+02  0.00000000000E+00 0. -1.
         11    1    3    3    0    0 -0.79647090815E+01 -0.17780957867E+01  0.19275215633E+01  0.83853178245E+01  0.51100000000E-03 0. -1.
        -11    1    3    3    0    0 -0.82593909148E+01 -0.56910606415E+01 -0.39417875865E+01  0.10776984696E+02  0.51100000000E-03 0.  1.
         12    1    3    3    0    0  0.33485879526E+01 -0.31095623672E+02  0.23901137619E+01  0.31366598423E+02  0.00000000000E+00 0. -1.
</event>
<event>
 7    1  0.8697654E-014  0.5052887E+02  0.7816164E-02  0.1300439E+00
        -11   -1    0    0    0    0  0.00000000000E+00  0.00000000000E+00  0.45593999997E+02  0.45594000000E+02  0.51100000000E-03 0. -1.
         11   -1    0    0    0    0 -0.00000000000E+00 -0.00000000000E+00 -0.45593999997E+02  0.45594000000E+02  0.51100000000E-03 0.  1.
    9900012    2    1    2    0    0  0.82788474907E+01 -0.18939085707E+02  0.35013378858E+02  0.50528868403E+02  0.30000025997E+02 0.  0.
        -12    1    1    2    0    0 -0.82788474907E+01  0.18939085707E+02 -0.35013378858E+02  0.40659131597E+02  0.00000000000E+00 0.  1.
         11    1    3    3    0    0  0.54929477401E+01 -0.19456896523E+01  0.68987079718E+01  0.90305235197E+01  0.51100000000E-03 0. -1.
        -11    1    3    3    0    0 -0.83723484333E+01 -0.31284025464E+01  0.20064315054E+02  0.21964968919E+02  0.51100000000E-03 0.  1.
         12    1    3    3    0    0  0.11158248184E+02 -0.13864993509E+02  0.80503558317E+01  0.19533375964E+02  0.00000000000E+00 0. -1.
</event>
<event>
 7    1  0.8697654E-014  0.5052885E+02  0.7816164E-02  0.1300439E+00
        -11   -1    0    0    0    0  0.00000000000E+00  0.00000000000E+00  0.45593999997E+02  0.45594000000E+02  0.51100000000E-03 0. -1.
         11   -1    0    0    0    0 -0.00000000000E+00 -0.00000000000E+00 -0.45593999997E+02  0.45594000000E+02  0.51100000000E-03 0.  1.
    9900012    2    1    2    0    0 -0.37574174794E+02  0.41888484338E+01  0.14959981485E+02  0.50528854550E+02  0.29999983891E+02 0.  0.
        -12    1    1    2    0    0  0.37574174794E+02 -0.41888484338E+01 -0.14959981485E+02  0.40659145450E+02  0.00000000000E+00 0.  1.
         11    1    3    3    0    0 -0.76604537320E+00 -0.60736897414E+01 -0.24097541428E+01  0.65790157226E+01  0.51100000000E-03 0. -1.
        -11    1    3    3    0    0 -0.51761839035E+01  0.44411667890E+01 -0.10267642753E+01  0.68971796692E+01  0.51100000000E-03 0.  1.
         12    1    3    3    0    0 -0.31631945517E+02  0.58213713862E+01  0.18396499903E+02  0.37052659159E+02  0.00000000000E+00 0. -1.
</event>
<event>
 7    1  0.8697654E-014  0.5052886E+02  0.7816164E-02  0.1300439E+00
        -11   -1    0    0    0    0  0.00000000000E+00  0.00000000000E+00  0.45593999997E+02  0.45594000000E+02  0.51100000000E-03 0. -1.
         11   -1    0    0    0    0 -0.00000000000E+00 -0.00000000000E+00 -0.45593999997E+02  0.45594000000E+02  0.51100000000E-03 0.  1.
    9900012    2    1    2    0    0 -0.16176414153E+02  0.61426592270E+00  0.37297612975E+02  0.50528860423E+02  0.30000001743E+02 0.  0.
        -12    1    1    2    0    0  0.16176414153E+02 -0.61426592270E+00 -0.37297612975E+02  0.40659139577E+02  0.00000000000E+00 0.  1.
         11    1    3    3    0    0  0.36305203971E+01  0.18532310453E+01 -0.30161569798E+01  0.50707343500E+01  0.51100000000E-03 0. -1.
        -11    1    3    3    0    0 -0.46937288191E+01 -0.23268607989E+01  0.61105313754E+01  0.80488486975E+01  0.51100000000E-03 0.  1.
         12    1    3    3    0    0 -0.15113205731E+02  0.10878956763E+01  0.34203238579E+02  0.37409277376E+02  0.00000000000E+00 0. -1.
</event>
<event>
 7    1  0.8697654E-014  0.5052886E+02  0.7816164E-02  0.1300439E+00
        -11   -1    0    0    0    0  0.00000000000E+00  0.00000000000E+00  0.45593999997E+02  0.45594000000E+02  0.51100000000E-03 0. -1.
         11   -1    0    0    0    0 -0.00000000000E+00 -0.00000000000E+00 -0.45593999997E+02  0.45594000000E+02  0.51100000000E-03 0.  1.
    9900012    2    1    2    0    0  0.14845629047E+02 -0.15544081562E+02  0.34513110294E+02  0.50528856433E+02  0.29999989615E+02 0.  0.
        -12    1    1    2    0    0 -0.14845629047E+02  0.15544081562E+02 -0.34513110294E+02  0.40659143567E+02  0.00000000000E+00 0.  1.
         11    1    3    3    0    0 -0.39317048556E+01 -0.51547790718E-01  0.50628639760E+01  0.64104252704E+01  0.51100000000E-03 0. -1.
        -11    1    3    3    0    0  0.78889654296E+01  0.48856268312E+01  0.52572474859E+01  0.10665072736E+02  0.51100000000E-03 0.  1.
         12    1    3    3    0    0  0.10888368473E+02 -0.20378160602E+02  0.24192998832E+02  0.33453358427E+02  0.00000000000E+00 0. -1.
</event>
<event>
 7    1  0.8697654E-014  0.5052886E+02  0.7816164E-02  0.1300439E+00
        -11   -1    0    0    0    0  0.00000000000E+00  0.00000000000E+00  0.45593999997E+02  0.45594000000E+02  0.51100000000E-03 0. -1.
         11   -1    0    0    0    0 -0.00000000000E+00 -0.00000000000E+00 -0.45593999997E+02  0.45594000000E+02  0.51100000000E-03 0.  1.
    9900012    2    1    2    0    0 -0.35446831889E+02  0.18882267178E+02  0.63362142303E+01  0.50528861845E+02  0.30000006065E+02 0.  0.
        -12    1    1    2    0    0  0.35446831889E+02 -0.18882267178E+02 -0.63362142303E+01  0.40659138155E+02  0.00000000000E+00 0.  1.
         11    1    3    3    0    0 -0.14591285278E+00 -0.31276284903E+01  0.39113589630E+01  0.50101975742E+01  0.51100000000E-03 0. -1.
        -11    1    3    3    0    0 -0.69232358434E+01  0.84703543202E+01  0.80433384661E+01  0.13578416358E+02  0.51100000000E-03 0.  1.
        -12    1    3    3    0    0 -0.28377683193E+02  0.13539541348E+02 -0.56184831988E+01  0.31940247913E+02  0.00000000000E+00 0.  1.
</event>
<event>
 7    1  0.8697654E-014  0.5052886E+02  0.7816164E-02  0.1300439E+00
        -11   -1    0    0    0    0  0.00000000000E+00  0.00000000000E+00  0.45593999997E+02  0.45594000000E+02  0.51100000000E-03 0. -1.
         11   -1    0    0    0    0 -0.00000000000E+00 -0.00000000000E+00 -0.45593999997E+02  0.45594000000E+02  0.51100000000E-03 0.  1.
    9900012    2    1    2    0    0  0.41152351338E+01  0.15216352999E+02 -0.37479238688E+02  0.50528857222E+02  0.29999992012E+02 0.  0.
         12    1    1    2    0    0 -0.41152351338E+01 -0.15216352999E+02  0.37479238688E+02  0.40659142778E+02  0.00000000000E+00 0. -1.
         11    1    3    3    0    0  0.73967283067E+01  0.15612780364E+01 -0.27514323065E+01  0.80448467200E+01  0.51100000000E-03 0. -1.
        -11    1    3    3    0    0 -0.14636506596E+00  0.10641908765E+02 -0.38751729431E+01  0.11326456219E+02  0.51100000000E-03 0.  1.
        -12    1    3    3    0    0 -0.31351281069E+01  0.30131661982E+01 -0.30852633438E+02  0.31157554283E+02  0.00000000000E+00 0.  1.
</event>
<event>
 7    1  0.8697654E-014  0.5052885E+02  0.7816164E-02  0.1300439E+00
        -11   -1    0    0    0    0  0.00000000000E+00  0.00000000000E+00  0.45593999997E+02  0.45594000000E+02  0.51100000000E-03 0. -1.
         11   -1    0    0    0    0 -0.00000000000E+00 -0.00000000000E+00 -0.45593999997E+02  0.45594000000E+02  0.51100000000E-03 0.  1.
    9900012    2    1    2    0    0  0.65499224633E+01 -0.19274437181E+02 -0.35196032678E+02  0.50528854299E+02  0.29999983126E+02 0.  0.
         12    1    1    2    0    0 -0.65499224633E+01  0.19274437181E+02  0.35196032678E+02  0.40659145701E+02  0.00000000000E+00 0. -1.
         11    1    3    3    0    0 -0.71269711122E+01 -0.84328845414E+01 -0.14732022097E+02  0.18410315974E+02  0.51100000000E-03 0. -1.
        -11    1    3    3    0    0  0.43694752601E+01  0.48392207763E+01 -0.54612956791E+01  0.85050645221E+01  0.51100000000E-03 0.  1.
        -12    1    3    3    0    0  0.93074183154E+01 -0.15680773415E+02 -0.15002714902E+02  0.23613473803E+02  0.00000000000E+00 0.  1.
</event>
<event>
 7    1  0.8697654E-014  0.5052885E+02  0.7816164E-02  0.1300439E+00
        -11   -1    0    0    0    0  0.00000000000E+00  0.00000000000E+00  0.45593999997E+02  0.45594000000E+02  0.51100000000E-03 0. -1.
         11   -1    0    0    0    0 -0.00000000000E+00 -0.00000000000E+00 -0.45593999997E+02  0.45594000000E+02  0.51100000000E-03 0.  1.
    9900012    2    1    2    0    0 -0.43808083668E+01  0.25077193427E+02  0.31703465687E+02  0.50528845451E+02  0.29999956232E+02 0.  0.
        -12    1    1    2    0    0  0.43808083668E+01 -0.25077193427E+02 -0.31703465687E+02  0.40659154549E+02  0.00000000000E+00 0.  1.
         11    1    3    3    0    0  0.35914655410E+00  0.19065168033E+02  0.23510965275E+02  0.30271688205E+02  0.51100000000E-03 0. -1.
        -11    1    3    3    0    0 -0.44467027032E+01  0.11650715282E+02  0.36020095282E+01  0.12980246701E+02  0.51100000000E-03 0.  1.
        -12    1    3    3    0    0 -0.29325221770E+00 -0.56386898882E+01  0.45904908838E+01  0.72769105446E+01  0.00000000000E+00 0.  1.
</event>
<event>
 7    1  0.8697654E-014  0.5052886E+02  0.7816164E-02  0.1300439E+00
        -11   -1    0    0    0    0  0.00000000000E+00  0.00000000000E+00  0.45593999997E+02  0.45594000000E+02  0.51100000000E-03 0. -1.
         11   -1    0    0    0    0 -0.00000000000E+00 -0.00000000000E+00 -0.45593999997E+02  0.45594000000E+02  0.51100000000E-03 0.  1.
    9900012    2    1    2    0    0  0.28284870752E+02  0.33611362499E+01  0.29014386182E+02  0.50528858890E+02  0.29999997081E+02 0.  0.
        -12    1    1    2    0    0 -0.28284870752E+02 -0.33611362499E+01 -0.29014386182E+02  0.40659141110E+02  0.00000000000E+00 0.  1.
         11    1    3    3    0    0  0.18321200427E+02 -0.54709071824E+01  0.15743445556E+02  0.24767989194E+02  0.51100000000E-03 0. -1.
        -11    1    3    3    0    0 -0.17760378059E+01  0.31094139821E+01  0.12133893781E+02  0.12651250695E+02  0.51100000000E-03 0.  1.
         12    1    3    3    0    0  0.11739708130E+02  0.57226294502E+01  0.11370468453E+01  0.13109619001E+02  0.00000000000E+00 0. -1.
</event>
<event>
 7    1  0.8697654E-014  0.5052883E+02  0.7816164E-02  0.1300439E+00
        -11   -1    0    0    0    0  0.00000000000E+00  0.00000000000E+00  0.45593999997E+02  0.45594000000E+02  0.51100000000E-03 0. -1.
         11   -1    0    0    0    0 -0.00000000000E+00 -0.00000000000E+00 -0.45593999997E+02  0.45594000000E+02  0.51100000000E-03 0.  1.
    9900012    2    1    2    0    0 -0.23072200533E+02 -0.15023119563E+02 -0.29919012995E+02  0.50528832554E+02  0.29999917031E+02 0.  0.
         12    1    1    2    0    0  0.23072200533E+02  0.15023119563E+02  0.29919012995E+02  0.40659167446E+02  0.00000000000E+00 0. -1.
         11    1    3    3    0    0 -0.49703202680E+00  0.44033919848E+01  0.11071441142E+01  0.45675672034E+01  0.51100000000E-03 0. -1.
        -11    1    3    3    0    0  0.17201827456E+01  0.10410597362E+01 -0.98587948185E+00  0.22393732754E+01  0.51100000000E-03 0.  1.
        -12    1    3    3    0    0 -0.24295351252E+02 -0.20467571284E+02 -0.30040277627E+02  0.43721892075E+02  0.00000000000E+00 0.  1.
</event>
<event>
 7    1  0.8697654E-014  0.5052886E+02  0.7816164E-02  0.1300439E+00
        -11   -1    0    0    0    0  0.00000000000E+00  0.00000000000E+00  0.45593999997E+02  0.45594000000E+02  0.51100000000E-03 0. -1.
         11   -1    0    0    0    0 -0.00000000000E+00 -0.00000000000E+00 -0.45593999997E+02  0.45594000000E+02  0.51100000000E-03 0.  1.
    9900012    2    1    2    0    0  0.14459834263E+02 -0.76982741839E+01  0.37213108544E+02  0.50528859824E+02  0.29999999922E+02 0.  0.
        -12    1    1    2    0    0 -0.14459834263E+02  0.76982741839E+01 -0.37213108544E+02  0.40659140176E+02  0.00000000000E+00 0.  1.
         11    1    3    3    0    0  0.12256738287E+02  0.46547981040E+01  0.13868628761E+02  0.19084906151E+02  0.51100000000E-03 0.  1.
        -11    1    3    3    0    0  0.90441548173E+01 -0.79824000761E+01  0.93380856158E+01  0.15255008704E+02  0.51100000000E-03 0. -1.
        -12    1    3    3    0    0 -0.68410588413E+01 -0.43706722118E+01  0.14006394167E+02  0.16188944969E+02  0.00000000000E+00 0.  1.
</event>
<event>
 7    1  0.8697654E-014  0.5052887E+02  0.7816164E-02  0.1300439E+00
        -11   -1    0    0    0    0  0.00000000000E+00  0.00000000000E+00  0.45593999997E+02  0.45594000000E+02  0.51100000000E-03 0. -1.
         11   -1    0    0    0    0 -0.00000000000E+00 -0.00000000000E+00 -0.45593999997E+02  0.45594000000E+02  0.51100000000E-03 0.  1.
    9900012    2    1    2    0    0 -0.44282733304E+01  0.71622167681E+01  0.39777605431E+02  0.50528870059E+02  0.30000031032E+02 0.  0.
        -12    1    1    2    0    0  0.44282733304E+01 -0.71622167681E+01 -0.39777605431E+02  0.40659129941E+02  0.00000000000E+00 0.  1.
         11    1    3    3    0    0 -0.11502126920E+02  0.11686366281E+02  0.16478195679E+02  0.23246526916E+02  0.51100000000E-03 0. -1.
        -11    1    3    3    0    0  0.67075508234E+00  0.36209145480E+01  0.44774747220E+01  0.57973023633E+01  0.51100000000E-03 0.  1.
        -12    1    3    3    0    0  0.64030985073E+01 -0.81450640613E+01  0.18821935030E+02  0.21485040780E+02  0.00000000000E+00 0.  1.
</event>
<event>
 7    1  0.8697654E-014  0.5052885E+02  0.7816164E-02  0.1300439E+00
        -11   -1    0    0    0    0  0.00000000000E+00  0.00000000000E+00  0.45593999997E+02  0.45594000000E+02  0.51100000000E-03 0. -1.
         11   -1    0    0    0    0 -0.00000000000E+00 -0.00000000000E+00 -0.45593999997E+02  0.45594000000E+02  0.51100000000E-03 0.  1.
    9900012    2    1    2    0    0  0.27858629886E+01 -0.28692923510E+02 -0.28672660019E+02  0.50528851894E+02  0.29999975817E+02 0.  0.
         12    1    1    2    0    0 -0.27858629886E+01  0.28692923510E+02  0.28672660019E+02  0.40659148106E+02  0.00000000000E+00 0. -1.
         11    1    3    3    0    0 -0.53927281686E+01 -0.22690739092E+02 -0.25792793597E+02  0.34773831532E+02  0.51100000000E-03 0. -1.
        -11    1    3    3    0    0  0.48369869598E+01  0.80961914188E+00 -0.58263735292E+01  0.76156782211E+01  0.51100000000E-03 0.  1.
        -12    1    3    3    0    0  0.33416041974E+01 -0.68118035596E+01  0.29465071070E+01  0.81393421404E+01  0.00000000000E+00 0.  1.
</event>
<event>
 7    1  0.8697654E-014  0.5052886E+02  0.7816164E-02  0.1300439E+00
        -11   -1    0    0    0    0  0.00000000000E+00  0.00000000000E+00  0.45593999997E+02  0.45594000000E+02  0.51100000000E-03 0. -1.
         11   -1    0    0    0    0 -0.00000000000E+00 -0.00000000000E+00 -0.45593999997E+02  0.45594000000E+02  0.51100000000E-03 0.  1.
    9900012    2    1    2    0    0 -0.19964713005E+02 -0.82093974050E+01  0.34455504794E+02  0.50528858571E+02  0.29999996112E+02 0.  0.
        -12    1    1    2    0    0  0.19964713005E+02  0.82093974050E+01 -0.34455504794E+02  0.40659141429E+02  0.00000000000E+00 0.  1.
         11    1    3    3    0    0  0.12495186324E+01  0.41849502267E+01  0.17277259598E+02  0.17820740856E+02  0.51100000000E-03 0.  1.
        -11    1    3    3    0    0 -0.13750442384E+01  0.15819484336E+01  0.52791080306E+01  0.56799902610E+01  0.51100000000E-03 0. -1.
         12    1    3    3    0    0 -0.19839187399E+02 -0.13976296065E+02  0.11899137166E+02  0.27028127454E+02  0.00000000000E+00 0. -1.
</event>
<event>
 7    1  0.8697654E-014  0.5052886E+02  0.7816164E-02  0.1300439E+00
        -11   -1    0    0    0    0  0.00000000000E+00  0.00000000000E+00  0.45593999997E+02  0.45594000000E+02  0.51100000000E-03 0. -1.
         11   -1    0    0    0    0 -0.00000000000E+00 -0.00000000000E+00 -0.45593999997E+02  0.45594000000E+02  0.51100000000E-03 0.  1.
    9900012    2    1    2    0    0  0.30863931441E+02 -0.20754547153E+02  0.16426575166E+02  0.50528857570E+02  0.29999993068E+02 0.  0.
        -12    1    1    2    0    0 -0.30863931441E+02  0.20754547153E+02 -0.16426575166E+02  0.40659142430E+02  0.00000000000E+00 0.  1.
         11    1    3    3    0    0  0.19451271810E+02 -0.45917311034E+01  0.96619253890E+01  0.22198846187E+02  0.51100000000E-03 0. -1.
        -11    1    3    3    0    0  0.14661311472E+02 -0.48038045069E+01  0.18675618613E+01  0.15540861604E+02  0.51100000000E-03 0.  1.
         12    1    3    3    0    0 -0.32486518411E+01 -0.11359011543E+02  0.48970879154E+01  0.12789149779E+02  0.00000000000E+00 0. -1.
</event>
<event>
 7    1  0.8697654E-014  0.5052900E+02  0.7816164E-02  0.1300438E+00
        -11   -1    0    0    0    0  0.00000000000E+00  0.00000000000E+00  0.45593999997E+02  0.45594000000E+02  0.51100000000E-03 0. -1.
         11   -1    0    0    0    0 -0.00000000000E+00 -0.00000000000E+00 -0.45593999997E+02  0.45594000000E+02  0.51100000000E-03 0.  1.
    9900012    2    1    2    0    0  0.20522061667E+02  0.13120362580E+02  0.32555417150E+02  0.50529002040E+02  0.30000432199E+02 0.  0.
        -12    1    1    2    0    0 -0.20522061667E+02 -0.13120362580E+02 -0.32555417150E+02  0.40658997960E+02  0.00000000000E+00 0.  1.
         11    1    3    3    0    0  0.79439476359E+01  0.13300673560E+02  0.13194632811E+02  0.20349755686E+02  0.51100000000E-03 0. -1.
        -11    1    3    3    0    0 -0.36704382685E+01  0.48152969559E+01  0.39091225810E+01  0.72069717268E+01  0.51100000000E-03 0.  1.
        -12    1    3    3    0    0  0.16248552299E+02 -0.49956079363E+01  0.15451661758E+02  0.22972274627E+02  0.00000000000E+00 0.  1.
</event>
<event>
 7    1  0.8697654E-014  0.5052886E+02  0.7816164E-02  0.1300439E+00
        -11   -1    0    0    0    0  0.00000000000E+00  0.00000000000E+00  0.45593999997E+02  0.45594000000E+02  0.51100000000E-03 0.  1.
         11   -1    0    0    0    0 -0.00000000000E+00 -0.00000000000E+00 -0.45593999997E+02  0.45594000000E+02  0.51100000000E-03 0. -1.
    9900012    2    1    2    0    0 -0.37600507203E+02 -0.12940266385E+02  0.84803725296E+01  0.50528863827E+02  0.30000012090E+02 0.  0.
         12    1    1    2    0    0  0.37600507203E+02  0.12940266385E+02 -0.84803725296E+01  0.40659136173E+02  0.00000000000E+00 0. -1.
         11    1    3    3    0    0 -0.10233175671E+01  0.51882309460E+01  0.77005562946E+01  0.93414927448E+01  0.51100000000E-03 0. -1.
        -11    1    3    3    0    0 -0.60030356398E+01 -0.35351562701E+01  0.21213645734E+01  0.72824415316E+01  0.51100000000E-03 0.  1.
         12    1    3    3    0    0 -0.30574153997E+02 -0.14593341061E+02 -0.13415483384E+01  0.33904929551E+02  0.00000000000E+00 0. -1.
</event>
<event>
 7    1  0.8697654E-014  0.5052883E+02  0.7816164E-02  0.1300439E+00
        -11   -1    0    0    0    0  0.00000000000E+00  0.00000000000E+00  0.45593999997E+02  0.45594000000E+02  0.51100000000E-03 0.  1.
         11   -1    0    0    0    0 -0.00000000000E+00 -0.00000000000E+00 -0.45593999997E+02  0.45594000000E+02  0.51100000000E-03 0. -1.
    9900012    2    1    2    0    0 -0.30085566381E+02  0.25475378083E+02 -0.99514631151E+01  0.50528833615E+02  0.29999920257E+02 0.  0.
         12    1    1    2    0    0  0.30085566381E+02 -0.25475378083E+02  0.99514631151E+01  0.40659166385E+02  0.00000000000E+00 0. -1.
         11    1    3    3    0    0 -0.99836116415E+00  0.26011089792E+01  0.61105233939E+01  0.67157270154E+01  0.51100000000E-03 0. -1.
        -11    1    3    3    0    0 -0.16307924784E+02  0.40802332166E+01 -0.16268275491E+01  0.16889146870E+02  0.51100000000E-03 0.  1.
        -12    1    3    3    0    0 -0.12779280433E+02  0.18794035888E+02 -0.14435158960E+02  0.26923959730E+02  0.00000000000E+00 0.  1.
</event>
<event>
 7    1  0.8697654E-014  0.5052886E+02  0.7816164E-02  0.1300439E+00
        -11   -1    0    0    0    0  0.00000000000E+00  0.00000000000E+00  0.45593999997E+02  0.45594000000E+02  0.51100000000E-03 0. -1.
         11   -1    0    0    0    0 -0.00000000000E+00 -0.00000000000E+00 -0.45593999997E+02  0.45594000000E+02  0.51100000000E-03 0.  1.
    9900012    2    1    2    0    0  0.12879433872E+02  0.78274597594E+01  0.37762638378E+02  0.50528858342E+02  0.29999995416E+02 0.  0.
        -12    1    1    2    0    0 -0.12879433872E+02 -0.78274597594E+01 -0.37762638378E+02  0.40659141658E+02  0.00000000000E+00 0.  1.
         11    1    3    3    0    0  0.42299992094E+01  0.15489368297E+01  0.88656082292E+01  0.99444008441E+01  0.51100000000E-03 0. -1.
        -11    1    3    3    0    0  0.17818048803E+01 -0.10180166454E+02  0.77295777422E+01  0.12905696029E+02  0.51100000000E-03 0.  1.
        -12    1    3    3    0    0  0.68676297822E+01  0.16458689384E+02  0.21167452406E+02  0.27678761468E+02  0.00000000000E+00 0.  1.
</event>
<event>
 7    1  0.8697654E-014  0.5052885E+02  0.7816164E-02  0.1300439E+00
        -11   -1    0    0    0    0  0.00000000000E+00  0.00000000000E+00  0.45593999997E+02  0.45594000000E+02  0.51100000000E-03 0. -1.
         11   -1    0    0    0    0 -0.00000000000E+00 -0.00000000000E+00 -0.45593999997E+02  0.45594000000E+02  0.51100000000E-03 0.  1.
    9900012    2    1    2    0    0 -0.28337351962E+02  0.28425928179E+01  0.29018623318E+02  0.50528851590E+02  0.29999974894E+02 0.  0.
        -12    1    1    2    0    0  0.28337351962E+02 -0.28425928179E+01 -0.29018623318E+02  0.40659148410E+02  0.00000000000E+00 0.  1.
         11    1    3    3    0    0 -0.18455296936E+02 -0.54721708918E+01  0.19809126141E+02  0.27621443083E+02  0.51100000000E-03 0. -1.
        -11    1    3    3    0    0 -0.65917278236E+01  0.68768394072E+01  0.13992051689E+02  0.16926881185E+02  0.51100000000E-03 0.  1.
        -12    1    3    3    0    0 -0.32903272022E+01  0.14379243025E+01 -0.47825545117E+01  0.59805273224E+01  0.00000000000E+00 0.  1.
</event>
<event>
 7    1  0.8697654E-014  0.5052877E+02  0.7816164E-02  0.1300439E+00
        -11   -1    0    0    0    0  0.00000000000E+00  0.00000000000E+00  0.45593999997E+02  0.45594000000E+02  0.51100000000E-03 0. -1.
         11   -1    0    0    0    0 -0.00000000000E+00 -0.00000000000E+00 -0.45593999997E+02  0.45594000000E+02  0.51100000000E-03 0.  1.
    9900012    2    1    2    0    0 -0.38435164786E+01 -0.95319663755E+01 -0.39338811648E+02  0.50528768529E+02  0.29999722420E+02 0.  0.
         12    1    1    2    0    0  0.38435164786E+01  0.95319663755E+01  0.39338811648E+02  0.40659231471E+02  0.00000000000E+00 0. -1.
         11    1    3    3    0    0 -0.23634416601E+01 -0.12647266144E+02 -0.13857642101E+02  0.18909612430E+02  0.51100000000E-03 0. -1.
        -11    1    3    3    0    0  0.72203189259E+01 -0.40003092300E+00 -0.42039103489E+01  0.83645617108E+01  0.51100000000E-03 0.  1.
        -12    1    3    3    0    0 -0.87003937445E+01  0.35153306914E+01 -0.21277259199E+02  0.23254594389E+02  0.00000000000E+00 0.  1.
</event>
<event>
 7    1  0.8697654E-014  0.5052885E+02  0.7816164E-02  0.1300439E+00
        -11   -1    0    0    0    0  0.00000000000E+00  0.00000000000E+00  0.45593999997E+02  0.45594000000E+02  0.51100000000E-03 0. -1.
         11   -1    0    0    0    0 -0.00000000000E+00 -0.00000000000E+00 -0.45593999997E+02  0.45594000000E+02  0.51100000000E-03 0.  1.
    9900012    2    1    2    0    0 -0.94204723104E+01  0.14142452511E+01 -0.39527467917E+02  0.50528854557E+02  0.29999983912E+02 0.  0.
         12    1    1    2    0    0  0.94204723104E+01 -0.14142452511E+01  0.39527467917E+02  0.40659145443E+02  0.00000000000E+00 0. -1.
         11    1    3    3    0    0  0.22740333000E+00  0.38293679892E+01 -0.30048664425E+02  0.30292540426E+02  0.51100000000E-03 0. -1.
        -11    1    3    3    0    0  0.39425512958E+01  0.35559907324E+00 -0.27520545301E+01  0.48211996244E+01  0.51100000000E-03 0.  1.
         12    1    3    3    0    0 -0.13590426936E+02 -0.27707218113E+01 -0.67267489627E+01  0.15415114507E+02  0.00000000000E+00 0. -1.
</event>
<event>
 7    1  0.8697654E-014  0.5052886E+02  0.7816164E-02  0.1300439E+00
        -11   -1    0    0    0    0  0.00000000000E+00  0.00000000000E+00  0.45593999997E+02  0.45594000000E+02  0.51100000000E-03 0. -1.
         11   -1    0    0    0    0 -0.00000000000E+00 -0.00000000000E+00 -0.45593999997E+02  0.45594000000E+02  0.51100000000E-03 0.  1.
    9900012    2    1    2    0    0  0.33551652626E+01 -0.22847380890E+02  0.33464991714E+02  0.50528860586E+02  0.30000002238E+02 0.  0.
        -12    1    1    2    0    0 -0.33551652626E+01  0.22847380890E+02 -0.33464991714E+02  0.40659139414E+02  0.00000000000E+00 0.  1.
         11    1    3    3    0    0  0.14703313048E+01  0.16540305784E+01 -0.12090203445E+01  0.25217893954E+01  0.51100000000E-03 0.  1.
        -11    1    3    3    0    0  0.42040041111E+01  0.26405034090E+01  0.17253396389E+01  0.52557307722E+01  0.51100000000E-03 0. -1.
         12    1    3    3    0    0 -0.23191701534E+01 -0.27141914877E+02  0.32948672419E+02  0.42751340419E+02  0.00000000000E+00 0. -1.
</event>
<event>
 7    1  0.8697654E-014  0.5052887E+02  0.7816164E-02  0.1300439E+00
        -11   -1    0    0    0    0  0.00000000000E+00  0.00000000000E+00  0.45593999997E+02  0.45594000000E+02  0.51100000000E-03 0. -1.
         11   -1    0    0    0    0 -0.00000000000E+00 -0.00000000000E+00 -0.45593999997E+02  0.45594000000E+02  0.51100000000E-03 0.  1.
    9900012    2    1    2    0    0 -0.24212477735E+02  0.20582047833E+02 -0.25363365228E+02  0.50528867364E+02  0.30000022838E+02 0.  0.
         12    1    1    2    0    0  0.24212477735E+02 -0.20582047833E+02  0.25363365228E+02  0.40659132636E+02  0.00000000000E+00 0. -1.
         11    1    3    3    0    0  0.17161015165E+01  0.10118908454E+01 -0.94631850799E+01  0.96706152656E+01  0.51100000000E-03 0. -1.
        -11    1    3    3    0    0 -0.27927120236E+02  0.13066287961E+02 -0.13130963129E+02  0.33512298022E+02  0.51100000000E-03 0.  1.
         12    1    3    3    0    0  0.19985409850E+01  0.65038690264E+01 -0.27692170194E+01  0.73459540757E+01  0.00000000000E+00 0. -1.
</event>
<event>
 7    1  0.8697654E-014  0.5052887E+02  0.7816164E-02  0.1300439E+00
        -11   -1    0    0    0    0  0.00000000000E+00  0.00000000000E+00  0.45593999997E+02  0.45594000000E+02  0.51100000000E-03 0. -1.
         11   -1    0    0    0    0 -0.00000000000E+00 -0.00000000000E+00 -0.45593999997E+02  0.45594000000E+02  0.51100000000E-03 0.  1.
    9900012    2    1    2    0    0 -0.26797784927E+02 -0.25764985096E+02  0.16468431530E+02  0.50528868540E+02  0.30000026414E+02 0.  0.
        -12    1    1    2    0    0  0.26797784927E+02  0.25764985096E+02 -0.16468431530E+02  0.40659131460E+02  0.00000000000E+00 0.  1.
         11    1    3    3    0    0 -0.28386479290E+01 -0.73910057589E+00  0.40366508595E+01  0.49898639409E+01  0.51100000000E-03 0.  1.
        -11    1    3    3    0    0 -0.25153501846E+02 -0.21510297411E+02  0.56137025935E+00  0.33101460491E+02  0.51100000000E-03 0. -1.
        -12    1    3    3    0    0  0.11943648474E+01 -0.35155871095E+01  0.11870410411E+02  0.12437544108E+02  0.00000000000E+00 0.  1.
</event>
<event>
 7    1  0.8697654E-014  0.5052887E+02  0.7816164E-02  0.1300439E+00
        -11   -1    0    0    0    0  0.00000000000E+00  0.00000000000E+00  0.45593999997E+02  0.45594000000E+02  0.51100000000E-03 0. -1.
         11   -1    0    0    0    0 -0.00000000000E+00 -0.00000000000E+00 -0.45593999997E+02  0.45594000000E+02  0.51100000000E-03 0.  1.
    9900012    2    1    2    0    0  0.15043177362E+00 -0.63257293351E+01  0.40163754888E+02  0.50528872021E+02  0.30000036995E+02 0.  0.
        -12    1    1    2    0    0 -0.15043177362E+00  0.63257293351E+01 -0.40163754888E+02  0.40659127979E+02  0.00000000000E+00 0.  1.
         11    1    3    3    0    0 -0.75255620694E+01 -0.88986136552E+01  0.81728968938E+01  0.14234312535E+02  0.51100000000E-03 0.  1.
        -11    1    3    3    0    0  0.99009703098E+01 -0.21787086068E+01  0.12418015871E+02  0.16030692521E+02  0.51100000000E-03 0. -1.
         12    1    3    3    0    0 -0.22249764667E+01  0.47515929269E+01  0.19572842123E+02  0.20263866965E+02  0.00000000000E+00 0. -1.
</event>
<event>
 7    1  0.8697654E-014  0.5052887E+02  0.7816164E-02  0.1300439E+00
        -11   -1    0    0    0    0  0.00000000000E+00  0.00000000000E+00  0.45593999997E+02  0.45594000000E+02  0.51100000000E-03 0.  1.
         11   -1    0    0    0    0 -0.00000000000E+00 -0.00000000000E+00 -0.45593999997E+02  0.45594000000E+02  0.51100000000E-03 0. -1.
    9900012    2    1    2    0    0  0.25407401267E+02 -0.12537493695E+02 -0.29162304283E+02  0.50528870910E+02  0.30000033617E+02 0.  0.
         12    1    1    2    0    0 -0.25407401267E+02  0.12537493695E+02  0.29162304283E+02  0.40659129090E+02  0.00000000000E+00 0. -1.
         11    1    3    3    0    0  0.19857281377E+00 -0.59711269076E+01  0.20874548646E+01  0.63286061484E+01  0.51100000000E-03 0. -1.
        -11    1    3    3    0    0  0.23554224538E+01 -0.44601263425E+01 -0.15669130139E+02  0.16460935013E+02  0.51100000000E-03 0.  1.
         12    1    3    3    0    0  0.22853405999E+02 -0.21062404448E+01 -0.15580629008E+02  0.27739329748E+02  0.00000000000E+00 0. -1.
</event>
<event>
 7    1  0.8697654E-014  0.5052886E+02  0.7816164E-02  0.1300439E+00
        -11   -1    0    0    0    0  0.00000000000E+00  0.00000000000E+00  0.45593999997E+02  0.45594000000E+02  0.51100000000E-03 0. -1.
         11   -1    0    0    0    0 -0.00000000000E+00 -0.00000000000E+00 -0.45593999997E+02  0.45594000000E+02  0.51100000000E-03 0.  1.
    9900012    2    1    2    0    0 -0.29679756522E+02 -0.49197183775E+01 -0.27350938491E+02  0.50528863112E+02  0.30000009916E+02 0.  0.
         12    1    1    2    0    0  0.29679756522E+02  0.49197183775E+01  0.27350938491E+02  0.40659136888E+02  0.00000000000E+00 0. -1.
         11    1    3    3    0    0 -0.98295362503E+00  0.70424209281E+01 -0.58974512483E+01  0.92380637498E+01  0.51100000000E-03 0. -1.
        -11    1    3    3    0    0 -0.15376831211E+02 -0.14233736322E+02 -0.17247792173E+02  0.27139132685E+02  0.51100000000E-03 0.  1.
         12    1    3    3    0    0 -0.13319971687E+02  0.22715970167E+01 -0.42056950691E+01  0.14151666678E+02  0.00000000000E+00 0. -1.
</event>
<event>
 7    1  0.8697654E-014  0.5052886E+02  0.7816164E-02  0.1300439E+00
        -11   -1    0    0    0    0  0.00000000000E+00  0.00000000000E+00  0.45593999997E+02  0.45594000000E+02  0.51100000000E-03 0. -1.
         11   -1    0    0    0    0 -0.00000000000E+00 -0.00000000000E+00 -0.45593999997E+02  0.45594000000E+02  0.51100000000E-03 0.  1.
    9900012    2    1    2    0    0 -0.44317462341E+01 -0.10871260261E+02 -0.38927381445E+02  0.50528859570E+02  0.29999999148E+02 0.  0.
         12    1    1    2    0    0  0.44317462341E+01  0.10871260261E+02  0.38927381445E+02  0.40659140430E+02  0.00000000000E+00 0. -1.
         11    1    3    3    0    0 -0.48075748242E+01 -0.29616132322E+01 -0.18405331268E+02  0.19252016725E+02  0.51100000000E-03 0.  1.
        -11    1    3    3    0    0  0.23891603128E+01 -0.15532187039E+02 -0.13397850021E+02  0.20650891184E+02  0.51100000000E-03 0. -1.
         12    1    3    3    0    0 -0.20133317227E+01  0.76225400106E+01 -0.71242001560E+01  0.10625951661E+02  0.00000000000E+00 0. -1.
</event>
<event>
 7    1  0.9754015E-014  0.5052886E+02  0.7816164E-02  0.1300439E+00
        -11   -1    0    0    0    0  0.00000000000E+00  0.00000000000E+00  0.45593999997E+02  0.45594000000E+02  0.51100000000E-03 0. -1.
         11   -1    0    0    0    0 -0.00000000000E+00 -0.00000000000E+00 -0.45593999997E+02  0.45594000000E+02  0.51100000000E-03 0.  1.
    9900012    2    1    2    0    0 -0.21042569801E+02 -0.15223605610E+02 -0.31282867727E+02  0.50528859271E+02  0.29999998240E+02 0.  0.
         12    1    1    2    0    0  0.21042569801E+02  0.15223605610E+02  0.31282867727E+02  0.40659140729E+02  0.00000000000E+00 0. -1.
         11    1    3    3    0    0 -0.16417581744E+02 -0.53367329167E+01 -0.13994866642E+02  0.22223276111E+02  0.51100000000E-03 0. -1.
        -11    1    3    3    0    0 -0.15754633841E+01 -0.49645498945E+01 -0.20861085384E+02  0.21501481906E+02  0.51100000000E-03 0.  1.
         12    1    3    3    0    0 -0.30495246732E+01 -0.49223227985E+01  0.35730842979E+01  0.68041012533E+01  0.00000000000E+00 0. -1.
</event>
<event>
 7    1  0.8697654E-014  0.5052886E+02  0.7816164E-02  0.1300439E+00
        -11   -1    0    0    0    0  0.00000000000E+00  0.00000000000E+00  0.45593999997E+02  0.45594000000E+02  0.51100000000E-03 0. -1.
         11   -1    0    0    0    0 -0.00000000000E+00 -0.00000000000E+00 -0.45593999997E+02  0.45594000000E+02  0.51100000000E-03 0.  1.
    9900012    2    1    2    0    0 -0.21317297994E+02  0.20197070762E+02 -0.28121469063E+02  0.50528857320E+02  0.29999992311E+02 0.  0.
         12    1    1    2    0    0  0.21317297994E+02 -0.20197070762E+02  0.28121469063E+02  0.40659142680E+02  0.00000000000E+00 0. -1.
         11    1    3    3    0    0  0.10544037355E+01  0.96487966756E+01 -0.49119497079E+01  0.10878340623E+02  0.51100000000E-03 0. -1.
        -11    1    3    3    0    0  0.39602255907E+00 -0.19079040944E+01 -0.10635433617E+02  0.10812464122E+02  0.51100000000E-03 0.  1.
         12    1    3    3    0    0 -0.22767724289E+02  0.12456178181E+02 -0.12574085738E+02  0.28838052575E+02  0.00000000000E+00 0. -1.
</event>
<event>
 7    1  0.8697654E-014  0.5052886E+02  0.7816164E-02  0.1300439E+00
        -11   -1    0    0    0    0  0.00000000000E+00  0.00000000000E+00  0.45593999997E+02  0.45594000000E+02  0.51100000000E-03 0. -1.
         11   -1    0    0    0    0 -0.00000000000E+00 -0.00000000000E+00 -0.45593999997E+02  0.45594000000E+02  0.51100000000E-03 0.  1.
    9900012    2    1    2    0    0  0.19757959234E+02  0.28370623172E+02 -0.21398519178E+02  0.50528857913E+02  0.29999994112E+02 0.  0.
         12    1    1    2    0    0 -0.19757959234E+02 -0.28370623172E+02  0.21398519178E+02  0.40659142087E+02  0.00000000000E+00 0. -1.
         11    1    3    3    0    0  0.23892853352E+02  0.15959321566E+02 -0.17743813082E+02  0.33769976149E+02  0.51100000000E-03 0. -1.
        -11    1    3    3    0    0  0.12992445486E+01  0.68457050751E+01 -0.53656128297E+01  0.87944025193E+01  0.51100000000E-03 0.  1.
        -12    1    3    3    0    0 -0.54341386664E+01  0.55655965304E+01  0.17109067342E+01  0.79644792446E+01  0.00000000000E+00 0.  1.
</event>
<event>
 7    1  0.8697654E-014  0.5052884E+02  0.7816164E-02  0.1300439E+00
        -11   -1    0    0    0    0  0.00000000000E+00  0.00000000000E+00  0.45593999997E+02  0.45594000000E+02  0.51100000000E-03 0. -1.
         11   -1    0    0    0    0 -0.00000000000E+00 -0.00000000000E+00 -0.45593999997E+02  0.45594000000E+02  0.51100000000E-03 0.  1.
    9900012    2    1    2    0    0 -0.45237396324E+00 -0.89074212105E+01 -0.39668888793E+02  0.50528837036E+02  0.29999930655E+02 0.  0.
         12    1    1    2    0    0  0.45237396324E+00  0.89074212105E+01  0.39668888793E+02  0.40659162964E+02  0.00000000000E+00 0. -1.
         11    1    3    3    0    0  0.14124088999E+01 -0.10205277146E+02 -0.15526690236E+02  0.18633858712E+02  0.51100000000E-03 0. -1.
        -11    1    3    3    0    0  0.20622496513E+01 -0.42675271813E+01 -0.24615026867E+02  0.25067193895E+02  0.51100000000E-03 0.  1.
         12    1    3    3    0    0 -0.39270325145E+01  0.55653831167E+01  0.47282830953E+00  0.68277844295E+01  0.00000000000E+00 0. -1.
</event>
<event>
 7    1  0.8697654E-014  0.5052887E+02  0.7816164E-02  0.1300439E+00
        -11   -1    0    0    0    0  0.00000000000E+00  0.00000000000E+00  0.45593999997E+02  0.45594000000E+02  0.51100000000E-03 0. -1.
         11   -1    0    0    0    0 -0.00000000000E+00 -0.00000000000E+00 -0.45593999997E+02  0.45594000000E+02  0.51100000000E-03 0.  1.
    9900012    2    1    2    0    0 -0.10452007615E+02  0.20886105084E+02  0.33281996261E+02  0.50528866661E+02  0.30000020704E+02 0.  0.
        -12    1    1    2    0    0  0.10452007615E+02 -0.20886105084E+02 -0.33281996261E+02  0.40659133339E+02  0.00000000000E+00 0.  1.
         11    1    3    3    0    0 -0.31700386250E+01  0.88129759178E+00  0.22102243351E+01  0.39637005691E+01  0.51100000000E-03 0. -1.
        -11    1    3    3    0    0 -0.13085922349E+02  0.66382088921E+01  0.30590338242E+01  0.14988824812E+02  0.51100000000E-03 0.  1.
        -12    1    3    3    0    0  0.58039533593E+01  0.13366598600E+02  0.28012738102E+02  0.31576341281E+02  0.00000000000E+00 0.  1.
</event>
<event>
 7    1  0.8697654E-014  0.5052886E+02  0.7816164E-02  0.1300439E+00
        -11   -1    0    0    0    0  0.00000000000E+00  0.00000000000E+00  0.45593999997E+02  0.45594000000E+02  0.51100000000E-03 0.  1.
         11   -1    0    0    0    0 -0.00000000000E+00 -0.00000000000E+00 -0.45593999997E+02  0.45594000000E+02  0.51100000000E-03 0. -1.
    9900012    2    1    2    0    0  0.18070712650E+02 -0.31541364946E+02  0.18214201235E+02  0.50528862221E+02  0.30000007206E+02 0.  0.
        -12    1    1    2    0    0 -0.18070712650E+02  0.31541364946E+02 -0.18214201235E+02  0.40659137779E+02  0.00000000000E+00 0.  1.
         11    1    3    3    0    0 -0.30049913961E+01 -0.24425450355E+01 -0.22989929326E+00  0.38792851773E+01  0.51100000000E-03 0. -1.
        -11    1    3    3    0    0  0.86131160120E+01  0.22599313272E+01  0.57324082008E+01  0.10590257838E+02  0.51100000000E-03 0.  1.
         12    1    3    3    0    0  0.12462588034E+02 -0.31358751238E+02  0.12711692327E+02  0.36059319205E+02  0.00000000000E+00 0. -1.
</event>
<event>
 7    1  0.8697654E-014  0.5052884E+02  0.7816164E-02  0.1300439E+00
        -11   -1    0    0    0    0  0.00000000000E+00  0.00000000000E+00  0.45593999997E+02  0.45594000000E+02  0.51100000000E-03 0.  1.
         11   -1    0    0    0    0 -0.00000000000E+00 -0.00000000000E+00 -0.45593999997E+02  0.45594000000E+02  0.51100000000E-03 0. -1.
    9900012    2    1    2    0    0  0.15688290095E+02 -0.32120239139E+02 -0.19373561663E+02  0.50528842361E+02  0.29999946839E+02 0.  0.
         12    1    1    2    0    0 -0.15688290095E+02  0.32120239139E+02  0.19373561663E+02  0.40659157639E+02  0.00000000000E+00 0. -1.
         11    1    3    3    0    0 -0.64789625971E+01 -0.12690428009E+02 -0.78428645642E+01  0.16264514878E+02  0.51100000000E-03 0. -1.
        -11    1    3    3    0    0  0.27467760144E+01 -0.78835310690E+01  0.10337713728E+01  0.84121058066E+01  0.51100000000E-03 0.  1.
        -12    1    3    3    0    0  0.19420476677E+02 -0.11546280062E+02 -0.12564468471E+02  0.25852221676E+02  0.00000000000E+00 0.  1.
</event>
<event>
 7    1  0.8697654E-014  0.5052886E+02  0.7816164E-02  0.1300439E+00
        -11   -1    0    0    0    0  0.00000000000E+00  0.00000000000E+00  0.45593999997E+02  0.45594000000E+02  0.51100000000E-03 0. -1.
         11   -1    0    0    0    0 -0.00000000000E+00 -0.00000000000E+00 -0.45593999997E+02  0.45594000000E+02  0.51100000000E-03 0.  1.
    9900012    2    1    2    0    0  0.90224338886E+00  0.32907314325E+01  0.40515710147E+02  0.50528859266E+02  0.29999998225E+02 0.  0.
        -12    1    1    2    0    0 -0.90224338886E+00 -0.32907314325E+01 -0.40515710147E+02  0.40659140734E+02  0.00000000000E+00 0.  1.
         11    1    3    3    0    0 -0.19677615501E+01 -0.80449061611E+00  0.22822582974E+02  0.22921378330E+02  0.51100000000E-03 0. -1.
        -11    1    3    3    0    0 -0.35971721030E+01  0.11082461556E+02  0.10333955190E+02  0.15574056357E+02  0.51100000000E-03 0.  1.
         12    1    3    3    0    0  0.64671770419E+01 -0.69872395077E+01  0.73591719830E+01  0.12033424579E+02  0.00000000000E+00 0. -1.
</event>
<event>
 7    1  0.8697654E-014  0.5052886E+02  0.7816164E-02  0.1300439E+00
        -11   -1    0    0    0    0  0.00000000000E+00  0.00000000000E+00  0.45593999997E+02  0.45594000000E+02  0.51100000000E-03 0. -1.
         11   -1    0    0    0    0 -0.00000000000E+00 -0.00000000000E+00 -0.45593999997E+02  0.45594000000E+02  0.51100000000E-03 0.  1.
    9900012    2    1    2    0    0  0.57722260495E+01 -0.20092198783E+02  0.34873350045E+02  0.50528860943E+02  0.30000003322E+02 0.  0.
        -12    1    1    2    0    0 -0.57722260495E+01  0.20092198783E+02 -0.34873350045E+02  0.40659139057E+02  0.00000000000E+00 0.  1.
         11    1    3    3    0    0 -0.64003285902E+01 -0.13015142742E+01  0.15957804941E-01  0.65313398611E+01  0.51100000000E-03 0. -1.
        -11    1    3    3    0    0  0.60888307000E+01 -0.55047989139E+01  0.26420959724E+01  0.86230703212E+01  0.51100000000E-03 0.  1.
         12    1    3    3    0    0  0.60837239396E+01 -0.13285885595E+02  0.32215296267E+02  0.35374450761E+02  0.00000000000E+00 0. -1.
</event>
<event>
 7    1  0.8697654E-014  0.5052886E+02  0.7816164E-02  0.1300439E+00
        -11   -1    0    0    0    0  0.00000000000E+00  0.00000000000E+00  0.45593999997E+02  0.45594000000E+02  0.51100000000E-03 0. -1.
         11   -1    0    0    0    0 -0.00000000000E+00 -0.00000000000E+00 -0.45593999997E+02  0.45594000000E+02  0.51100000000E-03 0.  1.
    9900012    2    1    2    0    0  0.36372307122E+01 -0.16463369983E+01 -0.40462645311E+02  0.50528861564E+02  0.30000005210E+02 0.  0.
         12    1    1    2    0    0 -0.36372307122E+01  0.16463369983E+01  0.40462645311E+02  0.40659138436E+02  0.00000000000E+00 0. -1.
         11    1    3    3    0    0 -0.15532884200E+01 -0.67579428592E+00 -0.22094087190E+02  0.22158928040E+02  0.51100000000E-03 0. -1.
        -11    1    3    3    0    0  0.21299610751E+01 -0.40952839633E+01 -0.22126807355E+02  0.22603178734E+02  0.51100000000E-03 0.  1.
         12    1    3    3    0    0  0.30605580571E+01  0.31247412509E+01  0.37582492336E+01  0.57667547900E+01  0.00000000000E+00 0. -1.
</event>
<event>
 7    1  0.8697654E-014  0.5052886E+02  0.7816164E-02  0.1300439E+00
        -11   -1    0    0    0    0  0.00000000000E+00  0.00000000000E+00  0.45593999997E+02  0.45594000000E+02  0.51100000000E-03 0. -1.
         11   -1    0    0    0    0 -0.00000000000E+00 -0.00000000000E+00 -0.45593999997E+02  0.45594000000E+02  0.51100000000E-03 0.  1.
    9900012    2    1    2    0    0  0.22870392671E+02 -0.32742847335E+01  0.33457280765E+02  0.50528862803E+02  0.30000008976E+02 0.  0.
        -12    1    1    2    0    0 -0.22870392671E+02  0.32742847335E+01 -0.33457280765E+02  0.40659137197E+02  0.00000000000E+00 0.  1.
         11    1    3    3    0    0 -0.38298400539E+01 -0.53075028077E+01  0.16905052861E+02  0.18127825943E+02  0.51100000000E-03 0. -1.
        -11    1    3    3    0    0  0.50817522733E+01 -0.26280756523E+01  0.38749944567E+01  0.69098892974E+01  0.51100000000E-03 0.  1.
         12    1    3    3    0    0  0.21618480451E+02  0.46612937266E+01  0.12677233446E+02  0.25491147563E+02  0.00000000000E+00 0. -1.
</event>
<event>
 7    1  0.8697654E-014  0.5052886E+02  0.7816164E-02  0.1300439E+00
        -11   -1    0    0    0    0  0.00000000000E+00  0.00000000000E+00  0.45593999997E+02  0.45594000000E+02  0.51100000000E-03 0. -1.
         11   -1    0    0    0    0 -0.00000000000E+00 -0.00000000000E+00 -0.45593999997E+02  0.45594000000E+02  0.51100000000E-03 0.  1.
    9900012    2    1    2    0    0  0.89972387817E+01 -0.23802377372E+02  0.31712176620E+02  0.50528860557E+02  0.30000002149E+02 0.  0.
        -12    1    1    2    0    0 -0.89972387817E+01  0.23802377372E+02 -0.31712176620E+02  0.40659139443E+02  0.00000000000E+00 0.  1.
         11    1    3    3    0    0 -0.51975433697E+01 -0.74608989168E+00  0.69700597422E+01  0.87265594754E+01  0.51100000000E-03 0.  1.
        -11    1    3    3    0    0  0.67890411996E+01 -0.13556646914E+02  0.25571679000E+02  0.29728513637E+02  0.51100000000E-03 0. -1.
         12    1    3    3    0    0  0.74057409518E+01 -0.94996405666E+01 -0.82956212135E+00  0.12073787444E+02  0.00000000000E+00 0. -1.
</event>
<event>
 7    1  0.8697654E-014  0.5052888E+02  0.7816164E-02  0.1300439E+00
        -11   -1    0    0    0    0  0.00000000000E+00  0.00000000000E+00  0.45593999997E+02  0.45594000000E+02  0.51100000000E-03 0. -1.
         11   -1    0    0    0    0 -0.00000000000E+00 -0.00000000000E+00 -0.45593999997E+02  0.45594000000E+02  0.51100000000E-03 0.  1.
    9900012    2    1    2    0    0 -0.62305499122E+01  0.22941891651E+02 -0.32985057764E+02  0.50528878263E+02  0.30000055967E+02 0.  0.
         12    1    1    2    0    0  0.62305499122E+01 -0.22941891651E+02  0.32985057764E+02  0.40659121737E+02  0.00000000000E+00 0. -1.
         11    1    3    3    0    0 -0.82063218487E+00  0.38602262509E+01 -0.62059048580E+00  0.39949864459E+01  0.51100000000E-03 0. -1.
        -11    1    3    3    0    0 -0.12898984722E+02  0.77854020216E+00 -0.17694099973E+02  0.21910525001E+02  0.51100000000E-03 0.  1.
        -12    1    3    3    0    0  0.74890669948E+01  0.18303125198E+02 -0.14670367305E+02  0.24623366816E+02  0.00000000000E+00 0.  1.
</event>
<event>
 7    1  0.8697654E-014  0.5052887E+02  0.7816164E-02  0.1300439E+00
        -11   -1    0    0    0    0  0.00000000000E+00  0.00000000000E+00  0.45593999997E+02  0.45594000000E+02  0.51100000000E-03 0.  1.
         11   -1    0    0    0    0 -0.00000000000E+00 -0.00000000000E+00 -0.45593999997E+02  0.45594000000E+02  0.51100000000E-03 0. -1.
    9900012    2    1    2    0    0  0.83513963953E+01  0.25563121960E+02  0.30495018602E+02  0.50528865902E+02  0.30000018396E+02 0.  0.
        -12    1    1    2    0    0 -0.83513963953E+01 -0.25563121960E+02 -0.30495018602E+02  0.40659134098E+02  0.00000000000E+00 0.  1.
         11    1    3    3    0    0  0.54939264279E+01  0.72407800737E+01  0.12894361739E+02  0.15775826082E+02  0.51100000000E-03 0. -1.
        -11    1    3    3    0    0 -0.68656123766E+01  0.16468991453E+02  0.17296513211E+02  0.24850224995E+02  0.51100000000E-03 0.  1.
         12    1    3    3    0    0  0.97230823440E+01  0.18533504331E+01  0.30414365223E+00  0.99028148249E+01  0.00000000000E+00 0. -1.
</event>
<event>
 7    1  0.8697654E-014  0.5052888E+02  0.7816164E-02  0.1300439E+00
        -11   -1    0    0    0    0  0.00000000000E+00  0.00000000000E+00  0.45593999997E+02  0.45594000000E+02  0.51100000000E-03 0. -1.
         11   -1    0    0    0    0 -0.00000000000E+00 -0.00000000000E+00 -0.45593999997E+02  0.45594000000E+02  0.51100000000E-03 0.  1.
    9900012    2    1    2    0    0 -0.32339440782E+02  0.81103331934E+01  0.23271171935E+02  0.50528875836E+02  0.30000048590E+02 0.  0.
        -12    1    1    2    0    0  0.32339440782E+02 -0.81103331934E+01 -0.23271171935E+02  0.40659124164E+02  0.00000000000E+00 0.  1.
         11    1    3    3    0    0 -0.16309057974E+02  0.51987502981E+01  0.13152544087E+02  0.21587074671E+02  0.51100000000E-03 0. -1.
        -11    1    3    3    0    0 -0.88435445302E+01  0.12335105450E+02  0.45330257907E+01  0.15840184008E+02  0.51100000000E-03 0.  1.
        -12    1    3    3    0    0 -0.71868382784E+01 -0.94235225546E+01  0.55856020570E+01  0.13101617157E+02  0.00000000000E+00 0.  1.
</event>
<event>
 7    1  0.8697654E-014  0.5052887E+02  0.7816164E-02  0.1300439E+00
        -11   -1    0    0    0    0  0.00000000000E+00  0.00000000000E+00  0.45593999997E+02  0.45594000000E+02  0.51100000000E-03 0. -1.
         11   -1    0    0    0    0 -0.00000000000E+00 -0.00000000000E+00 -0.45593999997E+02  0.45594000000E+02  0.51100000000E-03 0.  1.
    9900012    2    1    2    0    0 -0.12221391917E+02 -0.11241421824E+02 -0.37113782347E+02  0.50528870335E+02  0.30000031870E+02 0.  0.
         12    1    1    2    0    0  0.12221391917E+02  0.11241421824E+02  0.37113782347E+02  0.40659129665E+02  0.00000000000E+00 0. -1.
         11    1    3    3    0    0  0.48229299609E+01 -0.74087154575E+01 -0.14734527931E+01  0.89621862028E+01  0.51100000000E-03 0. -1.
        -11    1    3    3    0    0 -0.67752452835E+01 -0.21454597599E+01 -0.37794862371E+01  0.80493144249E+01  0.51100000000E-03 0.  1.
         12    1    3    3    0    0 -0.10269076595E+02 -0.16872466065E+01 -0.31860843317E+02  0.33517369707E+02  0.00000000000E+00 0. -1.
</event>
<event>
 7    1  0.8697654E-014  0.5052885E+02  0.7816164E-02  0.1300439E+00
        -11   -1    0    0    0    0  0.00000000000E+00  0.00000000000E+00  0.45593999997E+02  0.45594000000E+02  0.51100000000E-03 0.  1.
         11   -1    0    0    0    0 -0.00000000000E+00 -0.00000000000E+00 -0.45593999997E+02  0.45594000000E+02  0.51100000000E-03 0. -1.
    9900012    2    1    2    0    0 -0.40250816139E+02 -0.53761155789E+01  0.20335515606E+01  0.50528854036E+02  0.29999982327E+02 0.  0.
        -12    1    1    2    0    0  0.40250816139E+02  0.53761155789E+01 -0.20335515606E+01  0.40659145964E+02  0.00000000000E+00 0.  1.
         11    1    3    3    0    0 -0.21037112132E+02 -0.48717810369E+01 -0.90590019393E+01  0.23417084654E+02  0.51100000000E-03 0. -1.
        -11    1    3    3    0    0 -0.21577089235E+02 -0.19760130734E+01  0.11061175872E+02  0.24327454027E+02  0.51100000000E-03 0.  1.
         12    1    3    3    0    0  0.23633852279E+01  0.14716785313E+01  0.31377628344E-01  0.27843153540E+01  0.00000000000E+00 0. -1.
</event>
<event>
 7    1  0.8697654E-014  0.5052886E+02  0.7816164E-02  0.1300439E+00
        -11   -1    0    0    0    0  0.00000000000E+00  0.00000000000E+00  0.45593999997E+02  0.45594000000E+02  0.51100000000E-03 0. -1.
         11   -1    0    0    0    0 -0.00000000000E+00 -0.00000000000E+00 -0.45593999997E+02  0.45594000000E+02  0.51100000000E-03 0.  1.
    9900012    2    1    2    0    0  0.19672514046E+02  0.11928489014E+02 -0.33524160424E+02  0.50528855995E+02  0.29999988283E+02 0.  0.
         12    1    1    2    0    0 -0.19672514046E+02 -0.11928489014E+02  0.33524160424E+02  0.40659144005E+02  0.00000000000E+00 0. -1.
         11    1    3    3    0    0  0.65857748167E+01  0.15178600409E+02 -0.13699387059E+02  0.21481050867E+02  0.51100000000E-03 0. -1.
        -11    1    3    3    0    0 -0.22196406232E+01  0.37814095036E+01 -0.42575307591E+01  0.61116635015E+01  0.51100000000E-03 0.  1.
         12    1    3    3    0    0  0.15306379852E+02 -0.70315208990E+01 -0.15567242606E+02  0.22936141626E+02  0.00000000000E+00 0. -1.
</event>
<event>
 7    1  0.8697654E-014  0.5052886E+02  0.7816164E-02  0.1300439E+00
        -11   -1    0    0    0    0  0.00000000000E+00  0.00000000000E+00  0.45593999997E+02  0.45594000000E+02  0.51100000000E-03 0. -1.
         11   -1    0    0    0    0 -0.00000000000E+00 -0.00000000000E+00 -0.45593999997E+02  0.45594000000E+02  0.51100000000E-03 0.  1.
    9900012    2    1    2    0    0  0.82871501885E+01 -0.23615165815E+02 -0.32043915947E+02  0.50528862479E+02  0.30000007993E+02 0.  0.
         12    1    1    2    0    0 -0.82871501885E+01  0.23615165815E+02  0.32043915947E+02  0.40659137521E+02  0.00000000000E+00 0. -1.
         11    1    3    3    0    0  0.12241837227E+02 -0.20475427794E+02 -0.30804750083E+02  0.38962011626E+02  0.51100000000E-03 0.  1.
        -11    1    3    3    0    0 -0.24328303225E+01  0.27712095188E+01 -0.34745910464E+01  0.50666605152E+01  0.51100000000E-03 0. -1.
        -12    1    3    3    0    0 -0.15218567159E+01 -0.59109475403E+01  0.22354251826E+01  0.65001903384E+01  0.00000000000E+00 0.  1.
</event>
<event>
 7    1  0.8697654E-014  0.5052883E+02  0.7816164E-02  0.1300439E+00
        -11   -1    0    0    0    0  0.00000000000E+00  0.00000000000E+00  0.45593999997E+02  0.45594000000E+02  0.51100000000E-03 0. -1.
         11   -1    0    0    0    0 -0.00000000000E+00 -0.00000000000E+00 -0.45593999997E+02  0.45594000000E+02  0.51100000000E-03 0.  1.
    9900012    2    1    2    0    0  0.60283224836E+01  0.35775335828E+02  0.18356282138E+02  0.50528826133E+02  0.29999897515E+02 0.  0.
        -12    1    1    2    0    0 -0.60283224836E+01 -0.35775335828E+02 -0.18356282138E+02  0.40659173867E+02  0.00000000000E+00 0.  1.
         11    1    3    3    0    0 -0.27542021754E+01 -0.22193646998E+01  0.30437699094E+01  0.46664488442E+01  0.51100000000E-03 0. -1.
        -11    1    3    3    0    0 -0.57484340875E+01  0.10800007143E+02  0.61684730255E+01  0.13701631599E+02  0.51100000000E-03 0.  1.
        -12    1    3    3    0    0  0.14530958747E+02  0.27194693385E+02  0.91440392034E+01  0.32160745690E+02  0.00000000000E+00 0.  1.
</event>
<event>
 7    1  0.8697654E-014  0.5052886E+02  0.7816164E-02  0.1300439E+00
        -11   -1    0    0    0    0  0.00000000000E+00  0.00000000000E+00  0.45593999997E+02  0.45594000000E+02  0.51100000000E-03 0.  1.
         11   -1    0    0    0    0 -0.00000000000E+00 -0.00000000000E+00 -0.45593999997E+02  0.45594000000E+02  0.51100000000E-03 0. -1.
    9900012    2    1    2    0    0  0.27412932587E+02  0.32512301792E+00  0.30026502789E+02  0.50528862678E+02  0.30000008597E+02 0.  0.
        -12    1    1    2    0    0 -0.27412932587E+02 -0.32512301792E+00 -0.30026502789E+02  0.40659137322E+02  0.00000000000E+00 0.  1.
         11    1    3    3    0    0  0.15754733814E+02 -0.29484944966E+01  0.98797801357E+00  0.16058684820E+02  0.51100000000E-03 0. -1.
        -11    1    3    3    0    0 -0.20563793828E+01 -0.13534901963E+01  0.56033056191E+00  0.25247975121E+01  0.51100000000E-03 0.  1.
         12    1    3    3    0    0  0.13714578156E+02  0.46271077108E+01  0.28478194214E+02  0.31945380346E+02  0.00000000000E+00 0. -1.
</event>
<event>
 7    1  0.8697654E-014  0.5052887E+02  0.7816164E-02  0.1300439E+00
        -11   -1    0    0    0    0  0.00000000000E+00  0.00000000000E+00  0.45593999997E+02  0.45594000000E+02  0.51100000000E-03 0. -1.
         11   -1    0    0    0    0 -0.00000000000E+00 -0.00000000000E+00 -0.45593999997E+02  0.45594000000E+02  0.51100000000E-03 0.  1.
    9900012    2    1    2    0    0 -0.19803757868E+02 -0.35022872110E+02  0.58630060197E+01  0.50528865281E+02  0.30000016507E+02 0.  0.
        -12    1    1    2    0    0  0.19803757868E+02  0.35022872110E+02 -0.58630060197E+01  0.40659134719E+02  0.00000000000E+00 0.  1.
         11    1    3    3    0    0 -0.87704429224E+01 -0.11329428353E+02 -0.71228306356E+01  0.16000354133E+02  0.51100000000E-03 0. -1.
        -11    1    3    3    0    0  0.50407773886E+01 -0.32975737960E+01  0.25700099198E+01  0.65489221152E+01  0.51100000000E-03 0.  1.
         12    1    3    3    0    0 -0.16074092334E+02 -0.20395869961E+02  0.10415826735E+02  0.27979589033E+02  0.00000000000E+00 0. -1.
</event>
<event>
 7    1  0.8697654E-014  0.5052882E+02  0.7816164E-02  0.1300439E+00
        -11   -1    0    0    0    0  0.00000000000E+00  0.00000000000E+00  0.45593999997E+02  0.45594000000E+02  0.51100000000E-03 0.  1.
         11   -1    0    0    0    0 -0.00000000000E+00 -0.00000000000E+00 -0.45593999997E+02  0.45594000000E+02  0.51100000000E-03 0. -1.
    9900012    2    1    2    0    0  0.84025125790E+01  0.38932424553E+02 -0.81751410601E+01  0.50528821079E+02  0.29999882150E+02 0.  0.
        -12    1    1    2    0    0 -0.84025125790E+01 -0.38932424553E+02  0.81751410601E+01  0.40659178921E+02  0.00000000000E+00 0.  1.
         11    1    3    3    0    0  0.32231367472E+00  0.11002852555E+02 -0.30407613435E+01  0.11419845895E+02  0.51100000000E-03 0. -1.
        -11    1    3    3    0    0  0.72629894653E+01  0.86395581760E+01 -0.13899672405E+02  0.17905135427E+02  0.51100000000E-03 0.  1.
        -12    1    3    3    0    0  0.81720943891E+00  0.19290013822E+02  0.87652926879E+01  0.21203839757E+02  0.00000000000E+00 0.  1.
</event>
<event>
 7    1  0.8697654E-014  0.5052886E+02  0.7816164E-02  0.1300439E+00
        -11   -1    0    0    0    0  0.00000000000E+00  0.00000000000E+00  0.45593999997E+02  0.45594000000E+02  0.51100000000E-03 0. -1.
         11   -1    0    0    0    0 -0.00000000000E+00 -0.00000000000E+00 -0.45593999997E+02  0.45594000000E+02  0.51100000000E-03 0.  1.
    9900012    2    1    2    0    0  0.24818825151E+02  0.31660234785E+02  0.59009415785E+01  0.50528860067E+02  0.30000000660E+02 0.  0.
         12    1    1    2    0    0 -0.24818825151E+02 -0.31660234785E+02 -0.59009415785E+01  0.40659139933E+02  0.00000000000E+00 0. -1.
         11    1    3    3    0    0  0.28053572360E+01  0.68370095243E+01 -0.54291135621E+01  0.91700601300E+01  0.51100000000E-03 0. -1.
        -11    1    3    3    0    0  0.22611243432E+02  0.26055866895E+02  0.49726535624E+01  0.34855470344E+02  0.51100000000E-03 0.  1.
         12    1    3    3    0    0 -0.59777551668E+00 -0.12326416343E+01  0.63574015782E+01  0.65033295929E+01  0.00000000000E+00 0. -1.
</event>
<event>
 7    1  0.8697654E-014  0.5052891E+02  0.7816164E-02  0.1300439E+00
        -11   -1    0    0    0    0  0.00000000000E+00  0.00000000000E+00  0.45593999997E+02  0.45594000000E+02  0.51100000000E-03 0.  1.
         11   -1    0    0    0    0 -0.00000000000E+00 -0.00000000000E+00 -0.45593999997E+02  0.45594000000E+02  0.51100000000E-03 0. -1.
    9900012    2    1    2    0    0 -0.18784293068E+02  0.31134878111E+02 -0.18191511442E+02  0.50528912583E+02  0.30000160288E+02 0.  0.
         12    1    1    2    0    0  0.18784293068E+02 -0.31134878111E+02  0.18191511442E+02  0.40659087417E+02  0.00000000000E+00 0. -1.
         11    1    3    3    0    0  0.15692998176E+01 -0.13159630564E+01  0.16193177567E+01  0.26108716823E+01  0.51100000000E-03 0. -1.
        -11    1    3    3    0    0 -0.19597931748E+01  0.55516642584E+01 -0.13497089813E+02  0.14725257179E+02  0.51100000000E-03 0.  1.
         12    1    3    3    0    0 -0.18393799710E+02  0.26899176909E+02 -0.63137393858E+01  0.33192783722E+02  0.00000000000E+00 0. -1.
</event>
<event>
 7    1  0.8697654E-014  0.5052893E+02  0.7816164E-02  0.1300439E+00
        -11   -1    0    0    0    0  0.00000000000E+00  0.00000000000E+00  0.45593999997E+02  0.45594000000E+02  0.51100000000E-03 0. -1.
         11   -1    0    0    0    0 -0.00000000000E+00 -0.00000000000E+00 -0.45593999997E+02  0.45594000000E+02  0.51100000000E-03 0.  1.
    9900012    2    1    2    0    0  0.30384993236E+02 -0.18065318363E+02  0.20088709153E+02  0.50528932414E+02  0.30000220566E+02 0.  0.
        -12    1    1    2    0    0 -0.30384993236E+02  0.18065318363E+02 -0.20088709153E+02  0.40659067586E+02  0.00000000000E+00 0.  1.
         11    1    3    3    0    0  0.11232685663E+02 -0.16068342220E+02  0.13776377603E+02  0.23961498890E+02  0.51100000000E-03 0. -1.
        -11    1    3    3    0    0 -0.23857712180E+01 -0.15937456905E+01 -0.19785394175E+01  0.34851898253E+01  0.51100000000E-03 0.  1.
         12    1    3    3    0    0  0.21538078791E+02 -0.40323045159E+00  0.82908709672E+01  0.23082243699E+02  0.00000000000E+00 0. -1.
</event>
<event>
 7    1  0.8697654E-014  0.5052883E+02  0.7816164E-02  0.1300439E+00
        -11   -1    0    0    0    0  0.00000000000E+00  0.00000000000E+00  0.45593999997E+02  0.45594000000E+02  0.51100000000E-03 0.  1.
         11   -1    0    0    0    0 -0.00000000000E+00 -0.00000000000E+00 -0.45593999997E+02  0.45594000000E+02  0.51100000000E-03 0. -1.
    9900012    2    1    2    0    0 -0.28419056683E+02  0.16404787219E+02 -0.24008509101E+02  0.50528827164E+02  0.29999900648E+02 0.  0.
         12    1    1    2    0    0  0.28419056683E+02 -0.16404787219E+02  0.24008509101E+02  0.40659172836E+02  0.00000000000E+00 0. -1.
         11    1    3    3    0    0 -0.43919111875E+00 -0.18313366719E+01  0.14795819769E+01  0.23949626160E+01  0.51100000000E-03 0. -1.
        -11    1    3    3    0    0 -0.10986189236E+01  0.13284280316E+02 -0.63395142119E+01  0.14760369500E+02  0.51100000000E-03 0.  1.
         12    1    3    3    0    0 -0.26881246641E+02  0.49518435743E+01 -0.19148576866E+02  0.33373495048E+02  0.00000000000E+00 0. -1.
</event>
<event>
 7    1  0.8697654E-014  0.5052886E+02  0.7816164E-02  0.1300439E+00
        -11   -1    0    0    0    0  0.00000000000E+00  0.00000000000E+00  0.45593999997E+02  0.45594000000E+02  0.51100000000E-03 0. -1.
         11   -1    0    0    0    0 -0.00000000000E+00 -0.00000000000E+00 -0.45593999997E+02  0.45594000000E+02  0.51100000000E-03 0.  1.
    9900012    2    1    2    0    0  0.13438050309E+02  0.29740815625E+02  0.24250126879E+02  0.50528856332E+02  0.29999989308E+02 0.  0.
        -12    1    1    2    0    0 -0.13438050309E+02 -0.29740815625E+02 -0.24250126879E+02  0.40659143668E+02  0.00000000000E+00 0.  1.
         11    1    3    3    0    0  0.17396876594E+02  0.16603648804E+02  0.10066905658E+02  0.26070578410E+02  0.51100000000E-03 0. -1.
        -11    1    3    3    0    0  0.32424214619E+01 -0.19988286460E+00  0.69332582819E+01  0.76565867565E+01  0.51100000000E-03 0.  1.
         12    1    3    3    0    0 -0.72012477470E+01  0.13337049685E+02  0.72499629391E+01  0.16801691166E+02  0.00000000000E+00 0. -1.
</event>
<event>
 7    1  0.1217914E-013  0.5052886E+02  0.7816164E-02  0.1300439E+00
        -11   -1    0    0    0    0  0.00000000000E+00  0.00000000000E+00  0.45593999997E+02  0.45594000000E+02  0.51100000000E-03 0. -1.
         11   -1    0    0    0    0 -0.00000000000E+00 -0.00000000000E+00 -0.45593999997E+02  0.45594000000E+02  0.51100000000E-03 0.  1.
    9900012    2    1    2    0    0  0.19942883124E+02  0.23322267565E+02 -0.26674317890E+02  0.50528856052E+02  0.29999988456E+02 0.  0.
         12    1    1    2    0    0 -0.19942883124E+02 -0.23322267565E+02  0.26674317890E+02  0.40659143948E+02  0.00000000000E+00 0. -1.
         11    1    3    3    0    0  0.14425009223E+02  0.96642709028E+01 -0.12739581550E+02  0.21535458237E+02  0.51100000000E-03 0. -1.
        -11    1    3    3    0    0  0.65050329250E+01  0.18755692582E+02 -0.88813553000E+01  0.21747871846E+02  0.51100000000E-03 0.  1.
         12    1    3    3    0    0 -0.98715902337E+00 -0.50976959201E+01 -0.50533810404E+01  0.72455259692E+01  0.00000000000E+00 0. -1.
</event>
<event>
 7    1  0.8697654E-014  0.5052886E+02  0.7816164E-02  0.1300439E+00
        -11   -1    0    0    0    0  0.00000000000E+00  0.00000000000E+00  0.45593999997E+02  0.45594000000E+02  0.51100000000E-03 0. -1.
         11   -1    0    0    0    0 -0.00000000000E+00 -0.00000000000E+00 -0.45593999997E+02  0.45594000000E+02  0.51100000000E-03 0.  1.
    9900012    2    1    2    0    0 -0.24866404940E+00  0.21429037607E+02 -0.34552858376E+02  0.50528861931E+02  0.30000006326E+02 0.  0.
         12    1    1    2    0    0  0.24866404940E+00 -0.21429037607E+02  0.34552858376E+02  0.40659138069E+02  0.00000000000E+00 0. -1.
         11    1    3    3    0    0 -0.21003727544E+01  0.91986703729E+01 -0.10545186398E+02  0.14150196421E+02  0.51100000000E-03 0. -1.
        -11    1    3    3    0    0  0.44912098642E+01  0.61854412934E+01 -0.27757797478E+02  0.28791074504E+02  0.51100000000E-03 0.  1.
         12    1    3    3    0    0 -0.26395011592E+01  0.60449259407E+01  0.37501255000E+01  0.75875910053E+01  0.00000000000E+00 0. -1.
</event>
<event>
 7    1  0.8697654E-014  0.5052885E+02  0.7816164E-02  0.1300439E+00
        -11   -1    0    0    0    0  0.00000000000E+00  0.00000000000E+00  0.45593999997E+02  0.45594000000E+02  0.51100000000E-03 0. -1.
         11   -1    0    0    0    0 -0.00000000000E+00 -0.00000000000E+00 -0.45593999997E+02  0.45594000000E+02  0.51100000000E-03 0.  1.
    9900012    2    1    2    0    0  0.27226649616E+02  0.10016554381E+02 -0.28487617658E+02  0.50528853786E+02  0.29999981568E+02 0.  0.
         12    1    1    2    0    0 -0.27226649616E+02 -0.10016554381E+02  0.28487617658E+02  0.40659146214E+02  0.00000000000E+00 0. -1.
         11    1    3    3    0    0  0.64608977662E+01 -0.96051276340E+01 -0.48834659601E+01  0.12563833685E+02  0.51100000000E-03 0. -1.
        -11    1    3    3    0    0  0.91161613881E+01  0.49373479701E+01 -0.48358735279E+01  0.11439732360E+02  0.51100000000E-03 0.  1.
        -12    1    3    3    0    0  0.11649590462E+02  0.14684334045E+02 -0.18768278170E+02  0.26525287741E+02  0.00000000000E+00 0.  1.
</event>
<event>
 7    1  0.9649537E-014  0.5052886E+02  0.7816164E-02  0.1300439E+00
        -11   -1    0    0    0    0  0.00000000000E+00  0.00000000000E+00  0.45593999997E+02  0.45594000000E+02  0.51100000000E-03 0. -1.
         11   -1    0    0    0    0 -0.00000000000E+00 -0.00000000000E+00 -0.45593999997E+02  0.45594000000E+02  0.51100000000E-03 0.  1.
    9900012    2    1    2    0    0 -0.79500519146E+01  0.20213689217E+02 -0.34371053837E+02  0.50528857128E+02  0.29999991726E+02 0.  0.
         12    1    1    2    0    0  0.79500519146E+01 -0.20213689217E+02  0.34371053837E+02  0.40659142872E+02  0.00000000000E+00 0. -1.
         11    1    3    3    0    0  0.45405397558E+00  0.43391159611E+01 -0.16482471306E+02  0.17050101259E+02  0.51100000000E-03 0. -1.
        -11    1    3    3    0    0 -0.15583818366E+02  0.76315892216E+01 -0.10435660964E+02  0.20248446087E+02  0.51100000000E-03 0.  1.
         12    1    3    3    0    0  0.71797124762E+01  0.82429840345E+01 -0.74529215675E+01  0.13230309782E+02  0.00000000000E+00 0. -1.
</event>
<event>
 7    1  0.8697654E-014  0.5052885E+02  0.7816164E-02  0.1300439E+00
        -11   -1    0    0    0    0  0.00000000000E+00  0.00000000000E+00  0.45593999997E+02  0.45594000000E+02  0.51100000000E-03 0. -1.
         11   -1    0    0    0    0 -0.00000000000E+00 -0.00000000000E+00 -0.45593999997E+02  0.45594000000E+02  0.51100000000E-03 0.  1.
    9900012    2    1    2    0    0  0.18820841773E+02  0.10097030528E+02 -0.34597575450E+02  0.50528851736E+02  0.29999975337E+02 0.  0.
         12    1    1    2    0    0 -0.18820841773E+02 -0.10097030528E+02  0.34597575450E+02  0.40659148264E+02  0.00000000000E+00 0. -1.
         11    1    3    3    0    0  0.31325014960E+01 -0.42959195335E+01 -0.13581124941E+00  0.53184523329E+01  0.51100000000E-03 0. -1.
        -11    1    3    3    0    0 -0.12529394461E+01  0.55320571263E+01 -0.21191842879E+02  0.21937814799E+02  0.51100000000E-03 0.  1.
        -12    1    3    3    0    0  0.16941279723E+02  0.88608929348E+01 -0.13269921322E+02  0.23272584604E+02  0.00000000000E+00 0.  1.
</event>
<event>
 7    1  0.8697654E-014  0.5052886E+02  0.7816164E-02  0.1300439E+00
        -11   -1    0    0    0    0  0.00000000000E+00  0.00000000000E+00  0.45593999997E+02  0.45594000000E+02  0.51100000000E-03 0. -1.
         11   -1    0    0    0    0 -0.00000000000E+00 -0.00000000000E+00 -0.45593999997E+02  0.45594000000E+02  0.51100000000E-03 0.  1.
    9900012    2    1    2    0    0  0.10314922388E+02  0.51771284031E+00  0.39325559647E+02  0.50528864593E+02  0.30000014417E+02 0.  0.
        -12    1    1    2    0    0 -0.10314922388E+02 -0.51771284031E+00 -0.39325559647E+02  0.40659135407E+02  0.00000000000E+00 0.  1.
         11    1    3    3    0    0 -0.19422795163E+01  0.68914906717E+01  0.68140371121E+01  0.98841385777E+01  0.51100000000E-03 0. -1.
        -11    1    3    3    0    0 -0.43684691534E+01 -0.55490733677E-01  0.10333292194E+01  0.44893620374E+01  0.51100000000E-03 0.  1.
         12    1    3    3    0    0  0.16625671057E+02 -0.63182870977E+01  0.31478193316E+02  0.36155363978E+02  0.00000000000E+00 0. -1.
</event>
<event>
 7    1  0.8697654E-014  0.5052886E+02  0.7816164E-02  0.1300439E+00
        -11   -1    0    0    0    0  0.00000000000E+00  0.00000000000E+00  0.45593999997E+02  0.45594000000E+02  0.51100000000E-03 0. -1.
         11   -1    0    0    0    0 -0.00000000000E+00 -0.00000000000E+00 -0.45593999997E+02  0.45594000000E+02  0.51100000000E-03 0.  1.
    9900012    2    1    2    0    0 -0.10612555377E+02 -0.96537835905E+01 -0.38043974118E+02  0.50528857904E+02  0.29999994086E+02 0.  0.
         12    1    1    2    0    0  0.10612555377E+02  0.96537835905E+01  0.38043974118E+02  0.40659142096E+02  0.00000000000E+00 0. -1.
         11    1    3    3    0    0 -0.55396795474E+01 -0.14386015509E+02 -0.23512663047E+02  0.28115668506E+02  0.51100000000E-03 0.  1.
        -11    1    3    3    0    0 -0.75112113468E+01 -0.16254092202E+01 -0.16757252377E+01  0.78656408743E+01  0.51100000000E-03 0. -1.
        -12    1    3    3    0    0  0.24383355177E+01  0.63576411385E+01 -0.12855585834E+02  0.14547548525E+02  0.00000000000E+00 0.  1.
</event>
<event>
 7    1  0.8697654E-014  0.5052888E+02  0.7816164E-02  0.1300439E+00
        -11   -1    0    0    0    0  0.00000000000E+00  0.00000000000E+00  0.45593999997E+02  0.45594000000E+02  0.51100000000E-03 0. -1.
         11   -1    0    0    0    0 -0.00000000000E+00 -0.00000000000E+00 -0.45593999997E+02  0.45594000000E+02  0.51100000000E-03 0.  1.
    9900012    2    1    2    0    0 -0.93902313821E+01  0.22381688242E+02  0.32619743031E+02  0.50528879875E+02  0.30000060867E+02 0.  0.
        -12    1    1    2    0    0  0.93902313821E+01 -0.22381688242E+02 -0.32619743031E+02  0.40659120125E+02  0.00000000000E+00 0.  1.
         11    1    3    3    0    0 -0.62258934200E+01  0.61903938695E+01  0.22183795782E+02  0.23857986518E+02  0.51100000000E-03 0. -1.
        -11    1    3    3    0    0  0.66258906797E+01  0.62782710634E+01  0.87364371404E+01  0.12635048437E+02  0.51100000000E-03 0.  1.
        -12    1    3    3    0    0 -0.97902286418E+01  0.99130233094E+01  0.16995101082E+01  0.14035844919E+02  0.00000000000E+00 0.  1.
</event>
<event>
 7    1  0.8697654E-014  0.5052891E+02  0.7816164E-02  0.1300439E+00
        -11   -1    0    0    0    0  0.00000000000E+00  0.00000000000E+00  0.45593999997E+02  0.45594000000E+02  0.51100000000E-03 0. -1.
         11   -1    0    0    0    0 -0.00000000000E+00 -0.00000000000E+00 -0.45593999997E+02  0.45594000000E+02  0.51100000000E-03 0.  1.
    9900012    2    1    2    0    0  0.24678489456E+02 -0.19380139785E+01  0.32254887055E+02  0.50528911484E+02  0.30000156946E+02 0.  0.
        -12    1    1    2    0    0 -0.24678489456E+02  0.19380139785E+01 -0.32254887055E+02  0.40659088516E+02  0.00000000000E+00 0.  1.
         11    1    3    3    0    0  0.21589153510E+02 -0.22854901687E+01  0.35211675154E+02  0.41366376225E+02  0.51100000000E-03 0. -1.
        -11    1    3    3    0    0  0.52708921203E+01  0.50356470552E+00  0.22715052762E+00  0.52997621437E+01  0.51100000000E-03 0.  1.
        -12    1    3    3    0    0 -0.21815561740E+01 -0.15608851528E+00 -0.31839386261E+01  0.38627731152E+01  0.00000000000E+00 0.  1.
</event>
<event>
 7    1  0.8697654E-014  0.5052885E+02  0.7816164E-02  0.1300439E+00
        -11   -1    0    0    0    0  0.00000000000E+00  0.00000000000E+00  0.45593999997E+02  0.45594000000E+02  0.51100000000E-03 0. -1.
         11   -1    0    0    0    0 -0.00000000000E+00 -0.00000000000E+00 -0.45593999997E+02  0.45594000000E+02  0.51100000000E-03 0.  1.
    9900012    2    1    2    0    0  0.13958511187E+02  0.33454312419E+02  0.18415619145E+02  0.50528854872E+02  0.29999984870E+02 0.  0.
        -12    1    1    2    0    0 -0.13958511187E+02 -0.33454312419E+02 -0.18415619145E+02  0.40659145128E+02  0.00000000000E+00 0.  1.
         11    1    3    3    0    0  0.48871659861E+01  0.73662897340E+00  0.19026100789E+01  0.52959360828E+01  0.51100000000E-03 0. -1.
        -11    1    3    3    0    0 -0.98334991295E+00  0.14222836289E+02 -0.50243717923E+01  0.15116228409E+02  0.51100000000E-03 0.  1.
         12    1    3    3    0    0  0.10054695114E+02  0.18494847157E+02  0.21537380859E+02  0.30116690380E+02  0.00000000000E+00 0. -1.
</event>
<event>
 7    1  0.8697654E-014  0.5052885E+02  0.7816164E-02  0.1300439E+00
        -11   -1    0    0    0    0  0.00000000000E+00  0.00000000000E+00  0.45593999997E+02  0.45594000000E+02  0.51100000000E-03 0. -1.
         11   -1    0    0    0    0 -0.00000000000E+00 -0.00000000000E+00 -0.45593999997E+02  0.45594000000E+02  0.51100000000E-03 0.  1.
    9900012    2    1    2    0    0  0.62528593519E+01 -0.11662905216E+02 -0.38445350664E+02  0.50528848560E+02  0.29999965682E+02 0.  0.
         12    1    1    2    0    0 -0.62528593519E+01  0.11662905216E+02  0.38445350664E+02  0.40659151440E+02  0.00000000000E+00 0. -1.
         11    1    3    3    0    0  0.36888826280E+01  0.10688749506E+01  0.94382582572E+00  0.39548901569E+01  0.51100000000E-03 0. -1.
        -11    1    3    3    0    0 -0.69284052782E+01  0.15786439527E+01 -0.16449451200E+02  0.17918687493E+02  0.51100000000E-03 0.  1.
        -12    1    3    3    0    0  0.94923820021E+01 -0.14310424119E+02 -0.22939725289E+02  0.28655270910E+02  0.00000000000E+00 0.  1.
</event>
<event>
 7    1  0.8697654E-014  0.5052886E+02  0.7816164E-02  0.1300439E+00
        -11   -1    0    0    0    0  0.00000000000E+00  0.00000000000E+00  0.45593999997E+02  0.45594000000E+02  0.51100000000E-03 0. -1.
         11   -1    0    0    0    0 -0.00000000000E+00 -0.00000000000E+00 -0.45593999997E+02  0.45594000000E+02  0.51100000000E-03 0.  1.
    9900012    2    1    2    0    0  0.14029204929E+02 -0.12925607368E+02 -0.35906486808E+02  0.50528859432E+02  0.29999998730E+02 0.  0.
         12    1    1    2    0    0 -0.14029204929E+02  0.12925607368E+02  0.35906486808E+02  0.40659140568E+02  0.00000000000E+00 0. -1.
         11    1    3    3    0    0  0.10947572084E+00 -0.29193733308E+01  0.11517653386E+01  0.31402689748E+01  0.51100000000E-03 0.  1.
        -11    1    3    3    0    0 -0.28333781562E+01 -0.11326781944E+02 -0.21606948560E+02  0.24559809595E+02  0.51100000000E-03 0. -1.
         12    1    3    3    0    0  0.16753107365E+02  0.13205479063E+01 -0.15451303587E+02  0.22828780863E+02  0.00000000000E+00 0. -1.
</event>
<event>
 7    1  0.8697654E-014  0.5052886E+02  0.7816164E-02  0.1300439E+00
        -11   -1    0    0    0    0  0.00000000000E+00  0.00000000000E+00  0.45593999997E+02  0.45594000000E+02  0.51100000000E-03 0.  1.
         11   -1    0    0    0    0 -0.00000000000E+00 -0.00000000000E+00 -0.45593999997E+02  0.45594000000E+02  0.51100000000E-03 0. -1.
    9900012    2    1    2    0    0  0.20689479459E+02  0.22172093854E+02 -0.27083379623E+02  0.50528858863E+02  0.29999997001E+02 0.  0.
         12    1    1    2    0    0 -0.20689479459E+02 -0.22172093854E+02  0.27083379623E+02  0.40659141137E+02  0.00000000000E+00 0. -1.
         11    1    3    3    0    0  0.10027955074E+02  0.16233861465E+02 -0.61992748350E+01  0.20063129113E+02  0.51100000000E-03 0. -1.
        -11    1    3    3    0    0  0.23140875914E+01  0.44883987467E+01  0.24705576061E+01  0.56217772845E+01  0.51100000000E-03 0.  1.
         12    1    3    3    0    0  0.83474367935E+01  0.14498336419E+01 -0.23354662394E+02  0.24843952466E+02  0.00000000000E+00 0. -1.
</event>
<event>
 7    1  0.8697654E-014  0.5052888E+02  0.7816164E-02  0.1300439E+00
        -11   -1    0    0    0    0  0.00000000000E+00  0.00000000000E+00  0.45593999997E+02  0.45594000000E+02  0.51100000000E-03 0. -1.
         11   -1    0    0    0    0 -0.00000000000E+00 -0.00000000000E+00 -0.45593999997E+02  0.45594000000E+02  0.51100000000E-03 0.  1.
    9900012    2    1    2    0    0 -0.39549147573E+02 -0.67079614378E+01 -0.66356537011E+01  0.50528883920E+02  0.30000073163E+02 0.  0.
         12    1    1    2    0    0  0.39549147573E+02  0.67079614378E+01  0.66356537011E+01  0.40659116080E+02  0.00000000000E+00 0. -1.
         11    1    3    3    0    0  0.18885038896E+01 -0.54376795060E+01 -0.69582305933E+01  0.90306023388E+01  0.51100000000E-03 0. -1.
        -11    1    3    3    0    0 -0.56742204896E+01  0.32535504038E+00 -0.33277500138E+00  0.56932744120E+01  0.51100000000E-03 0.  1.
         12    1    3    3    0    0 -0.35763430973E+02 -0.15956369722E+01  0.65535189353E+00  0.35805007169E+02  0.00000000000E+00 0. -1.
</event>
<event>
 7    1  0.8697654E-014  0.5052879E+02  0.7816164E-02  0.1300439E+00
        -11   -1    0    0    0    0  0.00000000000E+00  0.00000000000E+00  0.45593999997E+02  0.45594000000E+02  0.51100000000E-03 0. -1.
         11   -1    0    0    0    0 -0.00000000000E+00 -0.00000000000E+00 -0.45593999997E+02  0.45594000000E+02  0.51100000000E-03 0.  1.
    9900012    2    1    2    0    0 -0.89059661001E+00 -0.13801073335E+01  0.40626020290E+02  0.50528789688E+02  0.29999786735E+02 0.  0.
        -12    1    1    2    0    0  0.89059661001E+00  0.13801073335E+01 -0.40626020290E+02  0.40659210312E+02  0.00000000000E+00 0.  1.
         11    1    3    3    0    0 -0.79252215574E+01 -0.88446538479E+01  0.83420097810E+01  0.14512965440E+02  0.51100000000E-03 0. -1.
        -11    1    3    3    0    0  0.27225059850E+01 -0.33397800525E+01  0.96084517652E+01  0.10530361590E+02  0.51100000000E-03 0.  1.
         12    1    3    3    0    0  0.43121189624E+01  0.10804326567E+02  0.22675558744E+02  0.25485462657E+02  0.00000000000E+00 0. -1.
</event>
<event>
 7    1  0.8697654E-014  0.5052886E+02  0.7816164E-02  0.1300439E+00
        -11   -1    0    0    0    0  0.00000000000E+00  0.00000000000E+00  0.45593999997E+02  0.45594000000E+02  0.51100000000E-03 0. -1.
         11   -1    0    0    0    0 -0.00000000000E+00 -0.00000000000E+00 -0.45593999997E+02  0.45594000000E+02  0.51100000000E-03 0.  1.
    9900012    2    1    2    0    0 -0.73477614503E+01 -0.44508332063E+01 -0.39741237200E+02  0.50528862666E+02  0.30000008560E+02 0.  0.
         12    1    1    2    0    0  0.73477614503E+01  0.44508332063E+01  0.39741237200E+02  0.40659137334E+02  0.00000000000E+00 0. -1.
         11    1    3    3    0    0 -0.98744199410E+01  0.57748692349E+01 -0.26745692522E+02  0.29089265247E+02  0.51100000000E-03 0. -1.
        -11    1    3    3    0    0 -0.51909366735E+00  0.24530961774E+01  0.62446661582E+00  0.25840081088E+01  0.51100000000E-03 0.  1.
         12    1    3    3    0    0  0.30457521580E+01 -0.12678798619E+02 -0.13620011293E+02  0.18855589311E+02  0.00000000000E+00 0. -1.
</event>
<event>
 7    1  0.8697654E-014  0.5052886E+02  0.7816164E-02  0.1300439E+00
        -11   -1    0    0    0    0  0.00000000000E+00  0.00000000000E+00  0.45593999997E+02  0.45594000000E+02  0.51100000000E-03 0. -1.
         11   -1    0    0    0    0 -0.00000000000E+00 -0.00000000000E+00 -0.45593999997E+02  0.45594000000E+02  0.51100000000E-03 0.  1.
    9900012    2    1    2    0    0  0.21036101246E+02  0.78851712756E+01  0.33889119691E+02  0.50528856931E+02  0.29999991129E+02 0.  0.
        -12    1    1    2    0    0 -0.21036101246E+02 -0.78851712756E+01 -0.33889119691E+02  0.40659143069E+02  0.00000000000E+00 0.  1.
         11    1    3    3    0    0 -0.31358332500E+00  0.69493864277E+01  0.13763665050E+02  0.15421763262E+02  0.51100000000E-03 0. -1.
        -11    1    3    3    0    0  0.13249631350E+02  0.95315223686E+01  0.79888436614E+01  0.18172073984E+02  0.51100000000E-03 0.  1.
         12    1    3    3    0    0  0.81000532207E+01 -0.85957375207E+01  0.12136610979E+02  0.16935019686E+02  0.00000000000E+00 0. -1.
</event>
<event>
 7    1  0.8697654E-014  0.5052886E+02  0.7816164E-02  0.1300439E+00
        -11   -1    0    0    0    0  0.00000000000E+00  0.00000000000E+00  0.45593999997E+02  0.45594000000E+02  0.51100000000E-03 0. -1.
         11   -1    0    0    0    0 -0.00000000000E+00 -0.00000000000E+00 -0.45593999997E+02  0.45594000000E+02  0.51100000000E-03 0.  1.
    9900012    2    1    2    0    0  0.15746785212E+02 -0.21369782995E+02 -0.30798330252E+02  0.50528855689E+02  0.29999987352E+02 0.  0.
         12    1    1    2    0    0 -0.15746785212E+02  0.21369782995E+02  0.30798330252E+02  0.40659144311E+02  0.00000000000E+00 0. -1.
         11    1    3    3    0    0  0.19082540286E+02 -0.97872401240E+01 -0.13830537742E+02  0.25518957414E+02  0.51100000000E-03 0. -1.
        -11    1    3    3    0    0 -0.24363235596E+01 -0.99120072966E-01 -0.12369252772E+02  0.12607295970E+02  0.51100000000E-03 0.  1.
        -12    1    3    3    0    0 -0.89943151433E+00 -0.11483422798E+02 -0.45985397377E+01  0.12402602305E+02  0.00000000000E+00 0.  1.
</event>
<event>
 7    1  0.8697654E-014  0.5052879E+02  0.7816164E-02  0.1300439E+00
        -11   -1    0    0    0    0  0.00000000000E+00  0.00000000000E+00  0.45593999997E+02  0.45594000000E+02  0.51100000000E-03 0. -1.
         11   -1    0    0    0    0 -0.00000000000E+00 -0.00000000000E+00 -0.45593999997E+02  0.45594000000E+02  0.51100000000E-03 0.  1.
    9900012    2    1    2    0    0  0.33014603911E+02  0.23731983740E+02 -0.61905641372E-02  0.50528792408E+02  0.29999795004E+02 0.  0.
         12    1    1    2    0    0 -0.33014603911E+02 -0.23731983740E+02  0.61905641372E-02  0.40659207592E+02  0.00000000000E+00 0. -1.
         11    1    3    3    0    0  0.22931717933E+02  0.10182635979E+02 -0.11472340090E+01  0.25117044193E+02  0.51100000000E-03 0. -1.
        -11    1    3    3    0    0  0.42506215958E+00 -0.45665640216E+01 -0.12230730899E+01  0.47465874949E+01  0.51100000000E-03 0.  1.
         12    1    3    3    0    0  0.96578238182E+01  0.18115911782E+02  0.23641165347E+01  0.20665160721E+02  0.00000000000E+00 0. -1.
</event>
<event>
 7    1  0.8697654E-014  0.5052886E+02  0.7816164E-02  0.1300439E+00
        -11   -1    0    0    0    0  0.00000000000E+00  0.00000000000E+00  0.45593999997E+02  0.45594000000E+02  0.51100000000E-03 0. -1.
         11   -1    0    0    0    0 -0.00000000000E+00 -0.00000000000E+00 -0.45593999997E+02  0.45594000000E+02  0.51100000000E-03 0.  1.
    9900012    2    1    2    0    0 -0.12670755801E+02 -0.15662683547E+02  0.35317107653E+02  0.50528858328E+02  0.29999995375E+02 0.  0.
        -12    1    1    2    0    0  0.12670755801E+02  0.15662683547E+02 -0.35317107653E+02  0.40659141672E+02  0.00000000000E+00 0.  1.
         11    1    3    3    0    0  0.31748346617E+01 -0.54191039769E+01  0.17378865970E+02  0.18478940600E+02  0.51100000000E-03 0. -1.
        -11    1    3    3    0    0 -0.94883894032E+00  0.43126205832E+01  0.76184969900E+01  0.88057077102E+01  0.51100000000E-03 0.  1.
        -12    1    3    3    0    0 -0.14896751522E+02 -0.14556200154E+02  0.10319744693E+02  0.23244210018E+02  0.00000000000E+00 0.  1.
</event>
<event>
 7    1  0.8697654E-014  0.5052886E+02  0.7816164E-02  0.1300439E+00
        -11   -1    0    0    0    0  0.00000000000E+00  0.00000000000E+00  0.45593999997E+02  0.45594000000E+02  0.51100000000E-03 0. -1.
         11   -1    0    0    0    0 -0.00000000000E+00 -0.00000000000E+00 -0.45593999997E+02  0.45594000000E+02  0.51100000000E-03 0.  1.
    9900012    2    1    2    0    0  0.19909112465E+02 -0.12412626736E+02 -0.33207222330E+02  0.50528859865E+02  0.30000000045E+02 0.  0.
         12    1    1    2    0    0 -0.19909112465E+02  0.12412626736E+02  0.33207222330E+02  0.40659140135E+02  0.00000000000E+00 0. -1.
         11    1    3    3    0    0 -0.91251512318E-01  0.28442553688E+01  0.12626441438E+01  0.31132596963E+01  0.51100000000E-03 0. -1.
        -11    1    3    3    0    0  0.10712147909E+02 -0.13848801195E+02 -0.78515885677E+01  0.19188195607E+02  0.51100000000E-03 0.  1.
         12    1    3    3    0    0  0.92882160684E+01 -0.14080809098E+01 -0.26618277906E+02  0.28227404561E+02  0.00000000000E+00 0. -1.
</event>
<event>
 7    1  0.8697654E-014  0.5052886E+02  0.7816164E-02  0.1300439E+00
        -11   -1    0    0    0    0  0.00000000000E+00  0.00000000000E+00  0.45593999997E+02  0.45594000000E+02  0.51100000000E-03 0. -1.
         11   -1    0    0    0    0 -0.00000000000E+00 -0.00000000000E+00 -0.45593999997E+02  0.45594000000E+02  0.51100000000E-03 0.  1.
    9900012    2    1    2    0    0 -0.29876875061E+02  0.20428193159E+02 -0.18526382552E+02  0.50528860933E+02  0.30000003293E+02 0.  0.
         12    1    1    2    0    0  0.29876875061E+02 -0.20428193159E+02  0.18526382552E+02  0.40659139067E+02  0.00000000000E+00 0. -1.
         11    1    3    3    0    0 -0.53417703678E+01  0.77036134218E+01  0.29153247947E+00  0.93789744569E+01  0.51100000000E-03 0. -1.
        -11    1    3    3    0    0 -0.74602926798E+01  0.10602459012E+02 -0.20075764636E+02  0.23897791320E+02  0.51100000000E-03 0.  1.
         12    1    3    3    0    0 -0.17074812014E+02  0.21221207250E+01  0.12578496044E+01  0.17252095157E+02  0.00000000000E+00 0. -1.
</event>
<event>
 7    1  0.8697654E-014  0.5052887E+02  0.7816164E-02  0.1300439E+00
        -11   -1    0    0    0    0  0.00000000000E+00  0.00000000000E+00  0.45593999997E+02  0.45594000000E+02  0.51100000000E-03 0. -1.
         11   -1    0    0    0    0 -0.00000000000E+00 -0.00000000000E+00 -0.45593999997E+02  0.45594000000E+02  0.51100000000E-03 0.  1.
    9900012    2    1    2    0    0 -0.17833136268E+02 -0.13862616009E+01  0.36513312801E+02  0.50528874553E+02  0.30000044692E+02 0.  0.
        -12    1    1    2    0    0  0.17833136268E+02  0.13862616009E+01 -0.36513312801E+02  0.40659125447E+02  0.00000000000E+00 0.  1.
         11    1    3    3    0    0  0.31617001762E+00  0.24823912563E+01  0.32065476800E+01  0.40674535173E+01  0.51100000000E-03 0. -1.
        -11    1    3    3    0    0 -0.38989371031E-01 -0.84714953074E+01  0.23392788508E+00  0.84748141827E+01  0.51100000000E-03 0.  1.
         12    1    3    3    0    0 -0.18110316914E+02  0.46028424502E+01  0.33072837236E+02  0.37986606853E+02  0.00000000000E+00 0. -1.
</event>
<event>
 7    1  0.8697654E-014  0.5052886E+02  0.7816164E-02  0.1300439E+00
        -11   -1    0    0    0    0  0.00000000000E+00  0.00000000000E+00  0.45593999997E+02  0.45594000000E+02  0.51100000000E-03 0. -1.
         11   -1    0    0    0    0 -0.00000000000E+00 -0.00000000000E+00 -0.45593999997E+02  0.45594000000E+02  0.51100000000E-03 0.  1.
    9900012    2    1    2    0    0 -0.98227627523E+01 -0.34803253224E+02  0.18585288271E+02  0.50528855356E+02  0.29999986341E+02 0.  0.
        -12    1    1    2    0    0  0.98227627523E+01  0.34803253224E+02 -0.18585288271E+02  0.40659144644E+02  0.00000000000E+00 0.  1.
         11    1    3    3    0    0 -0.30532555594E+01 -0.50729574089E+01  0.11638971505E+02  0.13058442646E+02  0.51100000000E-03 0. -1.
        -11    1    3    3    0    0 -0.80440116872E+01 -0.73295974644E+01 -0.50842623593E+01  0.12011613006E+02  0.51100000000E-03 0.  1.
         12    1    3    3    0    0  0.12745044943E+01 -0.22400698350E+02  0.12030579125E+02  0.25458799704E+02  0.00000000000E+00 0. -1.
</event>
<event>
 7    1  0.8697654E-014  0.5052884E+02  0.7816164E-02  0.1300439E+00
        -11   -1    0    0    0    0  0.00000000000E+00  0.00000000000E+00  0.45593999997E+02  0.45594000000E+02  0.51100000000E-03 0. -1.
         11   -1    0    0    0    0 -0.00000000000E+00 -0.00000000000E+00 -0.45593999997E+02  0.45594000000E+02  0.51100000000E-03 0.  1.
    9900012    2    1    2    0    0 -0.15807515434E+01 -0.21813319741E+01 -0.40569822572E+02  0.50528837586E+02  0.29999932327E+02 0.  0.
         12    1    1    2    0    0  0.15807515434E+01  0.21813319741E+01  0.40569822572E+02  0.40659162414E+02  0.00000000000E+00 0. -1.
         11    1    3    3    0    0  0.28359854438E+01  0.16928045571E+01 -0.24112054334E+02  0.24337205369E+02  0.51100000000E-03 0. -1.
        -11    1    3    3    0    0  0.76351019002E+01 -0.29155297764E+01 -0.53079304652E+01  0.97452152870E+01  0.51100000000E-03 0.  1.
         12    1    3    3    0    0 -0.12051838887E+02 -0.95860675477E+00 -0.11149837773E+02  0.16446416931E+02  0.00000000000E+00 0. -1.
</event>
<event>
 7    1  0.8697654E-014  0.5052888E+02  0.7816164E-02  0.1300439E+00
        -11   -1    0    0    0    0  0.00000000000E+00  0.00000000000E+00  0.45593999997E+02  0.45594000000E+02  0.51100000000E-03 0. -1.
         11   -1    0    0    0    0 -0.00000000000E+00 -0.00000000000E+00 -0.45593999997E+02  0.45594000000E+02  0.51100000000E-03 0.  1.
    9900012    2    1    2    0    0  0.11901120051E+02  0.16798216369E+02  0.35062052623E+02  0.50528877213E+02  0.30000052776E+02 0.  0.
        -12    1    1    2    0    0 -0.11901120051E+02 -0.16798216369E+02 -0.35062052623E+02  0.40659122787E+02  0.00000000000E+00 0.  1.
         11    1    3    3    0    0  0.52032929266E+01 -0.61197858061E+01  0.71931794521E-03  0.80328099922E+01  0.51100000000E-03 0.  1.
        -11    1    3    3    0    0  0.15552396251E+01  0.58498454332E+01  0.70315623605E+01  0.92780564438E+01  0.51100000000E-03 0. -1.
        -12    1    3    3    0    0  0.51425874993E+01  0.17068156742E+02  0.28029770945E+02  0.33218010777E+02  0.00000000000E+00 0.  1.
</event>
<event>
 7    1  0.8697654E-014  0.5052886E+02  0.7816164E-02  0.1300439E+00
        -11   -1    0    0    0    0  0.00000000000E+00  0.00000000000E+00  0.45593999997E+02  0.45594000000E+02  0.51100000000E-03 0. -1.
         11   -1    0    0    0    0 -0.00000000000E+00 -0.00000000000E+00 -0.45593999997E+02  0.45594000000E+02  0.51100000000E-03 0.  1.
    9900012    2    1    2    0    0  0.21675046106E+02 -0.18585245092E+02  0.28947312557E+02  0.50528857571E+02  0.29999993073E+02 0.  0.
        -12    1    1    2    0    0 -0.21675046106E+02  0.18585245092E+02 -0.28947312557E+02  0.40659142429E+02  0.00000000000E+00 0.  1.
         11    1    3    3    0    0 -0.31136904111E+01 -0.53618710230E+01  0.76394181245E+01  0.98389754744E+01  0.51100000000E-03 0.  1.
        -11    1    3    3    0    0  0.44205700715E+01 -0.12181932895E+02  0.13867705376E+02  0.18980363050E+02  0.51100000000E-03 0. -1.
        -12    1    3    3    0    0  0.20368166446E+02 -0.10414411734E+01  0.74401890555E+01  0.21709519047E+02  0.00000000000E+00 0.  1.
</event>
<event>
 7    1  0.8697654E-014  0.5052883E+02  0.7816164E-02  0.1300439E+00
        -11   -1    0    0    0    0  0.00000000000E+00  0.00000000000E+00  0.45593999997E+02  0.45594000000E+02  0.51100000000E-03 0. -1.
         11   -1    0    0    0    0 -0.00000000000E+00 -0.00000000000E+00 -0.45593999997E+02  0.45594000000E+02  0.51100000000E-03 0.  1.
    9900012    2    1    2    0    0  0.17915616325E+02  0.77651721055E+01  0.35663715859E+02  0.50528833321E+02  0.29999919363E+02 0.  0.
        -12    1    1    2    0    0 -0.17915616325E+02 -0.77651721055E+01 -0.35663715859E+02  0.40659166679E+02  0.00000000000E+00 0.  1.
         11    1    3    3    0    0  0.12974096126E+02 -0.64613569128E+00  0.17118077326E+02  0.21488909540E+02  0.51100000000E-03 0. -1.
        -11    1    3    3    0    0  0.95994486436E+01  0.10954415027E+02  0.66447997182E+01  0.16009434294E+02  0.51100000000E-03 0.  1.
         12    1    3    3    0    0 -0.46579284447E+01 -0.25431072304E+01  0.11900838815E+02  0.13030489487E+02  0.00000000000E+00 0. -1.
</event>
<event>
 7    1  0.8697654E-014  0.5052887E+02  0.7816164E-02  0.1300439E+00
        -11   -1    0    0    0    0  0.00000000000E+00  0.00000000000E+00  0.45593999997E+02  0.45594000000E+02  0.51100000000E-03 0. -1.
         11   -1    0    0    0    0 -0.00000000000E+00 -0.00000000000E+00 -0.45593999997E+02  0.45594000000E+02  0.51100000000E-03 0.  1.
    9900012    2    1    2    0    0  0.22597909549E+01  0.33241572427E+02 -0.23303570663E+02  0.50528865746E+02  0.30000017923E+02 0.  0.
         12    1    1    2    0    0 -0.22597909549E+01 -0.33241572427E+02  0.23303570663E+02  0.40659134254E+02  0.00000000000E+00 0. -1.
         11    1    3    3    0    0 -0.70126609425E+01  0.88449140660E+01  0.17971571964E+01  0.11429772202E+02  0.51100000000E-03 0. -1.
        -11    1    3    3    0    0  0.23342243878E+01 -0.11386342997E+01 -0.57750362178E+01  0.63321509094E+01  0.51100000000E-03 0.  1.
        -12    1    3    3    0    0  0.69382275096E+01  0.25535292661E+02 -0.19325691642E+02  0.32766942636E+02  0.00000000000E+00 0.  1.
</event>
<event>
 7    1  0.8697654E-014  0.5052885E+02  0.7816164E-02  0.1300439E+00
        -11   -1    0    0    0    0  0.00000000000E+00  0.00000000000E+00  0.45593999997E+02  0.45594000000E+02  0.51100000000E-03 0. -1.
         11   -1    0    0    0    0 -0.00000000000E+00 -0.00000000000E+00 -0.45593999997E+02  0.45594000000E+02  0.51100000000E-03 0.  1.
    9900012    2    1    2    0    0  0.37681246821E+02  0.10276587136E+01  0.15239228144E+02  0.50528849507E+02  0.29999968560E+02 0.  0.
        -12    1    1    2    0    0 -0.37681246821E+02 -0.10276587136E+01 -0.15239228144E+02  0.40659150493E+02  0.00000000000E+00 0.  1.
         11    1    3    3    0    0  0.16676800402E+02  0.21917612095E+01 -0.44648417385E+01  0.17402709583E+02  0.51100000000E-03 0. -1.
        -11    1    3    3    0    0  0.28445504615E+01 -0.30498798568E+01 -0.21148795842E+01  0.46761041889E+01  0.51100000000E-03 0.  1.
        -12    1    3    3    0    0  0.18159895958E+02  0.18857773609E+01  0.21818949466E+02  0.28450035734E+02  0.00000000000E+00 0.  1.
</event>
<event>
 7    1  0.8697654E-014  0.5052886E+02  0.7816164E-02  0.1300439E+00
        -11   -1    0    0    0    0  0.00000000000E+00  0.00000000000E+00  0.45593999997E+02  0.45594000000E+02  0.51100000000E-03 0. -1.
         11   -1    0    0    0    0 -0.00000000000E+00 -0.00000000000E+00 -0.45593999997E+02  0.45594000000E+02  0.51100000000E-03 0.  1.
    9900012    2    1    2    0    0 -0.10011939950E+02  0.72995798111E+01  0.38725222845E+02  0.50528859682E+02  0.29999999489E+02 0.  0.
        -12    1    1    2    0    0  0.10011939950E+02 -0.72995798111E+01 -0.38725222845E+02  0.40659140318E+02  0.00000000000E+00 0.  1.
         11    1    3    3    0    0 -0.87257213325E+01  0.12113564843E+02  0.22091388924E+02  0.26662823010E+02  0.51100000000E-03 0. -1.
        -11    1    3    3    0    0  0.25378272071E+01 -0.25008480527E+01  0.18632614335E+02  0.18970216792E+02  0.51100000000E-03 0.  1.
        -12    1    3    3    0    0 -0.38240458250E+01 -0.23131369790E+01 -0.19987804142E+01  0.48958198802E+01  0.00000000000E+00 0.  1.
</event>
<event>
 7    1  0.8697654E-014  0.5052885E+02  0.7816164E-02  0.1300439E+00
        -11   -1    0    0    0    0  0.00000000000E+00  0.00000000000E+00  0.45593999997E+02  0.45594000000E+02  0.51100000000E-03 0. -1.
         11   -1    0    0    0    0 -0.00000000000E+00 -0.00000000000E+00 -0.45593999997E+02  0.45594000000E+02  0.51100000000E-03 0.  1.
    9900012    2    1    2    0    0  0.14443578412E+00 -0.14395220171E+02 -0.38025296319E+02  0.50528851145E+02  0.29999973539E+02 0.  0.
         12    1    1    2    0    0 -0.14443578412E+00  0.14395220171E+02  0.38025296319E+02  0.40659148855E+02  0.00000000000E+00 0. -1.
         11    1    3    3    0    0 -0.10510599300E+01  0.32901326891E+00  0.15114492355E+01  0.18701485930E+01  0.51100000000E-03 0. -1.
        -11    1    3    3    0    0  0.44031460916E+01  0.10396493527E+01 -0.29174609014E+02  0.29523319218E+02  0.51100000000E-03 0.  1.
         12    1    3    3    0    0 -0.32076503775E+01 -0.15763882792E+02 -0.10362136541E+02  0.19135383334E+02  0.00000000000E+00 0. -1.
</event>
<event>
 7    1  0.8697654E-014  0.5052887E+02  0.7816164E-02  0.1300439E+00
        -11   -1    0    0    0    0  0.00000000000E+00  0.00000000000E+00  0.45593999997E+02  0.45594000000E+02  0.51100000000E-03 0. -1.
         11   -1    0    0    0    0 -0.00000000000E+00 -0.00000000000E+00 -0.45593999997E+02  0.45594000000E+02  0.51100000000E-03 0.  1.
    9900012    2    1    2    0    0  0.83202437730E+01 -0.27404552359E+02 -0.28860512973E+02  0.50528866272E+02  0.30000019519E+02 0.  0.
         12    1    1    2    0    0 -0.83202437730E+01  0.27404552359E+02  0.28860512973E+02  0.40659133728E+02  0.00000000000E+00 0. -1.
         11    1    3    3    0    0 -0.46123774972E+01 -0.10357211103E+02 -0.24984444824E+02  0.27436623907E+02  0.51100000000E-03 0.  1.
        -11    1    3    3    0    0  0.78234257958E+01 -0.48529449346E+01 -0.35489866241E+01  0.98667305648E+01  0.51100000000E-03 0. -1.
        -12    1    3    3    0    0  0.51091954744E+01 -0.12194396322E+02 -0.32708152564E+00  0.13225511800E+02  0.00000000000E+00 0.  1.
</event>
<event>
 7    1  0.8697654E-014  0.5052890E+02  0.7816164E-02  0.1300439E+00
        -11   -1    0    0    0    0  0.00000000000E+00  0.00000000000E+00  0.45593999997E+02  0.45594000000E+02  0.51100000000E-03 0. -1.
         11   -1    0    0    0    0 -0.00000000000E+00 -0.00000000000E+00 -0.45593999997E+02  0.45594000000E+02  0.51100000000E-03 0.  1.
    9900012    2    1    2    0    0 -0.31291278697E+02  0.14969797670E+02 -0.21211400817E+02  0.50528899058E+02  0.30000119177E+02 0.  0.
         12    1    1    2    0    0  0.31291278697E+02 -0.14969797670E+02  0.21211400817E+02  0.40659100942E+02  0.00000000000E+00 0. -1.
         11    1    3    3    0    0 -0.45423706182E+01 -0.15756254008E+00 -0.15752010684E+02  0.16394627096E+02  0.51100000000E-03 0. -1.
        -11    1    3    3    0    0 -0.11816348485E+02  0.31663687463E+01 -0.83127449639E+01  0.14790324934E+02  0.51100000000E-03 0.  1.
        -12    1    3    3    0    0 -0.14932559594E+02  0.11960991464E+02  0.28533548308E+01  0.19343947028E+02  0.00000000000E+00 0.  1.
</event>
<event>
 7    1  0.1079539E-013  0.5052883E+02  0.7816164E-02  0.1300439E+00
        -11   -1    0    0    0    0  0.00000000000E+00  0.00000000000E+00  0.45593999997E+02  0.45594000000E+02  0.51100000000E-03 0. -1.
         11   -1    0    0    0    0 -0.00000000000E+00 -0.00000000000E+00 -0.45593999997E+02  0.45594000000E+02  0.51100000000E-03 0.  1.
    9900012    2    1    2    0    0 -0.49594184257E+01  0.13638311247E+02 -0.37981162409E+02  0.50528830521E+02  0.29999910851E+02 0.  0.
         12    1    1    2    0    0  0.49594184257E+01 -0.13638311247E+02  0.37981162409E+02  0.40659169479E+02  0.00000000000E+00 0. -1.
         11    1    3    3    0    0 -0.13597461316E+01  0.93191186083E+01 -0.25176638761E+02  0.26880439371E+02  0.51100000000E-03 0. -1.
        -11    1    3    3    0    0 -0.88430446892E+01  0.91456317669E+01 -0.75409007008E+01  0.14788752599E+02  0.51100000000E-03 0.  1.
         12    1    3    3    0    0  0.52433723951E+01 -0.48264391280E+01 -0.52636229469E+01  0.88596385511E+01  0.00000000000E+00 0. -1.
</event>
<event>
 7    1  0.8697654E-014  0.5052887E+02  0.7816164E-02  0.1300439E+00
        -11   -1    0    0    0    0  0.00000000000E+00  0.00000000000E+00  0.45593999997E+02  0.45594000000E+02  0.51100000000E-03 0.  1.
         11   -1    0    0    0    0 -0.00000000000E+00 -0.00000000000E+00 -0.45593999997E+02  0.45594000000E+02  0.51100000000E-03 0. -1.
    9900012    2    1    2    0    0 -0.36527317846E+02  0.99506292004E+01 -0.14829197162E+02  0.50528867459E+02  0.30000023129E+02 0.  0.
         12    1    1    2    0    0  0.36527317846E+02 -0.99506292004E+01  0.14829197162E+02  0.40659132541E+02  0.00000000000E+00 0. -1.
         11    1    3    3    0    0 -0.47194915152E+01 -0.26365533464E+00  0.61601186822E+01  0.77646749280E+01  0.51100000000E-03 0. -1.
        -11    1    3    3    0    0 -0.59950127458E+01 -0.45401104846E+01 -0.39138047252E+01  0.84776558507E+01  0.51100000000E-03 0.  1.
        -12    1    3    3    0    0 -0.25812813585E+02  0.14754395020E+02 -0.17075511119E+02  0.34286536681E+02  0.00000000000E+00 0.  1.
</event>
<event>
 7    1  0.8697654E-014  0.5052887E+02  0.7816164E-02  0.1300439E+00
        -11   -1    0    0    0    0  0.00000000000E+00  0.00000000000E+00  0.45593999997E+02  0.45594000000E+02  0.51100000000E-03 0. -1.
         11   -1    0    0    0    0 -0.00000000000E+00 -0.00000000000E+00 -0.45593999997E+02  0.45594000000E+02  0.51100000000E-03 0.  1.
    9900012    2    1    2    0    0 -0.33844817829E+02  0.15917418548E+02  0.15947685186E+02  0.50528873473E+02  0.30000041408E+02 0.  0.
        -12    1    1    2    0    0  0.33844817829E+02 -0.15917418548E+02 -0.15947685186E+02  0.40659126527E+02  0.00000000000E+00 0.  1.
         11    1    3    3    0    0 -0.16001462783E+02  0.15266158060E+02 -0.10323252783E+01  0.22139740036E+02  0.51100000000E-03 0. -1.
        -11    1    3    3    0    0 -0.82526052420E+01  0.32366674296E+01  0.17305311389E+00  0.88663102231E+01  0.51100000000E-03 0.  1.
         12    1    3    3    0    0 -0.95907498043E+01 -0.25854069413E+01  0.16806957351E+02  0.19522823214E+02  0.00000000000E+00 0. -1.
</event>
<event>
 7    1  0.8697654E-014  0.5052887E+02  0.7816164E-02  0.1300439E+00
        -11   -1    0    0    0    0  0.00000000000E+00  0.00000000000E+00  0.45593999997E+02  0.45594000000E+02  0.51100000000E-03 0.  1.
         11   -1    0    0    0    0 -0.00000000000E+00 -0.00000000000E+00 -0.45593999997E+02  0.45594000000E+02  0.51100000000E-03 0. -1.
    9900012    2    1    2    0    0 -0.29560780557E+02 -0.27645541671E+02 -0.38793695470E+01  0.50528865362E+02  0.30000016754E+02 0.  0.
         12    1    1    2    0    0  0.29560780557E+02  0.27645541671E+02  0.38793695470E+01  0.40659134638E+02  0.00000000000E+00 0. -1.
         11    1    3    3    0    0 -0.41511514340E+01 -0.81911719232E+01 -0.64146532058E+01  0.11201568270E+02  0.51100000000E-03 0. -1.
        -11    1    3    3    0    0 -0.27110153367E+02 -0.14561361822E+02 -0.39515733031E+01  0.31025934402E+02  0.51100000000E-03 0.  1.
         12    1    3    3    0    0  0.17005242434E+01 -0.48930079260E+01  0.64868569619E+01  0.83013626900E+01  0.00000000000E+00 0. -1.
</event>
<event>
 7    1  0.8697654E-014  0.5052886E+02  0.7816164E-02  0.1300439E+00
        -11   -1    0    0    0    0  0.00000000000E+00  0.00000000000E+00  0.45593999997E+02  0.45594000000E+02  0.51100000000E-03 0. -1.
         11   -1    0    0    0    0 -0.00000000000E+00 -0.00000000000E+00 -0.45593999997E+02  0.45594000000E+02  0.51100000000E-03 0.  1.
    9900012    2    1    2    0    0 -0.41103358147E+01  0.24376980140E+02  0.32280549200E+02  0.50528857389E+02  0.29999992519E+02 0.  0.
        -12    1    1    2    0    0  0.41103358147E+01 -0.24376980140E+02 -0.32280549200E+02  0.40659142611E+02  0.00000000000E+00 0.  1.
         11    1    3    3    0    0 -0.10665544302E+02  0.53656496502E+01  0.13545767312E+02  0.18056351895E+02  0.51100000000E-03 0.  1.
        -11    1    3    3    0    0 -0.15998640417E+01  0.13001280820E+02  0.18072311112E+02  0.22320423318E+02  0.51100000000E-03 0. -1.
        -12    1    3    3    0    0  0.81550725287E+01  0.60100496694E+01  0.66247077566E+00  0.10152082176E+02  0.00000000000E+00 0.  1.
</event>
<event>
 7    1  0.8697654E-014  0.5052885E+02  0.7816164E-02  0.1300439E+00
        -11   -1    0    0    0    0  0.00000000000E+00  0.00000000000E+00  0.45593999997E+02  0.45594000000E+02  0.51100000000E-03 0.  1.
         11   -1    0    0    0    0 -0.00000000000E+00 -0.00000000000E+00 -0.45593999997E+02  0.45594000000E+02  0.51100000000E-03 0. -1.
    9900012    2    1    2    0    0 -0.48216183252E+00 -0.39626987310E+02  0.90904263518E+01  0.50528850297E+02  0.29999970962E+02 0.  0.
        -12    1    1    2    0    0  0.48216183252E+00  0.39626987310E+02 -0.90904263518E+01  0.40659149703E+02  0.00000000000E+00 0.  1.
         11    1    3    3    0    0  0.10031665412E+02 -0.82226598353E+01  0.98006613310E+01  0.16257287858E+02  0.51100000000E-03 0. -1.
        -11    1    3    3    0    0 -0.32659632584E+01 -0.13873559710E+02  0.38450456917E+01  0.14762335577E+02  0.51100000000E-03 0.  1.
        -12    1    3    3    0    0 -0.72478639860E+01 -0.17530767765E+02 -0.45552806709E+01  0.19509226862E+02  0.00000000000E+00 0.  1.
</event>
<event>
 7    1  0.8697654E-014  0.5052885E+02  0.7816164E-02  0.1300439E+00
        -11   -1    0    0    0    0  0.00000000000E+00  0.00000000000E+00  0.45593999997E+02  0.45594000000E+02  0.51100000000E-03 0.  1.
         11   -1    0    0    0    0 -0.00000000000E+00 -0.00000000000E+00 -0.45593999997E+02  0.45594000000E+02  0.51100000000E-03 0. -1.
    9900012    2    1    2    0    0  0.85484325076E+01 -0.37932410656E+02 -0.11883733398E+02  0.50528848558E+02  0.29999965678E+02 0.  0.
         12    1    1    2    0    0 -0.85484325076E+01  0.37932410656E+02  0.11883733398E+02  0.40659151442E+02  0.00000000000E+00 0. -1.
         11    1    3    3    0    0  0.10610587741E+02 -0.11924733494E+02  0.68470265183E+00  0.15976628527E+02  0.51100000000E-03 0. -1.
        -11    1    3    3    0    0 -0.33126244980E+01 -0.28724942291E+02 -0.99575373940E+01  0.30581830257E+02  0.51100000000E-03 0.  1.
         12    1    3    3    0    0  0.12504692646E+01  0.27172651291E+01 -0.26108986561E+01  0.39703897738E+01  0.00000000000E+00 0. -1.
</event>
<event>
 7    1  0.8697654E-014  0.5052886E+02  0.7816164E-02  0.1300439E+00
        -11   -1    0    0    0    0  0.00000000000E+00  0.00000000000E+00  0.45593999997E+02  0.45594000000E+02  0.51100000000E-03 0. -1.
         11   -1    0    0    0    0 -0.00000000000E+00 -0.00000000000E+00 -0.45593999997E+02  0.45594000000E+02  0.51100000000E-03 0.  1.
    9900012    2    1    2    0    0  0.29654929736E+02  0.51458468126E+00 -0.27811616223E+02  0.50528860167E+02  0.30000000963E+02 0.  0.
         12    1    1    2    0    0 -0.29654929736E+02 -0.51458468126E+00  0.27811616223E+02  0.40659139833E+02  0.00000000000E+00 0. -1.
         11    1    3    3    0    0 -0.77547701886E+00 -0.48884838945E+01 -0.91980812450E+01  0.10445254341E+02  0.51100000000E-03 0. -1.
        -11    1    3    3    0    0  0.89395920151E+01 -0.46662052056E+01 -0.26940804104E+00  0.10087733014E+02  0.51100000000E-03 0.  1.
        -12    1    3    3    0    0  0.21490814740E+02  0.10069273781E+02 -0.18344126937E+02  0.29995872812E+02  0.00000000000E+00 0.  1.
</event>
<event>
 7    1  0.8697654E-014  0.5052885E+02  0.7816164E-02  0.1300439E+00
        -11   -1    0    0    0    0  0.00000000000E+00  0.00000000000E+00  0.45593999997E+02  0.45594000000E+02  0.51100000000E-03 0. -1.
         11   -1    0    0    0    0 -0.00000000000E+00 -0.00000000000E+00 -0.45593999997E+02  0.45594000000E+02  0.51100000000E-03 0.  1.
    9900012    2    1    2    0    0  0.88321703436E+00 -0.49222930774E+01 -0.40350430280E+02  0.50528852625E+02  0.29999978039E+02 0.  0.
         12    1    1    2    0    0 -0.88321703436E+00  0.49222930774E+01  0.40350430280E+02  0.40659147375E+02  0.00000000000E+00 0. -1.
         11    1    3    3    0    0 -0.24137237016E+01  0.63282938723E+01 -0.60760207461E+01  0.90989776245E+01  0.51100000000E-03 0. -1.
        -11    1    3    3    0    0 -0.76429006126E+01 -0.13035940235E+01 -0.17046763936E+02  0.18727131337E+02  0.51100000000E-03 0.  1.
        -12    1    3    3    0    0  0.10939841349E+02 -0.99469929262E+01 -0.17227645598E+02  0.22702743663E+02  0.00000000000E+00 0.  1.
</event>
<event>
 7    1  0.8697654E-014  0.5052887E+02  0.7816164E-02  0.1300439E+00
        -11   -1    0    0    0    0  0.00000000000E+00  0.00000000000E+00  0.45593999997E+02  0.45594000000E+02  0.51100000000E-03 0. -1.
         11   -1    0    0    0    0 -0.00000000000E+00 -0.00000000000E+00 -0.45593999997E+02  0.45594000000E+02  0.51100000000E-03 0.  1.
    9900012    2    1    2    0    0  0.52436498215E+01 -0.14503333321E+02  0.37620770089E+02  0.50528869624E+02  0.30000029709E+02 0.  0.
        -12    1    1    2    0    0 -0.52436498215E+01  0.14503333321E+02 -0.37620770089E+02  0.40659130376E+02  0.00000000000E+00 0.  1.
         11    1    3    3    0    0  0.64433861492E+01 -0.57902632193E-01  0.80485099259E+01  0.10310145007E+02  0.51100000000E-03 0. -1.
        -11    1    3    3    0    0  0.80634633699E+01  0.19851639346E+01  0.75534850155E+01  0.11225660493E+02  0.51100000000E-03 0.  1.
         12    1    3    3    0    0 -0.92631996976E+01 -0.16430594623E+02  0.22018775147E+02  0.28993064124E+02  0.00000000000E+00 0. -1.
</event>
<event>
 7    1  0.8697654E-014  0.5052887E+02  0.7816164E-02  0.1300439E+00
        -11   -1    0    0    0    0  0.00000000000E+00  0.00000000000E+00  0.45593999997E+02  0.45594000000E+02  0.51100000000E-03 0. -1.
         11   -1    0    0    0    0 -0.00000000000E+00 -0.00000000000E+00 -0.45593999997E+02  0.45594000000E+02  0.51100000000E-03 0.  1.
    9900012    2    1    2    0    0 -0.91508897557E+01  0.93775489627E+01  0.38490096439E+02  0.50528871483E+02  0.30000035360E+02 0.  0.
        -12    1    1    2    0    0  0.91508897557E+01 -0.93775489627E+01 -0.38490096439E+02  0.40659128517E+02  0.00000000000E+00 0.  1.
         11    1    3    3    0    0 -0.69998828389E+00  0.76544749334E+01  0.30347842948E+02  0.31306110297E+02  0.51100000000E-03 0. -1.
        -11    1    3    3    0    0  0.44278862883E+01  0.80127002871E+00  0.19895888255E+01  0.49200279061E+01  0.51100000000E-03 0.  1.
        -12    1    3    3    0    0 -0.12878787760E+02  0.92180400057E+00  0.61526646656E+01  0.14302733280E+02  0.00000000000E+00 0.  1.
</event>
<event>
 7    1  0.8697654E-014  0.5052886E+02  0.7816164E-02  0.1300439E+00
        -11   -1    0    0    0    0  0.00000000000E+00  0.00000000000E+00  0.45593999997E+02  0.45594000000E+02  0.51100000000E-03 0. -1.
         11   -1    0    0    0    0 -0.00000000000E+00 -0.00000000000E+00 -0.45593999997E+02  0.45594000000E+02  0.51100000000E-03 0.  1.
    9900012    2    1    2    0    0 -0.85776097873E+01  0.16303404511E+02  0.36246230783E+02  0.50528860384E+02  0.30000001625E+02 0.  0.
        -12    1    1    2    0    0  0.85776097873E+01 -0.16303404511E+02 -0.36246230783E+02  0.40659139616E+02  0.00000000000E+00 0.  1.
         11    1    3    3    0    0 -0.76040914018E+01  0.13692785064E+02  0.11910264260E+02  0.19676609562E+02  0.51100000000E-03 0. -1.
        -11    1    3    3    0    0  0.81402826520E+01  0.83369339106E+00  0.55222371922E+01  0.98718969906E+01  0.51100000000E-03 0.  1.
         12    1    3    3    0    0 -0.91138010376E+01  0.17769260552E+01  0.18813729331E+02  0.20980353832E+02  0.00000000000E+00 0. -1.
</event>
<event>
 7    1  0.8697654E-014  0.5052886E+02  0.7816164E-02  0.1300439E+00
        -11   -1    0    0    0    0  0.00000000000E+00  0.00000000000E+00  0.45593999997E+02  0.45594000000E+02  0.51100000000E-03 0. -1.
         11   -1    0    0    0    0 -0.00000000000E+00 -0.00000000000E+00 -0.45593999997E+02  0.45594000000E+02  0.51100000000E-03 0.  1.
    9900012    2    1    2    0    0  0.37025978101E+01  0.84982387521E+01 -0.39588338149E+02  0.50528858225E+02  0.29999995062E+02 0.  0.
         12    1    1    2    0    0 -0.37025978101E+01 -0.84982387521E+01  0.39588338149E+02  0.40659141775E+02  0.00000000000E+00 0. -1.
         11    1    3    3    0    0 -0.74966583798E+01 -0.79432930558E+00 -0.17447054196E+01  0.77378836364E+01  0.51100000000E-03 0. -1.
        -11    1    3    3    0    0 -0.27068209543E+01  0.29940886977E+01 -0.13187980963E+02  0.13791819639E+02  0.51100000000E-03 0.  1.
        -12    1    3    3    0    0  0.13906077144E+02  0.62984793600E+01 -0.24655651766E+02  0.28999154950E+02  0.00000000000E+00 0.  1.
</event>
<event>
 7    1  0.8697654E-014  0.5052886E+02  0.7816164E-02  0.1300439E+00
        -11   -1    0    0    0    0  0.00000000000E+00  0.00000000000E+00  0.45593999997E+02  0.45594000000E+02  0.51100000000E-03 0. -1.
         11   -1    0    0    0    0 -0.00000000000E+00 -0.00000000000E+00 -0.45593999997E+02  0.45594000000E+02  0.51100000000E-03 0.  1.
    9900012    2    1    2    0    0  0.39322239227E+01 -0.94189404038E+01 -0.39357165147E+02  0.50528864843E+02  0.30000015176E+02 0.  0.
         12    1    1    2    0    0 -0.39322239227E+01  0.94189404038E+01  0.39357165147E+02  0.40659135157E+02  0.00000000000E+00 0. -1.
         11    1    3    3    0    0  0.86622120811E+01  0.94220451792E+00 -0.65386578822E+01  0.10893838380E+02  0.51100000000E-03 0. -1.
        -11    1    3    3    0    0 -0.52236239801E+01 -0.31029667725E+01 -0.57517951234E-01  0.60760150471E+01  0.51100000000E-03 0.  1.
        -12    1    3    3    0    0  0.49363582162E+00 -0.72581781492E+01 -0.32760989314E+02  0.33559011416E+02  0.00000000000E+00 0.  1.
</event>
<event>
 7    1  0.8697654E-014  0.5052886E+02  0.7816164E-02  0.1300439E+00
        -11   -1    0    0    0    0  0.00000000000E+00  0.00000000000E+00  0.45593999997E+02  0.45594000000E+02  0.51100000000E-03 0. -1.
         11   -1    0    0    0    0 -0.00000000000E+00 -0.00000000000E+00 -0.45593999997E+02  0.45594000000E+02  0.51100000000E-03 0.  1.
    9900012    2    1    2    0    0 -0.50901200779E+01  0.40660696749E+01  0.40133821462E+02  0.50528857484E+02  0.29999992807E+02 0.  0.
        -12    1    1    2    0    0  0.50901200779E+01 -0.40660696749E+01 -0.40133821462E+02  0.40659142516E+02  0.00000000000E+00 0.  1.
         11    1    3    3    0    0  0.41903678173E+01  0.44648822707E+01  0.17486528516E+02  0.18527628988E+02  0.51100000000E-03 0. -1.
        -11    1    3    3    0    0 -0.67602510858E+01  0.97542155610E+01  0.95127208071E+01  0.15209785448E+02  0.51100000000E-03 0.  1.
         12    1    3    3    0    0 -0.25202368094E+01 -0.10153028157E+02  0.13134572140E+02  0.16791443048E+02  0.00000000000E+00 0. -1.
</event>
<event>
 7    1  0.8697654E-014  0.5052887E+02  0.7816164E-02  0.1300439E+00
        -11   -1    0    0    0    0  0.00000000000E+00  0.00000000000E+00  0.45593999997E+02  0.45594000000E+02  0.51100000000E-03 0. -1.
         11   -1    0    0    0    0 -0.00000000000E+00 -0.00000000000E+00 -0.45593999997E+02  0.45594000000E+02  0.51100000000E-03 0.  1.
    9900012    2    1    2    0    0  0.25201192952E+01 -0.28359839768E+02  0.29026419100E+02  0.50528874103E+02  0.30000043323E+02 0.  0.
        -12    1    1    2    0    0 -0.25201192952E+01  0.28359839768E+02 -0.29026419100E+02  0.40659125897E+02  0.00000000000E+00 0.  1.
         11    1    3    3    0    0  0.62982682479E+01 -0.26586776429E+01 -0.17351704001E+01  0.70531954680E+01  0.51100000000E-03 0. -1.
        -11    1    3    3    0    0  0.45018665985E+00 -0.14821196720E+02  0.58043233579E+01  0.15923589738E+02  0.51100000000E-03 0.  1.
        -12    1    3    3    0    0 -0.42283356125E+01 -0.10879965405E+02  0.24957266142E+02  0.27552088897E+02  0.00000000000E+00 0.  1.
</event>
<event>
 7    1  0.8697654E-014  0.5052884E+02  0.7816164E-02  0.1300439E+00
        -11   -1    0    0    0    0  0.00000000000E+00  0.00000000000E+00  0.45593999997E+02  0.45594000000E+02  0.51100000000E-03 0. -1.
         11   -1    0    0    0    0 -0.00000000000E+00 -0.00000000000E+00 -0.45593999997E+02  0.45594000000E+02  0.51100000000E-03 0.  1.
    9900012    2    1    2    0    0  0.85046078989E+00 -0.13169072611E+02  0.38458019563E+02  0.50528843274E+02  0.29999949615E+02 0.  0.
        -12    1    1    2    0    0 -0.85046078989E+00  0.13169072611E+02 -0.38458019563E+02  0.40659156726E+02  0.00000000000E+00 0.  1.
         11    1    3    3    0    0  0.27994308993E+00 -0.33834807778E+01  0.18208503039E+02  0.18522307995E+02  0.51100000000E-03 0. -1.
        -11    1    3    3    0    0  0.86665851092E+01 -0.62006897504E+01  0.85999646858E+00  0.10691017025E+02  0.51100000000E-03 0.  1.
         12    1    3    3    0    0 -0.80960674093E+01 -0.35849020829E+01  0.19389520055E+02  0.21315518254E+02  0.00000000000E+00 0. -1.
</event>
<event>
 7    1  0.1310277E-013  0.5052883E+02  0.7816164E-02  0.1300439E+00
        -11   -1    0    0    0    0  0.00000000000E+00  0.00000000000E+00  0.45593999997E+02  0.45594000000E+02  0.51100000000E-03 0. -1.
         11   -1    0    0    0    0 -0.00000000000E+00 -0.00000000000E+00 -0.45593999997E+02  0.45594000000E+02  0.51100000000E-03 0.  1.
    9900012    2    1    2    0    0 -0.15416939741E+01 -0.21650887528E+02 -0.34380669968E+02  0.50528828605E+02  0.29999905027E+02 0.  0.
         12    1    1    2    0    0  0.15416939741E+01  0.21650887528E+02  0.34380669968E+02  0.40659171395E+02  0.00000000000E+00 0. -1.
         11    1    3    3    0    0 -0.27813539366E+01 -0.14914012496E+02 -0.20128865870E+02  0.25205851303E+02  0.51100000000E-03 0.  1.
        -11    1    3    3    0    0  0.91728939730E+01 -0.80081483760E+00 -0.12063434541E+02  0.15175959325E+02  0.51100000000E-03 0. -1.
         12    1    3    3    0    0 -0.79332340105E+01 -0.59360601945E+01 -0.21883695574E+01  0.10147017977E+02  0.00000000000E+00 0. -1.
</event>
<event>
 7    1  0.8697654E-014  0.5052883E+02  0.7816164E-02  0.1300439E+00
        -11   -1    0    0    0    0  0.00000000000E+00  0.00000000000E+00  0.45593999997E+02  0.45594000000E+02  0.51100000000E-03 0. -1.
         11   -1    0    0    0    0 -0.00000000000E+00 -0.00000000000E+00 -0.45593999997E+02  0.45594000000E+02  0.51100000000E-03 0.  1.
    9900012    2    1    2    0    0  0.10952128527E+02 -0.48993063893E+01  0.38848629118E+02  0.50528827521E+02  0.29999901733E+02 0.  0.
        -12    1    1    2    0    0 -0.10952128527E+02  0.48993063893E+01 -0.38848629118E+02  0.40659172479E+02  0.00000000000E+00 0.  1.
         11    1    3    3    0    0  0.75528113308E+01 -0.35844603528E+01  0.10033117460E+02  0.13059738177E+02  0.51100000000E-03 0. -1.
        -11    1    3    3    0    0  0.97008973014E+01  0.74253593077E+01  0.10003032550E+02  0.15789364451E+02  0.51100000000E-03 0.  1.
         12    1    3    3    0    0 -0.63015801056E+01 -0.87402053442E+01  0.18812479108E+02  0.21679724894E+02  0.00000000000E+00 0. -1.
</event>
<event>
 7    1  0.8697654E-014  0.5052887E+02  0.7816164E-02  0.1300439E+00
        -11   -1    0    0    0    0  0.00000000000E+00  0.00000000000E+00  0.45593999997E+02  0.45594000000E+02  0.51100000000E-03 0. -1.
         11   -1    0    0    0    0 -0.00000000000E+00 -0.00000000000E+00 -0.45593999997E+02  0.45594000000E+02  0.51100000000E-03 0.  1.
    9900012    2    1    2    0    0  0.19781233291E+02 -0.33940137219E+02 -0.10484991126E+02  0.50528866415E+02  0.30000019956E+02 0.  0.
         12    1    1    2    0    0 -0.19781233291E+02  0.33940137219E+02  0.10484991126E+02  0.40659133585E+02  0.00000000000E+00 0. -1.
         11    1    3    3    0    0  0.80966190465E+01 -0.14289667339E+02 -0.11255729495E+02  0.19910833216E+02  0.51100000000E-03 0.  1.
        -11    1    3    3    0    0  0.96802968291E+01 -0.17171723676E+02  0.90912704099E+01  0.21707773691E+02  0.51100000000E-03 0. -1.
         12    1    3    3    0    0  0.20043174154E+01 -0.24787462041E+01 -0.83205320413E+01  0.89102595078E+01  0.00000000000E+00 0. -1.
</event>
<event>
 7    1  0.8697654E-014  0.5052879E+02  0.7816164E-02  0.1300439E+00
        -11   -1    0    0    0    0  0.00000000000E+00  0.00000000000E+00  0.45593999997E+02  0.45594000000E+02  0.51100000000E-03 0. -1.
         11   -1    0    0    0    0 -0.00000000000E+00 -0.00000000000E+00 -0.45593999997E+02  0.45594000000E+02  0.51100000000E-03 0.  1.
    9900012    2    1    2    0    0 -0.12446078386E+02  0.27323122154E+01  0.38610893171E+02  0.50528788636E+02  0.29999783537E+02 0.  0.
        -12    1    1    2    0    0  0.12446078386E+02 -0.27323122154E+01 -0.38610893171E+02  0.40659211364E+02  0.00000000000E+00 0.  1.
         11    1    3    3    0    0  0.30315700242E+01 -0.19385090893E+01  0.67206368254E+01  0.76233322045E+01  0.51100000000E-03 0. -1.
        -11    1    3    3    0    0  0.11281964712E+00  0.41190432689E+01 -0.27230467497E+01  0.49390514865E+01  0.51100000000E-03 0.  1.
         12    1    3    3    0    0 -0.15590468058E+02  0.55177803575E+00  0.34613303096E+02  0.37966404945E+02  0.00000000000E+00 0. -1.
</event>
<event>
 7    1  0.8697654E-014  0.5052886E+02  0.7816164E-02  0.1300439E+00
        -11   -1    0    0    0    0  0.00000000000E+00  0.00000000000E+00  0.45593999997E+02  0.45594000000E+02  0.51100000000E-03 0. -1.
         11   -1    0    0    0    0 -0.00000000000E+00 -0.00000000000E+00 -0.45593999997E+02  0.45594000000E+02  0.51100000000E-03 0.  1.
    9900012    2    1    2    0    0  0.32834718850E+01  0.38499030178E+02  0.12657369599E+02  0.50528861822E+02  0.30000005993E+02 0.  0.
        -12    1    1    2    0    0 -0.32834718850E+01 -0.38499030178E+02 -0.12657369599E+02  0.40659138178E+02  0.00000000000E+00 0.  1.
         11    1    3    3    0    0  0.68184125262E+01  0.65145815900E+01 -0.24123031258E+00  0.94333830091E+01  0.51100000000E-03 0. -1.
        -11    1    3    3    0    0 -0.19713733659E+01  0.18139828416E+02 -0.45122145562E+01  0.18796270065E+02  0.51100000000E-03 0.  1.
         12    1    3    3    0    0 -0.15635672753E+01  0.13844620171E+02  0.17410814468E+02  0.22299208747E+02  0.00000000000E+00 0. -1.
</event>
<event>
 7    1  0.8697654E-014  0.5052885E+02  0.7816164E-02  0.1300439E+00
        -11   -1    0    0    0    0  0.00000000000E+00  0.00000000000E+00  0.45593999997E+02  0.45594000000E+02  0.51100000000E-03 0. -1.
         11   -1    0    0    0    0 -0.00000000000E+00 -0.00000000000E+00 -0.45593999997E+02  0.45594000000E+02  0.51100000000E-03 0.  1.
    9900012    2    1    2    0    0  0.18662191156E+02  0.25663638336E+02 -0.25421778587E+02  0.50528849272E+02  0.29999967848E+02 0.  0.
         12    1    1    2    0    0 -0.18662191156E+02 -0.25663638336E+02  0.25421778587E+02  0.40659150728E+02  0.00000000000E+00 0. -1.
         11    1    3    3    0    0  0.17371205961E+02  0.51081153365E+01 -0.17971425756E+01  0.18195641251E+02  0.51100000000E-03 0.  1.
        -11    1    3    3    0    0 -0.81006347285E+00  0.95058060946E+01 -0.55284661562E+01  0.11026354368E+02  0.51100000000E-03 0. -1.
        -12    1    3    3    0    0  0.21010486673E+01  0.11049716905E+02 -0.18096169855E+02  0.21306853653E+02  0.00000000000E+00 0.  1.
</event>
<event>
 7    1  0.8697654E-014  0.5052886E+02  0.7816164E-02  0.1300439E+00
        -11   -1    0    0    0    0  0.00000000000E+00  0.00000000000E+00  0.45593999997E+02  0.45594000000E+02  0.51100000000E-03 0. -1.
         11   -1    0    0    0    0 -0.00000000000E+00 -0.00000000000E+00 -0.45593999997E+02  0.45594000000E+02  0.51100000000E-03 0.  1.
    9900012    2    1    2    0    0 -0.30775600690E+02  0.57480574385E+01 -0.25942016375E+02  0.50528856186E+02  0.29999988861E+02 0.  0.
         12    1    1    2    0    0  0.30775600690E+02 -0.57480574385E+01  0.25942016375E+02  0.40659143814E+02  0.00000000000E+00 0. -1.
         11    1    3    3    0    0 -0.12858404901E+02 -0.10696359179E+01  0.43017360535E+01  0.13601015805E+02  0.51100000000E-03 0. -1.
        -11    1    3    3    0    0 -0.26046695973E+01  0.46894675514E+01 -0.11042190190E+02  0.12276211716E+02  0.51100000000E-03 0.  1.
        -12    1    3    3    0    0 -0.15312526191E+02  0.21282258050E+01 -0.19201562238E+02  0.24651628665E+02  0.00000000000E+00 0.  1.
</event>
<event>
 7    1  0.8697654E-014  0.5052886E+02  0.7816164E-02  0.1300439E+00
        -11   -1    0    0    0    0  0.00000000000E+00  0.00000000000E+00  0.45593999997E+02  0.45594000000E+02  0.51100000000E-03 0. -1.
         11   -1    0    0    0    0 -0.00000000000E+00 -0.00000000000E+00 -0.45593999997E+02  0.45594000000E+02  0.51100000000E-03 0.  1.
    9900012    2    1    2    0    0  0.20197693694E+01  0.17946144775E+02 -0.36428317631E+02  0.50528857043E+02  0.29999991467E+02 0.  0.
         12    1    1    2    0    0 -0.20197693694E+01 -0.17946144775E+02  0.36428317631E+02  0.40659142957E+02  0.00000000000E+00 0. -1.
         11    1    3    3    0    0 -0.86422403757E+01  0.92721704641E+01 -0.14773804711E+02  0.19466041450E+02  0.51100000000E-03 0. -1.
        -11    1    3    3    0    0 -0.16885148530E+01 -0.40436110674E+01 -0.58777703826E+01  0.73314430916E+01  0.51100000000E-03 0.  1.
         12    1    3    3    0    0  0.12350524598E+02  0.12717585378E+02 -0.15776742538E+02  0.23731372502E+02  0.00000000000E+00 0. -1.
</event>
<event>
 7    1  0.8697654E-014  0.5052885E+02  0.7816164E-02  0.1300439E+00
        -11   -1    0    0    0    0  0.00000000000E+00  0.00000000000E+00  0.45593999997E+02  0.45594000000E+02  0.51100000000E-03 0. -1.
         11   -1    0    0    0    0 -0.00000000000E+00 -0.00000000000E+00 -0.45593999997E+02  0.45594000000E+02  0.51100000000E-03 0.  1.
    9900012    2    1    2    0    0  0.56968470394E+01 -0.66313611273E+01  0.39708148809E+02  0.50528854677E+02  0.29999984276E+02 0.  0.
        -12    1    1    2    0    0 -0.56968470394E+01  0.66313611273E+01 -0.39708148809E+02  0.40659145323E+02  0.00000000000E+00 0.  1.
         11    1    3    3    0    0  0.59265026739E+00  0.64655174568E+00 -0.14238626741E+01  0.16723183534E+01  0.51100000000E-03 0. -1.
        -11    1    3    3    0    0  0.14876020350E+02 -0.70354947676E+01  0.23367454191E+02  0.28580274381E+02  0.51100000000E-03 0.  1.
         12    1    3    3    0    0 -0.97718235783E+01 -0.24241810543E+00  0.17764557292E+02  0.20276261942E+02  0.00000000000E+00 0. -1.
</event>
<event>
 7    1  0.8697654E-014  0.5052886E+02  0.7816164E-02  0.1300439E+00
        -11   -1    0    0    0    0  0.00000000000E+00  0.00000000000E+00  0.45593999997E+02  0.45594000000E+02  0.51100000000E-03 0.  1.
         11   -1    0    0    0    0 -0.00000000000E+00 -0.00000000000E+00 -0.45593999997E+02  0.45594000000E+02  0.51100000000E-03 0. -1.
    9900012    2    1    2    0    0 -0.80024559110E+01 -0.31463434877E+02  0.24478127200E+02  0.50528859009E+02  0.29999997445E+02 0.  0.
        -12    1    1    2    0    0  0.80024559110E+01  0.31463434877E+02 -0.24478127200E+02  0.40659140991E+02  0.00000000000E+00 0.  1.
         11    1    3    3    0    0 -0.38517930101E+01 -0.69580209650E+01  0.19163838834E+02  0.20748568246E+02  0.51100000000E-03 0. -1.
        -11    1    3    3    0    0 -0.11097066605E+01 -0.18531422573E+02  0.10479062625E+02  0.21317969537E+02  0.51100000000E-03 0.  1.
         12    1    3    3    0    0 -0.30409562404E+01 -0.59739913398E+01 -0.51647742593E+01  0.84623212260E+01  0.00000000000E+00 0. -1.
</event>
<event>
 7    1  0.8697654E-014  0.5052886E+02  0.7816164E-02  0.1300439E+00
        -11   -1    0    0    0    0  0.00000000000E+00  0.00000000000E+00  0.45593999997E+02  0.45594000000E+02  0.51100000000E-03 0. -1.
         11   -1    0    0    0    0 -0.00000000000E+00 -0.00000000000E+00 -0.45593999997E+02  0.45594000000E+02  0.51100000000E-03 0.  1.
    9900012    2    1    2    0    0  0.10698235666E+02 -0.17738750058E+02  0.34986426984E+02  0.50528861137E+02  0.30000003911E+02 0.  0.
        -12    1    1    2    0    0 -0.10698235666E+02  0.17738750058E+02 -0.34986426984E+02  0.40659138863E+02  0.00000000000E+00 0.  1.
         11    1    3    3    0    0  0.51422312060E+01 -0.17593795038E+02  0.27820514878E+02  0.33316140442E+02  0.51100000000E-03 0. -1.
        -11    1    3    3    0    0 -0.49458446744E+01  0.10128161972E+01  0.28702911660E+01  0.58073873498E+01  0.51100000000E-03 0.  1.
        -12    1    3    3    0    0  0.10501849135E+02 -0.11577712176E+01  0.42956209399E+01  0.11405333345E+02  0.00000000000E+00 0.  1.
</event>
<event>
 7    1  0.8697654E-014  0.5052885E+02  0.7816164E-02  0.1300439E+00
        -11   -1    0    0    0    0  0.00000000000E+00  0.00000000000E+00  0.45593999997E+02  0.45594000000E+02  0.51100000000E-03 0. -1.
         11   -1    0    0    0    0 -0.00000000000E+00 -0.00000000000E+00 -0.45593999997E+02  0.45594000000E+02  0.51100000000E-03 0.  1.
    9900012    2    1    2    0    0 -0.25155469880E+02 -0.13713411564E+01  0.31913767013E+02  0.50528846462E+02  0.29999959307E+02 0.  0.
        -12    1    1    2    0    0  0.25155469880E+02  0.13713411564E+01 -0.31913767013E+02  0.40659153538E+02  0.00000000000E+00 0.  1.
         11    1    3    3    0    0 -0.51042193817E+01 -0.11451221261E+02  0.86323506735E+01  0.15221727966E+02  0.51100000000E-03 0. -1.
        -11    1    3    3    0    0 -0.87441817405E+01 -0.15667555250E+01  0.14079700936E+02  0.16647925273E+02  0.51100000000E-03 0.  1.
        -12    1    3    3    0    0 -0.11307068757E+02  0.11646635629E+02  0.92017154036E+01  0.18659193223E+02  0.00000000000E+00 0.  1.
</event>
<event>
 7    1  0.8697654E-014  0.5052887E+02  0.7816164E-02  0.1300439E+00
        -11   -1    0    0    0    0  0.00000000000E+00  0.00000000000E+00  0.45593999997E+02  0.45594000000E+02  0.51100000000E-03 0. -1.
         11   -1    0    0    0    0 -0.00000000000E+00 -0.00000000000E+00 -0.45593999997E+02  0.45594000000E+02  0.51100000000E-03 0.  1.
    9900012    2    1    2    0    0  0.13136472466E+01  0.35731933915E+02  0.19356346041E+02  0.50528869384E+02  0.30000028981E+02 0.  0.
        -12    1    1    2    0    0 -0.13136472466E+01 -0.35731933915E+02 -0.19356346041E+02  0.40659130616E+02  0.00000000000E+00 0.  1.
         11    1    3    3    0    0  0.10589255984E+02  0.10024789511E+02  0.42241548332E+01  0.15181311912E+02  0.51100000000E-03 0. -1.
        -11    1    3    3    0    0 -0.10133608404E+01  0.18892933873E+02  0.29862908387E+01  0.19154315017E+02  0.51100000000E-03 0.  1.
         12    1    3    3    0    0 -0.82622478973E+01  0.68142105300E+01  0.12145900369E+02  0.16193242456E+02  0.00000000000E+00 0. -1.
</event>
<event>
 7    1  0.8697654E-014  0.5052886E+02  0.7816164E-02  0.1300439E+00
        -11   -1    0    0    0    0  0.00000000000E+00  0.00000000000E+00  0.45593999997E+02  0.45594000000E+02  0.51100000000E-03 0. -1.
         11   -1    0    0    0    0 -0.00000000000E+00 -0.00000000000E+00 -0.45593999997E+02  0.45594000000E+02  0.51100000000E-03 0.  1.
    9900012    2    1    2    0    0 -0.38225385975E+02  0.10619738585E+01  0.13815141574E+02  0.50528855172E+02  0.29999985781E+02 0.  0.
        -12    1    1    2    0    0  0.38225385975E+02 -0.10619738585E+01 -0.13815141574E+02  0.40659144828E+02  0.00000000000E+00 0.  1.
         11    1    3    3    0    0 -0.69307425182E+01 -0.10127884786E+02  0.24245540070E+01  0.12509504566E+02  0.51100000000E-03 0. -1.
        -11    1    3    3    0    0 -0.52663233318E+01 -0.95665024437E+00  0.72313537515E+01  0.89967671119E+01  0.51100000000E-03 0.  1.
        -12    1    3    3    0    0 -0.26028320125E+02  0.12146508889E+02  0.41592338159E+01  0.29022583494E+02  0.00000000000E+00 0.  1.
</event>
<event>
 7    1  0.8697654E-014  0.5052886E+02  0.7816164E-02  0.1300439E+00
        -11   -1    0    0    0    0  0.00000000000E+00  0.00000000000E+00  0.45593999997E+02  0.45594000000E+02  0.51100000000E-03 0. -1.
         11   -1    0    0    0    0 -0.00000000000E+00 -0.00000000000E+00 -0.45593999997E+02  0.45594000000E+02  0.51100000000E-03 0.  1.
    9900012    2    1    2    0    0  0.74860944397E+01  0.29766480099E+02  0.26666095834E+02  0.50528860628E+02  0.30000002365E+02 0.  0.
        -12    1    1    2    0    0 -0.74860944397E+01 -0.29766480099E+02 -0.26666095834E+02  0.40659139372E+02  0.00000000000E+00 0.  1.
         11    1    3    3    0    0  0.21121017192E+01  0.20666429134E+01  0.62603412046E+01  0.69227060361E+01  0.51100000000E-03 0. -1.
        -11    1    3    3    0    0  0.11513960915E+02  0.27848909699E+02  0.21939630419E+02  0.37275735412E+02  0.51100000000E-03 0.  1.
        -12    1    3    3    0    0 -0.61399681949E+01 -0.14907251309E+00 -0.15338757893E+01  0.63304191793E+01  0.00000000000E+00 0.  1.
</event>
<event>
 7    1  0.8697654E-014  0.5052886E+02  0.7816164E-02  0.1300439E+00
        -11   -1    0    0    0    0  0.00000000000E+00  0.00000000000E+00  0.45593999997E+02  0.45594000000E+02  0.51100000000E-03 0. -1.
         11   -1    0    0    0    0 -0.00000000000E+00 -0.00000000000E+00 -0.45593999997E+02  0.45594000000E+02  0.51100000000E-03 0.  1.
    9900012    2    1    2    0    0 -0.11547477146E+02 -0.15998538323E+02  0.35550927475E+02  0.50528857102E+02  0.29999991646E+02 0.  0.
        -12    1    1    2    0    0  0.11547477146E+02  0.15998538323E+02 -0.35550927475E+02  0.40659142898E+02  0.00000000000E+00 0.  1.
         11    1    3    3    0    0  0.37857037937E+01 -0.49716849887E+01  0.16595785953E+02  0.17733282733E+02  0.51100000000E-03 0. -1.
        -11    1    3    3    0    0 -0.11038101352E+02 -0.10512448760E+02  0.22517535507E+02  0.27191738929E+02  0.51100000000E-03 0.  1.
        -12    1    3    3    0    0 -0.42950795875E+01 -0.51440457408E+00 -0.35623939851E+01  0.56038354396E+01  0.00000000000E+00 0.  1.
</event>
<event>
 7    1  0.8697654E-014  0.5052887E+02  0.7816164E-02  0.1300439E+00
        -11   -1    0    0    0    0  0.00000000000E+00  0.00000000000E+00  0.45593999997E+02  0.45594000000E+02  0.51100000000E-03 0.  1.
         11   -1    0    0    0    0 -0.00000000000E+00 -0.00000000000E+00 -0.45593999997E+02  0.45594000000E+02  0.51100000000E-03 0. -1.
    9900012    2    1    2    0    0 -0.62724009390E+01 -0.33770021646E+02  0.21757935133E+02  0.50528866748E+02  0.30000020967E+02 0.  0.
         12    1    1    2    0    0  0.62724009390E+01  0.33770021646E+02 -0.21757935133E+02  0.40659133252E+02  0.00000000000E+00 0. -1.
         11    1    3    3    0    0  0.99650731977E+01 -0.12986692853E+02  0.31197344615E+01  0.16664021677E+02  0.51100000000E-03 0. -1.
        -11    1    3    3    0    0 -0.81502334578E+00 -0.72948227617E+01  0.77039727839E+01  0.10640953862E+02  0.51100000000E-03 0.  1.
         12    1    3    3    0    0 -0.15422450791E+02 -0.13488506032E+02  0.10934227888E+02  0.23223891209E+02  0.00000000000E+00 0. -1.
</event>
<event>
 7    1  0.8697654E-014  0.5052887E+02  0.7816164E-02  0.1300439E+00
        -11   -1    0    0    0    0  0.00000000000E+00  0.00000000000E+00  0.45593999997E+02  0.45594000000E+02  0.51100000000E-03 0. -1.
         11   -1    0    0    0    0 -0.00000000000E+00 -0.00000000000E+00 -0.45593999997E+02  0.45594000000E+02  0.51100000000E-03 0.  1.
    9900012    2    1    2    0    0  0.16430748315E+02 -0.15546963141E+02 -0.33785904074E+02  0.50528869818E+02  0.30000030299E+02 0.  0.
         12    1    1    2    0    0 -0.16430748315E+02  0.15546963141E+02  0.33785904074E+02  0.40659130182E+02  0.00000000000E+00 0. -1.
         11    1    3    3    0    0 -0.27601501993E+01 -0.77742041732E+01 -0.36316388395E+01  0.90136274924E+01  0.51100000000E-03 0. -1.
        -11    1    3    3    0    0  0.53547608454E+01  0.31804268022E+01  0.38942277176E+00  0.62402106304E+01  0.51100000000E-03 0.  1.
        -12    1    3    3    0    0  0.13836137669E+02 -0.10953185770E+02 -0.30543688006E+02  0.35275031695E+02  0.00000000000E+00 0.  1.
</event>
<event>
 7    1  0.8697654E-014  0.5052886E+02  0.7816164E-02  0.1300439E+00
        -11   -1    0    0    0    0  0.00000000000E+00  0.00000000000E+00  0.45593999997E+02  0.45594000000E+02  0.51100000000E-03 0. -1.
         11   -1    0    0    0    0 -0.00000000000E+00 -0.00000000000E+00 -0.45593999997E+02  0.45594000000E+02  0.51100000000E-03 0.  1.
    9900012    2    1    2    0    0  0.26324350092E+01 -0.71028060540E+01 -0.39947289155E+02  0.50528862297E+02  0.30000007439E+02 0.  0.
         12    1    1    2    0    0 -0.26324350092E+01  0.71028060540E+01  0.39947289155E+02  0.40659137703E+02  0.00000000000E+00 0. -1.
         11    1    3    3    0    0  0.86744717506E+00 -0.20398197208E+01 -0.13923928615E+02  0.14099259464E+02  0.51100000000E-03 0. -1.
        -11    1    3    3    0    0  0.24236783546E+01 -0.14289181289E+02 -0.90134429095E+01  0.17067427223E+02  0.51100000000E-03 0.  1.
         12    1    3    3    0    0 -0.65869052042E+00  0.92261949560E+01 -0.17009917630E+02  0.19362175610E+02  0.00000000000E+00 0. -1.
</event>
<event>
 7    1  0.8697654E-014  0.5052884E+02  0.7816164E-02  0.1300439E+00
        -11   -1    0    0    0    0  0.00000000000E+00  0.00000000000E+00  0.45593999997E+02  0.45594000000E+02  0.51100000000E-03 0. -1.
         11   -1    0    0    0    0 -0.00000000000E+00 -0.00000000000E+00 -0.45593999997E+02  0.45594000000E+02  0.51100000000E-03 0.  1.
    9900012    2    1    2    0    0  0.90848944573E+01 -0.24068378816E+02 -0.31485630382E+02  0.50528842523E+02  0.29999947334E+02 0.  0.
         12    1    1    2    0    0 -0.90848944573E+01  0.24068378816E+02  0.31485630382E+02  0.40659157477E+02  0.00000000000E+00 0. -1.
         11    1    3    3    0    0  0.97405190180E+01 -0.14131704670E+02 -0.13041238099E+02  0.21555896619E+02  0.51100000000E-03 0. -1.
        -11    1    3    3    0    0 -0.67268685405E+01 -0.13594097503E+02 -0.11343630676E+02  0.18940121553E+02  0.51100000000E-03 0.  1.
         12    1    3    3    0    0  0.60712439798E+01  0.36574233560E+01 -0.71007616074E+01  0.10032824352E+02  0.00000000000E+00 0. -1.
</event>
<event>
 7    1  0.8697654E-014  0.5052885E+02  0.7816164E-02  0.1300439E+00
        -11   -1    0    0    0    0  0.00000000000E+00  0.00000000000E+00  0.45593999997E+02  0.45594000000E+02  0.51100000000E-03 0.  1.
         11   -1    0    0    0    0 -0.00000000000E+00 -0.00000000000E+00 -0.45593999997E+02  0.45594000000E+02  0.51100000000E-03 0. -1.
    9900012    2    1    2    0    0  0.18670479641E+02  0.27786212389E+02  0.23076088066E+02  0.50528852821E+02  0.29999978633E+02 0.  0.
        -12    1    1    2    0    0 -0.18670479641E+02 -0.27786212389E+02 -0.23076088066E+02  0.40659147179E+02  0.00000000000E+00 0.  1.
         11    1    3    3    0    0  0.10867495524E+02  0.16660107445E+02  0.16269902527E+02  0.25697691872E+02  0.51100000000E-03 0. -1.
        -11    1    3    3    0    0 -0.25589304340E+01  0.10776703440E+02 -0.19668829253E+01  0.11249626247E+02  0.51100000000E-03 0.  1.
        -12    1    3    3    0    0  0.10361914551E+02  0.34940150384E+00  0.87730684641E+01  0.13581534702E+02  0.00000000000E+00 0.  1.
</event>
<event>
 7    1  0.8697654E-014  0.5052886E+02  0.7816164E-02  0.1300439E+00
        -11   -1    0    0    0    0  0.00000000000E+00  0.00000000000E+00  0.45593999997E+02  0.45594000000E+02  0.51100000000E-03 0. -1.
         11   -1    0    0    0    0 -0.00000000000E+00 -0.00000000000E+00 -0.45593999997E+02  0.45594000000E+02  0.51100000000E-03 0.  1.
    9900012    2    1    2    0    0  0.22083843593E+02  0.29885839363E+02  0.16501708872E+02  0.50528856650E+02  0.29999990272E+02 0.  0.
        -12    1    1    2    0    0 -0.22083843593E+02 -0.29885839363E+02 -0.16501708872E+02  0.40659143350E+02  0.00000000000E+00 0.  1.
         11    1    3    3    0    0  0.79308368779E+01  0.10682435682E+02 -0.19394632064E+01  0.13445226791E+02  0.51100000000E-03 0.  1.
        -11    1    3    3    0    0 -0.47320060148E+01  0.57105868042E+01  0.98607956258E+01  0.12338475319E+02  0.51100000000E-03 0. -1.
         12    1    3    3    0    0  0.18885012730E+02  0.13492816877E+02  0.85803764530E+01  0.24745154539E+02  0.00000000000E+00 0. -1.
</event>
<event>
 7    1  0.8697654E-014  0.5052886E+02  0.7816164E-02  0.1300439E+00
        -11   -1    0    0    0    0  0.00000000000E+00  0.00000000000E+00  0.45593999997E+02  0.45594000000E+02  0.51100000000E-03 0. -1.
         11   -1    0    0    0    0 -0.00000000000E+00 -0.00000000000E+00 -0.45593999997E+02  0.45594000000E+02  0.51100000000E-03 0.  1.
    9900012    2    1    2    0    0  0.11667539424E+02  0.26964311194E+02 -0.28106222280E+02  0.50528864677E+02  0.30000014673E+02 0.  0.
         12    1    1    2    0    0 -0.11667539424E+02 -0.26964311194E+02  0.28106222280E+02  0.40659135323E+02  0.00000000000E+00 0. -1.
         11    1    3    3    0    0  0.15085443285E+01  0.17132622770E+02 -0.24571723224E+02  0.29992866676E+02  0.51100000000E-03 0. -1.
        -11    1    3    3    0    0  0.99909208293E+01  0.13277329268E+02 -0.19194885340E+01  0.16726936599E+02  0.51100000000E-03 0.  1.
        -12    1    3    3    0    0  0.16807426635E+00 -0.34456408436E+01 -0.16150105212E+01  0.38090614022E+01  0.00000000000E+00 0.  1.
</event>
<event>
 7    1  0.8697654E-014  0.5052886E+02  0.7816164E-02  0.1300439E+00
        -11   -1    0    0    0    0  0.00000000000E+00  0.00000000000E+00  0.45593999997E+02  0.45594000000E+02  0.51100000000E-03 0. -1.
         11   -1    0    0    0    0 -0.00000000000E+00 -0.00000000000E+00 -0.45593999997E+02  0.45594000000E+02  0.51100000000E-03 0.  1.
    9900012    2    1    2    0    0 -0.19326701206E+02 -0.21678043241E+01  0.35706365521E+02  0.50528864571E+02  0.30000014351E+02 0.  0.
        -12    1    1    2    0    0  0.19326701206E+02  0.21678043241E+01 -0.35706365521E+02  0.40659135429E+02  0.00000000000E+00 0.  1.
         11    1    3    3    0    0 -0.13339873622E+02 -0.38654355084E+01  0.26310472585E+02  0.29751214897E+02  0.51100000000E-03 0. -1.
        -11    1    3    3    0    0  0.64961448166E+00  0.37656050901E+01  0.12568598891E+02  0.13136645653E+02  0.51100000000E-03 0.  1.
        -12    1    3    3    0    0 -0.66364420661E+01 -0.20679739057E+01 -0.31727059559E+01  0.76410040213E+01  0.00000000000E+00 0.  1.
</event>
<event>
 7    1  0.8697654E-014  0.5052886E+02  0.7816164E-02  0.1300439E+00
        -11   -1    0    0    0    0  0.00000000000E+00  0.00000000000E+00  0.45593999997E+02  0.45594000000E+02  0.51100000000E-03 0. -1.
         11   -1    0    0    0    0 -0.00000000000E+00 -0.00000000000E+00 -0.45593999997E+02  0.45594000000E+02  0.51100000000E-03 0.  1.
    9900012    2    1    2    0    0  0.72795090509E+00 -0.15697601923E+02  0.37499615436E+02  0.50528858636E+02  0.29999996309E+02 0.  0.
        -12    1    1    2    0    0 -0.72795090509E+00  0.15697601923E+02 -0.37499615436E+02  0.40659141364E+02  0.00000000000E+00 0.  1.
         11    1    3    3    0    0 -0.98816139412E+01 -0.70872130168E+01  0.22461774709E+02  0.25542243554E+02  0.51100000000E-03 0. -1.
        -11    1    3    3    0    0  0.19977731122E+01  0.59657380753E+00  0.11783538157E+02  0.11966568826E+02  0.51100000000E-03 0.  1.
        -12    1    3    3    0    0  0.86117917341E+01 -0.92069627139E+01  0.32543025700E+01  0.13020046256E+02  0.00000000000E+00 0.  1.
</event>
<event>
 7    1  0.8697654E-014  0.5052885E+02  0.7816164E-02  0.1300439E+00
        -11   -1    0    0    0    0  0.00000000000E+00  0.00000000000E+00  0.45593999997E+02  0.45594000000E+02  0.51100000000E-03 0. -1.
         11   -1    0    0    0    0 -0.00000000000E+00 -0.00000000000E+00 -0.45593999997E+02  0.45594000000E+02  0.51100000000E-03 0.  1.
    9900012    2    1    2    0    0  0.14866489867E+02 -0.23014821173E+02 -0.30041173517E+02  0.50528848252E+02  0.29999964747E+02 0.  0.
         12    1    1    2    0    0 -0.14866489867E+02  0.23014821173E+02  0.30041173517E+02  0.40659151748E+02  0.00000000000E+00 0. -1.
         11    1    3    3    0    0  0.84742276537E+01 -0.47746086718E+01  0.10564579759E+01  0.97839422531E+01  0.51100000000E-03 0. -1.
        -11    1    3    3    0    0  0.10239788564E+01 -0.18422766989E+02 -0.15013721179E+02  0.23787784683E+02  0.51100000000E-03 0.  1.
        -12    1    3    3    0    0  0.53682833570E+01  0.18255448757E+00 -0.16083910314E+02  0.16957121316E+02  0.00000000000E+00 0.  1.
</event>
<event>
 7    1  0.8697654E-014  0.5052887E+02  0.7816164E-02  0.1300439E+00
        -11   -1    0    0    0    0  0.00000000000E+00  0.00000000000E+00  0.45593999997E+02  0.45594000000E+02  0.51100000000E-03 0. -1.
         11   -1    0    0    0    0 -0.00000000000E+00 -0.00000000000E+00 -0.45593999997E+02  0.45594000000E+02  0.51100000000E-03 0.  1.
    9900012    2    1    2    0    0  0.22757470427E+02  0.56612007542E+01  0.33214658090E+02  0.50528866140E+02  0.30000019120E+02 0.  0.
        -12    1    1    2    0    0 -0.22757470427E+02 -0.56612007542E+01 -0.33214658090E+02  0.40659133860E+02  0.00000000000E+00 0.  1.
         11    1    3    3    0    0  0.60159736335E+01 -0.14462757285E+01  0.29897094675E+02  0.30530639078E+02  0.51100000000E-03 0. -1.
        -11    1    3    3    0    0  0.60845705367E+01  0.14510383628E+00  0.39451523228E+01  0.72530876770E+01  0.51100000000E-03 0.  1.
        -12    1    3    3    0    0  0.10656926257E+02  0.69623726465E+01 -0.62758890850E+00  0.12745139385E+02  0.00000000000E+00 0.  1.
</event>
<event>
 7    1  0.8697654E-014  0.5052886E+02  0.7816164E-02  0.1300439E+00
        -11   -1    0    0    0    0  0.00000000000E+00  0.00000000000E+00  0.45593999997E+02  0.45594000000E+02  0.51100000000E-03 0. -1.
         11   -1    0    0    0    0 -0.00000000000E+00 -0.00000000000E+00 -0.45593999997E+02  0.45594000000E+02  0.51100000000E-03 0.  1.
    9900012    2    1    2    0    0  0.21066427975E+02 -0.79270603094E+01  0.33860494253E+02  0.50528859037E+02  0.29999997530E+02 0.  0.
        -12    1    1    2    0    0 -0.21066427975E+02  0.79270603094E+01 -0.33860494253E+02  0.40659140963E+02  0.00000000000E+00 0.  1.
         11    1    3    3    0    0  0.99092705538E+01  0.16276810950E+01  0.57037228217E+01  0.11548828639E+02  0.51100000000E-03 0. -1.
        -11    1    3    3    0    0 -0.17047822964E+01  0.59082129025E+01  0.10731862703E+02  0.12368756596E+02  0.51100000000E-03 0.  1.
         12    1    3    3    0    0  0.12861939717E+02 -0.15462954307E+02  0.17424908728E+02  0.26611273802E+02  0.00000000000E+00 0. -1.
</event>
<event>
 7    1  0.8697654E-014  0.5052885E+02  0.7816164E-02  0.1300439E+00
        -11   -1    0    0    0    0  0.00000000000E+00  0.00000000000E+00  0.45593999997E+02  0.45594000000E+02  0.51100000000E-03 0. -1.
         11   -1    0    0    0    0 -0.00000000000E+00 -0.00000000000E+00 -0.45593999997E+02  0.45594000000E+02  0.51100000000E-03 0.  1.
    9900012    2    1    2    0    0 -0.21826668012E+02  0.89576938639E+00 -0.34292277430E+02  0.50528854281E+02  0.29999983071E+02 0.  0.
         12    1    1    2    0    0  0.21826668012E+02 -0.89576938639E+00  0.34292277430E+02  0.40659145719E+02  0.00000000000E+00 0. -1.
         11    1    3    3    0    0  0.31369840768E+01  0.20090601909E+01  0.33685760704E+01  0.50223796105E+01  0.51100000000E-03 0. -1.
        -11    1    3    3    0    0 -0.67654111319E+01 -0.26716120486E+01 -0.10306797926E+02  0.12615006241E+02  0.51100000000E-03 0.  1.
        -12    1    3    3    0    0 -0.18198240957E+02  0.15583212440E+01 -0.27354055574E+02  0.32891468429E+02  0.00000000000E+00 0.  1.
</event>
<event>
 7    1  0.8697654E-014  0.5052886E+02  0.7816164E-02  0.1300439E+00
        -11   -1    0    0    0    0  0.00000000000E+00  0.00000000000E+00  0.45593999997E+02  0.45594000000E+02  0.51100000000E-03 0. -1.
         11   -1    0    0    0    0 -0.00000000000E+00 -0.00000000000E+00 -0.45593999997E+02  0.45594000000E+02  0.51100000000E-03 0.  1.
    9900012    2    1    2    0    0  0.22950487478E+02 -0.87424151051E+01  0.32403878689E+02  0.50528855255E+02  0.29999986033E+02 0.  0.
        -12    1    1    2    0    0 -0.22950487478E+02  0.87424151051E+01 -0.32403878689E+02  0.40659144745E+02  0.00000000000E+00 0.  1.
         11    1    3    3    0    0  0.18394852764E+02  0.49465777684E+01  0.15756293506E+02  0.24720437398E+02  0.51100000000E-03 0. -1.
        -11    1    3    3    0    0  0.55805028573E+01 -0.66335601325E+01  0.11436638116E+01  0.87438034828E+01  0.51100000000E-03 0.  1.
         12    1    3    3    0    0 -0.10248681433E+01 -0.70554327411E+01  0.15503921371E+02  0.17064614374E+02  0.00000000000E+00 0. -1.
</event>
<event>
 7    1  0.8697654E-014  0.5052887E+02  0.7816164E-02  0.1300439E+00
        -11   -1    0    0    0    0  0.00000000000E+00  0.00000000000E+00  0.45593999997E+02  0.45594000000E+02  0.51100000000E-03 0. -1.
         11   -1    0    0    0    0 -0.00000000000E+00 -0.00000000000E+00 -0.45593999997E+02  0.45594000000E+02  0.51100000000E-03 0.  1.
    9900012    2    1    2    0    0 -0.37259929663E+02  0.88621897464E+01  0.13650070111E+02  0.50528865976E+02  0.30000018620E+02 0.  0.
         12    1    1    2    0    0  0.37259929663E+02 -0.88621897464E+01 -0.13650070111E+02  0.40659134024E+02  0.00000000000E+00 0. -1.
         11    1    3    3    0    0 -0.15759689308E+02 -0.13614063282E+01  0.44170184192E+01  0.16423497991E+02  0.51100000000E-03 0. -1.
        -11    1    3    3    0    0 -0.12426398276E+01 -0.42575480607E+01 -0.39416887578E+01  0.59336143922E+01  0.51100000000E-03 0.  1.
         12    1    3    3    0    0 -0.20257600526E+02  0.14481144135E+02  0.13174740450E+02  0.28171753592E+02  0.00000000000E+00 0. -1.
</event>
<event>
 7    1  0.9391035E-014  0.5052886E+02  0.7816164E-02  0.1300439E+00
        -11   -1    0    0    0    0  0.00000000000E+00  0.00000000000E+00  0.45593999997E+02  0.45594000000E+02  0.51100000000E-03 0. -1.
         11   -1    0    0    0    0 -0.00000000000E+00 -0.00000000000E+00 -0.45593999997E+02  0.45594000000E+02  0.51100000000E-03 0.  1.
    9900012    2    1    2    0    0  0.10389758206E+02 -0.11885410659E-01 -0.39309265913E+02  0.50528860763E+02  0.30000002775E+02 0.  0.
         12    1    1    2    0    0 -0.10389758206E+02  0.11885410659E-01  0.39309265913E+02  0.40659139237E+02  0.00000000000E+00 0. -1.
         11    1    3    3    0    0  0.92276053832E+01 -0.54408480982E+01 -0.49250987728E+01  0.11790170793E+02  0.51100000000E-03 0. -1.
        -11    1    3    3    0    0 -0.28519695229E+01 -0.50599350892E+01 -0.17683904393E+02  0.18613359399E+02  0.51100000000E-03 0.  1.
         12    1    3    3    0    0  0.40141223457E+01  0.10488897777E+02 -0.16700262748E+02  0.20125330572E+02  0.00000000000E+00 0. -1.
</event>
<event>
 7    1  0.8697654E-014  0.5052895E+02  0.7816164E-02  0.1300438E+00
        -11   -1    0    0    0    0  0.00000000000E+00  0.00000000000E+00  0.45593999997E+02  0.45594000000E+02  0.51100000000E-03 0.  1.
         11   -1    0    0    0    0 -0.00000000000E+00 -0.00000000000E+00 -0.45593999997E+02  0.45594000000E+02  0.51100000000E-03 0. -1.
    9900012    2    1    2    0    0  0.31127890519E+02  0.25995366858E+02 -0.29075345364E+01  0.50528949060E+02  0.30000271162E+02 0.  0.
         12    1    1    2    0    0 -0.31127890519E+02 -0.25995366858E+02  0.29075345364E+01  0.40659050940E+02  0.00000000000E+00 0. -1.
         11    1    3    3    0    0  0.49552031060E+01  0.76126580773E+01 -0.34990884277E+01  0.97339725143E+01  0.51100000000E-03 0. -1.
        -11    1    3    3    0    0 -0.45944174599E+01  0.85510281053E+00 -0.24106775260E+01  0.52584445426E+01  0.51100000000E-03 0.  1.
        -12    1    3    3    0    0  0.30767104873E+02  0.17527605970E+02  0.30022314174E+01  0.35536532003E+02  0.00000000000E+00 0.  1.
</event>
<event>
 7    1  0.8697654E-014  0.5052886E+02  0.7816164E-02  0.1300439E+00
        -11   -1    0    0    0    0  0.00000000000E+00  0.00000000000E+00  0.45593999997E+02  0.45594000000E+02  0.51100000000E-03 0.  1.
         11   -1    0    0    0    0 -0.00000000000E+00 -0.00000000000E+00 -0.45593999997E+02  0.45594000000E+02  0.51100000000E-03 0. -1.
    9900012    2    1    2    0    0 -0.31049162946E+02 -0.18075756532E+01  0.26188698536E+02  0.50528858588E+02  0.29999996164E+02 0.  0.
        -12    1    1    2    0    0  0.31049162946E+02  0.18075756532E+01 -0.26188698536E+02  0.40659141412E+02  0.00000000000E+00 0.  1.
         11    1    3    3    0    0 -0.97803425021E+01  0.14387097309E+01  0.67700131280E+01  0.11981571815E+02  0.51100000000E-03 0. -1.
        -11    1    3    3    0    0 -0.50585738446E-01  0.88610298928E+01  0.47954067319E+01  0.10075531533E+02  0.51100000000E-03 0.  1.
         12    1    3    3    0    0 -0.21218234705E+02 -0.12107315277E+02  0.14623278676E+02  0.28471755240E+02  0.00000000000E+00 0. -1.
</event>
<event>
 7    1  0.8697654E-014  0.5052888E+02  0.7816164E-02  0.1300439E+00
        -11   -1    0    0    0    0  0.00000000000E+00  0.00000000000E+00  0.45593999997E+02  0.45594000000E+02  0.51100000000E-03 0. -1.
         11   -1    0    0    0    0 -0.00000000000E+00 -0.00000000000E+00 -0.45593999997E+02  0.45594000000E+02  0.51100000000E-03 0.  1.
    9900012    2    1    2    0    0 -0.34568149878E+01 -0.23405257876E+02  0.33066723954E+02  0.50528881722E+02  0.30000066482E+02 0.  0.
        -12    1    1    2    0    0  0.34568149878E+01  0.23405257876E+02 -0.33066723954E+02  0.40659118278E+02  0.00000000000E+00 0.  1.
         11    1    3    3    0    0  0.22156723897E+01 -0.97946479282E+01  0.27001906900E+02  0.28808806096E+02  0.51100000000E-03 0. -1.
        -11    1    3    3    0    0 -0.98137116019E+01 -0.48121407038E+01  0.47105477764E+01  0.11901886160E+02  0.51100000000E-03 0.  1.
        -12    1    3    3    0    0  0.41412242245E+01 -0.87984692436E+01  0.13542692782E+01  0.98181894658E+01  0.00000000000E+00 0.  1.
</event>
<event>
 7    1  0.8697654E-014  0.5052883E+02  0.7816164E-02  0.1300439E+00
        -11   -1    0    0    0    0  0.00000000000E+00  0.00000000000E+00  0.45593999997E+02  0.45594000000E+02  0.51100000000E-03 0. -1.
         11   -1    0    0    0    0 -0.00000000000E+00 -0.00000000000E+00 -0.45593999997E+02  0.45594000000E+02  0.51100000000E-03 0.  1.
    9900012    2    1    2    0    0  0.30793134730E+02  0.72039841543E+01  0.25554912166E+02  0.50528830432E+02  0.29999910580E+02 0.  0.
        -12    1    1    2    0    0 -0.30793134730E+02 -0.72039841543E+01 -0.25554912166E+02  0.40659169568E+02  0.00000000000E+00 0.  1.
         11    1    3    3    0    0  0.64079832657E+01 -0.32008942741E+01  0.87241554718E+01  0.11287996396E+02  0.51100000000E-03 0. -1.
        -11    1    3    3    0    0 -0.59975124494E+00  0.86685618080E+01  0.10066997327E+02  0.13298424749E+02  0.51100000000E-03 0.  1.
        -12    1    3    3    0    0  0.24984902709E+02  0.17363166204E+01  0.67637593677E+01  0.25942409286E+02  0.00000000000E+00 0.  1.
</event>
<event>
 7    1  0.8697654E-014  0.5052886E+02  0.7816164E-02  0.1300439E+00
        -11   -1    0    0    0    0  0.00000000000E+00  0.00000000000E+00  0.45593999997E+02  0.45594000000E+02  0.51100000000E-03 0. -1.
         11   -1    0    0    0    0 -0.00000000000E+00 -0.00000000000E+00 -0.45593999997E+02  0.45594000000E+02  0.51100000000E-03 0.  1.
    9900012    2    1    2    0    0  0.90839118789E+01 -0.24337462099E+02 -0.31278366029E+02  0.50528859602E+02  0.29999999247E+02 0.  0.
         12    1    1    2    0    0 -0.90839118789E+01  0.24337462099E+02  0.31278366029E+02  0.40659140398E+02  0.00000000000E+00 0. -1.
         11    1    3    3    0    0  0.23372203558E+01 -0.91443234034E+01 -0.12192574405E+02  0.15418823573E+02  0.51100000000E-03 0. -1.
        -11    1    3    3    0    0  0.10539321705E+02 -0.72710171895E+01  0.13418257100E+01  0.12874218014E+02  0.51100000000E-03 0.  1.
         12    1    3    3    0    0 -0.37926301820E+01 -0.79221215062E+01 -0.20427617334E+02  0.22235818015E+02  0.00000000000E+00 0. -1.
</event>
<event>
 7    1  0.8697654E-014  0.5052885E+02  0.7816164E-02  0.1300439E+00
        -11   -1    0    0    0    0  0.00000000000E+00  0.00000000000E+00  0.45593999997E+02  0.45594000000E+02  0.51100000000E-03 0. -1.
         11   -1    0    0    0    0 -0.00000000000E+00 -0.00000000000E+00 -0.45593999997E+02  0.45594000000E+02  0.51100000000E-03 0.  1.
    9900012    2    1    2    0    0  0.13935761047E+02 -0.30773462122E+01 -0.38072177786E+02  0.50528853218E+02  0.29999979842E+02 0.  0.
         12    1    1    2    0    0 -0.13935761047E+02  0.30773462122E+01  0.38072177786E+02  0.40659146782E+02  0.00000000000E+00 0. -1.
         11    1    3    3    0    0 -0.48133286307E+01 -0.64441952613E+01 -0.17271057386E+02  0.19052170704E+02  0.51100000000E-03 0. -1.
        -11    1    3    3    0    0  0.91134289746E+01 -0.52593513438E+01 -0.11216733428E+02  0.15379547240E+02  0.51100000000E-03 0.  1.
        -12    1    3    3    0    0  0.96356607033E+01  0.86262003929E+01 -0.95843869716E+01  0.16097135274E+02  0.00000000000E+00 0.  1.
</event>
<event>
 7    1  0.8697654E-014  0.5052886E+02  0.7816164E-02  0.1300439E+00
        -11   -1    0    0    0    0  0.00000000000E+00  0.00000000000E+00  0.45593999997E+02  0.45594000000E+02  0.51100000000E-03 0. -1.
         11   -1    0    0    0    0 -0.00000000000E+00 -0.00000000000E+00 -0.45593999997E+02  0.45594000000E+02  0.51100000000E-03 0.  1.
    9900012    2    1    2    0    0  0.82576631868E+01  0.35645696834E+02 -0.17730223088E+02  0.50528861854E+02  0.30000006090E+02 0.  0.
         12    1    1    2    0    0 -0.82576631868E+01 -0.35645696834E+02  0.17730223088E+02  0.40659138146E+02  0.00000000000E+00 0. -1.
         11    1    3    3    0    0  0.12158250500E+02  0.11206795056E+02 -0.12463853818E+02  0.20706592257E+02  0.51100000000E-03 0. -1.
        -11    1    3    3    0    0  0.14760586945E+01  0.20710408534E+02 -0.86065715438E+01  0.22476050475E+02  0.51100000000E-03 0.  1.
        -12    1    3    3    0    0 -0.53766460076E+01  0.37284932430E+01  0.33402022743E+01  0.73462191219E+01  0.00000000000E+00 0.  1.
</event>
<event>
 7    1  0.8697654E-014  0.5052887E+02  0.7816164E-02  0.1300439E+00
        -11   -1    0    0    0    0  0.00000000000E+00  0.00000000000E+00  0.45593999997E+02  0.45594000000E+02  0.51100000000E-03 0. -1.
         11   -1    0    0    0    0 -0.00000000000E+00 -0.00000000000E+00 -0.45593999997E+02  0.45594000000E+02  0.51100000000E-03 0.  1.
    9900012    2    1    2    0    0 -0.17129819071E+02  0.25941313729E+02  0.26206526022E+02  0.50528874757E+02  0.30000045311E+02 0.  0.
        -12    1    1    2    0    0  0.17129819071E+02 -0.25941313729E+02 -0.26206526022E+02  0.40659125243E+02  0.00000000000E+00 0.  1.
         11    1    3    3    0    0  0.16571522177E+01  0.49546263350E+01  0.14216705269E+02  0.15146259754E+02  0.51100000000E-03 0. -1.
        -11    1    3    3    0    0 -0.95579303428E+00 -0.30827923474E+01  0.35276912536E+00  0.32467822992E+01  0.51100000000E-03 0.  1.
         12    1    3    3    0    0 -0.17831178254E+02  0.24069479741E+02  0.11637051628E+02  0.32135832703E+02  0.00000000000E+00 0. -1.
</event>
<event>
 7    1  0.8697654E-014  0.5052886E+02  0.7816164E-02  0.1300439E+00
        -11   -1    0    0    0    0  0.00000000000E+00  0.00000000000E+00  0.45593999997E+02  0.45594000000E+02  0.51100000000E-03 0. -1.
         11   -1    0    0    0    0 -0.00000000000E+00 -0.00000000000E+00 -0.45593999997E+02  0.45594000000E+02  0.51100000000E-03 0.  1.
    9900012    2    1    2    0    0 -0.83766253767E+01 -0.90092210012E+01 -0.38753474521E+02  0.50528859537E+02  0.29999999048E+02 0.  0.
         12    1    1    2    0    0  0.83766253767E+01  0.90092210012E+01  0.38753474521E+02  0.40659140463E+02  0.00000000000E+00 0. -1.
         11    1    3    3    0    0 -0.11937553044E+02 -0.88025748935E+01 -0.13887861880E+02  0.20319035540E+02  0.51100000000E-03 0. -1.
        -11    1    3    3    0    0 -0.62545209737E+01  0.27965111746E+01 -0.10979646058E+02  0.12941875258E+02  0.51100000000E-03 0.  1.
         12    1    3    3    0    0  0.98154486413E+01 -0.30031572823E+01 -0.13885966583E+02  0.17267948739E+02  0.00000000000E+00 0. -1.
</event>
<event>
 7    1  0.8697654E-014  0.5052881E+02  0.7816164E-02  0.1300439E+00
        -11   -1    0    0    0    0  0.00000000000E+00  0.00000000000E+00  0.45593999997E+02  0.45594000000E+02  0.51100000000E-03 0. -1.
         11   -1    0    0    0    0 -0.00000000000E+00 -0.00000000000E+00 -0.45593999997E+02  0.45594000000E+02  0.51100000000E-03 0.  1.
    9900012    2    1    2    0    0 -0.11828979235E+02  0.49764553205E+00  0.38897265042E+02  0.50528811265E+02  0.29999852320E+02 0.  0.
        -12    1    1    2    0    0  0.11828979235E+02 -0.49764553205E+00 -0.38897265042E+02  0.40659188735E+02  0.00000000000E+00 0.  1.
         11    1    3    3    0    0 -0.79494559484E+00 -0.26107836410E+01 -0.34473859363E+00  0.27508134575E+01  0.51100000000E-03 0.  1.
        -11    1    3    3    0    0 -0.12583752509E+02 -0.27278946603E+01  0.39686569085E+02  0.41723087164E+02  0.51100000000E-03 0. -1.
         12    1    3    3    0    0  0.15497188692E+01  0.58363238334E+01 -0.44456544886E+00  0.60549106435E+01  0.00000000000E+00 0. -1.
</event>
<event>
 7    1  0.8697654E-014  0.5052887E+02  0.7816164E-02  0.1300439E+00
        -11   -1    0    0    0    0  0.00000000000E+00  0.00000000000E+00  0.45593999997E+02  0.45594000000E+02  0.51100000000E-03 0.  1.
         11   -1    0    0    0    0 -0.00000000000E+00 -0.00000000000E+00 -0.45593999997E+02  0.45594000000E+02  0.51100000000E-03 0. -1.
    9900012    2    1    2    0    0 -0.97208040076E+01  0.36007611040E+02 -0.16190213551E+02  0.50528866977E+02  0.30000021664E+02 0.  0.
         12    1    1    2    0    0  0.97208040076E+01 -0.36007611040E+02  0.16190213551E+02  0.40659133023E+02  0.00000000000E+00 0. -1.
         11    1    3    3    0    0  0.10724221937E+01 -0.27033587046E+01 -0.35857416249E+01  0.46169016568E+01  0.51100000000E-03 0. -1.
        -11    1    3    3    0    0 -0.47649088725E+01  0.22067848077E+02  0.24045553213E+01  0.22704100111E+02  0.51100000000E-03 0.  1.
         12    1    3    3    0    0 -0.60283173288E+01  0.16643121667E+02 -0.15009027248E+02  0.23207865209E+02  0.00000000000E+00 0. -1.
</event>
<event>
 7    1  0.8697654E-014  0.5052887E+02  0.7816164E-02  0.1300439E+00
        -11   -1    0    0    0    0  0.00000000000E+00  0.00000000000E+00  0.45593999997E+02  0.45594000000E+02  0.51100000000E-03 0. -1.
         11   -1    0    0    0    0 -0.00000000000E+00 -0.00000000000E+00 -0.45593999997E+02  0.45594000000E+02  0.51100000000E-03 0.  1.
    9900012    2    1    2    0    0  0.37811973491E+02  0.28771296490E+01 -0.14667711591E+02  0.50528868459E+02  0.30000026168E+02 0.  0.
         12    1    1    2    0    0 -0.37811973491E+02 -0.28771296490E+01  0.14667711591E+02  0.40659131541E+02  0.00000000000E+00 0. -1.
         11    1    3    3    0    0 -0.11336397093E+01 -0.31852390564E+01  0.33078526488E+01  0.47299869180E+01  0.51100000000E-03 0. -1.
        -11    1    3    3    0    0  0.20496180790E+02 -0.11382703901E+01 -0.25297153680E+01  0.20683049740E+02  0.51100000000E-03 0.  1.
        -12    1    3    3    0    0  0.18449432411E+02  0.72006390954E+01 -0.15445848872E+02  0.25115831801E+02  0.00000000000E+00 0.  1.
</event>
<event>
 7    1  0.8697654E-014  0.5052886E+02  0.7816164E-02  0.1300439E+00
        -11   -1    0    0    0    0  0.00000000000E+00  0.00000000000E+00  0.45593999997E+02  0.45594000000E+02  0.51100000000E-03 0. -1.
         11   -1    0    0    0    0 -0.00000000000E+00 -0.00000000000E+00 -0.45593999997E+02  0.45594000000E+02  0.51100000000E-03 0.  1.
    9900012    2    1    2    0    0 -0.15912753807E+02 -0.37045480038E+02 -0.52518561748E+01  0.50528864270E+02  0.30000013436E+02 0.  0.
         12    1    1    2    0    0  0.15912753807E+02  0.37045480038E+02  0.52518561748E+01  0.40659135730E+02  0.00000000000E+00 0. -1.
         11    1    3    3    0    0 -0.51631390903E+00 -0.10907167402E+02  0.57724133457E+01  0.12351260538E+02  0.51100000000E-03 0. -1.
        -11    1    3    3    0    0 -0.37109028347E+01 -0.97631559637E+00 -0.96677250988E+01  0.10401389371E+02  0.51100000000E-03 0.  1.
         12    1    3    3    0    0 -0.11685537063E+02 -0.25161997040E+02 -0.13565444218E+01  0.27776214362E+02  0.00000000000E+00 0. -1.
</event>
<event>
 7    1  0.9206568E-014  0.5052886E+02  0.7816164E-02  0.1300439E+00
        -11   -1    0    0    0    0  0.00000000000E+00  0.00000000000E+00  0.45593999997E+02  0.45594000000E+02  0.51100000000E-03 0. -1.
         11   -1    0    0    0    0 -0.00000000000E+00 -0.00000000000E+00 -0.45593999997E+02  0.45594000000E+02  0.51100000000E-03 0.  1.
    9900012    2    1    2    0    0 -0.18457790194E+02  0.30640869737E+02 -0.19329064814E+02  0.50528860023E+02  0.30000000526E+02 0.  0.
         12    1    1    2    0    0  0.18457790194E+02 -0.30640869737E+02  0.19329064814E+02  0.40659139977E+02  0.00000000000E+00 0. -1.
         11    1    3    3    0    0 -0.11137634061E+02  0.15319277910E+02 -0.77991830416E+01  0.20483027719E+02  0.51100000000E-03 0. -1.
        -11    1    3    3    0    0  0.13685743333E+01  0.16470712244E+02 -0.13165341917E+02  0.21130158200E+02  0.51100000000E-03 0.  1.
         12    1    3    3    0    0 -0.86887304661E+01 -0.11491204165E+01  0.16354601444E+01  0.89156741040E+01  0.00000000000E+00 0. -1.
</event>
<event>
 7    1  0.8697654E-014  0.5052886E+02  0.7816164E-02  0.1300439E+00
        -11   -1    0    0    0    0  0.00000000000E+00  0.00000000000E+00  0.45593999997E+02  0.45594000000E+02  0.51100000000E-03 0. -1.
         11   -1    0    0    0    0 -0.00000000000E+00 -0.00000000000E+00 -0.45593999997E+02  0.45594000000E+02  0.51100000000E-03 0.  1.
    9900012    2    1    2    0    0  0.32259705440E+02 -0.12714833534E+02  0.21232285922E+02  0.50528861392E+02  0.30000004686E+02 0.  0.
        -12    1    1    2    0    0 -0.32259705440E+02  0.12714833534E+02 -0.21232285922E+02  0.40659138608E+02  0.00000000000E+00 0.  1.
         11    1    3    3    0    0  0.34727977961E+02 -0.14865430365E+02  0.12888707681E+02  0.39914060921E+02  0.51100000000E-03 0.  1.
        -11    1    3    3    0    0  0.43176163403E+00 -0.16339232034E+01  0.30772884469E+01  0.35108158012E+01  0.51100000000E-03 0. -1.
        -12    1    3    3    0    0 -0.29000341550E+01  0.37845200345E+01  0.52662897943E+01  0.71039846698E+01  0.00000000000E+00 0.  1.
</event>
<event>
 7    1  0.8697654E-014  0.5052887E+02  0.7816164E-02  0.1300439E+00
        -11   -1    0    0    0    0  0.00000000000E+00  0.00000000000E+00  0.45593999997E+02  0.45594000000E+02  0.51100000000E-03 0. -1.
         11   -1    0    0    0    0 -0.00000000000E+00 -0.00000000000E+00 -0.45593999997E+02  0.45594000000E+02  0.51100000000E-03 0.  1.
    9900012    2    1    2    0    0  0.19013108295E+02 -0.19380139001E+02 -0.30266766841E+02  0.50528865113E+02  0.30000015998E+02 0.  0.
         12    1    1    2    0    0 -0.19013108295E+02  0.19380139001E+02  0.30266766841E+02  0.40659134887E+02  0.00000000000E+00 0. -1.
         11    1    3    3    0    0 -0.14622923713E+01 -0.59243271738E+00 -0.23885464588E-01  0.15779246751E+01  0.51100000000E-03 0. -1.
        -11    1    3    3    0    0  0.20823548882E+02 -0.14174654022E+01 -0.19235989782E+02  0.28384021902E+02  0.51100000000E-03 0.  1.
         12    1    3    3    0    0 -0.34814821579E+00 -0.17370240882E+02 -0.11006891594E+02  0.20566918535E+02  0.00000000000E+00 0. -1.
</event>
<event>
 7    1  0.8697654E-014  0.5052887E+02  0.7816164E-02  0.1300439E+00
        -11   -1    0    0    0    0  0.00000000000E+00  0.00000000000E+00  0.45593999997E+02  0.45594000000E+02  0.51100000000E-03 0.  1.
         11   -1    0    0    0    0 -0.00000000000E+00 -0.00000000000E+00 -0.45593999997E+02  0.45594000000E+02  0.51100000000E-03 0. -1.
    9900012    2    1    2    0    0 -0.24737357781E+02 -0.31832073736E+02  0.52865311282E+01  0.50528865729E+02  0.30000017870E+02 0.  0.
         12    1    1    2    0    0  0.24737357781E+02  0.31832073736E+02 -0.52865311282E+01  0.40659134271E+02  0.00000000000E+00 0. -1.
         11    1    3    3    0    0 -0.11304404000E+02 -0.11618887366E+02  0.46752758618E+01  0.16871464017E+02  0.51100000000E-03 0. -1.
        -11    1    3    3    0    0 -0.14850634065E+02 -0.15840575151E+02  0.94611076385E+01  0.23684968044E+02  0.51100000000E-03 0.  1.
         12    1    3    3    0    0  0.14176802841E+01 -0.43726112186E+01 -0.88498523721E+01  0.99724336681E+01  0.00000000000E+00 0. -1.
</event>
<event>
 7    1  0.8697654E-014  0.5052886E+02  0.7816164E-02  0.1300439E+00
        -11   -1    0    0    0    0  0.00000000000E+00  0.00000000000E+00  0.45593999997E+02  0.45594000000E+02  0.51100000000E-03 0. -1.
         11   -1    0    0    0    0 -0.00000000000E+00 -0.00000000000E+00 -0.45593999997E+02  0.45594000000E+02  0.51100000000E-03 0.  1.
    9900012    2    1    2    0    0  0.28953126437E+02  0.19437672275E+02 -0.20905965324E+02  0.50528855640E+02  0.29999987203E+02 0.  0.
         12    1    1    2    0    0 -0.28953126437E+02 -0.19437672275E+02  0.20905965324E+02  0.40659144360E+02  0.00000000000E+00 0. -1.
         11    1    3    3    0    0  0.91342337771E+00  0.38308465572E+01  0.28060836499E+01  0.48356833357E+01  0.51100000000E-03 0. -1.
        -11    1    3    3    0    0  0.21960653101E+02  0.10985764197E+02 -0.44265880666E+01  0.24950991599E+02  0.51100000000E-03 0.  1.
        -12    1    3    3    0    0  0.60790499587E+01  0.46210615212E+01 -0.19285460908E+02  0.20742180705E+02  0.00000000000E+00 0.  1.
</event>
<event>
 7    1  0.8697654E-014  0.5052887E+02  0.7816164E-02  0.1300439E+00
        -11   -1    0    0    0    0  0.00000000000E+00  0.00000000000E+00  0.45593999997E+02  0.45594000000E+02  0.51100000000E-03 0. -1.
         11   -1    0    0    0    0 -0.00000000000E+00 -0.00000000000E+00 -0.45593999997E+02  0.45594000000E+02  0.51100000000E-03 0.  1.
    9900012    2    1    2    0    0 -0.12335083687E+02 -0.27897360850E+01 -0.38642305092E+02  0.50528872368E+02  0.30000038049E+02 0.  0.
         12    1    1    2    0    0  0.12335083687E+02  0.27897360850E+01  0.38642305092E+02  0.40659127632E+02  0.00000000000E+00 0. -1.
         11    1    3    3    0    0  0.27083782588E+01  0.42600164103E+01 -0.18883431893E+02  0.19546535573E+02  0.51100000000E-03 0. -1.
        -11    1    3    3    0    0 -0.72627400098E+01  0.30908281133E+01 -0.55344338078E+00  0.79124528885E+01  0.51100000000E-03 0.  1.
        -12    1    3    3    0    0 -0.77807219358E+01 -0.10140580609E+02 -0.19205429818E+02  0.23069883906E+02  0.00000000000E+00 0.  1.
</event>
<event>
 7    1  0.8697654E-014  0.5052887E+02  0.7816164E-02  0.1300439E+00
        -11   -1    0    0    0    0  0.00000000000E+00  0.00000000000E+00  0.45593999997E+02  0.45594000000E+02  0.51100000000E-03 0. -1.
         11   -1    0    0    0    0 -0.00000000000E+00 -0.00000000000E+00 -0.45593999997E+02  0.45594000000E+02  0.51100000000E-03 0.  1.
    9900012    2    1    2    0    0 -0.16699919751E+02  0.27865887835E+02 -0.24449332391E+02  0.50528869674E+02  0.30000029861E+02 0.  0.
         12    1    1    2    0    0  0.16699919751E+02 -0.27865887835E+02  0.24449332391E+02  0.40659130326E+02  0.00000000000E+00 0. -1.
         11    1    3    3    0    0 -0.10163349759E+02  0.24601912156E+02 -0.18290094421E+02  0.32296676520E+02  0.51100000000E-03 0. -1.
        -11    1    3    3    0    0  0.34386775822E+01  0.58481909337E+01 -0.32643352215E+01  0.75287266793E+01  0.51100000000E-03 0.  1.
         12    1    3    3    0    0 -0.99752475744E+01 -0.25842152547E+01 -0.28949027488E+01  0.10703466475E+02  0.00000000000E+00 0. -1.
</event>
<event>
 7    1  0.8697654E-014  0.5052886E+02  0.7816164E-02  0.1300439E+00
        -11   -1    0    0    0    0  0.00000000000E+00  0.00000000000E+00  0.45593999997E+02  0.45594000000E+02  0.51100000000E-03 0. -1.
         11   -1    0    0    0    0 -0.00000000000E+00 -0.00000000000E+00 -0.45593999997E+02  0.45594000000E+02  0.51100000000E-03 0.  1.
    9900012    2    1    2    0    0 -0.37095296296E+02  0.10634556301E+02 -0.12806667391E+02  0.50528861732E+02  0.30000005721E+02 0.  0.
         12    1    1    2    0    0  0.37095296296E+02 -0.10634556301E+02  0.12806667391E+02  0.40659138268E+02  0.00000000000E+00 0. -1.
         11    1    3    3    0    0 -0.33833156040E+01 -0.24595353399E+01  0.14489951162E+01  0.44267059618E+01  0.51100000000E-03 0. -1.
        -11    1    3    3    0    0  0.11068086667E+01  0.86298116096E+01 -0.20688408918E+01  0.89430854149E+01  0.51100000000E-03 0.  1.
        -12    1    3    3    0    0 -0.34818789359E+02  0.44642800315E+01 -0.12186821615E+02  0.37159070356E+02  0.00000000000E+00 0.  1.
</event>
<event>
 7    1  0.8697654E-014  0.5052883E+02  0.7816164E-02  0.1300439E+00
        -11   -1    0    0    0    0  0.00000000000E+00  0.00000000000E+00  0.45593999997E+02  0.45594000000E+02  0.51100000000E-03 0. -1.
         11   -1    0    0    0    0 -0.00000000000E+00 -0.00000000000E+00 -0.45593999997E+02  0.45594000000E+02  0.51100000000E-03 0.  1.
    9900012    2    1    2    0    0 -0.23593569723E+02 -0.19020937610E+02 -0.27105630662E+02  0.50528833587E+02  0.29999920169E+02 0.  0.
         12    1    1    2    0    0  0.23593569723E+02  0.19020937610E+02  0.27105630662E+02  0.40659166413E+02  0.00000000000E+00 0. -1.
         11    1    3    3    0    0 -0.98366096555E+01 -0.50392605451E+01 -0.11908865261E+02  0.16247280031E+02  0.51100000000E-03 0. -1.
        -11    1    3    3    0    0  0.17782832591E+01 -0.12848802418E+02 -0.13320046951E+02  0.18592408826E+02  0.51100000000E-03 0.  1.
         12    1    3    3    0    0 -0.15535243327E+02 -0.11328746469E+01 -0.18767184504E+01  0.15689144729E+02  0.00000000000E+00 0. -1.
</event>
<event>
 7    1  0.8697654E-014  0.5052886E+02  0.7816164E-02  0.1300439E+00
        -11   -1    0    0    0    0  0.00000000000E+00  0.00000000000E+00  0.45593999997E+02  0.45594000000E+02  0.51100000000E-03 0. -1.
         11   -1    0    0    0    0 -0.00000000000E+00 -0.00000000000E+00 -0.45593999997E+02  0.45594000000E+02  0.51100000000E-03 0.  1.
    9900012    2    1    2    0    0  0.32087609999E+02  0.15686442894E+02  0.19429002271E+02  0.50528864061E+02  0.30000012798E+02 0.  0.
        -12    1    1    2    0    0 -0.32087609999E+02 -0.15686442894E+02 -0.19429002271E+02  0.40659135939E+02  0.00000000000E+00 0.  1.
         11    1    3    3    0    0  0.11250462242E+02  0.13578522649E+02  0.73027475209E+01  0.19086102263E+02  0.51100000000E-03 0. -1.
        -11    1    3    3    0    0  0.54557300306E+01  0.10242194154E+02  0.45417797356E+01  0.12461753275E+02  0.51100000000E-03 0.  1.
         12    1    3    3    0    0  0.15381417726E+02 -0.81342739090E+01  0.75844750142E+01  0.18981008522E+02  0.00000000000E+00 0. -1.
</event>
<event>
 7    1  0.8697654E-014  0.5052886E+02  0.7816164E-02  0.1300439E+00
        -11   -1    0    0    0    0  0.00000000000E+00  0.00000000000E+00  0.45593999997E+02  0.45594000000E+02  0.51100000000E-03 0. -1.
         11   -1    0    0    0    0 -0.00000000000E+00 -0.00000000000E+00 -0.45593999997E+02  0.45594000000E+02  0.51100000000E-03 0.  1.
    9900012    2    1    2    0    0  0.97698091380E+01 -0.18089582705E+02 -0.35078250493E+02  0.50528857970E+02  0.29999994284E+02 0.  0.
         12    1    1    2    0    0 -0.97698091380E+01  0.18089582705E+02  0.35078250493E+02  0.40659142030E+02  0.00000000000E+00 0. -1.
         11    1    3    3    0    0 -0.43807885092E+01 -0.91114242787E+01 -0.21072858197E+01  0.10327149371E+02  0.51100000000E-03 0. -1.
        -11    1    3    3    0    0  0.11009036777E+02 -0.28721794677E+01 -0.31053638399E+02  0.33072296015E+02  0.51100000000E-03 0.  1.
         12    1    3    3    0    0  0.31415608706E+01 -0.61059789582E+01 -0.19173262743E+01  0.71294125834E+01  0.00000000000E+00 0. -1.
</event>
<event>
 7    1  0.8697654E-014  0.5052886E+02  0.7816164E-02  0.1300439E+00
        -11   -1    0    0    0    0  0.00000000000E+00  0.00000000000E+00  0.45593999997E+02  0.45594000000E+02  0.51100000000E-03 0. -1.
         11   -1    0    0    0    0 -0.00000000000E+00 -0.00000000000E+00 -0.45593999997E+02  0.45594000000E+02  0.51100000000E-03 0.  1.
    9900012    2    1    2    0    0  0.39453208899E+02  0.67681322599E+01 -0.71276013950E+01  0.50528855784E+02  0.29999987641E+02 0.  0.
        -12    1    1    2    0    0 -0.39453208899E+02 -0.67681322599E+01  0.71276013950E+01  0.40659144216E+02  0.00000000000E+00 0.  1.
         11    1    3    3    0    0 -0.73932962255E+00  0.96014767949E+00  0.48188924748E+01  0.49689251153E+01  0.51100000000E-03 0. -1.
        -11    1    3    3    0    0  0.77856424281E+01 -0.74004560397E-01 -0.98517422148E+01  0.12557011174E+02  0.51100000000E-03 0.  1.
         12    1    3    3    0    0  0.32406896094E+02  0.58819891408E+01 -0.20947516550E+01  0.33002919495E+02  0.00000000000E+00 0. -1.
</event>
<event>
 7    1  0.8697654E-014  0.5052885E+02  0.7816164E-02  0.1300439E+00
        -11   -1    0    0    0    0  0.00000000000E+00  0.00000000000E+00  0.45593999997E+02  0.45594000000E+02  0.51100000000E-03 0. -1.
         11   -1    0    0    0    0 -0.00000000000E+00 -0.00000000000E+00 -0.45593999997E+02  0.45594000000E+02  0.51100000000E-03 0.  1.
    9900012    2    1    2    0    0 -0.26257070404E+02  0.15768749501E+01  0.31003973175E+02  0.50528848098E+02  0.29999964278E+02 0.  0.
        -12    1    1    2    0    0  0.26257070404E+02 -0.15768749501E+01 -0.31003973175E+02  0.40659151902E+02  0.00000000000E+00 0.  1.
         11    1    3    3    0    0 -0.23560938524E+02  0.25401457595E+01  0.19467652416E+02  0.30668545050E+02  0.51100000000E-03 0.  1.
        -11    1    3    3    0    0  0.29566761791E+01 -0.19992523452E+01  0.13361885438E+02  0.13830362493E+02  0.51100000000E-03 0. -1.
         12    1    3    3    0    0 -0.56528080590E+01  0.10359815359E+01 -0.18255646796E+01  0.60299405547E+01  0.00000000000E+00 0. -1.
</event>
<event>
 7    1  0.8697654E-014  0.5052886E+02  0.7816164E-02  0.1300439E+00
        -11   -1    0    0    0    0  0.00000000000E+00  0.00000000000E+00  0.45593999997E+02  0.45594000000E+02  0.51100000000E-03 0. -1.
         11   -1    0    0    0    0 -0.00000000000E+00 -0.00000000000E+00 -0.45593999997E+02  0.45594000000E+02  0.51100000000E-03 0.  1.
    9900012    2    1    2    0    0  0.23314670559E+01 -0.15899924869E+02  0.37348654643E+02  0.50528863842E+02  0.30000012133E+02 0.  0.
        -12    1    1    2    0    0 -0.23314670559E+01  0.15899924869E+02 -0.37348654643E+02  0.40659136158E+02  0.00000000000E+00 0.  1.
         11    1    3    3    0    0 -0.34301133281E+01 -0.43067894082E+01  0.18335044644E+02  0.19143875648E+02  0.51100000000E-03 0. -1.
        -11    1    3    3    0    0  0.10690763034E+02 -0.31917806788E+01  0.18533402358E+02  0.21632542185E+02  0.51100000000E-03 0.  1.
        -12    1    3    3    0    0 -0.49291826502E+01 -0.84013547821E+01  0.48020764110E+00  0.97524460087E+01  0.00000000000E+00 0.  1.
</event>
<event>
 7    1  0.8697654E-014  0.5052883E+02  0.7816164E-02  0.1300439E+00
        -11   -1    0    0    0    0  0.00000000000E+00  0.00000000000E+00  0.45593999997E+02  0.45594000000E+02  0.51100000000E-03 0. -1.
         11   -1    0    0    0    0 -0.00000000000E+00 -0.00000000000E+00 -0.45593999997E+02  0.45594000000E+02  0.51100000000E-03 0.  1.
    9900012    2    1    2    0    0 -0.25974750095E+01  0.23135387092E+02 -0.33334298749E+02  0.50528825323E+02  0.29999895052E+02 0.  0.
         12    1    1    2    0    0  0.25974750095E+01 -0.23135387092E+02  0.33334298749E+02  0.40659174677E+02  0.00000000000E+00 0. -1.
         11    1    3    3    0    0  0.21472876419E+01  0.90528989225E+01  0.97808007949E+00  0.93553441423E+01  0.51100000000E-03 0. -1.
        -11    1    3    3    0    0  0.61437762140E+01  0.65099437896E+01 -0.18375279139E+02  0.20439575289E+02  0.51100000000E-03 0.  1.
         12    1    3    3    0    0 -0.10888538865E+02  0.75725443799E+01 -0.15937099689E+02  0.20733905891E+02  0.00000000000E+00 0. -1.
</event>
<event>
 7    1  0.8697654E-014  0.5052878E+02  0.7816164E-02  0.1300439E+00
        -11   -1    0    0    0    0  0.00000000000E+00  0.00000000000E+00  0.45593999997E+02  0.45594000000E+02  0.51100000000E-03 0. -1.
         11   -1    0    0    0    0 -0.00000000000E+00 -0.00000000000E+00 -0.45593999997E+02  0.45594000000E+02  0.51100000000E-03 0.  1.
    9900012    2    1    2    0    0  0.37555240513E+02  0.14023131359E+02  0.67917327923E+01  0.50528782872E+02  0.29999766017E+02 0.  0.
        -12    1    1    2    0    0 -0.37555240513E+02 -0.14023131359E+02 -0.67917327923E+01  0.40659217128E+02  0.00000000000E+00 0.  1.
         11    1    3    3    0    0  0.25232886150E+02  0.62957287751E+01  0.14661146127E+02  0.29854379080E+02  0.51100000000E-03 0. -1.
        -11    1    3    3    0    0  0.66088640570E+01  0.76440778529E+01  0.96738448047E+00  0.10151100597E+02  0.51100000000E-03 0.  1.
        -12    1    3    3    0    0  0.57134903068E+01  0.83324730998E-01 -0.88367978150E+01  0.10523303194E+02  0.00000000000E+00 0.  1.
</event>
<event>
 7    1  0.8697654E-014  0.5052886E+02  0.7816164E-02  0.1300439E+00
        -11   -1    0    0    0    0  0.00000000000E+00  0.00000000000E+00  0.45593999997E+02  0.45594000000E+02  0.51100000000E-03 0. -1.
         11   -1    0    0    0    0 -0.00000000000E+00 -0.00000000000E+00 -0.45593999997E+02  0.45594000000E+02  0.51100000000E-03 0.  1.
    9900012    2    1    2    0    0 -0.80223603195E+01  0.12533379814E+02 -0.37838099336E+02  0.50528860363E+02  0.30000001559E+02 0.  0.
         12    1    1    2    0    0  0.80223603195E+01 -0.12533379814E+02  0.37838099336E+02  0.40659139637E+02  0.00000000000E+00 0. -1.
         11    1    3    3    0    0 -0.34445817141E+01  0.72515793475E+01 -0.21719758195E+02  0.23155959115E+02  0.51100000000E-03 0. -1.
        -11    1    3    3    0    0  0.78532667545E+01  0.61692365537E+00 -0.10063469783E+02  0.12779977224E+02  0.51100000000E-03 0.  1.
         12    1    3    3    0    0 -0.12431045360E+02  0.46648768113E+01 -0.60548713583E+01  0.14592924024E+02  0.00000000000E+00 0. -1.
</event>
<event>
 7    1  0.8697654E-014  0.5052886E+02  0.7816164E-02  0.1300439E+00
        -11   -1    0    0    0    0  0.00000000000E+00  0.00000000000E+00  0.45593999997E+02  0.45594000000E+02  0.51100000000E-03 0. -1.
         11   -1    0    0    0    0 -0.00000000000E+00 -0.00000000000E+00 -0.45593999997E+02  0.45594000000E+02  0.51100000000E-03 0.  1.
    9900012    2    1    2    0    0  0.10472809560E+02 -0.17390401357E+02 -0.35228674013E+02  0.50528864838E+02  0.30000015162E+02 0.  0.
         12    1    1    2    0    0 -0.10472809560E+02  0.17390401357E+02  0.35228674013E+02  0.40659135162E+02  0.00000000000E+00 0. -1.
         11    1    3    3    0    0 -0.16728668446E+01 -0.10025141762E+02 -0.56137040172E+01  0.11611013043E+02  0.51100000000E-03 0.  1.
        -11    1    3    3    0    0  0.71392080205E+00  0.41486403815E+01  0.94805565055E+00  0.43150561646E+01  0.51100000000E-03 0. -1.
         12    1    3    3    0    0  0.11431755602E+02 -0.11513899976E+02 -0.30563025646E+02  0.34602795631E+02  0.00000000000E+00 0. -1.
</event>
<event>
 7    1  0.8697654E-014  0.5052886E+02  0.7816164E-02  0.1300439E+00
        -11   -1    0    0    0    0  0.00000000000E+00  0.00000000000E+00  0.45593999997E+02  0.45594000000E+02  0.51100000000E-03 0. -1.
         11   -1    0    0    0    0 -0.00000000000E+00 -0.00000000000E+00 -0.45593999997E+02  0.45594000000E+02  0.51100000000E-03 0.  1.
    9900012    2    1    2    0    0 -0.17048586374E+02  0.25330524535E+02 -0.26849126960E+02  0.50528863400E+02  0.30000010790E+02 0.  0.
         12    1    1    2    0    0  0.17048586374E+02 -0.25330524535E+02  0.26849126960E+02  0.40659136600E+02  0.00000000000E+00 0. -1.
         11    1    3    3    0    0 -0.90057860448E+00 -0.11796237480E+01  0.18384476545E+01  0.23627196299E+01  0.51100000000E-03 0. -1.
        -11    1    3    3    0    0  0.26717858484E+01  0.17712556730E+02 -0.13610687984E+02  0.22497198341E+02  0.51100000000E-03 0.  1.
        -12    1    3    3    0    0 -0.18819793618E+02  0.87975915525E+01 -0.15076886631E+02  0.25668945429E+02  0.00000000000E+00 0.  1.
</event>
<event>
 7    1  0.8697654E-014  0.5052886E+02  0.7816164E-02  0.1300439E+00
        -11   -1    0    0    0    0  0.00000000000E+00  0.00000000000E+00  0.45593999997E+02  0.45594000000E+02  0.51100000000E-03 0. -1.
         11   -1    0    0    0    0 -0.00000000000E+00 -0.00000000000E+00 -0.45593999997E+02  0.45594000000E+02  0.51100000000E-03 0.  1.
    9900012    2    1    2    0    0  0.13519758694E+02 -0.11099105336E+02 -0.36704114134E+02  0.50528855779E+02  0.29999987627E+02 0.  0.
         12    1    1    2    0    0 -0.13519758694E+02  0.11099105336E+02  0.36704114134E+02  0.40659144221E+02  0.00000000000E+00 0. -1.
         11    1    3    3    0    0 -0.60102808460E+01  0.30136597879E+01 -0.94202223133E+01  0.11573513289E+02  0.51100000000E-03 0. -1.
        -11    1    3    3    0    0  0.14012881251E+02 -0.83905693350E+01 -0.81863158975E+01  0.18269599420E+02  0.51100000000E-03 0.  1.
        -12    1    3    3    0    0  0.55171582888E+01 -0.57221957888E+01 -0.19097575923E+02  0.20685743070E+02  0.00000000000E+00 0.  1.
</event>
<event>
 7    1  0.8697654E-014  0.5052887E+02  0.7816164E-02  0.1300439E+00
        -11   -1    0    0    0    0  0.00000000000E+00  0.00000000000E+00  0.45593999997E+02  0.45594000000E+02  0.51100000000E-03 0. -1.
         11   -1    0    0    0    0 -0.00000000000E+00 -0.00000000000E+00 -0.45593999997E+02  0.45594000000E+02  0.51100000000E-03 0.  1.
    9900012    2    1    2    0    0  0.77717378276E+01 -0.20464360891E+02  0.34263321427E+02  0.50528866085E+02  0.30000018952E+02 0.  0.
        -12    1    1    2    0    0 -0.77717378276E+01  0.20464360891E+02 -0.34263321427E+02  0.40659133915E+02  0.00000000000E+00 0.  1.
         11    1    3    3    0    0  0.11543692791E+02 -0.20528022573E+02  0.25471781615E+02  0.34691039375E+02  0.51100000000E-03 0. -1.
        -11    1    3    3    0    0 -0.54049760014E+01 -0.40793061997E+01  0.91353079961E+01  0.11371383253E+02  0.51100000000E-03 0.  1.
        -12    1    3    3    0    0  0.16330210382E+01  0.41429678825E+01 -0.34376818445E+00  0.44664434566E+01  0.00000000000E+00 0.  1.
</event>
<event>
 7    1  0.8697654E-014  0.5052884E+02  0.7816164E-02  0.1300439E+00
        -11   -1    0    0    0    0  0.00000000000E+00  0.00000000000E+00  0.45593999997E+02  0.45594000000E+02  0.51100000000E-03 0. -1.
         11   -1    0    0    0    0 -0.00000000000E+00 -0.00000000000E+00 -0.45593999997E+02  0.45594000000E+02  0.51100000000E-03 0.  1.
    9900012    2    1    2    0    0  0.77540057098E+01 -0.36832464537E+02 -0.15375696899E+02  0.50528842317E+02  0.29999946705E+02 0.  0.
         12    1    1    2    0    0 -0.77540057098E+01  0.36832464537E+02  0.15375696899E+02  0.40659157683E+02  0.00000000000E+00 0. -1.
         11    1    3    3    0    0 -0.65301647958E+01 -0.11846425571E+02 -0.33215747515E+01  0.13928880435E+02  0.51100000000E-03 0. -1.
        -11    1    3    3    0    0  0.58589515933E-01  0.18777512513E+01 -0.50745001238E+01  0.54110936289E+01  0.51100000000E-03 0.  1.
        -12    1    3    3    0    0  0.14225580990E+02 -0.26863790217E+02 -0.69796220240E+01  0.31188868253E+02  0.00000000000E+00 0.  1.
</event>
<event>
 7    1  0.8697654E-014  0.5052886E+02  0.7816164E-02  0.1300439E+00
        -11   -1    0    0    0    0  0.00000000000E+00  0.00000000000E+00  0.45593999997E+02  0.45594000000E+02  0.51100000000E-03 0. -1.
         11   -1    0    0    0    0 -0.00000000000E+00 -0.00000000000E+00 -0.45593999997E+02  0.45594000000E+02  0.51100000000E-03 0.  1.
    9900012    2    1    2    0    0  0.93332868429E+01  0.76540254487E+01 -0.38826165463E+02  0.50528862363E+02  0.30000007638E+02 0.  0.
         12    1    1    2    0    0 -0.93332868429E+01 -0.76540254487E+01  0.38826165463E+02  0.40659137637E+02  0.00000000000E+00 0. -1.
         11    1    3    3    0    0  0.23278329447E+01 -0.43340641141E+01 -0.20297133717E+01  0.53219032870E+01  0.51100000000E-03 0. -1.
        -11    1    3    3    0    0 -0.69150810718E+01  0.58777380682E+01 -0.22810508305E+02  0.24549652552E+02  0.51100000000E-03 0.  1.
         12    1    3    3    0    0  0.13920534970E+02  0.61103514946E+01 -0.13985943786E+02  0.20657306524E+02  0.00000000000E+00 0. -1.
</event>
<event>
 7    1  0.8697654E-014  0.5052885E+02  0.7816164E-02  0.1300439E+00
        -11   -1    0    0    0    0  0.00000000000E+00  0.00000000000E+00  0.45593999997E+02  0.45594000000E+02  0.51100000000E-03 0. -1.
         11   -1    0    0    0    0 -0.00000000000E+00 -0.00000000000E+00 -0.45593999997E+02  0.45594000000E+02  0.51100000000E-03 0.  1.
    9900012    2    1    2    0    0  0.22646218798E+01  0.31068376235E+02  0.26130328461E+02  0.50528848759E+02  0.29999966287E+02 0.  0.
        -12    1    1    2    0    0 -0.22646218798E+01 -0.31068376235E+02 -0.26130328461E+02  0.40659151241E+02  0.00000000000E+00 0.  1.
         11    1    3    3    0    0  0.67997536756E+01  0.15080322372E+02  0.12210369687E+02  0.20560785516E+02  0.51100000000E-03 0. -1.
        -11    1    3    3    0    0 -0.31828734269E+01  0.97632568739E+01  0.19147705407E+02  0.21727551419E+02  0.51100000000E-03 0.  1.
        -12    1    3    3    0    0 -0.13522583689E+01  0.62247969893E+01 -0.52277466328E+01  0.82405118233E+01  0.00000000000E+00 0.  1.
</event>
<event>
 7    1  0.8697654E-014  0.5052886E+02  0.7816164E-02  0.1300439E+00
        -11   -1    0    0    0    0  0.00000000000E+00  0.00000000000E+00  0.45593999997E+02  0.45594000000E+02  0.51100000000E-03 0. -1.
         11   -1    0    0    0    0 -0.00000000000E+00 -0.00000000000E+00 -0.45593999997E+02  0.45594000000E+02  0.51100000000E-03 0.  1.
    9900012    2    1    2    0    0 -0.21343736152E+02  0.23608292449E+02 -0.25303341743E+02  0.50528860207E+02  0.30000001086E+02 0.  0.
         12    1    1    2    0    0  0.21343736152E+02 -0.23608292449E+02  0.25303341743E+02  0.40659139793E+02  0.00000000000E+00 0. -1.
         11    1    3    3    0    0 -0.16307809006E+02  0.12132235024E+02 -0.84248988211E+01  0.22002606247E+02  0.51100000000E-03 0. -1.
        -11    1    3    3    0    0 -0.10243567710E+02  0.11088914811E+02 -0.17674427178E+02  0.23243925819E+02  0.51100000000E-03 0.  1.
        -12    1    3    3    0    0  0.52076405649E+01  0.38714261396E+00  0.79598425545E+00  0.52823281412E+01  0.00000000000E+00 0.  1.
</event>
<event>
 7    1  0.8697654E-014  0.5052886E+02  0.7816164E-02  0.1300439E+00
        -11   -1    0    0    0    0  0.00000000000E+00  0.00000000000E+00  0.45593999997E+02  0.45594000000E+02  0.51100000000E-03 0. -1.
         11   -1    0    0    0    0 -0.00000000000E+00 -0.00000000000E+00 -0.45593999997E+02  0.45594000000E+02  0.51100000000E-03 0.  1.
    9900012    2    1    2    0    0 -0.15331949985E+02 -0.17793268232E+02  0.33188802791E+02  0.50528859386E+02  0.29999998591E+02 0.  0.
        -12    1    1    2    0    0  0.15331949985E+02  0.17793268232E+02 -0.33188802791E+02  0.40659140614E+02  0.00000000000E+00 0.  1.
         11    1    3    3    0    0 -0.58421230091E+01  0.20926839950E+01  0.13720450415E+02  0.15058568571E+02  0.51100000000E-03 0. -1.
        -11    1    3    3    0    0 -0.14774104201E+02 -0.10025920148E+02  0.83953757642E+01  0.19730067518E+02  0.51100000000E-03 0.  1.
         12    1    3    3    0    0  0.52842772259E+01 -0.98600320794E+01  0.11072976612E+02  0.15740223298E+02  0.00000000000E+00 0. -1.
</event>
<event>
 7    1  0.8697654E-014  0.5052891E+02  0.7816164E-02  0.1300439E+00
        -11   -1    0    0    0    0  0.00000000000E+00  0.00000000000E+00  0.45593999997E+02  0.45594000000E+02  0.51100000000E-03 0.  1.
         11   -1    0    0    0    0 -0.00000000000E+00 -0.00000000000E+00 -0.45593999997E+02  0.45594000000E+02  0.51100000000E-03 0. -1.
    9900012    2    1    2    0    0 -0.37664834653E+02  0.10208549573E+02  0.11415210114E+02  0.50528913982E+02  0.30000164540E+02 0.  0.
        -12    1    1    2    0    0  0.37664834653E+02 -0.10208549573E+02 -0.11415210114E+02  0.40659086018E+02  0.00000000000E+00 0.  1.
         11    1    3    3    0    0 -0.16410410531E+02  0.16315804202E+02  0.48132444856E+01  0.23636293349E+02  0.51100000000E-03 0. -1.
        -11    1    3    3    0    0  0.18767507364E+01 -0.15925299230E+01  0.19210713556E+00  0.24688560701E+01  0.51100000000E-03 0.  1.
         12    1    3    3    0    0 -0.23131174859E+02 -0.45147247058E+01  0.64098584927E+01  0.24423764563E+02  0.00000000000E+00 0. -1.
</event>
<event>
 7    1  0.8697654E-014  0.5052887E+02  0.7816164E-02  0.1300439E+00
        -11   -1    0    0    0    0  0.00000000000E+00  0.00000000000E+00  0.45593999997E+02  0.45594000000E+02  0.51100000000E-03 0. -1.
         11   -1    0    0    0    0 -0.00000000000E+00 -0.00000000000E+00 -0.45593999997E+02  0.45594000000E+02  0.51100000000E-03 0.  1.
    9900012    2    1    2    0    0  0.98020130295E+00 -0.34291805243E+01  0.40502407229E+02  0.50528867385E+02  0.30000022902E+02 0.  0.
        -12    1    1    2    0    0 -0.98020130295E+00  0.34291805243E+01 -0.40502407229E+02  0.40659132615E+02  0.00000000000E+00 0.  1.
         11    1    3    3    0    0 -0.43146053624E+01  0.40242451647E+01  0.41490674935E+01  0.72128447859E+01  0.51100000000E-03 0. -1.
        -11    1    3    3    0    0 -0.11213199425E+01 -0.14182389740E+02  0.20942441787E+02  0.25317650077E+02  0.51100000000E-03 0.  1.
         12    1    3    3    0    0  0.64161266079E+01  0.67289640508E+01  0.15410897949E+02  0.17998372522E+02  0.00000000000E+00 0. -1.
</event>
<event>
 7    1  0.8697654E-014  0.5052889E+02  0.7816164E-02  0.1300439E+00
        -11   -1    0    0    0    0  0.00000000000E+00  0.00000000000E+00  0.45593999997E+02  0.45594000000E+02  0.51100000000E-03 0. -1.
         11   -1    0    0    0    0 -0.00000000000E+00 -0.00000000000E+00 -0.45593999997E+02  0.45594000000E+02  0.51100000000E-03 0.  1.
    9900012    2    1    2    0    0  0.16745670348E+02 -0.10051038128E+02  0.35661219494E+02  0.50528887631E+02  0.30000084442E+02 0.  0.
        -12    1    1    2    0    0 -0.16745670348E+02  0.10051038128E+02 -0.35661219494E+02  0.40659112369E+02  0.00000000000E+00 0.  1.
         11    1    3    3    0    0  0.11059137823E+02 -0.11603233517E+02  0.34972480112E+02  0.38470949077E+02  0.51100000000E-03 0. -1.
        -11    1    3    3    0    0 -0.47568071223E+00 -0.26991292607E+00  0.45356468632E+01  0.45685028025E+01  0.51100000000E-03 0.  1.
        -12    1    3    3    0    0  0.61622132375E+01  0.18221083149E+01 -0.38469074814E+01  0.74894357509E+01  0.00000000000E+00 0.  1.
</event>
<event>
 7    1  0.8697654E-014  0.5052879E+02  0.7816164E-02  0.1300439E+00
        -11   -1    0    0    0    0  0.00000000000E+00  0.00000000000E+00  0.45593999997E+02  0.45594000000E+02  0.51100000000E-03 0. -1.
         11   -1    0    0    0    0 -0.00000000000E+00 -0.00000000000E+00 -0.45593999997E+02  0.45594000000E+02  0.51100000000E-03 0.  1.
    9900012    2    1    2    0    0  0.95512645343E+01  0.19698599674E+02 -0.34262372162E+02  0.50528786659E+02  0.29999777529E+02 0.  0.
         12    1    1    2    0    0 -0.95512645343E+01 -0.19698599674E+02  0.34262372162E+02  0.40659213341E+02  0.00000000000E+00 0. -1.
         11    1    3    3    0    0 -0.68283122134E+01  0.40755504796E+01 -0.28879689591E+01  0.84602792132E+01  0.51100000000E-03 0. -1.
        -11    1    3    3    0    0  0.20362578318E+01  0.13109229482E+02 -0.12481868813E+02  0.18215248911E+02  0.51100000000E-03 0.  1.
        -12    1    3    3    0    0  0.14343318916E+02  0.25138197125E+01 -0.18892534390E+02  0.23853258535E+02  0.00000000000E+00 0.  1.
</event>
<event>
 7    1  0.8697654E-014  0.5052886E+02  0.7816164E-02  0.1300439E+00
        -11   -1    0    0    0    0  0.00000000000E+00  0.00000000000E+00  0.45593999997E+02  0.45594000000E+02  0.51100000000E-03 0. -1.
         11   -1    0    0    0    0 -0.00000000000E+00 -0.00000000000E+00 -0.45593999997E+02  0.45594000000E+02  0.51100000000E-03 0.  1.
    9900012    2    1    2    0    0 -0.28412326374E+02  0.69738456934E+01 -0.28235983517E+02  0.50528861065E+02  0.30000003694E+02 0.  0.
         12    1    1    2    0    0  0.28412326374E+02 -0.69738456934E+01  0.28235983517E+02  0.40659138935E+02  0.00000000000E+00 0. -1.
         11    1    3    3    0    0 -0.18845554757E+02  0.14197490418E+01 -0.10301798709E+02  0.21524350823E+02  0.51100000000E-03 0. -1.
        -11    1    3    3    0    0 -0.11927704817E+02  0.82066957368E+01 -0.20154963947E+02  0.24816175553E+02  0.51100000000E-03 0.  1.
         12    1    3    3    0    0  0.23609332008E+01 -0.26525990852E+01  0.22207791388E+01  0.41883346892E+01  0.00000000000E+00 0. -1.
</event>
<event>
 7    1  0.8697654E-014  0.5052886E+02  0.7816164E-02  0.1300439E+00
        -11   -1    0    0    0    0  0.00000000000E+00  0.00000000000E+00  0.45593999997E+02  0.45594000000E+02  0.51100000000E-03 0. -1.
         11   -1    0    0    0    0 -0.00000000000E+00 -0.00000000000E+00 -0.45593999997E+02  0.45594000000E+02  0.51100000000E-03 0.  1.
    9900012    2    1    2    0    0 -0.15728440766E+02  0.20356589260E+02 -0.31486367247E+02  0.50528857145E+02  0.29999991779E+02 0.  0.
         12    1    1    2    0    0  0.15728440766E+02 -0.20356589260E+02  0.31486367247E+02  0.40659142855E+02  0.00000000000E+00 0. -1.
         11    1    3    3    0    0 -0.11860856090E+02  0.34180552800E+01 -0.56920934296E+01  0.13592753104E+02  0.51100000000E-03 0. -1.
        -11    1    3    3    0    0 -0.46345712974E+01  0.91711567602E+01 -0.27136054746E+02  0.29016458000E+02  0.51100000000E-03 0.  1.
         12    1    3    3    0    0  0.76698662130E+00  0.77673772203E+01  0.13417809284E+01  0.79196460413E+01  0.00000000000E+00 0. -1.
</event>
<event>
 7    1  0.8697654E-014  0.5052880E+02  0.7816164E-02  0.1300439E+00
        -11   -1    0    0    0    0  0.00000000000E+00  0.00000000000E+00  0.45593999997E+02  0.45594000000E+02  0.51100000000E-03 0. -1.
         11   -1    0    0    0    0 -0.00000000000E+00 -0.00000000000E+00 -0.45593999997E+02  0.45594000000E+02  0.51100000000E-03 0.  1.
    9900012    2    1    2    0    0  0.35496529499E+02  0.32698770091E+01 -0.19556967335E+02  0.50528798416E+02  0.29999813264E+02 0.  0.
         12    1    1    2    0    0 -0.35496529499E+02 -0.32698770091E+01  0.19556967335E+02  0.40659201584E+02  0.00000000000E+00 0. -1.
         11    1    3    3    0    0  0.18286222517E+02  0.85195223188E+01 -0.21079245436E+02  0.29177093463E+02  0.51100000000E-03 0.  1.
        -11    1    3    3    0    0 -0.16902194045E+01 -0.13352678686E+00 -0.13576027466E+00  0.17009121527E+01  0.51100000000E-03 0. -1.
        -12    1    3    3    0    0  0.18900526387E+02 -0.51161185228E+01  0.16580383766E+01  0.19650792800E+02  0.00000000000E+00 0.  1.
</event>
<event>
 7    1  0.8697654E-014  0.5052888E+02  0.7816164E-02  0.1300439E+00
        -11   -1    0    0    0    0  0.00000000000E+00  0.00000000000E+00  0.45593999997E+02  0.45594000000E+02  0.51100000000E-03 0. -1.
         11   -1    0    0    0    0 -0.00000000000E+00 -0.00000000000E+00 -0.45593999997E+02  0.45594000000E+02  0.51100000000E-03 0.  1.
    9900012    2    1    2    0    0 -0.10136181152E+02  0.92844412508E+01 -0.38265144104E+02  0.50528877149E+02  0.30000052583E+02 0.  0.
         12    1    1    2    0    0  0.10136181152E+02 -0.92844412508E+01  0.38265144104E+02  0.40659122851E+02  0.00000000000E+00 0. -1.
         11    1    3    3    0    0  0.16253876757E+01 -0.89804945313E+01 -0.14446113188E+02  0.17087461884E+02  0.51100000000E-03 0. -1.
        -11    1    3    3    0    0 -0.18888023899E+01  0.45169209259E+01 -0.11525515586E+02  0.12522286488E+02  0.51100000000E-03 0.  1.
        -12    1    3    3    0    0 -0.98727664376E+01  0.13748014856E+02 -0.12293515330E+02  0.20919128777E+02  0.00000000000E+00 0.  1.
</event>
<event>
 7    1  0.8697654E-014  0.5052884E+02  0.7816164E-02  0.1300439E+00
        -11   -1    0    0    0    0  0.00000000000E+00  0.00000000000E+00  0.45593999997E+02  0.45594000000E+02  0.51100000000E-03 0. -1.
         11   -1    0    0    0    0 -0.00000000000E+00 -0.00000000000E+00 -0.45593999997E+02  0.45594000000E+02  0.51100000000E-03 0.  1.
    9900012    2    1    2    0    0  0.39686453652E+02 -0.25299953054E+01 -0.84706309495E+01  0.50528842749E+02  0.29999948020E+02 0.  0.
        -12    1    1    2    0    0 -0.39686453652E+02  0.25299953054E+01  0.84706309495E+01  0.40659157251E+02  0.00000000000E+00 0.  1.
         11    1    3    3    0    0  0.31466626453E+02  0.69999819211E+01 -0.65189408346E+01  0.32888370545E+02  0.51100000000E-03 0. -1.
        -11    1    3    3    0    0  0.10244763416E+02 -0.39378746002E+01 -0.34540960537E+01  0.11506207613E+02  0.51100000000E-03 0.  1.
        -12    1    3    3    0    0 -0.20249362177E+01 -0.55921026263E+01  0.15024059388E+01  0.61342645911E+01  0.00000000000E+00 0.  1.
</event>
<event>
 7    1  0.8697654E-014  0.5052880E+02  0.7816164E-02  0.1300439E+00
        -11   -1    0    0    0    0  0.00000000000E+00  0.00000000000E+00  0.45593999997E+02  0.45594000000E+02  0.51100000000E-03 0.  1.
         11   -1    0    0    0    0 -0.00000000000E+00 -0.00000000000E+00 -0.45593999997E+02  0.45594000000E+02  0.51100000000E-03 0. -1.
    9900012    2    1    2    0    0  0.45248270805E+01  0.40345338727E+02  0.22249701302E+01  0.50528795517E+02  0.29999804454E+02 0.  0.
        -12    1    1    2    0    0 -0.45248270805E+01 -0.40345338727E+02 -0.22249701302E+01  0.40659204483E+02  0.00000000000E+00 0.  1.
         11    1    3    3    0    0  0.10161388436E+02  0.21006458770E+02  0.33607590906E+01  0.23575831416E+02  0.51100000000E-03 0. -1.
        -11    1    3    3    0    0  0.11969621558E+01 -0.28769798351E+01 -0.19846095631E+01  0.36943750152E+01  0.51100000000E-03 0.  1.
        -12    1    3    3    0    0 -0.68335235118E+01  0.22215859792E+02  0.84882060279E+00  0.23258589087E+02  0.00000000000E+00 0.  1.
</event>
<event>
 7    1  0.8697654E-014  0.5052886E+02  0.7816164E-02  0.1300439E+00
        -11   -1    0    0    0    0  0.00000000000E+00  0.00000000000E+00  0.45593999997E+02  0.45594000000E+02  0.51100000000E-03 0. -1.
         11   -1    0    0    0    0 -0.00000000000E+00 -0.00000000000E+00 -0.45593999997E+02  0.45594000000E+02  0.51100000000E-03 0.  1.
    9900012    2    1    2    0    0  0.29271458144E+02 -0.22498876188E+02 -0.17033736051E+02  0.50528857665E+02  0.29999993358E+02 0.  0.
         12    1    1    2    0    0 -0.29271458144E+02  0.22498876188E+02  0.17033736051E+02  0.40659142335E+02  0.00000000000E+00 0. -1.
         11    1    3    3    0    0  0.98756390008E+01 -0.63040169154E+01 -0.14242019020E+02  0.18441908279E+02  0.51100000000E-03 0. -1.
        -11    1    3    3    0    0  0.11993820380E+02 -0.20242191029E+02 -0.19888553597E+01  0.23612572305E+02  0.51100000000E-03 0.  1.
         12    1    3    3    0    0  0.74019987629E+01  0.40473317565E+01 -0.80286167105E+00  0.84743770802E+01  0.00000000000E+00 0. -1.
</event>
<event>
 7    1  0.8697654E-014  0.5052886E+02  0.7816164E-02  0.1300439E+00
        -11   -1    0    0    0    0  0.00000000000E+00  0.00000000000E+00  0.45593999997E+02  0.45594000000E+02  0.51100000000E-03 0. -1.
         11   -1    0    0    0    0 -0.00000000000E+00 -0.00000000000E+00 -0.45593999997E+02  0.45594000000E+02  0.51100000000E-03 0.  1.
    9900012    2    1    2    0    0  0.31427567871E+00  0.46131631133E+01 -0.40395366865E+02  0.50528859487E+02  0.29999998897E+02 0.  0.
         12    1    1    2    0    0 -0.31427567871E+00 -0.46131631133E+01  0.40395366865E+02  0.40659140513E+02  0.00000000000E+00 0. -1.
         11    1    3    3    0    0  0.16608139178E+01  0.85362530832E+01  0.48581622622E+00  0.87098758450E+01  0.51100000000E-03 0. -1.
        -11    1    3    3    0    0 -0.22541280578E+01  0.11037081242E+01 -0.25247951202E+02  0.25372392577E+02  0.51100000000E-03 0.  1.
        -12    1    3    3    0    0  0.90758981868E+00 -0.50267980941E+01 -0.15633231889E+02  0.16446591065E+02  0.00000000000E+00 0.  1.
</event>
<event>
 7    1  0.8697654E-014  0.5052886E+02  0.7816164E-02  0.1300439E+00
        -11   -1    0    0    0    0  0.00000000000E+00  0.00000000000E+00  0.45593999997E+02  0.45594000000E+02  0.51100000000E-03 0. -1.
         11   -1    0    0    0    0 -0.00000000000E+00 -0.00000000000E+00 -0.45593999997E+02  0.45594000000E+02  0.51100000000E-03 0.  1.
    9900012    2    1    2    0    0  0.13236172247E+02  0.10013396865E+02  0.37117397618E+02  0.50528861071E+02  0.30000003712E+02 0.  0.
        -12    1    1    2    0    0 -0.13236172247E+02 -0.10013396865E+02 -0.37117397618E+02  0.40659138929E+02  0.00000000000E+00 0.  1.
         11    1    3    3    0    0  0.16951353277E+01  0.27853660931E+01 -0.36130707243E+01  0.48668293962E+01  0.51100000000E-03 0. -1.
        -11    1    3    3    0    0  0.92832776930E+01  0.29361772312E+01  0.80775831804E+01  0.12650997263E+02  0.51100000000E-03 0.  1.
         12    1    3    3    0    0  0.22577592264E+01  0.42918535411E+01  0.32652885162E+02  0.33011034411E+02  0.00000000000E+00 0. -1.
</event>
<event>
 7    1  0.8841141E-014  0.5052886E+02  0.7816164E-02  0.1300439E+00
        -11   -1    0    0    0    0  0.00000000000E+00  0.00000000000E+00  0.45593999997E+02  0.45594000000E+02  0.51100000000E-03 0. -1.
         11   -1    0    0    0    0 -0.00000000000E+00 -0.00000000000E+00 -0.45593999997E+02  0.45594000000E+02  0.51100000000E-03 0.  1.
    9900012    2    1    2    0    0 -0.10992231045E+02 -0.11486355797E+02 -0.37421920853E+02  0.50528859906E+02  0.30000000171E+02 0.  0.
         12    1    1    2    0    0  0.10992231045E+02  0.11486355797E+02  0.37421920853E+02  0.40659140094E+02  0.00000000000E+00 0. -1.
         11    1    3    3    0    0 -0.39527323437E+01 -0.12124234483E+01  0.18691552284E+01  0.45373786627E+01  0.51100000000E-03 0. -1.
        -11    1    3    3    0    0 -0.10471933698E+02 -0.14500143648E+02 -0.33901725301E+02  0.38330699705E+02  0.51100000000E-03 0.  1.
         12    1    3    3    0    0  0.34324349968E+01  0.42262112992E+01 -0.53893507802E+01  0.76607815388E+01  0.00000000000E+00 0. -1.
</event>
<event>
 7    1  0.8697654E-014  0.5052886E+02  0.7816164E-02  0.1300439E+00
        -11   -1    0    0    0    0  0.00000000000E+00  0.00000000000E+00  0.45593999997E+02  0.45594000000E+02  0.51100000000E-03 0.  1.
         11   -1    0    0    0    0 -0.00000000000E+00 -0.00000000000E+00 -0.45593999997E+02  0.45594000000E+02  0.51100000000E-03 0. -1.
    9900012    2    1    2    0    0  0.24283275056E+02 -0.29705835606E+02  0.13455537638E+02  0.50528860687E+02  0.30000002545E+02 0.  0.
        -12    1    1    2    0    0 -0.24283275056E+02  0.29705835606E+02 -0.13455537638E+02  0.40659139313E+02  0.00000000000E+00 0.  1.
         11    1    3    3    0    0  0.27147538461E+02 -0.22322900187E+02  0.99885589338E+01  0.36538637455E+02  0.51100000000E-03 0. -1.
        -11    1    3    3    0    0 -0.19530637951E+01 -0.10228854854E+02  0.17986963559E+01  0.10567839829E+02  0.51100000000E-03 0.  1.
        -12    1    3    3    0    0 -0.91119961018E+00  0.28459194349E+01  0.16682823487E+01  0.34223834026E+01  0.00000000000E+00 0.  1.
</event>
<event>
 7    1  0.1019433E-013  0.5052886E+02  0.7816164E-02  0.1300439E+00
        -11   -1    0    0    0    0  0.00000000000E+00  0.00000000000E+00  0.45593999997E+02  0.45594000000E+02  0.51100000000E-03 0. -1.
         11   -1    0    0    0    0 -0.00000000000E+00 -0.00000000000E+00 -0.45593999997E+02  0.45594000000E+02  0.51100000000E-03 0.  1.
    9900012    2    1    2    0    0 -0.16727630785E+02 -0.11139457387E+01 -0.37042019796E+02  0.50528859117E+02  0.29999997771E+02 0.  0.
         12    1    1    2    0    0  0.16727630785E+02  0.11139457387E+01  0.37042019796E+02  0.40659140883E+02  0.00000000000E+00 0. -1.
         11    1    3    3    0    0 -0.10554162393E+02  0.56015043761E+01 -0.90222299987E+01  0.14972235287E+02  0.51100000000E-03 0. -1.
        -11    1    3    3    0    0 -0.12899783506E+02 -0.34828189383E+01 -0.22877649619E+02  0.26493797285E+02  0.51100000000E-03 0.  1.
         12    1    3    3    0    0  0.67263151145E+01 -0.32326311765E+01 -0.51421401790E+01  0.90628265437E+01  0.00000000000E+00 0. -1.
</event>
<event>
 7    1  0.8697654E-014  0.5052886E+02  0.7816164E-02  0.1300439E+00
        -11   -1    0    0    0    0  0.00000000000E+00  0.00000000000E+00  0.45593999997E+02  0.45594000000E+02  0.51100000000E-03 0. -1.
         11   -1    0    0    0    0 -0.00000000000E+00 -0.00000000000E+00 -0.45593999997E+02  0.45594000000E+02  0.51100000000E-03 0.  1.
    9900012    2    1    2    0    0  0.27595376537E+02  0.14721551863E+02 -0.25979538453E+02  0.50528864326E+02  0.30000013606E+02 0.  0.
         12    1    1    2    0    0 -0.27595376537E+02 -0.14721551863E+02  0.25979538453E+02  0.40659135674E+02  0.00000000000E+00 0. -1.
         11    1    3    3    0    0  0.19718990513E+00 -0.21239215535E+01  0.20668744141E+01  0.29701677947E+01  0.51100000000E-03 0. -1.
        -11    1    3    3    0    0  0.17136666682E+02  0.68736525361E+00 -0.21111799445E+02  0.27200108309E+02  0.51100000000E-03 0.  1.
        -12    1    3    3    0    0  0.10261519950E+02  0.16158108163E+02 -0.69346134222E+01  0.20358588222E+02  0.00000000000E+00 0.  1.
</event>
<event>
 7    1  0.8697654E-014  0.5052884E+02  0.7816164E-02  0.1300439E+00
        -11   -1    0    0    0    0  0.00000000000E+00  0.00000000000E+00  0.45593999997E+02  0.45594000000E+02  0.51100000000E-03 0. -1.
         11   -1    0    0    0    0 -0.00000000000E+00 -0.00000000000E+00 -0.45593999997E+02  0.45594000000E+02  0.51100000000E-03 0.  1.
    9900012    2    1    2    0    0 -0.28884313240E+02  0.31665951417E+01  0.28440055830E+02  0.50528835575E+02  0.29999926214E+02 0.  0.
        -12    1    1    2    0    0  0.28884313240E+02 -0.31665951417E+01 -0.28440055830E+02  0.40659164425E+02  0.00000000000E+00 0.  1.
         11    1    3    3    0    0 -0.10042456876E+01 -0.76269277783E+01  0.10803209447E+02  0.13262272481E+02  0.51100000000E-03 0. -1.
        -11    1    3    3    0    0 -0.15042746781E+01  0.36725952269E+01 -0.11242778093E+01  0.41248998607E+01  0.51100000000E-03 0.  1.
         12    1    3    3    0    0 -0.26375792874E+02  0.71209276931E+01  0.18761124191E+02  0.33141663233E+02  0.00000000000E+00 0. -1.
</event>
<event>
 7    1  0.8697654E-014  0.5052886E+02  0.7816164E-02  0.1300439E+00
        -11   -1    0    0    0    0  0.00000000000E+00  0.00000000000E+00  0.45593999997E+02  0.45594000000E+02  0.51100000000E-03 0. -1.
         11   -1    0    0    0    0 -0.00000000000E+00 -0.00000000000E+00 -0.45593999997E+02  0.45594000000E+02  0.51100000000E-03 0.  1.
    9900012    2    1    2    0    0  0.21017177889E+02 -0.10346854225E+02  0.33232314700E+02  0.50528857128E+02  0.29999991727E+02 0.  0.
        -12    1    1    2    0    0 -0.21017177889E+02  0.10346854225E+02 -0.33232314700E+02  0.40659142872E+02  0.00000000000E+00 0.  1.
         11    1    3    3    0    0  0.12469011996E+02 -0.42290038489E+01  0.13623665567E+02  0.18946371617E+02  0.51100000000E-03 0. -1.
        -11    1    3    3    0    0  0.90289712191E+01  0.60667024613E+01  0.35989137237E+01  0.11457721426E+02  0.51100000000E-03 0.  1.
         12    1    3    3    0    0 -0.48080532595E+00 -0.12184552837E+02  0.16009735410E+02  0.20124764085E+02  0.00000000000E+00 0. -1.
</event>
<event>
 7    1  0.8697654E-014  0.5052886E+02  0.7816164E-02  0.1300439E+00
        -11   -1    0    0    0    0  0.00000000000E+00  0.00000000000E+00  0.45593999997E+02  0.45594000000E+02  0.51100000000E-03 0. -1.
         11   -1    0    0    0    0 -0.00000000000E+00 -0.00000000000E+00 -0.45593999997E+02  0.45594000000E+02  0.51100000000E-03 0.  1.
    9900012    2    1    2    0    0  0.21311977843E+02  0.14439480233E+02 -0.31471682832E+02  0.50528858232E+02  0.29999995083E+02 0.  0.
         12    1    1    2    0    0 -0.21311977843E+02 -0.14439480233E+02  0.31471682832E+02  0.40659141768E+02  0.00000000000E+00 0. -1.
         11    1    3    3    0    0  0.62033739721E+01 -0.28423483370E+01 -0.20572976282E+02  0.21675058156E+02  0.51100000000E-03 0. -1.
        -11    1    3    3    0    0 -0.24787929584E+01  0.36209944654E+01 -0.25191412773E+01  0.50598506386E+01  0.51100000000E-03 0.  1.
        -12    1    3    3    0    0  0.17587396829E+02  0.13660834105E+02 -0.83795652728E+01  0.23793949437E+02  0.00000000000E+00 0.  1.
</event>
<event>
 7    1  0.8697654E-014  0.5052885E+02  0.7816164E-02  0.1300439E+00
        -11   -1    0    0    0    0  0.00000000000E+00  0.00000000000E+00  0.45593999997E+02  0.45594000000E+02  0.51100000000E-03 0. -1.
         11   -1    0    0    0    0 -0.00000000000E+00 -0.00000000000E+00 -0.45593999997E+02  0.45594000000E+02  0.51100000000E-03 0.  1.
    9900012    2    1    2    0    0  0.22332375798E+01 -0.14839127683E+01 -0.40570640958E+02  0.50528852752E+02  0.29999978424E+02 0.  0.
         12    1    1    2    0    0 -0.22332375798E+01  0.14839127683E+01  0.40570640958E+02  0.40659147248E+02  0.00000000000E+00 0. -1.
         11    1    3    3    0    0 -0.35081495837E+01  0.10992524001E+02 -0.10311333899E+02  0.15474698848E+02  0.51100000000E-03 0. -1.
        -11    1    3    3    0    0 -0.51460837770E+00 -0.55473324958E+01 -0.21648686853E+02  0.22354045771E+02  0.51100000000E-03 0.  1.
        -12    1    3    3    0    0  0.62559955412E+01 -0.69291042734E+01 -0.86106202061E+01  0.12700108132E+02  0.00000000000E+00 0.  1.
</event>
<event>
 7    1  0.8697654E-014  0.5052886E+02  0.7816164E-02  0.1300439E+00
        -11   -1    0    0    0    0  0.00000000000E+00  0.00000000000E+00  0.45593999997E+02  0.45594000000E+02  0.51100000000E-03 0. -1.
         11   -1    0    0    0    0 -0.00000000000E+00 -0.00000000000E+00 -0.45593999997E+02  0.45594000000E+02  0.51100000000E-03 0.  1.
    9900012    2    1    2    0    0 -0.75853380858E+01 -0.28465719045E+02 -0.28023757911E+02  0.50528861764E+02  0.30000005818E+02 0.  0.
         12    1    1    2    0    0  0.75853380858E+01  0.28465719045E+02  0.28023757911E+02  0.40659138236E+02  0.00000000000E+00 0. -1.
         11    1    3    3    0    0  0.84465320979E+01 -0.63401410599E+01 -0.26704113180E+01  0.10893685786E+02  0.51100000000E-03 0. -1.
        -11    1    3    3    0    0 -0.19655430946E+01 -0.25834124710E+01 -0.11297550002E+02  0.11754659330E+02  0.51100000000E-03 0.  1.
        -12    1    3    3    0    0 -0.14066327089E+02 -0.19542165514E+02 -0.14055796591E+02  0.27880516648E+02  0.00000000000E+00 0.  1.
</event>
<event>
 7    1  0.8697654E-014  0.5052888E+02  0.7816164E-02  0.1300439E+00
        -11   -1    0    0    0    0  0.00000000000E+00  0.00000000000E+00  0.45593999997E+02  0.45594000000E+02  0.51100000000E-03 0. -1.
         11   -1    0    0    0    0 -0.00000000000E+00 -0.00000000000E+00 -0.45593999997E+02  0.45594000000E+02  0.51100000000E-03 0.  1.
    9900012    2    1    2    0    0  0.19805399708E+02 -0.97980061642E+01 -0.34130770958E+02  0.50528876687E+02  0.30000051179E+02 0.  0.
         12    1    1    2    0    0 -0.19805399708E+02  0.97980061642E+01  0.34130770958E+02  0.40659123313E+02  0.00000000000E+00 0. -1.
         11    1    3    3    0    0  0.51164025206E+00 -0.10372796236E+02 -0.14244572979E+02  0.17628514887E+02  0.51100000000E-03 0. -1.
        -11    1    3    3    0    0 -0.12641220369E+01 -0.33595210062E+01 -0.81457233209E+01  0.89015276553E+01  0.51100000000E-03 0.  1.
         12    1    3    3    0    0  0.20557881493E+02  0.39343110779E+01 -0.11740474657E+02  0.23998834145E+02  0.00000000000E+00 0. -1.
</event>
<event>
 7    1  0.8697654E-014  0.5052886E+02  0.7816164E-02  0.1300439E+00
        -11   -1    0    0    0    0  0.00000000000E+00  0.00000000000E+00  0.45593999997E+02  0.45594000000E+02  0.51100000000E-03 0. -1.
         11   -1    0    0    0    0 -0.00000000000E+00 -0.00000000000E+00 -0.45593999997E+02  0.45594000000E+02  0.51100000000E-03 0.  1.
    9900012    2    1    2    0    0 -0.21194379674E+01 -0.10651075368E+02  0.39181988916E+02  0.50528859832E+02  0.29999999944E+02 0.  0.
        -12    1    1    2    0    0  0.21194379674E+01  0.10651075368E+02 -0.39181988916E+02  0.40659140168E+02  0.00000000000E+00 0.  1.
         11    1    3    3    0    0  0.45021866329E+01  0.25815865014E+01  0.68098139145E+01  0.85619997169E+01  0.51100000000E-03 0. -1.
        -11    1    3    3    0    0 -0.47641963959E+01 -0.26156739937E+00 -0.20061637413E+01  0.51759712153E+01  0.51100000000E-03 0.  1.
        -12    1    3    3    0    0 -0.18574282044E+01 -0.12971094470E+02  0.34378338743E+02  0.36790888900E+02  0.00000000000E+00 0.  1.
</event>
<event>
 7    1  0.8697654E-014  0.5052887E+02  0.7816164E-02  0.1300439E+00
        -11   -1    0    0    0    0  0.00000000000E+00  0.00000000000E+00  0.45593999997E+02  0.45594000000E+02  0.51100000000E-03 0.  1.
         11   -1    0    0    0    0 -0.00000000000E+00 -0.00000000000E+00 -0.45593999997E+02  0.45594000000E+02  0.51100000000E-03 0. -1.
    9900012    2    1    2    0    0  0.24700408096E+02  0.32294518117E+02  0.34496186357E+00  0.50528867456E+02  0.30000023120E+02 0.  0.
        -12    1    1    2    0    0 -0.24700408096E+02 -0.32294518117E+02 -0.34496186357E+00  0.40659132544E+02  0.00000000000E+00 0.  1.
         11    1    3    3    0    0  0.17741686859E+02  0.18650184592E+02  0.94276056379E+01  0.27413073273E+02  0.51100000000E-03 0. -1.
        -11    1    3    3    0    0 -0.61076174558E+00  0.37383511033E+01  0.36753022716E+01  0.52778921863E+01  0.51100000000E-03 0.  1.
        -12    1    3    3    0    0  0.75694829828E+01  0.99059824213E+01 -0.12757946046E+02  0.17837901997E+02  0.00000000000E+00 0.  1.
</event>
<event>
 7    1  0.8697654E-014  0.5052886E+02  0.7816164E-02  0.1300439E+00
        -11   -1    0    0    0    0  0.00000000000E+00  0.00000000000E+00  0.45593999997E+02  0.45594000000E+02  0.51100000000E-03 0.  1.
         11   -1    0    0    0    0 -0.00000000000E+00 -0.00000000000E+00 -0.45593999997E+02  0.45594000000E+02  0.51100000000E-03 0. -1.
    9900012    2    1    2    0    0 -0.30721482760E+02 -0.25983662544E+02 -0.58485759244E+01  0.50528855118E+02  0.29999985617E+02 0.  0.
        -12    1    1    2    0    0  0.30721482760E+02  0.25983662544E+02  0.58485759244E+01  0.40659144882E+02  0.00000000000E+00 0.  1.
         11    1    3    3    0    0  0.21838239912E+01 -0.35997542271E+01 -0.85301447477E+01  0.95126593231E+01  0.51100000000E-03 0. -1.
        -11    1    3    3    0    0 -0.74121819728E+01 -0.87507656001E+01  0.38106895309E+01  0.12084605709E+02  0.51100000000E-03 0.  1.
        -12    1    3    3    0    0 -0.25493124779E+02 -0.13633142717E+02 -0.11291207077E+01  0.28931590086E+02  0.00000000000E+00 0.  1.
</event>
<event>
 7    1  0.8697654E-014  0.5052886E+02  0.7816164E-02  0.1300439E+00
        -11   -1    0    0    0    0  0.00000000000E+00  0.00000000000E+00  0.45593999997E+02  0.45594000000E+02  0.51100000000E-03 0. -1.
         11   -1    0    0    0    0 -0.00000000000E+00 -0.00000000000E+00 -0.45593999997E+02  0.45594000000E+02  0.51100000000E-03 0.  1.
    9900012    2    1    2    0    0  0.10863178208E+02 -0.17885141037E+02  0.34860847926E+02  0.50528860452E+02  0.30000001828E+02 0.  0.
        -12    1    1    2    0    0 -0.10863178208E+02  0.17885141037E+02 -0.34860847926E+02  0.40659139548E+02  0.00000000000E+00 0.  1.
         11    1    3    3    0    0 -0.20313067690E+01 -0.64241640597E+01  0.83982545442E+01  0.10766929493E+02  0.51100000000E-03 0. -1.
        -11    1    3    3    0    0 -0.16219257956E+01  0.19184768439E+01  0.18180600311E+02  0.18353349139E+02  0.51100000000E-03 0.  1.
        -12    1    3    3    0    0  0.14516410773E+02 -0.13379453821E+02  0.82819930702E+01  0.21408581819E+02  0.00000000000E+00 0.  1.
</event>
<event>
 7    1  0.8697654E-014  0.5052888E+02  0.7816164E-02  0.1300439E+00
        -11   -1    0    0    0    0  0.00000000000E+00  0.00000000000E+00  0.45593999997E+02  0.45594000000E+02  0.51100000000E-03 0. -1.
         11   -1    0    0    0    0 -0.00000000000E+00 -0.00000000000E+00 -0.45593999997E+02  0.45594000000E+02  0.51100000000E-03 0.  1.
    9900012    2    1    2    0    0  0.37010008389E+02 -0.13375426699E+02 -0.10223556938E+02  0.50528881997E+02  0.30000067318E+02 0.  0.
        -12    1    1    2    0    0 -0.37010008389E+02  0.13375426699E+02  0.10223556938E+02  0.40659118003E+02  0.00000000000E+00 0.  1.
         11    1    3    3    0    0  0.32448118159E+02 -0.15638121777E+02 -0.51667836733E+01  0.36388554224E+02  0.51100000000E-03 0. -1.
        -11    1    3    3    0    0  0.21870189875E+00 -0.28136933003E+01  0.26981970724E+01  0.39044805303E+01  0.51100000000E-03 0.  1.
         12    1    3    3    0    0  0.43431883316E+01  0.50763883780E+01 -0.77549703370E+01  0.10235847243E+02  0.00000000000E+00 0. -1.
</event>
<event>
 7    1  0.8697654E-014  0.5052878E+02  0.7816164E-02  0.1300439E+00
        -11   -1    0    0    0    0  0.00000000000E+00  0.00000000000E+00  0.45593999997E+02  0.45594000000E+02  0.51100000000E-03 0. -1.
         11   -1    0    0    0    0 -0.00000000000E+00 -0.00000000000E+00 -0.45593999997E+02  0.45594000000E+02  0.51100000000E-03 0.  1.
    9900012    2    1    2    0    0 -0.94010062919E+01  0.32313059311E+02  0.22817971581E+02  0.50528775359E+02  0.29999743179E+02 0.  0.
        -12    1    1    2    0    0  0.94010062919E+01 -0.32313059311E+02 -0.22817971581E+02  0.40659224641E+02  0.00000000000E+00 0.  1.
         11    1    3    3    0    0  0.24873154820E+01  0.63294557932E+01  0.96386891458E+01  0.11796316275E+02  0.51100000000E-03 0. -1.
        -11    1    3    3    0    0 -0.53988167060E+01  0.31098429315E+01 -0.56441452789E+01  0.84068258621E+01  0.51100000000E-03 0.  1.
         12    1    3    3    0    0 -0.64895050678E+01  0.22873760586E+02  0.18823427714E+02  0.30325633222E+02  0.00000000000E+00 0. -1.
</event>
<event>
 7    1  0.8697654E-014  0.5052885E+02  0.7816164E-02  0.1300439E+00
        -11   -1    0    0    0    0  0.00000000000E+00  0.00000000000E+00  0.45593999997E+02  0.45594000000E+02  0.51100000000E-03 0. -1.
         11   -1    0    0    0    0 -0.00000000000E+00 -0.00000000000E+00 -0.45593999997E+02  0.45594000000E+02  0.51100000000E-03 0.  1.
    9900012    2    1    2    0    0  0.32740654563E+02 -0.53328896012E+00 -0.24102529880E+02  0.50528845989E+02  0.29999957867E+02 0.  0.
         12    1    1    2    0    0 -0.32740654563E+02  0.53328896012E+00  0.24102529880E+02  0.40659154011E+02  0.00000000000E+00 0. -1.
         11    1    3    3    0    0  0.80026343004E+01 -0.14043909873E+00  0.29634931418E+01  0.85348796564E+01  0.51100000000E-03 0. -1.
        -11    1    3    3    0    0 -0.14560209129E+01  0.45619187497E+01 -0.14020292397E+01  0.49896679076E+01  0.51100000000E-03 0.  1.
        -12    1    3    3    0    0  0.26194041175E+02 -0.49547686111E+01 -0.25663993782E+02  0.37004298425E+02  0.00000000000E+00 0.  1.
</event>
<event>
 7    1  0.8697654E-014  0.5052887E+02  0.7816164E-02  0.1300439E+00
        -11   -1    0    0    0    0  0.00000000000E+00  0.00000000000E+00  0.45593999997E+02  0.45594000000E+02  0.51100000000E-03 0. -1.
         11   -1    0    0    0    0 -0.00000000000E+00 -0.00000000000E+00 -0.45593999997E+02  0.45594000000E+02  0.51100000000E-03 0.  1.
    9900012    2    1    2    0    0 -0.35119653071E+02  0.27409732222E+01 -0.20304229301E+02  0.50528871953E+02  0.30000036788E+02 0.  0.
         12    1    1    2    0    0  0.35119653071E+02 -0.27409732222E+01  0.20304229301E+02  0.40659128047E+02  0.00000000000E+00 0. -1.
         11    1    3    3    0    0 -0.11661305619E+02  0.95037137170E+01 -0.57402318884E+01  0.16101456007E+02  0.51100000000E-03 0. -1.
        -11    1    3    3    0    0 -0.15742439516E+02  0.53923230807E+01 -0.60796815012E+01  0.17716209457E+02  0.51100000000E-03 0.  1.
         12    1    3    3    0    0 -0.77159079361E+01 -0.12155063576E+02 -0.84843159112E+01  0.16711206488E+02  0.00000000000E+00 0. -1.
</event>
<event>
 7    1  0.8697654E-014  0.5052886E+02  0.7816164E-02  0.1300439E+00
        -11   -1    0    0    0    0  0.00000000000E+00  0.00000000000E+00  0.45593999997E+02  0.45594000000E+02  0.51100000000E-03 0.  1.
         11   -1    0    0    0    0 -0.00000000000E+00 -0.00000000000E+00 -0.45593999997E+02  0.45594000000E+02  0.51100000000E-03 0. -1.
    9900012    2    1    2    0    0  0.35480946690E+02 -0.20243931912E+00 -0.19855160950E+02  0.50528856181E+02  0.29999988849E+02 0.  0.
         12    1    1    2    0    0 -0.35480946690E+02  0.20243931912E+00  0.19855160950E+02  0.40659143819E+02  0.00000000000E+00 0. -1.
         11    1    3    3    0    0  0.15515137547E+02 -0.47105136839E+01 -0.11701979251E+02  0.19996118397E+02  0.51100000000E-03 0. -1.
        -11    1    3    3    0    0  0.21278225193E+02  0.73036520751E+01 -0.12081629042E+02  0.25535699747E+02  0.51100000000E-03 0.  1.
        -12    1    3    3    0    0 -0.13124160498E+01 -0.27955777103E+01  0.39284473434E+01  0.49970380379E+01  0.00000000000E+00 0.  1.
</event>
<event>
 7    1  0.8697654E-014  0.5052885E+02  0.7816164E-02  0.1300439E+00
        -11   -1    0    0    0    0  0.00000000000E+00  0.00000000000E+00  0.45593999997E+02  0.45594000000E+02  0.51100000000E-03 0. -1.
         11   -1    0    0    0    0 -0.00000000000E+00 -0.00000000000E+00 -0.45593999997E+02  0.45594000000E+02  0.51100000000E-03 0.  1.
    9900012    2    1    2    0    0  0.72279093135E+01  0.19290230762E+02  0.35054396602E+02  0.50528851005E+02  0.29999973114E+02 0.  0.
        -12    1    1    2    0    0 -0.72279093135E+01 -0.19290230762E+02 -0.35054396602E+02  0.40659148995E+02  0.00000000000E+00 0.  1.
         11    1    3    3    0    0  0.65829061746E+01  0.51247234824E+01 -0.51948736561E+00  0.83586668709E+01  0.51100000000E-03 0. -1.
        -11    1    3    3    0    0  0.76944090987E+01  0.11470253616E+01  0.13761629730E+02  0.15808290599E+02  0.51100000000E-03 0.  1.
         12    1    3    3    0    0 -0.70494059598E+01  0.13018481918E+02  0.21812254237E+02  0.26361893535E+02  0.00000000000E+00 0. -1.
</event>
<event>
 7    1  0.8697654E-014  0.5052885E+02  0.7816164E-02  0.1300439E+00
        -11   -1    0    0    0    0  0.00000000000E+00  0.00000000000E+00  0.45593999997E+02  0.45594000000E+02  0.51100000000E-03 0. -1.
         11   -1    0    0    0    0 -0.00000000000E+00 -0.00000000000E+00 -0.45593999997E+02  0.45594000000E+02  0.51100000000E-03 0.  1.
    9900012    2    1    2    0    0 -0.16398387868E+02 -0.63754312090E+01 -0.36655331131E+02  0.50528849147E+02  0.29999967467E+02 0.  0.
         12    1    1    2    0    0  0.16398387868E+02  0.63754312090E+01  0.36655331131E+02  0.40659150853E+02  0.00000000000E+00 0. -1.
         11    1    3    3    0    0 -0.57626264967E+01 -0.97526775495E+01 -0.64397666170E+01  0.13030471130E+02  0.51100000000E-03 0. -1.
        -11    1    3    3    0    0 -0.25287293948E+01 -0.64186909734E+01 -0.20097049097E+02  0.21248186954E+02  0.51100000000E-03 0.  1.
         12    1    3    3    0    0 -0.81070319770E+01  0.97959373140E+01 -0.10118515417E+02  0.16250191063E+02  0.00000000000E+00 0. -1.
</event>
<event>
 7    1  0.8697654E-014  0.5052886E+02  0.7816164E-02  0.1300439E+00
        -11   -1    0    0    0    0  0.00000000000E+00  0.00000000000E+00  0.45593999997E+02  0.45594000000E+02  0.51100000000E-03 0.  1.
         11   -1    0    0    0    0 -0.00000000000E+00 -0.00000000000E+00 -0.45593999997E+02  0.45594000000E+02  0.51100000000E-03 0. -1.
    9900012    2    1    2    0    0 -0.36363802113E+02  0.24198635998E+01 -0.18027304586E+02  0.50528861364E+02  0.30000004602E+02 0.  0.
         12    1    1    2    0    0  0.36363802113E+02 -0.24198635998E+01  0.18027304586E+02  0.40659138636E+02  0.00000000000E+00 0. -1.
         11    1    3    3    0    0 -0.60870854011E+01  0.18358076639E+01 -0.12719538312E+02  0.14220037046E+02  0.51100000000E-03 0. -1.
        -11    1    3    3    0    0 -0.77902770924E+01  0.20732792300E+01 -0.10445862143E+02  0.13194807316E+02  0.51100000000E-03 0.  1.
        -12    1    3    3    0    0 -0.22486439620E+02 -0.14892232941E+01  0.51380958690E+01  0.23114017002E+02  0.00000000000E+00 0.  1.
</event>
<event>
 7    1  0.8697654E-014  0.5052886E+02  0.7816164E-02  0.1300439E+00
        -11   -1    0    0    0    0  0.00000000000E+00  0.00000000000E+00  0.45593999997E+02  0.45594000000E+02  0.51100000000E-03 0. -1.
         11   -1    0    0    0    0 -0.00000000000E+00 -0.00000000000E+00 -0.45593999997E+02  0.45594000000E+02  0.51100000000E-03 0.  1.
    9900012    2    1    2    0    0 -0.61604883965E+01  0.16237228449E+02  0.36763656595E+02  0.50528860176E+02  0.30000000991E+02 0.  0.
        -12    1    1    2    0    0  0.61604883965E+01 -0.16237228449E+02 -0.36763656595E+02  0.40659139824E+02  0.00000000000E+00 0.  1.
         11    1    3    3    0    0  0.55650489487E+01 -0.26447374240E+01  0.37942695075E+01  0.72360823102E+01  0.51100000000E-03 0. -1.
        -11    1    3    3    0    0  0.28567695793E+01  0.58756285597E+01  0.16470392908E+02  0.17718859619E+02  0.51100000000E-03 0.  1.
         12    1    3    3    0    0 -0.14582306924E+02  0.13006337313E+02  0.16498994180E+02  0.25573918247E+02  0.00000000000E+00 0. -1.
</event>
<event>
 7    1  0.8697654E-014  0.5052886E+02  0.7816164E-02  0.1300439E+00
        -11   -1    0    0    0    0  0.00000000000E+00  0.00000000000E+00  0.45593999997E+02  0.45594000000E+02  0.51100000000E-03 0. -1.
         11   -1    0    0    0    0 -0.00000000000E+00 -0.00000000000E+00 -0.45593999997E+02  0.45594000000E+02  0.51100000000E-03 0.  1.
    9900012    2    1    2    0    0 -0.10081864786E+01  0.18196987829E+01  0.40605881270E+02  0.50528864036E+02  0.30000012724E+02 0.  0.
        -12    1    1    2    0    0  0.10081864786E+01 -0.18196987829E+01 -0.40605881270E+02  0.40659135964E+02  0.00000000000E+00 0.  1.
         11    1    3    3    0    0 -0.60324397889E+01  0.10520476545E+01  0.33748800489E+02  0.34299834821E+02  0.51100000000E-03 0. -1.
        -11    1    3    3    0    0 -0.32389290820E+01 -0.25445333239E+01  0.60107617298E+01  0.72866019699E+01  0.51100000000E-03 0.  1.
        -12    1    3    3    0    0  0.82631823923E+01  0.33121844522E+01  0.84631905152E+00  0.89424272450E+01  0.00000000000E+00 0.  1.
</event>
<event>
 7    1  0.8697654E-014  0.5052886E+02  0.7816164E-02  0.1300439E+00
        -11   -1    0    0    0    0  0.00000000000E+00  0.00000000000E+00  0.45593999997E+02  0.45594000000E+02  0.51100000000E-03 0. -1.
         11   -1    0    0    0    0 -0.00000000000E+00 -0.00000000000E+00 -0.45593999997E+02  0.45594000000E+02  0.51100000000E-03 0.  1.
    9900012    2    1    2    0    0 -0.26590126840E+02 -0.18268976137E+02  0.24746218963E+02  0.50528859730E+02  0.29999999637E+02 0.  0.
        -12    1    1    2    0    0  0.26590126840E+02  0.18268976137E+02 -0.24746218963E+02  0.40659140270E+02  0.00000000000E+00 0.  1.
         11    1    3    3    0    0  0.31357463069E+01 -0.27410663297E+01  0.12858192984E+01  0.43588623578E+01  0.51100000000E-03 0. -1.
        -11    1    3    3    0    0 -0.17713713410E+02  0.72914069367E-02  0.32856334048E+01  0.18015856434E+02  0.51100000000E-03 0.  1.
         12    1    3    3    0    0 -0.12012159737E+02 -0.15535201214E+02  0.20174766260E+02  0.28154140938E+02  0.00000000000E+00 0. -1.
</event>
<event>
 7    1  0.8697654E-014  0.5052886E+02  0.7816164E-02  0.1300439E+00
        -11   -1    0    0    0    0  0.00000000000E+00  0.00000000000E+00  0.45593999997E+02  0.45594000000E+02  0.51100000000E-03 0. -1.
         11   -1    0    0    0    0 -0.00000000000E+00 -0.00000000000E+00 -0.45593999997E+02  0.45594000000E+02  0.51100000000E-03 0.  1.
    9900012    2    1    2    0    0  0.17238998535E+02  0.10034629381E+02  0.35430057108E+02  0.50528858298E+02  0.29999995281E+02 0.  0.
        -12    1    1    2    0    0 -0.17238998535E+02 -0.10034629381E+02 -0.35430057108E+02  0.40659141702E+02  0.00000000000E+00 0.  1.
         11    1    3    3    0    0  0.82040963334E+01  0.12791197673E+02  0.66105480036E+01  0.16571701172E+02  0.51100000000E-03 0. -1.
        -11    1    3    3    0    0  0.60555072589E+01 -0.40386740829E+01  0.28995043654E+01  0.78349972774E+01  0.51100000000E-03 0.  1.
        -12    1    3    3    0    0  0.29793949423E+01  0.12821057913E+01  0.25920004739E+02  0.26122159849E+02  0.00000000000E+00 0.  1.
</event>
<event>
 7    1  0.8697654E-014  0.5052885E+02  0.7816164E-02  0.1300439E+00
        -11   -1    0    0    0    0  0.00000000000E+00  0.00000000000E+00  0.45593999997E+02  0.45594000000E+02  0.51100000000E-03 0. -1.
         11   -1    0    0    0    0 -0.00000000000E+00 -0.00000000000E+00 -0.45593999997E+02  0.45594000000E+02  0.51100000000E-03 0.  1.
    9900012    2    1    2    0    0  0.23408750269E+02  0.13158965017E+02 -0.30529299476E+02  0.50528854953E+02  0.29999985115E+02 0.  0.
         12    1    1    2    0    0 -0.23408750269E+02 -0.13158965017E+02  0.30529299476E+02  0.40659145047E+02  0.00000000000E+00 0. -1.
         11    1    3    3    0    0 -0.43785338678E+01  0.65438283446E+01 -0.60163815790E+01  0.99090915729E+01  0.51100000000E-03 0. -1.
        -11    1    3    3    0    0  0.25485834952E+01 -0.42144751114E+01 -0.36582922078E+01  0.61351593651E+01  0.51100000000E-03 0.  1.
        -12    1    3    3    0    0  0.25238700641E+02  0.10829611784E+02 -0.20854625689E+02  0.34484604015E+02  0.00000000000E+00 0.  1.
</event>
<event>
 7    1  0.8697654E-014  0.5052886E+02  0.7816164E-02  0.1300439E+00
        -11   -1    0    0    0    0  0.00000000000E+00  0.00000000000E+00  0.45593999997E+02  0.45594000000E+02  0.51100000000E-03 0. -1.
         11   -1    0    0    0    0 -0.00000000000E+00 -0.00000000000E+00 -0.45593999997E+02  0.45594000000E+02  0.51100000000E-03 0.  1.
    9900012    2    1    2    0    0  0.93281407673E+01  0.28660643509E+02  0.27289536752E+02  0.50528861880E+02  0.30000006170E+02 0.  0.
        -12    1    1    2    0    0 -0.93281407673E+01 -0.28660643509E+02 -0.27289536752E+02  0.40659138120E+02  0.00000000000E+00 0.  1.
         11    1    3    3    0    0  0.10289548909E+02  0.20020438917E+02  0.11575136639E+02  0.25311589829E+02  0.51100000000E-03 0. -1.
        -11    1    3    3    0    0  0.42485787686E+01 -0.17400913474E+01 -0.11569730100E+01  0.47346516511E+01  0.51100000000E-03 0.  1.
         12    1    3    3    0    0 -0.52099869106E+01  0.10380295940E+02  0.16871373123E+02  0.20482620400E+02  0.00000000000E+00 0. -1.
</event>
<event>
 7    1  0.8697654E-014  0.5052891E+02  0.7816164E-02  0.1300439E+00
        -11   -1    0    0    0    0  0.00000000000E+00  0.00000000000E+00  0.45593999997E+02  0.45594000000E+02  0.51100000000E-03 0. -1.
         11   -1    0    0    0    0 -0.00000000000E+00 -0.00000000000E+00 -0.45593999997E+02  0.45594000000E+02  0.51100000000E-03 0.  1.
    9900012    2    1    2    0    0  0.12191065327E+02  0.24288604360E+02 -0.30242406625E+02  0.50528910807E+02  0.30000154887E+02 0.  0.
         12    1    1    2    0    0 -0.12191065327E+02 -0.24288604360E+02  0.30242406625E+02  0.40659089193E+02  0.00000000000E+00 0. -1.
         11    1    3    3    0    0  0.20819994068E+01 -0.87100817568E+00  0.30050501452E+01  0.37581515946E+01  0.51100000000E-03 0. -1.
        -11    1    3    3    0    0  0.87989212660E+01  0.11803454738E+01 -0.92397020285E+01  0.12813521168E+02  0.51100000000E-03 0.  1.
        -12    1    3    3    0    0  0.13101446545E+01  0.23979267062E+02 -0.24007754742E+02  0.33957238044E+02  0.00000000000E+00 0.  1.
</event>
<event>
 7    1  0.8697654E-014  0.5052887E+02  0.7816164E-02  0.1300439E+00
        -11   -1    0    0    0    0  0.00000000000E+00  0.00000000000E+00  0.45593999997E+02  0.45594000000E+02  0.51100000000E-03 0.  1.
         11   -1    0    0    0    0 -0.00000000000E+00 -0.00000000000E+00 -0.45593999997E+02  0.45594000000E+02  0.51100000000E-03 0. -1.
    9900012    2    1    2    0    0 -0.89665336895E+01  0.38941468388E+02  0.75052338951E+01  0.50528865449E+02  0.30000017018E+02 0.  0.
         12    1    1    2    0    0  0.89665336895E+01 -0.38941468388E+02 -0.75052338951E+01  0.40659134551E+02  0.00000000000E+00 0. -1.
         11    1    3    3    0    0 -0.10718682641E+02  0.24816973550E+02  0.17730362691E+02  0.32328595626E+02  0.51100000000E-03 0.  1.
        -11    1    3    3    0    0 -0.10268678754E+01  0.47746213273E+01 -0.14886260236E+01  0.51056316115E+01  0.51100000000E-03 0. -1.
         12    1    3    3    0    0  0.27790168271E+01  0.93498735114E+01 -0.87365027722E+01  0.13094638212E+02  0.00000000000E+00 0. -1.
</event>
<event>
 7    1  0.8697654E-014  0.5052886E+02  0.7816164E-02  0.1300439E+00
        -11   -1    0    0    0    0  0.00000000000E+00  0.00000000000E+00  0.45593999997E+02  0.45594000000E+02  0.51100000000E-03 0. -1.
         11   -1    0    0    0    0 -0.00000000000E+00 -0.00000000000E+00 -0.45593999997E+02  0.45594000000E+02  0.51100000000E-03 0.  1.
    9900012    2    1    2    0    0 -0.93010908039E+01 -0.17137128716E+02 -0.35678762567E+02  0.50528861186E+02  0.30000004060E+02 0.  0.
         12    1    1    2    0    0  0.93010908039E+01  0.17137128716E+02  0.35678762567E+02  0.40659138814E+02  0.00000000000E+00 0. -1.
         11    1    3    3    0    0  0.27754431638E+01 -0.34769824713E+01  0.30259161378E+01  0.53803959515E+01  0.51100000000E-03 0. -1.
        -11    1    3    3    0    0 -0.63066531810E+01 -0.13258319245E+02 -0.15985773509E+02  0.21704880983E+02  0.51100000000E-03 0.  1.
        -12    1    3    3    0    0 -0.57698807866E+01 -0.40182700043E+00 -0.22718905196E+02  0.23443584251E+02  0.00000000000E+00 0.  1.
</event>
<event>
 7    1  0.8697654E-014  0.5052886E+02  0.7816164E-02  0.1300439E+00
        -11   -1    0    0    0    0  0.00000000000E+00  0.00000000000E+00  0.45593999997E+02  0.45594000000E+02  0.51100000000E-03 0. -1.
         11   -1    0    0    0    0 -0.00000000000E+00 -0.00000000000E+00 -0.45593999997E+02  0.45594000000E+02  0.51100000000E-03 0.  1.
    9900012    2    1    2    0    0  0.13737052593E+02  0.85875853478E+01  0.37292261987E+02  0.50528855393E+02  0.29999986454E+02 0.  0.
        -12    1    1    2    0    0 -0.13737052593E+02 -0.85875853478E+01 -0.37292261987E+02  0.40659144607E+02  0.00000000000E+00 0.  1.
         11    1    3    3    0    0 -0.30936360263E+01  0.49676099123E+01  0.23914947288E+01  0.63219442739E+01  0.51100000000E-03 0. -1.
        -11    1    3    3    0    0 -0.42386161827E+01  0.13373394393E+01  0.15788050682E+01  0.47166693360E+01  0.51100000000E-03 0.  1.
         12    1    3    3    0    0  0.21069304802E+02  0.22826359962E+01  0.33321962190E+02  0.39490241783E+02  0.00000000000E+00 0. -1.
</event>
<event>
 7    1  0.8697654E-014  0.5052886E+02  0.7816164E-02  0.1300439E+00
        -11   -1    0    0    0    0  0.00000000000E+00  0.00000000000E+00  0.45593999997E+02  0.45594000000E+02  0.51100000000E-03 0. -1.
         11   -1    0    0    0    0 -0.00000000000E+00 -0.00000000000E+00 -0.45593999997E+02  0.45594000000E+02  0.51100000000E-03 0.  1.
    9900012    2    1    2    0    0  0.30978883276E+02  0.12735020137E+02 -0.23049806132E+02  0.50528861917E+02  0.30000006284E+02 0.  0.
         12    1    1    2    0    0 -0.30978883276E+02 -0.12735020137E+02  0.23049806132E+02  0.40659138083E+02  0.00000000000E+00 0. -1.
         11    1    3    3    0    0  0.23442719845E+01  0.32244422048E+01  0.27126061644E+01  0.48219157120E+01  0.51100000000E-03 0. -1.
        -11    1    3    3    0    0  0.20141992281E+02  0.30940678160E+00 -0.39084784302E+01  0.20520033857E+02  0.51100000000E-03 0.  1.
        -12    1    3    3    0    0  0.84926190103E+01  0.92011711502E+01 -0.21853933866E+02  0.25186912348E+02  0.00000000000E+00 0.  1.
</event>
<event>
 7    1  0.8697654E-014  0.5052885E+02  0.7816164E-02  0.1300439E+00
        -11   -1    0    0    0    0  0.00000000000E+00  0.00000000000E+00  0.45593999997E+02  0.45594000000E+02  0.51100000000E-03 0.  1.
         11   -1    0    0    0    0 -0.00000000000E+00 -0.00000000000E+00 -0.45593999997E+02  0.45594000000E+02  0.51100000000E-03 0. -1.
    9900012    2    1    2    0    0 -0.32756466810E+02  0.17830580688E+02 -0.16194151745E+02  0.50528852489E+02  0.29999977626E+02 0.  0.
        -12    1    1    2    0    0  0.32756466810E+02 -0.17830580688E+02  0.16194151745E+02  0.40659147511E+02  0.00000000000E+00 0.  1.
         11    1    3    3    0    0 -0.14024448089E+02  0.57625723757E+01 -0.18413177635E+02  0.23852410685E+02  0.51100000000E-03 0. -1.
        -11    1    3    3    0    0 -0.59616957269E+01  0.12156707721E+02 -0.76633062809E+00  0.13561512506E+02  0.51100000000E-03 0.  1.
        -12    1    3    3    0    0 -0.12770322995E+02 -0.88699408995E-01  0.29853565177E+01  0.13114929299E+02  0.00000000000E+00 0.  1.
</event>
<event>
 7    1  0.8697654E-014  0.5052886E+02  0.7816164E-02  0.1300439E+00
        -11   -1    0    0    0    0  0.00000000000E+00  0.00000000000E+00  0.45593999997E+02  0.45594000000E+02  0.51100000000E-03 0.  1.
         11   -1    0    0    0    0 -0.00000000000E+00 -0.00000000000E+00 -0.45593999997E+02  0.45594000000E+02  0.51100000000E-03 0. -1.
    9900012    2    1    2    0    0 -0.33875622657E+02  0.21686453876E+02  0.59418637630E+01  0.50528857890E+02  0.29999994043E+02 0.  0.
         12    1    1    2    0    0  0.33875622657E+02 -0.21686453876E+02 -0.59418637630E+01  0.40659142110E+02  0.00000000000E+00 0. -1.
         11    1    3    3    0    0 -0.21083925450E+01 -0.51103980660E+01  0.14443160997E+01  0.57138023044E+01  0.51100000000E-03 0. -1.
        -11    1    3    3    0    0 -0.36903948061E+01 -0.11974129665E+01  0.33885962237E+01  0.51512519124E+01  0.51100000000E-03 0.  1.
         12    1    3    3    0    0 -0.28076835306E+02  0.27994264908E+02  0.11089514396E+01  0.39663803673E+02  0.00000000000E+00 0. -1.
</event>
<event>
 7    1  0.8697654E-014  0.5052886E+02  0.7816164E-02  0.1300439E+00
        -11   -1    0    0    0    0  0.00000000000E+00  0.00000000000E+00  0.45593999997E+02  0.45594000000E+02  0.51100000000E-03 0. -1.
         11   -1    0    0    0    0 -0.00000000000E+00 -0.00000000000E+00 -0.45593999997E+02  0.45594000000E+02  0.51100000000E-03 0.  1.
    9900012    2    1    2    0    0 -0.37183757703E+01 -0.16272294438E+02  0.37074951161E+02  0.50528857261E+02  0.29999992130E+02 0.  0.
        -12    1    1    2    0    0  0.37183757703E+01  0.16272294438E+02 -0.37074951161E+02  0.40659142739E+02  0.00000000000E+00 0.  1.
         11    1    3    3    0    0 -0.48978379344E+01 -0.25928766982E+01  0.21764686555E+02  0.22459149742E+02  0.51100000000E-03 0. -1.
        -11    1    3    3    0    0  0.80635960847E+01 -0.24163719690E+01  0.11646972295E+02  0.14370539280E+02  0.51100000000E-03 0.  1.
        -12    1    3    3    0    0 -0.68841339206E+01 -0.11263045771E+02  0.36632923112E+01  0.13699168239E+02  0.00000000000E+00 0.  1.
</event>
<event>
 7    1  0.8697654E-014  0.5052886E+02  0.7816164E-02  0.1300439E+00
        -11   -1    0    0    0    0  0.00000000000E+00  0.00000000000E+00  0.45593999997E+02  0.45594000000E+02  0.51100000000E-03 0. -1.
         11   -1    0    0    0    0 -0.00000000000E+00 -0.00000000000E+00 -0.45593999997E+02  0.45594000000E+02  0.51100000000E-03 0.  1.
    9900012    2    1    2    0    0 -0.22657550696E+00  0.80890819976E+01 -0.39845714516E+02  0.50528861429E+02  0.30000004801E+02 0.  0.
         12    1    1    2    0    0  0.22657550696E+00 -0.80890819976E+01  0.39845714516E+02  0.40659138571E+02  0.00000000000E+00 0. -1.
         11    1    3    3    0    0  0.46586493889E+01 -0.46791060416E+01  0.25344082787E+00  0.66076682720E+01  0.51100000000E-03 0. -1.
        -11    1    3    3    0    0 -0.48543123451E+00  0.63151021006E+01 -0.53070761466E+01  0.82632448536E+01  0.51100000000E-03 0.  1.
        -12    1    3    3    0    0 -0.43997936614E+01  0.64530859387E+01 -0.34792079197E+02  0.35657948304E+02  0.00000000000E+00 0.  1.
</event>
<event>
 7    1  0.8697654E-014  0.5052886E+02  0.7816164E-02  0.1300439E+00
        -11   -1    0    0    0    0  0.00000000000E+00  0.00000000000E+00  0.45593999997E+02  0.45594000000E+02  0.51100000000E-03 0. -1.
         11   -1    0    0    0    0 -0.00000000000E+00 -0.00000000000E+00 -0.45593999997E+02  0.45594000000E+02  0.51100000000E-03 0.  1.
    9900012    2    1    2    0    0 -0.14643723410E+02 -0.18817576203E+02 -0.32933662463E+02  0.50528856715E+02  0.29999990470E+02 0.  0.
         12    1    1    2    0    0  0.14643723410E+02  0.18817576203E+02  0.32933662463E+02  0.40659143285E+02  0.00000000000E+00 0. -1.
         11    1    3    3    0    0 -0.17526957044E+01 -0.10048291787E+02 -0.74007648794E+01  0.12602040752E+02  0.51100000000E-03 0. -1.
        -11    1    3    3    0    0 -0.22535390374E+01 -0.91728657676E+01 -0.25594144428E+02  0.27281498013E+02  0.51100000000E-03 0.  1.
         12    1    3    3    0    0 -0.10637488668E+02  0.40358135172E+00  0.61246843861E-01  0.10645317950E+02  0.00000000000E+00 0. -1.
</event>
<event>
 7    1  0.8697654E-014  0.5052885E+02  0.7816164E-02  0.1300439E+00
        -11   -1    0    0    0    0  0.00000000000E+00  0.00000000000E+00  0.45593999997E+02  0.45594000000E+02  0.51100000000E-03 0. -1.
         11   -1    0    0    0    0 -0.00000000000E+00 -0.00000000000E+00 -0.45593999997E+02  0.45594000000E+02  0.51100000000E-03 0.  1.
    9900012    2    1    2    0    0  0.97186030237E+01  0.88368689674E+01  0.38478885036E+02  0.50528854762E+02  0.29999984534E+02 0.  0.
        -12    1    1    2    0    0 -0.97186030237E+01 -0.88368689674E+01 -0.38478885036E+02  0.40659145238E+02  0.00000000000E+00 0.  1.
         11    1    3    3    0    0  0.78147309793E+00  0.20724711657E+01  0.31736836947E+02  0.31814032385E+02  0.51100000000E-03 0. -1.
        -11    1    3    3    0    0  0.27448333560E+01 -0.67307551852E+00  0.84297896578E+01  0.88909220411E+01  0.51100000000E-03 0.  1.
        -12    1    3    3    0    0  0.61922965698E+01  0.74374733203E+01 -0.16877415689E+01  0.98239003355E+01  0.00000000000E+00 0.  1.
</event>
<event>
 7    1  0.8697654E-014  0.5052888E+02  0.7816164E-02  0.1300439E+00
        -11   -1    0    0    0    0  0.00000000000E+00  0.00000000000E+00  0.45593999997E+02  0.45594000000E+02  0.51100000000E-03 0. -1.
         11   -1    0    0    0    0 -0.00000000000E+00 -0.00000000000E+00 -0.45593999997E+02  0.45594000000E+02  0.51100000000E-03 0.  1.
    9900012    2    1    2    0    0 -0.15874635594E+02  0.20153623708E+02  0.31543488948E+02  0.50528876807E+02  0.30000051542E+02 0.  0.
        -12    1    1    2    0    0  0.15874635594E+02 -0.20153623708E+02 -0.31543488948E+02  0.40659123193E+02  0.00000000000E+00 0.  1.
         11    1    3    3    0    0 -0.15419003127E+02  0.48680235350E+01  0.16654437529E+02  0.23212358782E+02  0.51100000000E-03 0. -1.
        -11    1    3    3    0    0 -0.73129910830E+01  0.14161784842E+02  0.10816394684E+02  0.19262148964E+02  0.51100000000E-03 0.  1.
        -12    1    3    3    0    0  0.68573586159E+01  0.11238153313E+01  0.40726567357E+01  0.80543690612E+01  0.00000000000E+00 0.  1.
</event>
<event>
 7    1  0.8697654E-014  0.5052887E+02  0.7816164E-02  0.1300439E+00
        -11   -1    0    0    0    0  0.00000000000E+00  0.00000000000E+00  0.45593999997E+02  0.45594000000E+02  0.51100000000E-03 0. -1.
         11   -1    0    0    0    0 -0.00000000000E+00 -0.00000000000E+00 -0.45593999997E+02  0.45594000000E+02  0.51100000000E-03 0.  1.
    9900012    2    1    2    0    0  0.15171267678E+02  0.10670630858E+02 -0.36181974329E+02  0.50528868280E+02  0.30000025623E+02 0.  0.
         12    1    1    2    0    0 -0.15171267678E+02 -0.10670630858E+02  0.36181974329E+02  0.40659131720E+02  0.00000000000E+00 0. -1.
         11    1    3    3    0    0  0.70337990886E+01 -0.53214228483E+01 -0.21780742160E+01  0.90849258830E+01  0.51100000000E-03 0. -1.
        -11    1    3    3    0    0 -0.51338481377E+00  0.88269051800E+00 -0.17254296101E+02  0.17284485550E+02  0.51100000000E-03 0.  1.
         12    1    3    3    0    0  0.86508534034E+01  0.15109363188E+02 -0.16749604012E+02  0.24159456847E+02  0.00000000000E+00 0. -1.
</event>
<event>
 7    1  0.8697654E-014  0.5052885E+02  0.7816164E-02  0.1300439E+00
        -11   -1    0    0    0    0  0.00000000000E+00  0.00000000000E+00  0.45593999997E+02  0.45594000000E+02  0.51100000000E-03 0. -1.
         11   -1    0    0    0    0 -0.00000000000E+00 -0.00000000000E+00 -0.45593999997E+02  0.45594000000E+02  0.51100000000E-03 0.  1.
    9900012    2    1    2    0    0 -0.89964604092E+01  0.28623507815E+02 -0.27439480265E+02  0.50528848795E+02  0.29999966397E+02 0.  0.
         12    1    1    2    0    0  0.89964604092E+01 -0.28623507815E+02  0.27439480265E+02  0.40659151205E+02  0.00000000000E+00 0. -1.
         11    1    3    3    0    0 -0.12091757901E+02  0.62582033519E+01 -0.14181065848E+02  0.19659052550E+02  0.51100000000E-03 0. -1.
        -11    1    3    3    0    0 -0.41393719342E+01  0.36562491642E+01 -0.86907591025E+01  0.10297176895E+02  0.51100000000E-03 0.  1.
        -12    1    3    3    0    0  0.72346694260E+01  0.18709055298E+02 -0.45676553147E+01  0.20572619350E+02  0.00000000000E+00 0.  1.
</event>
<event>
 7    1  0.8697654E-014  0.5052885E+02  0.7816164E-02  0.1300439E+00
        -11   -1    0    0    0    0  0.00000000000E+00  0.00000000000E+00  0.45593999997E+02  0.45594000000E+02  0.51100000000E-03 0.  1.
         11   -1    0    0    0    0 -0.00000000000E+00 -0.00000000000E+00 -0.45593999997E+02  0.45594000000E+02  0.51100000000E-03 0. -1.
    9900012    2    1    2    0    0 -0.20194472973E+01  0.38058730487E+02 -0.14164079374E+02  0.50528852466E+02  0.29999977555E+02 0.  0.
         12    1    1    2    0    0  0.20194472973E+01 -0.38058730487E+02  0.14164079374E+02  0.40659147534E+02  0.00000000000E+00 0. -1.
         11    1    3    3    0    0  0.33856238025E+01  0.18127364224E+02 -0.19328327976E+02  0.26714191825E+02  0.51100000000E-03 0. -1.
        -11    1    3    3    0    0  0.10574447960E-01 -0.13172966174E+01  0.20934127777E+00  0.13338688950E+01  0.51100000000E-03 0.  1.
        -12    1    3    3    0    0 -0.54156455477E+01  0.21248662881E+02  0.49549073245E+01  0.22480791746E+02  0.00000000000E+00 0.  1.
</event>
<event>
 7    1  0.8697654E-014  0.5052885E+02  0.7816164E-02  0.1300439E+00
        -11   -1    0    0    0    0  0.00000000000E+00  0.00000000000E+00  0.45593999997E+02  0.45594000000E+02  0.51100000000E-03 0.  1.
         11   -1    0    0    0    0 -0.00000000000E+00 -0.00000000000E+00 -0.45593999997E+02  0.45594000000E+02  0.51100000000E-03 0. -1.
    9900012    2    1    2    0    0  0.20645171873E+02  0.32187591608E+02  0.13816736020E+02  0.50528851344E+02  0.29999974145E+02 0.  0.
        -12    1    1    2    0    0 -0.20645171873E+02 -0.32187591608E+02 -0.13816736020E+02  0.40659148656E+02  0.00000000000E+00 0.  1.
         11    1    3    3    0    0  0.69769555668E+00  0.22406843699E+02  0.73842269208E+01  0.23602547132E+02  0.51100000000E-03 0. -1.
        -11    1    3    3    0    0 -0.10517684002E+00  0.61323509854E+00  0.47748540913E+01  0.48152207953E+01  0.51100000000E-03 0.  1.
         12    1    3    3    0    0  0.20052653156E+02  0.91675128102E+01  0.16576550080E+01  0.22111083417E+02  0.00000000000E+00 0. -1.
</event>
<event>
 7    1  0.8697654E-014  0.5052887E+02  0.7816164E-02  0.1300439E+00
        -11   -1    0    0    0    0  0.00000000000E+00  0.00000000000E+00  0.45593999997E+02  0.45594000000E+02  0.51100000000E-03 0.  1.
         11   -1    0    0    0    0 -0.00000000000E+00 -0.00000000000E+00 -0.45593999997E+02  0.45594000000E+02  0.51100000000E-03 0. -1.
    9900012    2    1    2    0    0 -0.34407784084E+02 -0.19189976357E+02  0.10050583732E+02  0.50528867797E+02  0.30000024157E+02 0.  0.
        -12    1    1    2    0    0  0.34407784084E+02  0.19189976357E+02 -0.10050583732E+02  0.40659132203E+02  0.00000000000E+00 0.  1.
         11    1    3    3    0    0 -0.28690088909E+02 -0.18651831866E+02  0.88134417207E+01  0.35336790868E+02  0.51100000000E-03 0. -1.
        -11    1    3    3    0    0 -0.37832255506E+01 -0.31280628173E+01  0.70205506360E+01  0.85665456311E+01  0.51100000000E-03 0.  1.
         12    1    3    3    0    0 -0.19344696237E+01  0.25899183267E+01 -0.57834086251E+01  0.66255312986E+01  0.00000000000E+00 0. -1.
</event>
<event>
 7    1  0.8697654E-014  0.5052886E+02  0.7816164E-02  0.1300439E+00
        -11   -1    0    0    0    0  0.00000000000E+00  0.00000000000E+00  0.45593999997E+02  0.45594000000E+02  0.51100000000E-03 0. -1.
         11   -1    0    0    0    0 -0.00000000000E+00 -0.00000000000E+00 -0.45593999997E+02  0.45594000000E+02  0.51100000000E-03 0.  1.
    9900012    2    1    2    0    0 -0.16508026393E+02 -0.24245402369E+02 -0.28156901246E+02  0.50528861308E+02  0.30000004432E+02 0.  0.
         12    1    1    2    0    0  0.16508026393E+02  0.24245402369E+02  0.28156901246E+02  0.40659138692E+02  0.00000000000E+00 0. -1.
         11    1    3    3    0    0 -0.58782929902E+00  0.49550839148E+01 -0.10095800682E+02  0.11261598091E+02  0.51100000000E-03 0. -1.
        -11    1    3    3    0    0 -0.90016220915E+01 -0.18136127348E+02 -0.16511481661E+02  0.26126181167E+02  0.51100000000E-03 0.  1.
        -12    1    3    3    0    0 -0.69185750025E+01 -0.11064358935E+02 -0.15496189033E+01  0.13141082051E+02  0.00000000000E+00 0.  1.
</event>
<event>
 7    1  0.8697654E-014  0.5052886E+02  0.7816164E-02  0.1300439E+00
        -11   -1    0    0    0    0  0.00000000000E+00  0.00000000000E+00  0.45593999997E+02  0.45594000000E+02  0.51100000000E-03 0. -1.
         11   -1    0    0    0    0 -0.00000000000E+00 -0.00000000000E+00 -0.45593999997E+02  0.45594000000E+02  0.51100000000E-03 0.  1.
    9900012    2    1    2    0    0  0.10957701550E+02  0.70497297985E+01 -0.38514876219E+02  0.50528860761E+02  0.30000002771E+02 0.  0.
         12    1    1    2    0    0 -0.10957701550E+02 -0.70497297985E+01  0.38514876219E+02  0.40659139239E+02  0.00000000000E+00 0. -1.
         11    1    3    3    0    0  0.61354822035E+01 -0.42226088239E+01 -0.14935999360E+02  0.16690076222E+02  0.51100000000E-03 0. -1.
        -11    1    3    3    0    0  0.34966360150E+01 -0.37684969947E+01 -0.16271629304E+02  0.17064406040E+02  0.51100000000E-03 0.  1.
        -12    1    3    3    0    0  0.13255833310E+01  0.15040835617E+02 -0.73072475544E+01  0.16774378500E+02  0.00000000000E+00 0.  1.
</event>
<event>
 7    1  0.8697654E-014  0.5052890E+02  0.7816164E-02  0.1300439E+00
        -11   -1    0    0    0    0  0.00000000000E+00  0.00000000000E+00  0.45593999997E+02  0.45594000000E+02  0.51100000000E-03 0. -1.
         11   -1    0    0    0    0 -0.00000000000E+00 -0.00000000000E+00 -0.45593999997E+02  0.45594000000E+02  0.51100000000E-03 0.  1.
    9900012    2    1    2    0    0 -0.34996935678E+02 -0.94797789982E+01 -0.18398649592E+02  0.50528904788E+02  0.30000136592E+02 0.  0.
         12    1    1    2    0    0  0.34996935678E+02  0.94797789982E+01  0.18398649592E+02  0.40659095212E+02  0.00000000000E+00 0. -1.
         11    1    3    3    0    0  0.62749922286E+00  0.17911427021E+01  0.57597355300E+00  0.19833540403E+01  0.51100000000E-03 0. -1.
        -11    1    3    3    0    0 -0.42940983829E+01 -0.12358912133E+02 -0.32869899666E+01  0.13490229550E+02  0.51100000000E-03 0.  1.
         12    1    3    3    0    0 -0.31330336518E+02  0.10879904322E+01 -0.15687633178E+02  0.35055321197E+02  0.00000000000E+00 0. -1.
</event>
<event>
 7    1  0.8697654E-014  0.5052886E+02  0.7816164E-02  0.1300439E+00
        -11   -1    0    0    0    0  0.00000000000E+00  0.00000000000E+00  0.45593999997E+02  0.45594000000E+02  0.51100000000E-03 0. -1.
         11   -1    0    0    0    0 -0.00000000000E+00 -0.00000000000E+00 -0.45593999997E+02  0.45594000000E+02  0.51100000000E-03 0.  1.
    9900012    2    1    2    0    0 -0.23188104961E+02 -0.28937795471E+02  0.16675779781E+02  0.50528857735E+02  0.29999993572E+02 0.  0.
        -12    1    1    2    0    0  0.23188104961E+02  0.28937795471E+02 -0.16675779781E+02  0.40659142265E+02  0.00000000000E+00 0.  1.
         11    1    3    3    0    0 -0.16103732023E+02 -0.14630261734E+02  0.11408119362E+01  0.21787064869E+02  0.51100000000E-03 0. -1.
        -11    1    3    3    0    0  0.23896871307E+01 -0.42109315517E+01 -0.29324354937E+01  0.56605412551E+01  0.51100000000E-03 0.  1.
        -12    1    3    3    0    0 -0.94740600689E+01 -0.10096602186E+02  0.18467403338E+02  0.23081251611E+02  0.00000000000E+00 0.  1.
</event>
<event>
 7    1  0.8697654E-014  0.5052886E+02  0.7816164E-02  0.1300439E+00
        -11   -1    0    0    0    0  0.00000000000E+00  0.00000000000E+00  0.45593999997E+02  0.45594000000E+02  0.51100000000E-03 0. -1.
         11   -1    0    0    0    0 -0.00000000000E+00 -0.00000000000E+00 -0.45593999997E+02  0.45594000000E+02  0.51100000000E-03 0.  1.
    9900012    2    1    2    0    0  0.12952489042E+02 -0.12708298355E+02 -0.36385410964E+02  0.50528856496E+02  0.29999989804E+02 0.  0.
         12    1    1    2    0    0 -0.12952489042E+02  0.12708298355E+02  0.36385410964E+02  0.40659143504E+02  0.00000000000E+00 0. -1.
         11    1    3    3    0    0  0.17492842033E+02 -0.75339600985E+00 -0.14983410132E+02  0.23044949715E+02  0.51100000000E-03 0. -1.
        -11    1    3    3    0    0  0.71107951883E+00 -0.79081329526E+01 -0.18716187989E+02  0.20330762258E+02  0.51100000000E-03 0.  1.
        -12    1    3    3    0    0 -0.52514325104E+01 -0.40467693928E+01 -0.26858128435E+01  0.71531445225E+01  0.00000000000E+00 0.  1.
</event>
<event>
 7    1  0.8697654E-014  0.5052886E+02  0.7816164E-02  0.1300439E+00
        -11   -1    0    0    0    0  0.00000000000E+00  0.00000000000E+00  0.45593999997E+02  0.45594000000E+02  0.51100000000E-03 0. -1.
         11   -1    0    0    0    0 -0.00000000000E+00 -0.00000000000E+00 -0.45593999997E+02  0.45594000000E+02  0.51100000000E-03 0.  1.
    9900012    2    1    2    0    0 -0.32484909009E+02 -0.18272172172E+02  0.16248821933E+02  0.50528858304E+02  0.29999995302E+02 0.  0.
        -12    1    1    2    0    0  0.32484909009E+02  0.18272172172E+02 -0.16248821933E+02  0.40659141696E+02  0.00000000000E+00 0.  1.
         11    1    3    3    0    0  0.31998767207E+01 -0.20780720998E+01  0.15848068514E+01  0.41314897673E+01  0.51100000000E-03 0. -1.
        -11    1    3    3    0    0 -0.16896518421E+02 -0.14080580327E+01 -0.22598054132E+01  0.17105019232E+02  0.51100000000E-03 0.  1.
         12    1    3    3    0    0 -0.18788267309E+02 -0.14786042040E+02  0.16923820494E+02  0.29292349305E+02  0.00000000000E+00 0. -1.
</event>
<event>
 7    1  0.8697654E-014  0.5052886E+02  0.7816164E-02  0.1300439E+00
        -11   -1    0    0    0    0  0.00000000000E+00  0.00000000000E+00  0.45593999997E+02  0.45594000000E+02  0.51100000000E-03 0. -1.
         11   -1    0    0    0    0 -0.00000000000E+00 -0.00000000000E+00 -0.45593999997E+02  0.45594000000E+02  0.51100000000E-03 0.  1.
    9900012    2    1    2    0    0 -0.11251387877E+02 -0.33523702937E+02  0.20068213214E+02  0.50528861182E+02  0.30000004050E+02 0.  0.
        -12    1    1    2    0    0  0.11251387877E+02  0.33523702937E+02 -0.20068213214E+02  0.40659138818E+02  0.00000000000E+00 0.  1.
         11    1    3    3    0    0 -0.56013060140E+01 -0.16483873440E+02  0.10277122479E+02  0.20216625816E+02  0.51100000000E-03 0. -1.
        -11    1    3    3    0    0  0.71309247852E+01 -0.10423777426E+02  0.96923491717E+01  0.15920014348E+02  0.51100000000E-03 0.  1.
         12    1    3    3    0    0 -0.12781006648E+02 -0.66160520710E+01  0.98741563525E-01  0.14392221019E+02  0.00000000000E+00 0. -1.
</event>
<event>
 7    1  0.8697654E-014  0.5052886E+02  0.7816164E-02  0.1300439E+00
        -11   -1    0    0    0    0  0.00000000000E+00  0.00000000000E+00  0.45593999997E+02  0.45594000000E+02  0.51100000000E-03 0. -1.
         11   -1    0    0    0    0 -0.00000000000E+00 -0.00000000000E+00 -0.45593999997E+02  0.45594000000E+02  0.51100000000E-03 0.  1.
    9900012    2    1    2    0    0 -0.22824836127E+02 -0.27696409522E+02 -0.19107633152E+02  0.50528857249E+02  0.29999992093E+02 0.  0.
         12    1    1    2    0    0  0.22824836127E+02  0.27696409522E+02  0.19107633152E+02  0.40659142751E+02  0.00000000000E+00 0. -1.
         11    1    3    3    0    0 -0.73142677181E+01 -0.46977268755E+01 -0.82160273894E+01  0.11961197949E+02  0.51100000000E-03 0.  1.
        -11    1    3    3    0    0 -0.11536190990E+02 -0.17522881544E+01 -0.12240020865E+02  0.16910716347E+02  0.51100000000E-03 0. -1.
        -12    1    3    3    0    0 -0.39743774189E+01 -0.21246394492E+02  0.13484151023E+01  0.21656942953E+02  0.00000000000E+00 0.  1.
</event>
<event>
 7    1  0.8697654E-014  0.5052882E+02  0.7816164E-02  0.1300439E+00
        -11   -1    0    0    0    0  0.00000000000E+00  0.00000000000E+00  0.45593999997E+02  0.45594000000E+02  0.51100000000E-03 0. -1.
         11   -1    0    0    0    0 -0.00000000000E+00 -0.00000000000E+00 -0.45593999997E+02  0.45594000000E+02  0.51100000000E-03 0.  1.
    9900012    2    1    2    0    0 -0.19285973385E+01  0.20538802842E+02  0.35037222069E+02  0.50528820961E+02  0.29999881791E+02 0.  0.
        -12    1    1    2    0    0  0.19285973385E+01 -0.20538802842E+02 -0.35037222069E+02  0.40659179039E+02  0.00000000000E+00 0.  1.
         11    1    3    3    0    0 -0.67106597949E+01  0.69684081719E+01  0.26046077811E+02  0.27784705090E+02  0.51100000000E-03 0. -1.
        -11    1    3    3    0    0  0.27746013448E+00  0.10790127992E+02  0.12406367553E+02  0.16444506753E+02  0.51100000000E-03 0.  1.
        -12    1    3    3    0    0  0.45046023218E+01  0.27802666778E+01 -0.34152232957E+01  0.62996091178E+01  0.00000000000E+00 0.  1.
</event>
<event>
 7    1  0.8697654E-014  0.5052886E+02  0.7816164E-02  0.1300439E+00
        -11   -1    0    0    0    0  0.00000000000E+00  0.00000000000E+00  0.45593999997E+02  0.45594000000E+02  0.51100000000E-03 0. -1.
         11   -1    0    0    0    0 -0.00000000000E+00 -0.00000000000E+00 -0.45593999997E+02  0.45594000000E+02  0.51100000000E-03 0.  1.
    9900012    2    1    2    0    0  0.46795819500E+01  0.29832408463E+02  0.27226728844E+02  0.50528857787E+02  0.29999993730E+02 0.  0.
        -12    1    1    2    0    0 -0.46795819500E+01 -0.29832408463E+02 -0.27226728844E+02  0.40659142213E+02  0.00000000000E+00 0.  1.
         11    1    3    3    0    0  0.37582396969E+01  0.10986761967E+02  0.95650600466E+01  0.15044057900E+02  0.51100000000E-03 0. -1.
        -11    1    3    3    0    0 -0.64017141928E+00  0.18677231767E+02  0.96359308090E+00  0.18713025351E+02  0.51100000000E-03 0.  1.
         12    1    3    3    0    0  0.15615136724E+01  0.16841473018E+00  0.16698075716E+02  0.16771774536E+02  0.00000000000E+00 0. -1.
</event>
<event>
 7    1  0.8697654E-014  0.5052886E+02  0.7816164E-02  0.1300439E+00
        -11   -1    0    0    0    0  0.00000000000E+00  0.00000000000E+00  0.45593999997E+02  0.45594000000E+02  0.51100000000E-03 0. -1.
         11   -1    0    0    0    0 -0.00000000000E+00 -0.00000000000E+00 -0.45593999997E+02  0.45594000000E+02  0.51100000000E-03 0.  1.
    9900012    2    1    2    0    0 -0.74035787042E+01 -0.11263469460E+02  0.38359968619E+02  0.50528856941E+02  0.29999991156E+02 0.  0.
        -12    1    1    2    0    0  0.74035787042E+01  0.11263469460E+02 -0.38359968619E+02  0.40659143059E+02  0.00000000000E+00 0.  1.
         11    1    3    3    0    0 -0.54941791341E+01 -0.11583459247E+02  0.20554240152E+02  0.24224766686E+02  0.51100000000E-03 0. -1.
        -11    1    3    3    0    0 -0.10082195930E+01  0.57493864030E+00  0.21987811969E+02  0.22018422665E+02  0.51100000000E-03 0.  1.
        -12    1    3    3    0    0 -0.90117997716E+00 -0.25494885257E+00 -0.41820835026E+01  0.42856675899E+01  0.00000000000E+00 0.  1.
</event>
<event>
 7    1  0.8697654E-014  0.5052885E+02  0.7816164E-02  0.1300439E+00
        -11   -1    0    0    0    0  0.00000000000E+00  0.00000000000E+00  0.45593999997E+02  0.45594000000E+02  0.51100000000E-03 0.  1.
         11   -1    0    0    0    0 -0.00000000000E+00 -0.00000000000E+00 -0.45593999997E+02  0.45594000000E+02  0.51100000000E-03 0. -1.
    9900012    2    1    2    0    0 -0.84983073849E+01 -0.37934020621E+02 -0.11914493837E+02  0.50528852047E+02  0.29999976282E+02 0.  0.
         12    1    1    2    0    0  0.84983073849E+01  0.37934020621E+02  0.11914493837E+02  0.40659147953E+02  0.00000000000E+00 0. -1.
         11    1    3    3    0    0  0.28423642148E+01 -0.28349858424E+02 -0.28682476433E+01  0.28635997482E+02  0.51100000000E-03 0.  1.
        -11    1    3    3    0    0 -0.55116030409E+01 -0.85886609571E+01  0.98067731633E+00  0.10252053130E+02  0.51100000000E-03 0. -1.
         12    1    3    3    0    0 -0.58290685588E+01 -0.99550123991E+00 -0.10026923510E+02  0.11640801435E+02  0.00000000000E+00 0. -1.
</event>
<event>
 7    1  0.8697654E-014  0.5052886E+02  0.7816164E-02  0.1300439E+00
        -11   -1    0    0    0    0  0.00000000000E+00  0.00000000000E+00  0.45593999997E+02  0.45594000000E+02  0.51100000000E-03 0. -1.
         11   -1    0    0    0    0 -0.00000000000E+00 -0.00000000000E+00 -0.45593999997E+02  0.45594000000E+02  0.51100000000E-03 0.  1.
    9900012    2    1    2    0    0  0.11960069491E+02 -0.85589126043E+01  0.37906034347E+02  0.50528859734E+02  0.29999999649E+02 0.  0.
        -12    1    1    2    0    0 -0.11960069491E+02  0.85589126043E+01 -0.37906034347E+02  0.40659140266E+02  0.00000000000E+00 0.  1.
         11    1    3    3    0    0  0.44603415193E+01 -0.90713344426E+01  0.55041832702E+01  0.11509986480E+02  0.51100000000E-03 0. -1.
        -11    1    3    3    0    0  0.11087255431E+02 -0.71075753259E+01  0.21925902470E+02  0.25577139390E+02  0.51100000000E-03 0.  1.
        -12    1    3    3    0    0 -0.35875274591E+01  0.76199971642E+01  0.10475948608E+02  0.13441733864E+02  0.00000000000E+00 0.  1.
</event>
<event>
 7    1  0.8697654E-014  0.5052886E+02  0.7816164E-02  0.1300439E+00
        -11   -1    0    0    0    0  0.00000000000E+00  0.00000000000E+00  0.45593999997E+02  0.45594000000E+02  0.51100000000E-03 0.  1.
         11   -1    0    0    0    0 -0.00000000000E+00 -0.00000000000E+00 -0.45593999997E+02  0.45594000000E+02  0.51100000000E-03 0. -1.
    9900012    2    1    2    0    0 -0.20438223324E+02  0.35116525273E+02  0.15081598498E+01  0.50528857535E+02  0.29999992962E+02 0.  0.
        -12    1    1    2    0    0  0.20438223324E+02 -0.35116525273E+02 -0.15081598498E+01  0.40659142465E+02  0.00000000000E+00 0.  1.
         11    1    3    3    0    0 -0.87347623119E+01  0.11302280276E+02 -0.11232571424E+02  0.18171633750E+02  0.51100000000E-03 0. -1.
        -11    1    3    3    0    0 -0.75769697745E+01  0.30747001017E+01  0.11933256822E+01  0.82636721936E+01  0.51100000000E-03 0.  1.
        -12    1    3    3    0    0 -0.41264912378E+01  0.20739544895E+02  0.11547405591E+02  0.24093551591E+02  0.00000000000E+00 0.  1.
</event>
<event>
 7    1  0.8697654E-014  0.5052886E+02  0.7816164E-02  0.1300439E+00
        -11   -1    0    0    0    0  0.00000000000E+00  0.00000000000E+00  0.45593999997E+02  0.45594000000E+02  0.51100000000E-03 0. -1.
         11   -1    0    0    0    0 -0.00000000000E+00 -0.00000000000E+00 -0.45593999997E+02  0.45594000000E+02  0.51100000000E-03 0.  1.
    9900012    2    1    2    0    0 -0.68506741728E+01 -0.16561955719E+02 -0.36495691191E+02  0.50528860936E+02  0.30000003302E+02 0.  0.
         12    1    1    2    0    0  0.68506741728E+01  0.16561955719E+02  0.36495691191E+02  0.40659139064E+02  0.00000000000E+00 0. -1.
         11    1    3    3    0    0  0.22416472231E+01 -0.15822445260E+02 -0.23783850946E+02  0.28653905883E+02  0.51100000000E-03 0. -1.
        -11    1    3    3    0    0  0.41080064960E+01  0.14113554732E+01 -0.40627448729E+01  0.59475657043E+01  0.51100000000E-03 0.  1.
        -12    1    3    3    0    0 -0.13200327892E+02 -0.21508659327E+01 -0.86490953726E+01  0.15927389349E+02  0.00000000000E+00 0.  1.
</event>
<event>
 7    1  0.8697654E-014  0.5052886E+02  0.7816164E-02  0.1300439E+00
        -11   -1    0    0    0    0  0.00000000000E+00  0.00000000000E+00  0.45593999997E+02  0.45594000000E+02  0.51100000000E-03 0. -1.
         11   -1    0    0    0    0 -0.00000000000E+00 -0.00000000000E+00 -0.45593999997E+02  0.45594000000E+02  0.51100000000E-03 0.  1.
    9900012    2    1    2    0    0  0.31776770678E+02  0.91613579921E+01  0.23653160784E+02  0.50528860190E+02  0.30000001035E+02 0.  0.
        -12    1    1    2    0    0 -0.31776770678E+02 -0.91613579921E+01 -0.23653160784E+02  0.40659139810E+02  0.00000000000E+00 0.  1.
         11    1    3    3    0    0  0.13746845329E+02  0.88477375007E+01  0.99858056977E+01  0.19156579316E+02  0.51100000000E-03 0. -1.
        -11    1    3    3    0    0  0.79037720690E+01 -0.26392566645E+01  0.18103730438E+02  0.19929383951E+02  0.51100000000E-03 0.  1.
         12    1    3    3    0    0  0.10126153280E+02  0.29528771558E+01 -0.44363753512E+01  0.11442896923E+02  0.00000000000E+00 0. -1.
</event>
<event>
 7    1  0.8697654E-014  0.5052886E+02  0.7816164E-02  0.1300439E+00
        -11   -1    0    0    0    0  0.00000000000E+00  0.00000000000E+00  0.45593999997E+02  0.45594000000E+02  0.51100000000E-03 0. -1.
         11   -1    0    0    0    0 -0.00000000000E+00 -0.00000000000E+00 -0.45593999997E+02  0.45594000000E+02  0.51100000000E-03 0.  1.
    9900012    2    1    2    0    0  0.18480814014E+02  0.32831134500E+02 -0.15288620424E+02  0.50528858425E+02  0.29999995668E+02 0.  0.
         12    1    1    2    0    0 -0.18480814014E+02 -0.32831134500E+02  0.15288620424E+02  0.40659141575E+02  0.00000000000E+00 0. -1.
         11    1    3    3    0    0  0.16636625421E+01  0.13450300449E+02  0.55562468502E+01  0.14647533394E+02  0.51100000000E-03 0. -1.
        -11    1    3    3    0    0  0.46643675715E+01 -0.13900996701E+01 -0.17897762958E+01  0.51857498382E+01  0.51100000000E-03 0.  1.
         12    1    3    3    0    0  0.12152783900E+02  0.20770933721E+02 -0.19055090979E+02  0.30695575192E+02  0.00000000000E+00 0. -1.
</event>
<event>
 7    1  0.8697654E-014  0.5052888E+02  0.7816164E-02  0.1300439E+00
        -11   -1    0    0    0    0  0.00000000000E+00  0.00000000000E+00  0.45593999997E+02  0.45594000000E+02  0.51100000000E-03 0. -1.
         11   -1    0    0    0    0 -0.00000000000E+00 -0.00000000000E+00 -0.45593999997E+02  0.45594000000E+02  0.51100000000E-03 0.  1.
    9900012    2    1    2    0    0 -0.13364090240E+02  0.33126098893E+02  0.19422322805E+02  0.50528880987E+02  0.30000064247E+02 0.  0.
        -12    1    1    2    0    0  0.13364090240E+02 -0.33126098893E+02 -0.19422322805E+02  0.40659119013E+02  0.00000000000E+00 0.  1.
         11    1    3    3    0    0 -0.66707275740E+01 -0.28537496517E+01  0.12078753445E+01  0.73553692327E+01  0.51100000000E-03 0. -1.
        -11    1    3    3    0    0  0.23044801103E+01  0.68595737596E+01 -0.75209741511E+00  0.72753028476E+01  0.51100000000E-03 0.  1.
         12    1    3    3    0    0 -0.89978427767E+01  0.29120274785E+02  0.18966544876E+02  0.35898208906E+02  0.00000000000E+00 0. -1.
</event>
<event>
 7    1  0.8697654E-014  0.5052886E+02  0.7816164E-02  0.1300439E+00
        -11   -1    0    0    0    0  0.00000000000E+00  0.00000000000E+00  0.45593999997E+02  0.45594000000E+02  0.51100000000E-03 0. -1.
         11   -1    0    0    0    0 -0.00000000000E+00 -0.00000000000E+00 -0.45593999997E+02  0.45594000000E+02  0.51100000000E-03 0.  1.
    9900012    2    1    2    0    0 -0.20464177109E+02  0.26772741097E+02  0.22750894494E+02  0.50528863131E+02  0.30000009974E+02 0.  0.
        -12    1    1    2    0    0  0.20464177109E+02 -0.26772741097E+02 -0.22750894494E+02  0.40659136869E+02  0.00000000000E+00 0.  1.
         11    1    3    3    0    0 -0.10302973644E+02  0.13291986355E+02  0.11854300315E+02  0.20575534097E+02  0.51100000000E-03 0. -1.
        -11    1    3    3    0    0 -0.15144153520E+02  0.21549106548E+01  0.41027382877E+01  0.15837344710E+02  0.51100000000E-03 0.  1.
         12    1    3    3    0    0  0.49829500551E+01  0.11325844088E+02  0.67938558922E+01  0.14115984324E+02  0.00000000000E+00 0. -1.
</event>
<event>
 7    1  0.8697654E-014  0.5052886E+02  0.7816164E-02  0.1300439E+00
        -11   -1    0    0    0    0  0.00000000000E+00  0.00000000000E+00  0.45593999997E+02  0.45594000000E+02  0.51100000000E-03 0.  1.
         11   -1    0    0    0    0 -0.00000000000E+00 -0.00000000000E+00 -0.45593999997E+02  0.45594000000E+02  0.51100000000E-03 0. -1.
    9900012    2    1    2    0    0 -0.28770852475E+02  0.14894115578E+02  0.24567641132E+02  0.50528860538E+02  0.30000002092E+02 0.  0.
        -12    1    1    2    0    0  0.28770852475E+02 -0.14894115578E+02 -0.24567641132E+02  0.40659139462E+02  0.00000000000E+00 0.  1.
         11    1    3    3    0    0 -0.88151792195E+01  0.38958839692E+01 -0.65040065731E+00  0.96596230698E+01  0.51100000000E-03 0. -1.
        -11    1    3    3    0    0 -0.18219106430E+02  0.17081698341E+02  0.15899286004E+02  0.29605870246E+02  0.51100000000E-03 0.  1.
        -12    1    3    3    0    0 -0.17365668252E+01 -0.60834667316E+01  0.93187557850E+01  0.11263367223E+02  0.00000000000E+00 0.  1.
</event>
<event>
 7    1  0.8697654E-014  0.5052887E+02  0.7816164E-02  0.1300439E+00
        -11   -1    0    0    0    0  0.00000000000E+00  0.00000000000E+00  0.45593999997E+02  0.45594000000E+02  0.51100000000E-03 0.  1.
         11   -1    0    0    0    0 -0.00000000000E+00 -0.00000000000E+00 -0.45593999997E+02  0.45594000000E+02  0.51100000000E-03 0. -1.
    9900012    2    1    2    0    0 -0.32361190110E+02  0.24528514827E+02 -0.20664435528E+01  0.50528869981E+02  0.30000030794E+02 0.  0.
        -12    1    1    2    0    0  0.32361190110E+02 -0.24528514827E+02  0.20664435528E+01  0.40659130019E+02  0.00000000000E+00 0.  1.
         11    1    3    3    0    0 -0.74860968477E+01  0.17594177164E+02  0.96810000157E+01  0.21431716628E+02  0.51100000000E-03 0.  1.
        -11    1    3    3    0    0 -0.15422356737E+02  0.64427964780E+01 -0.49096539432E+01  0.17420201373E+02  0.51100000000E-03 0. -1.
        -12    1    3    3    0    0 -0.94527365256E+01  0.49154118501E+00 -0.68377896254E+01  0.11676951979E+02  0.00000000000E+00 0.  1.
</event>
<event>
 7    1  0.8697654E-014  0.5052886E+02  0.7816164E-02  0.1300439E+00
        -11   -1    0    0    0    0  0.00000000000E+00  0.00000000000E+00  0.45593999997E+02  0.45594000000E+02  0.51100000000E-03 0. -1.
         11   -1    0    0    0    0 -0.00000000000E+00 -0.00000000000E+00 -0.45593999997E+02  0.45594000000E+02  0.51100000000E-03 0.  1.
    9900012    2    1    2    0    0 -0.17876746440E+02  0.22825015029E+02  0.28506248652E+02  0.50528860971E+02  0.30000003407E+02 0.  0.
        -12    1    1    2    0    0  0.17876746440E+02 -0.22825015029E+02 -0.28506248652E+02  0.40659139029E+02  0.00000000000E+00 0.  1.
         11    1    3    3    0    0 -0.12930038542E+02  0.17338089093E+01  0.24745878992E+02  0.27974104407E+02  0.51100000000E-03 0. -1.
        -11    1    3    3    0    0  0.22976671585E+00  0.95530419824E+01  0.97432092804E+00  0.96053477497E+01  0.51100000000E-03 0.  1.
        -12    1    3    3    0    0 -0.51764746133E+01  0.11538164138E+02  0.27860487322E+01  0.12949408814E+02  0.00000000000E+00 0.  1.
</event>
<event>
 7    1  0.8697654E-014  0.5052887E+02  0.7816164E-02  0.1300439E+00
        -11   -1    0    0    0    0  0.00000000000E+00  0.00000000000E+00  0.45593999997E+02  0.45594000000E+02  0.51100000000E-03 0. -1.
         11   -1    0    0    0    0 -0.00000000000E+00 -0.00000000000E+00 -0.45593999997E+02  0.45594000000E+02  0.51100000000E-03 0.  1.
    9900012    2    1    2    0    0  0.33682258781E+01 -0.14226899772E+02 -0.37939629464E+02  0.50528866874E+02  0.30000021351E+02 0.  0.
         12    1    1    2    0    0 -0.33682258781E+01  0.14226899772E+02  0.37939629464E+02  0.40659133126E+02  0.00000000000E+00 0. -1.
         11    1    3    3    0    0  0.24300425835E+01  0.37486901480E+01 -0.48843328223E+01  0.66192516317E+01  0.51100000000E-03 0. -1.
        -11    1    3    3    0    0  0.11593182967E+02 -0.11631014073E+02 -0.17200171752E+02  0.23780838678E+02  0.51100000000E-03 0.  1.
        -12    1    3    3    0    0 -0.10654999673E+02 -0.63445758472E+01 -0.15855124890E+02  0.20128776564E+02  0.00000000000E+00 0.  1.
</event>
<event>
 7    1  0.8697654E-014  0.5052887E+02  0.7816164E-02  0.1300439E+00
        -11   -1    0    0    0    0  0.00000000000E+00  0.00000000000E+00  0.45593999997E+02  0.45594000000E+02  0.51100000000E-03 0. -1.
         11   -1    0    0    0    0 -0.00000000000E+00 -0.00000000000E+00 -0.45593999997E+02  0.45594000000E+02  0.51100000000E-03 0.  1.
    9900012    2    1    2    0    0 -0.18255314159E+02 -0.72286385234E+01 -0.35604147780E+02  0.50528867581E+02  0.30000023498E+02 0.  0.
         12    1    1    2    0    0  0.18255314159E+02  0.72286385234E+01  0.35604147780E+02  0.40659132419E+02  0.00000000000E+00 0. -1.
         11    1    3    3    0    0  0.68246704601E+00  0.20370113787E+01 -0.85870679090E+00  0.23135587824E+01  0.51100000000E-03 0. -1.
        -11    1    3    3    0    0 -0.12205985965E+02  0.42124832665E+00 -0.34301172596E+02  0.36410630113E+02  0.51100000000E-03 0.  1.
         12    1    3    3    0    0 -0.67317952402E+01 -0.96868982287E+01 -0.44426839334E+00  0.11804678685E+02  0.00000000000E+00 0. -1.
</event>
<event>
 7    1  0.8697654E-014  0.5052885E+02  0.7816164E-02  0.1300439E+00
        -11   -1    0    0    0    0  0.00000000000E+00  0.00000000000E+00  0.45593999997E+02  0.45594000000E+02  0.51100000000E-03 0. -1.
         11   -1    0    0    0    0 -0.00000000000E+00 -0.00000000000E+00 -0.45593999997E+02  0.45594000000E+02  0.51100000000E-03 0.  1.
    9900012    2    1    2    0    0  0.12403995319E+02  0.17021781979E+02 -0.34778822214E+02  0.50528848064E+02  0.29999964175E+02 0.  0.
         12    1    1    2    0    0 -0.12403995319E+02 -0.17021781979E+02  0.34778822214E+02  0.40659151936E+02  0.00000000000E+00 0. -1.
         11    1    3    3    0    0  0.22792960410E+01 -0.23864507187E+01 -0.83719481485E-01  0.33011129469E+01  0.51100000000E-03 0. -1.
        -11    1    3    3    0    0 -0.32005741396E+01  0.16000161957E+02 -0.26777752946E+02  0.31357565444E+02  0.51100000000E-03 0.  1.
         12    1    3    3    0    0  0.13325273417E+02  0.34080707404E+01 -0.79173497864E+01  0.15870169673E+02  0.00000000000E+00 0. -1.
</event>
<event>
 7    1  0.8697654E-014  0.5052886E+02  0.7816164E-02  0.1300439E+00
        -11   -1    0    0    0    0  0.00000000000E+00  0.00000000000E+00  0.45593999997E+02  0.45594000000E+02  0.51100000000E-03 0. -1.
         11   -1    0    0    0    0 -0.00000000000E+00 -0.00000000000E+00 -0.45593999997E+02  0.45594000000E+02  0.51100000000E-03 0.  1.
    9900012    2    1    2    0    0 -0.27959513536E+02 -0.18186195442E+02  0.23252819181E+02  0.50528859555E+02  0.29999999103E+02 0.  0.
        -12    1    1    2    0    0  0.27959513536E+02  0.18186195442E+02 -0.23252819181E+02  0.40659140445E+02  0.00000000000E+00 0.  1.
         11    1    3    3    0    0  0.10841429229E+01  0.30916498756E+01  0.64832328087E+01  0.72640190489E+01  0.51100000000E-03 0. -1.
        -11    1    3    3    0    0 -0.17358791244E+02 -0.56257303801E+01  0.15056060917E+02  0.23657164800E+02  0.51100000000E-03 0.  1.
        -12    1    3    3    0    0 -0.11684865215E+02 -0.15652114938E+02  0.17135254556E+01  0.19607675706E+02  0.00000000000E+00 0.  1.
</event>
<event>
 7    1  0.8697654E-014  0.5052887E+02  0.7816164E-02  0.1300439E+00
        -11   -1    0    0    0    0  0.00000000000E+00  0.00000000000E+00  0.45593999997E+02  0.45594000000E+02  0.51100000000E-03 0. -1.
         11   -1    0    0    0    0 -0.00000000000E+00 -0.00000000000E+00 -0.45593999997E+02  0.45594000000E+02  0.51100000000E-03 0.  1.
    9900012    2    1    2    0    0 -0.13344695186E+02 -0.37281140087E+02  0.92304220575E+01  0.50528868342E+02  0.30000025812E+02 0.  0.
        -12    1    1    2    0    0  0.13344695186E+02  0.37281140087E+02 -0.92304220575E+01  0.40659131658E+02  0.00000000000E+00 0.  1.
         11    1    3    3    0    0 -0.12302456415E+02 -0.22165289856E+02 -0.16831793167E+01  0.25406369302E+02  0.51100000000E-03 0. -1.
        -11    1    3    3    0    0 -0.87321347702E+01 -0.92976322500E+01  0.44303582890E+01  0.13502748532E+02  0.51100000000E-03 0.  1.
         12    1    3    3    0    0  0.76898959991E+01 -0.58182179813E+01  0.64832430851E+01  0.11619750507E+02  0.00000000000E+00 0. -1.
</event>
<event>
 7    1  0.8697654E-014  0.5052887E+02  0.7816164E-02  0.1300439E+00
        -11   -1    0    0    0    0  0.00000000000E+00  0.00000000000E+00  0.45593999997E+02  0.45594000000E+02  0.51100000000E-03 0. -1.
         11   -1    0    0    0    0 -0.00000000000E+00 -0.00000000000E+00 -0.45593999997E+02  0.45594000000E+02  0.51100000000E-03 0.  1.
    9900012    2    1    2    0    0 -0.31591434620E+02  0.24229692813E+02  0.82503608145E+01  0.50528865618E+02  0.30000017532E+02 0.  0.
        -12    1    1    2    0    0  0.31591434620E+02 -0.24229692813E+02 -0.82503608145E+01  0.40659134382E+02  0.00000000000E+00 0.  1.
         11    1    3    3    0    0  0.56342339375E+00 -0.40701204536E+01  0.32760257584E+01  0.52550615085E+01  0.51100000000E-03 0.  1.
        -11    1    3    3    0    0 -0.80791033932E+01  0.14757905933E+02 -0.15343721699E+01  0.16894436877E+02  0.51100000000E-03 0. -1.
        -12    1    3    3    0    0 -0.24075754620E+02  0.13541907333E+02  0.65087072260E+01  0.28379367232E+02  0.00000000000E+00 0.  1.
</event>
<event>
 7    1  0.8697654E-014  0.5052893E+02  0.7816164E-02  0.1300439E+00
        -11   -1    0    0    0    0  0.00000000000E+00  0.00000000000E+00  0.45593999997E+02  0.45594000000E+02  0.51100000000E-03 0. -1.
         11   -1    0    0    0    0 -0.00000000000E+00 -0.00000000000E+00 -0.45593999997E+02  0.45594000000E+02  0.51100000000E-03 0.  1.
    9900012    2    1    2    0    0  0.24869405484E+02  0.72235279766E+01 -0.31344750560E+02  0.50528928771E+02  0.30000209491E+02 0.  0.
         12    1    1    2    0    0 -0.24869405484E+02 -0.72235279766E+01  0.31344750560E+02  0.40659071229E+02  0.00000000000E+00 0. -1.
         11    1    3    3    0    0  0.16453361308E+02  0.85982619663E+01 -0.70739571462E+01  0.19866657422E+02  0.51100000000E-03 0. -1.
        -11    1    3    3    0    0  0.14015902528E+00 -0.74362647978E+01 -0.54265976800E+01  0.92068258014E+01  0.51100000000E-03 0.  1.
         12    1    3    3    0    0  0.82758851514E+01  0.60615308081E+01 -0.18844195734E+02  0.21455445547E+02  0.00000000000E+00 0. -1.
</event>
<event>
 7    1  0.8697654E-014  0.5052886E+02  0.7816164E-02  0.1300439E+00
        -11   -1    0    0    0    0  0.00000000000E+00  0.00000000000E+00  0.45593999997E+02  0.45594000000E+02  0.51100000000E-03 0. -1.
         11   -1    0    0    0    0 -0.00000000000E+00 -0.00000000000E+00 -0.45593999997E+02  0.45594000000E+02  0.51100000000E-03 0.  1.
    9900012    2    1    2    0    0  0.91900008839E+01 -0.28330870892E+02 -0.27677995263E+02  0.50528858550E+02  0.29999996047E+02 0.  0.
         12    1    1    2    0    0 -0.91900008839E+01  0.28330870892E+02  0.27677995263E+02  0.40659141450E+02  0.00000000000E+00 0. -1.
         11    1    3    3    0    0  0.56013985044E+01 -0.14111892062E+02  0.30524935896E+00  0.15185991578E+02  0.51100000000E-03 0. -1.
        -11    1    3    3    0    0  0.35789884862E+01 -0.78027976235E+01 -0.23238303700E+01  0.88934243792E+01  0.51100000000E-03 0.  1.
        -12    1    3    3    0    0  0.96138932408E-02 -0.64161812058E+01 -0.25659414252E+02  0.26449442592E+02  0.00000000000E+00 0.  1.
</event>
<event>
 7    1  0.8697654E-014  0.5052886E+02  0.7816164E-02  0.1300439E+00
        -11   -1    0    0    0    0  0.00000000000E+00  0.00000000000E+00  0.45593999997E+02  0.45594000000E+02  0.51100000000E-03 0. -1.
         11   -1    0    0    0    0 -0.00000000000E+00 -0.00000000000E+00 -0.45593999997E+02  0.45594000000E+02  0.51100000000E-03 0.  1.
    9900012    2    1    2    0    0 -0.13633865868E+02  0.35440614094E+01  0.38140825994E+02  0.50528864775E+02  0.30000014969E+02 0.  0.
        -12    1    1    2    0    0  0.13633865868E+02 -0.35440614094E+01 -0.38140825994E+02  0.40659135225E+02  0.00000000000E+00 0.  1.
         11    1    3    3    0    0  0.55216907073E+01 -0.96156834467E+00  0.12292178939E+00  0.56061387760E+01  0.51100000000E-03 0. -1.
        -11    1    3    3    0    0 -0.48954420467E+01 -0.91724319281E+00  0.12793285016E+01  0.51423116965E+01  0.51100000000E-03 0.  1.
         12    1    3    3    0    0 -0.14260114528E+02  0.54228729469E+01  0.36738575703E+02  0.39780414302E+02  0.00000000000E+00 0. -1.
</event>
<event>
 7    1  0.8697654E-014  0.5052891E+02  0.7816164E-02  0.1300439E+00
        -11   -1    0    0    0    0  0.00000000000E+00  0.00000000000E+00  0.45593999997E+02  0.45594000000E+02  0.51100000000E-03 0. -1.
         11   -1    0    0    0    0 -0.00000000000E+00 -0.00000000000E+00 -0.45593999997E+02  0.45594000000E+02  0.51100000000E-03 0.  1.
    9900012    2    1    2    0    0 -0.29312355397E+02  0.98533751797E+01  0.26398077273E+02  0.50528909196E+02  0.30000149992E+02 0.  0.
        -12    1    1    2    0    0  0.29312355397E+02 -0.98533751797E+01 -0.26398077273E+02  0.40659090804E+02  0.00000000000E+00 0.  1.
         11    1    3    3    0    0 -0.13404501417E+01  0.63693693632E+01  0.47912306604E+01  0.80821757076E+01  0.51100000000E-03 0. -1.
        -11    1    3    3    0    0 -0.31509247222E+01 -0.56589778872E+01 -0.22193011411E+01  0.68467258707E+01  0.51100000000E-03 0.  1.
        -12    1    3    3    0    0 -0.24820980533E+02  0.91429837037E+01  0.23826147753E+02  0.35600007618E+02  0.00000000000E+00 0.  1.
</event>
<event>
 7    1  0.8697654E-014  0.5052886E+02  0.7816164E-02  0.1300439E+00
        -11   -1    0    0    0    0  0.00000000000E+00  0.00000000000E+00  0.45593999997E+02  0.45594000000E+02  0.51100000000E-03 0. -1.
         11   -1    0    0    0    0 -0.00000000000E+00 -0.00000000000E+00 -0.45593999997E+02  0.45594000000E+02  0.51100000000E-03 0.  1.
    9900012    2    1    2    0    0 -0.37988459190E+02 -0.67684730572E+01 -0.12815250048E+02  0.50528857204E+02  0.29999991957E+02 0.  0.
         12    1    1    2    0    0  0.37988459190E+02  0.67684730572E+01  0.12815250048E+02  0.40659142796E+02  0.00000000000E+00 0. -1.
         11    1    3    3    0    0 -0.16929757060E+02  0.28493051136E+00  0.11762085159E+00  0.16932563138E+02  0.51100000000E-03 0. -1.
        -11    1    3    3    0    0 -0.21668020123E+02 -0.49951184091E+01 -0.18563378496E+01  0.22313679536E+02  0.51100000000E-03 0.  1.
         12    1    3    3    0    0  0.60931799350E+00 -0.20582851595E+01 -0.11076533050E+02  0.11282614529E+02  0.00000000000E+00 0. -1.
</event>
<event>
 7    1  0.9548603E-014  0.5052886E+02  0.7816164E-02  0.1300439E+00
        -11   -1    0    0    0    0  0.00000000000E+00  0.00000000000E+00  0.45593999997E+02  0.45594000000E+02  0.51100000000E-03 0.  1.
         11   -1    0    0    0    0 -0.00000000000E+00 -0.00000000000E+00 -0.45593999997E+02  0.45594000000E+02  0.51100000000E-03 0. -1.
    9900012    2    1    2    0    0  0.90116758879E+01 -0.31873663047E+02 -0.23580181037E+02  0.50528860362E+02  0.30000001557E+02 0.  0.
         12    1    1    2    0    0 -0.90116758879E+01  0.31873663047E+02  0.23580181037E+02  0.40659139638E+02  0.00000000000E+00 0. -1.
         11    1    3    3    0    0 -0.35969600242E+01 -0.12827248571E+02 -0.19292887776E+02  0.23445510153E+02  0.51100000000E-03 0. -1.
        -11    1    3    3    0    0  0.45688991573E+00 -0.12162103992E+02 -0.48602822622E+01  0.13105260998E+02  0.51100000000E-03 0.  1.
         12    1    3    3    0    0  0.12151745996E+02 -0.68843104848E+01  0.57298900185E+00  0.13978089212E+02  0.00000000000E+00 0. -1.
</event>
<event>
 7    1  0.8697654E-014  0.5052886E+02  0.7816164E-02  0.1300439E+00
        -11   -1    0    0    0    0  0.00000000000E+00  0.00000000000E+00  0.45593999997E+02  0.45594000000E+02  0.51100000000E-03 0. -1.
         11   -1    0    0    0    0 -0.00000000000E+00 -0.00000000000E+00 -0.45593999997E+02  0.45594000000E+02  0.51100000000E-03 0.  1.
    9900012    2    1    2    0    0 -0.12986432747E+02 -0.22805780001E+02 -0.31055021308E+02  0.50528863445E+02  0.30000010929E+02 0.  0.
         12    1    1    2    0    0  0.12986432747E+02  0.22805780001E+02  0.31055021308E+02  0.40659136555E+02  0.00000000000E+00 0. -1.
         11    1    3    3    0    0  0.17476203146E+01 -0.72100135514E+01 -0.16087084745E+02  0.17715325795E+02  0.51100000000E-03 0.  1.
        -11    1    3    3    0    0  0.39272981033E+01 -0.78350703338E+01 -0.26993967120E+01  0.91705365382E+01  0.51100000000E-03 0. -1.
        -12    1    3    3    0    0 -0.18661351165E+02 -0.77606961156E+01 -0.12268539850E+02  0.23643001112E+02  0.00000000000E+00 0.  1.
</event>
<event>
 7    1  0.8697654E-014  0.5052880E+02  0.7816164E-02  0.1300439E+00
        -11   -1    0    0    0    0  0.00000000000E+00  0.00000000000E+00  0.45593999997E+02  0.45594000000E+02  0.51100000000E-03 0.  1.
         11   -1    0    0    0    0 -0.00000000000E+00 -0.00000000000E+00 -0.45593999997E+02  0.45594000000E+02  0.51100000000E-03 0. -1.
    9900012    2    1    2    0    0  0.88892677138E+01  0.36333720273E+02 -0.15937768801E+02  0.50528797060E+02  0.29999809143E+02 0.  0.
         12    1    1    2    0    0 -0.88892677138E+01 -0.36333720273E+02  0.15937768801E+02  0.40659202940E+02  0.00000000000E+00 0. -1.
         11    1    3    3    0    0  0.16394299919E+02  0.10008877193E+02 -0.54438687250E+01  0.19964628708E+02  0.51100000000E-03 0. -1.
        -11    1    3    3    0    0  0.14442594403E+00  0.12939069049E+02 -0.24326433578E+01  0.13166553105E+02  0.51100000000E-03 0.  1.
        -12    1    3    3    0    0 -0.76494581493E+01  0.13385774032E+02 -0.80612567182E+01  0.17397615247E+02  0.00000000000E+00 0.  1.
</event>
<event>
 7    1  0.8697654E-014  0.5052886E+02  0.7816164E-02  0.1300439E+00
        -11   -1    0    0    0    0  0.00000000000E+00  0.00000000000E+00  0.45593999997E+02  0.45594000000E+02  0.51100000000E-03 0.  1.
         11   -1    0    0    0    0 -0.00000000000E+00 -0.00000000000E+00 -0.45593999997E+02  0.45594000000E+02  0.51100000000E-03 0. -1.
    9900012    2    1    2    0    0  0.32462615655E+01  0.39150559780E+02  0.10481450978E+02  0.50528863759E+02  0.30000011883E+02 0.  0.
        -12    1    1    2    0    0 -0.32462615655E+01 -0.39150559780E+02 -0.10481450978E+02  0.40659136241E+02  0.00000000000E+00 0.  1.
         11    1    3    3    0    0 -0.39757257584E+01  0.18692952956E+02  0.12997564757E+01  0.19155214764E+02  0.51100000000E-03 0. -1.
        -11    1    3    3    0    0 -0.38582492469E+01  0.60890411310E+00 -0.35851679764E+01  0.53019129708E+01  0.51100000000E-03 0.  1.
        -12    1    3    3    0    0  0.11080236571E+02  0.19848702711E+02  0.12766862478E+02  0.26071736024E+02  0.00000000000E+00 0.  1.
</event>
<event>
 7    1  0.8697654E-014  0.5052887E+02  0.7816164E-02  0.1300439E+00
        -11   -1    0    0    0    0  0.00000000000E+00  0.00000000000E+00  0.45593999997E+02  0.45594000000E+02  0.51100000000E-03 0. -1.
         11   -1    0    0    0    0 -0.00000000000E+00 -0.00000000000E+00 -0.45593999997E+02  0.45594000000E+02  0.51100000000E-03 0.  1.
    9900012    2    1    2    0    0  0.52935732222E+01  0.39300204858E+02  0.89798068680E+01  0.50528868791E+02  0.30000027176E+02 0.  0.
        -12    1    1    2    0    0 -0.52935732222E+01 -0.39300204858E+02 -0.89798068680E+01  0.40659131209E+02  0.00000000000E+00 0.  1.
         11    1    3    3    0    0 -0.51892707747E+01  0.45396713621E+00  0.10454713766E+01  0.53129679083E+01  0.51100000000E-03 0. -1.
        -11    1    3    3    0    0  0.99114546446E+00  0.11224499836E+01 -0.42070275907E+01  0.44655732787E+01  0.51100000000E-03 0.  1.
         12    1    3    3    0    0  0.94916985324E+01  0.37723787738E+02  0.12141363082E+02  0.40750327604E+02  0.00000000000E+00 0. -1.
</event>
<event>
 7    1  0.8697654E-014  0.5052891E+02  0.7816164E-02  0.1300439E+00
        -11   -1    0    0    0    0  0.00000000000E+00  0.00000000000E+00  0.45593999997E+02  0.45594000000E+02  0.51100000000E-03 0. -1.
         11   -1    0    0    0    0 -0.00000000000E+00 -0.00000000000E+00 -0.45593999997E+02  0.45594000000E+02  0.51100000000E-03 0.  1.
    9900012    2    1    2    0    0 -0.17553453230E+02 -0.17787698065E+02 -0.32072354493E+02  0.50528906977E+02  0.30000143247E+02 0.  0.
         12    1    1    2    0    0  0.17553453230E+02  0.17787698065E+02  0.32072354493E+02  0.40659093023E+02  0.00000000000E+00 0. -1.
         11    1    3    3    0    0 -0.12186639173E+01 -0.23795612730E+01 -0.14853082499E+02  0.15091769730E+02  0.51100000000E-03 0. -1.
        -11    1    3    3    0    0 -0.14659810081E+02 -0.14394566134E+01 -0.15299357736E+02  0.21237994593E+02  0.51100000000E-03 0.  1.
        -12    1    3    3    0    0 -0.16749792316E+01 -0.13968680178E+02 -0.19199142581E+01  0.14199142654E+02  0.00000000000E+00 0.  1.
</event>
<event>
 7    1  0.8697654E-014  0.5052883E+02  0.7816164E-02  0.1300439E+00
        -11   -1    0    0    0    0  0.00000000000E+00  0.00000000000E+00  0.45593999997E+02  0.45594000000E+02  0.51100000000E-03 0. -1.
         11   -1    0    0    0    0 -0.00000000000E+00 -0.00000000000E+00 -0.45593999997E+02  0.45594000000E+02  0.51100000000E-03 0.  1.
    9900012    2    1    2    0    0 -0.53558856062E+01  0.17808009588E+02 -0.36157397838E+02  0.50528829638E+02  0.29999908169E+02 0.  0.
         12    1    1    2    0    0  0.53558856062E+01 -0.17808009588E+02  0.36157397838E+02  0.40659170362E+02  0.00000000000E+00 0. -1.
         11    1    3    3    0    0 -0.10448956000E+02 -0.19548719678E+01 -0.22132838151E+02  0.24553303867E+02  0.51100000000E-03 0. -1.
        -11    1    3    3    0    0 -0.18998900330E+01  0.66642360856E+01 -0.55547629924E+01  0.88812733831E+01  0.51100000000E-03 0.  1.
         12    1    3    3    0    0  0.69929604270E+01  0.13098645470E+02 -0.84697966944E+01  0.17094252389E+02  0.00000000000E+00 0. -1.
</event>
<event>
 7    1  0.8697654E-014  0.5052886E+02  0.7816164E-02  0.1300439E+00
        -11   -1    0    0    0    0  0.00000000000E+00  0.00000000000E+00  0.45593999997E+02  0.45594000000E+02  0.51100000000E-03 0. -1.
         11   -1    0    0    0    0 -0.00000000000E+00 -0.00000000000E+00 -0.45593999997E+02  0.45594000000E+02  0.51100000000E-03 0.  1.
    9900012    2    1    2    0    0  0.16914120991E+00  0.34080775620E+02 -0.22172908671E+02  0.50528858906E+02  0.29999997129E+02 0.  0.
         12    1    1    2    0    0 -0.16914120991E+00 -0.34080775620E+02  0.22172908671E+02  0.40659141094E+02  0.00000000000E+00 0. -1.
         11    1    3    3    0    0 -0.22053113223E+00  0.90973072904E+00 -0.14835662205E+02  0.14865164557E+02  0.51100000000E-03 0. -1.
        -11    1    3    3    0    0  0.53839207211E+01  0.13557716518E+02 -0.19307960107E+01  0.14714831056E+02  0.51100000000E-03 0.  1.
        -12    1    3    3    0    0 -0.49942483789E+01  0.19613328373E+02 -0.54064504555E+01  0.20948863293E+02  0.00000000000E+00 0.  1.
</event>
<event>
 7    1  0.8697654E-014  0.5052886E+02  0.7816164E-02  0.1300439E+00
        -11   -1    0    0    0    0  0.00000000000E+00  0.00000000000E+00  0.45593999997E+02  0.45594000000E+02  0.51100000000E-03 0. -1.
         11   -1    0    0    0    0 -0.00000000000E+00 -0.00000000000E+00 -0.45593999997E+02  0.45594000000E+02  0.51100000000E-03 0.  1.
    9900012    2    1    2    0    0 -0.92409766158E+01 -0.25046139773E+01  0.39515777970E+02  0.50528862668E+02  0.30000008565E+02 0.  0.
        -12    1    1    2    0    0  0.92409766158E+01  0.25046139773E+01 -0.39515777970E+02  0.40659137332E+02  0.00000000000E+00 0.  1.
         11    1    3    3    0    0 -0.42814330204E+01  0.34441967122E+01  0.26533263629E+02  0.27096258760E+02  0.51100000000E-03 0. -1.
        -11    1    3    3    0    0 -0.71482185602E+01 -0.80709976350E+01  0.15901514748E+02  0.19211876612E+02  0.51100000000E-03 0.  1.
        -12    1    3    3    0    0  0.21886749649E+01  0.21221869455E+01 -0.29190004069E+01  0.42207272962E+01  0.00000000000E+00 0.  1.
</event>
<event>
 7    1  0.8697654E-014  0.5052886E+02  0.7816164E-02  0.1300439E+00
        -11   -1    0    0    0    0  0.00000000000E+00  0.00000000000E+00  0.45593999997E+02  0.45594000000E+02  0.51100000000E-03 0. -1.
         11   -1    0    0    0    0 -0.00000000000E+00 -0.00000000000E+00 -0.45593999997E+02  0.45594000000E+02  0.51100000000E-03 0.  1.
    9900012    2    1    2    0    0 -0.80166600330E+01 -0.30800232708E+02 -0.25303049567E+02  0.50528862155E+02  0.30000007006E+02 0.  0.
         12    1    1    2    0    0  0.80166600330E+01  0.30800232708E+02  0.25303049567E+02  0.40659137845E+02  0.00000000000E+00 0. -1.
         11    1    3    3    0    0  0.54949659264E+01 -0.96285901166E+01 -0.64369427060E+01  0.12819462931E+02  0.51100000000E-03 0. -1.
        -11    1    3    3    0    0  0.12530943817E+01 -0.21260554407E+01  0.38624857086E+01  0.45835743015E+01  0.51100000000E-03 0.  1.
        -12    1    3    3    0    0 -0.14764720341E+02 -0.19045587150E+02 -0.22728592569E+02  0.33125824923E+02  0.00000000000E+00 0.  1.
</event>
<event>
 7    1  0.8697654E-014  0.5052886E+02  0.7816164E-02  0.1300439E+00
        -11   -1    0    0    0    0  0.00000000000E+00  0.00000000000E+00  0.45593999997E+02  0.45594000000E+02  0.51100000000E-03 0. -1.
         11   -1    0    0    0    0 -0.00000000000E+00 -0.00000000000E+00 -0.45593999997E+02  0.45594000000E+02  0.51100000000E-03 0.  1.
    9900012    2    1    2    0    0 -0.34031903227E+02  0.99219850266E+01  0.19913558884E+02  0.50528855253E+02  0.29999986028E+02 0.  0.
        -12    1    1    2    0    0  0.34031903227E+02 -0.99219850266E+01 -0.19913558884E+02  0.40659144747E+02  0.00000000000E+00 0.  1.
         11    1    3    3    0    0 -0.32242674011E+02  0.58667269926E+01  0.23643332943E+02  0.40410589032E+02  0.51100000000E-03 0. -1.
        -11    1    3    3    0    0  0.11728679952E+01  0.30958991144E+01  0.18028641514E+01  0.37696856726E+01  0.51100000000E-03 0.  1.
        -12    1    3    3    0    0 -0.29620972109E+01  0.95935891949E+00 -0.55326382101E+01  0.63485805490E+01  0.00000000000E+00 0.  1.
</event>
<event>
 7    1  0.8697654E-014  0.5052885E+02  0.7816164E-02  0.1300439E+00
        -11   -1    0    0    0    0  0.00000000000E+00  0.00000000000E+00  0.45593999997E+02  0.45594000000E+02  0.51100000000E-03 0. -1.
         11   -1    0    0    0    0 -0.00000000000E+00 -0.00000000000E+00 -0.45593999997E+02  0.45594000000E+02  0.51100000000E-03 0.  1.
    9900012    2    1    2    0    0 -0.98073730629E+01 -0.12514259700E+02  0.37421582190E+02  0.50528854954E+02  0.29999985119E+02 0.  0.
        -12    1    1    2    0    0  0.98073730629E+01  0.12514259700E+02 -0.37421582190E+02  0.40659145046E+02  0.00000000000E+00 0.  1.
         11    1    3    3    0    0  0.34395823329E+01 -0.79887608778E+01  0.18302031034E+01  0.88882321441E+01  0.51100000000E-03 0.  1.
        -11    1    3    3    0    0 -0.57883681276E+01 -0.10545551023E+02  0.19775918851E+02  0.23147371743E+02  0.51100000000E-03 0. -1.
         12    1    3    3    0    0 -0.74585872682E+01  0.60200522011E+01  0.15815460236E+02  0.18493251067E+02  0.00000000000E+00 0. -1.
</event>
<event>
 7    1  0.8697654E-014  0.5052873E+02  0.7816164E-02  0.1300439E+00
        -11   -1    0    0    0    0  0.00000000000E+00  0.00000000000E+00  0.45593999997E+02  0.45594000000E+02  0.51100000000E-03 0. -1.
         11   -1    0    0    0    0 -0.00000000000E+00 -0.00000000000E+00 -0.45593999997E+02  0.45594000000E+02  0.51100000000E-03 0.  1.
    9900012    2    1    2    0    0  0.16785772185E+02  0.17450539865E+02 -0.32663319658E+02  0.50528733645E+02  0.29999616386E+02 0.  0.
         12    1    1    2    0    0 -0.16785772185E+02 -0.17450539865E+02  0.32663319658E+02  0.40659266355E+02  0.00000000000E+00 0. -1.
         11    1    3    3    0    0  0.10483678117E+02  0.36600879390E+01 -0.33016595491E+01  0.11584675508E+02  0.51100000000E-03 0. -1.
        -11    1    3    3    0    0  0.10676197444E+01  0.87551291647E+01 -0.12725564116E+00  0.88209009102E+01  0.51100000000E-03 0.  1.
        -12    1    3    3    0    0  0.52344743231E+01  0.50353227616E+01 -0.29234404467E+02  0.30123157227E+02  0.00000000000E+00 0.  1.
</event>
<event>
 7    1  0.8697654E-014  0.5052885E+02  0.7816164E-02  0.1300439E+00
        -11   -1    0    0    0    0  0.00000000000E+00  0.00000000000E+00  0.45593999997E+02  0.45594000000E+02  0.51100000000E-03 0.  1.
         11   -1    0    0    0    0 -0.00000000000E+00 -0.00000000000E+00 -0.45593999997E+02  0.45594000000E+02  0.51100000000E-03 0. -1.
    9900012    2    1    2    0    0 -0.11315574819E+02 -0.21921356469E+02  0.32319938346E+02  0.50528849522E+02  0.29999968607E+02 0.  0.
        -12    1    1    2    0    0  0.11315574819E+02  0.21921356469E+02 -0.32319938346E+02  0.40659150478E+02  0.00000000000E+00 0.  1.
         11    1    3    3    0    0 -0.75220246860E+01  0.18020837932E+00  0.11449584964E+02  0.13700595847E+02  0.51100000000E-03 0. -1.
        -11    1    3    3    0    0 -0.11868181592E+02 -0.15714317355E+02  0.10955102633E+02  0.22534590704E+02  0.51100000000E-03 0.  1.
        -12    1    3    3    0    0  0.80746314588E+01 -0.63872474930E+01  0.99152507482E+01  0.14293662971E+02  0.00000000000E+00 0.  1.
</event>
<event>
 7    1  0.8697654E-014  0.5052886E+02  0.7816164E-02  0.1300439E+00
        -11   -1    0    0    0    0  0.00000000000E+00  0.00000000000E+00  0.45593999997E+02  0.45594000000E+02  0.51100000000E-03 0. -1.
         11   -1    0    0    0    0 -0.00000000000E+00 -0.00000000000E+00 -0.45593999997E+02  0.45594000000E+02  0.51100000000E-03 0.  1.
    9900012    2    1    2    0    0  0.12247860283E+02 -0.12510682392E+02  0.36696577246E+02  0.50528855432E+02  0.29999986570E+02 0.  0.
        -12    1    1    2    0    0 -0.12247860283E+02  0.12510682392E+02 -0.36696577246E+02  0.40659144568E+02  0.00000000000E+00 0.  1.
         11    1    3    3    0    0  0.10104760948E+02 -0.16886696185E+02  0.29664525857E+02  0.35598466209E+02  0.51100000000E-03 0. -1.
        -11    1    3    3    0    0 -0.39646422038E+01  0.29718831367E+01  0.71059954091E+01  0.86628891369E+01  0.51100000000E-03 0.  1.
        -12    1    3    3    0    0  0.61077415388E+01  0.14041306562E+01 -0.73944019472E-01  0.62675000856E+01  0.00000000000E+00 0.  1.
</event>
<event>
 7    1  0.8697654E-014  0.5052886E+02  0.7816164E-02  0.1300439E+00
        -11   -1    0    0    0    0  0.00000000000E+00  0.00000000000E+00  0.45593999997E+02  0.45594000000E+02  0.51100000000E-03 0. -1.
         11   -1    0    0    0    0 -0.00000000000E+00 -0.00000000000E+00 -0.45593999997E+02  0.45594000000E+02  0.51100000000E-03 0.  1.
    9900012    2    1    2    0    0  0.92382303892E+01  0.26391454533E+02  0.29517992747E+02  0.50528859959E+02  0.30000000330E+02 0.  0.
        -12    1    1    2    0    0 -0.92382303892E+01 -0.26391454533E+02 -0.29517992747E+02  0.40659140041E+02  0.00000000000E+00 0.  1.
         11    1    3    3    0    0  0.10136542733E+02  0.10087174977E+02  0.66561976756E+01  0.15773571737E+02  0.51100000000E-03 0. -1.
        -11    1    3    3    0    0 -0.64155019565E+01  0.48185244876E+01 -0.61123574234E+00  0.80467666168E+01  0.51100000000E-03 0.  1.
         12    1    3    3    0    0  0.55171896129E+01  0.11485755068E+02  0.23473030814E+02  0.26708521605E+02  0.00000000000E+00 0. -1.
</event>
<event>
 7    1  0.8697654E-014  0.5052885E+02  0.7816164E-02  0.1300439E+00
        -11   -1    0    0    0    0  0.00000000000E+00  0.00000000000E+00  0.45593999997E+02  0.45594000000E+02  0.51100000000E-03 0. -1.
         11   -1    0    0    0    0 -0.00000000000E+00 -0.00000000000E+00 -0.45593999997E+02  0.45594000000E+02  0.51100000000E-03 0.  1.
    9900012    2    1    2    0    0  0.12430807952E+02  0.21599706064E+02 -0.32126222540E+02  0.50528850192E+02  0.29999970645E+02 0.  0.
         12    1    1    2    0    0 -0.12430807952E+02 -0.21599706064E+02  0.32126222540E+02  0.40659149808E+02  0.00000000000E+00 0. -1.
         11    1    3    3    0    0  0.48783987685E+01  0.17396680390E+01 -0.23423650425E+02  0.23989427232E+02  0.51100000000E-03 0. -1.
        -11    1    3    3    0    0 -0.34210113074E+01  0.48637686479E+01 -0.45787892537E+01  0.75049900144E+01  0.51100000000E-03 0.  1.
        -12    1    3    3    0    0  0.10973420491E+02  0.14996269377E+02 -0.41237828617E+01  0.19034432946E+02  0.00000000000E+00 0.  1.
</event>
<event>
 7    1  0.8697654E-014  0.5052886E+02  0.7816164E-02  0.1300439E+00
        -11   -1    0    0    0    0  0.00000000000E+00  0.00000000000E+00  0.45593999997E+02  0.45594000000E+02  0.51100000000E-03 0.  1.
         11   -1    0    0    0    0 -0.00000000000E+00 -0.00000000000E+00 -0.45593999997E+02  0.45594000000E+02  0.51100000000E-03 0. -1.
    9900012    2    1    2    0    0 -0.52899181834E+01 -0.37017722392E+02 -0.15964660235E+02  0.50528863489E+02  0.30000011060E+02 0.  0.
         12    1    1    2    0    0  0.52899181834E+01  0.37017722392E+02  0.15964660235E+02  0.40659136511E+02  0.00000000000E+00 0. -1.
         11    1    3    3    0    0  0.13358801712E+01  0.28224833166E+01 -0.15778422650E+00  0.31266410135E+01  0.51100000000E-03 0. -1.
        -11    1    3    3    0    0 -0.21592235018E+01 -0.11635642464E+02  0.41752207789E+01  0.12549218720E+02  0.51100000000E-03 0.  1.
        -12    1    3    3    0    0 -0.44665748529E+01 -0.28204563244E+02 -0.19982096787E+02  0.34853003755E+02  0.00000000000E+00 0.  1.
</event>
<event>
 7    1  0.8697654E-014  0.5052887E+02  0.7816164E-02  0.1300439E+00
        -11   -1    0    0    0    0  0.00000000000E+00  0.00000000000E+00  0.45593999997E+02  0.45594000000E+02  0.51100000000E-03 0. -1.
         11   -1    0    0    0    0 -0.00000000000E+00 -0.00000000000E+00 -0.45593999997E+02  0.45594000000E+02  0.51100000000E-03 0.  1.
    9900012    2    1    2    0    0 -0.14903653158E+02 -0.29736497469E+02 -0.23383472527E+02  0.50528868841E+02  0.30000027330E+02 0.  0.
         12    1    1    2    0    0  0.14903653158E+02  0.29736497469E+02  0.23383472527E+02  0.40659131159E+02  0.00000000000E+00 0. -1.
         11    1    3    3    0    0  0.86601147352E+01 -0.54532948872E+01 -0.74512029506E+01  0.12659243185E+02  0.51100000000E-03 0. -1.
        -11    1    3    3    0    0 -0.35234386842E+01 -0.72194111807E+01 -0.38403566203E+01  0.89040921598E+01  0.51100000000E-03 0.  1.
         12    1    3    3    0    0 -0.20040329209E+02 -0.17063791401E+02 -0.12091912956E+02  0.28965533496E+02  0.00000000000E+00 0. -1.
</event>
<event>
 7    1  0.8697654E-014  0.5052886E+02  0.7816164E-02  0.1300439E+00
        -11   -1    0    0    0    0  0.00000000000E+00  0.00000000000E+00  0.45593999997E+02  0.45594000000E+02  0.51100000000E-03 0.  1.
         11   -1    0    0    0    0 -0.00000000000E+00 -0.00000000000E+00 -0.45593999997E+02  0.45594000000E+02  0.51100000000E-03 0. -1.
    9900012    2    1    2    0    0 -0.14136512330E+02  0.28663628085E+02  0.25134064799E+02  0.50528858726E+02  0.29999996582E+02 0.  0.
        -12    1    1    2    0    0  0.14136512330E+02 -0.28663628085E+02 -0.25134064799E+02  0.40659141274E+02  0.00000000000E+00 0.  1.
         11    1    3    3    0    0 -0.50203097813E+01  0.15019468790E+02  0.15324855397E+02  0.22037221835E+02  0.51100000000E-03 0.  1.
        -11    1    3    3    0    0 -0.51378257228E+01  0.17737964403E+02  0.12378138283E+02  0.22231755260E+02  0.51100000000E-03 0. -1.
        -12    1    3    3    0    0 -0.39783768255E+01 -0.40938051085E+01 -0.25689288802E+01  0.62598816302E+01  0.00000000000E+00 0.  1.
</event>
<event>
 7    1  0.8697654E-014  0.5052886E+02  0.7816164E-02  0.1300439E+00
        -11   -1    0    0    0    0  0.00000000000E+00  0.00000000000E+00  0.45593999997E+02  0.45594000000E+02  0.51100000000E-03 0. -1.
         11   -1    0    0    0    0 -0.00000000000E+00 -0.00000000000E+00 -0.45593999997E+02  0.45594000000E+02  0.51100000000E-03 0.  1.
    9900012    2    1    2    0    0 -0.18561554809E+02 -0.32965273870E+02 -0.14897156643E+02  0.50528857433E+02  0.29999992654E+02 0.  0.
         12    1    1    2    0    0  0.18561554809E+02  0.32965273870E+02  0.14897156643E+02  0.40659142567E+02  0.00000000000E+00 0. -1.
         11    1    3    3    0    0  0.47825935066E+01  0.12331752812E+01  0.15904556096E+00  0.49415804835E+01  0.51100000000E-03 0. -1.
        -11    1    3    3    0    0 -0.46127886534E+01 -0.15896308065E+02 -0.32843369493E+01  0.16874753294E+02  0.51100000000E-03 0.  1.
        -12    1    3    3    0    0 -0.18731359662E+02 -0.18302141086E+02 -0.11771865254E+02  0.28712523656E+02  0.00000000000E+00 0.  1.
</event>
<event>
 7    1  0.8697654E-014  0.5052887E+02  0.7816164E-02  0.1300439E+00
        -11   -1    0    0    0    0  0.00000000000E+00  0.00000000000E+00  0.45593999997E+02  0.45594000000E+02  0.51100000000E-03 0. -1.
         11   -1    0    0    0    0 -0.00000000000E+00 -0.00000000000E+00 -0.45593999997E+02  0.45594000000E+02  0.51100000000E-03 0.  1.
    9900012    2    1    2    0    0 -0.22167226116E+02 -0.61264706177E+01 -0.33529764672E+02  0.50528872183E+02  0.30000037487E+02 0.  0.
         12    1    1    2    0    0  0.22167226116E+02  0.61264706177E+01  0.33529764672E+02  0.40659127817E+02  0.00000000000E+00 0. -1.
         11    1    3    3    0    0 -0.11999390870E+01 -0.42353780566E+00 -0.17725063329E+02  0.17770681145E+02  0.51100000000E-03 0. -1.
        -11    1    3    3    0    0  0.44887654565E+00 -0.49219311908E+01 -0.90098160414E+01  0.10276365221E+02  0.51100000000E-03 0.  1.
         12    1    3    3    0    0 -0.21416163575E+02 -0.78100162125E+00 -0.67948853015E+01  0.22481825817E+02  0.00000000000E+00 0. -1.
</event>
<event>
 7    1  0.8697654E-014  0.5052886E+02  0.7816164E-02  0.1300439E+00
        -11   -1    0    0    0    0  0.00000000000E+00  0.00000000000E+00  0.45593999997E+02  0.45594000000E+02  0.51100000000E-03 0. -1.
         11   -1    0    0    0    0 -0.00000000000E+00 -0.00000000000E+00 -0.45593999997E+02  0.45594000000E+02  0.51100000000E-03 0.  1.
    9900012    2    1    2    0    0 -0.28966570380E+02 -0.19473190028E+02 -0.20854211954E+02  0.50528862212E+02  0.30000007180E+02 0.  0.
         12    1    1    2    0    0  0.28966570380E+02  0.19473190028E+02  0.20854211954E+02  0.40659137788E+02  0.00000000000E+00 0. -1.
         11    1    3    3    0    0 -0.84668289912E+01 -0.16815884907E+01 -0.25122074862E+01  0.89903347954E+01  0.51100000000E-03 0. -1.
        -11    1    3    3    0    0 -0.49436629695E+01  0.15208907100E+01 -0.15782366401E+02  0.16608311220E+02  0.51100000000E-03 0.  1.
        -12    1    3    3    0    0 -0.15556078419E+02 -0.19312492247E+02 -0.25596380669E+01  0.24930216197E+02  0.00000000000E+00 0.  1.
</event>
<event>
 7    1  0.8697654E-014  0.5052884E+02  0.7816164E-02  0.1300439E+00
        -11   -1    0    0    0    0  0.00000000000E+00  0.00000000000E+00  0.45593999997E+02  0.45594000000E+02  0.51100000000E-03 0. -1.
         11   -1    0    0    0    0 -0.00000000000E+00 -0.00000000000E+00 -0.45593999997E+02  0.45594000000E+02  0.51100000000E-03 0.  1.
    9900012    2    1    2    0    0 -0.17275348535E+01 -0.47662716610E+01 -0.40341855650E+02  0.50528843104E+02  0.29999949099E+02 0.  0.
         12    1    1    2    0    0  0.17275348535E+01  0.47662716610E+01  0.40341855650E+02  0.40659156896E+02  0.00000000000E+00 0. -1.
         11    1    3    3    0    0  0.29260040911E+01  0.98397369046E+01 -0.14788809886E+02  0.18002522612E+02  0.51100000000E-03 0. -1.
        -11    1    3    3    0    0 -0.81542555416E+01 -0.50703252284E+01 -0.15510689704E+02  0.18242301848E+02  0.51100000000E-03 0.  1.
        -12    1    3    3    0    0  0.35007165970E+01 -0.95356833371E+01 -0.10042356060E+02  0.14284018645E+02  0.00000000000E+00 0.  1.
</event>
<event>
 7    1  0.8697654E-014  0.5052886E+02  0.7816164E-02  0.1300439E+00
        -11   -1    0    0    0    0  0.00000000000E+00  0.00000000000E+00  0.45593999997E+02  0.45594000000E+02  0.51100000000E-03 0. -1.
         11   -1    0    0    0    0 -0.00000000000E+00 -0.00000000000E+00 -0.45593999997E+02  0.45594000000E+02  0.51100000000E-03 0.  1.
    9900012    2    1    2    0    0  0.29404181741E+02  0.24196266144E+02 -0.14251328898E+02  0.50528861119E+02  0.30000003857E+02 0.  0.
         12    1    1    2    0    0 -0.29404181741E+02 -0.24196266144E+02  0.14251328898E+02  0.40659138881E+02  0.00000000000E+00 0. -1.
         11    1    3    3    0    0  0.16143257070E+02  0.63067802250E+01 -0.49474755157E+01  0.18023810360E+02  0.51100000000E-03 0. -1.
        -11    1    3    3    0    0  0.98729329477E+01  0.65589526411E+01 -0.15212368386E+02  0.19284989419E+02  0.51100000000E-03 0.  1.
         12    1    3    3    0    0  0.33879917236E+01  0.11330533278E+02  0.59085150036E+01  0.13220061340E+02  0.00000000000E+00 0. -1.
</event>
<event>
 7    1  0.8697654E-014  0.5052886E+02  0.7816164E-02  0.1300439E+00
        -11   -1    0    0    0    0  0.00000000000E+00  0.00000000000E+00  0.45593999997E+02  0.45594000000E+02  0.51100000000E-03 0. -1.
         11   -1    0    0    0    0 -0.00000000000E+00 -0.00000000000E+00 -0.45593999997E+02  0.45594000000E+02  0.51100000000E-03 0.  1.
    9900012    2    1    2    0    0  0.43638496503E+01 -0.57991039999E+01 -0.40006163136E+02  0.50528857364E+02  0.29999992445E+02 0.  0.
         12    1    1    2    0    0 -0.43638496503E+01  0.57991039999E+01  0.40006163136E+02  0.40659142636E+02  0.00000000000E+00 0. -1.
         11    1    3    3    0    0  0.20818598276E+01 -0.35521669874E+01 -0.31140868844E+02  0.31411872648E+02  0.51100000000E-03 0.  1.
        -11    1    3    3    0    0  0.72715833204E+01  0.43873225864E+01 -0.57231005066E+01  0.10241015728E+02  0.51100000000E-03 0. -1.
        -12    1    3    3    0    0 -0.49895934977E+01 -0.66342595988E+01 -0.31421937858E+01  0.88759689885E+01  0.00000000000E+00 0.  1.
</event>
<event>
 7    1  0.8697654E-014  0.5052885E+02  0.7816164E-02  0.1300439E+00
        -11   -1    0    0    0    0  0.00000000000E+00  0.00000000000E+00  0.45593999997E+02  0.45594000000E+02  0.51100000000E-03 0. -1.
         11   -1    0    0    0    0 -0.00000000000E+00 -0.00000000000E+00 -0.45593999997E+02  0.45594000000E+02  0.51100000000E-03 0.  1.
    9900012    2    1    2    0    0  0.21990591445E+02 -0.54259559249E+01 -0.33765944279E+02  0.50528854622E+02  0.29999984111E+02 0.  0.
         12    1    1    2    0    0 -0.21990591445E+02  0.54259559249E+01  0.33765944279E+02  0.40659145378E+02  0.00000000000E+00 0. -1.
         11    1    3    3    0    0 -0.23138333505E+01 -0.11508422313E+01 -0.35009100167E+01  0.43513944686E+01  0.51100000000E-03 0. -1.
        -11    1    3    3    0    0  0.18093779652E+01 -0.11114028634E+02 -0.11506699228E+02  0.16099677278E+02  0.51100000000E-03 0.  1.
        -12    1    3    3    0    0  0.22495046830E+02  0.68389149400E+01 -0.18758335034E+02  0.30077782876E+02  0.00000000000E+00 0.  1.
</event>
<event>
 7    1  0.8697654E-014  0.5052886E+02  0.7816164E-02  0.1300439E+00
        -11   -1    0    0    0    0  0.00000000000E+00  0.00000000000E+00  0.45593999997E+02  0.45594000000E+02  0.51100000000E-03 0. -1.
         11   -1    0    0    0    0 -0.00000000000E+00 -0.00000000000E+00 -0.45593999997E+02  0.45594000000E+02  0.51100000000E-03 0.  1.
    9900012    2    1    2    0    0  0.35231499038E+01  0.33322506781E+02 -0.23029627387E+02  0.50528858580E+02  0.29999996140E+02 0.  0.
         12    1    1    2    0    0 -0.35231499038E+01 -0.33322506781E+02  0.23029627387E+02  0.40659141420E+02  0.00000000000E+00 0. -1.
         11    1    3    3    0    0  0.23215853241E+01  0.74742531423E+01 -0.91072426119E+01  0.12008167500E+02  0.51100000000E-03 0. -1.
        -11    1    3    3    0    0 -0.28721727099E+01  0.17731977526E+02 -0.20538024604E+02  0.27285213174E+02  0.51100000000E-03 0.  1.
         12    1    3    3    0    0  0.40737372896E+01  0.81162761126E+01  0.66156398288E+01  0.11235477906E+02  0.00000000000E+00 0. -1.
</event>
<event>
 7    1  0.8697654E-014  0.5052877E+02  0.7816164E-02  0.1300439E+00
        -11   -1    0    0    0    0  0.00000000000E+00  0.00000000000E+00  0.45593999997E+02  0.45594000000E+02  0.51100000000E-03 0.  1.
         11   -1    0    0    0    0 -0.00000000000E+00 -0.00000000000E+00 -0.45593999997E+02  0.45594000000E+02  0.51100000000E-03 0. -1.
    9900012    2    1    2    0    0 -0.40501330327E+02  0.35351405506E+01  0.56393070776E+00  0.50528769869E+02  0.29999726493E+02 0.  0.
        -12    1    1    2    0    0  0.40501330327E+02 -0.35351405506E+01 -0.56393070776E+00  0.40659230131E+02  0.00000000000E+00 0.  1.
         11    1    3    3    0    0 -0.22923871307E+02  0.36956609316E+01 -0.10566765572E+02  0.25511141102E+02  0.51100000000E-03 0. -1.
        -11    1    3    3    0    0 -0.57695527023E+01  0.66240322933E+01  0.41832548694E+01  0.97296024467E+01  0.51100000000E-03 0.  1.
        -12    1    3    3    0    0 -0.11807906319E+02 -0.67845526742E+01  0.69474414108E+01  0.15288026320E+02  0.00000000000E+00 0.  1.
</event>
<event>
 7    1  0.8697654E-014  0.5052886E+02  0.7816164E-02  0.1300439E+00
        -11   -1    0    0    0    0  0.00000000000E+00  0.00000000000E+00  0.45593999997E+02  0.45594000000E+02  0.51100000000E-03 0.  1.
         11   -1    0    0    0    0 -0.00000000000E+00 -0.00000000000E+00 -0.45593999997E+02  0.45594000000E+02  0.51100000000E-03 0. -1.
    9900012    2    1    2    0    0  0.32513602504E+00  0.40471291729E+02  0.38903291779E+01  0.50528857992E+02  0.29999994354E+02 0.  0.
        -12    1    1    2    0    0 -0.32513602504E+00 -0.40471291729E+02 -0.38903291779E+01  0.40659142008E+02  0.00000000000E+00 0.  1.
         11    1    3    3    0    0  0.82959556751E+01  0.75207535805E+01  0.41751081944E+01  0.11950570852E+02  0.51100000000E-03 0. -1.
        -11    1    3    3    0    0  0.10857864828E+01 -0.23727310027E+00  0.37777920183E+01  0.39378856770E+01  0.51100000000E-03 0.  1.
         12    1    3    3    0    0 -0.90566061329E+01  0.33187811249E+02 -0.40625710349E+01  0.34640401464E+02  0.00000000000E+00 0. -1.
</event>
<event>
 7    1  0.8697654E-014  0.5052887E+02  0.7816164E-02  0.1300439E+00
        -11   -1    0    0    0    0  0.00000000000E+00  0.00000000000E+00  0.45593999997E+02  0.45594000000E+02  0.51100000000E-03 0. -1.
         11   -1    0    0    0    0 -0.00000000000E+00 -0.00000000000E+00 -0.45593999997E+02  0.45594000000E+02  0.51100000000E-03 0.  1.
    9900012    2    1    2    0    0 -0.16691531485E+02 -0.10208625219E+02  0.35641850547E+02  0.50528871104E+02  0.30000034208E+02 0.  0.
        -12    1    1    2    0    0  0.16691531485E+02  0.10208625219E+02 -0.35641850547E+02  0.40659128896E+02  0.00000000000E+00 0.  1.
         11    1    3    3    0    0  0.35241087326E+01  0.26164923598E+01  0.26201375093E+01  0.51117996300E+01  0.51100000000E-03 0. -1.
        -11    1    3    3    0    0 -0.19008051974E+02 -0.40275474921E+01  0.12625929079E+02  0.23171993096E+02  0.51100000000E-03 0.  1.
         12    1    3    3    0    0 -0.12075882432E+01 -0.87975700864E+01  0.20395783958E+02  0.22245078378E+02  0.00000000000E+00 0. -1.
</event>
<event>
 7    1  0.8697654E-014  0.5052886E+02  0.7816164E-02  0.1300439E+00
        -11   -1    0    0    0    0  0.00000000000E+00  0.00000000000E+00  0.45593999997E+02  0.45594000000E+02  0.51100000000E-03 0. -1.
         11   -1    0    0    0    0 -0.00000000000E+00 -0.00000000000E+00 -0.45593999997E+02  0.45594000000E+02  0.51100000000E-03 0.  1.
    9900012    2    1    2    0    0 -0.14762323264E+02  0.13405631676E+02  0.35433440063E+02  0.50528858058E+02  0.29999994552E+02 0.  0.
        -12    1    1    2    0    0  0.14762323264E+02 -0.13405631676E+02 -0.35433440063E+02  0.40659141942E+02  0.00000000000E+00 0.  1.
         11    1    3    3    0    0 -0.44231710680E+01  0.10122838687E+02  0.27075137601E+02  0.29242082377E+02  0.51100000000E-03 0. -1.
        -11    1    3    3    0    0 -0.10317319200E+02 -0.20593146362E+01  0.11090210991E+02  0.15286616118E+02  0.51100000000E-03 0.  1.
        -12    1    3    3    0    0 -0.21832996022E-01  0.53421076251E+01 -0.27319085293E+01  0.60001595620E+01  0.00000000000E+00 0.  1.
</event>
<event>
 7    1  0.8697654E-014  0.5052885E+02  0.7816164E-02  0.1300439E+00
        -11   -1    0    0    0    0  0.00000000000E+00  0.00000000000E+00  0.45593999997E+02  0.45594000000E+02  0.51100000000E-03 0. -1.
         11   -1    0    0    0    0 -0.00000000000E+00 -0.00000000000E+00 -0.45593999997E+02  0.45594000000E+02  0.51100000000E-03 0.  1.
    9900012    2    1    2    0    0 -0.30697877474E+02  0.26310708894E+02 -0.43073493148E+01  0.50528851681E+02  0.29999975170E+02 0.  0.
        -12    1    1    2    0    0  0.30697877474E+02 -0.26310708894E+02  0.43073493148E+01  0.40659148319E+02  0.00000000000E+00 0.  1.
         11    1    3    3    0    0  0.29015122045E+01 -0.11848986266E+01 -0.25471475387E+01  0.40386530767E+01  0.51100000000E-03 0. -1.
        -11    1    3    3    0    0 -0.80900097975E+01  0.38918439552E+01  0.61054647037E+01  0.10856859924E+02  0.51100000000E-03 0.  1.
         12    1    3    3    0    0 -0.25509379881E+02  0.23603763565E+02 -0.78656664798E+01  0.35633338681E+02  0.00000000000E+00 0. -1.
</event>
<event>
 7    1  0.8697654E-014  0.5052886E+02  0.7816164E-02  0.1300439E+00
        -11   -1    0    0    0    0  0.00000000000E+00  0.00000000000E+00  0.45593999997E+02  0.45594000000E+02  0.51100000000E-03 0. -1.
         11   -1    0    0    0    0 -0.00000000000E+00 -0.00000000000E+00 -0.45593999997E+02  0.45594000000E+02  0.51100000000E-03 0.  1.
    9900012    2    1    2    0    0 -0.15752216489E+02 -0.64952778021E+01  0.36916728768E+02  0.50528858088E+02  0.29999994645E+02 0.  0.
        -12    1    1    2    0    0  0.15752216489E+02  0.64952778021E+01 -0.36916728768E+02  0.40659141912E+02  0.00000000000E+00 0.  1.
         11    1    3    3    0    0 -0.22615413667E+01  0.49278770315E+01  0.10643648432E+02  0.11945115888E+02  0.51100000000E-03 0. -1.
        -11    1    3    3    0    0 -0.14587053223E+02 -0.83381221883E+01  0.56861006210E+01  0.17738042279E+02  0.51100000000E-03 0.  1.
         12    1    3    3    0    0  0.10963781009E+01 -0.30850326452E+01  0.20586979716E+02  0.20845699921E+02  0.00000000000E+00 0. -1.
</event>
<event>
 7    1  0.8697654E-014  0.5052886E+02  0.7816164E-02  0.1300439E+00
        -11   -1    0    0    0    0  0.00000000000E+00  0.00000000000E+00  0.45593999997E+02  0.45594000000E+02  0.51100000000E-03 0. -1.
         11   -1    0    0    0    0 -0.00000000000E+00 -0.00000000000E+00 -0.45593999997E+02  0.45594000000E+02  0.51100000000E-03 0.  1.
    9900012    2    1    2    0    0  0.13833807176E+01 -0.22682708455E+02  0.33715673607E+02  0.50528860168E+02  0.30000000968E+02 0.  0.
        -12    1    1    2    0    0 -0.13833807176E+01  0.22682708455E+02 -0.33715673607E+02  0.40659139832E+02  0.00000000000E+00 0.  1.
         11    1    3    3    0    0 -0.33932533008E+01 -0.11586924076E+02  0.13846740447E+02  0.18371260130E+02  0.51100000000E-03 0. -1.
        -11    1    3    3    0    0  0.16648789507E+01 -0.76409364839E+01 -0.33282671341E+01  0.84990055094E+01  0.51100000000E-03 0.  1.
         12    1    3    3    0    0  0.31117550677E+01 -0.34548478949E+01  0.23197200294E+02  0.23658594529E+02  0.00000000000E+00 0. -1.
</event>
<event>
 7    1  0.8697654E-014  0.5052886E+02  0.7816164E-02  0.1300439E+00
        -11   -1    0    0    0    0  0.00000000000E+00  0.00000000000E+00  0.45593999997E+02  0.45594000000E+02  0.51100000000E-03 0. -1.
         11   -1    0    0    0    0 -0.00000000000E+00 -0.00000000000E+00 -0.45593999997E+02  0.45594000000E+02  0.51100000000E-03 0.  1.
    9900012    2    1    2    0    0 -0.23790587078E+02  0.15043686636E+02 -0.29340433335E+02  0.50528861182E+02  0.30000004049E+02 0.  0.
         12    1    1    2    0    0  0.23790587078E+02 -0.15043686636E+02  0.29340433335E+02  0.40659138818E+02  0.00000000000E+00 0. -1.
         11    1    3    3    0    0 -0.47003646654E+01  0.60241404492E+01  0.41312325619E+01  0.86862407796E+01  0.51100000000E-03 0. -1.
        -11    1    3    3    0    0 -0.11003503058E+02  0.23709099515E+01 -0.67056217560E+01  0.13102047815E+02  0.51100000000E-03 0.  1.
        -12    1    3    3    0    0 -0.80867193540E+01  0.66486362356E+01 -0.26766044141E+02  0.28740572588E+02  0.00000000000E+00 0.  1.
</event>
<event>
 7    1  0.8697654E-014  0.5052886E+02  0.7816164E-02  0.1300439E+00
        -11   -1    0    0    0    0  0.00000000000E+00  0.00000000000E+00  0.45593999997E+02  0.45594000000E+02  0.51100000000E-03 0. -1.
         11   -1    0    0    0    0 -0.00000000000E+00 -0.00000000000E+00 -0.45593999997E+02  0.45594000000E+02  0.51100000000E-03 0.  1.
    9900012    2    1    2    0    0 -0.19092794076E+01  0.50031527644E+01  0.40304942315E+02  0.50528864981E+02  0.30000015597E+02 0.  0.
        -12    1    1    2    0    0  0.19092794076E+01 -0.50031527644E+01 -0.40304942315E+02  0.40659135019E+02  0.00000000000E+00 0.  1.
         11    1    3    3    0    0 -0.27431880518E+01  0.50677402997E+01  0.52070145983E+00  0.57860351454E+01  0.51100000000E-03 0. -1.
        -11    1    3    3    0    0 -0.46092556544E+01 -0.72959073598E+01  0.82631247256E+01  0.11948001188E+02  0.51100000000E-03 0.  1.
         12    1    3    3    0    0  0.54431642987E+01  0.72313198246E+01  0.31521116130E+02  0.32794828648E+02  0.00000000000E+00 0. -1.
</event>
<event>
 7    1  0.8697654E-014  0.5052886E+02  0.7816164E-02  0.1300439E+00
        -11   -1    0    0    0    0  0.00000000000E+00  0.00000000000E+00  0.45593999997E+02  0.45594000000E+02  0.51100000000E-03 0. -1.
         11   -1    0    0    0    0 -0.00000000000E+00 -0.00000000000E+00 -0.45593999997E+02  0.45594000000E+02  0.51100000000E-03 0.  1.
    9900012    2    1    2    0    0 -0.30261112920E+02  0.12932140723E+02  0.23878663891E+02  0.50528858247E+02  0.29999995128E+02 0.  0.
        -12    1    1    2    0    0  0.30261112920E+02 -0.12932140723E+02 -0.23878663891E+02  0.40659141753E+02  0.00000000000E+00 0.  1.
         11    1    3    3    0    0 -0.24980553692E+02  0.53173342823E+01  0.78459712980E+01  0.26718184304E+02  0.51100000000E-03 0. -1.
        -11    1    3    3    0    0 -0.38982319313E+01  0.69023429352E+01  0.22872389390E+00  0.79303760987E+01  0.51100000000E-03 0.  1.
        -12    1    3    3    0    0 -0.13823272974E+01  0.71246350501E+00  0.15803968699E+02  0.15880297845E+02  0.00000000000E+00 0.  1.
</event>
<event>
 7    1  0.8697654E-014  0.5052888E+02  0.7816164E-02  0.1300439E+00
        -11   -1    0    0    0    0  0.00000000000E+00  0.00000000000E+00  0.45593999997E+02  0.45594000000E+02  0.51100000000E-03 0. -1.
         11   -1    0    0    0    0 -0.00000000000E+00 -0.00000000000E+00 -0.45593999997E+02  0.45594000000E+02  0.51100000000E-03 0.  1.
    9900012    2    1    2    0    0 -0.19370320894E+02 -0.34338577800E+02 -0.99406564379E+01  0.50528881622E+02  0.30000066178E+02 0.  0.
         12    1    1    2    0    0  0.19370320894E+02  0.34338577800E+02  0.99406564379E+01  0.40659118378E+02  0.00000000000E+00 0. -1.
         11    1    3    3    0    0 -0.11557885586E+01 -0.12852872762E+02  0.22912052250E+01  0.13106555881E+02  0.51100000000E-03 0. -1.
        -11    1    3    3    0    0 -0.80616709942E+01 -0.23603199936E+02 -0.95695049380E+01  0.26714733977E+02  0.51100000000E-03 0.  1.
         12    1    3    3    0    0 -0.10152861341E+02  0.21174948975E+01 -0.26623567249E+01  0.10707591764E+02  0.00000000000E+00 0. -1.
</event>
<event>
 7    1  0.8697654E-014  0.5052886E+02  0.7816164E-02  0.1300439E+00
        -11   -1    0    0    0    0  0.00000000000E+00  0.00000000000E+00  0.45593999997E+02  0.45594000000E+02  0.51100000000E-03 0. -1.
         11   -1    0    0    0    0 -0.00000000000E+00 -0.00000000000E+00 -0.45593999997E+02  0.45594000000E+02  0.51100000000E-03 0.  1.
    9900012    2    1    2    0    0 -0.97431738267E+01  0.20862285133E+02  0.33511205359E+02  0.50528864965E+02  0.30000015547E+02 0.  0.
        -12    1    1    2    0    0  0.97431738267E+01 -0.20862285133E+02 -0.33511205359E+02  0.40659135035E+02  0.00000000000E+00 0.  1.
         11    1    3    3    0    0  0.70281578464E+00  0.10923217023E+02  0.11722394309E+02  0.16038240201E+02  0.51100000000E-03 0. -1.
        -11    1    3    3    0    0  0.56214041370E+01 -0.14056953582E+01  0.10005377196E+02  0.11562168352E+02  0.51100000000E-03 0.  1.
         12    1    3    3    0    0 -0.16067393748E+02  0.11344763468E+02  0.11783433855E+02  0.22928456412E+02  0.00000000000E+00 0. -1.
</event>
<event>
 7    1  0.8697654E-014  0.5052884E+02  0.7816164E-02  0.1300439E+00
        -11   -1    0    0    0    0  0.00000000000E+00  0.00000000000E+00  0.45593999997E+02  0.45594000000E+02  0.51100000000E-03 0. -1.
         11   -1    0    0    0    0 -0.00000000000E+00 -0.00000000000E+00 -0.45593999997E+02  0.45594000000E+02  0.51100000000E-03 0.  1.
    9900012    2    1    2    0    0 -0.23111598941E+01  0.17782128393E+02 -0.36491393565E+02  0.50528839229E+02  0.29999937321E+02 0.  0.
         12    1    1    2    0    0  0.23111598941E+01 -0.17782128393E+02  0.36491393565E+02  0.40659160771E+02  0.00000000000E+00 0. -1.
         11    1    3    3    0    0 -0.26251285667E+00  0.14388119020E+02 -0.34897668077E+02  0.37748299557E+02  0.51100000000E-03 0.  1.
        -11    1    3    3    0    0 -0.67708986325E+01 -0.10654853991E+00 -0.12970059782E+01  0.68948274562E+01  0.51100000000E-03 0. -1.
         12    1    3    3    0    0  0.47222515950E+01  0.35005579127E+01 -0.29671950998E+00  0.58857122164E+01  0.00000000000E+00 0. -1.
</event>
<event>
 7    1  0.8697654E-014  0.5052885E+02  0.7816164E-02  0.1300439E+00
        -11   -1    0    0    0    0  0.00000000000E+00  0.00000000000E+00  0.45593999997E+02  0.45594000000E+02  0.51100000000E-03 0. -1.
         11   -1    0    0    0    0 -0.00000000000E+00 -0.00000000000E+00 -0.45593999997E+02  0.45594000000E+02  0.51100000000E-03 0.  1.
    9900012    2    1    2    0    0  0.44899711239E+01  0.36288115585E+02  0.17781421654E+02  0.50528854295E+02  0.29999983115E+02 0.  0.
        -12    1    1    2    0    0 -0.44899711239E+01 -0.36288115585E+02 -0.17781421654E+02  0.40659145705E+02  0.00000000000E+00 0.  1.
         11    1    3    3    0    0 -0.60602453028E+01  0.43142932011E+01 -0.15591445568E+01  0.76006993735E+01  0.51100000000E-03 0. -1.
        -11    1    3    3    0    0  0.14350396138E+01  0.24877261545E+02  0.66989194848E+01  0.25803352557E+02  0.51100000000E-03 0.  1.
         12    1    3    3    0    0  0.91151768130E+01  0.70965608392E+01  0.12641646726E+02  0.17124802364E+02  0.00000000000E+00 0. -1.
</event>
<event>
 7    1  0.8697654E-014  0.5052886E+02  0.7816164E-02  0.1300439E+00
        -11   -1    0    0    0    0  0.00000000000E+00  0.00000000000E+00  0.45593999997E+02  0.45594000000E+02  0.51100000000E-03 0. -1.
         11   -1    0    0    0    0 -0.00000000000E+00 -0.00000000000E+00 -0.45593999997E+02  0.45594000000E+02  0.51100000000E-03 0.  1.
    9900012    2    1    2    0    0 -0.68465439755E+01  0.24989766580E+02 -0.31333716942E+02  0.50528863074E+02  0.30000009800E+02 0.  0.
         12    1    1    2    0    0  0.68465439755E+01 -0.24989766580E+02  0.31333716942E+02  0.40659136926E+02  0.00000000000E+00 0. -1.
         11    1    3    3    0    0  0.83046180449E+00  0.46296972317E+01  0.18763229998E+01  0.50640252296E+01  0.51100000000E-03 0. -1.
        -11    1    3    3    0    0 -0.12399372587E+02  0.57048973108E+01 -0.77075619004E+01  0.15674718644E+02  0.51100000000E-03 0.  1.
         12    1    3    3    0    0  0.47223668066E+01  0.14655172038E+02 -0.25502478042E+02  0.29790119200E+02  0.00000000000E+00 0. -1.
</event>
<event>
 7    1  0.8697654E-014  0.5052887E+02  0.7816164E-02  0.1300439E+00
        -11   -1    0    0    0    0  0.00000000000E+00  0.00000000000E+00  0.45593999997E+02  0.45594000000E+02  0.51100000000E-03 0. -1.
         11   -1    0    0    0    0 -0.00000000000E+00 -0.00000000000E+00 -0.45593999997E+02  0.45594000000E+02  0.51100000000E-03 0.  1.
    9900012    2    1    2    0    0  0.11362406550E+02  0.31168556490E+02  0.23507057005E+02  0.50528869103E+02  0.30000028125E+02 0.  0.
        -12    1    1    2    0    0 -0.11362406550E+02 -0.31168556490E+02 -0.23507057005E+02  0.40659130897E+02  0.00000000000E+00 0.  1.
         11    1    3    3    0    0  0.52591511699E+01 -0.44017108710E+01  0.45516054437E+01  0.82310899641E+01  0.51100000000E-03 0. -1.
        -11    1    3    3    0    0  0.60235868704E+01  0.69974316322E+01  0.42891452009E+01  0.10180590113E+02  0.51100000000E-03 0.  1.
        -12    1    3    3    0    0  0.79668509833E-01  0.28572835729E+02  0.14666306360E+02  0.32117189026E+02  0.00000000000E+00 0.  1.
</event>
<event>
 7    1  0.8697654E-014  0.5052887E+02  0.7816164E-02  0.1300439E+00
        -11   -1    0    0    0    0  0.00000000000E+00  0.00000000000E+00  0.45593999997E+02  0.45594000000E+02  0.51100000000E-03 0. -1.
         11   -1    0    0    0    0 -0.00000000000E+00 -0.00000000000E+00 -0.45593999997E+02  0.45594000000E+02  0.51100000000E-03 0.  1.
    9900012    2    1    2    0    0  0.44003314873E+01 -0.27803656156E+02  0.29338690683E+02  0.50528868383E+02  0.30000025938E+02 0.  0.
        -12    1    1    2    0    0 -0.44003314873E+01  0.27803656156E+02 -0.29338690683E+02  0.40659131617E+02  0.00000000000E+00 0.  1.
         11    1    3    3    0    0  0.36239245393E+01 -0.51236068258E+01  0.98161198092E+01  0.11650767543E+02  0.51100000000E-03 0. -1.
        -11    1    3    3    0    0  0.86508818499E+00 -0.96003453829E+01  0.23340228656E+02  0.25252352029E+02  0.51100000000E-03 0.  1.
        -12    1    3    3    0    0 -0.88681237040E-01 -0.13079703947E+02 -0.38176577823E+01  0.13625748811E+02  0.00000000000E+00 0.  1.
</event>
<event>
 7    1  0.8697654E-014  0.5052877E+02  0.7816164E-02  0.1300439E+00
        -11   -1    0    0    0    0  0.00000000000E+00  0.00000000000E+00  0.45593999997E+02  0.45594000000E+02  0.51100000000E-03 0. -1.
         11   -1    0    0    0    0 -0.00000000000E+00 -0.00000000000E+00 -0.45593999997E+02  0.45594000000E+02  0.51100000000E-03 0.  1.
    9900012    2    1    2    0    0  0.22348965276E+02  0.22945597593E+02  0.25043889450E+02  0.50528768618E+02  0.29999722689E+02 0.  0.
        -12    1    1    2    0    0 -0.22348965276E+02 -0.22945597593E+02 -0.25043889450E+02  0.40659231382E+02  0.00000000000E+00 0.  1.
         11    1    3    3    0    0  0.18280339940E+02  0.10971308896E+02  0.12807244295E+02  0.24870986187E+02  0.51100000000E-03 0. -1.
        -11    1    3    3    0    0  0.10855621907E+02  0.59235617933E+01  0.30604356069E+01  0.12739677298E+02  0.51100000000E-03 0.  1.
         12    1    3    3    0    0 -0.67869965713E+01  0.60507269036E+01  0.91762095489E+01  0.12918105132E+02  0.00000000000E+00 0. -1.
</event>
<event>
 7    1  0.8697654E-014  0.5052886E+02  0.7816164E-02  0.1300439E+00
        -11   -1    0    0    0    0  0.00000000000E+00  0.00000000000E+00  0.45593999997E+02  0.45594000000E+02  0.51100000000E-03 0. -1.
         11   -1    0    0    0    0 -0.00000000000E+00 -0.00000000000E+00 -0.45593999997E+02  0.45594000000E+02  0.51100000000E-03 0.  1.
    9900012    2    1    2    0    0  0.30752163682E+02 -0.19241912159E+02 -0.18363525917E+02  0.50528857870E+02  0.29999993982E+02 0.  0.
         12    1    1    2    0    0 -0.30752163682E+02  0.19241912159E+02  0.18363525917E+02  0.40659142130E+02  0.00000000000E+00 0. -1.
         11    1    3    3    0    0  0.34036219371E+01  0.14443531453E+01 -0.44616932652E+01  0.57946100259E+01  0.51100000000E-03 0. -1.
        -11    1    3    3    0    0  0.17238249746E+02 -0.22212814858E+02 -0.18359075311E+02  0.33580084049E+02  0.51100000000E-03 0.  1.
         12    1    3    3    0    0  0.10110291999E+02  0.15265495540E+01  0.44572426594E+01  0.11154163795E+02  0.00000000000E+00 0. -1.
</event>
<event>
 7    1  0.8697654E-014  0.5052886E+02  0.7816164E-02  0.1300439E+00
        -11   -1    0    0    0    0  0.00000000000E+00  0.00000000000E+00  0.45593999997E+02  0.45594000000E+02  0.51100000000E-03 0. -1.
         11   -1    0    0    0    0 -0.00000000000E+00 -0.00000000000E+00 -0.45593999997E+02  0.45594000000E+02  0.51100000000E-03 0.  1.
    9900012    2    1    2    0    0  0.28990936218E+02 -0.18206427518E+02  0.21936668756E+02  0.50528858077E+02  0.29999994612E+02 0.  0.
        -12    1    1    2    0    0 -0.28990936218E+02  0.18206427518E+02 -0.21936668756E+02  0.40659141923E+02  0.00000000000E+00 0.  1.
         11    1    3    3    0    0  0.40080716780E+01  0.11833253385E+01  0.19506072658E+00  0.41836522777E+01  0.51100000000E-03 0.  1.
        -11    1    3    3    0    0  0.30351375997E+02 -0.18063637212E+02  0.19755354127E+02  0.40469433295E+02  0.51100000000E-03 0. -1.
        -12    1    3    3    0    0 -0.53685114570E+01 -0.13261156444E+01  0.19862539023E+01  0.58757725050E+01  0.00000000000E+00 0.  1.
</event>
<event>
 7    1  0.8697654E-014  0.5052885E+02  0.7816164E-02  0.1300439E+00
        -11   -1    0    0    0    0  0.00000000000E+00  0.00000000000E+00  0.45593999997E+02  0.45594000000E+02  0.51100000000E-03 0. -1.
         11   -1    0    0    0    0 -0.00000000000E+00 -0.00000000000E+00 -0.45593999997E+02  0.45594000000E+02  0.51100000000E-03 0.  1.
    9900012    2    1    2    0    0 -0.10677470277E+02 -0.80157406002E+01  0.38404503167E+02  0.50528851800E+02  0.29999975531E+02 0.  0.
        -12    1    1    2    0    0  0.10677470277E+02  0.80157406002E+01 -0.38404503167E+02  0.40659148200E+02  0.00000000000E+00 0.  1.
         11    1    3    3    0    0 -0.67605408042E+01  0.79083728835E+01  0.58397364035E+01  0.11931043339E+02  0.51100000000E-03 0. -1.
        -11    1    3    3    0    0  0.68388720501E+00 -0.35531800282E+00 -0.10298198437E+01  0.12862665990E+01  0.51100000000E-03 0.  1.
         12    1    3    3    0    0 -0.46008166782E+01 -0.15568795481E+02  0.33594586607E+02  0.37311541862E+02  0.00000000000E+00 0. -1.
</event>
<event>
 7    1  0.8697654E-014  0.5052886E+02  0.7816164E-02  0.1300439E+00
        -11   -1    0    0    0    0  0.00000000000E+00  0.00000000000E+00  0.45593999997E+02  0.45594000000E+02  0.51100000000E-03 0. -1.
         11   -1    0    0    0    0 -0.00000000000E+00 -0.00000000000E+00 -0.45593999997E+02  0.45594000000E+02  0.51100000000E-03 0.  1.
    9900012    2    1    2    0    0 -0.12452554859E+02 -0.18123425438E+02 -0.34200010836E+02  0.50528863102E+02  0.30000009884E+02 0.  0.
         12    1    1    2    0    0  0.12452554859E+02  0.18123425438E+02  0.34200010836E+02  0.40659136898E+02  0.00000000000E+00 0. -1.
         11    1    3    3    0    0 -0.99234839917E+01 -0.90638407411E+01  0.87779437821E+00  0.13468454505E+02  0.51100000000E-03 0. -1.
        -11    1    3    3    0    0 -0.44722792500E+01 -0.62992018716E+01 -0.17039934991E+02  0.18709372268E+02  0.51100000000E-03 0.  1.
        -12    1    3    3    0    0  0.19432083823E+01 -0.27603828254E+01 -0.18037870223E+02  0.18351036329E+02  0.00000000000E+00 0.  1.
</event>
<event>
 7    1  0.8697654E-014  0.5052885E+02  0.7816164E-02  0.1300439E+00
        -11   -1    0    0    0    0  0.00000000000E+00  0.00000000000E+00  0.45593999997E+02  0.45594000000E+02  0.51100000000E-03 0. -1.
         11   -1    0    0    0    0 -0.00000000000E+00 -0.00000000000E+00 -0.45593999997E+02  0.45594000000E+02  0.51100000000E-03 0.  1.
    9900012    2    1    2    0    0  0.25342927173E+02 -0.73747676010E+01  0.30927579874E+02  0.50528851562E+02  0.29999974807E+02 0.  0.
        -12    1    1    2    0    0 -0.25342927173E+02  0.73747676010E+01 -0.30927579874E+02  0.40659148438E+02  0.00000000000E+00 0.  1.
         11    1    3    3    0    0 -0.43930031147E+01  0.51985905296E+01  0.47543449447E+01  0.83022657133E+01  0.51100000000E-03 0. -1.
        -11    1    3    3    0    0  0.82127844022E+01 -0.42461298897E+00  0.46142070700E+01  0.94297948532E+01  0.51100000000E-03 0.  1.
        -12    1    3    3    0    0  0.21523145886E+02 -0.12148745142E+02  0.21559027859E+02  0.32796790995E+02  0.00000000000E+00 0.  1.
</event>
<event>
 7    1  0.8697654E-014  0.5052886E+02  0.7816164E-02  0.1300439E+00
        -11   -1    0    0    0    0  0.00000000000E+00  0.00000000000E+00  0.45593999997E+02  0.45594000000E+02  0.51100000000E-03 0. -1.
         11   -1    0    0    0    0 -0.00000000000E+00 -0.00000000000E+00 -0.45593999997E+02  0.45594000000E+02  0.51100000000E-03 0.  1.
    9900012    2    1    2    0    0  0.50867459361E+01 -0.17437937634E+01 -0.40301985658E+02  0.50528857746E+02  0.29999993604E+02 0.  0.
         12    1    1    2    0    0 -0.50867459361E+01  0.17437937634E+01  0.40301985658E+02  0.40659142254E+02  0.00000000000E+00 0. -1.
         11    1    3    3    0    0  0.98316255345E+01  0.32886248505E+00 -0.75173933909E+01  0.12380638709E+02  0.51100000000E-03 0. -1.
        -11    1    3    3    0    0  0.56429089457E+01 -0.34508534264E+01 -0.22552067252E+02  0.23502054130E+02  0.51100000000E-03 0.  1.
        -12    1    3    3    0    0 -0.10387788544E+02  0.13781971780E+01 -0.10232525015E+02  0.14646164907E+02  0.00000000000E+00 0.  1.
</event>
<event>
 7    1  0.8697654E-014  0.5052886E+02  0.7816164E-02  0.1300439E+00
        -11   -1    0    0    0    0  0.00000000000E+00  0.00000000000E+00  0.45593999997E+02  0.45594000000E+02  0.51100000000E-03 0. -1.
         11   -1    0    0    0    0 -0.00000000000E+00 -0.00000000000E+00 -0.45593999997E+02  0.45594000000E+02  0.51100000000E-03 0.  1.
    9900012    2    1    2    0    0 -0.35934778979E+02  0.14818188901E+02  0.11928066846E+02  0.50528857839E+02  0.29999993889E+02 0.  0.
        -12    1    1    2    0    0  0.35934778979E+02 -0.14818188901E+02 -0.11928066846E+02  0.40659142161E+02  0.00000000000E+00 0.  1.
         11    1    3    3    0    0 -0.16947489237E+01 -0.25614420919E+00  0.10542911201E+02  0.10681327662E+02  0.51100000000E-03 0.  1.
        -11    1    3    3    0    0 -0.13417107981E+02 -0.53210033380E+00  0.30585262176E+01  0.13771583069E+02  0.51100000000E-03 0. -1.
        -12    1    3    3    0    0 -0.20822922074E+02  0.15606433444E+02 -0.16733705722E+01  0.26075947109E+02  0.00000000000E+00 0.  1.
</event>
<event>
 7    1  0.8697654E-014  0.5052894E+02  0.7816164E-02  0.1300439E+00
        -11   -1    0    0    0    0  0.00000000000E+00  0.00000000000E+00  0.45593999997E+02  0.45594000000E+02  0.51100000000E-03 0. -1.
         11   -1    0    0    0    0 -0.00000000000E+00 -0.00000000000E+00 -0.45593999997E+02  0.45594000000E+02  0.51100000000E-03 0.  1.
    9900012    2    1    2    0    0 -0.64670026346E+01  0.56936810932E+01  0.39735614900E+02  0.50528939276E+02  0.30000241423E+02 0.  0.
        -12    1    1    2    0    0  0.64670026346E+01 -0.56936810932E+01 -0.39735614900E+02  0.40659060724E+02  0.00000000000E+00 0.  1.
         11    1    3    3    0    0 -0.54039245761E+01  0.11300253462E+02  0.12384808518E+02  0.17614812273E+02  0.51100000000E-03 0. -1.
        -11    1    3    3    0    0 -0.28973556282E+01  0.38348458311E+01  0.10635110058E+01  0.49225773844E+01  0.51100000000E-03 0.  1.
         12    1    3    3    0    0  0.18342775697E+01 -0.94414182003E+01  0.26287295376E+02  0.27991549619E+02  0.00000000000E+00 0. -1.
</event>
<event>
 7    1  0.8697654E-014  0.5052886E+02  0.7816164E-02  0.1300439E+00
        -11   -1    0    0    0    0  0.00000000000E+00  0.00000000000E+00  0.45593999997E+02  0.45594000000E+02  0.51100000000E-03 0. -1.
         11   -1    0    0    0    0 -0.00000000000E+00 -0.00000000000E+00 -0.45593999997E+02  0.45594000000E+02  0.51100000000E-03 0.  1.
    9900012    2    1    2    0    0 -0.16977999361E+02 -0.23860102738E+02  0.28206540934E+02  0.50528856915E+02  0.29999991078E+02 0.  0.
        -12    1    1    2    0    0  0.16977999361E+02  0.23860102738E+02 -0.28206540934E+02  0.40659143085E+02  0.00000000000E+00 0.  1.
         11    1    3    3    0    0 -0.36431642350E+01 -0.16268992087E+02  0.12277492567E+02  0.20704820047E+02  0.51100000000E-03 0. -1.
        -11    1    3    3    0    0 -0.77849281349E+01 -0.11269669269E+02  0.13093802254E+01  0.13759543173E+02  0.51100000000E-03 0.  1.
        -12    1    3    3    0    0 -0.55499069910E+01  0.36785586177E+01  0.14619668141E+02  0.16064493695E+02  0.00000000000E+00 0.  1.
</event>
<event>
 7    1  0.8697654E-014  0.5052887E+02  0.7816164E-02  0.1300439E+00
        -11   -1    0    0    0    0  0.00000000000E+00  0.00000000000E+00  0.45593999997E+02  0.45594000000E+02  0.51100000000E-03 0. -1.
         11   -1    0    0    0    0 -0.00000000000E+00 -0.00000000000E+00 -0.45593999997E+02  0.45594000000E+02  0.51100000000E-03 0.  1.
    9900012    2    1    2    0    0 -0.28059516893E+02 -0.56955946751E+01  0.28868466286E+02  0.50528872702E+02  0.30000039064E+02 0.  0.
        -12    1    1    2    0    0  0.28059516893E+02  0.56955946751E+01 -0.28868466286E+02  0.40659127298E+02  0.00000000000E+00 0.  1.
         11    1    3    3    0    0 -0.14154547558E+02 -0.83806060891E+01  0.10996053299E+02  0.19786332743E+02  0.51100000000E-03 0.  1.
        -11    1    3    3    0    0  0.48212682379E+01  0.62788011609E+00  0.12951911881E+00  0.48637060279E+01  0.51100000000E-03 0. -1.
         12    1    3    3    0    0 -0.18726237572E+02  0.20571312979E+01  0.17742893868E+02  0.25878833930E+02  0.00000000000E+00 0. -1.
</event>
<event>
 7    1  0.8697654E-014  0.5052886E+02  0.7816164E-02  0.1300439E+00
        -11   -1    0    0    0    0  0.00000000000E+00  0.00000000000E+00  0.45593999997E+02  0.45594000000E+02  0.51100000000E-03 0.  1.
         11   -1    0    0    0    0 -0.00000000000E+00 -0.00000000000E+00 -0.45593999997E+02  0.45594000000E+02  0.51100000000E-03 0. -1.
    9900012    2    1    2    0    0 -0.52461725335E+01  0.36940666264E+02 -0.16156428700E+02  0.50528864020E+02  0.30000012677E+02 0.  0.
         12    1    1    2    0    0  0.52461725335E+01 -0.36940666264E+02  0.16156428700E+02  0.40659135980E+02  0.00000000000E+00 0. -1.
         11    1    3    3    0    0  0.49108536425E+01  0.51406319634E+01 -0.10205773134E+02  0.12437860990E+02  0.51100000000E-03 0. -1.
        -11    1    3    3    0    0 -0.14581943799E+02  0.19424442799E+02 -0.56863376905E+01  0.24945470523E+02  0.51100000000E-03 0.  1.
         12    1    3    3    0    0  0.44249176230E+01  0.12375591501E+02 -0.26431787594E+00  0.13145532508E+02  0.00000000000E+00 0. -1.
</event>
<event>
 7    1  0.8697654E-014  0.5052887E+02  0.7816164E-02  0.1300439E+00
        -11   -1    0    0    0    0  0.00000000000E+00  0.00000000000E+00  0.45593999997E+02  0.45594000000E+02  0.51100000000E-03 0. -1.
         11   -1    0    0    0    0 -0.00000000000E+00 -0.00000000000E+00 -0.45593999997E+02  0.45594000000E+02  0.51100000000E-03 0.  1.
    9900012    2    1    2    0    0  0.46038769291E+01 -0.90057318973E+01  0.39381037741E+02  0.50528867898E+02  0.30000024461E+02 0.  0.
        -12    1    1    2    0    0 -0.46038769291E+01  0.90057318973E+01 -0.39381037741E+02  0.40659132102E+02  0.00000000000E+00 0.  1.
         11    1    3    3    0    0  0.10618759575E+02 -0.20096847421E+01  0.20433634526E+02  0.23115585822E+02  0.51100000000E-03 0. -1.
        -11    1    3    3    0    0 -0.30671381735E+01 -0.77033389236E+01  0.67705344591E-01  0.82917640718E+01  0.51100000000E-03 0.  1.
         12    1    3    3    0    0 -0.29477444721E+01  0.70729176835E+00  0.18879697870E+02  0.19121518004E+02  0.00000000000E+00 0. -1.
</event>
<event>
 7    1  0.8697654E-014  0.5052884E+02  0.7816164E-02  0.1300439E+00
        -11   -1    0    0    0    0  0.00000000000E+00  0.00000000000E+00  0.45593999997E+02  0.45594000000E+02  0.51100000000E-03 0.  1.
         11   -1    0    0    0    0 -0.00000000000E+00 -0.00000000000E+00 -0.45593999997E+02  0.45594000000E+02  0.51100000000E-03 0. -1.
    9900012    2    1    2    0    0  0.13737458289E+01  0.37964405778E+02  0.14490811240E+02  0.50528844892E+02  0.29999954534E+02 0.  0.
        -12    1    1    2    0    0 -0.13737458289E+01 -0.37964405778E+02 -0.14490811240E+02  0.40659155108E+02  0.00000000000E+00 0.  1.
         11    1    3    3    0    0 -0.67998529914E+01  0.26474018523E+02  0.15279617490E+02  0.31314187973E+02  0.51100000000E-03 0. -1.
        -11    1    3    3    0    0 -0.26215675763E+01 -0.89217575090E+00 -0.23620587749E-01  0.27693234410E+01  0.51100000000E-03 0.  1.
         12    1    3    3    0    0  0.10795166397E+02  0.12382563006E+02 -0.76518566275E+00  0.16445333478E+02  0.00000000000E+00 0. -1.
</event>
<event>
 7    1  0.8697654E-014  0.5052887E+02  0.7816164E-02  0.1300439E+00
        -11   -1    0    0    0    0  0.00000000000E+00  0.00000000000E+00  0.45593999997E+02  0.45594000000E+02  0.51100000000E-03 0. -1.
         11   -1    0    0    0    0 -0.00000000000E+00 -0.00000000000E+00 -0.45593999997E+02  0.45594000000E+02  0.51100000000E-03 0.  1.
    9900012    2    1    2    0    0  0.22687260311E+02 -0.33136550341E+02  0.63578677473E+01  0.50528865341E+02  0.30000016690E+02 0.  0.
        -12    1    1    2    0    0 -0.22687260311E+02  0.33136550341E+02 -0.63578677473E+01  0.40659134659E+02  0.00000000000E+00 0.  1.
         11    1    3    3    0    0  0.11219909592E+02 -0.12197656912E+02 -0.31152287813E+00  0.16576074691E+02  0.51100000000E-03 0. -1.
        -11    1    3    3    0    0  0.47409179606E+01 -0.11965179582E+02  0.15160039210E+02  0.19886392701E+02  0.51100000000E-03 0.  1.
         12    1    3    3    0    0  0.67264327582E+01 -0.89737138466E+01 -0.84906485847E+01  0.14066397948E+02  0.00000000000E+00 0. -1.
</event>
<event>
 7    1  0.8697654E-014  0.5052886E+02  0.7816164E-02  0.1300439E+00
        -11   -1    0    0    0    0  0.00000000000E+00  0.00000000000E+00  0.45593999997E+02  0.45594000000E+02  0.51100000000E-03 0. -1.
         11   -1    0    0    0    0 -0.00000000000E+00 -0.00000000000E+00 -0.45593999997E+02  0.45594000000E+02  0.51100000000E-03 0.  1.
    9900012    2    1    2    0    0 -0.48052355568E+01 -0.10441947133E+02  0.39000530016E+02  0.50528857237E+02  0.29999992056E+02 0.  0.
        -12    1    1    2    0    0  0.48052355568E+01  0.10441947133E+02 -0.39000530016E+02  0.40659142763E+02  0.00000000000E+00 0.  1.
         11    1    3    3    0    0 -0.12168757663E+02 -0.11314475083E+01  0.11988058360E+02  0.17119356881E+02  0.51100000000E-03 0. -1.
        -11    1    3    3    0    0 -0.30308156050E+01 -0.87394318930E+01  0.12664350943E+02  0.15682770741E+02  0.51100000000E-03 0.  1.
        -12    1    3    3    0    0  0.10394337711E+02 -0.57106773208E+00  0.14348120714E+02  0.17726729615E+02  0.00000000000E+00 0.  1.
</event>
<event>
 7    1  0.8697654E-014  0.5052886E+02  0.7816164E-02  0.1300439E+00
        -11   -1    0    0    0    0  0.00000000000E+00  0.00000000000E+00  0.45593999997E+02  0.45594000000E+02  0.51100000000E-03 0. -1.
         11   -1    0    0    0    0 -0.00000000000E+00 -0.00000000000E+00 -0.45593999997E+02  0.45594000000E+02  0.51100000000E-03 0.  1.
    9900012    2    1    2    0    0 -0.17480730053E+02 -0.11792281430E+02 -0.34763947127E+02  0.50528857802E+02  0.29999993774E+02 0.  0.
         12    1    1    2    0    0  0.17480730053E+02  0.11792281430E+02  0.34763947127E+02  0.40659142198E+02  0.00000000000E+00 0. -1.
         11    1    3    3    0    0 -0.18057575482E+02 -0.41929001057E+01 -0.28862287718E+02  0.34302887577E+02  0.51100000000E-03 0.  1.
        -11    1    3    3    0    0  0.40612351186E+01  0.13874283881E+01 -0.49332709196E+01  0.65387881482E+01  0.51100000000E-03 0. -1.
        -12    1    3    3    0    0 -0.34843896890E+01 -0.89868097121E+01 -0.96838848948E+00  0.96871820759E+01  0.00000000000E+00 0.  1.
</event>
<event>
 7    1  0.8697654E-014  0.5052886E+02  0.7816164E-02  0.1300439E+00
        -11   -1    0    0    0    0  0.00000000000E+00  0.00000000000E+00  0.45593999997E+02  0.45594000000E+02  0.51100000000E-03 0. -1.
         11   -1    0    0    0    0 -0.00000000000E+00 -0.00000000000E+00 -0.45593999997E+02  0.45594000000E+02  0.51100000000E-03 0.  1.
    9900012    2    1    2    0    0  0.13061910484E+02  0.38351273913E+01  0.38312446581E+02  0.50528864856E+02  0.30000015217E+02 0.  0.
        -12    1    1    2    0    0 -0.13061910484E+02 -0.38351273913E+01 -0.38312446581E+02  0.40659135144E+02  0.00000000000E+00 0.  1.
         11    1    3    3    0    0  0.68891415611E+01  0.58362602170E+01  0.92289426695E+01  0.12911064551E+02  0.51100000000E-03 0. -1.
        -11    1    3    3    0    0 -0.31668160684E+01  0.44792961390E+01 -0.89332065393E+00  0.55579528573E+01  0.51100000000E-03 0.  1.
         12    1    3    3    0    0  0.93395849910E+01 -0.64804289647E+01  0.29976824566E+02  0.32059847448E+02  0.00000000000E+00 0. -1.
</event>
<event>
 7    1  0.8697654E-014  0.5052884E+02  0.7816164E-02  0.1300439E+00
        -11   -1    0    0    0    0  0.00000000000E+00  0.00000000000E+00  0.45593999997E+02  0.45594000000E+02  0.51100000000E-03 0. -1.
         11   -1    0    0    0    0 -0.00000000000E+00 -0.00000000000E+00 -0.45593999997E+02  0.45594000000E+02  0.51100000000E-03 0.  1.
    9900012    2    1    2    0    0  0.13511977636E+02  0.34152984483E+01  0.38195940721E+02  0.50528835096E+02  0.29999924759E+02 0.  0.
        -12    1    1    2    0    0 -0.13511977636E+02 -0.34152984483E+01 -0.38195940721E+02  0.40659164904E+02  0.00000000000E+00 0.  1.
         11    1    3    3    0    0  0.94129094367E+01 -0.35058899612E+01  0.23015127964E+02  0.25111555984E+02  0.51100000000E-03 0. -1.
        -11    1    3    3    0    0  0.52416902271E+01 -0.33960428431E+01 -0.86631963126E+00  0.63054685309E+01  0.51100000000E-03 0.  1.
        -12    1    3    3    0    0 -0.11426220275E+01  0.10317231253E+02  0.16047132388E+02  0.19111810581E+02  0.00000000000E+00 0.  1.
</event>
<event>
 7    1  0.8697654E-014  0.5052886E+02  0.7816164E-02  0.1300439E+00
        -11   -1    0    0    0    0  0.00000000000E+00  0.00000000000E+00  0.45593999997E+02  0.45594000000E+02  0.51100000000E-03 0. -1.
         11   -1    0    0    0    0 -0.00000000000E+00 -0.00000000000E+00 -0.45593999997E+02  0.45594000000E+02  0.51100000000E-03 0.  1.
    9900012    2    1    2    0    0  0.99649498980E+01  0.38521210678E+02 -0.83655069856E+01  0.50528860736E+02  0.30000002693E+02 0.  0.
         12    1    1    2    0    0 -0.99649498980E+01 -0.38521210678E+02  0.83655069856E+01  0.40659139264E+02  0.00000000000E+00 0. -1.
         11    1    3    3    0    0  0.13976582486E+01  0.30740296087E+01 -0.11370360019E+02  0.11861205413E+02  0.51100000000E-03 0. -1.
        -11    1    3    3    0    0  0.52510874962E+01  0.14131780522E+02 -0.46519596313E+01  0.15777257978E+02  0.51100000000E-03 0.  1.
         12    1    3    3    0    0  0.33162041531E+01  0.21315400547E+02  0.76568126649E+01  0.22890397346E+02  0.00000000000E+00 0. -1.
</event>
<event>
 7    1  0.8697654E-014  0.5052886E+02  0.7816164E-02  0.1300439E+00
        -11   -1    0    0    0    0  0.00000000000E+00  0.00000000000E+00  0.45593999997E+02  0.45594000000E+02  0.51100000000E-03 0. -1.
         11   -1    0    0    0    0 -0.00000000000E+00 -0.00000000000E+00 -0.45593999997E+02  0.45594000000E+02  0.51100000000E-03 0.  1.
    9900012    2    1    2    0    0  0.29091253542E+02 -0.13134188354E+02 -0.25186458156E+02  0.50528860673E+02  0.30000002502E+02 0.  0.
         12    1    1    2    0    0 -0.29091253542E+02  0.13134188354E+02  0.25186458156E+02  0.40659139327E+02  0.00000000000E+00 0. -1.
         11    1    3    3    0    0  0.67928173591E+01 -0.10041711375E+02  0.25831187893E+01  0.12395597523E+02  0.51100000000E-03 0. -1.
        -11    1    3    3    0    0  0.40105233571E+01 -0.63932760689E+01 -0.77305163920E+01  0.10803664213E+02  0.51100000000E-03 0.  1.
        -12    1    3    3    0    0  0.18287912825E+02  0.33007990898E+01 -0.20039060554E+02  0.27329598936E+02  0.00000000000E+00 0.  1.
</event>
<event>
 7    1  0.8697654E-014  0.5052886E+02  0.7816164E-02  0.1300439E+00
        -11   -1    0    0    0    0  0.00000000000E+00  0.00000000000E+00  0.45593999997E+02  0.45594000000E+02  0.51100000000E-03 0. -1.
         11   -1    0    0    0    0 -0.00000000000E+00 -0.00000000000E+00 -0.45593999997E+02  0.45594000000E+02  0.51100000000E-03 0.  1.
    9900012    2    1    2    0    0 -0.69460296074E+01  0.28406546417E+02  0.28248653719E+02  0.50528860270E+02  0.30000001276E+02 0.  0.
        -12    1    1    2    0    0  0.69460296074E+01 -0.28406546417E+02 -0.28248653719E+02  0.40659139730E+02  0.00000000000E+00 0.  1.
         11    1    3    3    0    0 -0.81379471602E+00 -0.34386218096E+01  0.74905042916E+00  0.36121266030E+01  0.51100000000E-03 0. -1.
        -11    1    3    3    0    0  0.71349091614E+01  0.86002442797E+01  0.67930444941E+01  0.13077330927E+02  0.51100000000E-03 0.  1.
         12    1    3    3    0    0 -0.13267144053E+02  0.23244923947E+02  0.20706558796E+02  0.33839402740E+02  0.00000000000E+00 0. -1.
</event>
<event>
 7    1  0.8697654E-014  0.5052886E+02  0.7816164E-02  0.1300439E+00
        -11   -1    0    0    0    0  0.00000000000E+00  0.00000000000E+00  0.45593999997E+02  0.45594000000E+02  0.51100000000E-03 0. -1.
         11   -1    0    0    0    0 -0.00000000000E+00 -0.00000000000E+00 -0.45593999997E+02  0.45594000000E+02  0.51100000000E-03 0.  1.
    9900012    2    1    2    0    0 -0.26897059857E+02 -0.16045373654E+02 -0.25927972290E+02  0.50528860907E+02  0.30000003214E+02 0.  0.
         12    1    1    2    0    0  0.26897059857E+02  0.16045373654E+02  0.25927972290E+02  0.40659139093E+02  0.00000000000E+00 0. -1.
         11    1    3    3    0    0 -0.90517474515E+00  0.45088330712E+01 -0.53590165620E+01  0.70617261174E+01  0.51100000000E-03 0. -1.
        -11    1    3    3    0    0 -0.25813045994E+02 -0.10295447671E+02 -0.17130298396E+02  0.32645929450E+02  0.51100000000E-03 0.  1.
        -12    1    3    3    0    0 -0.17883911794E+00 -0.10258759054E+02 -0.34386573326E+01  0.10821205340E+02  0.00000000000E+00 0.  1.
</event>
<event>
 7    1  0.8697654E-014  0.5052886E+02  0.7816164E-02  0.1300439E+00
        -11   -1    0    0    0    0  0.00000000000E+00  0.00000000000E+00  0.45593999997E+02  0.45594000000E+02  0.51100000000E-03 0. -1.
         11   -1    0    0    0    0 -0.00000000000E+00 -0.00000000000E+00 -0.45593999997E+02  0.45594000000E+02  0.51100000000E-03 0.  1.
    9900012    2    1    2    0    0  0.16384822820E+02  0.32202355003E+02 -0.18647024180E+02  0.50528860838E+02  0.30000003004E+02 0.  0.
         12    1    1    2    0    0 -0.16384822820E+02 -0.32202355003E+02  0.18647024180E+02  0.40659139162E+02  0.00000000000E+00 0. -1.
         11    1    3    3    0    0  0.18061181876E+02  0.13933447478E+02 -0.75847063135E+01  0.24039031168E+02  0.51100000000E-03 0. -1.
        -11    1    3    3    0    0  0.29258515034E+00  0.64119495415E+01  0.37349165355E+01  0.74261904622E+01  0.51100000000E-03 0.  1.
        -12    1    3    3    0    0 -0.19689442059E+01  0.11856957984E+02 -0.14797234402E+02  0.19063639208E+02  0.00000000000E+00 0.  1.
</event>
<event>
 7    1  0.8697654E-014  0.5052880E+02  0.7816164E-02  0.1300439E+00
        -11   -1    0    0    0    0  0.00000000000E+00  0.00000000000E+00  0.45593999997E+02  0.45594000000E+02  0.51100000000E-03 0. -1.
         11   -1    0    0    0    0 -0.00000000000E+00 -0.00000000000E+00 -0.45593999997E+02  0.45594000000E+02  0.51100000000E-03 0.  1.
    9900012    2    1    2    0    0  0.27611654553E+02 -0.29845215527E+02 -0.17352410794E+00  0.50528800947E+02  0.29999820959E+02 0.  0.
         12    1    1    2    0    0 -0.27611654553E+02  0.29845215527E+02  0.17352410794E+00  0.40659199053E+02  0.00000000000E+00 0. -1.
         11    1    3    3    0    0  0.41856912134E+01  0.13253468503E+01 -0.13595104953E+01  0.45961749591E+01  0.51100000000E-03 0. -1.
        -11    1    3    3    0    0  0.14809217576E+02 -0.31889069746E+02 -0.46999791917E+01  0.35472743045E+02  0.51100000000E-03 0.  1.
         12    1    3    3    0    0  0.86167457638E+01  0.71850736826E+00  0.58859655790E+01  0.10459882944E+02  0.00000000000E+00 0. -1.
</event>
<event>
 7    1  0.8697654E-014  0.5052886E+02  0.7816164E-02  0.1300439E+00
        -11   -1    0    0    0    0  0.00000000000E+00  0.00000000000E+00  0.45593999997E+02  0.45594000000E+02  0.51100000000E-03 0. -1.
         11   -1    0    0    0    0 -0.00000000000E+00 -0.00000000000E+00 -0.45593999997E+02  0.45594000000E+02  0.51100000000E-03 0.  1.
    9900012    2    1    2    0    0 -0.11657458759E+02  0.19305606291E+02 -0.33831385617E+02  0.50528862875E+02  0.30000009195E+02 0.  0.
         12    1    1    2    0    0  0.11657458759E+02 -0.19305606291E+02  0.33831385617E+02  0.40659137125E+02  0.00000000000E+00 0. -1.
         11    1    3    3    0    0  0.53222166385E+01  0.54023541599E+01 -0.11236967866E+01  0.76664277956E+01  0.51100000000E-03 0. -1.
        -11    1    3    3    0    0 -0.42755870277E+01 -0.28994671150E+01 -0.13109577850E+02  0.14090726938E+02  0.51100000000E-03 0.  1.
        -12    1    3    3    0    0 -0.12704088370E+02  0.16802719246E+02 -0.19598110981E+02  0.28771708141E+02  0.00000000000E+00 0.  1.
</event>
<event>
 7    1  0.8697654E-014  0.5052886E+02  0.7816164E-02  0.1300439E+00
        -11   -1    0    0    0    0  0.00000000000E+00  0.00000000000E+00  0.45593999997E+02  0.45594000000E+02  0.51100000000E-03 0. -1.
         11   -1    0    0    0    0 -0.00000000000E+00 -0.00000000000E+00 -0.45593999997E+02  0.45594000000E+02  0.51100000000E-03 0.  1.
    9900012    2    1    2    0    0  0.12483317002E+02  0.20784993351E+02 -0.32639185701E+02  0.50528860865E+02  0.30000003086E+02 0.  0.
         12    1    1    2    0    0 -0.12483317002E+02 -0.20784993351E+02  0.32639185701E+02  0.40659139135E+02  0.00000000000E+00 0. -1.
         11    1    3    3    0    0  0.93984090240E+01  0.12880264757E+00 -0.42582581974E+00  0.94089324684E+01  0.51100000000E-03 0. -1.
        -11    1    3    3    0    0  0.49789820319E+01  0.96246794679E+01 -0.54909323665E+01  0.12148047392E+02  0.51100000000E-03 0.  1.
        -12    1    3    3    0    0 -0.18940740540E+01  0.11031511236E+02 -0.26722427515E+02  0.28971881004E+02  0.00000000000E+00 0.  1.
</event>
<event>
 7    1  0.8697654E-014  0.5052887E+02  0.7816164E-02  0.1300439E+00
        -11   -1    0    0    0    0  0.00000000000E+00  0.00000000000E+00  0.45593999997E+02  0.45594000000E+02  0.51100000000E-03 0. -1.
         11   -1    0    0    0    0 -0.00000000000E+00 -0.00000000000E+00 -0.45593999997E+02  0.45594000000E+02  0.51100000000E-03 0.  1.
    9900012    2    1    2    0    0  0.16204338697E+02 -0.25293895295E+02 -0.27400793438E+02  0.50528865567E+02  0.30000017377E+02 0.  0.
         12    1    1    2    0    0 -0.16204338697E+02  0.25293895295E+02  0.27400793438E+02  0.40659134433E+02  0.00000000000E+00 0. -1.
         11    1    3    3    0    0  0.90253145583E+00 -0.20237585499E+01 -0.10773522286E+02  0.10999042886E+02  0.51100000000E-03 0. -1.
        -11    1    3    3    0    0 -0.27879796144E+01 -0.14392910576E+02 -0.11773884808E+02  0.18803006911E+02  0.51100000000E-03 0.  1.
         12    1    3    3    0    0  0.18089786856E+02 -0.88772261692E+01 -0.48533863447E+01  0.20726815770E+02  0.00000000000E+00 0. -1.
</event>
<event>
 7    1  0.8697654E-014  0.5052886E+02  0.7816164E-02  0.1300439E+00
        -11   -1    0    0    0    0  0.00000000000E+00  0.00000000000E+00  0.45593999997E+02  0.45594000000E+02  0.51100000000E-03 0. -1.
         11   -1    0    0    0    0 -0.00000000000E+00 -0.00000000000E+00 -0.45593999997E+02  0.45594000000E+02  0.51100000000E-03 0.  1.
    9900012    2    1    2    0    0 -0.19952162055E+02  0.21083698415E+02 -0.28470244248E+02  0.50528856907E+02  0.29999991054E+02 0.  0.
         12    1    1    2    0    0  0.19952162055E+02 -0.21083698415E+02  0.28470244248E+02  0.40659143093E+02  0.00000000000E+00 0. -1.
         11    1    3    3    0    0 -0.23327907629E+02  0.20704104817E+02 -0.26486827370E+02  0.40919472810E+02  0.51100000000E-03 0.  1.
        -11    1    3    3    0    0 -0.11854815438E+01 -0.56144134033E+00  0.27016899343E+01  0.30032834751E+01  0.51100000000E-03 0. -1.
        -12    1    3    3    0    0  0.45612271187E+01  0.94103493818E+00 -0.46851068124E+01  0.66061006219E+01  0.00000000000E+00 0.  1.
</event>
<event>
 7    1  0.8697654E-014  0.5052886E+02  0.7816164E-02  0.1300439E+00
        -11   -1    0    0    0    0  0.00000000000E+00  0.00000000000E+00  0.45593999997E+02  0.45594000000E+02  0.51100000000E-03 0. -1.
         11   -1    0    0    0    0 -0.00000000000E+00 -0.00000000000E+00 -0.45593999997E+02  0.45594000000E+02  0.51100000000E-03 0.  1.
    9900012    2    1    2    0    0 -0.10859126095E+01 -0.40536285204E+02  0.29658387895E+01  0.50528858051E+02  0.29999994532E+02 0.  0.
        -12    1    1    2    0    0  0.10859126095E+01  0.40536285204E+02 -0.29658387895E+01  0.40659141949E+02  0.00000000000E+00 0.  1.
         11    1    3    3    0    0  0.69718211917E+01 -0.19498574763E+02  0.10394352057E+02  0.23169878365E+02  0.51100000000E-03 0. -1.
        -11    1    3    3    0    0 -0.34616532485E+01 -0.15153170035E+01  0.29339140836E+01  0.47840444129E+01  0.51100000000E-03 0.  1.
         12    1    3    3    0    0 -0.45960805527E+01 -0.19522393437E+02 -0.10362427351E+02  0.22574935273E+02  0.00000000000E+00 0. -1.
</event>
<event>
 7    1  0.8697654E-014  0.5052886E+02  0.7816164E-02  0.1300439E+00
        -11   -1    0    0    0    0  0.00000000000E+00  0.00000000000E+00  0.45593999997E+02  0.45594000000E+02  0.51100000000E-03 0. -1.
         11   -1    0    0    0    0 -0.00000000000E+00 -0.00000000000E+00 -0.45593999997E+02  0.45594000000E+02  0.51100000000E-03 0.  1.
    9900012    2    1    2    0    0 -0.68689139910E+01 -0.88481642148E+01 -0.39085721876E+02  0.50528860266E+02  0.30000001264E+02 0.  0.
         12    1    1    2    0    0  0.68689139910E+01  0.88481642148E+01  0.39085721876E+02  0.40659139734E+02  0.00000000000E+00 0. -1.
         11    1    3    3    0    0 -0.28151796019E+01  0.28181457977E+01  0.16816909793E+01  0.43238023473E+01  0.51100000000E-03 0. -1.
        -11    1    3    3    0    0 -0.16276922266E+00 -0.81666554828E+01 -0.40511380422E+01  0.91177012066E+01  0.51100000000E-03 0.  1.
        -12    1    3    3    0    0 -0.38909651665E+01 -0.34996545297E+01 -0.36716274813E+02  0.37087356712E+02  0.00000000000E+00 0.  1.
</event>
<event>
 7    1  0.8697654E-014  0.5052886E+02  0.7816164E-02  0.1300439E+00
        -11   -1    0    0    0    0  0.00000000000E+00  0.00000000000E+00  0.45593999997E+02  0.45594000000E+02  0.51100000000E-03 0. -1.
         11   -1    0    0    0    0 -0.00000000000E+00 -0.00000000000E+00 -0.45593999997E+02  0.45594000000E+02  0.51100000000E-03 0.  1.
    9900012    2    1    2    0    0 -0.27173538748E+02  0.92550292664E+01  0.28794249610E+02  0.50528860985E+02  0.30000003451E+02 0.  0.
        -12    1    1    2    0    0  0.27173538748E+02 -0.92550292664E+01 -0.28794249610E+02  0.40659139015E+02  0.00000000000E+00 0.  1.
         11    1    3    3    0    0 -0.14909766436E+02  0.98048721943E+00  0.15344667653E+02  0.21417780371E+02  0.51100000000E-03 0. -1.
        -11    1    3    3    0    0 -0.17234171614E+02  0.10369644354E+02  0.86631706526E+01  0.21899696830E+02  0.51100000000E-03 0.  1.
        -12    1    3    3    0    0  0.49703993021E+01 -0.20951023075E+01  0.47864113047E+01  0.72113837840E+01  0.00000000000E+00 0.  1.
</event>
<event>
 7    1  0.8697654E-014  0.5052886E+02  0.7816164E-02  0.1300439E+00
        -11   -1    0    0    0    0  0.00000000000E+00  0.00000000000E+00  0.45593999997E+02  0.45594000000E+02  0.51100000000E-03 0. -1.
         11   -1    0    0    0    0 -0.00000000000E+00 -0.00000000000E+00 -0.45593999997E+02  0.45594000000E+02  0.51100000000E-03 0.  1.
    9900012    2    1    2    0    0 -0.63372632060E+01 -0.13644801361E+02  0.37773326714E+02  0.50528859328E+02  0.29999998414E+02 0.  0.
        -12    1    1    2    0    0  0.63372632060E+01  0.13644801361E+02 -0.37773326714E+02  0.40659140672E+02  0.00000000000E+00 0.  1.
         11    1    3    3    0    0  0.53974721075E+01 -0.44907955367E-01  0.14500361218E+02  0.15472401158E+02  0.51100000000E-03 0.  1.
        -11    1    3    3    0    0 -0.15428261369E+02 -0.45624430659E+01  0.17233895366E+02  0.23576562204E+02  0.51100000000E-03 0. -1.
         12    1    3    3    0    0  0.36935260553E+01 -0.90374503399E+01  0.60390701294E+01  0.11479895966E+02  0.00000000000E+00 0. -1.
</event>
<event>
 7    1  0.8697654E-014  0.5052887E+02  0.7816164E-02  0.1300439E+00
        -11   -1    0    0    0    0  0.00000000000E+00  0.00000000000E+00  0.45593999997E+02  0.45594000000E+02  0.51100000000E-03 0. -1.
         11   -1    0    0    0    0 -0.00000000000E+00 -0.00000000000E+00 -0.45593999997E+02  0.45594000000E+02  0.51100000000E-03 0.  1.
    9900012    2    1    2    0    0  0.18029639180E+02 -0.25122587306E+02 -0.26399866617E+02  0.50528865241E+02  0.30000016388E+02 0.  0.
         12    1    1    2    0    0 -0.18029639180E+02  0.25122587306E+02  0.26399866617E+02  0.40659134759E+02  0.00000000000E+00 0. -1.
         11    1    3    3    0    0 -0.49218551213E+01 -0.88318966239E+01  0.50961609058E+00  0.10123574696E+02  0.51100000000E-03 0. -1.
        -11    1    3    3    0    0  0.12168949059E+02 -0.22016192866E+01 -0.11983091264E+02  0.17219899105E+02  0.51100000000E-03 0.  1.
        -12    1    3    3    0    0  0.10782545243E+02 -0.14089071396E+02 -0.14926391443E+02  0.23185391440E+02  0.00000000000E+00 0.  1.
</event>
<event>
 7    1  0.8697654E-014  0.5052886E+02  0.7816164E-02  0.1300439E+00
        -11   -1    0    0    0    0  0.00000000000E+00  0.00000000000E+00  0.45593999997E+02  0.45594000000E+02  0.51100000000E-03 0. -1.
         11   -1    0    0    0    0 -0.00000000000E+00 -0.00000000000E+00 -0.45593999997E+02  0.45594000000E+02  0.51100000000E-03 0.  1.
    9900012    2    1    2    0    0 -0.39879751337E+02 -0.27785071360E+01 -0.74196422840E+01  0.50528858836E+02  0.29999996918E+02 0.  0.
        -12    1    1    2    0    0  0.39879751337E+02  0.27785071360E+01  0.74196422840E+01  0.40659141164E+02  0.00000000000E+00 0.  1.
         11    1    3    3    0    0 -0.69191491498E+01 -0.33770898489E+01  0.75350579912E+01  0.10772950385E+02  0.51100000000E-03 0. -1.
        -11    1    3    3    0    0 -0.80855206223E+00  0.43420350402E+01 -0.24856665434E+01  0.50680926544E+01  0.51100000000E-03 0.  1.
         12    1    3    3    0    0 -0.32152050124E+02 -0.37434523273E+01 -0.12469033732E+02  0.34687815797E+02  0.00000000000E+00 0. -1.
</event>
<event>
 7    1  0.8697654E-014  0.5052891E+02  0.7816164E-02  0.1300439E+00
        -11   -1    0    0    0    0  0.00000000000E+00  0.00000000000E+00  0.45593999997E+02  0.45594000000E+02  0.51100000000E-03 0. -1.
         11   -1    0    0    0    0 -0.00000000000E+00 -0.00000000000E+00 -0.45593999997E+02  0.45594000000E+02  0.51100000000E-03 0.  1.
    9900012    2    1    2    0    0  0.22016761597E+02  0.16057735664E+02 -0.30175706412E+02  0.50528906019E+02  0.30000140336E+02 0.  0.
         12    1    1    2    0    0 -0.22016761597E+02 -0.16057735664E+02  0.30175706412E+02  0.40659093981E+02  0.00000000000E+00 0. -1.
         11    1    3    3    0    0  0.40674295703E+01  0.97836007073E+01 -0.16000120444E+02  0.19190275678E+02  0.51100000000E-03 0. -1.
        -11    1    3    3    0    0  0.91584487272E+01 -0.14726068461E+01 -0.16927653080E+02  0.19302621404E+02  0.51100000000E-03 0.  1.
         12    1    3    3    0    0  0.87908832991E+01  0.77467418025E+01  0.27520671126E+01  0.12036008937E+02  0.00000000000E+00 0. -1.
</event>
<event>
 7    1  0.8697654E-014  0.5052885E+02  0.7816164E-02  0.1300439E+00
        -11   -1    0    0    0    0  0.00000000000E+00  0.00000000000E+00  0.45593999997E+02  0.45594000000E+02  0.51100000000E-03 0. -1.
         11   -1    0    0    0    0 -0.00000000000E+00 -0.00000000000E+00 -0.45593999997E+02  0.45594000000E+02  0.51100000000E-03 0.  1.
    9900012    2    1    2    0    0 -0.29617768952E+02  0.12396726079E+02 -0.24945446558E+02  0.50528851470E+02  0.29999974528E+02 0.  0.
         12    1    1    2    0    0  0.29617768952E+02 -0.12396726079E+02  0.24945446558E+02  0.40659148530E+02  0.00000000000E+00 0. -1.
         11    1    3    3    0    0 -0.11547394515E+02  0.11826482568E+02 -0.36095399918E+00  0.16532945837E+02  0.51100000000E-03 0. -1.
        -11    1    3    3    0    0  0.79461351672E+00  0.40382081434E+01 -0.60939730133E+01  0.73535734849E+01  0.51100000000E-03 0.  1.
         12    1    3    3    0    0 -0.18864987954E+02 -0.34679646322E+01 -0.18490519546E+02  0.26642332148E+02  0.00000000000E+00 0. -1.
</event>
<event>
 7    1  0.8697654E-014  0.5052886E+02  0.7816164E-02  0.1300439E+00
        -11   -1    0    0    0    0  0.00000000000E+00  0.00000000000E+00  0.45593999997E+02  0.45594000000E+02  0.51100000000E-03 0. -1.
         11   -1    0    0    0    0 -0.00000000000E+00 -0.00000000000E+00 -0.45593999997E+02  0.45594000000E+02  0.51100000000E-03 0.  1.
    9900012    2    1    2    0    0  0.16261407486E+02  0.19779096483E+02  0.31583539474E+02  0.50528855926E+02  0.29999988072E+02 0.  0.
        -12    1    1    2    0    0 -0.16261407486E+02 -0.19779096483E+02 -0.31583539474E+02  0.40659144074E+02  0.00000000000E+00 0.  1.
         11    1    3    3    0    0  0.29317181797E+01  0.39888350343E+01  0.15932927340E+01  0.52004190613E+01  0.51100000000E-03 0. -1.
        -11    1    3    3    0    0  0.88820201651E+01 -0.66074360772E+01  0.11309839031E+02  0.15825958198E+02  0.51100000000E-03 0.  1.
        -12    1    3    3    0    0  0.44476691416E+01  0.22397697526E+02  0.18680407710E+02  0.29502478666E+02  0.00000000000E+00 0.  1.
</event>
<event>
 7    1  0.8697654E-014  0.5052888E+02  0.7816164E-02  0.1300439E+00
        -11   -1    0    0    0    0  0.00000000000E+00  0.00000000000E+00  0.45593999997E+02  0.45594000000E+02  0.51100000000E-03 0. -1.
         11   -1    0    0    0    0 -0.00000000000E+00 -0.00000000000E+00 -0.45593999997E+02  0.45594000000E+02  0.51100000000E-03 0.  1.
    9900012    2    1    2    0    0 -0.35466314310E+01  0.35353838265E+02  0.19765918226E+02  0.50528880508E+02  0.30000062791E+02 0.  0.
        -12    1    1    2    0    0  0.35466314310E+01 -0.35353838265E+02 -0.19765918226E+02  0.40659119492E+02  0.00000000000E+00 0.  1.
         11    1    3    3    0    0 -0.85173220665E+00  0.61581407308E+01  0.93176971445E+01  0.11201233207E+02  0.51100000000E-03 0. -1.
        -11    1    3    3    0    0 -0.90887939975E+01  0.13421518528E+01  0.10662224430E+01  0.92490204067E+01  0.51100000000E-03 0.  1.
        -12    1    3    3    0    0  0.63938947731E+01  0.27853545681E+02  0.93819986382E+01  0.30078626894E+02  0.00000000000E+00 0.  1.
</event>
<event>
 7    1  0.8697654E-014  0.5052885E+02  0.7816164E-02  0.1300439E+00
        -11   -1    0    0    0    0  0.00000000000E+00  0.00000000000E+00  0.45593999997E+02  0.45594000000E+02  0.51100000000E-03 0.  1.
         11   -1    0    0    0    0 -0.00000000000E+00 -0.00000000000E+00 -0.45593999997E+02  0.45594000000E+02  0.51100000000E-03 0. -1.
    9900012    2    1    2    0    0  0.38626730189E+02  0.68218883015E+01 -0.10705312047E+02  0.50528854029E+02  0.29999982306E+02 0.  0.
         12    1    1    2    0    0 -0.38626730189E+02 -0.68218883015E+01  0.10705312047E+02  0.40659145971E+02  0.00000000000E+00 0. -1.
         11    1    3    3    0    0 -0.37736134688E+01  0.21657551233E+01 -0.25964530344E+01  0.50667763408E+01  0.51100000000E-03 0. -1.
        -11    1    3    3    0    0  0.24494155418E+02 -0.32062795982E+01 -0.12388095514E+01  0.24734157108E+02  0.51100000000E-03 0.  1.
        -12    1    3    3    0    0  0.17906188240E+02  0.78624127764E+01 -0.68700494612E+01  0.20727920580E+02  0.00000000000E+00 0.  1.
</event>
<event>
 7    1  0.8697654E-014  0.5052886E+02  0.7816164E-02  0.1300439E+00
        -11   -1    0    0    0    0  0.00000000000E+00  0.00000000000E+00  0.45593999997E+02  0.45594000000E+02  0.51100000000E-03 0. -1.
         11   -1    0    0    0    0 -0.00000000000E+00 -0.00000000000E+00 -0.45593999997E+02  0.45594000000E+02  0.51100000000E-03 0.  1.
    9900012    2    1    2    0    0  0.37127740053E+02  0.92676735809E+01 -0.13740696281E+02  0.50528860937E+02  0.30000003306E+02 0.  0.
         12    1    1    2    0    0 -0.37127740053E+02 -0.92676735809E+01  0.13740696281E+02  0.40659139063E+02  0.00000000000E+00 0. -1.
         11    1    3    3    0    0  0.10434882303E+02  0.90323056855E+01 -0.39486100958E+01  0.14354819282E+02  0.51100000000E-03 0. -1.
        -11    1    3    3    0    0  0.25783649575E+02  0.29696890334E+01  0.13210162899E-01  0.25954109754E+02  0.51100000000E-03 0.  1.
         12    1    3    3    0    0  0.90920817475E+00 -0.27343211379E+01 -0.98052963481E+01  0.10219931901E+02  0.00000000000E+00 0. -1.
</event>
<event>
 7    1  0.8697654E-014  0.5052886E+02  0.7816164E-02  0.1300439E+00
        -11   -1    0    0    0    0  0.00000000000E+00  0.00000000000E+00  0.45593999997E+02  0.45594000000E+02  0.51100000000E-03 0. -1.
         11   -1    0    0    0    0 -0.00000000000E+00 -0.00000000000E+00 -0.45593999997E+02  0.45594000000E+02  0.51100000000E-03 0.  1.
    9900012    2    1    2    0    0  0.13457554984E+02  0.35577679216E+02 -0.14362737192E+02  0.50528864935E+02  0.30000015457E+02 0.  0.
         12    1    1    2    0    0 -0.13457554984E+02 -0.35577679216E+02  0.14362737192E+02  0.40659135065E+02  0.00000000000E+00 0. -1.
         11    1    3    3    0    0  0.12545073527E+01  0.89209187756E+01  0.66455380508E+01  0.11194630711E+02  0.51100000000E-03 0. -1.
        -11    1    3    3    0    0  0.90084877787E+01  0.60356790967E+01 -0.18381081650E+01  0.10998223316E+02  0.51100000000E-03 0.  1.
        -12    1    3    3    0    0  0.31945598526E+01  0.20621081344E+02 -0.19170167077E+02  0.28336010909E+02  0.00000000000E+00 0.  1.
</event>
<event>
 7    1  0.8697654E-014  0.5052884E+02  0.7816164E-02  0.1300439E+00
        -11   -1    0    0    0    0  0.00000000000E+00  0.00000000000E+00  0.45593999997E+02  0.45594000000E+02  0.51100000000E-03 0. -1.
         11   -1    0    0    0    0 -0.00000000000E+00 -0.00000000000E+00 -0.45593999997E+02  0.45594000000E+02  0.51100000000E-03 0.  1.
    9900012    2    1    2    0    0 -0.22186147161E+02 -0.17847712539E+02 -0.29024149131E+02  0.50528841112E+02  0.29999943043E+02 0.  0.
         12    1    1    2    0    0  0.22186147161E+02  0.17847712539E+02  0.29024149131E+02  0.40659158888E+02  0.00000000000E+00 0. -1.
         11    1    3    3    0    0 -0.86410330291E+01  0.27345827355E+01 -0.11543365345E+02  0.14676330546E+02  0.51100000000E-03 0. -1.
        -11    1    3    3    0    0 -0.31045876720E+01 -0.87077644135E+00  0.38274919539E+01  0.50046389622E+01  0.51100000000E-03 0.  1.
        -12    1    3    3    0    0 -0.10440526460E+02 -0.19711518833E+02 -0.21308275740E+02  0.30847871603E+02  0.00000000000E+00 0.  1.
</event>
<event>
 7    1  0.8697654E-014  0.5052885E+02  0.7816164E-02  0.1300439E+00
        -11   -1    0    0    0    0  0.00000000000E+00  0.00000000000E+00  0.45593999997E+02  0.45594000000E+02  0.51100000000E-03 0. -1.
         11   -1    0    0    0    0 -0.00000000000E+00 -0.00000000000E+00 -0.45593999997E+02  0.45594000000E+02  0.51100000000E-03 0.  1.
    9900012    2    1    2    0    0  0.52578332883E+01  0.20025809740E+02 -0.34992695120E+02  0.50528848774E+02  0.29999966334E+02 0.  0.
         12    1    1    2    0    0 -0.52578332883E+01 -0.20025809740E+02  0.34992695120E+02  0.40659151226E+02  0.00000000000E+00 0. -1.
         11    1    3    3    0    0 -0.44233686051E+01  0.34921593892E+01 -0.71961640093E+01  0.91403579649E+01  0.51100000000E-03 0. -1.
        -11    1    3    3    0    0  0.77332747781E+01  0.23598310713E+01 -0.25683690932E+02  0.26926275673E+02  0.51100000000E-03 0.  1.
        -12    1    3    3    0    0  0.19479271152E+01  0.14173819280E+02 -0.21128401784E+01  0.14462215136E+02  0.00000000000E+00 0.  1.
</event>
<event>
 7    1  0.8697654E-014  0.5052886E+02  0.7816164E-02  0.1300439E+00
        -11   -1    0    0    0    0  0.00000000000E+00  0.00000000000E+00  0.45593999997E+02  0.45594000000E+02  0.51100000000E-03 0. -1.
         11   -1    0    0    0    0 -0.00000000000E+00 -0.00000000000E+00 -0.45593999997E+02  0.45594000000E+02  0.51100000000E-03 0.  1.
    9900012    2    1    2    0    0 -0.20841042421E+02 -0.18317293935E+02  0.29720252051E+02  0.50528859721E+02  0.29999999607E+02 0.  0.
        -12    1    1    2    0    0  0.20841042421E+02  0.18317293935E+02 -0.29720252051E+02  0.40659140279E+02  0.00000000000E+00 0.  1.
         11    1    3    3    0    0  0.12702332843E+00 -0.88255441688E+01  0.18522489565E+02  0.20518016102E+02  0.51100000000E-03 0.  1.
        -11    1    3    3    0    0 -0.62789100725E+01  0.43108071903E+01  0.21289460155E+01  0.79082350577E+01  0.51100000000E-03 0. -1.
        -12    1    3    3    0    0 -0.14689155677E+02 -0.13802556957E+02  0.90688164696E+01  0.22102608561E+02  0.00000000000E+00 0.  1.
</event>
<event>
 7    1  0.8697654E-014  0.5052887E+02  0.7816164E-02  0.1300439E+00
        -11   -1    0    0    0    0  0.00000000000E+00  0.00000000000E+00  0.45593999997E+02  0.45594000000E+02  0.51100000000E-03 0. -1.
         11   -1    0    0    0    0 -0.00000000000E+00 -0.00000000000E+00 -0.45593999997E+02  0.45594000000E+02  0.51100000000E-03 0.  1.
    9900012    2    1    2    0    0 -0.87528930366E+01  0.76034869078E+01 -0.38971002270E+02  0.50528866124E+02  0.30000019070E+02 0.  0.
         12    1    1    2    0    0  0.87528930366E+01 -0.76034869078E+01  0.38971002270E+02  0.40659133876E+02  0.00000000000E+00 0. -1.
         11    1    3    3    0    0  0.15720118021E+01  0.49698261418E+01 -0.49511055848E+01  0.71891473596E+01  0.51100000000E-03 0. -1.
        -11    1    3    3    0    0  0.53114854490E+01  0.82699207069E+01 -0.16381542367E+02  0.19103884337E+02  0.51100000000E-03 0.  1.
         12    1    3    3    0    0 -0.15636390288E+02 -0.56362599409E+01 -0.17638354318E+02  0.24235834428E+02  0.00000000000E+00 0. -1.
</event>
<event>
 7    1  0.8697654E-014  0.5052886E+02  0.7816164E-02  0.1300439E+00
        -11   -1    0    0    0    0  0.00000000000E+00  0.00000000000E+00  0.45593999997E+02  0.45594000000E+02  0.51100000000E-03 0. -1.
         11   -1    0    0    0    0 -0.00000000000E+00 -0.00000000000E+00 -0.45593999997E+02  0.45594000000E+02  0.51100000000E-03 0.  1.
    9900012    2    1    2    0    0  0.79480155249E+00  0.19508001344E+02 -0.35664714193E+02  0.50528860014E+02  0.30000000498E+02 0.  0.
         12    1    1    2    0    0 -0.79480155249E+00 -0.19508001344E+02  0.35664714193E+02  0.40659139986E+02  0.00000000000E+00 0. -1.
         11    1    3    3    0    0  0.69688352553E+00  0.72889652396E+01 -0.25889868664E+02  0.26905389062E+02  0.51100000000E-03 0. -1.
        -11    1    3    3    0    0  0.88102653016E+01  0.76490276880E+01 -0.52082141816E+01  0.12777084741E+02  0.51100000000E-03 0.  1.
         12    1    3    3    0    0 -0.87123472746E+01  0.45700084167E+01 -0.45666313478E+01  0.10846386211E+02  0.00000000000E+00 0. -1.
</event>
<event>
 7    1  0.8697654E-014  0.5052883E+02  0.7816164E-02  0.1300439E+00
        -11   -1    0    0    0    0  0.00000000000E+00  0.00000000000E+00  0.45593999997E+02  0.45594000000E+02  0.51100000000E-03 0. -1.
         11   -1    0    0    0    0 -0.00000000000E+00 -0.00000000000E+00 -0.45593999997E+02  0.45594000000E+02  0.51100000000E-03 0.  1.
    9900012    2    1    2    0    0  0.60131890900E+01 -0.27551371489E+02  0.29290463045E+02  0.50528834498E+02  0.29999922939E+02 0.  0.
        -12    1    1    2    0    0 -0.60131890900E+01  0.27551371489E+02 -0.29290463045E+02  0.40659165502E+02  0.00000000000E+00 0.  1.
         11    1    3    3    0    0  0.10370821024E+02 -0.30819055235E+01  0.29409429580E+01  0.11211655369E+02  0.51100000000E-03 0. -1.
        -11    1    3    3    0    0  0.81830162910E-01  0.11037637863E+01  0.66261297329E+01  0.67179301999E+01  0.51100000000E-03 0.  1.
         12    1    3    3    0    0 -0.44394620973E+01 -0.25573229752E+02  0.19723390354E+02  0.32599248929E+02  0.00000000000E+00 0. -1.
</event>
<event>
 7    1  0.8697654E-014  0.5052887E+02  0.7816164E-02  0.1300439E+00
        -11   -1    0    0    0    0  0.00000000000E+00  0.00000000000E+00  0.45593999997E+02  0.45594000000E+02  0.51100000000E-03 0. -1.
         11   -1    0    0    0    0 -0.00000000000E+00 -0.00000000000E+00 -0.45593999997E+02  0.45594000000E+02  0.51100000000E-03 0.  1.
    9900012    2    1    2    0    0  0.23428878873E+02 -0.94964789583E+01  0.31844456156E+02  0.50528869835E+02  0.30000030352E+02 0.  0.
        -12    1    1    2    0    0 -0.23428878873E+02  0.94964789583E+01 -0.31844456156E+02  0.40659130165E+02  0.00000000000E+00 0.  1.
         11    1    3    3    0    0 -0.54711581191E+01  0.20314401598E+01  0.59439120402E+01  0.83300906891E+01  0.51100000000E-03 0.  1.
        -11    1    3    3    0    0 -0.20956204145E+00 -0.83382738971E+00  0.43502878749E+01  0.44344322321E+01  0.51100000000E-03 0. -1.
        -12    1    3    3    0    0  0.29109599034E+02 -0.10694091728E+02  0.21550256241E+02  0.37764346914E+02  0.00000000000E+00 0.  1.
</event>
<event>
 7    1  0.8697654E-014  0.5052886E+02  0.7816164E-02  0.1300439E+00
        -11   -1    0    0    0    0  0.00000000000E+00  0.00000000000E+00  0.45593999997E+02  0.45594000000E+02  0.51100000000E-03 0. -1.
         11   -1    0    0    0    0 -0.00000000000E+00 -0.00000000000E+00 -0.45593999997E+02  0.45594000000E+02  0.51100000000E-03 0.  1.
    9900012    2    1    2    0    0 -0.24036272146E+01 -0.23020079107E+02  0.33428493858E+02  0.50528859976E+02  0.30000000384E+02 0.  0.
        -12    1    1    2    0    0  0.24036272146E+01  0.23020079107E+02 -0.33428493858E+02  0.40659140024E+02  0.00000000000E+00 0.  1.
         11    1    3    3    0    0 -0.10308029867E+01  0.20953876060E+00  0.23508413838E+01  0.25754449640E+01  0.51100000000E-03 0. -1.
        -11    1    3    3    0    0  0.97279255626E+01 -0.22753064513E+02  0.17013629008E+02  0.30029952594E+02  0.51100000000E-03 0.  1.
        -12    1    3    3    0    0 -0.11100749791E+02 -0.47655335397E+00  0.14064023466E+02  0.17923462418E+02  0.00000000000E+00 0.  1.
</event>
<event>
 7    1  0.8697654E-014  0.5052886E+02  0.7816164E-02  0.1300439E+00
        -11   -1    0    0    0    0  0.00000000000E+00  0.00000000000E+00  0.45593999997E+02  0.45594000000E+02  0.51100000000E-03 0.  1.
         11   -1    0    0    0    0 -0.00000000000E+00 -0.00000000000E+00 -0.45593999997E+02  0.45594000000E+02  0.51100000000E-03 0. -1.
    9900012    2    1    2    0    0 -0.23039311880E+02 -0.31109499038E+00  0.33500131045E+02  0.50528862626E+02  0.30000008437E+02 0.  0.
        -12    1    1    2    0    0  0.23039311880E+02  0.31109499038E+00 -0.33500131045E+02  0.40659137374E+02  0.00000000000E+00 0.  1.
         11    1    3    3    0    0 -0.14174747978E+02 -0.89868069154E+01  0.17045092251E+02  0.23921148570E+02  0.51100000000E-03 0. -1.
        -11    1    3    3    0    0 -0.24613578995E-01  0.93604265642E+00  0.14697903790E+02  0.14727700356E+02  0.51100000000E-03 0.  1.
        -12    1    3    3    0    0 -0.88399503229E+01  0.77396692686E+01  0.17571350036E+01  0.11880013700E+02  0.00000000000E+00 0.  1.
</event>
<event>
 7    1  0.8697654E-014  0.5052890E+02  0.7816164E-02  0.1300439E+00
        -11   -1    0    0    0    0  0.00000000000E+00  0.00000000000E+00  0.45593999997E+02  0.45594000000E+02  0.51100000000E-03 0. -1.
         11   -1    0    0    0    0 -0.00000000000E+00 -0.00000000000E+00 -0.45593999997E+02  0.45594000000E+02  0.51100000000E-03 0.  1.
    9900012    2    1    2    0    0 -0.15958937449E+02  0.79647998148E+01 -0.36538158365E+02  0.50528896010E+02  0.30000109912E+02 0.  0.
         12    1    1    2    0    0  0.15958937449E+02 -0.79647998148E+01  0.36538158365E+02  0.40659103990E+02  0.00000000000E+00 0. -1.
         11    1    3    3    0    0 -0.92386760834E+01 -0.62597916418E+01 -0.21401928302E+02  0.24136707781E+02  0.51100000000E-03 0. -1.
        -11    1    3    3    0    0  0.44379800193E+01  0.66939112399E+01 -0.70623062599E+01  0.10694871870E+02  0.51100000000E-03 0.  1.
        -12    1    3    3    0    0 -0.11158241385E+02  0.75306802167E+01 -0.80739238027E+01  0.15697316360E+02  0.00000000000E+00 0.  1.
</event>
<event>
 7    1  0.8697654E-014  0.5052885E+02  0.7816164E-02  0.1300439E+00
        -11   -1    0    0    0    0  0.00000000000E+00  0.00000000000E+00  0.45593999997E+02  0.45594000000E+02  0.51100000000E-03 0. -1.
         11   -1    0    0    0    0 -0.00000000000E+00 -0.00000000000E+00 -0.45593999997E+02  0.45594000000E+02  0.51100000000E-03 0.  1.
    9900012    2    1    2    0    0  0.21618762345E+02 -0.19500739270E+01  0.34380120287E+02  0.50528851649E+02  0.29999975073E+02 0.  0.
        -12    1    1    2    0    0 -0.21618762345E+02  0.19500739270E+01 -0.34380120287E+02  0.40659148351E+02  0.00000000000E+00 0.  1.
         11    1    3    3    0    0  0.18358873919E+02 -0.28218578221E+01  0.18880466540E+02  0.26485527184E+02  0.51100000000E-03 0. -1.
        -11    1    3    3    0    0 -0.35288950719E+01 -0.66618437527E+01  0.99485832523E+01  0.12482290319E+02  0.51100000000E-03 0.  1.
         12    1    3    3    0    0  0.67887834970E+01  0.75336276478E+01  0.55510704948E+01  0.11561034147E+02  0.00000000000E+00 0. -1.
</event>
<event>
 7    1  0.8697654E-014  0.5052886E+02  0.7816164E-02  0.1300439E+00
        -11   -1    0    0    0    0  0.00000000000E+00  0.00000000000E+00  0.45593999997E+02  0.45594000000E+02  0.51100000000E-03 0. -1.
         11   -1    0    0    0    0 -0.00000000000E+00 -0.00000000000E+00 -0.45593999997E+02  0.45594000000E+02  0.51100000000E-03 0.  1.
    9900012    2    1    2    0    0  0.25584982869E+01 -0.18791698372E+02  0.35965150913E+02  0.50528856854E+02  0.29999990894E+02 0.  0.
        -12    1    1    2    0    0 -0.25584982869E+01  0.18791698372E+02 -0.35965150913E+02  0.40659143146E+02  0.00000000000E+00 0.  1.
         11    1    3    3    0    0  0.80272017331E+01 -0.13556382438E+02  0.29872036476E+02  0.33772030379E+02  0.51100000000E-03 0. -1.
        -11    1    3    3    0    0  0.57540351167E-01  0.27902500178E+01  0.64271407600E+01  0.70069211972E+01  0.51100000000E-03 0.  1.
         12    1    3    3    0    0 -0.55262437974E+01 -0.80255659509E+01 -0.33402632283E+00  0.97499052777E+01  0.00000000000E+00 0. -1.
</event>
<event>
 7    1  0.8697654E-014  0.5052886E+02  0.7816164E-02  0.1300439E+00
        -11   -1    0    0    0    0  0.00000000000E+00  0.00000000000E+00  0.45593999997E+02  0.45594000000E+02  0.51100000000E-03 0. -1.
         11   -1    0    0    0    0 -0.00000000000E+00 -0.00000000000E+00 -0.45593999997E+02  0.45594000000E+02  0.51100000000E-03 0.  1.
    9900012    2    1    2    0    0 -0.14688214040E+02  0.35499821967E+02 -0.13311070486E+02  0.50528860943E+02  0.30000003323E+02 0.  0.
         12    1    1    2    0    0  0.14688214040E+02 -0.35499821967E+02  0.13311070486E+02  0.40659139057E+02  0.00000000000E+00 0. -1.
         11    1    3    3    0    0  0.10072123493E+01 -0.46187330425E-01 -0.27518912953E+01  0.29307875987E+01  0.51100000000E-03 0. -1.
        -11    1    3    3    0    0 -0.77422405855E+01  0.26608286283E+02 -0.18426834063E+02  0.33278993405E+02  0.51100000000E-03 0.  1.
        -12    1    3    3    0    0 -0.79531858039E+01  0.89377230139E+01  0.78676548726E+01  0.14319079939E+02  0.00000000000E+00 0.  1.
</event>
<event>
 7    1  0.8697654E-014  0.5052886E+02  0.7816164E-02  0.1300439E+00
        -11   -1    0    0    0    0  0.00000000000E+00  0.00000000000E+00  0.45593999997E+02  0.45594000000E+02  0.51100000000E-03 0. -1.
         11   -1    0    0    0    0 -0.00000000000E+00 -0.00000000000E+00 -0.45593999997E+02  0.45594000000E+02  0.51100000000E-03 0.  1.
    9900012    2    1    2    0    0  0.48274331857E+01 -0.37093901872E+02 -0.15934369025E+02  0.50528858550E+02  0.29999996049E+02 0.  0.
         12    1    1    2    0    0 -0.48274331857E+01  0.37093901872E+02  0.15934369025E+02  0.40659141450E+02  0.00000000000E+00 0. -1.
         11    1    3    3    0    0 -0.47590591460E+01 -0.78438318734E+01  0.29732798356E+01  0.96444147389E+01  0.51100000000E-03 0. -1.
        -11    1    3    3    0    0 -0.18571857930E+01 -0.22234696229E+02 -0.15066928462E+02  0.26922911971E+02  0.51100000000E-03 0.  1.
         12    1    3    3    0    0  0.11443678125E+02 -0.70153737694E+01 -0.38407203987E+01  0.13961531840E+02  0.00000000000E+00 0. -1.
</event>
<event>
 7    1  0.8697654E-014  0.5052887E+02  0.7816164E-02  0.1300439E+00
        -11   -1    0    0    0    0  0.00000000000E+00  0.00000000000E+00  0.45593999997E+02  0.45594000000E+02  0.51100000000E-03 0. -1.
         11   -1    0    0    0    0 -0.00000000000E+00 -0.00000000000E+00 -0.45593999997E+02  0.45594000000E+02  0.51100000000E-03 0.  1.
    9900012    2    1    2    0    0  0.12836891154E+01 -0.24686347300E+02 -0.32281592858E+02  0.50528870174E+02  0.30000031382E+02 0.  0.
         12    1    1    2    0    0 -0.12836891154E+01  0.24686347300E+02  0.32281592858E+02  0.40659129826E+02  0.00000000000E+00 0. -1.
         11    1    3    3    0    0 -0.26603150672E+01 -0.57200576688E+01 -0.34045303406E+01  0.71684840163E+01  0.51100000000E-03 0. -1.
        -11    1    3    3    0    0 -0.10406330373E+02 -0.12942232007E+02 -0.12650028177E+02  0.20876213600E+02  0.51100000000E-03 0.  1.
        -12    1    3    3    0    0  0.14350334555E+02 -0.60240576239E+01 -0.16227034341E+02  0.22484172558E+02  0.00000000000E+00 0.  1.
</event>
<event>
 7    1  0.8697654E-014  0.5052887E+02  0.7816164E-02  0.1300439E+00
        -11   -1    0    0    0    0  0.00000000000E+00  0.00000000000E+00  0.45593999997E+02  0.45594000000E+02  0.51100000000E-03 0. -1.
         11   -1    0    0    0    0 -0.00000000000E+00 -0.00000000000E+00 -0.45593999997E+02  0.45594000000E+02  0.51100000000E-03 0.  1.
    9900012    2    1    2    0    0 -0.37276312012E+02  0.13896322909E+02 -0.83984462685E+01  0.50528866619E+02  0.30000020575E+02 0.  0.
         12    1    1    2    0    0  0.37276312012E+02 -0.13896322909E+02  0.83984462685E+01  0.40659133381E+02  0.00000000000E+00 0. -1.
         11    1    3    3    0    0 -0.16181834419E+02  0.69198047749E-01 -0.37602725073E+01  0.16613133453E+02  0.51100000000E-03 0. -1.
        -11    1    3    3    0    0 -0.80202182994E+01  0.16209255179E+02 -0.86316362996E+01  0.20039186623E+02  0.51100000000E-03 0.  1.
         12    1    3    3    0    0 -0.13074259293E+02 -0.23821303185E+01  0.39934625383E+01  0.13876546543E+02  0.00000000000E+00 0. -1.
</event>
<event>
 7    1  0.8697654E-014  0.5052886E+02  0.7816164E-02  0.1300439E+00
        -11   -1    0    0    0    0  0.00000000000E+00  0.00000000000E+00  0.45593999997E+02  0.45594000000E+02  0.51100000000E-03 0. -1.
         11   -1    0    0    0    0 -0.00000000000E+00 -0.00000000000E+00 -0.45593999997E+02  0.45594000000E+02  0.51100000000E-03 0.  1.
    9900012    2    1    2    0    0  0.32811922335E+01 -0.14925493987E+02 -0.37677969494E+02  0.50528856153E+02  0.29999988763E+02 0.  0.
         12    1    1    2    0    0 -0.32811922335E+01  0.14925493987E+02  0.37677969494E+02  0.40659143847E+02  0.00000000000E+00 0. -1.
         11    1    3    3    0    0 -0.73222820608E+01 -0.26756358790E+00 -0.25157631776E+01  0.77470297197E+01  0.51100000000E-03 0. -1.
        -11    1    3    3    0    0  0.58924573955E+01  0.24343718850E+01 -0.12262614814E+02  0.13820960277E+02  0.51100000000E-03 0.  1.
        -12    1    3    3    0    0  0.47110168988E+01 -0.17092302284E+02 -0.22899591502E+02  0.28960866157E+02  0.00000000000E+00 0.  1.
</event>
<event>
 7    1  0.8697654E-014  0.5052887E+02  0.7816164E-02  0.1300439E+00
        -11   -1    0    0    0    0  0.00000000000E+00  0.00000000000E+00  0.45593999997E+02  0.45594000000E+02  0.51100000000E-03 0. -1.
         11   -1    0    0    0    0 -0.00000000000E+00 -0.00000000000E+00 -0.45593999997E+02  0.45594000000E+02  0.51100000000E-03 0.  1.
    9900012    2    1    2    0    0  0.22191742730E+02 -0.60779548556E+01 -0.33522376804E+02  0.50528871539E+02  0.30000035530E+02 0.  0.
         12    1    1    2    0    0 -0.22191742730E+02  0.60779548556E+01  0.33522376804E+02  0.40659128461E+02  0.00000000000E+00 0. -1.
         11    1    3    3    0    0 -0.36709179558E+00  0.67634300307E+01 -0.42723349698E+00  0.67868454299E+01  0.51100000000E-03 0. -1.
        -11    1    3    3    0    0  0.37107353054E+01  0.16416918443E+01 -0.91145848887E+01  0.99769918599E+01  0.51100000000E-03 0.  1.
        -12    1    3    3    0    0  0.18848099220E+02 -0.14483076731E+02 -0.23980558418E+02  0.33765034249E+02  0.00000000000E+00 0.  1.
</event>
<event>
 7    1  0.8697654E-014  0.5052886E+02  0.7816164E-02  0.1300439E+00
        -11   -1    0    0    0    0  0.00000000000E+00  0.00000000000E+00  0.45593999997E+02  0.45594000000E+02  0.51100000000E-03 0. -1.
         11   -1    0    0    0    0 -0.00000000000E+00 -0.00000000000E+00 -0.45593999997E+02  0.45594000000E+02  0.51100000000E-03 0.  1.
    9900012    2    1    2    0    0 -0.24818422887E+01 -0.40550726221E+02 -0.16262697639E+01  0.50528859681E+02  0.29999999486E+02 0.  0.
         12    1    1    2    0    0  0.24818422887E+01  0.40550726221E+02  0.16262697639E+01  0.40659140319E+02  0.00000000000E+00 0. -1.
         11    1    3    3    0    0  0.26012811713E+01  0.32719030973E+01  0.30409894025E+00  0.41910010781E+01  0.51100000000E-03 0. -1.
        -11    1    3    3    0    0  0.28971817255E+01 -0.79077886815E+01  0.35531896942E+01  0.91406750870E+01  0.51100000000E-03 0.  1.
        -12    1    3    3    0    0 -0.79803051855E+01 -0.35914840636E+02 -0.54835583984E+01  0.37197183516E+02  0.00000000000E+00 0.  1.
</event>
<event>
 7    1  0.8697654E-014  0.5052886E+02  0.7816164E-02  0.1300439E+00
        -11   -1    0    0    0    0  0.00000000000E+00  0.00000000000E+00  0.45593999997E+02  0.45594000000E+02  0.51100000000E-03 0. -1.
         11   -1    0    0    0    0 -0.00000000000E+00 -0.00000000000E+00 -0.45593999997E+02  0.45594000000E+02  0.51100000000E-03 0.  1.
    9900012    2    1    2    0    0 -0.32082039118E+02  0.19419930107E+02  0.15709074687E+02  0.50528856541E+02  0.29999989941E+02 0.  0.
        -12    1    1    2    0    0  0.32082039118E+02 -0.19419930107E+02 -0.15709074687E+02  0.40659143459E+02  0.00000000000E+00 0.  1.
         11    1    3    3    0    0 -0.26011353644E+01  0.12150446930E+01  0.58541570710E+01  0.65202296020E+01  0.51100000000E-03 0. -1.
        -11    1    3    3    0    0 -0.22339017787E+01 -0.57326635807E+00  0.10661146347E+02  0.10907749226E+02  0.51100000000E-03 0.  1.
        -12    1    3    3    0    0 -0.27247001975E+02  0.18778151772E+02 -0.80622873130E+00  0.33100877713E+02  0.00000000000E+00 0.  1.
</event>
<event>
 7    1  0.8697654E-014  0.5052886E+02  0.7816164E-02  0.1300439E+00
        -11   -1    0    0    0    0  0.00000000000E+00  0.00000000000E+00  0.45593999997E+02  0.45594000000E+02  0.51100000000E-03 0.  1.
         11   -1    0    0    0    0 -0.00000000000E+00 -0.00000000000E+00 -0.45593999997E+02  0.45594000000E+02  0.51100000000E-03 0. -1.
    9900012    2    1    2    0    0 -0.23818609169E+02 -0.21382716500E+02 -0.25072273154E+02  0.50528860944E+02  0.30000003324E+02 0.  0.
         12    1    1    2    0    0  0.23818609169E+02  0.21382716500E+02  0.25072273154E+02  0.40659139056E+02  0.00000000000E+00 0. -1.
         11    1    3    3    0    0  0.33779419624E+01 -0.55460554383E+00 -0.63322260094E+01  0.71982751897E+01  0.51100000000E-03 0. -1.
        -11    1    3    3    0    0 -0.81396393872E+01  0.26452049556E+01 -0.63416739470E+01  0.10652120320E+02  0.51100000000E-03 0.  1.
        -12    1    3    3    0    0 -0.19056911744E+02 -0.23473315912E+02 -0.12398373198E+02  0.32678465433E+02  0.00000000000E+00 0.  1.
</event>
<event>
 7    1  0.8697654E-014  0.5052886E+02  0.7816164E-02  0.1300439E+00
        -11   -1    0    0    0    0  0.00000000000E+00  0.00000000000E+00  0.45593999997E+02  0.45594000000E+02  0.51100000000E-03 0. -1.
         11   -1    0    0    0    0 -0.00000000000E+00 -0.00000000000E+00 -0.45593999997E+02  0.45594000000E+02  0.51100000000E-03 0.  1.
    9900012    2    1    2    0    0  0.34919978852E+01  0.69197304280E+01  0.39913521260E+02  0.50528857144E+02  0.29999991774E+02 0.  0.
        -12    1    1    2    0    0 -0.34919978852E+01 -0.69197304280E+01 -0.39913521260E+02  0.40659142856E+02  0.00000000000E+00 0.  1.
         11    1    3    3    0    0 -0.88731223752E+01  0.28583109698E+01  0.86728099482E+01  0.12732630323E+02  0.51100000000E-03 0. -1.
        -11    1    3    3    0    0  0.11189957091E+01 -0.60259239750E+01  0.10056945814E+02  0.11777354139E+02  0.51100000000E-03 0.  1.
        -12    1    3    3    0    0  0.11246124551E+02  0.10087343433E+02  0.21183765498E+02  0.26018872682E+02  0.00000000000E+00 0.  1.
</event>
<event>
 7    1  0.8697654E-014  0.5052886E+02  0.7816164E-02  0.1300439E+00
        -11   -1    0    0    0    0  0.00000000000E+00  0.00000000000E+00  0.45593999997E+02  0.45594000000E+02  0.51100000000E-03 0.  1.
         11   -1    0    0    0    0 -0.00000000000E+00 -0.00000000000E+00 -0.45593999997E+02  0.45594000000E+02  0.51100000000E-03 0. -1.
    9900012    2    1    2    0    0  0.22622926958E+02  0.33224999543E+02 -0.61211578313E+01  0.50528855986E+02  0.29999988254E+02 0.  0.
        -12    1    1    2    0    0 -0.22622926958E+02 -0.33224999543E+02  0.61211578313E+01  0.40659144014E+02  0.00000000000E+00 0.  1.
         11    1    3    3    0    0  0.14867983666E+02  0.22392639354E+02 -0.16918213124E+01  0.26932313216E+02  0.51100000000E-03 0. -1.
        -11    1    3    3    0    0  0.22061783515E+01  0.15307759041E+02 -0.54438467507E+01  0.16396041519E+02  0.51100000000E-03 0.  1.
        -12    1    3    3    0    0  0.55487649407E+01 -0.44753988526E+01  0.10145102319E+01  0.72005012511E+01  0.00000000000E+00 0.  1.
</event>
<event>
 7    1  0.8697654E-014  0.5052886E+02  0.7816164E-02  0.1300439E+00
        -11   -1    0    0    0    0  0.00000000000E+00  0.00000000000E+00  0.45593999997E+02  0.45594000000E+02  0.51100000000E-03 0.  1.
         11   -1    0    0    0    0 -0.00000000000E+00 -0.00000000000E+00 -0.45593999997E+02  0.45594000000E+02  0.51100000000E-03 0. -1.
    9900012    2    1    2    0    0  0.38457985945E+01 -0.37763257367E+02 -0.14570925306E+02  0.50528860338E+02  0.30000001484E+02 0.  0.
         12    1    1    2    0    0 -0.38457985945E+01  0.37763257367E+02  0.14570925306E+02  0.40659139662E+02  0.00000000000E+00 0. -1.
         11    1    3    3    0    0  0.27886176849E+01 -0.38806618544E+00  0.76335278796E+00  0.29171375862E+01  0.51100000000E-03 0. -1.
        -11    1    3    3    0    0 -0.10056734583E+02 -0.28227240685E+02 -0.63104057702E+01  0.30622479462E+02  0.51100000000E-03 0.  1.
         12    1    3    3    0    0  0.11113915493E+02 -0.91479504964E+01 -0.90238723233E+01  0.16989243290E+02  0.00000000000E+00 0. -1.
</event>
<event>
 7    1  0.8697654E-014  0.5052885E+02  0.7816164E-02  0.1300439E+00
        -11   -1    0    0    0    0  0.00000000000E+00  0.00000000000E+00  0.45593999997E+02  0.45594000000E+02  0.51100000000E-03 0. -1.
         11   -1    0    0    0    0 -0.00000000000E+00 -0.00000000000E+00 -0.45593999997E+02  0.45594000000E+02  0.51100000000E-03 0.  1.
    9900012    2    1    2    0    0  0.11737574013E+02 -0.17900452143E+02  0.34568332247E+02  0.50528850661E+02  0.29999972069E+02 0.  0.
        -12    1    1    2    0    0 -0.11737574013E+02  0.17900452143E+02 -0.34568332247E+02  0.40659149339E+02  0.00000000000E+00 0.  1.
         11    1    3    3    0    0  0.58225488674E+01 -0.43886215458E+01  0.21580868383E+02  0.22779287847E+02  0.51100000000E-03 0. -1.
        -11    1    3    3    0    0 -0.22810727475E+01 -0.46865573541E+01  0.14688522231E+02  0.15585884585E+02  0.51100000000E-03 0.  1.
        -12    1    3    3    0    0  0.81960978931E+01 -0.88252732434E+01 -0.17010583670E+01  0.12163678229E+02  0.00000000000E+00 0.  1.
</event>
<event>
 7    1  0.8697654E-014  0.5052886E+02  0.7816164E-02  0.1300439E+00
        -11   -1    0    0    0    0  0.00000000000E+00  0.00000000000E+00  0.45593999997E+02  0.45594000000E+02  0.51100000000E-03 0. -1.
         11   -1    0    0    0    0 -0.00000000000E+00 -0.00000000000E+00 -0.45593999997E+02  0.45594000000E+02  0.51100000000E-03 0.  1.
    9900012    2    1    2    0    0 -0.75642643328E+01 -0.23112623020E+02  0.32584567596E+02  0.50528862242E+02  0.30000007271E+02 0.  0.
        -12    1    1    2    0    0  0.75642643328E+01  0.23112623020E+02 -0.32584567596E+02  0.40659137758E+02  0.00000000000E+00 0.  1.
         11    1    3    3    0    0  0.19853765475E+01 -0.71851052874E+01  0.97888250034E+01  0.12304005577E+02  0.51100000000E-03 0. -1.
        -11    1    3    3    0    0 -0.67390750824E+00  0.37793291444E+01 -0.27798972493E+01  0.47397583366E+01  0.51100000000E-03 0.  1.
         12    1    3    3    0    0 -0.88757333721E+01 -0.19706846877E+02  0.25575639842E+02  0.33485098329E+02  0.00000000000E+00 0. -1.
</event>
<event>
 7    1  0.8697654E-014  0.5052886E+02  0.7816164E-02  0.1300439E+00
        -11   -1    0    0    0    0  0.00000000000E+00  0.00000000000E+00  0.45593999997E+02  0.45594000000E+02  0.51100000000E-03 0. -1.
         11   -1    0    0    0    0 -0.00000000000E+00 -0.00000000000E+00 -0.45593999997E+02  0.45594000000E+02  0.51100000000E-03 0.  1.
    9900012    2    1    2    0    0  0.17725557534E+02 -0.11087223274E+02  0.34871823285E+02  0.50528856268E+02  0.29999989111E+02 0.  0.
        -12    1    1    2    0    0 -0.17725557534E+02  0.11087223274E+02 -0.34871823285E+02  0.40659143732E+02  0.00000000000E+00 0.  1.
         11    1    3    3    0    0  0.77968825579E+01 -0.33420133097E+01  0.28573777956E+01  0.89512590574E+01  0.51100000000E-03 0. -1.
        -11    1    3    3    0    0  0.16693377289E+02 -0.16654006092E+01  0.24928392019E+02  0.30047747560E+02  0.51100000000E-03 0.  1.
        -12    1    3    3    0    0 -0.67647023131E+01 -0.60798093549E+01  0.70860534701E+01  0.11529849650E+02  0.00000000000E+00 0.  1.
</event>
<event>
 7    1  0.8697654E-014  0.5052886E+02  0.7816164E-02  0.1300439E+00
        -11   -1    0    0    0    0  0.00000000000E+00  0.00000000000E+00  0.45593999997E+02  0.45594000000E+02  0.51100000000E-03 0. -1.
         11   -1    0    0    0    0 -0.00000000000E+00 -0.00000000000E+00 -0.45593999997E+02  0.45594000000E+02  0.51100000000E-03 0.  1.
    9900012    2    1    2    0    0 -0.11870325908E+02 -0.29097170639E+01 -0.38778790274E+02  0.50528859998E+02  0.30000000451E+02 0.  0.
         12    1    1    2    0    0  0.11870325908E+02  0.29097170639E+01  0.38778790274E+02  0.40659140002E+02  0.00000000000E+00 0. -1.
         11    1    3    3    0    0  0.80851464418E+01  0.10511571140E+01 -0.74401989298E+01  0.11037711930E+02  0.51100000000E-03 0. -1.
        -11    1    3    3    0    0 -0.12302190806E+01 -0.47778243177E+01 -0.95578722308E+01  0.10756112961E+02  0.51100000000E-03 0.  1.
         12    1    3    3    0    0 -0.18725253269E+02  0.81695013986E+00 -0.21780719113E+02  0.28735035107E+02  0.00000000000E+00 0. -1.
</event>
<event>
 7    1  0.8697654E-014  0.5052889E+02  0.7816164E-02  0.1300439E+00
        -11   -1    0    0    0    0  0.00000000000E+00  0.00000000000E+00  0.45593999997E+02  0.45594000000E+02  0.51100000000E-03 0. -1.
         11   -1    0    0    0    0 -0.00000000000E+00 -0.00000000000E+00 -0.45593999997E+02  0.45594000000E+02  0.51100000000E-03 0.  1.
    9900012    2    1    2    0    0 -0.14604099641E+02  0.24719643853E+02  0.28789279254E+02  0.50528891321E+02  0.30000095660E+02 0.  0.
        -12    1    1    2    0    0  0.14604099641E+02 -0.24719643853E+02 -0.28789279254E+02  0.40659108679E+02  0.00000000000E+00 0.  1.
         11    1    3    3    0    0 -0.56741735770E+01  0.56280766057E+01  0.78942574286E+01  0.11233467527E+02  0.51100000000E-03 0. -1.
        -11    1    3    3    0    0  0.40715971306E+01  0.17064270667E+02  0.42016927478E+01  0.18039441754E+02  0.51100000000E-03 0.  1.
         12    1    3    3    0    0 -0.13001523195E+02  0.20272965804E+01  0.16693329078E+02  0.21255982040E+02  0.00000000000E+00 0. -1.
</event>
<event>
 7    1  0.8697654E-014  0.5052887E+02  0.7816164E-02  0.1300439E+00
        -11   -1    0    0    0    0  0.00000000000E+00  0.00000000000E+00  0.45593999997E+02  0.45594000000E+02  0.51100000000E-03 0. -1.
         11   -1    0    0    0    0 -0.00000000000E+00 -0.00000000000E+00 -0.45593999997E+02  0.45594000000E+02  0.51100000000E-03 0.  1.
    9900012    2    1    2    0    0 -0.48955618361E+01 -0.31134017610E+02 -0.25687954179E+02  0.50528873495E+02  0.30000041476E+02 0.  0.
         12    1    1    2    0    0  0.48955618361E+01  0.31134017610E+02  0.25687954179E+02  0.40659126505E+02  0.00000000000E+00 0. -1.
         11    1    3    3    0    0  0.89342888949E+01 -0.16462269061E+02 -0.18593192596E+02  0.26391942556E+02  0.51100000000E-03 0. -1.
        -11    1    3    3    0    0 -0.40221753491E+01 -0.10204552838E+02 -0.76059287122E+01  0.13347694370E+02  0.51100000000E-03 0.  1.
         12    1    3    3    0    0 -0.98076753819E+01 -0.44671957103E+01  0.51116712906E+00  0.10789236569E+02  0.00000000000E+00 0. -1.
</event>
<event>
 7    1  0.8697654E-014  0.5052885E+02  0.7816164E-02  0.1300439E+00
        -11   -1    0    0    0    0  0.00000000000E+00  0.00000000000E+00  0.45593999997E+02  0.45594000000E+02  0.51100000000E-03 0. -1.
         11   -1    0    0    0    0 -0.00000000000E+00 -0.00000000000E+00 -0.45593999997E+02  0.45594000000E+02  0.51100000000E-03 0.  1.
    9900012    2    1    2    0    0 -0.23329574479E+02 -0.15778363039E+01  0.33262712846E+02  0.50528847542E+02  0.29999962587E+02 0.  0.
        -12    1    1    2    0    0  0.23329574479E+02  0.15778363039E+01 -0.33262712846E+02  0.40659152458E+02  0.00000000000E+00 0.  1.
         11    1    3    3    0    0 -0.67706484408E+01 -0.10935930094E+02  0.11652784181E+02  0.17355795193E+02  0.51100000000E-03 0. -1.
        -11    1    3    3    0    0 -0.49170857687E+01  0.26827469157E+01 -0.20562192685E+01  0.59668166900E+01  0.51100000000E-03 0.  1.
        -12    1    3    3    0    0 -0.11641840269E+02  0.66753468744E+01  0.23666147933E+02  0.27206235659E+02  0.00000000000E+00 0.  1.
</event>
<event>
 7    1  0.8697654E-014  0.5052886E+02  0.7816164E-02  0.1300439E+00
        -11   -1    0    0    0    0  0.00000000000E+00  0.00000000000E+00  0.45593999997E+02  0.45594000000E+02  0.51100000000E-03 0. -1.
         11   -1    0    0    0    0 -0.00000000000E+00 -0.00000000000E+00 -0.45593999997E+02  0.45594000000E+02  0.51100000000E-03 0.  1.
    9900012    2    1    2    0    0 -0.72233008218E+01  0.23031568617E+02  0.32719047425E+02  0.50528864592E+02  0.30000014414E+02 0.  0.
        -12    1    1    2    0    0  0.72233008218E+01 -0.23031568617E+02 -0.32719047425E+02  0.40659135408E+02  0.00000000000E+00 0.  1.
         11    1    3    3    0    0  0.40005544068E+01  0.42684169256E+01  0.73090709978E+01  0.93619622796E+01  0.51100000000E-03 0. -1.
        -11    1    3    3    0    0 -0.56292609280E+01  0.23436459830E+02  0.14767447913E+02  0.28267184969E+02  0.51100000000E-03 0.  1.
        -12    1    3    3    0    0 -0.55945943006E+01 -0.46733081390E+01  0.10642528514E+02  0.12899717343E+02  0.00000000000E+00 0.  1.
</event>
<event>
 7    1  0.8697654E-014  0.5052886E+02  0.7816164E-02  0.1300439E+00
        -11   -1    0    0    0    0  0.00000000000E+00  0.00000000000E+00  0.45593999997E+02  0.45594000000E+02  0.51100000000E-03 0. -1.
         11   -1    0    0    0    0 -0.00000000000E+00 -0.00000000000E+00 -0.45593999997E+02  0.45594000000E+02  0.51100000000E-03 0.  1.
    9900012    2    1    2    0    0  0.10297850012E+02  0.82391693018E+01 -0.38460840540E+02  0.50528857354E+02  0.29999992414E+02 0.  0.
         12    1    1    2    0    0 -0.10297850012E+02 -0.82391693018E+01  0.38460840540E+02  0.40659142646E+02  0.00000000000E+00 0. -1.
         11    1    3    3    0    0  0.66891014615E+01 -0.24456136988E+01 -0.84772348957E+00  0.71724291633E+01  0.51100000000E-03 0. -1.
        -11    1    3    3    0    0  0.59686323556E+01 -0.32163469132E+01 -0.17722400060E+02  0.18975060575E+02  0.51100000000E-03 0.  1.
         12    1    3    3    0    0 -0.23598838051E+01  0.13901129914E+02 -0.19890716990E+02  0.24381367616E+02  0.00000000000E+00 0. -1.
</event>
<event>
 7    1  0.8697654E-014  0.5052883E+02  0.7816164E-02  0.1300439E+00
        -11   -1    0    0    0    0  0.00000000000E+00  0.00000000000E+00  0.45593999997E+02  0.45594000000E+02  0.51100000000E-03 0. -1.
         11   -1    0    0    0    0 -0.00000000000E+00 -0.00000000000E+00 -0.45593999997E+02  0.45594000000E+02  0.51100000000E-03 0.  1.
    9900012    2    1    2    0    0  0.17574722068E+02 -0.34857756022E+02 -0.11368124980E+02  0.50528827896E+02  0.29999902873E+02 0.  0.
         12    1    1    2    0    0 -0.17574722068E+02  0.34857756022E+02  0.11368124980E+02  0.40659172104E+02  0.00000000000E+00 0. -1.
         11    1    3    3    0    0  0.59479219081E+01 -0.23653964670E+01 -0.14330700594E+01  0.65594638140E+01  0.51100000000E-03 0. -1.
        -11    1    3    3    0    0  0.13223830126E+02 -0.49491181008E+01 -0.81939936409E+01  0.16324980405E+02  0.51100000000E-03 0.  1.
        -12    1    3    3    0    0 -0.15970299662E+01 -0.27543241454E+02 -0.17410612792E+01  0.27644383677E+02  0.00000000000E+00 0.  1.
</event>
<event>
 7    1  0.8697654E-014  0.5052886E+02  0.7816164E-02  0.1300439E+00
        -11   -1    0    0    0    0  0.00000000000E+00  0.00000000000E+00  0.45593999997E+02  0.45594000000E+02  0.51100000000E-03 0. -1.
         11   -1    0    0    0    0 -0.00000000000E+00 -0.00000000000E+00 -0.45593999997E+02  0.45594000000E+02  0.51100000000E-03 0.  1.
    9900012    2    1    2    0    0  0.60121387839E+01 -0.36868890682E+02 -0.16053178163E+02  0.50528862749E+02  0.30000008810E+02 0.  0.
         12    1    1    2    0    0 -0.60121387839E+01  0.36868890682E+02  0.16053178163E+02  0.40659137251E+02  0.00000000000E+00 0. -1.
         11    1    3    3    0    0  0.89506706967E+01 -0.11522376449E+02 -0.74403404147E+01  0.16377983108E+02  0.51100000000E-03 0. -1.
        -11    1    3    3    0    0 -0.30701230763E+01 -0.71747943025E+01 -0.13267048436E+02  0.15392137715E+02  0.51100000000E-03 0.  1.
        -12    1    3    3    0    0  0.13159116351E+00 -0.18171719931E+02  0.46542106873E+01  0.18758741925E+02  0.00000000000E+00 0.  1.
</event>
<event>
 7    1  0.8697654E-014  0.5052885E+02  0.7816164E-02  0.1300439E+00
        -11   -1    0    0    0    0  0.00000000000E+00  0.00000000000E+00  0.45593999997E+02  0.45594000000E+02  0.51100000000E-03 0. -1.
         11   -1    0    0    0    0 -0.00000000000E+00 -0.00000000000E+00 -0.45593999997E+02  0.45594000000E+02  0.51100000000E-03 0.  1.
    9900012    2    1    2    0    0 -0.14803259458E+02 -0.32667285226E+02 -0.19154077852E+02  0.50528847120E+02  0.29999961305E+02 0.  0.
         12    1    1    2    0    0  0.14803259458E+02  0.32667285226E+02  0.19154077852E+02  0.40659152880E+02  0.00000000000E+00 0. -1.
         11    1    3    3    0    0 -0.21854790964E+01 -0.42228889921E+01 -0.10406494967E+02  0.11441339436E+02  0.51100000000E-03 0.  1.
        -11    1    3    3    0    0 -0.95241505658E+01 -0.13462923682E+02 -0.15253518796E+02  0.22463962117E+02  0.51100000000E-03 0. -1.
         12    1    3    3    0    0 -0.30936297958E+01 -0.14981472552E+02  0.65059359116E+01  0.16623545567E+02  0.00000000000E+00 0. -1.
</event>
<event>
 7    1  0.8697654E-014  0.5052884E+02  0.7816164E-02  0.1300439E+00
        -11   -1    0    0    0    0  0.00000000000E+00  0.00000000000E+00  0.45593999997E+02  0.45594000000E+02  0.51100000000E-03 0.  1.
         11   -1    0    0    0    0 -0.00000000000E+00 -0.00000000000E+00 -0.45593999997E+02  0.45594000000E+02  0.51100000000E-03 0. -1.
    9900012    2    1    2    0    0 -0.34709638987E+02  0.11228280687E+02 -0.17953651678E+02  0.50528844397E+02  0.29999953029E+02 0.  0.
         12    1    1    2    0    0  0.34709638987E+02 -0.11228280687E+02  0.17953651678E+02  0.40659155603E+02  0.00000000000E+00 0. -1.
         11    1    3    3    0    0 -0.57458246134E+00 -0.52330461249E+01  0.32139568011E+01  0.61680171312E+01  0.51100000000E-03 0. -1.
        -11    1    3    3    0    0 -0.23096672326E+01  0.43233693084E+01 -0.21809074302E+01  0.53649270621E+01  0.51100000000E-03 0.  1.
        -12    1    3    3    0    0 -0.31825389293E+02  0.12137957503E+02 -0.18986701048E+02  0.38995900204E+02  0.00000000000E+00 0.  1.
</event>
<event>
 7    1  0.8697654E-014  0.5052885E+02  0.7816164E-02  0.1300439E+00
        -11   -1    0    0    0    0  0.00000000000E+00  0.00000000000E+00  0.45593999997E+02  0.45594000000E+02  0.51100000000E-03 0. -1.
         11   -1    0    0    0    0 -0.00000000000E+00 -0.00000000000E+00 -0.45593999997E+02  0.45594000000E+02  0.51100000000E-03 0.  1.
    9900012    2    1    2    0    0 -0.16293417155E+02 -0.21806862406E+02  0.30201852014E+02  0.50528849054E+02  0.29999967185E+02 0.  0.
        -12    1    1    2    0    0  0.16293417155E+02  0.21806862406E+02 -0.30201852014E+02  0.40659150946E+02  0.00000000000E+00 0.  1.
         11    1    3    3    0    0 -0.77690008093E+01  0.45505931185E+01  0.43618686584E+01  0.10004557449E+02  0.51100000000E-03 0. -1.
        -11    1    3    3    0    0  0.20557044318E+01 -0.27500698854E+01  0.90605595132E+01  0.96893004928E+01  0.51100000000E-03 0.  1.
         12    1    3    3    0    0 -0.10580120777E+02 -0.23607385640E+02  0.16779423842E+02  0.30834991112E+02  0.00000000000E+00 0. -1.
</event>
<event>
 7    1  0.8697654E-014  0.5052886E+02  0.7816164E-02  0.1300439E+00
        -11   -1    0    0    0    0  0.00000000000E+00  0.00000000000E+00  0.45593999997E+02  0.45594000000E+02  0.51100000000E-03 0. -1.
         11   -1    0    0    0    0 -0.00000000000E+00 -0.00000000000E+00 -0.45593999997E+02  0.45594000000E+02  0.51100000000E-03 0.  1.
    9900012    2    1    2    0    0 -0.43612929831E+01  0.29512356853E+02  0.27625444488E+02  0.50528864905E+02  0.30000015366E+02 0.  0.
        -12    1    1    2    0    0  0.43612929831E+01 -0.29512356853E+02 -0.27625444488E+02  0.40659135095E+02  0.00000000000E+00 0.  1.
         11    1    3    3    0    0  0.65553721756E+01  0.12280362732E+02  0.57194463681E+01  0.15049660468E+02  0.51100000000E-03 0. -1.
        -11    1    3    3    0    0 -0.75374328722E+01  0.10359999473E+02  0.58555988780E+00  0.12825184756E+02  0.51100000000E-03 0.  1.
         12    1    3    3    0    0 -0.33792322865E+01  0.68719946480E+01  0.21320438232E+02  0.22654019681E+02  0.00000000000E+00 0. -1.
</event>
<event>
 7    1  0.8697654E-014  0.5052886E+02  0.7816164E-02  0.1300439E+00
        -11   -1    0    0    0    0  0.00000000000E+00  0.00000000000E+00  0.45593999997E+02  0.45594000000E+02  0.51100000000E-03 0. -1.
         11   -1    0    0    0    0 -0.00000000000E+00 -0.00000000000E+00 -0.45593999997E+02  0.45594000000E+02  0.51100000000E-03 0.  1.
    9900012    2    1    2    0    0  0.39847790308E+02 -0.66035048888E+01  0.46597393074E+01  0.50528857858E+02  0.29999993946E+02 0.  0.
        -12    1    1    2    0    0 -0.39847790308E+02  0.66035048888E+01 -0.46597393074E+01  0.40659142142E+02  0.00000000000E+00 0.  1.
         11    1    3    3    0    0  0.21548787862E+02  0.63444706747E+01  0.40218734527E+01  0.22820561623E+02  0.51100000000E-03 0. -1.
        -11    1    3    3    0    0 -0.26081326772E+01  0.50550387456E+00  0.10143791912E+01  0.28437397268E+01  0.51100000000E-03 0.  1.
        -12    1    3    3    0    0  0.20907135123E+02 -0.13453479438E+02 -0.37651333644E+00  0.24864556508E+02  0.00000000000E+00 0.  1.
</event>
<event>
 7    1  0.8697654E-014  0.5052886E+02  0.7816164E-02  0.1300439E+00
        -11   -1    0    0    0    0  0.00000000000E+00  0.00000000000E+00  0.45593999997E+02  0.45594000000E+02  0.51100000000E-03 0. -1.
         11   -1    0    0    0    0 -0.00000000000E+00 -0.00000000000E+00 -0.45593999997E+02  0.45594000000E+02  0.51100000000E-03 0.  1.
    9900012    2    1    2    0    0 -0.12755286506E+02  0.30923751332E+02  0.23112543363E+02  0.50528863376E+02  0.30000010718E+02 0.  0.
        -12    1    1    2    0    0  0.12755286506E+02 -0.30923751332E+02 -0.23112543363E+02  0.40659136624E+02  0.00000000000E+00 0.  1.
         11    1    3    3    0    0  0.91720085004E+00  0.39664371333E+01  0.15905622047E+01  0.43707858927E+01  0.51100000000E-03 0. -1.
        -11    1    3    3    0    0  0.66795638968E+01  0.92997593489E+01  0.14191125155E+02  0.18234311920E+02  0.51100000000E-03 0.  1.
         12    1    3    3    0    0 -0.20352051253E+02  0.17657554850E+02  0.73308560034E+01  0.27923765563E+02  0.00000000000E+00 0. -1.
</event>
<event>
 7    1  0.8697654E-014  0.5052886E+02  0.7816164E-02  0.1300439E+00
        -11   -1    0    0    0    0  0.00000000000E+00  0.00000000000E+00  0.45593999997E+02  0.45594000000E+02  0.51100000000E-03 0. -1.
         11   -1    0    0    0    0 -0.00000000000E+00 -0.00000000000E+00 -0.45593999997E+02  0.45594000000E+02  0.51100000000E-03 0.  1.
    9900012    2    1    2    0    0 -0.27179086514E+02 -0.21037607044E+02 -0.21722846535E+02  0.50528859386E+02  0.29999998588E+02 0.  0.
         12    1    1    2    0    0  0.27179086514E+02  0.21037607044E+02  0.21722846535E+02  0.40659140614E+02  0.00000000000E+00 0. -1.
         11    1    3    3    0    0  0.58966318362E+00  0.27108058730E+01 -0.26713423702E+01  0.38512649184E+01  0.51100000000E-03 0. -1.
        -11    1    3    3    0    0 -0.15441758842E+02 -0.62159265065E+01 -0.18979831603E+02  0.25245190956E+02  0.51100000000E-03 0.  1.
        -12    1    3    3    0    0 -0.12326990856E+02 -0.17532486411E+02 -0.71672562254E-01  0.21432403511E+02  0.00000000000E+00 0.  1.
</event>
<event>
 7    1  0.8697654E-014  0.5052886E+02  0.7816164E-02  0.1300439E+00
        -11   -1    0    0    0    0  0.00000000000E+00  0.00000000000E+00  0.45593999997E+02  0.45594000000E+02  0.51100000000E-03 0. -1.
         11   -1    0    0    0    0 -0.00000000000E+00 -0.00000000000E+00 -0.45593999997E+02  0.45594000000E+02  0.51100000000E-03 0.  1.
    9900012    2    1    2    0    0  0.11305576183E+02  0.25910843953E+02  0.29222893333E+02  0.50528863488E+02  0.30000011057E+02 0.  0.
        -12    1    1    2    0    0 -0.11305576183E+02 -0.25910843953E+02 -0.29222893333E+02  0.40659136512E+02  0.00000000000E+00 0.  1.
         11    1    3    3    0    0  0.15809877963E+02  0.13306000635E+02  0.24548493768E+02  0.32087855033E+02  0.51100000000E-03 0. -1.
        -11    1    3    3    0    0 -0.65404701415E-01 -0.22846819047E+01  0.34105674209E+00  0.23109238722E+01  0.51100000000E-03 0.  1.
         12    1    3    3    0    0 -0.44388970786E+01  0.14889525222E+02  0.43333428231E+01  0.16130084582E+02  0.00000000000E+00 0. -1.
</event>
<event>
 7    1  0.8697654E-014  0.5052887E+02  0.7816164E-02  0.1300439E+00
        -11   -1    0    0    0    0  0.00000000000E+00  0.00000000000E+00  0.45593999997E+02  0.45594000000E+02  0.51100000000E-03 0. -1.
         11   -1    0    0    0    0 -0.00000000000E+00 -0.00000000000E+00 -0.45593999997E+02  0.45594000000E+02  0.51100000000E-03 0.  1.
    9900012    2    1    2    0    0  0.11356342553E+02  0.22200919107E+01  0.38977806949E+02  0.50528871151E+02  0.30000034350E+02 0.  0.
        -12    1    1    2    0    0 -0.11356342553E+02 -0.22200919107E+01 -0.38977806949E+02  0.40659128849E+02  0.00000000000E+00 0.  1.
         11    1    3    3    0    0  0.78123822939E+01 -0.61759867139E+01  0.28996458004E+02  0.30658941698E+02  0.51100000000E-03 0. -1.
        -11    1    3    3    0    0  0.12654081855E+01 -0.39090641601E+01  0.43820184960E+00  0.41320771539E+01  0.51100000000E-03 0.  1.
         12    1    3    3    0    0  0.22785520732E+01  0.12305142785E+02  0.95431470947E+01  0.15737852299E+02  0.00000000000E+00 0. -1.
</event>
<event>
 7    1  0.8697654E-014  0.5052888E+02  0.7816164E-02  0.1300439E+00
        -11   -1    0    0    0    0  0.00000000000E+00  0.00000000000E+00  0.45593999997E+02  0.45594000000E+02  0.51100000000E-03 0. -1.
         11   -1    0    0    0    0 -0.00000000000E+00 -0.00000000000E+00 -0.45593999997E+02  0.45594000000E+02  0.51100000000E-03 0.  1.
    9900012    2    1    2    0    0 -0.11884814723E+02 -0.30961033345E+02  0.23522957033E+02  0.50528881535E+02  0.30000065913E+02 0.  0.
        -12    1    1    2    0    0  0.11884814723E+02  0.30961033345E+02 -0.23522957033E+02  0.40659118465E+02  0.00000000000E+00 0.  1.
         11    1    3    3    0    0 -0.11261601403E+02 -0.17817414276E+02  0.21251317459E+02  0.29931628951E+02  0.51100000000E-03 0. -1.
        -11    1    3    3    0    0 -0.64783250560E-01  0.74568073932E+00  0.61265533378E+01  0.61721060179E+01  0.51100000000E-03 0.  1.
        -12    1    3    3    0    0 -0.55843006950E+00 -0.13889299809E+02 -0.38549137642E+01  0.14425146566E+02  0.00000000000E+00 0.  1.
</event>
<event>
 7    1  0.8697654E-014  0.5052885E+02  0.7816164E-02  0.1300439E+00
        -11   -1    0    0    0    0  0.00000000000E+00  0.00000000000E+00  0.45593999997E+02  0.45594000000E+02  0.51100000000E-03 0.  1.
         11   -1    0    0    0    0 -0.00000000000E+00 -0.00000000000E+00 -0.45593999997E+02  0.45594000000E+02  0.51100000000E-03 0. -1.
    9900012    2    1    2    0    0 -0.40344876562E+02  0.35410819768E+00  0.50330921829E+01  0.50528850054E+02  0.29999970225E+02 0.  0.
         12    1    1    2    0    0  0.40344876562E+02 -0.35410819768E+00 -0.50330921829E+01  0.40659149946E+02  0.00000000000E+00 0. -1.
         11    1    3    3    0    0 -0.94038469508E+00  0.42050094060E+01  0.13655709073E+01  0.45200897827E+01  0.51100000000E-03 0. -1.
        -11    1    3    3    0    0 -0.84873549780E+01  0.77459216201E+01 -0.38958511418E+01  0.12133101526E+02  0.51100000000E-03 0.  1.
         12    1    3    3    0    0 -0.30917136889E+02 -0.11596822828E+02  0.75633724174E+01  0.33875658745E+02  0.00000000000E+00 0. -1.
</event>
<event>
 7    1  0.8697654E-014  0.5052886E+02  0.7816164E-02  0.1300439E+00
        -11   -1    0    0    0    0  0.00000000000E+00  0.00000000000E+00  0.45593999997E+02  0.45594000000E+02  0.51100000000E-03 0. -1.
         11   -1    0    0    0    0 -0.00000000000E+00 -0.00000000000E+00 -0.45593999997E+02  0.45594000000E+02  0.51100000000E-03 0.  1.
    9900012    2    1    2    0    0 -0.24061824225E+02  0.77479551288E+01  0.31845937777E+02  0.50528856544E+02  0.29999989951E+02 0.  0.
        -12    1    1    2    0    0  0.24061824225E+02 -0.77479551288E+01 -0.31845937777E+02  0.40659143456E+02  0.00000000000E+00 0.  1.
         11    1    3    3    0    0 -0.59039816949E+01 -0.16229595555E+01  0.34872833572E+01  0.70464276799E+01  0.51100000000E-03 0. -1.
        -11    1    3    3    0    0  0.51122224039E+01 -0.35842211649E+01  0.66601420116E+01  0.91290169866E+01  0.51100000000E-03 0.  1.
        -12    1    3    3    0    0 -0.23270064934E+02  0.12955135849E+02  0.21698512408E+02  0.34353411877E+02  0.00000000000E+00 0.  1.
</event>
<event>
 7    1  0.8697654E-014  0.5052888E+02  0.7816164E-02  0.1300439E+00
        -11   -1    0    0    0    0  0.00000000000E+00  0.00000000000E+00  0.45593999997E+02  0.45594000000E+02  0.51100000000E-03 0. -1.
         11   -1    0    0    0    0 -0.00000000000E+00 -0.00000000000E+00 -0.45593999997E+02  0.45594000000E+02  0.51100000000E-03 0.  1.
    9900012    2    1    2    0    0 -0.39045772965E+02 -0.12124561832E+01  0.11274818522E+02  0.50528880861E+02  0.30000063866E+02 0.  0.
        -12    1    1    2    0    0  0.39045772965E+02  0.12124561832E+01 -0.11274818522E+02  0.40659119139E+02  0.00000000000E+00 0.  1.
         11    1    3    3    0    0 -0.14324724841E+02  0.61886207012E+01  0.90729670935E+00  0.15630737524E+02  0.51100000000E-03 0. -1.
        -11    1    3    3    0    0 -0.43016428969E+01 -0.48002294505E+01 -0.58408443507E+01  0.86983790087E+01  0.51100000000E-03 0.  1.
         12    1    3    3    0    0 -0.20419405227E+02 -0.26008474339E+01  0.16208366163E+02  0.26199764329E+02  0.00000000000E+00 0. -1.
</event>
<event>
 7    1  0.8697654E-014  0.5052886E+02  0.7816164E-02  0.1300439E+00
        -11   -1    0    0    0    0  0.00000000000E+00  0.00000000000E+00  0.45593999997E+02  0.45594000000E+02  0.51100000000E-03 0. -1.
         11   -1    0    0    0    0 -0.00000000000E+00 -0.00000000000E+00 -0.45593999997E+02  0.45594000000E+02  0.51100000000E-03 0.  1.
    9900012    2    1    2    0    0  0.34578838204E+02 -0.21130301073E+02  0.33135665963E+01  0.50528863283E+02  0.30000010434E+02 0.  0.
        -12    1    1    2    0    0 -0.34578838204E+02  0.21130301073E+02 -0.33135665963E+01  0.40659136717E+02  0.00000000000E+00 0.  1.
         11    1    3    3    0    0  0.16398420356E+01 -0.67562603044E+01 -0.43008051026E+01  0.81751489280E+01  0.51100000000E-03 0. -1.
        -11    1    3    3    0    0  0.93655797480E+01  0.34248051272E+01 -0.38211731283E+01  0.10679173119E+02  0.51100000000E-03 0.  1.
         12    1    3    3    0    0  0.23573416421E+02 -0.17798845896E+02  0.11435544827E+02  0.31674541235E+02  0.00000000000E+00 0. -1.
</event>
<event>
 7    1  0.8697654E-014  0.5052886E+02  0.7816164E-02  0.1300439E+00
        -11   -1    0    0    0    0  0.00000000000E+00  0.00000000000E+00  0.45593999997E+02  0.45594000000E+02  0.51100000000E-03 0. -1.
         11   -1    0    0    0    0 -0.00000000000E+00 -0.00000000000E+00 -0.45593999997E+02  0.45594000000E+02  0.51100000000E-03 0.  1.
    9900012    2    1    2    0    0 -0.11309706286E+02  0.23160410008E+02  0.31446010855E+02  0.50528860232E+02  0.30000001161E+02 0.  0.
        -12    1    1    2    0    0  0.11309706286E+02 -0.23160410008E+02 -0.31446010855E+02  0.40659139768E+02  0.00000000000E+00 0.  1.
         11    1    3    3    0    0 -0.11722099930E+02  0.11387577349E+01  0.12610516881E+02  0.17254840834E+02  0.51100000000E-03 0. -1.
        -11    1    3    3    0    0  0.55931313465E+00  0.17894523039E+01 -0.29797912485E+01  0.35205293460E+01  0.51100000000E-03 0.  1.
        -12    1    3    3    0    0 -0.14691949062E+00  0.20232199969E+02  0.21815285222E+02  0.29753490052E+02  0.00000000000E+00 0.  1.
</event>
<event>
 7    1  0.8697654E-014  0.5052888E+02  0.7816164E-02  0.1300439E+00
        -11   -1    0    0    0    0  0.00000000000E+00  0.00000000000E+00  0.45593999997E+02  0.45594000000E+02  0.51100000000E-03 0. -1.
         11   -1    0    0    0    0 -0.00000000000E+00 -0.00000000000E+00 -0.45593999997E+02  0.45594000000E+02  0.51100000000E-03 0.  1.
    9900012    2    1    2    0    0 -0.26876484626E+02 -0.12498152013E+02  0.27831899672E+02  0.50528882093E+02  0.30000067611E+02 0.  0.
        -12    1    1    2    0    0  0.26876484626E+02  0.12498152013E+02 -0.27831899672E+02  0.40659117907E+02  0.00000000000E+00 0.  1.
         11    1    3    3    0    0 -0.17633396768E+02  0.23569643324E+01  0.14272476807E+02  0.22807795967E+02  0.51100000000E-03 0.  1.
        -11    1    3    3    0    0  0.16476825344E+00 -0.46412097395E+01 -0.34337627064E+01  0.57756993523E+01  0.51100000000E-03 0. -1.
         12    1    3    3    0    0 -0.94078561117E+01 -0.10213906606E+02  0.16993185571E+02  0.21945386774E+02  0.00000000000E+00 0. -1.
</event>
<event>
 7    1  0.8697654E-014  0.5052887E+02  0.7816164E-02  0.1300439E+00
        -11   -1    0    0    0    0  0.00000000000E+00  0.00000000000E+00  0.45593999997E+02  0.45594000000E+02  0.51100000000E-03 0. -1.
         11   -1    0    0    0    0 -0.00000000000E+00 -0.00000000000E+00 -0.45593999997E+02  0.45594000000E+02  0.51100000000E-03 0.  1.
    9900012    2    1    2    0    0 -0.70140580555E+00  0.29068461422E+01  0.40549026264E+02  0.50528865042E+02  0.30000015782E+02 0.  0.
        -12    1    1    2    0    0  0.70140580555E+00 -0.29068461422E+01 -0.40549026264E+02  0.40659134958E+02  0.00000000000E+00 0.  1.
         11    1    3    3    0    0  0.12266594482E+02 -0.62084180697E+01  0.17829340032E+02  0.22514421186E+02  0.51100000000E-03 0. -1.
        -11    1    3    3    0    0 -0.53555283040E+01  0.58011597649E+01  0.89441341202E+01  0.11930325790E+02  0.51100000000E-03 0.  1.
        -12    1    3    3    0    0 -0.76124719837E+01  0.33141044470E+01  0.13775552112E+02  0.16084118066E+02  0.00000000000E+00 0.  1.
</event>
<event>
 7    1  0.8697654E-014  0.5052886E+02  0.7816164E-02  0.1300439E+00
        -11   -1    0    0    0    0  0.00000000000E+00  0.00000000000E+00  0.45593999997E+02  0.45594000000E+02  0.51100000000E-03 0. -1.
         11   -1    0    0    0    0 -0.00000000000E+00 -0.00000000000E+00 -0.45593999997E+02  0.45594000000E+02  0.51100000000E-03 0.  1.
    9900012    2    1    2    0    0  0.19014938099E+02  0.27563354149E+02  0.23062079059E+02  0.50528857690E+02  0.29999993435E+02 0.  0.
        -12    1    1    2    0    0 -0.19014938099E+02 -0.27563354149E+02 -0.23062079059E+02  0.40659142310E+02  0.00000000000E+00 0.  1.
         11    1    3    3    0    0 -0.52576129600E+01  0.94654027987E+01  0.14039259938E+02  0.17729556228E+02  0.51100000000E-03 0. -1.
        -11    1    3    3    0    0  0.15977619354E+01  0.38515283421E+01 -0.85536025745E+00  0.42566131141E+01  0.51100000000E-03 0.  1.
        -12    1    3    3    0    0  0.22674789123E+02  0.14246423008E+02  0.98781793786E+01  0.28542688348E+02  0.00000000000E+00 0.  1.
</event>
<event>
 7    1  0.8697654E-014  0.5052886E+02  0.7816164E-02  0.1300439E+00
        -11   -1    0    0    0    0  0.00000000000E+00  0.00000000000E+00  0.45593999997E+02  0.45594000000E+02  0.51100000000E-03 0.  1.
         11   -1    0    0    0    0 -0.00000000000E+00 -0.00000000000E+00 -0.45593999997E+02  0.45594000000E+02  0.51100000000E-03 0. -1.
    9900012    2    1    2    0    0  0.30321279421E+02  0.13839644358E+02  0.23286262950E+02  0.50528858545E+02  0.29999996033E+02 0.  0.
         12    1    1    2    0    0 -0.30321279421E+02 -0.13839644358E+02 -0.23286262950E+02  0.40659141455E+02  0.00000000000E+00 0. -1.
         11    1    3    3    0    0  0.84895111338E+01  0.79716494549E+01 -0.19485082459E+01  0.11807441677E+02  0.51100000000E-03 0. -1.
        -11    1    3    3    0    0  0.20600129650E+02  0.54476269615E+01  0.10188192662E+02  0.23618663194E+02  0.51100000000E-03 0.  1.
        -12    1    3    3    0    0  0.12316386373E+01  0.42036794157E+00  0.15046578534E+02  0.15102753673E+02  0.00000000000E+00 0.  1.
</event>
<event>
 7    1  0.8697654E-014  0.5052891E+02  0.7816164E-02  0.1300439E+00
        -11   -1    0    0    0    0  0.00000000000E+00  0.00000000000E+00  0.45593999997E+02  0.45594000000E+02  0.51100000000E-03 0. -1.
         11   -1    0    0    0    0 -0.00000000000E+00 -0.00000000000E+00 -0.45593999997E+02  0.45594000000E+02  0.51100000000E-03 0.  1.
    9900012    2    1    2    0    0 -0.25405552727E+02 -0.12033120386E+02  0.29375563293E+02  0.50528907360E+02  0.30000144410E+02 0.  0.
        -12    1    1    2    0    0  0.25405552727E+02  0.12033120386E+02 -0.29375563293E+02  0.40659092640E+02  0.00000000000E+00 0.  1.
         11    1    3    3    0    0 -0.60439498103E+01  0.40106175493E+01  0.13717359786E+02  0.15517098382E+02  0.51100000000E-03 0. -1.
        -11    1    3    3    0    0 -0.52095699326E-01  0.17414657096E+01 -0.25320127636E+01  0.30735168254E+01  0.51100000000E-03 0.  1.
        -12    1    3    3    0    0 -0.19309507217E+02 -0.17785203645E+02  0.18190216270E+02  0.31938292152E+02  0.00000000000E+00 0.  1.
</event>
<event>
 7    1  0.8697654E-014  0.5052887E+02  0.7816164E-02  0.1300439E+00
        -11   -1    0    0    0    0  0.00000000000E+00  0.00000000000E+00  0.45593999997E+02  0.45594000000E+02  0.51100000000E-03 0. -1.
         11   -1    0    0    0    0 -0.00000000000E+00 -0.00000000000E+00 -0.45593999997E+02  0.45594000000E+02  0.51100000000E-03 0.  1.
    9900012    2    1    2    0    0 -0.65292146813E+01 -0.31171775056E+01 -0.40010217555E+02  0.50528868815E+02  0.30000027249E+02 0.  0.
         12    1    1    2    0    0  0.65292146813E+01  0.31171775056E+01  0.40010217555E+02  0.40659131185E+02  0.00000000000E+00 0. -1.
         11    1    3    3    0    0 -0.58107124299E+00 -0.73333750546E+01 -0.67139630700E+01  0.99595850239E+01  0.51100000000E-03 0. -1.
        -11    1    3    3    0    0  0.51712740698E+01 -0.60577818804E+01 -0.13052265134E+02  0.15290533745E+02  0.51100000000E-03 0.  1.
        -12    1    3    3    0    0 -0.11119417508E+02  0.10273979429E+02 -0.20243989351E+02  0.25278750046E+02  0.00000000000E+00 0.  1.
</event>
<event>
 7    1  0.8697654E-014  0.5052885E+02  0.7816164E-02  0.1300439E+00
        -11   -1    0    0    0    0  0.00000000000E+00  0.00000000000E+00  0.45593999997E+02  0.45594000000E+02  0.51100000000E-03 0. -1.
         11   -1    0    0    0    0 -0.00000000000E+00 -0.00000000000E+00 -0.45593999997E+02  0.45594000000E+02  0.51100000000E-03 0.  1.
    9900012    2    1    2    0    0  0.20978687802E+02  0.17113461002E+02  0.30334637387E+02  0.50528854476E+02  0.29999983666E+02 0.  0.
        -12    1    1    2    0    0 -0.20978687802E+02 -0.17113461002E+02 -0.30334637387E+02  0.40659145524E+02  0.00000000000E+00 0.  1.
         11    1    3    3    0    0  0.15560290043E+02  0.99201437627E+01  0.31087364891E+02  0.36151848288E+02  0.51100000000E-03 0. -1.
        -11    1    3    3    0    0  0.81666537238E+01  0.19589799677E+01  0.13113365876E+00  0.83993471089E+01  0.51100000000E-03 0.  1.
        -12    1    3    3    0    0 -0.27482559650E+01  0.52343372711E+01 -0.88386116274E+00  0.59776590796E+01  0.00000000000E+00 0.  1.
</event>
<event>
 7    1  0.8697654E-014  0.5052886E+02  0.7816164E-02  0.1300439E+00
        -11   -1    0    0    0    0  0.00000000000E+00  0.00000000000E+00  0.45593999997E+02  0.45594000000E+02  0.51100000000E-03 0. -1.
         11   -1    0    0    0    0 -0.00000000000E+00 -0.00000000000E+00 -0.45593999997E+02  0.45594000000E+02  0.51100000000E-03 0.  1.
    9900012    2    1    2    0    0 -0.43554925277E+01 -0.17646983347E+02 -0.36370036533E+02  0.50528857193E+02  0.29999991922E+02 0.  0.
         12    1    1    2    0    0  0.43554925277E+01  0.17646983347E+02  0.36370036533E+02  0.40659142807E+02  0.00000000000E+00 0. -1.
         11    1    3    3    0    0 -0.57894261459E+01  0.45560908473E+01 -0.20851016147E+02  0.22114255437E+02  0.51100000000E-03 0. -1.
        -11    1    3    3    0    0  0.25276282850E+01 -0.73376195276E+01 -0.96780010787E+01  0.12405372635E+02  0.51100000000E-03 0.  1.
        -12    1    3    3    0    0 -0.10936946668E+01 -0.14865454667E+02 -0.58410193074E+01  0.16009229120E+02  0.00000000000E+00 0.  1.
</event>
<event>
 7    1  0.8697654E-014  0.5052892E+02  0.7816164E-02  0.1300439E+00
        -11   -1    0    0    0    0  0.00000000000E+00  0.00000000000E+00  0.45593999997E+02  0.45594000000E+02  0.51100000000E-03 0.  1.
         11   -1    0    0    0    0 -0.00000000000E+00 -0.00000000000E+00 -0.45593999997E+02  0.45594000000E+02  0.51100000000E-03 0. -1.
    9900012    2    1    2    0    0 -0.38813720418E+02 -0.10206870335E+01 -0.12067072496E+02  0.50528918194E+02  0.30000177342E+02 0.  0.
         12    1    1    2    0    0  0.38813720418E+02  0.10206870335E+01  0.12067072496E+02  0.40659081806E+02  0.00000000000E+00 0. -1.
         11    1    3    3    0    0  0.31422125633E+01 -0.26341569859E+01  0.28927506199E+01  0.50179965354E+01  0.51100000000E-03 0. -1.
        -11    1    3    3    0    0 -0.22341615803E+02  0.15983330784E+01 -0.12747829452E+02  0.25772264575E+02  0.51100000000E-03 0.  1.
        -12    1    3    3    0    0 -0.19614317178E+02  0.15136874024E-01 -0.22119936633E+01  0.19738657083E+02  0.00000000000E+00 0.  1.
</event>
<event>
 7    1  0.8697654E-014  0.5052886E+02  0.7816164E-02  0.1300439E+00
        -11   -1    0    0    0    0  0.00000000000E+00  0.00000000000E+00  0.45593999997E+02  0.45594000000E+02  0.51100000000E-03 0. -1.
         11   -1    0    0    0    0 -0.00000000000E+00 -0.00000000000E+00 -0.45593999997E+02  0.45594000000E+02  0.51100000000E-03 0.  1.
    9900012    2    1    2    0    0  0.45883800816E+01 -0.11583335862E+02 -0.38703215132E+02  0.50528858801E+02  0.29999996811E+02 0.  0.
         12    1    1    2    0    0 -0.45883800816E+01  0.11583335862E+02  0.38703215132E+02  0.40659141199E+02  0.00000000000E+00 0. -1.
         11    1    3    3    0    0  0.37052075629E+01  0.63998705654E+01 -0.36450208097E+01  0.82445790252E+01  0.51100000000E-03 0. -1.
        -11    1    3    3    0    0  0.19755815685E+01  0.35872279456E+00 -0.14795404681E+02  0.14931028247E+02  0.51100000000E-03 0.  1.
        -12    1    3    3    0    0 -0.10924090498E+01 -0.18341929222E+02 -0.20262789642E+02  0.27353251529E+02  0.00000000000E+00 0.  1.
</event>
<event>
 7    1  0.8697654E-014  0.5052888E+02  0.7816164E-02  0.1300439E+00
        -11   -1    0    0    0    0  0.00000000000E+00  0.00000000000E+00  0.45593999997E+02  0.45594000000E+02  0.51100000000E-03 0. -1.
         11   -1    0    0    0    0 -0.00000000000E+00 -0.00000000000E+00 -0.45593999997E+02  0.45594000000E+02  0.51100000000E-03 0.  1.
    9900012    2    1    2    0    0 -0.13789174937E+02 -0.15341672840E+01  0.38218704588E+02  0.50528875623E+02  0.30000047944E+02 0.  0.
        -12    1    1    2    0    0  0.13789174937E+02  0.15341672840E+01 -0.38218704588E+02  0.40659124377E+02  0.00000000000E+00 0.  1.
         11    1    3    3    0    0 -0.17743075358E+01 -0.90431639850E+01  0.11165801438E+02  0.14477641524E+02  0.51100000000E-03 0. -1.
        -11    1    3    3    0    0 -0.14575003564E+02 -0.18909176851E+00  0.22322815646E+02  0.26660356022E+02  0.51100000000E-03 0.  1.
         12    1    3    3    0    0  0.25601361629E+01  0.76980884695E+01  0.47300875044E+01  0.93908780769E+01  0.00000000000E+00 0. -1.
</event>
<event>
 7    1  0.8697654E-014  0.5052886E+02  0.7816164E-02  0.1300439E+00
        -11   -1    0    0    0    0  0.00000000000E+00  0.00000000000E+00  0.45593999997E+02  0.45594000000E+02  0.51100000000E-03 0.  1.
         11   -1    0    0    0    0 -0.00000000000E+00 -0.00000000000E+00 -0.45593999997E+02  0.45594000000E+02  0.51100000000E-03 0. -1.
    9900012    2    1    2    0    0 -0.33134424878E+02  0.21696574199E+02  0.91942659706E+01  0.50528856248E+02  0.29999989050E+02 0.  0.
        -12    1    1    2    0    0  0.33134424878E+02 -0.21696574199E+02 -0.91942659706E+01  0.40659143752E+02  0.00000000000E+00 0.  1.
         11    1    3    3    0    0  0.33523037185E+01  0.30282008600E+01  0.40340725799E+01  0.60565404738E+01  0.51100000000E-03 0. -1.
        -11    1    3    3    0    0 -0.11737950375E+02  0.35571460630E+00  0.69274864932E+01  0.13634371319E+02  0.51100000000E-03 0.  1.
         12    1    3    3    0    0 -0.24748778221E+02  0.18312658733E+02 -0.17672931024E+01  0.30837944455E+02  0.00000000000E+00 0. -1.
</event>
<event>
 7    1  0.8697654E-014  0.5052886E+02  0.7816164E-02  0.1300439E+00
        -11   -1    0    0    0    0  0.00000000000E+00  0.00000000000E+00  0.45593999997E+02  0.45594000000E+02  0.51100000000E-03 0. -1.
         11   -1    0    0    0    0 -0.00000000000E+00 -0.00000000000E+00 -0.45593999997E+02  0.45594000000E+02  0.51100000000E-03 0.  1.
    9900012    2    1    2    0    0 -0.16272077355E+02  0.20105766094E+02  0.31371058943E+02  0.50528859934E+02  0.30000000255E+02 0.  0.
        -12    1    1    2    0    0  0.16272077355E+02 -0.20105766094E+02 -0.31371058943E+02  0.40659140066E+02  0.00000000000E+00 0.  1.
         11    1    3    3    0    0 -0.44604099868E+01  0.14955896977E+02  0.19218832080E+02  0.24757576990E+02  0.51100000000E-03 0. -1.
        -11    1    3    3    0    0 -0.14190615405E+02  0.68250021436E+01  0.28213742503E+01  0.15997323925E+02  0.51100000000E-03 0.  1.
         12    1    3    3    0    0  0.23789480364E+01 -0.16751330268E+01  0.93308526134E+01  0.97739590193E+01  0.00000000000E+00 0. -1.
</event>
<event>
 7    1  0.8697654E-014  0.5052886E+02  0.7816164E-02  0.1300439E+00
        -11   -1    0    0    0    0  0.00000000000E+00  0.00000000000E+00  0.45593999997E+02  0.45594000000E+02  0.51100000000E-03 0.  1.
         11   -1    0    0    0    0 -0.00000000000E+00 -0.00000000000E+00 -0.45593999997E+02  0.45594000000E+02  0.51100000000E-03 0. -1.
    9900012    2    1    2    0    0 -0.39337336840E+02  0.10273489586E+02  0.44130330229E+00  0.50528863185E+02  0.30000010138E+02 0.  0.
        -12    1    1    2    0    0  0.39337336840E+02 -0.10273489586E+02 -0.44130330229E+00  0.40659136815E+02  0.00000000000E+00 0.  1.
         11    1    3    3    0    0 -0.32483117502E+02  0.21072793606E+01  0.35835883830E+01  0.32748063377E+02  0.51100000000E-03 0. -1.
        -11    1    3    3    0    0 -0.98438415883E+01  0.84565048584E+01  0.58894907272E+00  0.12990787232E+02  0.51100000000E-03 0.  1.
        -12    1    3    3    0    0  0.29896222508E+01 -0.29029463252E+00 -0.37312341535E+01  0.47900125766E+01  0.00000000000E+00 0.  1.
</event>
<event>
 7    1  0.8697654E-014  0.5052886E+02  0.7816164E-02  0.1300439E+00
        -11   -1    0    0    0    0  0.00000000000E+00  0.00000000000E+00  0.45593999997E+02  0.45594000000E+02  0.51100000000E-03 0. -1.
         11   -1    0    0    0    0 -0.00000000000E+00 -0.00000000000E+00 -0.45593999997E+02  0.45594000000E+02  0.51100000000E-03 0.  1.
    9900012    2    1    2    0    0 -0.40341836282E+02  0.47640594991E+01  0.17337009663E+01  0.50528859127E+02  0.29999997803E+02 0.  0.
         12    1    1    2    0    0  0.40341836282E+02 -0.47640594991E+01 -0.17337009663E+01  0.40659140873E+02  0.00000000000E+00 0. -1.
         11    1    3    3    0    0 -0.10669970106E+02 -0.78052540528E+01  0.15034920427E+01  0.13305289981E+02  0.51100000000E-03 0. -1.
        -11    1    3    3    0    0 -0.64323110161E+00 -0.63890504727E+00 -0.48457694918E+01  0.49298507217E+01  0.51100000000E-03 0.  1.
         12    1    3    3    0    0 -0.29028635074E+02  0.13208218599E+02  0.50759784154E+01  0.32293718425E+02  0.00000000000E+00 0. -1.
</event>
<event>
 7    1  0.8697654E-014  0.5052887E+02  0.7816164E-02  0.1300439E+00
        -11   -1    0    0    0    0  0.00000000000E+00  0.00000000000E+00  0.45593999997E+02  0.45594000000E+02  0.51100000000E-03 0.  1.
         11   -1    0    0    0    0 -0.00000000000E+00 -0.00000000000E+00 -0.45593999997E+02  0.45594000000E+02  0.51100000000E-03 0. -1.
    9900012    2    1    2    0    0  0.14092089718E+02  0.37522292981E+02  0.68304999310E+01  0.50528865817E+02  0.30000018139E+02 0.  0.
         12    1    1    2    0    0 -0.14092089718E+02 -0.37522292981E+02 -0.68304999310E+01  0.40659134183E+02  0.00000000000E+00 0. -1.
         11    1    3    3    0    0 -0.15284404929E+01  0.25541917065E+01 -0.33036600011E+01  0.44468185569E+01  0.51100000000E-03 0. -1.
        -11    1    3    3    0    0  0.18429965694E+02  0.17592567496E+02 -0.56353913232E+00  0.25484890488E+02  0.51100000000E-03 0.  1.
        -12    1    3    3    0    0 -0.28094354833E+01  0.17375533779E+02  0.10697699064E+02  0.20597156772E+02  0.00000000000E+00 0.  1.
</event>
<event>
 7    1  0.8697654E-014  0.5052881E+02  0.7816164E-02  0.1300439E+00
        -11   -1    0    0    0    0  0.00000000000E+00  0.00000000000E+00  0.45593999997E+02  0.45594000000E+02  0.51100000000E-03 0. -1.
         11   -1    0    0    0    0 -0.00000000000E+00 -0.00000000000E+00 -0.45593999997E+02  0.45594000000E+02  0.51100000000E-03 0.  1.
    9900012    2    1    2    0    0 -0.31027152507E+02  0.24410586249E+02  0.97267203342E+01  0.50528806671E+02  0.29999838356E+02 0.  0.
        -12    1    1    2    0    0  0.31027152507E+02 -0.24410586249E+02 -0.97267203342E+01  0.40659193329E+02  0.00000000000E+00 0.  1.
         11    1    3    3    0    0 -0.20829011600E+02  0.72668646717E+01  0.10083110950E+02  0.24255394722E+02  0.51100000000E-03 0. -1.
        -11    1    3    3    0    0 -0.12605027697E+02  0.15578589067E+02  0.45861407268E+01  0.20557525328E+02  0.51100000000E-03 0.  1.
        -12    1    3    3    0    0  0.24068867901E+01  0.15651325098E+01 -0.49425313428E+01  0.57158866214E+01  0.00000000000E+00 0.  1.
</event>
<event>
 7    1  0.8697654E-014  0.5052888E+02  0.7816164E-02  0.1300439E+00
        -11   -1    0    0    0    0  0.00000000000E+00  0.00000000000E+00  0.45593999997E+02  0.45594000000E+02  0.51100000000E-03 0. -1.
         11   -1    0    0    0    0 -0.00000000000E+00 -0.00000000000E+00 -0.45593999997E+02  0.45594000000E+02  0.51100000000E-03 0.  1.
    9900012    2    1    2    0    0  0.35055295801E+02  0.18928964136E+02 -0.81230934355E+01  0.50528879327E+02  0.30000059201E+02 0.  0.
         12    1    1    2    0    0 -0.35055295801E+02 -0.18928964136E+02  0.81230934355E+01  0.40659120673E+02  0.00000000000E+00 0. -1.
         11    1    3    3    0    0  0.13476137127E+02  0.14853424716E+02 -0.10527242650E+02  0.22650680691E+02  0.51100000000E-03 0. -1.
        -11    1    3    3    0    0  0.20223458147E+02  0.34392400699E+01 -0.43415947105E+01  0.20968215866E+02  0.51100000000E-03 0.  1.
        -12    1    3    3    0    0  0.13557005266E+01  0.63629934979E+00  0.67457439252E+01  0.69099827702E+01  0.00000000000E+00 0.  1.
</event>
<event>
 7    1  0.8697654E-014  0.5052887E+02  0.7816164E-02  0.1300439E+00
        -11   -1    0    0    0    0  0.00000000000E+00  0.00000000000E+00  0.45593999997E+02  0.45594000000E+02  0.51100000000E-03 0. -1.
         11   -1    0    0    0    0 -0.00000000000E+00 -0.00000000000E+00 -0.45593999997E+02  0.45594000000E+02  0.51100000000E-03 0.  1.
    9900012    2    1    2    0    0 -0.69063739665E+01  0.21318959392E+02  0.33925926847E+02  0.50528873800E+02  0.30000042402E+02 0.  0.
        -12    1    1    2    0    0  0.69063739665E+01 -0.21318959392E+02 -0.33925926847E+02  0.40659126200E+02  0.00000000000E+00 0.  1.
         11    1    3    3    0    0  0.38862370074E+01  0.10253859979E+02  0.43748341452E+01  0.11806085575E+02  0.51100000000E-03 0. -1.
        -11    1    3    3    0    0  0.23714125140E+01 -0.36746743035E+01  0.10042254015E+02  0.10953250409E+02  0.51100000000E-03 0.  1.
         12    1    3    3    0    0 -0.13164023488E+02  0.14739773716E+02  0.19508838687E+02  0.27769537816E+02  0.00000000000E+00 0. -1.
</event>
<event>
 7    1  0.8697654E-014  0.5052887E+02  0.7816164E-02  0.1300439E+00
        -11   -1    0    0    0    0  0.00000000000E+00  0.00000000000E+00  0.45593999997E+02  0.45594000000E+02  0.51100000000E-03 0. -1.
         11   -1    0    0    0    0 -0.00000000000E+00 -0.00000000000E+00 -0.45593999997E+02  0.45594000000E+02  0.51100000000E-03 0.  1.
    9900012    2    1    2    0    0 -0.18896309025E+02  0.31101894117E+02  0.18131930016E+02  0.50528865742E+02  0.30000017911E+02 0.  0.
        -12    1    1    2    0    0  0.18896309025E+02 -0.31101894117E+02 -0.18131930016E+02  0.40659134258E+02  0.00000000000E+00 0.  1.
         11    1    3    3    0    0 -0.41627483429E+01  0.91234561654E+01  0.13261519094E+02  0.16626298900E+02  0.51100000000E-03 0. -1.
        -11    1    3    3    0    0 -0.16117774442E+02  0.20884413521E+02  0.10203498871E+02  0.28285204093E+02  0.51100000000E-03 0.  1.
         12    1    3    3    0    0  0.13842137598E+01  0.10940244309E+01 -0.53330879492E+01  0.56173627498E+01  0.00000000000E+00 0. -1.
</event>
<event>
 7    1  0.8697654E-014  0.5052887E+02  0.7816164E-02  0.1300439E+00
        -11   -1    0    0    0    0  0.00000000000E+00  0.00000000000E+00  0.45593999997E+02  0.45594000000E+02  0.51100000000E-03 0. -1.
         11   -1    0    0    0    0 -0.00000000000E+00 -0.00000000000E+00 -0.45593999997E+02  0.45594000000E+02  0.51100000000E-03 0.  1.
    9900012    2    1    2    0    0 -0.10793532639E+01 -0.19245923103E+02  0.35799365488E+02  0.50528866599E+02  0.30000020514E+02 0.  0.
        -12    1    1    2    0    0  0.10793532639E+01  0.19245923103E+02 -0.35799365488E+02  0.40659133401E+02  0.00000000000E+00 0.  1.
         11    1    3    3    0    0  0.19642375226E-01  0.27786673693E+01  0.21318198836E+02  0.21498534369E+02  0.51100000000E-03 0. -1.
        -11    1    3    3    0    0 -0.51708824504E+01 -0.36849750919E+01  0.42254892326E+01  0.76270457098E+01  0.51100000000E-03 0.  1.
        -12    1    3    3    0    0  0.40718868113E+01 -0.18339615381E+02  0.10255677420E+02  0.21403286520E+02  0.00000000000E+00 0.  1.
</event>
<event>
 7    1  0.8697654E-014  0.5052886E+02  0.7816164E-02  0.1300439E+00
        -11   -1    0    0    0    0  0.00000000000E+00  0.00000000000E+00  0.45593999997E+02  0.45594000000E+02  0.51100000000E-03 0. -1.
         11   -1    0    0    0    0 -0.00000000000E+00 -0.00000000000E+00 -0.45593999997E+02  0.45594000000E+02  0.51100000000E-03 0.  1.
    9900012    2    1    2    0    0 -0.64319862198E+01 -0.39589413555E+02  0.66688267700E+01  0.50528863723E+02  0.30000011771E+02 0.  0.
        -12    1    1    2    0    0  0.64319862198E+01  0.39589413555E+02 -0.66688267700E+01  0.40659136277E+02  0.00000000000E+00 0.  1.
         11    1    3    3    0    0  0.22209270295E+01 -0.28655295787E+02  0.10119514916E+02  0.30470692081E+02  0.51100000000E-03 0. -1.
        -11    1    3    3    0    0  0.34857840706E+01 -0.37341723631E+01 -0.30283437106E+01  0.59384846311E+01  0.51100000000E-03 0.  1.
        -12    1    3    3    0    0 -0.12138697320E+02 -0.71999454049E+01 -0.42234443497E+00  0.14119687011E+02  0.00000000000E+00 0.  1.
</event>
<event>
 7    1  0.8697654E-014  0.5052886E+02  0.7816164E-02  0.1300439E+00
        -11   -1    0    0    0    0  0.00000000000E+00  0.00000000000E+00  0.45593999997E+02  0.45594000000E+02  0.51100000000E-03 0. -1.
         11   -1    0    0    0    0 -0.00000000000E+00 -0.00000000000E+00 -0.45593999997E+02  0.45594000000E+02  0.51100000000E-03 0.  1.
    9900012    2    1    2    0    0  0.39143073519E+01  0.11392502830E+02 -0.38833676184E+02  0.50528864142E+02  0.30000013045E+02 0.  0.
         12    1    1    2    0    0 -0.39143073519E+01 -0.11392502830E+02  0.38833676184E+02  0.40659135858E+02  0.00000000000E+00 0. -1.
         11    1    3    3    0    0  0.32387279465E+01  0.45918279365E+01 -0.14850268714E+02  0.15877806009E+02  0.51100000000E-03 0.  1.
        -11    1    3    3    0    0  0.68407457641E+01  0.85179953999E+01 -0.25783771974E+02  0.28002766751E+02  0.51100000000E-03 0. -1.
         12    1    3    3    0    0 -0.61651663587E+01 -0.17173205060E+01  0.18003645040E+01  0.66482913818E+01  0.00000000000E+00 0. -1.
</event>
<event>
 7    1  0.8697654E-014  0.5052887E+02  0.7816164E-02  0.1300439E+00
        -11   -1    0    0    0    0  0.00000000000E+00  0.00000000000E+00  0.45593999997E+02  0.45594000000E+02  0.51100000000E-03 0. -1.
         11   -1    0    0    0    0 -0.00000000000E+00 -0.00000000000E+00 -0.45593999997E+02  0.45594000000E+02  0.51100000000E-03 0.  1.
    9900012    2    1    2    0    0 -0.30842811470E+02 -0.12277354011E+02  0.23476636430E+02  0.50528869427E+02  0.30000029111E+02 0.  0.
        -12    1    1    2    0    0  0.30842811470E+02  0.12277354011E+02 -0.23476636430E+02  0.40659130573E+02  0.00000000000E+00 0.  1.
         11    1    3    3    0    0 -0.59622474612E+01 -0.57898714109E+01 -0.35028363491E+01  0.90189172572E+01  0.51100000000E-03 0. -1.
        -11    1    3    3    0    0  0.14562476607E+00  0.39647811322E+01  0.13395339238E+01  0.41874870021E+01  0.51100000000E-03 0.  1.
         12    1    3    3    0    0 -0.25026188774E+02 -0.10452263733E+02  0.25639938855E+02  0.37322465168E+02  0.00000000000E+00 0. -1.
</event>
<event>
 7    1  0.8697654E-014  0.5052883E+02  0.7816164E-02  0.1300439E+00
        -11   -1    0    0    0    0  0.00000000000E+00  0.00000000000E+00  0.45593999997E+02  0.45594000000E+02  0.51100000000E-03 0. -1.
         11   -1    0    0    0    0 -0.00000000000E+00 -0.00000000000E+00 -0.45593999997E+02  0.45594000000E+02  0.51100000000E-03 0.  1.
    9900012    2    1    2    0    0 -0.10132461944E+01  0.41324763384E+01  0.40435920577E+02  0.50528834964E+02  0.29999924355E+02 0.  0.
        -12    1    1    2    0    0  0.10132461944E+01 -0.41324763384E+01 -0.40435920577E+02  0.40659165036E+02  0.00000000000E+00 0.  1.
         11    1    3    3    0    0  0.14027352514E+01  0.31583583232E+01  0.12763286227E+02  0.13222872951E+02  0.51100000000E-03 0. -1.
        -11    1    3    3    0    0 -0.99743890889E+01  0.92225222330E+01  0.12547451645E+02  0.18492752556E+02  0.51100000000E-03 0.  1.
        -12    1    3    3    0    0  0.75584076431E+01 -0.82484042178E+01  0.15125182705E+02  0.18813209457E+02  0.00000000000E+00 0.  1.
</event>
<event>
 7    1  0.8697654E-014  0.5052886E+02  0.7816164E-02  0.1300439E+00
        -11   -1    0    0    0    0  0.00000000000E+00  0.00000000000E+00  0.45593999997E+02  0.45594000000E+02  0.51100000000E-03 0. -1.
         11   -1    0    0    0    0 -0.00000000000E+00 -0.00000000000E+00 -0.45593999997E+02  0.45594000000E+02  0.51100000000E-03 0.  1.
    9900012    2    1    2    0    0 -0.44499886882E-01 -0.30348087510E+02  0.27058403456E+02  0.50528860888E+02  0.30000003154E+02 0.  0.
        -12    1    1    2    0    0  0.44499886882E-01  0.30348087510E+02 -0.27058403456E+02  0.40659139112E+02  0.00000000000E+00 0.  1.
         11    1    3    3    0    0 -0.80026580399E+01 -0.20939727463E+02  0.19070871859E+02  0.29431494621E+02  0.51100000000E-03 0. -1.
        -11    1    3    3    0    0 -0.32296170685E+01  0.54142825241E+00  0.47659764547E+01  0.57825688746E+01  0.51100000000E-03 0.  1.
        -12    1    3    3    0    0  0.11187775222E+02 -0.99497882996E+01  0.32215551424E+01  0.15314797392E+02  0.00000000000E+00 0.  1.
</event>
<event>
 7    1  0.8697654E-014  0.5052886E+02  0.7816164E-02  0.1300439E+00
        -11   -1    0    0    0    0  0.00000000000E+00  0.00000000000E+00  0.45593999997E+02  0.45594000000E+02  0.51100000000E-03 0. -1.
         11   -1    0    0    0    0 -0.00000000000E+00 -0.00000000000E+00 -0.45593999997E+02  0.45594000000E+02  0.51100000000E-03 0.  1.
    9900012    2    1    2    0    0 -0.34502987784E+02  0.21286992144E+02 -0.30940518949E+01  0.50528863785E+02  0.30000011962E+02 0.  0.
         12    1    1    2    0    0  0.34502987784E+02 -0.21286992144E+02  0.30940518949E+01  0.40659136215E+02  0.00000000000E+00 0. -1.
         11    1    3    3    0    0 -0.69350647597E+01 -0.67756757981E+00 -0.56317538360E+01  0.89594013515E+01  0.51100000000E-03 0. -1.
        -11    1    3    3    0    0 -0.25787345340E+02  0.18616403594E+02 -0.58736325418E+01  0.32342807886E+02  0.51100000000E-03 0.  1.
         12    1    3    3    0    0 -0.17805776845E+01  0.33481561305E+01  0.84113344829E+01  0.92266545480E+01  0.00000000000E+00 0. -1.
</event>
<event>
 7    1  0.8697654E-014  0.5052886E+02  0.7816164E-02  0.1300439E+00
        -11   -1    0    0    0    0  0.00000000000E+00  0.00000000000E+00  0.45593999997E+02  0.45594000000E+02  0.51100000000E-03 0. -1.
         11   -1    0    0    0    0 -0.00000000000E+00 -0.00000000000E+00 -0.45593999997E+02  0.45594000000E+02  0.51100000000E-03 0.  1.
    9900012    2    1    2    0    0 -0.23494659942E+02 -0.17831562006E+02 -0.27985743580E+02  0.50528862120E+02  0.30000006901E+02 0.  0.
         12    1    1    2    0    0  0.23494659942E+02  0.17831562006E+02  0.27985743580E+02  0.40659137880E+02  0.00000000000E+00 0. -1.
         11    1    3    3    0    0  0.26702750719E+01  0.54625070079E+01 -0.34931322251E+01  0.70122268057E+01  0.51100000000E-03 0. -1.
        -11    1    3    3    0    0 -0.88422204375E+01 -0.31152166764E+01 -0.63169862262E+01  0.11304589884E+02  0.51100000000E-03 0.  1.
        -12    1    3    3    0    0 -0.17322714577E+02 -0.20178852338E+02 -0.18175625129E+02  0.32212045430E+02  0.00000000000E+00 0.  1.
</event>
<event>
 7    1  0.8697654E-014  0.5052888E+02  0.7816164E-02  0.1300439E+00
        -11   -1    0    0    0    0  0.00000000000E+00  0.00000000000E+00  0.45593999997E+02  0.45594000000E+02  0.51100000000E-03 0. -1.
         11   -1    0    0    0    0 -0.00000000000E+00 -0.00000000000E+00 -0.45593999997E+02  0.45594000000E+02  0.51100000000E-03 0.  1.
    9900012    2    1    2    0    0  0.97758942581E+01  0.17676451929E+02 -0.35286522591E+02  0.50528883704E+02  0.30000072508E+02 0.  0.
         12    1    1    2    0    0 -0.97758942581E+01 -0.17676451929E+02  0.35286522591E+02  0.40659116296E+02  0.00000000000E+00 0. -1.
         11    1    3    3    0    0 -0.61962344931E+01  0.22170222068E+01 -0.12472784614E+02  0.14102441833E+02  0.51100000000E-03 0.  1.
        -11    1    3    3    0    0 -0.35751512696E+01  0.51572844781E+01 -0.57085125411E+01  0.84833015673E+01  0.51100000000E-03 0. -1.
         12    1    3    3    0    0  0.19547280021E+02  0.10302145244E+02 -0.17105225436E+02  0.27943140304E+02  0.00000000000E+00 0. -1.
</event>
<event>
 7    1  0.8697654E-014  0.5052886E+02  0.7816164E-02  0.1300439E+00
        -11   -1    0    0    0    0  0.00000000000E+00  0.00000000000E+00  0.45593999997E+02  0.45594000000E+02  0.51100000000E-03 0. -1.
         11   -1    0    0    0    0 -0.00000000000E+00 -0.00000000000E+00 -0.45593999997E+02  0.45594000000E+02  0.51100000000E-03 0.  1.
    9900012    2    1    2    0    0 -0.35088124588E+02  0.14268771646E+02 -0.14778069789E+02  0.50528859846E+02  0.29999999987E+02 0.  0.
         12    1    1    2    0    0  0.35088124588E+02 -0.14268771646E+02  0.14778069789E+02  0.40659140154E+02  0.00000000000E+00 0. -1.
         11    1    3    3    0    0 -0.27193717500E+02  0.45192743310E+01 -0.60850705912E+01  0.28230306345E+02  0.51100000000E-03 0. -1.
        -11    1    3    3    0    0 -0.95591585648E+01  0.72406383501E+01 -0.12581252322E+02  0.17380801662E+02  0.51100000000E-03 0.  1.
         12    1    3    3    0    0  0.16647514768E+01  0.25088589649E+01  0.38882531243E+01  0.49177518384E+01  0.00000000000E+00 0. -1.
</event>
<event>
 7    1  0.8697654E-014  0.5052889E+02  0.7816164E-02  0.1300439E+00
        -11   -1    0    0    0    0  0.00000000000E+00  0.00000000000E+00  0.45593999997E+02  0.45594000000E+02  0.51100000000E-03 0. -1.
         11   -1    0    0    0    0 -0.00000000000E+00 -0.00000000000E+00 -0.45593999997E+02  0.45594000000E+02  0.51100000000E-03 0.  1.
    9900012    2    1    2    0    0  0.33595352031E+02 -0.60576339285E+01 -0.22086655327E+02  0.50528893388E+02  0.30000101942E+02 0.  0.
         12    1    1    2    0    0 -0.33595352031E+02  0.60576339285E+01  0.22086655327E+02  0.40659106612E+02  0.00000000000E+00 0. -1.
         11    1    3    3    0    0  0.82610649032E+01 -0.35269149388E+00 -0.14223415956E+01  0.83900322110E+01  0.51100000000E-03 0. -1.
        -11    1    3    3    0    0  0.29317194886E+02 -0.45357153556E+00 -0.13123526248E+02  0.32123676386E+02  0.51100000000E-03 0.  1.
        -12    1    3    3    0    0 -0.39829077577E+01 -0.52513708991E+01 -0.75407874835E+01  0.10015184791E+02  0.00000000000E+00 0.  1.
</event>
<event>
 7    1  0.8697654E-014  0.5052885E+02  0.7816164E-02  0.1300439E+00
        -11   -1    0    0    0    0  0.00000000000E+00  0.00000000000E+00  0.45593999997E+02  0.45594000000E+02  0.51100000000E-03 0. -1.
         11   -1    0    0    0    0 -0.00000000000E+00 -0.00000000000E+00 -0.45593999997E+02  0.45594000000E+02  0.51100000000E-03 0.  1.
    9900012    2    1    2    0    0  0.16808279944E+00 -0.29499230791E+02 -0.27980943791E+02  0.50528854847E+02  0.29999984794E+02 0.  0.
         12    1    1    2    0    0 -0.16808279944E+00  0.29499230791E+02  0.27980943791E+02  0.40659145153E+02  0.00000000000E+00 0. -1.
         11    1    3    3    0    0  0.72603996702E+01 -0.63789263495E+00 -0.13006392003E+02  0.14909277098E+02  0.51100000000E-03 0. -1.
        -11    1    3    3    0    0 -0.30216960620E+01 -0.18349408789E+00 -0.32704073314E-01  0.30274390149E+01  0.51100000000E-03 0.  1.
        -12    1    3    3    0    0 -0.40706208088E+01 -0.28677844068E+02 -0.14941847715E+02  0.32592138734E+02  0.00000000000E+00 0.  1.
</event>
<event>
 7    1  0.8697654E-014  0.5052885E+02  0.7816164E-02  0.1300439E+00
        -11   -1    0    0    0    0  0.00000000000E+00  0.00000000000E+00  0.45593999997E+02  0.45594000000E+02  0.51100000000E-03 0. -1.
         11   -1    0    0    0    0 -0.00000000000E+00 -0.00000000000E+00 -0.45593999997E+02  0.45594000000E+02  0.51100000000E-03 0.  1.
    9900012    2    1    2    0    0 -0.38914858650E+02  0.15267362642E+01 -0.11682017524E+02  0.50528847515E+02  0.29999962506E+02 0.  0.
         12    1    1    2    0    0  0.38914858650E+02 -0.15267362642E+01  0.11682017524E+02  0.40659152485E+02  0.00000000000E+00 0. -1.
         11    1    3    3    0    0 -0.15153117805E+02 -0.26180138489E+01 -0.95853925199E+01  0.18120450484E+02  0.51100000000E-03 0. -1.
        -11    1    3    3    0    0 -0.13729541885E+02  0.96024450203E+01 -0.90451613662E+01  0.19040016154E+02  0.51100000000E-03 0.  1.
         12    1    3    3    0    0 -0.10032198960E+02 -0.54576949072E+01  0.69485363625E+01  0.13368380876E+02  0.00000000000E+00 0. -1.
</event>
<event>
 7    1  0.8697654E-014  0.5052891E+02  0.7816164E-02  0.1300439E+00
        -11   -1    0    0    0    0  0.00000000000E+00  0.00000000000E+00  0.45593999997E+02  0.45594000000E+02  0.51100000000E-03 0. -1.
         11   -1    0    0    0    0 -0.00000000000E+00 -0.00000000000E+00 -0.45593999997E+02  0.45594000000E+02  0.51100000000E-03 0.  1.
    9900012    2    1    2    0    0 -0.29652592342E+02  0.73397867250E+01  0.26833054888E+02  0.50528910777E+02  0.30000154799E+02 0.  0.
        -12    1    1    2    0    0  0.29652592342E+02 -0.73397867250E+01 -0.26833054888E+02  0.40659089223E+02  0.00000000000E+00 0.  1.
         11    1    3    3    0    0 -0.18760392446E+02  0.64273648458E+01  0.18533372532E+02  0.27143125119E+02  0.51100000000E-03 0. -1.
        -11    1    3    3    0    0 -0.85898421815E+01 -0.41645461692E+01  0.12976223472E+02  0.16109351612E+02  0.51100000000E-03 0.  1.
        -12    1    3    3    0    0 -0.23023577153E+01  0.50769680484E+01 -0.46765411162E+01  0.72764340460E+01  0.00000000000E+00 0.  1.
</event>
<event>
 7    1  0.8697654E-014  0.5052886E+02  0.7816164E-02  0.1300439E+00
        -11   -1    0    0    0    0  0.00000000000E+00  0.00000000000E+00  0.45593999997E+02  0.45594000000E+02  0.51100000000E-03 0. -1.
         11   -1    0    0    0    0 -0.00000000000E+00 -0.00000000000E+00 -0.45593999997E+02  0.45594000000E+02  0.51100000000E-03 0.  1.
    9900012    2    1    2    0    0 -0.26556897531E+02 -0.13815053779E+02  0.27514386578E+02  0.50528856057E+02  0.29999988471E+02 0.  0.
        -12    1    1    2    0    0  0.26556897531E+02  0.13815053779E+02 -0.27514386578E+02  0.40659143943E+02  0.00000000000E+00 0.  1.
         11    1    3    3    0    0 -0.36992659418E+01 -0.86324537006E+01  0.17482199609E+02  0.19845178982E+02  0.51100000000E-03 0. -1.
        -11    1    3    3    0    0 -0.24433915335E+01 -0.71700193571E+01  0.62645645668E+01  0.98297563164E+01  0.51100000000E-03 0.  1.
         12    1    3    3    0    0 -0.20414240056E+02  0.19874192781E+01  0.37676224022E+01  0.20853920758E+02  0.00000000000E+00 0. -1.
</event>
<event>
 7    1  0.8697654E-014  0.5052886E+02  0.7816164E-02  0.1300439E+00
        -11   -1    0    0    0    0  0.00000000000E+00  0.00000000000E+00  0.45593999997E+02  0.45594000000E+02  0.51100000000E-03 0.  1.
         11   -1    0    0    0    0 -0.00000000000E+00 -0.00000000000E+00 -0.45593999997E+02  0.45594000000E+02  0.51100000000E-03 0. -1.
    9900012    2    1    2    0    0 -0.19847560561E+02  0.22665406271E+02 -0.27304194465E+02  0.50528864040E+02  0.30000012736E+02 0.  0.
         12    1    1    2    0    0  0.19847560561E+02 -0.22665406271E+02  0.27304194465E+02  0.40659135960E+02  0.00000000000E+00 0. -1.
         11    1    3    3    0    0 -0.82566262145E+01 -0.38248865994E+01 -0.51661147342E+01  0.10463764889E+02  0.51100000000E-03 0. -1.
        -11    1    3    3    0    0  0.19145879989E+01  0.18748750051E+01  0.17504449177E+01  0.32007594663E+01  0.51100000000E-03 0.  1.
        -12    1    3    3    0    0 -0.13505522345E+02  0.24615417866E+02 -0.23888524648E+02  0.36864339685E+02  0.00000000000E+00 0.  1.
</event>
<event>
 7    1  0.8697654E-014  0.5052885E+02  0.7816164E-02  0.1300439E+00
        -11   -1    0    0    0    0  0.00000000000E+00  0.00000000000E+00  0.45593999997E+02  0.45594000000E+02  0.51100000000E-03 0.  1.
         11   -1    0    0    0    0 -0.00000000000E+00 -0.00000000000E+00 -0.45593999997E+02  0.45594000000E+02  0.51100000000E-03 0. -1.
    9900012    2    1    2    0    0 -0.29983605389E+02  0.26299995061E+02 -0.79031544233E+01  0.50528853646E+02  0.29999981144E+02 0.  0.
         12    1    1    2    0    0  0.29983605389E+02 -0.26299995061E+02  0.79031544233E+01  0.40659146354E+02  0.00000000000E+00 0. -1.
         11    1    3    3    0    0 -0.22025743658E+02  0.71189140639E+01 -0.96377725112E+01  0.25073870471E+02  0.51100000000E-03 0. -1.
        -11    1    3    3    0    0 -0.81251548524E+01  0.12635231309E+02 -0.52195741420E+01  0.15903181005E+02  0.51100000000E-03 0.  1.
        -12    1    3    3    0    0  0.16729312112E+00  0.65458496885E+01  0.69541922299E+01  0.95518021704E+01  0.00000000000E+00 0.  1.
</event>
<event>
 7    1  0.8697654E-014  0.5052886E+02  0.7816164E-02  0.1300439E+00
        -11   -1    0    0    0    0  0.00000000000E+00  0.00000000000E+00  0.45593999997E+02  0.45594000000E+02  0.51100000000E-03 0. -1.
         11   -1    0    0    0    0 -0.00000000000E+00 -0.00000000000E+00 -0.45593999997E+02  0.45594000000E+02  0.51100000000E-03 0.  1.
    9900012    2    1    2    0    0 -0.14773145187E+02 -0.28755911025E+02 -0.24658003757E+02  0.50528863427E+02  0.30000010872E+02 0.  0.
         12    1    1    2    0    0  0.14773145187E+02  0.28755911025E+02  0.24658003757E+02  0.40659136573E+02  0.00000000000E+00 0. -1.
         11    1    3    3    0    0 -0.35400506559E+01 -0.18312918224E+02 -0.19376403545E+02  0.26894979961E+02  0.51100000000E-03 0. -1.
        -11    1    3    3    0    0 -0.11557153176E+02 -0.12545187459E+02 -0.90479538114E+01  0.19308417500E+02  0.51100000000E-03 0.  1.
         12    1    3    3    0    0  0.32405864453E+00  0.21021946583E+01  0.37663535990E+01  0.43254659655E+01  0.00000000000E+00 0. -1.
</event>
<event>
 7    1  0.8697654E-014  0.5052886E+02  0.7816164E-02  0.1300439E+00
        -11   -1    0    0    0    0  0.00000000000E+00  0.00000000000E+00  0.45593999997E+02  0.45594000000E+02  0.51100000000E-03 0. -1.
         11   -1    0    0    0    0 -0.00000000000E+00 -0.00000000000E+00 -0.45593999997E+02  0.45594000000E+02  0.51100000000E-03 0.  1.
    9900012    2    1    2    0    0 -0.12397355072E+02  0.12173045489E+02  0.36759873376E+02  0.50528859086E+02  0.29999997677E+02 0.  0.
        -12    1    1    2    0    0  0.12397355072E+02 -0.12173045489E+02 -0.36759873376E+02  0.40659140914E+02  0.00000000000E+00 0.  1.
         11    1    3    3    0    0 -0.11869142921E+02  0.73094895320E+01  0.33911652421E+02  0.36664770026E+02  0.51100000000E-03 0. -1.
        -11    1    3    3    0    0  0.18278881922E+01 -0.16771044019E+01  0.58023462983E+01  0.63103943811E+01  0.51100000000E-03 0.  1.
        -12    1    3    3    0    0 -0.23561003431E+01  0.65406603586E+01 -0.29541253428E+01  0.75536946784E+01  0.00000000000E+00 0.  1.
</event>
<event>
 7    1  0.8697654E-014  0.5052887E+02  0.7816164E-02  0.1300439E+00
        -11   -1    0    0    0    0  0.00000000000E+00  0.00000000000E+00  0.45593999997E+02  0.45594000000E+02  0.51100000000E-03 0. -1.
         11   -1    0    0    0    0 -0.00000000000E+00 -0.00000000000E+00 -0.45593999997E+02  0.45594000000E+02  0.51100000000E-03 0.  1.
    9900012    2    1    2    0    0  0.28911530926E+02 -0.16303834519E+02  0.23483471978E+02  0.50528866996E+02  0.30000021721E+02 0.  0.
        -12    1    1    2    0    0 -0.28911530926E+02  0.16303834519E+02 -0.23483471978E+02  0.40659133004E+02  0.00000000000E+00 0.  1.
         11    1    3    3    0    0  0.33465091886E+02 -0.15029864655E+02  0.24233790672E+02  0.43966871814E+02  0.51100000000E-03 0. -1.
        -11    1    3    3    0    0 -0.64765880533E+00 -0.19031164507E+01 -0.15341830266E+01  0.25288400450E+01  0.51100000000E-03 0.  1.
         12    1    3    3    0    0 -0.39059021545E+01  0.62914658665E+00  0.78386433197E+00  0.40331551370E+01  0.00000000000E+00 0. -1.
</event>
<event>
 7    1  0.8697654E-014  0.5052889E+02  0.7816164E-02  0.1300439E+00
        -11   -1    0    0    0    0  0.00000000000E+00  0.00000000000E+00  0.45593999997E+02  0.45594000000E+02  0.51100000000E-03 0. -1.
         11   -1    0    0    0    0 -0.00000000000E+00 -0.00000000000E+00 -0.45593999997E+02  0.45594000000E+02  0.51100000000E-03 0.  1.
    9900012    2    1    2    0    0 -0.26851963759E+02 -0.13995838906E+02 -0.27133965369E+02  0.50528886126E+02  0.30000079867E+02 0.  0.
         12    1    1    2    0    0  0.26851963759E+02  0.13995838906E+02  0.27133965369E+02  0.40659113874E+02  0.00000000000E+00 0. -1.
         11    1    3    3    0    0 -0.19611679216E+02  0.38331866608E+01 -0.14479588117E+02  0.24677312535E+02  0.51100000000E-03 0. -1.
        -11    1    3    3    0    0 -0.58743683117E+01 -0.65297503494E+01  0.64877409824E-01  0.87835102338E+01  0.51100000000E-03 0.  1.
        -12    1    3    3    0    0 -0.13659162309E+01 -0.11299275218E+02 -0.12719254662E+02  0.17068063357E+02  0.00000000000E+00 0.  1.
</event>
<event>
 7    1  0.8697654E-014  0.5052885E+02  0.7816164E-02  0.1300439E+00
        -11   -1    0    0    0    0  0.00000000000E+00  0.00000000000E+00  0.45593999997E+02  0.45594000000E+02  0.51100000000E-03 0. -1.
         11   -1    0    0    0    0 -0.00000000000E+00 -0.00000000000E+00 -0.45593999997E+02  0.45594000000E+02  0.51100000000E-03 0.  1.
    9900012    2    1    2    0    0  0.17164247661E+02  0.73613600425E+01 -0.36116002906E+02  0.50528847459E+02  0.29999962337E+02 0.  0.
         12    1    1    2    0    0 -0.17164247661E+02 -0.73613600425E+01  0.36116002906E+02  0.40659152541E+02  0.00000000000E+00 0. -1.
         11    1    3    3    0    0 -0.34174957181E+01  0.92983682076E+00  0.15460489850E+01  0.38644716614E+01  0.51100000000E-03 0. -1.
        -11    1    3    3    0    0  0.63785058433E+00  0.36570871794E+01  0.26685574129E+00  0.37218748304E+01  0.51100000000E-03 0.  1.
         12    1    3    3    0    0  0.19943892795E+02  0.27744360424E+01 -0.37928907632E+02  0.42942500967E+02  0.00000000000E+00 0. -1.
</event>
<event>
 7    1  0.8697654E-014  0.5052886E+02  0.7816164E-02  0.1300439E+00
        -11   -1    0    0    0    0  0.00000000000E+00  0.00000000000E+00  0.45593999997E+02  0.45594000000E+02  0.51100000000E-03 0. -1.
         11   -1    0    0    0    0 -0.00000000000E+00 -0.00000000000E+00 -0.45593999997E+02  0.45594000000E+02  0.51100000000E-03 0.  1.
    9900012    2    1    2    0    0 -0.15867192350E+02  0.19651977950E+02 -0.31862170202E+02  0.50528856866E+02  0.29999990930E+02 0.  0.
         12    1    1    2    0    0  0.15867192350E+02 -0.19651977950E+02  0.31862170202E+02  0.40659143134E+02  0.00000000000E+00 0. -1.
         11    1    3    3    0    0  0.55357906476E+01  0.27896356062E+01 -0.56684715396E+01  0.83999175452E+01  0.51100000000E-03 0. -1.
        -11    1    3    3    0    0 -0.33397082884E+01  0.41570571105E+01  0.25257209186E+01  0.59003425063E+01  0.51100000000E-03 0.  1.
        -12    1    3    3    0    0 -0.18063274709E+02  0.12705285233E+02 -0.28719419581E+02  0.36228596814E+02  0.00000000000E+00 0.  1.
</event>
<event>
 7    1  0.8697654E-014  0.5052885E+02  0.7816164E-02  0.1300439E+00
        -11   -1    0    0    0    0  0.00000000000E+00  0.00000000000E+00  0.45593999997E+02  0.45594000000E+02  0.51100000000E-03 0. -1.
         11   -1    0    0    0    0 -0.00000000000E+00 -0.00000000000E+00 -0.45593999997E+02  0.45594000000E+02  0.51100000000E-03 0.  1.
    9900012    2    1    2    0    0  0.16462538224E+02 -0.15999686085E+02  0.33558326594E+02  0.50528850927E+02  0.29999972877E+02 0.  0.
        -12    1    1    2    0    0 -0.16462538224E+02  0.15999686085E+02 -0.33558326594E+02  0.40659149073E+02  0.00000000000E+00 0.  1.
         11    1    3    3    0    0  0.19672309655E+01 -0.13784140954E+02  0.24266570974E+02  0.27977473199E+02  0.51100000000E-03 0. -1.
        -11    1    3    3    0    0  0.92382785702E+01 -0.82525264314E+01  0.69823657576E+01  0.14219824727E+02  0.51100000000E-03 0.  1.
        -12    1    3    3    0    0  0.52570286886E+01  0.60369813009E+01  0.23093898622E+01  0.83315530003E+01  0.00000000000E+00 0.  1.
</event>
<event>
 7    1  0.8697654E-014  0.5052884E+02  0.7816164E-02  0.1300439E+00
        -11   -1    0    0    0    0  0.00000000000E+00  0.00000000000E+00  0.45593999997E+02  0.45594000000E+02  0.51100000000E-03 0.  1.
         11   -1    0    0    0    0 -0.00000000000E+00 -0.00000000000E+00 -0.45593999997E+02  0.45594000000E+02  0.51100000000E-03 0. -1.
    9900012    2    1    2    0    0  0.21856870872E+02 -0.34233202510E+02  0.18794517047E+01  0.50528839936E+02  0.29999939468E+02 0.  0.
         12    1    1    2    0    0 -0.21856870872E+02  0.34233202510E+02 -0.18794517047E+01  0.40659160064E+02  0.00000000000E+00 0. -1.
         11    1    3    3    0    0  0.46470534736E+01 -0.29500566079E+02  0.34363864305E+01  0.30061391467E+02  0.51100000000E-03 0. -1.
        -11    1    3    3    0    0  0.27155788211E+01  0.26089944471E+01 -0.18964441900E+01  0.42163635025E+01  0.51100000000E-03 0.  1.
        -12    1    3    3    0    0  0.14494238577E+02 -0.73416308780E+01  0.33950946416E+00  0.16251084966E+02  0.00000000000E+00 0.  1.
</event>
<event>
 7    1  0.8697654E-014  0.5052887E+02  0.7816164E-02  0.1300439E+00
        -11   -1    0    0    0    0  0.00000000000E+00  0.00000000000E+00  0.45593999997E+02  0.45594000000E+02  0.51100000000E-03 0. -1.
         11   -1    0    0    0    0 -0.00000000000E+00 -0.00000000000E+00 -0.45593999997E+02  0.45594000000E+02  0.51100000000E-03 0.  1.
    9900012    2    1    2    0    0  0.25186112951E+02 -0.29984435118E+02  0.10943391310E+02  0.50528874969E+02  0.30000045956E+02 0.  0.
        -12    1    1    2    0    0 -0.25186112951E+02  0.29984435118E+02 -0.10943391310E+02  0.40659125031E+02  0.00000000000E+00 0.  1.
         11    1    3    3    0    0  0.52791602887E+01  0.30150910638E+01 -0.28703872666E+00  0.60862713519E+01  0.51100000000E-03 0. -1.
        -11    1    3    3    0    0  0.87775532078E+01 -0.12741006812E+02  0.14370349491E+02  0.21116004349E+02  0.51100000000E-03 0.  1.
        -12    1    3    3    0    0  0.11129399454E+02 -0.20258519370E+02 -0.31399194541E+01  0.23326599269E+02  0.00000000000E+00 0.  1.
</event>
<event>
 7    1  0.8697654E-014  0.5052887E+02  0.7816164E-02  0.1300439E+00
        -11   -1    0    0    0    0  0.00000000000E+00  0.00000000000E+00  0.45593999997E+02  0.45594000000E+02  0.51100000000E-03 0. -1.
         11   -1    0    0    0    0 -0.00000000000E+00 -0.00000000000E+00 -0.45593999997E+02  0.45594000000E+02  0.51100000000E-03 0.  1.
    9900012    2    1    2    0    0 -0.19225539289E+02 -0.28051333981E+02  0.22286016393E+02  0.50528865409E+02  0.30000016896E+02 0.  0.
        -12    1    1    2    0    0  0.19225539289E+02  0.28051333981E+02 -0.22286016393E+02  0.40659134591E+02  0.00000000000E+00 0.  1.
         11    1    3    3    0    0 -0.12277757698E+02 -0.98761441492E+01  0.14773236469E+02  0.21599307243E+02  0.51100000000E-03 0. -1.
        -11    1    3    3    0    0 -0.82039763913E+01  0.98968107443E+00 -0.11508821879E+00  0.82642569428E+01  0.51100000000E-03 0.  1.
         12    1    3    3    0    0  0.12561948001E+01 -0.19164870906E+02  0.76278681423E+01  0.20665301223E+02  0.00000000000E+00 0. -1.
</event>
<event>
 7    1  0.1055877E-013  0.5052886E+02  0.7816164E-02  0.1300439E+00
        -11   -1    0    0    0    0  0.00000000000E+00  0.00000000000E+00  0.45593999997E+02  0.45594000000E+02  0.51100000000E-03 0. -1.
         11   -1    0    0    0    0 -0.00000000000E+00 -0.00000000000E+00 -0.45593999997E+02  0.45594000000E+02  0.51100000000E-03 0.  1.
    9900012    2    1    2    0    0 -0.80538175653E+01 -0.22858821124E+02 -0.32646224139E+02  0.50528860423E+02  0.30000001742E+02 0.  0.
         12    1    1    2    0    0  0.80538175653E+01  0.22858821124E+02  0.32646224139E+02  0.40659139577E+02  0.00000000000E+00 0. -1.
         11    1    3    3    0    0 -0.11490299633E+02 -0.10157412615E+02 -0.91301660935E+01  0.17848247809E+02  0.51100000000E-03 0. -1.
        -11    1    3    3    0    0 -0.54636695404E+01 -0.69743051124E+01 -0.19395487766E+02  0.21323169619E+02  0.51100000000E-03 0.  1.
         12    1    3    3    0    0  0.89001516081E+01 -0.57271033969E+01 -0.41205702793E+01  0.11357442995E+02  0.00000000000E+00 0. -1.
</event>
<event>
 7    1  0.8697654E-014  0.5052885E+02  0.7816164E-02  0.1300439E+00
        -11   -1    0    0    0    0  0.00000000000E+00  0.00000000000E+00  0.45593999997E+02  0.45594000000E+02  0.51100000000E-03 0. -1.
         11   -1    0    0    0    0 -0.00000000000E+00 -0.00000000000E+00 -0.45593999997E+02  0.45594000000E+02  0.51100000000E-03 0.  1.
    9900012    2    1    2    0    0 -0.36852633251E+02 -0.98801398286E+01  0.14051067133E+02  0.50528853081E+02  0.29999979426E+02 0.  0.
        -12    1    1    2    0    0  0.36852633251E+02  0.98801398286E+01 -0.14051067133E+02  0.40659146919E+02  0.00000000000E+00 0.  1.
         11    1    3    3    0    0 -0.70320743548E+01 -0.57515950598E+01 -0.51150879883E+01  0.10425691385E+02  0.51100000000E-03 0. -1.
        -11    1    3    3    0    0 -0.23794060607E+01  0.10857796410E+01 -0.33328731785E+01  0.42365710799E+01  0.51100000000E-03 0.  1.
         12    1    3    3    0    0 -0.27441152836E+02 -0.52143244098E+01  0.22499028300E+02  0.35866590616E+02  0.00000000000E+00 0. -1.
</event>
<event>
 7    1  0.8697654E-014  0.5052873E+02  0.7816164E-02  0.1300439E+00
        -11   -1    0    0    0    0  0.00000000000E+00  0.00000000000E+00  0.45593999997E+02  0.45594000000E+02  0.51100000000E-03 0. -1.
         11   -1    0    0    0    0 -0.00000000000E+00 -0.00000000000E+00 -0.45593999997E+02  0.45594000000E+02  0.51100000000E-03 0.  1.
    9900012    2    1    2    0    0 -0.30100561222E+02 -0.11992506931E+02  0.24562417941E+02  0.50528728198E+02  0.29999599829E+02 0.  0.
        -12    1    1    2    0    0  0.30100561222E+02  0.11992506931E+02 -0.24562417941E+02  0.40659271802E+02  0.00000000000E+00 0.  1.
         11    1    3    3    0    0 -0.10304902482E+02  0.72748872103E+01  0.15581378415E+01  0.12709948579E+02  0.51100000000E-03 0.  1.
        -11    1    3    3    0    0  0.35143803252E+00 -0.43459966765E+01  0.10286375034E+01  0.44798762457E+01  0.51100000000E-03 0. -1.
         12    1    3    3    0    0 -0.20147096772E+02 -0.14921397465E+02  0.21975642596E+02  0.33338903374E+02  0.00000000000E+00 0. -1.
</event>
<event>
 7    1  0.8697654E-014  0.5052884E+02  0.7816164E-02  0.1300439E+00
        -11   -1    0    0    0    0  0.00000000000E+00  0.00000000000E+00  0.45593999997E+02  0.45594000000E+02  0.51100000000E-03 0. -1.
         11   -1    0    0    0    0 -0.00000000000E+00 -0.00000000000E+00 -0.45593999997E+02  0.45594000000E+02  0.51100000000E-03 0.  1.
    9900012    2    1    2    0    0  0.18027201003E+02 -0.26737061576E+02 -0.24765240650E+02  0.50528836430E+02  0.29999928814E+02 0.  0.
         12    1    1    2    0    0 -0.18027201003E+02  0.26737061576E+02  0.24765240650E+02  0.40659163570E+02  0.00000000000E+00 0. -1.
         11    1    3    3    0    0  0.16778112244E+02 -0.12739006509E+02 -0.11033913041E+02  0.23780970850E+02  0.51100000000E-03 0. -1.
        -11    1    3    3    0    0  0.66844541857E+01 -0.14093807082E+02 -0.14451539782E+02  0.21264155947E+02  0.51100000000E-03 0.  1.
         12    1    3    3    0    0 -0.54353654265E+01  0.95752014440E-01  0.72021217305E+00  0.54837096333E+01  0.00000000000E+00 0. -1.
</event>
<event>
 7    1  0.8697654E-014  0.5052885E+02  0.7816164E-02  0.1300439E+00
        -11   -1    0    0    0    0  0.00000000000E+00  0.00000000000E+00  0.45593999997E+02  0.45594000000E+02  0.51100000000E-03 0. -1.
         11   -1    0    0    0    0 -0.00000000000E+00 -0.00000000000E+00 -0.45593999997E+02  0.45594000000E+02  0.51100000000E-03 0.  1.
    9900012    2    1    2    0    0 -0.99834698542E+01 -0.24443870376E+02 -0.30919155164E+02  0.50528848197E+02  0.29999964579E+02 0.  0.
         12    1    1    2    0    0  0.99834698542E+01  0.24443870376E+02  0.30919155164E+02  0.40659151803E+02  0.00000000000E+00 0. -1.
         11    1    3    3    0    0  0.34885274306E+01  0.24227420762E+01 -0.26097158724E+01  0.49849894682E+01  0.51100000000E-03 0. -1.
        -11    1    3    3    0    0  0.41226920436E+01 -0.52847128290E+01 -0.10609404325E+02  0.12549272480E+02  0.51100000000E-03 0.  1.
        -12    1    3    3    0    0 -0.17594689328E+02 -0.21581899623E+02 -0.17700034967E+02  0.32994586249E+02  0.00000000000E+00 0.  1.
</event>
<event>
 7    1  0.8697654E-014  0.5052888E+02  0.7816164E-02  0.1300439E+00
        -11   -1    0    0    0    0  0.00000000000E+00  0.00000000000E+00  0.45593999997E+02  0.45594000000E+02  0.51100000000E-03 0. -1.
         11   -1    0    0    0    0 -0.00000000000E+00 -0.00000000000E+00 -0.45593999997E+02  0.45594000000E+02  0.51100000000E-03 0.  1.
    9900012    2    1    2    0    0 -0.10409922877E+02  0.16889332798E+02 -0.35490112117E+02  0.50528879071E+02  0.30000058424E+02 0.  0.
         12    1    1    2    0    0  0.10409922877E+02 -0.16889332798E+02  0.35490112117E+02  0.40659120929E+02  0.00000000000E+00 0. -1.
         11    1    3    3    0    0  0.15857091556E+00 -0.33767574164E+01 -0.24981583015E+01  0.42033832260E+01  0.51100000000E-03 0. -1.
        -11    1    3    3    0    0 -0.15120413942E+02  0.89811925732E+01 -0.28227188929E+02  0.33257524455E+02  0.51100000000E-03 0.  1.
         12    1    3    3    0    0  0.45519201495E+01  0.11284897641E+02 -0.47647648868E+01  0.13067971390E+02  0.00000000000E+00 0. -1.
</event>
<event>
 7    1  0.8697654E-014  0.5052886E+02  0.7816164E-02  0.1300439E+00
        -11   -1    0    0    0    0  0.00000000000E+00  0.00000000000E+00  0.45593999997E+02  0.45594000000E+02  0.51100000000E-03 0. -1.
         11   -1    0    0    0    0 -0.00000000000E+00 -0.00000000000E+00 -0.45593999997E+02  0.45594000000E+02  0.51100000000E-03 0.  1.
    9900012    2    1    2    0    0 -0.24474223386E+02  0.23603170333E+01 -0.32382198646E+02  0.50528862085E+02  0.30000006794E+02 0.  0.
         12    1    1    2    0    0  0.24474223386E+02 -0.23603170333E+01  0.32382198646E+02  0.40659137915E+02  0.00000000000E+00 0. -1.
         11    1    3    3    0    0 -0.46193637868E+01 -0.99133599153E-01  0.10768536300E+01  0.47442558180E+01  0.51100000000E-03 0.  1.
        -11    1    3    3    0    0 -0.20649612229E+02  0.33120706355E+01 -0.36755141836E+02  0.42288494284E+02  0.51100000000E-03 0. -1.
         12    1    3    3    0    0  0.79475263065E+00 -0.85262000303E+00  0.32960895601E+01  0.34961119835E+01  0.00000000000E+00 0. -1.
</event>
<event>
 7    1  0.8697654E-014  0.5052885E+02  0.7816164E-02  0.1300439E+00
        -11   -1    0    0    0    0  0.00000000000E+00  0.00000000000E+00  0.45593999997E+02  0.45594000000E+02  0.51100000000E-03 0. -1.
         11   -1    0    0    0    0 -0.00000000000E+00 -0.00000000000E+00 -0.45593999997E+02  0.45594000000E+02  0.51100000000E-03 0.  1.
    9900012    2    1    2    0    0 -0.10278606216E+02  0.37914661148E+02  0.10487873265E+02  0.50528846524E+02  0.29999959495E+02 0.  0.
        -12    1    1    2    0    0  0.10278606216E+02 -0.37914661148E+02 -0.10487873265E+02  0.40659153476E+02  0.00000000000E+00 0.  1.
         11    1    3    3    0    0  0.98004104946E+00  0.30315860303E+00 -0.77130107818E+00  0.12834684303E+01  0.51100000000E-03 0. -1.
        -11    1    3    3    0    0 -0.12111087149E+02  0.17954200105E+02  0.18294166807E+02  0.28349749078E+02  0.51100000000E-03 0.  1.
         12    1    3    3    0    0  0.85243988376E+00  0.19657302441E+02 -0.70349924647E+01  0.20895629016E+02  0.00000000000E+00 0. -1.
</event>
<event>
 7    1  0.8697654E-014  0.5052883E+02  0.7816164E-02  0.1300439E+00
        -11   -1    0    0    0    0  0.00000000000E+00  0.00000000000E+00  0.45593999997E+02  0.45594000000E+02  0.51100000000E-03 0.  1.
         11   -1    0    0    0    0 -0.00000000000E+00 -0.00000000000E+00 -0.45593999997E+02  0.45594000000E+02  0.51100000000E-03 0. -1.
    9900012    2    1    2    0    0 -0.10205625973E+02  0.35913335491E+02  0.16101096800E+02  0.50528833927E+02  0.29999921205E+02 0.  0.
        -12    1    1    2    0    0  0.10205625973E+02 -0.35913335491E+02 -0.16101096800E+02  0.40659166073E+02  0.00000000000E+00 0.  1.
         11    1    3    3    0    0 -0.10606199143E+02  0.12665258986E+02  0.87062896307E+01  0.18673503282E+02  0.51100000000E-03 0. -1.
        -11    1    3    3    0    0 -0.32808623141E+01  0.23566986464E+02  0.11418566524E+02  0.26392244509E+02  0.51100000000E-03 0.  1.
         12    1    3    3    0    0  0.36814354838E+01 -0.31890995876E+00 -0.40237593549E+01  0.54630861360E+01  0.00000000000E+00 0. -1.
</event>
<event>
 7    1  0.8697654E-014  0.5052886E+02  0.7816164E-02  0.1300439E+00
        -11   -1    0    0    0    0  0.00000000000E+00  0.00000000000E+00  0.45593999997E+02  0.45594000000E+02  0.51100000000E-03 0. -1.
         11   -1    0    0    0    0 -0.00000000000E+00 -0.00000000000E+00 -0.45593999997E+02  0.45594000000E+02  0.51100000000E-03 0.  1.
    9900012    2    1    2    0    0  0.16662628895E+02  0.72314518808E+01  0.36376209589E+02  0.50528859305E+02  0.29999998344E+02 0.  0.
        -12    1    1    2    0    0 -0.16662628895E+02 -0.72314518808E+01 -0.36376209589E+02  0.40659140695E+02  0.00000000000E+00 0.  1.
         11    1    3    3    0    0  0.82912867240E+00  0.44432625176E+01  0.97226602245E+01  0.10721947503E+02  0.51100000000E-03 0. -1.
        -11    1    3    3    0    0 -0.29589525275E+01  0.39473476919E+01 -0.21614051460E+01  0.53859656820E+01  0.51100000000E-03 0.  1.
         12    1    3    3    0    0  0.18792452750E+02 -0.11591583287E+01  0.28814954510E+02  0.34420946120E+02  0.00000000000E+00 0. -1.
</event>
<event>
 7    1  0.9667634E-014  0.5052886E+02  0.7816164E-02  0.1300439E+00
        -11   -1    0    0    0    0  0.00000000000E+00  0.00000000000E+00  0.45593999997E+02  0.45594000000E+02  0.51100000000E-03 0. -1.
         11   -1    0    0    0    0 -0.00000000000E+00 -0.00000000000E+00 -0.45593999997E+02  0.45594000000E+02  0.51100000000E-03 0.  1.
    9900012    2    1    2    0    0 -0.20972786237E+02 -0.23647903037E+02 -0.25575078050E+02  0.50528859603E+02  0.29999999249E+02 0.  0.
         12    1    1    2    0    0  0.20972786237E+02  0.23647903037E+02  0.25575078050E+02  0.40659140397E+02  0.00000000000E+00 0. -1.
         11    1    3    3    0    0 -0.17236986419E+02 -0.11671565460E+02 -0.20919130258E+02  0.29511847656E+02  0.51100000000E-03 0.  1.
        -11    1    3    3    0    0 -0.93275623178E+01 -0.49174274247E+01  0.65063321594E+00  0.10564460948E+02  0.51100000000E-03 0. -1.
         12    1    3    3    0    0  0.55917625001E+01 -0.70589101520E+01 -0.53065810083E+01  0.10452550999E+02  0.00000000000E+00 0. -1.
</event>
<event>
 7    1  0.8697654E-014  0.5052879E+02  0.7816164E-02  0.1300439E+00
        -11   -1    0    0    0    0  0.00000000000E+00  0.00000000000E+00  0.45593999997E+02  0.45594000000E+02  0.51100000000E-03 0. -1.
         11   -1    0    0    0    0 -0.00000000000E+00 -0.00000000000E+00 -0.45593999997E+02  0.45594000000E+02  0.51100000000E-03 0.  1.
    9900012    2    1    2    0    0 -0.29034296613E+02  0.13803598445E+02 -0.24892604570E+02  0.50528788595E+02  0.29999783412E+02 0.  0.
         12    1    1    2    0    0  0.29034296613E+02 -0.13803598445E+02  0.24892604570E+02  0.40659211405E+02  0.00000000000E+00 0. -1.
         11    1    3    3    0    0 -0.80201088076E+01 -0.52712398772E+00 -0.12454550002E+01  0.81333365480E+01  0.51100000000E-03 0. -1.
        -11    1    3    3    0    0  0.50339560935E+01 -0.70795433411E+00 -0.40126133774E+01  0.64763399902E+01  0.51100000000E-03 0.  1.
        -12    1    3    3    0    0 -0.26048143899E+02  0.15038676767E+02 -0.19634536192E+02  0.35919112057E+02  0.00000000000E+00 0.  1.
</event>
<event>
 7    1  0.8697654E-014  0.5052885E+02  0.7816164E-02  0.1300439E+00
        -11   -1    0    0    0    0  0.00000000000E+00  0.00000000000E+00  0.45593999997E+02  0.45594000000E+02  0.51100000000E-03 0. -1.
         11   -1    0    0    0    0 -0.00000000000E+00 -0.00000000000E+00 -0.45593999997E+02  0.45594000000E+02  0.51100000000E-03 0.  1.
    9900012    2    1    2    0    0  0.21540788211E+02  0.21819906617E+02  0.26703039988E+02  0.50528853106E+02  0.29999979502E+02 0.  0.
        -12    1    1    2    0    0 -0.21540788211E+02 -0.21819906617E+02 -0.26703039988E+02  0.40659146894E+02  0.00000000000E+00 0.  1.
         11    1    3    3    0    0  0.22058461081E+02  0.15656625909E+02  0.17174077522E+02  0.32041450952E+02  0.51100000000E-03 0. -1.
        -11    1    3    3    0    0  0.33013649310E+01  0.88297282223E+01  0.20037529564E+01  0.96373303907E+01  0.51100000000E-03 0.  1.
        -12    1    3    3    0    0 -0.38190378006E+01 -0.26664475144E+01  0.75252095093E+01  0.88500717640E+01  0.00000000000E+00 0.  1.
</event>
<event>
 7    1  0.8697654E-014  0.5052890E+02  0.7816164E-02  0.1300439E+00
        -11   -1    0    0    0    0  0.00000000000E+00  0.00000000000E+00  0.45593999997E+02  0.45594000000E+02  0.51100000000E-03 0. -1.
         11   -1    0    0    0    0 -0.00000000000E+00 -0.00000000000E+00 -0.45593999997E+02  0.45594000000E+02  0.51100000000E-03 0.  1.
    9900012    2    1    2    0    0 -0.31380325575E+02  0.73673628879E+01  0.24782240735E+02  0.50528901081E+02  0.30000125324E+02 0.  0.
        -12    1    1    2    0    0  0.31380325575E+02 -0.73673628879E+01 -0.24782240735E+02  0.40659098919E+02  0.00000000000E+00 0.  1.
         11    1    3    3    0    0  0.69955352028E+00  0.11353398154E+01  0.80718180214E+01  0.81812357292E+01  0.51100000000E-03 0. -1.
        -11    1    3    3    0    0 -0.13369529009E+02 -0.78120297906E+01  0.74983887087E+01  0.17204590924E+02  0.51100000000E-03 0.  1.
         12    1    3    3    0    0 -0.18710350086E+02  0.14044052863E+02  0.92120340052E+01  0.25143074428E+02  0.00000000000E+00 0. -1.
</event>
<event>
 7    1  0.8697654E-014  0.5052885E+02  0.7816164E-02  0.1300439E+00
        -11   -1    0    0    0    0  0.00000000000E+00  0.00000000000E+00  0.45593999997E+02  0.45594000000E+02  0.51100000000E-03 0. -1.
         11   -1    0    0    0    0 -0.00000000000E+00 -0.00000000000E+00 -0.45593999997E+02  0.45594000000E+02  0.51100000000E-03 0.  1.
    9900012    2    1    2    0    0  0.20084355006E+02  0.24332272262E+02  0.25646156675E+02  0.50528854146E+02  0.29999982661E+02 0.  0.
        -12    1    1    2    0    0 -0.20084355006E+02 -0.24332272262E+02 -0.25646156675E+02  0.40659145854E+02  0.00000000000E+00 0.  1.
         11    1    3    3    0    0  0.34160990608E+01  0.15715802985E+02  0.61170865261E+01  0.17206828415E+02  0.51100000000E-03 0. -1.
        -11    1    3    3    0    0  0.10372836674E+02  0.39583407292E+01 -0.11960128234E+01  0.11166675823E+02  0.51100000000E-03 0.  1.
        -12    1    3    3    0    0  0.62954192708E+01  0.46581285470E+01  0.20725082972E+02  0.22155349908E+02  0.00000000000E+00 0.  1.
</event>
<event>
 7    1  0.8697654E-014  0.5052886E+02  0.7816164E-02  0.1300439E+00
        -11   -1    0    0    0    0  0.00000000000E+00  0.00000000000E+00  0.45593999997E+02  0.45594000000E+02  0.51100000000E-03 0.  1.
         11   -1    0    0    0    0 -0.00000000000E+00 -0.00000000000E+00 -0.45593999997E+02  0.45594000000E+02  0.51100000000E-03 0. -1.
    9900012    2    1    2    0    0  0.98684486047E+01 -0.10462948310E+02  0.38030328627E+02  0.50528862519E+02  0.30000008114E+02 0.  0.
        -12    1    1    2    0    0 -0.98684486047E+01  0.10462948310E+02 -0.38030328627E+02  0.40659137481E+02  0.00000000000E+00 0.  1.
         11    1    3    3    0    0  0.83565354231E+01 -0.37339569465E+01  0.24850650727E+01  0.94841798502E+01  0.51100000000E-03 0. -1.
        -11    1    3    3    0    0  0.75255731929E+01 -0.21851165844E+01  0.43726857582E+01  0.89738156528E+01  0.51100000000E-03 0.  1.
        -12    1    3    3    0    0 -0.60136600113E+01 -0.45438747786E+01  0.31172577796E+02  0.32070867016E+02  0.00000000000E+00 0.  1.
</event>
<event>
 7    1  0.8697654E-014  0.5052886E+02  0.7816164E-02  0.1300439E+00
        -11   -1    0    0    0    0  0.00000000000E+00  0.00000000000E+00  0.45593999997E+02  0.45594000000E+02  0.51100000000E-03 0. -1.
         11   -1    0    0    0    0 -0.00000000000E+00 -0.00000000000E+00 -0.45593999997E+02  0.45594000000E+02  0.51100000000E-03 0.  1.
    9900012    2    1    2    0    0  0.66892375977E+01 -0.26895500852E+02 -0.29749822178E+02  0.50528858527E+02  0.29999995978E+02 0.  0.
         12    1    1    2    0    0 -0.66892375977E+01  0.26895500852E+02  0.29749822178E+02  0.40659141473E+02  0.00000000000E+00 0. -1.
         11    1    3    3    0    0 -0.69240694956E+01 -0.10376920712E+02 -0.66360510197E+01  0.14130123681E+02  0.51100000000E-03 0. -1.
        -11    1    3    3    0    0  0.33856768928E+01  0.36068465441E+01 -0.73685781926E+01  0.88751391458E+01  0.51100000000E-03 0.  1.
         12    1    3    3    0    0  0.10227630200E+02 -0.20125426683E+02 -0.15745192966E+02  0.27523595700E+02  0.00000000000E+00 0. -1.
</event>
<event>
 7    1  0.8697654E-014  0.5052887E+02  0.7816164E-02  0.1300439E+00
        -11   -1    0    0    0    0  0.00000000000E+00  0.00000000000E+00  0.45593999997E+02  0.45594000000E+02  0.51100000000E-03 0. -1.
         11   -1    0    0    0    0 -0.00000000000E+00 -0.00000000000E+00 -0.45593999997E+02  0.45594000000E+02  0.51100000000E-03 0.  1.
    9900012    2    1    2    0    0 -0.93569955144E+01  0.10956755714E+02 -0.38020537053E+02  0.50528866971E+02  0.30000021646E+02 0.  0.
         12    1    1    2    0    0  0.93569955144E+01 -0.10956755714E+02  0.38020537053E+02  0.40659133029E+02  0.00000000000E+00 0. -1.
         11    1    3    3    0    0 -0.19762180498E-01  0.18764747446E+01  0.77839107186E+00  0.20316104284E+01  0.51100000000E-03 0. -1.
        -11    1    3    3    0    0  0.55689150135E+01 -0.54795503576E+01 -0.14636044374E+02  0.16590722761E+02  0.51100000000E-03 0.  1.
        -12    1    3    3    0    0 -0.14906148347E+02  0.14559831327E+02 -0.24162883751E+02  0.31906533782E+02  0.00000000000E+00 0.  1.
</event>
<event>
 7    1  0.8697654E-014  0.5052886E+02  0.7816164E-02  0.1300439E+00
        -11   -1    0    0    0    0  0.00000000000E+00  0.00000000000E+00  0.45593999997E+02  0.45594000000E+02  0.51100000000E-03 0.  1.
         11   -1    0    0    0    0 -0.00000000000E+00 -0.00000000000E+00 -0.45593999997E+02  0.45594000000E+02  0.51100000000E-03 0. -1.
    9900012    2    1    2    0    0  0.39469245195E+02 -0.74291620832E+01  0.63365530024E+01  0.50528859951E+02  0.30000000308E+02 0.  0.
         12    1    1    2    0    0 -0.39469245195E+02  0.74291620832E+01 -0.63365530024E+01  0.40659140049E+02  0.00000000000E+00 0. -1.
         11    1    3    3    0    0  0.75250480110E+01 -0.53358860005E-01  0.82999486886E+01  0.11203496920E+02  0.51100000000E-03 0. -1.
        -11    1    3    3    0    0  0.31247588341E+02 -0.12828790491E+02 -0.16212094167E+01  0.33817420996E+02  0.51100000000E-03 0.  1.
         12    1    3    3    0    0  0.69660884282E+00  0.54529872677E+01 -0.34218626941E+00  0.55079420354E+01  0.00000000000E+00 0. -1.
</event>
<event>
 7    1  0.8697654E-014  0.5052887E+02  0.7816164E-02  0.1300439E+00
        -11   -1    0    0    0    0  0.00000000000E+00  0.00000000000E+00  0.45593999997E+02  0.45594000000E+02  0.51100000000E-03 0. -1.
         11   -1    0    0    0    0 -0.00000000000E+00 -0.00000000000E+00 -0.45593999997E+02  0.45594000000E+02  0.51100000000E-03 0.  1.
    9900012    2    1    2    0    0  0.27683392073E+02  0.24877751956E+02  0.16367421561E+02  0.50528865386E+02  0.30000016826E+02 0.  0.
        -12    1    1    2    0    0 -0.27683392073E+02 -0.24877751956E+02 -0.16367421561E+02  0.40659134614E+02  0.00000000000E+00 0.  1.
         11    1    3    3    0    0  0.14766633428E+02  0.24556442563E+02  0.91199565030E+01  0.30070682417E+02  0.51100000000E-03 0. -1.
        -11    1    3    3    0    0  0.23646279868E+01  0.36818630736E+01  0.82499313993E+01  0.93385732081E+01  0.51100000000E-03 0.  1.
        -12    1    3    3    0    0  0.10552130658E+02 -0.33605536803E+01 -0.10024663416E+01  0.11119609761E+02  0.00000000000E+00 0.  1.
</event>
<event>
 7    1  0.8697654E-014  0.5052886E+02  0.7816164E-02  0.1300439E+00
        -11   -1    0    0    0    0  0.00000000000E+00  0.00000000000E+00  0.45593999997E+02  0.45594000000E+02  0.51100000000E-03 0. -1.
         11   -1    0    0    0    0 -0.00000000000E+00 -0.00000000000E+00 -0.45593999997E+02  0.45594000000E+02  0.51100000000E-03 0.  1.
    9900012    2    1    2    0    0 -0.12316480702E+02 -0.35656583489E+02  0.15168330894E+02  0.50528857054E+02  0.29999991502E+02 0.  0.
        -12    1    1    2    0    0  0.12316480702E+02  0.35656583489E+02 -0.15168330894E+02  0.40659142946E+02  0.00000000000E+00 0.  1.
         11    1    3    3    0    0  0.54674812746E+01 -0.24229177603E+02  0.92813000196E+01  0.26515824127E+02  0.51100000000E-03 0. -1.
        -11    1    3    3    0    0  0.14569331032E+00  0.64627425467E+00 -0.11101911474E+01  0.12928347140E+01  0.51100000000E-03 0.  1.
         12    1    3    3    0    0 -0.17929655287E+02 -0.12073680141E+02  0.69972220219E+01  0.22720198214E+02  0.00000000000E+00 0. -1.
</event>
<event>
 7    1  0.8697654E-014  0.5052886E+02  0.7816164E-02  0.1300439E+00
        -11   -1    0    0    0    0  0.00000000000E+00  0.00000000000E+00  0.45593999997E+02  0.45594000000E+02  0.51100000000E-03 0. -1.
         11   -1    0    0    0    0 -0.00000000000E+00 -0.00000000000E+00 -0.45593999997E+02  0.45594000000E+02  0.51100000000E-03 0.  1.
    9900012    2    1    2    0    0 -0.87171115784E+01 -0.18585349727E+02 -0.35096467305E+02  0.50528864790E+02  0.30000015016E+02 0.  0.
         12    1    1    2    0    0  0.87171115784E+01  0.18585349727E+02  0.35096467305E+02  0.40659135210E+02  0.00000000000E+00 0. -1.
         11    1    3    3    0    0  0.78008627248E+01  0.49916798245E+00 -0.14482417657E+02  0.16457309907E+02  0.51100000000E-03 0. -1.
        -11    1    3    3    0    0 -0.42224579918E+01  0.47879624857E-01 -0.46739855833E+01  0.62990146408E+01  0.51100000000E-03 0.  1.
        -12    1    3    3    0    0 -0.12295516311E+02 -0.19132397334E+02 -0.15940064065E+02  0.27772540242E+02  0.00000000000E+00 0.  1.
</event>
<event>
 7    1  0.8697654E-014  0.5052886E+02  0.7816164E-02  0.1300439E+00
        -11   -1    0    0    0    0  0.00000000000E+00  0.00000000000E+00  0.45593999997E+02  0.45594000000E+02  0.51100000000E-03 0. -1.
         11   -1    0    0    0    0 -0.00000000000E+00 -0.00000000000E+00 -0.45593999997E+02  0.45594000000E+02  0.51100000000E-03 0.  1.
    9900012    2    1    2    0    0 -0.16261893725E+01 -0.25123560010E+02  0.31926915232E+02  0.50528859875E+02  0.30000000076E+02 0.  0.
        -12    1    1    2    0    0  0.16261893725E+01  0.25123560010E+02 -0.31926915232E+02  0.40659140125E+02  0.00000000000E+00 0.  1.
         11    1    3    3    0    0 -0.43106674198E+01 -0.85274646510E+01  0.25548033372E+02  0.27276391191E+02  0.51100000000E-03 0. -1.
        -11    1    3    3    0    0 -0.81761223580E+00  0.17655725767E+01  0.39492987955E+01  0.44025785092E+01  0.51100000000E-03 0.  1.
         12    1    3    3    0    0  0.35020902831E+01 -0.18361667936E+02  0.24295830651E+01  0.18849890175E+02  0.00000000000E+00 0. -1.
</event>
<event>
 7    1  0.8697654E-014  0.5052885E+02  0.7816164E-02  0.1300439E+00
        -11   -1    0    0    0    0  0.00000000000E+00  0.00000000000E+00  0.45593999997E+02  0.45594000000E+02  0.51100000000E-03 0. -1.
         11   -1    0    0    0    0 -0.00000000000E+00 -0.00000000000E+00 -0.45593999997E+02  0.45594000000E+02  0.51100000000E-03 0.  1.
    9900012    2    1    2    0    0 -0.17475707784E+02 -0.82809325601E+01 -0.35765792524E+02  0.50528854393E+02  0.29999983414E+02 0.  0.
         12    1    1    2    0    0  0.17475707784E+02  0.82809325601E+01  0.35765792524E+02  0.40659145607E+02  0.00000000000E+00 0. -1.
         11    1    3    3    0    0  0.16872667166E+01 -0.44957033322E+01  0.38347339010E+01  0.61451933881E+01  0.51100000000E-03 0. -1.
        -11    1    3    3    0    0 -0.49588762219E+01 -0.17276183247E+00 -0.64496481231E+01  0.81374603660E+01  0.51100000000E-03 0.  1.
         12    1    3    3    0    0 -0.14204098279E+02 -0.36124673954E+01 -0.33150878302E+02  0.36246200639E+02  0.00000000000E+00 0. -1.
</event>
<event>
 7    1  0.8697654E-014  0.5052884E+02  0.7816164E-02  0.1300439E+00
        -11   -1    0    0    0    0  0.00000000000E+00  0.00000000000E+00  0.45593999997E+02  0.45594000000E+02  0.51100000000E-03 0. -1.
         11   -1    0    0    0    0 -0.00000000000E+00 -0.00000000000E+00 -0.45593999997E+02  0.45594000000E+02  0.51100000000E-03 0.  1.
    9900012    2    1    2    0    0  0.19752128116E+02  0.25486070354E+02  0.24768546088E+02  0.50528840854E+02  0.29999942259E+02 0.  0.
        -12    1    1    2    0    0 -0.19752128116E+02 -0.25486070354E+02 -0.24768546088E+02  0.40659159146E+02  0.00000000000E+00 0.  1.
         11    1    3    3    0    0  0.59729925245E+01 -0.15645234028E+01  0.33364074576E+01  0.70182610496E+01  0.51100000000E-03 0. -1.
        -11    1    3    3    0    0 -0.43971684043E+01 -0.44956030912E+00  0.50138548966E+01  0.66840059570E+01  0.51100000000E-03 0.  1.
         12    1    3    3    0    0  0.18176303996E+02  0.27500154065E+02  0.16418283733E+02  0.36826573847E+02  0.00000000000E+00 0. -1.
</event>
<event>
 7    1  0.8697654E-014  0.5052885E+02  0.7816164E-02  0.1300439E+00
        -11   -1    0    0    0    0  0.00000000000E+00  0.00000000000E+00  0.45593999997E+02  0.45594000000E+02  0.51100000000E-03 0. -1.
         11   -1    0    0    0    0 -0.00000000000E+00 -0.00000000000E+00 -0.45593999997E+02  0.45594000000E+02  0.51100000000E-03 0.  1.
    9900012    2    1    2    0    0  0.93237478875E+01 -0.22448335684E+02 -0.32593038209E+02  0.50528853559E+02  0.29999980877E+02 0.  0.
         12    1    1    2    0    0 -0.93237478875E+01  0.22448335684E+02  0.32593038209E+02  0.40659146441E+02  0.00000000000E+00 0. -1.
         11    1    3    3    0    0 -0.13367600051E+01 -0.18659582156E+02 -0.16708731427E+02  0.25082835559E+02  0.51100000000E-03 0. -1.
        -11    1    3    3    0    0 -0.35622306149E+01 -0.36473431782E+01 -0.70571792168E+01  0.87061115300E+01  0.51100000000E-03 0.  1.
        -12    1    3    3    0    0  0.14222738508E+02 -0.14141034915E+00 -0.88271275657E+01  0.16739906469E+02  0.00000000000E+00 0.  1.
</event>
<event>
 7    1  0.1431452E-013  0.5052893E+02  0.7816164E-02  0.1300439E+00
        -11   -1    0    0    0    0  0.00000000000E+00  0.00000000000E+00  0.45593999997E+02  0.45594000000E+02  0.51100000000E-03 0. -1.
         11   -1    0    0    0    0 -0.00000000000E+00 -0.00000000000E+00 -0.45593999997E+02  0.45594000000E+02  0.51100000000E-03 0.  1.
    9900012    2    1    2    0    0  0.18749331808E+02 -0.11440011660E+02 -0.34216206604E+02  0.50528928387E+02  0.30000208325E+02 0.  0.
         12    1    1    2    0    0 -0.18749331808E+02  0.11440011660E+02  0.34216206604E+02  0.40659071613E+02  0.00000000000E+00 0. -1.
         11    1    3    3    0    0  0.15805900644E+02 -0.89254476836E+01 -0.14461958770E+02  0.23208583827E+02  0.51100000000E-03 0.  1.
        -11    1    3    3    0    0  0.47155392169E+00 -0.75960404859E+01 -0.20264522472E+02  0.21646548580E+02  0.51100000000E-03 0. -1.
         12    1    3    3    0    0  0.24718772425E+01  0.50814765093E+01  0.51027463787E+00  0.56737959800E+01  0.00000000000E+00 0. -1.
</event>
<event>
 7    1  0.8697654E-014  0.5052883E+02  0.7816164E-02  0.1300439E+00
        -11   -1    0    0    0    0  0.00000000000E+00  0.00000000000E+00  0.45593999997E+02  0.45594000000E+02  0.51100000000E-03 0.  1.
         11   -1    0    0    0    0 -0.00000000000E+00 -0.00000000000E+00 -0.45593999997E+02  0.45594000000E+02  0.51100000000E-03 0. -1.
    9900012    2    1    2    0    0  0.17604273507E+02  0.24025373958E+02  0.27677413068E+02  0.50528828419E+02  0.29999904463E+02 0.  0.
        -12    1    1    2    0    0 -0.17604273507E+02 -0.24025373958E+02 -0.27677413068E+02  0.40659171581E+02  0.00000000000E+00 0.  1.
         11    1    3    3    0    0  0.39614018249E+00 -0.78477139674E+00 -0.50337059198E+01  0.51098912648E+01  0.51100000000E-03 0. -1.
        -11    1    3    3    0    0  0.48704278670E+01  0.17281897725E+01  0.37588042092E+01  0.63903299478E+01  0.51100000000E-03 0.  1.
        -12    1    3    3    0    0  0.12337705457E+02  0.23081955582E+02  0.28952314779E+02  0.39028607207E+02  0.00000000000E+00 0.  1.
</event>
<event>
 7    1  0.8697654E-014  0.5052885E+02  0.7816164E-02  0.1300439E+00
        -11   -1    0    0    0    0  0.00000000000E+00  0.00000000000E+00  0.45593999997E+02  0.45594000000E+02  0.51100000000E-03 0. -1.
         11   -1    0    0    0    0 -0.00000000000E+00 -0.00000000000E+00 -0.45593999997E+02  0.45594000000E+02  0.51100000000E-03 0.  1.
    9900012    2    1    2    0    0  0.25213254882E+02  0.11847993805E+02  0.29615586343E+02  0.50528854247E+02  0.29999982969E+02 0.  0.
        -12    1    1    2    0    0 -0.25213254882E+02 -0.11847993805E+02 -0.29615586343E+02  0.40659145753E+02  0.00000000000E+00 0.  1.
         11    1    3    3    0    0  0.27232091058E+01 -0.39172050644E+00  0.12027550385E+02  0.12338204136E+02  0.51100000000E-03 0. -1.
        -11    1    3    3    0    0  0.86197272198E+01  0.13815594620E+02  0.17937765532E+02  0.24226716340E+02  0.51100000000E-03 0.  1.
         12    1    3    3    0    0  0.13870318556E+02 -0.15758803087E+01 -0.34972957404E+00  0.13963933771E+02  0.00000000000E+00 0. -1.
</event>
<event>
 7    1  0.8697654E-014  0.5052888E+02  0.7816164E-02  0.1300439E+00
        -11   -1    0    0    0    0  0.00000000000E+00  0.00000000000E+00  0.45593999997E+02  0.45594000000E+02  0.51100000000E-03 0. -1.
         11   -1    0    0    0    0 -0.00000000000E+00 -0.00000000000E+00 -0.45593999997E+02  0.45594000000E+02  0.51100000000E-03 0.  1.
    9900012    2    1    2    0    0  0.22212021180E+02 -0.24858915026E+02  0.23277119967E+02  0.50528882263E+02  0.30000068128E+02 0.  0.
        -12    1    1    2    0    0 -0.22212021180E+02  0.24858915026E+02 -0.23277119967E+02  0.40659117737E+02  0.00000000000E+00 0.  1.
         11    1    3    3    0    0  0.40622734208E+01 -0.56489803844E+01  0.16749542681E+01  0.71567113111E+01  0.51100000000E-03 0. -1.
        -11    1    3    3    0    0 -0.75169329868E+00 -0.34227887324E+01  0.18172513764E+02  0.18507316993E+02  0.51100000000E-03 0.  1.
        -12    1    3    3    0    0  0.18901441058E+02 -0.15787145909E+02  0.34296519345E+01  0.24864853959E+02  0.00000000000E+00 0.  1.
</event>
<event>
 7    1  0.8697654E-014  0.5052886E+02  0.7816164E-02  0.1300439E+00
        -11   -1    0    0    0    0  0.00000000000E+00  0.00000000000E+00  0.45593999997E+02  0.45594000000E+02  0.51100000000E-03 0. -1.
         11   -1    0    0    0    0 -0.00000000000E+00 -0.00000000000E+00 -0.45593999997E+02  0.45594000000E+02  0.51100000000E-03 0.  1.
    9900012    2    1    2    0    0 -0.32177462139E+02 -0.16497666112E+02  0.18590410830E+02  0.50528862875E+02  0.30000009196E+02 0.  0.
        -12    1    1    2    0    0  0.32177462139E+02  0.16497666112E+02 -0.18590410830E+02  0.40659137125E+02  0.00000000000E+00 0.  1.
         11    1    3    3    0    0  0.13404246929E+01  0.10881750162E+01 -0.21977672007E+01  0.27948245299E+01  0.51100000000E-03 0. -1.
        -11    1    3    3    0    0 -0.43665564139E+01 -0.12645947984E+02  0.57396417068E+01  0.14557826161E+02  0.51100000000E-03 0.  1.
         12    1    3    3    0    0 -0.29151330419E+02 -0.49398931438E+01  0.15048536324E+02  0.33176212185E+02  0.00000000000E+00 0. -1.
</event>
