<event>
 7    1  0.5839176E-013  0.5052886E+02  0.7816164E-02  0.1300439E+00
        -11   -1    0    0    0    0  0.00000000000E+00  0.00000000000E+00  0.45593999997E+02  0.45594000000E+02  0.51100000000E-03 0. -1.
         11   -1    0    0    0    0 -0.00000000000E+00 -0.00000000000E+00 -0.45593999997E+02  0.45594000000E+02  0.51100000000E-03 0.  1.
    9900012    2    1    2    0    0 -0.33869426614E+01  0.29979389672E+02  0.27256753777E+02  0.50528858197E+02  0.29999994976E+02 0.  0.
        -12    1    1    2    0    0  0.33869426614E+01 -0.29979389672E+02 -0.27256753777E+02  0.40659141803E+02  0.00000000000E+00 0.  1.
         11    1    3    3    0    0 -0.23045779541E+01 -0.30611627936E+01  0.12882850492E+02  0.13440596499E+02  0.51100000000E-03 0. -1.
        -11    1    3    3    0    0  0.52532602771E+00 -0.26985459884E+00 -0.28951418334E+00  0.65772917175E+00  0.51100000000E-03 0.  1.
        -12    1    3    3    0    0 -0.16076907350E+01  0.33310407064E+02  0.14663417468E+02  0.36430532526E+02  0.00000000000E+00 0.  1.
</event>
<event>
 7    1  0.5839176E-013  0.5052886E+02  0.7816164E-02  0.1300439E+00
        -11   -1    0    0    0    0  0.00000000000E+00  0.00000000000E+00  0.45593999997E+02  0.45594000000E+02  0.51100000000E-03 0.  1.
         11   -1    0    0    0    0 -0.00000000000E+00 -0.00000000000E+00 -0.45593999997E+02  0.45594000000E+02  0.51100000000E-03 0. -1.
    9900012    2    1    2    0    0  0.99594842868E+01  0.38555662911E+02 -0.82119064769E+01  0.50528857390E+02  0.29999992524E+02 0.  0.
        -12    1    1    2    0    0 -0.99594842868E+01 -0.38555662911E+02  0.82119064769E+01  0.40659142610E+02  0.00000000000E+00 0.  1.
         11    1    3    3    0    0  0.10013029566E+01  0.98746876663E+01 -0.67063749987E+01  0.11978628052E+02  0.51100000000E-03 0. -1.
        -11    1    3    3    0    0  0.47529752780E+01  0.24463321224E+02 -0.11081245679E+02  0.27273409493E+02  0.51100000000E-03 0.  1.
        -12    1    3    3    0    0  0.42052060521E+01  0.42176540211E+01  0.95757142010E+01  0.11276819846E+02  0.00000000000E+00 0.  1.
</event>
<event>
 7    1  0.5839176E-013  0.5052887E+02  0.7816164E-02  0.1300439E+00
        -11   -1    0    0    0    0  0.00000000000E+00  0.00000000000E+00  0.45593999997E+02  0.45594000000E+02  0.51100000000E-03 0.  1.
         11   -1    0    0    0    0 -0.00000000000E+00 -0.00000000000E+00 -0.45593999997E+02  0.45594000000E+02  0.51100000000E-03 0. -1.
    9900012    2    1    2    0    0  0.12660937916E+02 -0.33765888163E+02 -0.18781104733E+02  0.50528874981E+02  0.30000045992E+02 0.  0.
        -12    1    1    2    0    0 -0.12660937916E+02  0.33765888163E+02  0.18781104733E+02  0.40659125019E+02  0.00000000000E+00 0.  1.
         11    1    3    3    0    0 -0.20661607264E+01 -0.17282026882E+00  0.32459062322E+01  0.38515963602E+01  0.51100000000E-03 0. -1.
        -11    1    3    3    0    0  0.47673451227E+01 -0.62386376068E+01  0.28819725392E+01  0.83638474810E+01  0.51100000000E-03 0.  1.
         12    1    3    3    0    0  0.99597535200E+01 -0.27354430287E+02 -0.24908983504E+02  0.38313431140E+02  0.00000000000E+00 0. -1.
</event>
<event>
 7    1  0.5839176E-013  0.5052885E+02  0.7816164E-02  0.1300439E+00
        -11   -1    0    0    0    0  0.00000000000E+00  0.00000000000E+00  0.45593999997E+02  0.45594000000E+02  0.51100000000E-03 0.  1.
         11   -1    0    0    0    0 -0.00000000000E+00 -0.00000000000E+00 -0.45593999997E+02  0.45594000000E+02  0.51100000000E-03 0. -1.
    9900012    2    1    2    0    0 -0.17935335235E+02 -0.18338532151E+02 -0.31546604462E+02  0.50528852634E+02  0.29999978066E+02 0.  0.
        -12    1    1    2    0    0  0.17935335235E+02  0.18338532151E+02  0.31546604462E+02  0.40659147366E+02  0.00000000000E+00 0.  1.
         11    1    3    3    0    0 -0.23794258556E-01 -0.21600094388E+01 -0.70903949145E+01  0.74121459273E+01  0.51100000000E-03 0. -1.
        -11    1    3    3    0    0  0.60058229481E+01 -0.63259598974E+01 -0.10746171091E+02  0.13840804575E+02  0.51100000000E-03 0.  1.
        -12    1    3    3    0    0 -0.23917363925E+02 -0.98525628144E+01 -0.13710038457E+02  0.29275902132E+02  0.00000000000E+00 0.  1.
</event>
<event>
 7    1  0.5839176E-013  0.5052886E+02  0.7816164E-02  0.1300439E+00
        -11   -1    0    0    0    0  0.00000000000E+00  0.00000000000E+00  0.45593999997E+02  0.45594000000E+02  0.51100000000E-03 0.  1.
         11   -1    0    0    0    0 -0.00000000000E+00 -0.00000000000E+00 -0.45593999997E+02  0.45594000000E+02  0.51100000000E-03 0. -1.
    9900012    2    1    2    0    0 -0.35784019669E+02 -0.17435728976E+02 -0.82864264518E+01  0.50528861151E+02  0.30000003956E+02 0.  0.
        -12    1    1    2    0    0  0.35784019669E+02  0.17435728976E+02  0.82864264518E+01  0.40659138849E+02  0.00000000000E+00 0.  1.
         11    1    3    3    0    0 -0.71778903432E+01 -0.51017352297E+01  0.19854996248E+01  0.90272931245E+01  0.51100000000E-03 0. -1.
        -11    1    3    3    0    0 -0.91873243907E+01 -0.26733092577E+01  0.85139747468E+01  0.12807860012E+02  0.51100000000E-03 0.  1.
         12    1    3    3    0    0 -0.19418804935E+02 -0.96606844883E+01 -0.18785900823E+02  0.28693708015E+02  0.00000000000E+00 0. -1.
</event>
<event>
 7    1  0.5839176E-013  0.5052886E+02  0.7816164E-02  0.1300439E+00
        -11   -1    0    0    0    0  0.00000000000E+00  0.00000000000E+00  0.45593999997E+02  0.45594000000E+02  0.51100000000E-03 0.  1.
         11   -1    0    0    0    0 -0.00000000000E+00 -0.00000000000E+00 -0.45593999997E+02  0.45594000000E+02  0.51100000000E-03 0. -1.
    9900012    2    1    2    0    0 -0.25426765651E+02  0.14245013436E+01 -0.31695672535E+02  0.50528864827E+02  0.30000015128E+02 0.  0.
        -12    1    1    2    0    0  0.25426765651E+02 -0.14245013436E+01  0.31695672535E+02  0.40659135173E+02  0.00000000000E+00 0.  1.
         11    1    3    3    0    0 -0.15449072922E+01  0.16635371195E+01 -0.10760620241E+02  0.10997501649E+02  0.51100000000E-03 0. -1.
        -11    1    3    3    0    0 -0.21743762233E+01  0.90275901577E+01 -0.95715815277E+01  0.13335684055E+02  0.51100000000E-03 0.  1.
         12    1    3    3    0    0 -0.21707482135E+02 -0.92666259335E+01 -0.11363470767E+02  0.26195679123E+02  0.00000000000E+00 0. -1.
</event>
<event>
 7    1  0.5839176E-013  0.5052885E+02  0.7816164E-02  0.1300439E+00
        -11   -1    0    0    0    0  0.00000000000E+00  0.00000000000E+00  0.45593999997E+02  0.45594000000E+02  0.51100000000E-03 0. -1.
         11   -1    0    0    0    0 -0.00000000000E+00 -0.00000000000E+00 -0.45593999997E+02  0.45594000000E+02  0.51100000000E-03 0.  1.
    9900012    2    1    2    0    0 -0.27121878507E+02 -0.30034481085E+02  0.39369784146E+01  0.50528854081E+02  0.29999982466E+02 0.  0.
        -12    1    1    2    0    0  0.27121878507E+02  0.30034481085E+02 -0.39369784146E+01  0.40659145919E+02  0.00000000000E+00 0.  1.
         11    1    3    3    0    0 -0.24938429132E+02 -0.22008144096E+02  0.11288872457E+02  0.35124383208E+02  0.51100000000E-03 0. -1.
        -11    1    3    3    0    0 -0.29007301771E+01  0.19380579666E+01 -0.25433434428E+01  0.43172792788E+01  0.51100000000E-03 0.  1.
        -12    1    3    3    0    0  0.71728080278E+00 -0.99643949554E+01 -0.48085505997E+01  0.11087191594E+02  0.00000000000E+00 0.  1.
</event>
<event>
 7    1  0.5839176E-013  0.5052886E+02  0.7816164E-02  0.1300439E+00
        -11   -1    0    0    0    0  0.00000000000E+00  0.00000000000E+00  0.45593999997E+02  0.45594000000E+02  0.51100000000E-03 0.  1.
         11   -1    0    0    0    0 -0.00000000000E+00 -0.00000000000E+00 -0.45593999997E+02  0.45594000000E+02  0.51100000000E-03 0. -1.
    9900012    2    1    2    0    0 -0.40031398136E+02  0.16003971509E+00 -0.71153089822E+01  0.50528855010E+02  0.29999985287E+02 0.  0.
        -12    1    1    2    0    0  0.40031398136E+02 -0.16003971509E+00  0.71153089822E+01  0.40659144990E+02  0.00000000000E+00 0.  1.
         11    1    3    3    0    0 -0.16133930231E+02  0.90337029253E+01 -0.13523194512E+02  0.22908257972E+02  0.51100000000E-03 0.  1.
        -11    1    3    3    0    0 -0.10039222899E+02  0.60930738888E+00  0.28786300723E+01  0.10461537328E+02  0.51100000000E-03 0. -1.
        -12    1    3    3    0    0 -0.13858245007E+02 -0.94829705991E+01  0.35292554578E+01  0.17159059710E+02  0.00000000000E+00 0.  1.
</event>
<event>
 7    1  0.5839176E-013  0.5052884E+02  0.7816164E-02  0.1300439E+00
        -11   -1    0    0    0    0  0.00000000000E+00  0.00000000000E+00  0.45593999997E+02  0.45594000000E+02  0.51100000000E-03 0.  1.
         11   -1    0    0    0    0 -0.00000000000E+00 -0.00000000000E+00 -0.45593999997E+02  0.45594000000E+02  0.51100000000E-03 0. -1.
    9900012    2    1    2    0    0 -0.13171314692E+02  0.56629270927E+01 -0.38047533796E+02  0.50528842336E+02  0.29999946765E+02 0.  0.
        -12    1    1    2    0    0  0.13171314692E+02 -0.56629270927E+01  0.38047533796E+02  0.40659157664E+02  0.00000000000E+00 0.  1.
         11    1    3    3    0    0  0.15865659822E+01 -0.35635573026E+01 -0.41366691314E+01  0.56857861399E+01  0.51100000000E-03 0. -1.
        -11    1    3    3    0    0  0.25605983302E+01 -0.27205739631E+00 -0.21196821197E+02  0.21352655764E+02  0.51100000000E-03 0.  1.
         12    1    3    3    0    0 -0.17318479005E+02  0.94985417917E+01 -0.12714043467E+02  0.23490400433E+02  0.00000000000E+00 0. -1.
</event>
<event>
 7    1  0.5839176E-013  0.5052886E+02  0.7816164E-02  0.1300439E+00
        -11   -1    0    0    0    0  0.00000000000E+00  0.00000000000E+00  0.45593999997E+02  0.45594000000E+02  0.51100000000E-03 0. -1.
         11   -1    0    0    0    0 -0.00000000000E+00 -0.00000000000E+00 -0.45593999997E+02  0.45594000000E+02  0.51100000000E-03 0.  1.
    9900012    2    1    2    0    0  0.29821137850E+02 -0.18661436675E+02  0.20386660622E+02  0.50528863108E+02  0.30000009904E+02 0.  0.
        -12    1    1    2    0    0 -0.29821137850E+02  0.18661436675E+02 -0.20386660622E+02  0.40659136892E+02  0.00000000000E+00 0.  1.
         11    1    3    3    0    0  0.55610076674E+01 -0.13825622219E+02  0.34252892446E+01  0.15290691374E+02  0.51100000000E-03 0. -1.
        -11    1    3    3    0    0  0.44984377812E+01 -0.63722261781E+01 -0.17346924659E+01  0.79906424741E+01  0.51100000000E-03 0.  1.
        -12    1    3    3    0    0  0.19761692401E+02  0.15364117222E+01  0.18696063844E+02  0.27247529260E+02  0.00000000000E+00 0.  1.
</event>
<event>
 7    1  0.5839176E-013  0.5052886E+02  0.7816164E-02  0.1300439E+00
        -11   -1    0    0    0    0  0.00000000000E+00  0.00000000000E+00  0.45593999997E+02  0.45594000000E+02  0.51100000000E-03 0.  1.
         11   -1    0    0    0    0 -0.00000000000E+00 -0.00000000000E+00 -0.45593999997E+02  0.45594000000E+02  0.51100000000E-03 0. -1.
    9900012    2    1    2    0    0  0.15666258488E+02 -0.22757879500E+02 -0.29829725908E+02  0.50528864715E+02  0.30000014789E+02 0.  0.
        -12    1    1    2    0    0 -0.15666258488E+02  0.22757879500E+02  0.29829725908E+02  0.40659135285E+02  0.00000000000E+00 0.  1.
         11    1    3    3    0    0  0.15101335635E+02 -0.16610526605E+02 -0.24589818022E+02  0.33295931924E+02  0.51100000000E-03 0. -1.
        -11    1    3    3    0    0  0.72801680449E+01 -0.27717781209E+01 -0.57762996536E+01  0.96978986726E+01  0.51100000000E-03 0.  1.
        -12    1    3    3    0    0 -0.67152451920E+01 -0.33755747738E+01  0.53639176783E+00  0.75350341187E+01  0.00000000000E+00 0.  1.
</event>
<event>
 7    1  0.5839176E-013  0.5052886E+02  0.7816164E-02  0.1300439E+00
        -11   -1    0    0    0    0  0.00000000000E+00  0.00000000000E+00  0.45593999997E+02  0.45594000000E+02  0.51100000000E-03 0. -1.
         11   -1    0    0    0    0 -0.00000000000E+00 -0.00000000000E+00 -0.45593999997E+02  0.45594000000E+02  0.51100000000E-03 0.  1.
    9900012    2    1    2    0    0  0.36084797767E+01  0.22892541660E+02  0.33407721923E+02  0.50528862354E+02  0.30000007613E+02 0.  0.
        -12    1    1    2    0    0 -0.36084797767E+01 -0.22892541660E+02 -0.33407721923E+02  0.40659137646E+02  0.00000000000E+00 0.  1.
         11    1    3    3    0    0  0.42080507583E+01  0.87361767159E+01  0.10352418599E+02  0.14184535449E+02  0.51100000000E-03 0. -1.
        -11    1    3    3    0    0  0.76843997512E+01  0.17430072429E+02  0.17354222071E+02  0.25768710646E+02  0.51100000000E-03 0.  1.
        -12    1    3    3    0    0 -0.82839707327E+01 -0.32737074850E+01  0.57010812533E+01  0.10575616259E+02  0.00000000000E+00 0.  1.
</event>
<event>
 7    1  0.5839176E-013  0.5052886E+02  0.7816164E-02  0.1300439E+00
        -11   -1    0    0    0    0  0.00000000000E+00  0.00000000000E+00  0.45593999997E+02  0.45594000000E+02  0.51100000000E-03 0.  1.
         11   -1    0    0    0    0 -0.00000000000E+00 -0.00000000000E+00 -0.45593999997E+02  0.45594000000E+02  0.51100000000E-03 0. -1.
    9900012    2    1    2    0    0 -0.37638651122E+02  0.14457527156E+02 -0.52418817752E+01  0.50528862352E+02  0.30000007605E+02 0.  0.
        -12    1    1    2    0    0  0.37638651122E+02 -0.14457527156E+02  0.52418817752E+01  0.40659137648E+02  0.00000000000E+00 0.  1.
         11    1    3    3    0    0 -0.24685424810E+02  0.13614431152E+02 -0.38128958765E+01  0.28447514986E+02  0.51100000000E-03 0. -1.
        -11    1    3    3    0    0 -0.87967749003E+01  0.67326259009E+01 -0.68832658764E+01  0.13041888266E+02  0.51100000000E-03 0.  1.
         12    1    3    3    0    0 -0.41564514115E+01 -0.58895298966E+01  0.54542799778E+01  0.90394590997E+01  0.00000000000E+00 0. -1.
</event>
<event>
 7    1  0.5839176E-013  0.5052889E+02  0.7816164E-02  0.1300439E+00
        -11   -1    0    0    0    0  0.00000000000E+00  0.00000000000E+00  0.45593999997E+02  0.45594000000E+02  0.51100000000E-03 0.  1.
         11   -1    0    0    0    0 -0.00000000000E+00 -0.00000000000E+00 -0.45593999997E+02  0.45594000000E+02  0.51100000000E-03 0. -1.
    9900012    2    1    2    0    0 -0.31753165291E+02  0.21541998466E+02 -0.13447748586E+02  0.50528890985E+02  0.30000094636E+02 0.  0.
        -12    1    1    2    0    0  0.31753165291E+02 -0.21541998466E+02  0.13447748586E+02  0.40659109015E+02  0.00000000000E+00 0.  1.
         11    1    3    3    0    0 -0.73661930817E+01  0.14502980567E+02 -0.74478217771E-01  0.16266615908E+02  0.51100000000E-03 0. -1.
        -11    1    3    3    0    0 -0.38900548492E+00  0.15778529132E+01  0.38793610200E+01  0.42059942068E+01  0.51100000000E-03 0.  1.
        -12    1    3    3    0    0 -0.23997966725E+02  0.54611649861E+01 -0.17252631388E+02  0.30056280870E+02  0.00000000000E+00 0.  1.
</event>
<event>
 7    1  0.5839176E-013  0.5052886E+02  0.7816164E-02  0.1300439E+00
        -11   -1    0    0    0    0  0.00000000000E+00  0.00000000000E+00  0.45593999997E+02  0.45594000000E+02  0.51100000000E-03 0. -1.
         11   -1    0    0    0    0 -0.00000000000E+00 -0.00000000000E+00 -0.45593999997E+02  0.45594000000E+02  0.51100000000E-03 0.  1.
    9900012    2    1    2    0    0 -0.48793597522E+01 -0.34099877666E+02  0.21599907486E+02  0.50528858201E+02  0.29999994988E+02 0.  0.
        -12    1    1    2    0    0  0.48793597522E+01  0.34099877666E+02 -0.21599907486E+02  0.40659141799E+02  0.00000000000E+00 0.  1.
         11    1    3    3    0    0 -0.14830874101E+02 -0.17223182863E+02  0.14543992636E+02  0.26983709467E+02  0.51100000000E-03 0.  1.
        -11    1    3    3    0    0  0.44221382233E+01 -0.12509682597E+02 -0.41635899023E+00  0.13274819027E+02  0.51100000000E-03 0. -1.
        -12    1    3    3    0    0  0.55293761254E+01 -0.43670122061E+01  0.74722738398E+01  0.10270329707E+02  0.00000000000E+00 0.  1.
</event>
<event>
 7    1  0.5839176E-013  0.5052885E+02  0.7816164E-02  0.1300439E+00
        -11   -1    0    0    0    0  0.00000000000E+00  0.00000000000E+00  0.45593999997E+02  0.45594000000E+02  0.51100000000E-03 0.  1.
         11   -1    0    0    0    0 -0.00000000000E+00 -0.00000000000E+00 -0.45593999997E+02  0.45594000000E+02  0.51100000000E-03 0. -1.
    9900012    2    1    2    0    0  0.19402522978E+02 -0.16308899202E+02 -0.31791960765E+02  0.50528845306E+02  0.29999955794E+02 0.  0.
        -12    1    1    2    0    0 -0.19402522978E+02  0.16308899202E+02  0.31791960765E+02  0.40659154694E+02  0.00000000000E+00 0.  1.
         11    1    3    3    0    0  0.12319911714E+02 -0.63235285593E+00 -0.54791536593E+01  0.13498193207E+02  0.51100000000E-03 0. -1.
        -11    1    3    3    0    0  0.67082429751E+01 -0.17033346005E+02 -0.10397734827E+02  0.21053462654E+02  0.51100000000E-03 0.  1.
         12    1    3    3    0    0  0.37436828969E+00  0.13567996591E+01 -0.15915072279E+02  0.15977189445E+02  0.00000000000E+00 0. -1.
</event>
<event>
 7    1  0.5839176E-013  0.5052886E+02  0.7816164E-02  0.1300439E+00
        -11   -1    0    0    0    0  0.00000000000E+00  0.00000000000E+00  0.45593999997E+02  0.45594000000E+02  0.51100000000E-03 0.  1.
         11   -1    0    0    0    0 -0.00000000000E+00 -0.00000000000E+00 -0.45593999997E+02  0.45594000000E+02  0.51100000000E-03 0. -1.
    9900012    2    1    2    0    0 -0.34537979377E+02  0.81418855367E+01 -0.19849517312E+02  0.50528860104E+02  0.30000000773E+02 0.  0.
        -12    1    1    2    0    0  0.34537979377E+02 -0.81418855367E+01  0.19849517312E+02  0.40659139896E+02  0.00000000000E+00 0.  1.
         11    1    3    3    0    0 -0.77447960450E+01 -0.21883628202E+01 -0.71661025787E+00  0.80798717894E+01  0.51100000000E-03 0. -1.
        -11    1    3    3    0    0 -0.31072046938E+02  0.62342199020E+01 -0.14142784208E+02  0.34703831836E+02  0.51100000000E-03 0.  1.
        -12    1    3    3    0    0  0.42788636058E+01  0.40960284548E+01 -0.49901228459E+01  0.77451564786E+01  0.00000000000E+00 0.  1.
</event>
<event>
 7    1  0.5839176E-013  0.5052885E+02  0.7816164E-02  0.1300439E+00
        -11   -1    0    0    0    0  0.00000000000E+00  0.00000000000E+00  0.45593999997E+02  0.45594000000E+02  0.51100000000E-03 0. -1.
         11   -1    0    0    0    0 -0.00000000000E+00 -0.00000000000E+00 -0.45593999997E+02  0.45594000000E+02  0.51100000000E-03 0.  1.
    9900012    2    1    2    0    0 -0.34153298765E+02  0.18139043873E+02  0.12557604762E+02  0.50528853840E+02  0.29999981731E+02 0.  0.
        -12    1    1    2    0    0  0.34153298765E+02 -0.18139043873E+02 -0.12557604762E+02  0.40659146160E+02  0.00000000000E+00 0.  1.
         11    1    3    3    0    0 -0.29548636585E+00 -0.13161918115E+01 -0.26204166116E+01  0.29472455881E+01  0.51100000000E-03 0. -1.
        -11    1    3    3    0    0  0.30183242023E+01  0.40408494645E+01  0.80424549773E+00  0.51074021251E+01  0.51100000000E-03 0.  1.
         12    1    3    3    0    0 -0.36876136601E+02  0.15414386220E+02  0.14373775876E+02  0.42474206127E+02  0.00000000000E+00 0. -1.
</event>
<event>
 7    1  0.5839176E-013  0.5052887E+02  0.7816164E-02  0.1300439E+00
        -11   -1    0    0    0    0  0.00000000000E+00  0.00000000000E+00  0.45593999997E+02  0.45594000000E+02  0.51100000000E-03 0.  1.
         11   -1    0    0    0    0 -0.00000000000E+00 -0.00000000000E+00 -0.45593999997E+02  0.45594000000E+02  0.51100000000E-03 0. -1.
    9900012    2    1    2    0    0  0.13975697754E+02  0.33065709344E+02 -0.19091983603E+02  0.50528866954E+02  0.30000021593E+02 0.  0.
        -12    1    1    2    0    0 -0.13975697754E+02 -0.33065709344E+02  0.19091983603E+02  0.40659133046E+02  0.00000000000E+00 0.  1.
         11    1    3    3    0    0  0.31200961822E+00  0.36187023838E+01  0.47079116763E+01  0.59461575457E+01  0.51100000000E-03 0. -1.
        -11    1    3    3    0    0  0.33075534558E+01  0.25435565355E+02 -0.11805043569E+02  0.28235915936E+02  0.51100000000E-03 0.  1.
         12    1    3    3    0    0  0.10356134680E+02  0.40114416051E+01 -0.11994851711E+02  0.16346793473E+02  0.00000000000E+00 0. -1.
</event>
<event>
 7    1  0.5839176E-013  0.5052882E+02  0.7816164E-02  0.1300439E+00
        -11   -1    0    0    0    0  0.00000000000E+00  0.00000000000E+00  0.45593999997E+02  0.45594000000E+02  0.51100000000E-03 0. -1.
         11   -1    0    0    0    0 -0.00000000000E+00 -0.00000000000E+00 -0.45593999997E+02  0.45594000000E+02  0.51100000000E-03 0.  1.
    9900012    2    1    2    0    0  0.21771890247E+01  0.33392512551E+02 -0.23094783791E+02  0.50528817951E+02  0.29999872644E+02 0.  0.
        -12    1    1    2    0    0 -0.21771890247E+01 -0.33392512551E+02  0.23094783791E+02  0.40659182049E+02  0.00000000000E+00 0.  1.
         11    1    3    3    0    0 -0.33136287953E+01  0.16845923977E+01 -0.34482758542E+01  0.50703642835E+01  0.51100000000E-03 0.  1.
        -11    1    3    3    0    0 -0.42605647438E+01  0.24170620786E+02 -0.21942306203E+02  0.32921666466E+02  0.51100000000E-03 0. -1.
         12    1    3    3    0    0  0.97513825637E+01  0.75372993674E+01  0.22957982662E+01  0.12536787202E+02  0.00000000000E+00 0. -1.
</event>
<event>
 7    1  0.5839176E-013  0.5052887E+02  0.7816164E-02  0.1300439E+00
        -11   -1    0    0    0    0  0.00000000000E+00  0.00000000000E+00  0.45593999997E+02  0.45594000000E+02  0.51100000000E-03 0.  1.
         11   -1    0    0    0    0 -0.00000000000E+00 -0.00000000000E+00 -0.45593999997E+02  0.45594000000E+02  0.51100000000E-03 0. -1.
    9900012    2    1    2    0    0  0.31117057782E+02 -0.21930889137E+02 -0.14280389552E+02  0.50528871762E+02  0.30000036208E+02 0.  0.
        -12    1    1    2    0    0 -0.31117057782E+02  0.21930889137E+02  0.14280389552E+02  0.40659128238E+02  0.00000000000E+00 0.  1.
         11    1    3    3    0    0  0.44169266934E+01  0.11871805975E+01 -0.26931244390E+01  0.53076886392E+01  0.51100000000E-03 0. -1.
        -11    1    3    3    0    0 -0.51417543212E+01 -0.25815969324E+01 -0.23952821719E+01  0.62321470751E+01  0.51100000000E-03 0.  1.
        -12    1    3    3    0    0  0.31841885409E+02 -0.20536472802E+02 -0.91919829409E+01  0.38989036048E+02  0.00000000000E+00 0.  1.
</event>
<event>
 7    1  0.5839176E-013  0.5052888E+02  0.7816164E-02  0.1300439E+00
        -11   -1    0    0    0    0  0.00000000000E+00  0.00000000000E+00  0.45593999997E+02  0.45594000000E+02  0.51100000000E-03 0. -1.
         11   -1    0    0    0    0 -0.00000000000E+00 -0.00000000000E+00 -0.45593999997E+02  0.45594000000E+02  0.51100000000E-03 0.  1.
    9900012    2    1    2    0    0 -0.33001813613E+02 -0.18921160245E+02 -0.14353890513E+02  0.50528878273E+02  0.30000055998E+02 0.  0.
        -12    1    1    2    0    0  0.33001813613E+02  0.18921160245E+02  0.14353890513E+02  0.40659121727E+02  0.00000000000E+00 0.  1.
         11    1    3    3    0    0 -0.14270641940E+02 -0.33751487946E+01  0.25901036925E+01  0.14891322580E+02  0.51100000000E-03 0. -1.
        -11    1    3    3    0    0  0.18039805279E+01 -0.87914928205E+01 -0.15707136130E+01  0.91110829913E+01  0.51100000000E-03 0.  1.
         12    1    3    3    0    0 -0.20535152200E+02 -0.67545186302E+01 -0.15373280593E+02  0.26526472702E+02  0.00000000000E+00 0. -1.
</event>
<event>
 7    1  0.5839176E-013  0.5052886E+02  0.7816164E-02  0.1300439E+00
        -11   -1    0    0    0    0  0.00000000000E+00  0.00000000000E+00  0.45593999997E+02  0.45594000000E+02  0.51100000000E-03 0.  1.
         11   -1    0    0    0    0 -0.00000000000E+00 -0.00000000000E+00 -0.45593999997E+02  0.45594000000E+02  0.51100000000E-03 0. -1.
    9900012    2    1    2    0    0 -0.33727413739E+02 -0.10251923835E+02 -0.20261415169E+02  0.50528864194E+02  0.30000013204E+02 0.  0.
        -12    1    1    2    0    0  0.33727413739E+02  0.10251923835E+02  0.20261415169E+02  0.40659135806E+02  0.00000000000E+00 0.  1.
         11    1    3    3    0    0 -0.79445277666E+01 -0.43666832184E+01  0.62625938687E+01  0.11018326823E+02  0.51100000000E-03 0. -1.
        -11    1    3    3    0    0 -0.79535253351E+01 -0.56032122269E+01 -0.33919658880E+01  0.10303396788E+02  0.51100000000E-03 0.  1.
        -12    1    3    3    0    0 -0.17829360637E+02 -0.28202839014E+00 -0.23132043150E+02  0.29207140583E+02  0.00000000000E+00 0.  1.
</event>
<event>
 7    1  0.5839176E-013  0.5052886E+02  0.7816164E-02  0.1300439E+00
        -11   -1    0    0    0    0  0.00000000000E+00  0.00000000000E+00  0.45593999997E+02  0.45594000000E+02  0.51100000000E-03 0. -1.
         11   -1    0    0    0    0 -0.00000000000E+00 -0.00000000000E+00 -0.45593999997E+02  0.45594000000E+02  0.51100000000E-03 0.  1.
    9900012    2    1    2    0    0 -0.20841028291E+02  0.19477461112E+02  0.28973187244E+02  0.50528861659E+02  0.30000005498E+02 0.  0.
        -12    1    1    2    0    0  0.20841028291E+02 -0.19477461112E+02 -0.28973187244E+02  0.40659138341E+02  0.00000000000E+00 0.  1.
         11    1    3    3    0    0 -0.74624596150E+01  0.12358037578E+02  0.13114268928E+02  0.19503677757E+02  0.51100000000E-03 0. -1.
        -11    1    3    3    0    0 -0.12315564379E+02  0.13242769902E+02  0.16866641355E+02  0.24729085538E+02  0.51100000000E-03 0.  1.
        -12    1    3    3    0    0 -0.10630042970E+01 -0.61233463687E+01 -0.10077230393E+01  0.62960983641E+01  0.00000000000E+00 0.  1.
</event>
<event>
 7    1  0.5839176E-013  0.5052886E+02  0.7816164E-02  0.1300439E+00
        -11   -1    0    0    0    0  0.00000000000E+00  0.00000000000E+00  0.45593999997E+02  0.45594000000E+02  0.51100000000E-03 0.  1.
         11   -1    0    0    0    0 -0.00000000000E+00 -0.00000000000E+00 -0.45593999997E+02  0.45594000000E+02  0.51100000000E-03 0. -1.
    9900012    2    1    2    0    0  0.38975111526E+01 -0.28984699781E+02 -0.28246456503E+02  0.50528859336E+02  0.29999998438E+02 0.  0.
        -12    1    1    2    0    0 -0.38975111526E+01  0.28984699781E+02  0.28246456503E+02  0.40659140664E+02  0.00000000000E+00 0.  1.
         11    1    3    3    0    0  0.72627485974E+01 -0.10105521838E+02 -0.17860582780E+02  0.21768543964E+02  0.51100000000E-03 0. -1.
        -11    1    3    3    0    0  0.62041836915E+01 -0.20320595843E+01 -0.60610450760E+01  0.89082786837E+01  0.51100000000E-03 0.  1.
        -12    1    3    3    0    0 -0.95694211363E+01 -0.16847118358E+02 -0.43248286467E+01  0.19852036688E+02  0.00000000000E+00 0.  1.
</event>
<event>
 7    1  0.5839176E-013  0.5052886E+02  0.7816164E-02  0.1300439E+00
        -11   -1    0    0    0    0  0.00000000000E+00  0.00000000000E+00  0.45593999997E+02  0.45594000000E+02  0.51100000000E-03 0.  1.
         11   -1    0    0    0    0 -0.00000000000E+00 -0.00000000000E+00 -0.45593999997E+02  0.45594000000E+02  0.51100000000E-03 0. -1.
    9900012    2    1    2    0    0  0.25096034472E+02  0.10349524378E+02 -0.30269491133E+02  0.50528859643E+02  0.29999999371E+02 0.  0.
        -12    1    1    2    0    0 -0.25096034472E+02 -0.10349524378E+02  0.30269491133E+02  0.40659140357E+02  0.00000000000E+00 0.  1.
         11    1    3    3    0    0  0.12615672107E+02  0.10257182408E+02 -0.66223992168E+01  0.17556228106E+02  0.51100000000E-03 0. -1.
        -11    1    3    3    0    0 -0.48254109326E+01  0.12540496260E+01 -0.89210513874E+01  0.10219705928E+02  0.51100000000E-03 0.  1.
         12    1    3    3    0    0  0.17305773298E+02 -0.11617076561E+01 -0.14726040529E+02  0.22752925609E+02  0.00000000000E+00 0. -1.
</event>
<event>
 7    1  0.5839176E-013  0.5052873E+02  0.7816164E-02  0.1300439E+00
        -11   -1    0    0    0    0  0.00000000000E+00  0.00000000000E+00  0.45593999997E+02  0.45594000000E+02  0.51100000000E-03 0.  1.
         11   -1    0    0    0    0 -0.00000000000E+00 -0.00000000000E+00 -0.45593999997E+02  0.45594000000E+02  0.51100000000E-03 0. -1.
    9900012    2    1    2    0    0  0.39015665541E+02 -0.71907955183E+00 -0.11420906271E+02  0.50528728818E+02  0.29999601712E+02 0.  0.
        -12    1    1    2    0    0 -0.39015665541E+02  0.71907955183E+00  0.11420906271E+02  0.40659271182E+02  0.00000000000E+00 0.  1.
         11    1    3    3    0    0  0.34982661498E+01  0.91360187156E+01 -0.32149287222E+01  0.10297595398E+02  0.51100000000E-03 0. -1.
        -11    1    3    3    0    0  0.69024120415E+01  0.34787592075E+01 -0.56284393847E+00  0.77499581402E+01  0.51100000000E-03 0.  1.
        -12    1    3    3    0    0  0.28614987350E+02 -0.13333857475E+02 -0.76431336098E+01  0.32481175280E+02  0.00000000000E+00 0.  1.
</event>
<event>
 7    1  0.5839176E-013  0.5052888E+02  0.7816164E-02  0.1300439E+00
        -11   -1    0    0    0    0  0.00000000000E+00  0.00000000000E+00  0.45593999997E+02  0.45594000000E+02  0.51100000000E-03 0. -1.
         11   -1    0    0    0    0 -0.00000000000E+00 -0.00000000000E+00 -0.45593999997E+02  0.45594000000E+02  0.51100000000E-03 0.  1.
    9900012    2    1    2    0    0  0.33836890436E+02 -0.89189680199E+01  0.20704615386E+02  0.50528877491E+02  0.30000053623E+02 0.  0.
        -12    1    1    2    0    0 -0.33836890436E+02  0.89189680199E+01 -0.20704615386E+02  0.40659122509E+02  0.00000000000E+00 0.  1.
         11    1    3    3    0    0  0.40464398526E+01 -0.42022763805E+01  0.71950987188E+01  0.92629502910E+01  0.51100000000E-03 0. -1.
        -11    1    3    3    0    0  0.15689021658E+02 -0.93621878718E+01  0.18107735147E+02  0.25723258634E+02  0.51100000000E-03 0.  1.
        -12    1    3    3    0    0  0.14101428926E+02  0.46454962324E+01 -0.45982184799E+01  0.15542668567E+02  0.00000000000E+00 0.  1.
</event>
<event>
 7    1  0.5839176E-013  0.5052886E+02  0.7816164E-02  0.1300439E+00
        -11   -1    0    0    0    0  0.00000000000E+00  0.00000000000E+00  0.45593999997E+02  0.45594000000E+02  0.51100000000E-03 0.  1.
         11   -1    0    0    0    0 -0.00000000000E+00 -0.00000000000E+00 -0.45593999997E+02  0.45594000000E+02  0.51100000000E-03 0. -1.
    9900012    2    1    2    0    0  0.14979765705E+02  0.20394405827E+02 -0.31825158656E+02  0.50528857202E+02  0.29999991950E+02 0.  0.
        -12    1    1    2    0    0 -0.14979765705E+02 -0.20394405827E+02  0.31825158656E+02  0.40659142798E+02  0.00000000000E+00 0.  1.
         11    1    3    3    0    0  0.50595262291E+01  0.25500780311E-01 -0.78321303828E+01  0.93242545304E+01  0.51100000000E-03 0. -1.
        -11    1    3    3    0    0  0.57187904421E+01  0.37087725288E+01  0.43316579367E+01  0.80760645449E+01  0.51100000000E-03 0.  1.
         12    1    3    3    0    0  0.42014490342E+01  0.16660132518E+02 -0.28324686210E+02  0.33128538126E+02  0.00000000000E+00 0. -1.
</event>
<event>
 7    1  0.5839176E-013  0.5052886E+02  0.7816164E-02  0.1300439E+00
        -11   -1    0    0    0    0  0.00000000000E+00  0.00000000000E+00  0.45593999997E+02  0.45594000000E+02  0.51100000000E-03 0.  1.
         11   -1    0    0    0    0 -0.00000000000E+00 -0.00000000000E+00 -0.45593999997E+02  0.45594000000E+02  0.51100000000E-03 0. -1.
    9900012    2    1    2    0    0  0.27658213359E+02  0.26256858003E+02  0.14098451112E+02  0.50528859795E+02  0.29999999833E+02 0.  0.
        -12    1    1    2    0    0 -0.27658213359E+02 -0.26256858003E+02 -0.14098451112E+02  0.40659140205E+02  0.00000000000E+00 0.  1.
         11    1    3    3    0    0  0.26437938681E+02  0.16630889872E+02  0.17999928526E+02  0.36049251404E+02  0.51100000000E-03 0. -1.
        -11    1    3    3    0    0  0.83933900089E+00  0.66934203024E+01  0.26843607281E+01  0.72603139108E+01  0.51100000000E-03 0.  1.
        -12    1    3    3    0    0  0.38093567782E+00  0.29325478291E+01 -0.65858381418E+01  0.72192944801E+01  0.00000000000E+00 0.  1.
</event>
<event>
 7    1  0.5839176E-013  0.5052886E+02  0.7816164E-02  0.1300439E+00
        -11   -1    0    0    0    0  0.00000000000E+00  0.00000000000E+00  0.45593999997E+02  0.45594000000E+02  0.51100000000E-03 0. -1.
         11   -1    0    0    0    0 -0.00000000000E+00 -0.00000000000E+00 -0.45593999997E+02  0.45594000000E+02  0.51100000000E-03 0.  1.
    9900012    2    1    2    0    0 -0.66166746782E+01  0.31493960384E+02  0.24849862509E+02  0.50528860915E+02  0.30000003236E+02 0.  0.
        -12    1    1    2    0    0  0.66166746782E+01 -0.31493960384E+02 -0.24849862509E+02  0.40659139085E+02  0.00000000000E+00 0.  1.
         11    1    3    3    0    0 -0.37773456512E+01  0.14252216869E+01  0.10138298493E+01  0.41626251632E+01  0.51100000000E-03 0. -1.
        -11    1    3    3    0    0  0.90140080662E+00 -0.44811369124E+01  0.52340022757E+01  0.69489489511E+01  0.51100000000E-03 0.  1.
         12    1    3    3    0    0 -0.37407298337E+01  0.34549875609E+02  0.18602030384E+02  0.39417286800E+02  0.00000000000E+00 0. -1.
</event>
<event>
 7    1  0.5839176E-013  0.5052886E+02  0.7816164E-02  0.1300439E+00
        -11   -1    0    0    0    0  0.00000000000E+00  0.00000000000E+00  0.45593999997E+02  0.45594000000E+02  0.51100000000E-03 0.  1.
         11   -1    0    0    0    0 -0.00000000000E+00 -0.00000000000E+00 -0.45593999997E+02  0.45594000000E+02  0.51100000000E-03 0. -1.
    9900012    2    1    2    0    0 -0.29444347167E+02 -0.19926867460E+02  0.19726031067E+02  0.50528856767E+02  0.29999990628E+02 0.  0.
        -12    1    1    2    0    0  0.29444347167E+02  0.19926867460E+02 -0.19726031067E+02  0.40659143233E+02  0.00000000000E+00 0.  1.
         11    1    3    3    0    0 -0.51906949025E+01 -0.77413954762E+01  0.46401612049E+01  0.10411705612E+02  0.51100000000E-03 0. -1.
        -11    1    3    3    0    0 -0.13317565405E+02 -0.19617050681E+02  0.11840384895E+02  0.26502470460E+02  0.51100000000E-03 0.  1.
         12    1    3    3    0    0 -0.10936086859E+02  0.74315786981E+01  0.32454849671E+01  0.13614680695E+02  0.00000000000E+00 0. -1.
</event>
<event>
 7    1  0.5839176E-013  0.5052880E+02  0.7816164E-02  0.1300439E+00
        -11   -1    0    0    0    0  0.00000000000E+00  0.00000000000E+00  0.45593999997E+02  0.45594000000E+02  0.51100000000E-03 0.  1.
         11   -1    0    0    0    0 -0.00000000000E+00 -0.00000000000E+00 -0.45593999997E+02  0.45594000000E+02  0.51100000000E-03 0. -1.
    9900012    2    1    2    0    0 -0.33091607829E+02 -0.20987266373E+02 -0.10846678504E+02  0.50528803093E+02  0.29999827482E+02 0.  0.
        -12    1    1    2    0    0  0.33091607829E+02  0.20987266373E+02  0.10846678504E+02  0.40659196907E+02  0.00000000000E+00 0.  1.
         11    1    3    3    0    0 -0.21829180929E+02  0.64258273927E+00 -0.36255127545E+01  0.22137533638E+02  0.51100000000E-03 0. -1.
        -11    1    3    3    0    0 -0.11510814518E+02 -0.10223673729E+02 -0.71676317077E+01  0.16982264276E+02  0.51100000000E-03 0.  1.
        -12    1    3    3    0    0  0.24838761699E+00 -0.11406175384E+02 -0.53534041781E-01  0.11409005179E+02  0.00000000000E+00 0.  1.
</event>
<event>
 7    1  0.5839176E-013  0.5052885E+02  0.7816164E-02  0.1300439E+00
        -11   -1    0    0    0    0  0.00000000000E+00  0.00000000000E+00  0.45593999997E+02  0.45594000000E+02  0.51100000000E-03 0.  1.
         11   -1    0    0    0    0 -0.00000000000E+00 -0.00000000000E+00 -0.45593999997E+02  0.45594000000E+02  0.51100000000E-03 0. -1.
    9900012    2    1    2    0    0 -0.79369624858E+01 -0.20439135549E+00 -0.39876425938E+02  0.50528849801E+02  0.29999969455E+02 0.  0.
        -12    1    1    2    0    0  0.79369624858E+01  0.20439135549E+00  0.39876425938E+02  0.40659150199E+02  0.00000000000E+00 0.  1.
         11    1    3    3    0    0  0.11110548618E+01  0.53314572433E+01 -0.13576020425E+02  0.14627618059E+02  0.51100000000E-03 0. -1.
        -11    1    3    3    0    0  0.44360486802E+01  0.50623191579E+01 -0.11114442073E+02  0.12993707169E+02  0.51100000000E-03 0.  1.
         12    1    3    3    0    0 -0.13484066028E+02 -0.10598167757E+02 -0.15185963440E+02  0.22907524572E+02  0.00000000000E+00 0. -1.
</event>
<event>
 7    1  0.5839176E-013  0.5052886E+02  0.7816164E-02  0.1300439E+00
        -11   -1    0    0    0    0  0.00000000000E+00  0.00000000000E+00  0.45593999997E+02  0.45594000000E+02  0.51100000000E-03 0.  1.
         11   -1    0    0    0    0 -0.00000000000E+00 -0.00000000000E+00 -0.45593999997E+02  0.45594000000E+02  0.51100000000E-03 0. -1.
    9900012    2    1    2    0    0 -0.18614589736E+02  0.39565848657E+01 -0.35930602259E+02  0.50528859655E+02  0.29999999409E+02 0.  0.
        -12    1    1    2    0    0  0.18614589736E+02 -0.39565848657E+01  0.35930602259E+02  0.40659140345E+02  0.00000000000E+00 0.  1.
         11    1    3    3    0    0 -0.70958605860E+01  0.42154677558E+01  0.52119101589E+00  0.82700088387E+01  0.51100000000E-03 0. -1.
        -11    1    3    3    0    0 -0.42796926802E+01  0.15534878000E+01  0.48231361742E+00  0.45783971506E+01  0.51100000000E-03 0.  1.
         12    1    3    3    0    0 -0.72390364699E+01 -0.18123706902E+01 -0.36934106893E+02  0.37680453666E+02  0.00000000000E+00 0. -1.
</event>
<event>
 7    1  0.5839176E-013  0.5052886E+02  0.7816164E-02  0.1300439E+00
        -11   -1    0    0    0    0  0.00000000000E+00  0.00000000000E+00  0.45593999997E+02  0.45594000000E+02  0.51100000000E-03 0.  1.
         11   -1    0    0    0    0 -0.00000000000E+00 -0.00000000000E+00 -0.45593999997E+02  0.45594000000E+02  0.51100000000E-03 0. -1.
    9900012    2    1    2    0    0  0.27753472200E+01 -0.27621531347E+02 -0.29707143113E+02  0.50528857140E+02  0.29999991764E+02 0.  0.
        -12    1    1    2    0    0 -0.27753472200E+01  0.27621531347E+02  0.29707143113E+02  0.40659142860E+02  0.00000000000E+00 0.  1.
         11    1    3    3    0    0 -0.24309108673E+01 -0.10414101208E+01  0.78135770623E+00  0.27576045421E+01  0.51100000000E-03 0. -1.
        -11    1    3    3    0    0 -0.93858434515E+01 -0.66085419708E+01 -0.59486325707E+01  0.12928770784E+02  0.51100000000E-03 0.  1.
         12    1    3    3    0    0  0.14592101539E+02 -0.19971579255E+02 -0.24539868249E+02  0.34842481814E+02  0.00000000000E+00 0. -1.
</event>
<event>
 7    1  0.5839176E-013  0.5052886E+02  0.7816164E-02  0.1300439E+00
        -11   -1    0    0    0    0  0.00000000000E+00  0.00000000000E+00  0.45593999997E+02  0.45594000000E+02  0.51100000000E-03 0.  1.
         11   -1    0    0    0    0 -0.00000000000E+00 -0.00000000000E+00 -0.45593999997E+02  0.45594000000E+02  0.51100000000E-03 0. -1.
    9900012    2    1    2    0    0  0.12019400490E+02  0.33087272525E+01 -0.38700798777E+02  0.50528862157E+02  0.30000007012E+02 0.  0.
        -12    1    1    2    0    0 -0.12019400490E+02 -0.33087272525E+01  0.38700798777E+02  0.40659137843E+02  0.00000000000E+00 0.  1.
         11    1    3    3    0    0 -0.37592337787E+01 -0.34980428975E+01 -0.46535533846E+01  0.69299135694E+01  0.51100000000E-03 0. -1.
        -11    1    3    3    0    0  0.11204975721E+02 -0.53419666962E+01 -0.88195412004E+01  0.15227356840E+02  0.51100000000E-03 0.  1.
        -12    1    3    3    0    0  0.45736585474E+01  0.12148736846E+02 -0.25227704192E+02  0.28371591747E+02  0.00000000000E+00 0.  1.
</event>
<event>
 7    1  0.5839176E-013  0.5052886E+02  0.7816164E-02  0.1300439E+00
        -11   -1    0    0    0    0  0.00000000000E+00  0.00000000000E+00  0.45593999997E+02  0.45594000000E+02  0.51100000000E-03 0.  1.
         11   -1    0    0    0    0 -0.00000000000E+00 -0.00000000000E+00 -0.45593999997E+02  0.45594000000E+02  0.51100000000E-03 0. -1.
    9900012    2    1    2    0    0  0.29235698476E+02  0.20128863454E+02 -0.19831002099E+02  0.50528857688E+02  0.29999993427E+02 0.  0.
        -12    1    1    2    0    0 -0.29235698476E+02 -0.20128863454E+02  0.19831002099E+02  0.40659142312E+02  0.00000000000E+00 0.  1.
         11    1    3    3    0    0  0.52243743253E+01 -0.19274230888E+01 -0.74598043719E+01  0.93090132872E+01  0.51100000000E-03 0. -1.
        -11    1    3    3    0    0  0.20044798966E+02  0.36437727371E+01 -0.79758458828E+01  0.21878874814E+02  0.51100000000E-03 0.  1.
        -12    1    3    3    0    0  0.39665251848E+01  0.18412513806E+02 -0.43953518445E+01  0.19340969586E+02  0.00000000000E+00 0.  1.
</event>
<event>
 7    1  0.5839176E-013  0.5052884E+02  0.7816164E-02  0.1300439E+00
        -11   -1    0    0    0    0  0.00000000000E+00  0.00000000000E+00  0.45593999997E+02  0.45594000000E+02  0.51100000000E-03 0.  1.
         11   -1    0    0    0    0 -0.00000000000E+00 -0.00000000000E+00 -0.45593999997E+02  0.45594000000E+02  0.51100000000E-03 0. -1.
    9900012    2    1    2    0    0 -0.90463462232E+01 -0.11720598223E+02 -0.37867644874E+02  0.50528839519E+02  0.29999938202E+02 0.  0.
        -12    1    1    2    0    0  0.90463462232E+01  0.11720598223E+02  0.37867644874E+02  0.40659160481E+02  0.00000000000E+00 0.  1.
         11    1    3    3    0    0 -0.58055009564E+01 -0.17152541360E+01 -0.31223439674E+02  0.31804860060E+02  0.51100000000E-03 0.  1.
        -11    1    3    3    0    0 -0.85273866847E+01 -0.42311591587E+01 -0.48867104201E+01  0.10700419173E+02  0.51100000000E-03 0. -1.
        -12    1    3    3    0    0  0.52865414179E+01 -0.57741849285E+01 -0.17574947803E+01  0.80235602855E+01  0.00000000000E+00 0.  1.
</event>
<event>
 7    1  0.5839176E-013  0.5052886E+02  0.7816164E-02  0.1300439E+00
        -11   -1    0    0    0    0  0.00000000000E+00  0.00000000000E+00  0.45593999997E+02  0.45594000000E+02  0.51100000000E-03 0.  1.
         11   -1    0    0    0    0 -0.00000000000E+00 -0.00000000000E+00 -0.45593999997E+02  0.45594000000E+02  0.51100000000E-03 0. -1.
    9900012    2    1    2    0    0 -0.31462695026E+02  0.23648851065E+02  0.10197863079E+02  0.50528859006E+02  0.29999997435E+02 0.  0.
        -12    1    1    2    0    0  0.31462695026E+02 -0.23648851065E+02 -0.10197863079E+02  0.40659140994E+02  0.00000000000E+00 0.  1.
         11    1    3    3    0    0 -0.15559960663E+02  0.38470371299E+01  0.39880234668E+01  0.16517154777E+02  0.51100000000E-03 0. -1.
        -11    1    3    3    0    0 -0.12820206612E+02  0.19265799933E+01 -0.35122379479E+01  0.13431501171E+02  0.51100000000E-03 0.  1.
         12    1    3    3    0    0 -0.30825277514E+01  0.17875233942E+02  0.97220775597E+01  0.20580203058E+02  0.00000000000E+00 0. -1.
</event>
<event>
 7    1  0.5839176E-013  0.5052886E+02  0.7816164E-02  0.1300439E+00
        -11   -1    0    0    0    0  0.00000000000E+00  0.00000000000E+00  0.45593999997E+02  0.45594000000E+02  0.51100000000E-03 0.  1.
         11   -1    0    0    0    0 -0.00000000000E+00 -0.00000000000E+00 -0.45593999997E+02  0.45594000000E+02  0.51100000000E-03 0. -1.
    9900012    2    1    2    0    0  0.18694190498E+02 -0.36054095498E+02  0.19480860883E+01  0.50528860806E+02  0.30000002907E+02 0.  0.
        -12    1    1    2    0    0 -0.18694190498E+02  0.36054095498E+02 -0.19480860883E+01  0.40659139194E+02  0.00000000000E+00 0.  1.
         11    1    3    3    0    0  0.13971270516E+02 -0.27910212812E+02 -0.44716845627E+01  0.31530498603E+02  0.51100000000E-03 0. -1.
        -11    1    3    3    0    0  0.10096677730E+02 -0.41216804950E+01  0.55293869479E+01  0.12227234829E+02  0.51100000000E-03 0.  1.
        -12    1    3    3    0    0 -0.53737577471E+01 -0.40222021906E+01  0.89038370315E+00  0.67711273748E+01  0.00000000000E+00 0.  1.
</event>
<event>
 7    1  0.5839176E-013  0.5052886E+02  0.7816164E-02  0.1300439E+00
        -11   -1    0    0    0    0  0.00000000000E+00  0.00000000000E+00  0.45593999997E+02  0.45594000000E+02  0.51100000000E-03 0.  1.
         11   -1    0    0    0    0 -0.00000000000E+00 -0.00000000000E+00 -0.45593999997E+02  0.45594000000E+02  0.51100000000E-03 0. -1.
    9900012    2    1    2    0    0 -0.35771385707E+02  0.37463430200E+01 -0.18961508225E+02  0.50528856925E+02  0.29999991109E+02 0.  0.
        -12    1    1    2    0    0  0.35771385707E+02 -0.37463430200E+01  0.18961508225E+02  0.40659143075E+02  0.00000000000E+00 0.  1.
         11    1    3    3    0    0 -0.29079495994E+02  0.42345017388E+01 -0.11106094323E+02  0.31414859917E+02  0.51100000000E-03 0. -1.
        -11    1    3    3    0    0 -0.30989562404E+01  0.49018858211E+01 -0.10596881629E+02  0.12079979921E+02  0.51100000000E-03 0.  1.
        -12    1    3    3    0    0 -0.35929334728E+01 -0.53900445398E+01  0.27414677268E+01  0.70340170869E+01  0.00000000000E+00 0.  1.
</event>
<event>
 7    1  0.5839176E-013  0.5052886E+02  0.7816164E-02  0.1300439E+00
        -11   -1    0    0    0    0  0.00000000000E+00  0.00000000000E+00  0.45593999997E+02  0.45594000000E+02  0.51100000000E-03 0.  1.
         11   -1    0    0    0    0 -0.00000000000E+00 -0.00000000000E+00 -0.45593999997E+02  0.45594000000E+02  0.51100000000E-03 0. -1.
    9900012    2    1    2    0    0 -0.55177672887E+01  0.37695982708E+02 -0.14203268056E+02  0.50528859679E+02  0.29999999479E+02 0.  0.
        -12    1    1    2    0    0  0.55177672887E+01 -0.37695982708E+02  0.14203268056E+02  0.40659140321E+02  0.00000000000E+00 0.  1.
         11    1    3    3    0    0 -0.11783083841E+01 -0.40998463180E+01 -0.26450591358E+01  0.50193115636E+01  0.51100000000E-03 0. -1.
        -11    1    3    3    0    0  0.35041673793E+01  0.48359899470E+01  0.86859431453E-01  0.59727324243E+01  0.51100000000E-03 0.  1.
         12    1    3    3    0    0 -0.78436262839E+01  0.36959839079E+02 -0.11645068352E+02  0.39536815691E+02  0.00000000000E+00 0. -1.
</event>
<event>
 7    1  0.5839176E-013  0.5052886E+02  0.7816164E-02  0.1300439E+00
        -11   -1    0    0    0    0  0.00000000000E+00  0.00000000000E+00  0.45593999997E+02  0.45594000000E+02  0.51100000000E-03 0. -1.
         11   -1    0    0    0    0 -0.00000000000E+00 -0.00000000000E+00 -0.45593999997E+02  0.45594000000E+02  0.51100000000E-03 0.  1.
    9900012    2    1    2    0    0 -0.26498082634E+02 -0.15619292321E+02  0.26590511654E+02  0.50528856061E+02  0.29999988482E+02 0.  0.
        -12    1    1    2    0    0  0.26498082634E+02  0.15619292321E+02 -0.26590511654E+02  0.40659143939E+02  0.00000000000E+00 0.  1.
         11    1    3    3    0    0 -0.11800694177E+02 -0.13174999766E+02  0.10266101444E+02  0.20450668473E+02  0.51100000000E-03 0. -1.
        -11    1    3    3    0    0 -0.14531947314E+02 -0.86693035590E+01  0.58718361001E+01  0.17911247204E+02  0.51100000000E-03 0.  1.
         12    1    3    3    0    0 -0.16544114249E+00  0.62250110043E+01  0.10452574110E+02  0.12166940384E+02  0.00000000000E+00 0. -1.
</event>
<event>
 7    1  0.5839176E-013  0.5052886E+02  0.7816164E-02  0.1300439E+00
        -11   -1    0    0    0    0  0.00000000000E+00  0.00000000000E+00  0.45593999997E+02  0.45594000000E+02  0.51100000000E-03 0. -1.
         11   -1    0    0    0    0 -0.00000000000E+00 -0.00000000000E+00 -0.45593999997E+02  0.45594000000E+02  0.51100000000E-03 0.  1.
    9900012    2    1    2    0    0 -0.30803471524E+02 -0.31048686714E+00  0.26537054490E+02  0.50528861777E+02  0.30000005857E+02 0.  0.
        -12    1    1    2    0    0  0.30803471524E+02  0.31048686714E+00 -0.26537054490E+02  0.40659138223E+02  0.00000000000E+00 0.  1.
         11    1    3    3    0    0  0.76607931716E-01 -0.45524834542E+01 -0.10658950651E+01  0.46762278523E+01  0.51100000000E-03 0. -1.
        -11    1    3    3    0    0 -0.29464416198E+01 -0.42901813987E+01 -0.61479875704E+00  0.52407206017E+01  0.51100000000E-03 0.  1.
         12    1    3    3    0    0 -0.27933637836E+02  0.85321779858E+01  0.28217748312E+02  0.40611913323E+02  0.00000000000E+00 0. -1.
</event>
<event>
 7    1  0.5839176E-013  0.5052886E+02  0.7816164E-02  0.1300439E+00
        -11   -1    0    0    0    0  0.00000000000E+00  0.00000000000E+00  0.45593999997E+02  0.45594000000E+02  0.51100000000E-03 0. -1.
         11   -1    0    0    0    0 -0.00000000000E+00 -0.00000000000E+00 -0.45593999997E+02  0.45594000000E+02  0.51100000000E-03 0.  1.
    9900012    2    1    2    0    0 -0.19459854425E+02 -0.21702732195E+02  0.28345567597E+02  0.50528859314E+02  0.29999998369E+02 0.  0.
        -12    1    1    2    0    0  0.19459854425E+02  0.21702732195E+02 -0.28345567597E+02  0.40659140686E+02  0.00000000000E+00 0.  1.
         11    1    3    3    0    0 -0.83592837654E+01 -0.22644075914E+01  0.12338957733E+02  0.15074980763E+02  0.51100000000E-03 0. -1.
        -11    1    3    3    0    0  0.18095034488E+01 -0.10828792047E+02  0.16626118102E+02  0.19923976594E+02  0.51100000000E-03 0.  1.
         12    1    3    3    0    0 -0.12910074108E+02 -0.86095325564E+01 -0.61950823746E+00  0.15529901956E+02  0.00000000000E+00 0. -1.
</event>
<event>
 7    1  0.5839176E-013  0.5052886E+02  0.7816164E-02  0.1300439E+00
        -11   -1    0    0    0    0  0.00000000000E+00  0.00000000000E+00  0.45593999997E+02  0.45594000000E+02  0.51100000000E-03 0.  1.
         11   -1    0    0    0    0 -0.00000000000E+00 -0.00000000000E+00 -0.45593999997E+02  0.45594000000E+02  0.51100000000E-03 0. -1.
    9900012    2    1    2    0    0 -0.47469852356E+01  0.23626898910E+02 -0.32747538413E+02  0.50528862121E+02  0.30000006904E+02 0.  0.
        -12    1    1    2    0    0  0.47469852356E+01 -0.23626898910E+02  0.32747538413E+02  0.40659137879E+02  0.00000000000E+00 0.  1.
         11    1    3    3    0    0 -0.53053864493E+01  0.12966759061E+02 -0.14705319740E+02  0.20310844267E+02  0.51100000000E-03 0. -1.
        -11    1    3    3    0    0  0.88652507330E+01  0.11950303254E+02 -0.15380978227E+02  0.21400395088E+02  0.51100000000E-03 0.  1.
         12    1    3    3    0    0 -0.83068495193E+01 -0.12901634045E+01 -0.26612404456E+01  0.88176227667E+01  0.00000000000E+00 0. -1.
</event>
<event>
 7    1  0.5839176E-013  0.5052887E+02  0.7816164E-02  0.1300439E+00
        -11   -1    0    0    0    0  0.00000000000E+00  0.00000000000E+00  0.45593999997E+02  0.45594000000E+02  0.51100000000E-03 0. -1.
         11   -1    0    0    0    0 -0.00000000000E+00 -0.00000000000E+00 -0.45593999997E+02  0.45594000000E+02  0.51100000000E-03 0.  1.
    9900012    2    1    2    0    0 -0.43430207374E+01  0.23031898912E+02  0.33224012382E+02  0.50528865782E+02  0.30000018031E+02 0.  0.
        -12    1    1    2    0    0  0.43430207374E+01 -0.23031898912E+02 -0.33224012382E+02  0.40659134218E+02  0.00000000000E+00 0.  1.
         11    1    3    3    0    0 -0.50511221828E+01  0.57822277584E+00  0.82285893412E+01  0.96725311936E+01  0.51100000000E-03 0. -1.
        -11    1    3    3    0    0 -0.34904410459E+01 -0.41264570203E+01  0.39470894318E+01  0.66925586646E+01  0.51100000000E-03 0.  1.
         12    1    3    3    0    0  0.41985424913E+01  0.26580133156E+02  0.21048333609E+02  0.34163775924E+02  0.00000000000E+00 0. -1.
</event>
<event>
 7    1  0.5839176E-013  0.5052883E+02  0.7816164E-02  0.1300439E+00
        -11   -1    0    0    0    0  0.00000000000E+00  0.00000000000E+00  0.45593999997E+02  0.45594000000E+02  0.51100000000E-03 0.  1.
         11   -1    0    0    0    0 -0.00000000000E+00 -0.00000000000E+00 -0.45593999997E+02  0.45594000000E+02  0.51100000000E-03 0. -1.
    9900012    2    1    2    0    0  0.16327643826E+02 -0.17066909208E+02 -0.33095266178E+02  0.50528831461E+02  0.29999913709E+02 0.  0.
        -12    1    1    2    0    0 -0.16327643826E+02  0.17066909208E+02  0.33095266178E+02  0.40659168539E+02  0.00000000000E+00 0.  1.
         11    1    3    3    0    0  0.15497641491E+02 -0.19738816415E+01 -0.25534488701E+02  0.29934649054E+02  0.51100000000E-03 0. -1.
        -11    1    3    3    0    0  0.12496341432E+01  0.65688488264E-01 -0.50753398500E+01  0.52273296551E+01  0.51100000000E-03 0.  1.
         12    1    3    3    0    0 -0.41963180735E+00 -0.15158716055E+02 -0.24854376272E+01  0.15366852752E+02  0.00000000000E+00 0. -1.
</event>
<event>
 7    1  0.5839176E-013  0.5052882E+02  0.7816164E-02  0.1300439E+00
        -11   -1    0    0    0    0  0.00000000000E+00  0.00000000000E+00  0.45593999997E+02  0.45594000000E+02  0.51100000000E-03 0.  1.
         11   -1    0    0    0    0 -0.00000000000E+00 -0.00000000000E+00 -0.45593999997E+02  0.45594000000E+02  0.51100000000E-03 0. -1.
    9900012    2    1    2    0    0 -0.19004080990E+02  0.53253303787E+01 -0.35547919551E+02  0.50528821180E+02  0.29999882457E+02 0.  0.
        -12    1    1    2    0    0  0.19004080990E+02 -0.53253303787E+01  0.35547919551E+02  0.40659178820E+02  0.00000000000E+00 0.  1.
         11    1    3    3    0    0 -0.44402067145E+01  0.36141617851E+01 -0.17982627154E+02  0.18872002562E+02  0.51100000000E-03 0. -1.
        -11    1    3    3    0    0 -0.28006303751E+01  0.10440360809E+02 -0.35337672887E+01  0.11372430515E+02  0.51100000000E-03 0.  1.
        -12    1    3    3    0    0 -0.11763243901E+02 -0.87291922153E+01 -0.14031525108E+02  0.20284388102E+02  0.00000000000E+00 0.  1.
</event>
<event>
 7    1  0.5839176E-013  0.5052886E+02  0.7816164E-02  0.1300439E+00
        -11   -1    0    0    0    0  0.00000000000E+00  0.00000000000E+00  0.45593999997E+02  0.45594000000E+02  0.51100000000E-03 0. -1.
         11   -1    0    0    0    0 -0.00000000000E+00 -0.00000000000E+00 -0.45593999997E+02  0.45594000000E+02  0.51100000000E-03 0.  1.
    9900012    2    1    2    0    0  0.26226367865E+02  0.16798379979E+02  0.26137279176E+02  0.50528864446E+02  0.30000013969E+02 0.  0.
        -12    1    1    2    0    0 -0.26226367865E+02 -0.16798379979E+02 -0.26137279176E+02  0.40659135554E+02  0.00000000000E+00 0.  1.
         11    1    3    3    0    0  0.21180566073E+02  0.12042185602E+02  0.19178280126E+02  0.31007048264E+02  0.51100000000E-03 0. -1.
        -11    1    3    3    0    0  0.10861635889E+01  0.71068379099E+00  0.11922604694E+02  0.11993053229E+02  0.51100000000E-03 0.  1.
        -12    1    3    3    0    0  0.39596382032E+01  0.40455105864E+01 -0.49636056440E+01  0.75287629524E+01  0.00000000000E+00 0.  1.
</event>
<event>
 7    1  0.5839176E-013  0.5052891E+02  0.7816164E-02  0.1300439E+00
        -11   -1    0    0    0    0  0.00000000000E+00  0.00000000000E+00  0.45593999997E+02  0.45594000000E+02  0.51100000000E-03 0.  1.
         11   -1    0    0    0    0 -0.00000000000E+00 -0.00000000000E+00 -0.45593999997E+02  0.45594000000E+02  0.51100000000E-03 0. -1.
    9900012    2    1    2    0    0 -0.16461916459E+02  0.46654001865E+00 -0.37174581308E+02  0.50528906940E+02  0.30000143133E+02 0.  0.
        -12    1    1    2    0    0  0.16461916459E+02 -0.46654001865E+00  0.37174581308E+02  0.40659093060E+02  0.00000000000E+00 0.  1.
         11    1    3    3    0    0 -0.12524276046E+02  0.92852804377E+01 -0.23201637362E+02  0.27953352211E+02  0.51100000000E-03 0. -1.
        -11    1    3    3    0    0 -0.24987099397E+00  0.27718368383E+01 -0.90253103243E+01  0.94446673675E+01  0.51100000000E-03 0.  1.
        -12    1    3    3    0    0 -0.36877694191E+01 -0.11590577257E+02 -0.49476336216E+01  0.13130887361E+02  0.00000000000E+00 0.  1.
</event>
<event>
 7    1  0.5839176E-013  0.5052887E+02  0.7816164E-02  0.1300439E+00
        -11   -1    0    0    0    0  0.00000000000E+00  0.00000000000E+00  0.45593999997E+02  0.45594000000E+02  0.51100000000E-03 0.  1.
         11   -1    0    0    0    0 -0.00000000000E+00 -0.00000000000E+00 -0.45593999997E+02  0.45594000000E+02  0.51100000000E-03 0. -1.
    9900012    2    1    2    0    0 -0.22566872987E+02 -0.33583170520E+02  0.40089515094E+01  0.50528870757E+02  0.30000033153E+02 0.  0.
        -12    1    1    2    0    0  0.22566872987E+02  0.33583170520E+02 -0.40089515094E+01  0.40659129243E+02  0.00000000000E+00 0.  1.
         11    1    3    3    0    0 -0.79470244808E+01 -0.13225664716E+02  0.65914021530E+00  0.15443700054E+02  0.51100000000E-03 0. -1.
        -11    1    3    3    0    0 -0.18161425648E+02 -0.74918718203E+01  0.76235675065E+01  0.21073307921E+02  0.51100000000E-03 0.  1.
         12    1    3    3    0    0  0.35415771420E+01 -0.12865633984E+02 -0.42737562124E+01  0.14011862782E+02  0.00000000000E+00 0. -1.
</event>
<event>
 7    1  0.5839176E-013  0.5052886E+02  0.7816164E-02  0.1300439E+00
        -11   -1    0    0    0    0  0.00000000000E+00  0.00000000000E+00  0.45593999997E+02  0.45594000000E+02  0.51100000000E-03 0.  1.
         11   -1    0    0    0    0 -0.00000000000E+00 -0.00000000000E+00 -0.45593999997E+02  0.45594000000E+02  0.51100000000E-03 0. -1.
    9900012    2    1    2    0    0 -0.15700910982E+02 -0.37009710796E+02 -0.60768958300E+01  0.50528856357E+02  0.29999989382E+02 0.  0.
        -12    1    1    2    0    0  0.15700910982E+02  0.37009710796E+02  0.60768958300E+01  0.40659143643E+02  0.00000000000E+00 0.  1.
         11    1    3    3    0    0 -0.41548192282E+01 -0.58469289158E+01  0.56046154230E+01  0.91027915975E+01  0.51100000000E-03 0. -1.
        -11    1    3    3    0    0  0.14391449906E+01 -0.31742318031E+01  0.51966954786E+01  0.62571982550E+01  0.51100000000E-03 0.  1.
         12    1    3    3    0    0 -0.12985236745E+02 -0.27988550077E+02 -0.16878206732E+02  0.35168866504E+02  0.00000000000E+00 0. -1.
</event>
<event>
 7    1  0.5839176E-013  0.5052886E+02  0.7816164E-02  0.1300439E+00
        -11   -1    0    0    0    0  0.00000000000E+00  0.00000000000E+00  0.45593999997E+02  0.45594000000E+02  0.51100000000E-03 0.  1.
         11   -1    0    0    0    0 -0.00000000000E+00 -0.00000000000E+00 -0.45593999997E+02  0.45594000000E+02  0.51100000000E-03 0. -1.
    9900012    2    1    2    0    0 -0.12605393232E+02 -0.16728373325E+02 -0.34848694491E+02  0.50528856866E+02  0.29999990931E+02 0.  0.
        -12    1    1    2    0    0  0.12605393232E+02  0.16728373325E+02  0.34848694491E+02  0.40659143134E+02  0.00000000000E+00 0.  1.
         11    1    3    3    0    0 -0.59676868173E+01 -0.90736355968E+01 -0.31014712454E+02  0.32861170670E+02  0.51100000000E-03 0. -1.
        -11    1    3    3    0    0 -0.75422653405E+01 -0.10415266820E+02 -0.58542899452E+01  0.14129269635E+02  0.51100000000E-03 0.  1.
        -12    1    3    3    0    0  0.90455892566E+00  0.27605290915E+01  0.20203079089E+01  0.35384165614E+01  0.00000000000E+00 0.  1.
</event>
<event>
 7    1  0.5839176E-013  0.5052887E+02  0.7816164E-02  0.1300439E+00
        -11   -1    0    0    0    0  0.00000000000E+00  0.00000000000E+00  0.45593999997E+02  0.45594000000E+02  0.51100000000E-03 0.  1.
         11   -1    0    0    0    0 -0.00000000000E+00 -0.00000000000E+00 -0.45593999997E+02  0.45594000000E+02  0.51100000000E-03 0. -1.
    9900012    2    1    2    0    0  0.37904267169E+02 -0.13702463102E+02 -0.53548102010E+01  0.50528868713E+02  0.30000026941E+02 0.  0.
        -12    1    1    2    0    0 -0.37904267169E+02  0.13702463102E+02  0.53548102010E+01  0.40659131287E+02  0.00000000000E+00 0.  1.
         11    1    3    3    0    0  0.71798695646E+00  0.16689606047E+01  0.36380769796E+01  0.40665143723E+01  0.51100000000E-03 0. -1.
        -11    1    3    3    0    0 -0.51368029557E+00 -0.49354786905E+00  0.38744100751E+01  0.39393540888E+01  0.51100000000E-03 0.  1.
         12    1    3    3    0    0  0.37699960508E+02 -0.14877875838E+02 -0.12867297256E+02  0.42523000252E+02  0.00000000000E+00 0. -1.
</event>
<event>
 7    1  0.5839176E-013  0.5052886E+02  0.7816164E-02  0.1300439E+00
        -11   -1    0    0    0    0  0.00000000000E+00  0.00000000000E+00  0.45593999997E+02  0.45594000000E+02  0.51100000000E-03 0. -1.
         11   -1    0    0    0    0 -0.00000000000E+00 -0.00000000000E+00 -0.45593999997E+02  0.45594000000E+02  0.51100000000E-03 0.  1.
    9900012    2    1    2    0    0 -0.17756694892E+02  0.23309375663E+02  0.28187558697E+02  0.50528859914E+02  0.30000000193E+02 0.  0.
        -12    1    1    2    0    0  0.17756694892E+02 -0.23309375663E+02 -0.28187558697E+02  0.40659140086E+02  0.00000000000E+00 0.  1.
         11    1    3    3    0    0 -0.58796449580E+01 -0.31054617686E+01 -0.19571442295E-01  0.66493985391E+01  0.51100000000E-03 0. -1.
        -11    1    3    3    0    0 -0.26703800803E+01  0.21081141094E+02  0.11748681348E+02  0.24281205762E+02  0.51100000000E-03 0.  1.
         12    1    3    3    0    0 -0.92066698533E+01  0.53336963372E+01  0.16458448792E+02  0.19598255612E+02  0.00000000000E+00 0. -1.
</event>
<event>
 7    1  0.5839176E-013  0.5052886E+02  0.7816164E-02  0.1300439E+00
        -11   -1    0    0    0    0  0.00000000000E+00  0.00000000000E+00  0.45593999997E+02  0.45594000000E+02  0.51100000000E-03 0.  1.
         11   -1    0    0    0    0 -0.00000000000E+00 -0.00000000000E+00 -0.45593999997E+02  0.45594000000E+02  0.51100000000E-03 0. -1.
    9900012    2    1    2    0    0 -0.17603579405E+02  0.22260732569E+02 -0.29115968080E+02  0.50528858106E+02  0.29999994698E+02 0.  0.
        -12    1    1    2    0    0  0.17603579405E+02 -0.22260732569E+02  0.29115968080E+02  0.40659141894E+02  0.00000000000E+00 0.  1.
         11    1    3    3    0    0 -0.75981369158E+01  0.77648967350E+01 -0.16263666706E+02  0.19558429407E+02  0.51100000000E-03 0. -1.
        -11    1    3    3    0    0 -0.11200946151E+02  0.11876788616E+01 -0.13513628930E+02  0.17592326250E+02  0.51100000000E-03 0.  1.
        -12    1    3    3    0    0  0.11955036616E+01  0.13308156972E+02  0.66132755578E+00  0.13378102449E+02  0.00000000000E+00 0.  1.
</event>
<event>
 7    1  0.5839176E-013  0.5052887E+02  0.7816164E-02  0.1300439E+00
        -11   -1    0    0    0    0  0.00000000000E+00  0.00000000000E+00  0.45593999997E+02  0.45594000000E+02  0.51100000000E-03 0.  1.
         11   -1    0    0    0    0 -0.00000000000E+00 -0.00000000000E+00 -0.45593999997E+02  0.45594000000E+02  0.51100000000E-03 0. -1.
    9900012    2    1    2    0    0 -0.31453768475E+02 -0.24448415001E+02  0.81302241192E+01  0.50528867058E+02  0.30000021909E+02 0.  0.
        -12    1    1    2    0    0  0.31453768475E+02  0.24448415001E+02 -0.81302241192E+01  0.40659132942E+02  0.00000000000E+00 0.  1.
         11    1    3    3    0    0 -0.11102129583E+01 -0.73942797106E+01 -0.73340719586E+01  0.10473612414E+02  0.51100000000E-03 0. -1.
        -11    1    3    3    0    0 -0.91636377397E+01 -0.47798265791E+01 -0.12546272062E+01  0.10411200144E+02  0.51100000000E-03 0.  1.
        -12    1    3    3    0    0 -0.21179917777E+02 -0.12274308712E+02  0.16718923284E+02  0.29644054500E+02  0.00000000000E+00 0.  1.
</event>
<event>
 7    1  0.5839176E-013  0.5052890E+02  0.7816164E-02  0.1300439E+00
        -11   -1    0    0    0    0  0.00000000000E+00  0.00000000000E+00  0.45593999997E+02  0.45594000000E+02  0.51100000000E-03 0.  1.
         11   -1    0    0    0    0 -0.00000000000E+00 -0.00000000000E+00 -0.45593999997E+02  0.45594000000E+02  0.51100000000E-03 0. -1.
    9900012    2    1    2    0    0 -0.99162276665E+01 -0.18263763404E+01 -0.39389021819E+02  0.50528901860E+02  0.30000127694E+02 0.  0.
        -12    1    1    2    0    0  0.99162276665E+01  0.18263763404E+01  0.39389021819E+02  0.40659098140E+02  0.00000000000E+00 0.  1.
         11    1    3    3    0    0 -0.37561001028E+01  0.32118037649E+01 -0.28944905088E-01  0.49421462418E+01  0.51100000000E-03 0.  1.
        -11    1    3    3    0    0  0.11284996591E+01  0.58450865296E+01 -0.24786666369E+01  0.64484367546E+01  0.51100000000E-03 0. -1.
         12    1    3    3    0    0 -0.72886272228E+01 -0.10883266635E+02 -0.36881410277E+02  0.39138318864E+02  0.00000000000E+00 0. -1.
</event>
<event>
 7    1  0.5839176E-013  0.5052883E+02  0.7816164E-02  0.1300439E+00
        -11   -1    0    0    0    0  0.00000000000E+00  0.00000000000E+00  0.45593999997E+02  0.45594000000E+02  0.51100000000E-03 0.  1.
         11   -1    0    0    0    0 -0.00000000000E+00 -0.00000000000E+00 -0.45593999997E+02  0.45594000000E+02  0.51100000000E-03 0. -1.
    9900012    2    1    2    0    0  0.27032937503E+02 -0.14691088621E+02 -0.26581195073E+02  0.50528834656E+02  0.29999923421E+02 0.  0.
        -12    1    1    2    0    0 -0.27032937503E+02  0.14691088621E+02  0.26581195073E+02  0.40659165344E+02  0.00000000000E+00 0.  1.
         11    1    3    3    0    0  0.14820722873E+02 -0.43328502310E+01 -0.22586045660E+02  0.27359767478E+02  0.51100000000E-03 0. -1.
        -11    1    3    3    0    0  0.15500821935E+02 -0.99880609130E+01 -0.58871239325E+01  0.19357041869E+02  0.51100000000E-03 0.  1.
         12    1    3    3    0    0 -0.32886073054E+01 -0.37017747715E+00  0.18919745197E+01  0.38120253090E+01  0.00000000000E+00 0. -1.
</event>
<event>
 7    1  0.5839176E-013  0.5052888E+02  0.7816164E-02  0.1300439E+00
        -11   -1    0    0    0    0  0.00000000000E+00  0.00000000000E+00  0.45593999997E+02  0.45594000000E+02  0.51100000000E-03 0. -1.
         11   -1    0    0    0    0 -0.00000000000E+00 -0.00000000000E+00 -0.45593999997E+02  0.45594000000E+02  0.51100000000E-03 0.  1.
    9900012    2    1    2    0    0  0.16797447492E+02  0.52155954812E+01  0.36657978756E+02  0.50528879437E+02  0.30000059537E+02 0.  0.
        -12    1    1    2    0    0 -0.16797447492E+02 -0.52155954812E+01 -0.36657978756E+02  0.40659120563E+02  0.00000000000E+00 0.  1.
         11    1    3    3    0    0 -0.58297368682E+01  0.17471080107E+01  0.71307579870E+00  0.61275358595E+01  0.51100000000E-03 0.  1.
        -11    1    3    3    0    0 -0.41344407015E+00 -0.22687698252E+01  0.27602698301E+01  0.35968517226E+01  0.51100000000E-03 0. -1.
         12    1    3    3    0    0  0.23040628430E+02  0.57372572957E+01  0.33184633127E+02  0.40804491855E+02  0.00000000000E+00 0. -1.
</event>
<event>
 7    1  0.5839176E-013  0.5052886E+02  0.7816164E-02  0.1300439E+00
        -11   -1    0    0    0    0  0.00000000000E+00  0.00000000000E+00  0.45593999997E+02  0.45594000000E+02  0.51100000000E-03 0. -1.
         11   -1    0    0    0    0 -0.00000000000E+00 -0.00000000000E+00 -0.45593999997E+02  0.45594000000E+02  0.51100000000E-03 0.  1.
    9900012    2    1    2    0    0  0.24869357191E+02  0.10774135496E+02  0.30308400102E+02  0.50528855401E+02  0.29999986476E+02 0.  0.
        -12    1    1    2    0    0 -0.24869357191E+02 -0.10774135496E+02 -0.30308400102E+02  0.40659144599E+02  0.00000000000E+00 0.  1.
         11    1    3    3    0    0  0.13124278414E+02 -0.58223362010E+00  0.50751109691E+01  0.14083409797E+02  0.51100000000E-03 0.  1.
        -11    1    3    3    0    0  0.14226237064E+02  0.42577864070E+00  0.94389825553E+01  0.17078100023E+02  0.51100000000E-03 0. -1.
        -12    1    3    3    0    0 -0.24811582875E+01  0.10930590476E+02  0.15794306578E+02  0.19367345581E+02  0.00000000000E+00 0.  1.
</event>
<event>
 7    1  0.5839176E-013  0.5052885E+02  0.7816164E-02  0.1300439E+00
        -11   -1    0    0    0    0  0.00000000000E+00  0.00000000000E+00  0.45593999997E+02  0.45594000000E+02  0.51100000000E-03 0.  1.
         11   -1    0    0    0    0 -0.00000000000E+00 -0.00000000000E+00 -0.45593999997E+02  0.45594000000E+02  0.51100000000E-03 0. -1.
    9900012    2    1    2    0    0 -0.23539823077E+02  0.28187435565E+02 -0.17450253913E+02  0.50528853970E+02  0.29999982129E+02 0.  0.
        -12    1    1    2    0    0  0.23539823077E+02 -0.28187435565E+02  0.17450253913E+02  0.40659146030E+02  0.00000000000E+00 0.  1.
         11    1    3    3    0    0 -0.44799609059E+01  0.58853600939E+01  0.24565557149E+01  0.77937269259E+01  0.51100000000E-03 0. -1.
        -11    1    3    3    0    0 -0.83667664919E+01 -0.18604594791E+01  0.15342483136E+01  0.87073537400E+01  0.51100000000E-03 0.  1.
         12    1    3    3    0    0 -0.10693095679E+02  0.24162534951E+02 -0.21441057941E+02  0.34027773305E+02  0.00000000000E+00 0. -1.
</event>
<event>
 7    1  0.5839176E-013  0.5052887E+02  0.7816164E-02  0.1300439E+00
        -11   -1    0    0    0    0  0.00000000000E+00  0.00000000000E+00  0.45593999997E+02  0.45594000000E+02  0.51100000000E-03 0. -1.
         11   -1    0    0    0    0 -0.00000000000E+00 -0.00000000000E+00 -0.45593999997E+02  0.45594000000E+02  0.51100000000E-03 0.  1.
    9900012    2    1    2    0    0  0.23074664272E+02 -0.20032074569E+02  0.26822394543E+02  0.50528868285E+02  0.30000025638E+02 0.  0.
        -12    1    1    2    0    0 -0.23074664272E+02  0.20032074569E+02 -0.26822394543E+02  0.40659131715E+02  0.00000000000E+00 0.  1.
         11    1    3    3    0    0 -0.22272770158E+01 -0.14703009334E+01  0.35143276949E+01  0.44128275684E+01  0.51100000000E-03 0. -1.
        -11    1    3    3    0    0 -0.36331117935E+01 -0.64509370903E+01  0.89595319923E+01  0.11622706416E+02  0.51100000000E-03 0.  1.
         12    1    3    3    0    0  0.28935053082E+02 -0.12110836545E+02  0.14348534856E+02  0.34493334301E+02  0.00000000000E+00 0. -1.
</event>
<event>
 7    1  0.5839176E-013  0.5052886E+02  0.7816164E-02  0.1300439E+00
        -11   -1    0    0    0    0  0.00000000000E+00  0.00000000000E+00  0.45593999997E+02  0.45594000000E+02  0.51100000000E-03 0. -1.
         11   -1    0    0    0    0 -0.00000000000E+00 -0.00000000000E+00 -0.45593999997E+02  0.45594000000E+02  0.51100000000E-03 0.  1.
    9900012    2    1    2    0    0 -0.37636866658E+02 -0.12856957282E+02  0.84457433721E+01  0.50528860025E+02  0.30000000531E+02 0.  0.
        -12    1    1    2    0    0  0.37636866658E+02  0.12856957282E+02 -0.84457433721E+01  0.40659139975E+02  0.00000000000E+00 0.  1.
         11    1    3    3    0    0 -0.10167081159E+02  0.15192526373E-01  0.73581359532E+01  0.12550375893E+02  0.51100000000E-03 0. -1.
        -11    1    3    3    0    0 -0.21754796899E+02 -0.10079848521E+02  0.10857626370E+02  0.26320383451E+02  0.51100000000E-03 0.  1.
        -12    1    3    3    0    0 -0.57149886003E+01 -0.27923012874E+01 -0.97700189509E+01  0.11658100681E+02  0.00000000000E+00 0.  1.
</event>
<event>
 7    1  0.5839176E-013  0.5052885E+02  0.7816164E-02  0.1300439E+00
        -11   -1    0    0    0    0  0.00000000000E+00  0.00000000000E+00  0.45593999997E+02  0.45594000000E+02  0.51100000000E-03 0. -1.
         11   -1    0    0    0    0 -0.00000000000E+00 -0.00000000000E+00 -0.45593999997E+02  0.45594000000E+02  0.51100000000E-03 0.  1.
    9900012    2    1    2    0    0 -0.35448557653E+02 -0.10165681187E+02  0.17123807695E+02  0.50528854612E+02  0.29999984079E+02 0.  0.
        -12    1    1    2    0    0  0.35448557653E+02  0.10165681187E+02 -0.17123807695E+02  0.40659145388E+02  0.00000000000E+00 0.  1.
         11    1    3    3    0    0 -0.11538756891E+02 -0.57301372439E+01  0.14512468098E+02  0.19405904101E+02  0.51100000000E-03 0.  1.
        -11    1    3    3    0    0 -0.20897025003E+02 -0.98418374169E+01  0.62684830515E+01  0.23934103237E+02  0.51100000000E-03 0. -1.
        -12    1    3    3    0    0 -0.30127757587E+01  0.54062934734E+01 -0.36571434540E+01  0.71888472745E+01  0.00000000000E+00 0.  1.
</event>
<event>
 7    1  0.5839176E-013  0.5052885E+02  0.7816164E-02  0.1300439E+00
        -11   -1    0    0    0    0  0.00000000000E+00  0.00000000000E+00  0.45593999997E+02  0.45594000000E+02  0.51100000000E-03 0.  1.
         11   -1    0    0    0    0 -0.00000000000E+00 -0.00000000000E+00 -0.45593999997E+02  0.45594000000E+02  0.51100000000E-03 0. -1.
    9900012    2    1    2    0    0  0.81138481401E+01 -0.21410440993E+02 -0.33599481554E+02  0.50528847575E+02  0.29999962690E+02 0.  0.
        -12    1    1    2    0    0 -0.81138481401E+01  0.21410440993E+02  0.33599481554E+02  0.40659152425E+02  0.00000000000E+00 0.  1.
         11    1    3    3    0    0  0.31367945065E+01  0.58985978436E+01 -0.66760247167E+01  0.94446938847E+01  0.51100000000E-03 0. -1.
        -11    1    3    3    0    0  0.23051423571E+00  0.44927145396E+00 -0.59488209068E+01  0.59702137394E+01  0.51100000000E-03 0.  1.
         12    1    3    3    0    0  0.47465393980E+01 -0.27758310291E+02 -0.20974635931E+02  0.35113939951E+02  0.00000000000E+00 0. -1.
</event>
<event>
 7    1  0.5839176E-013  0.5052886E+02  0.7816164E-02  0.1300439E+00
        -11   -1    0    0    0    0  0.00000000000E+00  0.00000000000E+00  0.45593999997E+02  0.45594000000E+02  0.51100000000E-03 0. -1.
         11   -1    0    0    0    0 -0.00000000000E+00 -0.00000000000E+00 -0.45593999997E+02  0.45594000000E+02  0.51100000000E-03 0.  1.
    9900012    2    1    2    0    0  0.17830934467E+02  0.36494836061E+02  0.18303428890E+01  0.50528862796E+02  0.30000008955E+02 0.  0.
        -12    1    1    2    0    0 -0.17830934467E+02 -0.36494836061E+02 -0.18303428890E+01  0.40659137204E+02  0.00000000000E+00 0.  1.
         11    1    3    3    0    0  0.15408387238E+02  0.15688910076E+02  0.61310605915E+01  0.22828714394E+02  0.51100000000E-03 0. -1.
        -11    1    3    3    0    0  0.56749684892E+01  0.26122894386E+00 -0.39089747928E+01  0.68959112600E+01  0.51100000000E-03 0.  1.
        -12    1    3    3    0    0 -0.32524212603E+01  0.20544697041E+02 -0.39174290974E+00  0.20804237142E+02  0.00000000000E+00 0.  1.
</event>
<event>
 7    1  0.5839176E-013  0.5052885E+02  0.7816164E-02  0.1300439E+00
        -11   -1    0    0    0    0  0.00000000000E+00  0.00000000000E+00  0.45593999997E+02  0.45594000000E+02  0.51100000000E-03 0.  1.
         11   -1    0    0    0    0 -0.00000000000E+00 -0.00000000000E+00 -0.45593999997E+02  0.45594000000E+02  0.51100000000E-03 0. -1.
    9900012    2    1    2    0    0 -0.25762305242E+02  0.99111006244E+01 -0.29853646643E+02  0.50528849679E+02  0.29999969084E+02 0.  0.
        -12    1    1    2    0    0  0.25762305242E+02 -0.99111006244E+01  0.29853646643E+02  0.40659150321E+02  0.00000000000E+00 0.  1.
         11    1    3    3    0    0 -0.19523309039E+02 -0.86304737490E+00 -0.56951029910E+01  0.20355309994E+02  0.51100000000E-03 0. -1.
        -11    1    3    3    0    0 -0.87724560594E+01  0.34308743097E+01 -0.84717756915E+01  0.12668775295E+02  0.51100000000E-03 0.  1.
        -12    1    3    3    0    0  0.25334598564E+01  0.73432736896E+01 -0.15686767960E+02  0.17504764390E+02  0.00000000000E+00 0.  1.
</event>
<event>
 7    1  0.5839176E-013  0.5052887E+02  0.7816164E-02  0.1300439E+00
        -11   -1    0    0    0    0  0.00000000000E+00  0.00000000000E+00  0.45593999997E+02  0.45594000000E+02  0.51100000000E-03 0. -1.
         11   -1    0    0    0    0 -0.00000000000E+00 -0.00000000000E+00 -0.45593999997E+02  0.45594000000E+02  0.51100000000E-03 0.  1.
    9900012    2    1    2    0    0  0.56196185860E+01 -0.28995069043E+02  0.27944066595E+02  0.50528868188E+02  0.30000025343E+02 0.  0.
        -12    1    1    2    0    0 -0.56196185860E+01  0.28995069043E+02 -0.27944066595E+02  0.40659131812E+02  0.00000000000E+00 0.  1.
         11    1    3    3    0    0 -0.46733646137E+01 -0.19138011923E+02  0.25984424455E+01  0.19870977343E+02  0.51100000000E-03 0.  1.
        -11    1    3    3    0    0  0.97160334809E+01 -0.62243371232E+01  0.11343913945E+02  0.16181102036E+02  0.51100000000E-03 0. -1.
        -12    1    3    3    0    0  0.57694971878E+00 -0.36327199966E+01  0.14001710205E+02  0.14476788809E+02  0.00000000000E+00 0.  1.
</event>
<event>
 7    1  0.5839176E-013  0.5052885E+02  0.7816164E-02  0.1300439E+00
        -11   -1    0    0    0    0  0.00000000000E+00  0.00000000000E+00  0.45593999997E+02  0.45594000000E+02  0.51100000000E-03 0.  1.
         11   -1    0    0    0    0 -0.00000000000E+00 -0.00000000000E+00 -0.45593999997E+02  0.45594000000E+02  0.51100000000E-03 0. -1.
    9900012    2    1    2    0    0 -0.40729710853E+01 -0.16369419391E+02 -0.36994852334E+02  0.50528854856E+02  0.29999984820E+02 0.  0.
        -12    1    1    2    0    0  0.40729710853E+01  0.16369419391E+02  0.36994852334E+02  0.40659145144E+02  0.00000000000E+00 0.  1.
         11    1    3    3    0    0  0.43514975518E+01 -0.93952751204E+01 -0.42269139796E+00  0.10362692402E+02  0.51100000000E-03 0. -1.
        -11    1    3    3    0    0 -0.10078953279E+02 -0.66531301402E+01 -0.18999673749E+02  0.22513041614E+02  0.51100000000E-03 0.  1.
        -12    1    3    3    0    0  0.16544846415E+01 -0.32101413057E+00 -0.17572487186E+02  0.17653120841E+02  0.00000000000E+00 0.  1.
</event>
<event>
 7    1  0.5839176E-013  0.5052890E+02  0.7816164E-02  0.1300439E+00
        -11   -1    0    0    0    0  0.00000000000E+00  0.00000000000E+00  0.45593999997E+02  0.45594000000E+02  0.51100000000E-03 0. -1.
         11   -1    0    0    0    0 -0.00000000000E+00 -0.00000000000E+00 -0.45593999997E+02  0.45594000000E+02  0.51100000000E-03 0.  1.
    9900012    2    1    2    0    0 -0.10794277281E+02  0.23035267603E+02  0.31717860061E+02  0.50528897422E+02  0.30000114204E+02 0.  0.
        -12    1    1    2    0    0  0.10794277281E+02 -0.23035267603E+02 -0.31717860061E+02  0.40659102578E+02  0.00000000000E+00 0.  1.
         11    1    3    3    0    0  0.15943284405E+01 -0.19486140464E+01  0.33164640781E+01  0.41638820974E+01  0.51100000000E-03 0. -1.
        -11    1    3    3    0    0 -0.11963693060E+02  0.50466054737E+01  0.17847630248E+01  0.13106622668E+02  0.51100000000E-03 0.  1.
        -12    1    3    3    0    0 -0.42491266123E+00  0.19937276176E+02  0.26616632959E+02  0.33258392657E+02  0.00000000000E+00 0.  1.
</event>
<event>
 7    1  0.5839176E-013  0.5052886E+02  0.7816164E-02  0.1300439E+00
        -11   -1    0    0    0    0  0.00000000000E+00  0.00000000000E+00  0.45593999997E+02  0.45594000000E+02  0.51100000000E-03 0.  1.
         11   -1    0    0    0    0 -0.00000000000E+00 -0.00000000000E+00 -0.45593999997E+02  0.45594000000E+02  0.51100000000E-03 0. -1.
    9900012    2    1    2    0    0 -0.10589758628E+02  0.38908063044E+02 -0.52139660932E+01  0.50528858345E+02  0.29999995427E+02 0.  0.
        -12    1    1    2    0    0  0.10589758628E+02 -0.38908063044E+02  0.52139660932E+01  0.40659141655E+02  0.00000000000E+00 0.  1.
         11    1    3    3    0    0 -0.10159434486E+02  0.21342977937E+02 -0.22135581814E+01  0.23741033178E+02  0.51100000000E-03 0. -1.
        -11    1    3    3    0    0 -0.99927194836E+01  0.81157638611E+01 -0.34813912289E+01  0.13335672119E+02  0.51100000000E-03 0.  1.
         12    1    3    3    0    0  0.95623953409E+01  0.94493212460E+01  0.48098331707E+00  0.13452153048E+02  0.00000000000E+00 0. -1.
</event>
<event>
 7    1  0.5839176E-013  0.5052886E+02  0.7816164E-02  0.1300439E+00
        -11   -1    0    0    0    0  0.00000000000E+00  0.00000000000E+00  0.45593999997E+02  0.45594000000E+02  0.51100000000E-03 0. -1.
         11   -1    0    0    0    0 -0.00000000000E+00 -0.00000000000E+00 -0.45593999997E+02  0.45594000000E+02  0.51100000000E-03 0.  1.
    9900012    2    1    2    0    0  0.13459214867E+01  0.40269468007E+02  0.54519966393E+01  0.50528858032E+02  0.29999994475E+02 0.  0.
        -12    1    1    2    0    0 -0.13459214867E+01 -0.40269468007E+02 -0.54519966393E+01  0.40659141968E+02  0.00000000000E+00 0.  1.
         11    1    3    3    0    0 -0.71793413877E+01  0.68675185949E+01  0.46146803948E+01  0.10954498155E+02  0.51100000000E-03 0. -1.
        -11    1    3    3    0    0 -0.52591589905E+01  0.18631607722E+02  0.63497868184E+00  0.19370047955E+02  0.51100000000E-03 0.  1.
        -12    1    3    3    0    0  0.13784421865E+02  0.14770341690E+02  0.20233756264E+00  0.20204311923E+02  0.00000000000E+00 0.  1.
</event>
<event>
 7    1  0.5839176E-013  0.5052885E+02  0.7816164E-02  0.1300439E+00
        -11   -1    0    0    0    0  0.00000000000E+00  0.00000000000E+00  0.45593999997E+02  0.45594000000E+02  0.51100000000E-03 0.  1.
         11   -1    0    0    0    0 -0.00000000000E+00 -0.00000000000E+00 -0.45593999997E+02  0.45594000000E+02  0.51100000000E-03 0. -1.
    9900012    2    1    2    0    0 -0.25945087328E+02  0.14546328668E+02 -0.27720445448E+02  0.50528851829E+02  0.29999975618E+02 0.  0.
        -12    1    1    2    0    0  0.25945087328E+02 -0.14546328668E+02  0.27720445448E+02  0.40659148171E+02  0.00000000000E+00 0.  1.
         11    1    3    3    0    0 -0.46110094856E+01 -0.19239333235E+01 -0.81312461258E+01  0.95435890382E+01  0.51100000000E-03 0. -1.
        -11    1    3    3    0    0  0.59469191277E+00 -0.43706785014E+01 -0.68777656501E+01  0.81706884430E+01  0.51100000000E-03 0.  1.
         12    1    3    3    0    0 -0.21928769755E+02  0.20840940493E+02 -0.12711433672E+02  0.32814574348E+02  0.00000000000E+00 0. -1.
</event>
<event>
 7    1  0.5839176E-013  0.5052885E+02  0.7816164E-02  0.1300439E+00
        -11   -1    0    0    0    0  0.00000000000E+00  0.00000000000E+00  0.45593999997E+02  0.45594000000E+02  0.51100000000E-03 0.  1.
         11   -1    0    0    0    0 -0.00000000000E+00 -0.00000000000E+00 -0.45593999997E+02  0.45594000000E+02  0.51100000000E-03 0. -1.
    9900012    2    1    2    0    0  0.19459851155E+02 -0.30439623948E+02 -0.18652336008E+02  0.50528854022E+02  0.29999982286E+02 0.  0.
        -12    1    1    2    0    0 -0.19459851155E+02  0.30439623948E+02  0.18652336008E+02  0.40659145978E+02  0.00000000000E+00 0.  1.
         11    1    3    3    0    0  0.94266289677E+01 -0.72535404507E+01 -0.37539808265E+01  0.12472672331E+02  0.51100000000E-03 0. -1.
        -11    1    3    3    0    0  0.16605751511E+02 -0.80714906745E+01 -0.66397800862E+01  0.19621076036E+02  0.51100000000E-03 0.  1.
         12    1    3    3    0    0 -0.65725293239E+01 -0.15114592823E+02 -0.82585750949E+01  0.18435105655E+02  0.00000000000E+00 0. -1.
</event>
<event>
 7    1  0.5839176E-013  0.5052887E+02  0.7816164E-02  0.1300439E+00
        -11   -1    0    0    0    0  0.00000000000E+00  0.00000000000E+00  0.45593999997E+02  0.45594000000E+02  0.51100000000E-03 0. -1.
         11   -1    0    0    0    0 -0.00000000000E+00 -0.00000000000E+00 -0.45593999997E+02  0.45594000000E+02  0.51100000000E-03 0.  1.
    9900012    2    1    2    0    0  0.36357891535E+02 -0.16330821605E+02  0.80357229938E+01  0.50528869965E+02  0.30000030746E+02 0.  0.
        -12    1    1    2    0    0 -0.36357891535E+02  0.16330821605E+02 -0.80357229938E+01  0.40659130035E+02  0.00000000000E+00 0.  1.
         11    1    3    3    0    0  0.10125443471E+02 -0.34316217907E+01  0.73846582544E+01  0.12993606558E+02  0.51100000000E-03 0.  1.
        -11    1    3    3    0    0  0.17352995523E+02 -0.38163184042E+01  0.11217768306E+02  0.21012593029E+02  0.51100000000E-03 0. -1.
        -12    1    3    3    0    0  0.88794525414E+01 -0.90828814104E+01 -0.10566703567E+02  0.16522670378E+02  0.00000000000E+00 0.  1.
</event>
<event>
 7    1  0.5839176E-013  0.5052887E+02  0.7816164E-02  0.1300439E+00
        -11   -1    0    0    0    0  0.00000000000E+00  0.00000000000E+00  0.45593999997E+02  0.45594000000E+02  0.51100000000E-03 0.  1.
         11   -1    0    0    0    0 -0.00000000000E+00 -0.00000000000E+00 -0.45593999997E+02  0.45594000000E+02  0.51100000000E-03 0. -1.
    9900012    2    1    2    0    0 -0.18083754857E+02 -0.15392777988E+02 -0.33003112793E+02  0.50528865013E+02  0.30000015693E+02 0.  0.
        -12    1    1    2    0    0  0.18083754857E+02  0.15392777988E+02  0.33003112793E+02  0.40659134987E+02  0.00000000000E+00 0.  1.
         11    1    3    3    0    0 -0.98373948676E+01 -0.62562328343E+01 -0.19894992376E+02  0.23059174074E+02  0.51100000000E-03 0. -1.
        -11    1    3    3    0    0  0.35216380604E+01 -0.72490626321E+01 -0.13298288641E+02  0.15549769281E+02  0.51100000000E-03 0.  1.
        -12    1    3    3    0    0 -0.11767998050E+02 -0.18874825215E+01  0.19016822459E+00  0.11919921657E+02  0.00000000000E+00 0.  1.
</event>
<event>
 7    1  0.5839176E-013  0.5052887E+02  0.7816164E-02  0.1300439E+00
        -11   -1    0    0    0    0  0.00000000000E+00  0.00000000000E+00  0.45593999997E+02  0.45594000000E+02  0.51100000000E-03 0.  1.
         11   -1    0    0    0    0 -0.00000000000E+00 -0.00000000000E+00 -0.45593999997E+02  0.45594000000E+02  0.51100000000E-03 0. -1.
    9900012    2    1    2    0    0  0.25443430687E+02  0.24906788516E+02 -0.19632848460E+02  0.50528867963E+02  0.30000024661E+02 0.  0.
        -12    1    1    2    0    0 -0.25443430687E+02 -0.24906788516E+02  0.19632848460E+02  0.40659132037E+02  0.00000000000E+00 0.  1.
         11    1    3    3    0    0  0.17566837341E+02  0.18788063683E+02 -0.18452849290E+02  0.31655848722E+02  0.51100000000E-03 0. -1.
        -11    1    3    3    0    0  0.86349827261E+01  0.10767324286E+02  0.65620166966E+00  0.13817698790E+02  0.51100000000E-03 0.  1.
        -12    1    3    3    0    0 -0.75838938010E+00 -0.46485994538E+01 -0.18362008403E+01  0.50553204507E+01  0.00000000000E+00 0.  1.
</event>
<event>
 7    1  0.5839176E-013  0.5052885E+02  0.7816164E-02  0.1300439E+00
        -11   -1    0    0    0    0  0.00000000000E+00  0.00000000000E+00  0.45593999997E+02  0.45594000000E+02  0.51100000000E-03 0. -1.
         11   -1    0    0    0    0 -0.00000000000E+00 -0.00000000000E+00 -0.45593999997E+02  0.45594000000E+02  0.51100000000E-03 0.  1.
    9900012    2    1    2    0    0  0.24437974948E+02  0.26126571520E+02 -0.19322380924E+02  0.50528846498E+02  0.29999959416E+02 0.  0.
        -12    1    1    2    0    0 -0.24437974948E+02 -0.26126571520E+02  0.19322380924E+02  0.40659153502E+02  0.00000000000E+00 0.  1.
         11    1    3    3    0    0  0.57694133424E+00  0.32340997669E+01  0.90382934652E+00  0.34072232615E+01  0.51100000000E-03 0. -1.
        -11    1    3    3    0    0  0.80356988117E+01  0.24682027488E+02 -0.83923361077E+01  0.27280143730E+02  0.51100000000E-03 0.  1.
        -12    1    3    3    0    0  0.15825334802E+02 -0.17895557354E+01 -0.11833874163E+02  0.19841479507E+02  0.00000000000E+00 0.  1.
</event>
<event>
 7    1  0.5839176E-013  0.5052885E+02  0.7816164E-02  0.1300439E+00
        -11   -1    0    0    0    0  0.00000000000E+00  0.00000000000E+00  0.45593999997E+02  0.45594000000E+02  0.51100000000E-03 0.  1.
         11   -1    0    0    0    0 -0.00000000000E+00 -0.00000000000E+00 -0.45593999997E+02  0.45594000000E+02  0.51100000000E-03 0. -1.
    9900012    2    1    2    0    0 -0.20247714588E+02 -0.22443297256E+02 -0.27193661425E+02  0.50528846547E+02  0.29999959566E+02 0.  0.
        -12    1    1    2    0    0  0.20247714588E+02  0.22443297256E+02  0.27193661425E+02  0.40659153453E+02  0.00000000000E+00 0.  1.
         11    1    3    3    0    0 -0.11223903014E+02 -0.20163985838E+02 -0.13839364369E+02  0.26908926588E+02  0.51100000000E-03 0. -1.
        -11    1    3    3    0    0  0.44970794176E+01 -0.36003832158E+01 -0.27369356547E+01  0.63778757928E+01  0.51100000000E-03 0.  1.
        -12    1    3    3    0    0 -0.13520890992E+02  0.13210717973E+01 -0.10617361402E+02  0.17242044167E+02  0.00000000000E+00 0.  1.
</event>
<event>
 7    1  0.5839176E-013  0.5052887E+02  0.7816164E-02  0.1300439E+00
        -11   -1    0    0    0    0  0.00000000000E+00  0.00000000000E+00  0.45593999997E+02  0.45594000000E+02  0.51100000000E-03 0.  1.
         11   -1    0    0    0    0 -0.00000000000E+00 -0.00000000000E+00 -0.45593999997E+02  0.45594000000E+02  0.51100000000E-03 0. -1.
    9900012    2    1    2    0    0  0.11885021153E+02  0.36762281674E+02 -0.12666716848E+02  0.50528870676E+02  0.30000032907E+02 0.  0.
        -12    1    1    2    0    0 -0.11885021153E+02 -0.36762281674E+02  0.12666716848E+02  0.40659129324E+02  0.00000000000E+00 0.  1.
         11    1    3    3    0    0 -0.34103100444E+01  0.22012750032E+01 -0.97751668867E+01  0.10584409013E+02  0.51100000000E-03 0. -1.
        -11    1    3    3    0    0  0.55450745691E+01  0.23936118598E+01  0.94674524835E+00  0.61133915741E+01  0.51100000000E-03 0.  1.
         12    1    3    3    0    0  0.97502566285E+01  0.32167394811E+02 -0.38382952099E+01  0.33831070089E+02  0.00000000000E+00 0. -1.
</event>
<event>
 7    1  0.5839176E-013  0.5052884E+02  0.7816164E-02  0.1300439E+00
        -11   -1    0    0    0    0  0.00000000000E+00  0.00000000000E+00  0.45593999997E+02  0.45594000000E+02  0.51100000000E-03 0.  1.
         11   -1    0    0    0    0 -0.00000000000E+00 -0.00000000000E+00 -0.45593999997E+02  0.45594000000E+02  0.51100000000E-03 0. -1.
    9900012    2    1    2    0    0  0.17393757899E+02 -0.36496951172E+02 -0.43124705981E+01  0.50528835456E+02  0.29999925853E+02 0.  0.
        -12    1    1    2    0    0 -0.17393757899E+02  0.36496951172E+02  0.43124705981E+01  0.40659164544E+02  0.00000000000E+00 0.  1.
         11    1    3    3    0    0  0.22577822984E+02 -0.18778451354E+02 -0.44709344345E+01  0.29704841035E+02  0.51100000000E-03 0. -1.
        -11    1    3    3    0    0 -0.18384981947E+01 -0.56467379137E+01 -0.45085714689E+01  0.74560674373E+01  0.51100000000E-03 0.  1.
        -12    1    3    3    0    0 -0.33455668901E+01 -0.12071761905E+02  0.46670353054E+01  0.13367926984E+02  0.00000000000E+00 0.  1.
</event>
<event>
 7    1  0.5839176E-013  0.5052886E+02  0.7816164E-02  0.1300439E+00
        -11   -1    0    0    0    0  0.00000000000E+00  0.00000000000E+00  0.45593999997E+02  0.45594000000E+02  0.51100000000E-03 0.  1.
         11   -1    0    0    0    0 -0.00000000000E+00 -0.00000000000E+00 -0.45593999997E+02  0.45594000000E+02  0.51100000000E-03 0. -1.
    9900012    2    1    2    0    0  0.29352795129E+01 -0.38868174932E+02 -0.11567830577E+02  0.50528860897E+02  0.30000003182E+02 0.  0.
        -12    1    1    2    0    0 -0.29352795129E+01  0.38868174932E+02  0.11567830577E+02  0.40659139103E+02  0.00000000000E+00 0.  1.
         11    1    3    3    0    0  0.74191463738E+01 -0.10163739712E+02 -0.84436985001E+01  0.15153923006E+02  0.51100000000E-03 0. -1.
        -11    1    3    3    0    0  0.12690058181E+01  0.27832431749E+01  0.70131818563E+00  0.31382584017E+01  0.51100000000E-03 0.  1.
        -12    1    3    3    0    0 -0.57528726789E+01 -0.31487678395E+02 -0.38254502622E+01  0.32236679489E+02  0.00000000000E+00 0.  1.
</event>
<event>
 7    1  0.5839176E-013  0.5052885E+02  0.7816164E-02  0.1300439E+00
        -11   -1    0    0    0    0  0.00000000000E+00  0.00000000000E+00  0.45593999997E+02  0.45594000000E+02  0.51100000000E-03 0. -1.
         11   -1    0    0    0    0 -0.00000000000E+00 -0.00000000000E+00 -0.45593999997E+02  0.45594000000E+02  0.51100000000E-03 0.  1.
    9900012    2    1    2    0    0  0.29464885372E+02 -0.27291027447E+02  0.63393279441E+01  0.50528846936E+02  0.29999960746E+02 0.  0.
        -12    1    1    2    0    0 -0.29464885372E+02  0.27291027447E+02 -0.63393279441E+01  0.40659153064E+02  0.00000000000E+00 0.  1.
         11    1    3    3    0    0  0.22215395628E+02 -0.24407394812E+02  0.74339216551E+01  0.33830576641E+02  0.51100000000E-03 0. -1.
        -11    1    3    3    0    0  0.96814143857E+01 -0.63063380344E+01  0.16654640753E+01  0.11673622178E+02  0.51100000000E-03 0.  1.
        -12    1    3    3    0    0 -0.24319246417E+01  0.34227053992E+01 -0.27600577863E+01  0.50246481166E+01  0.00000000000E+00 0.  1.
</event>
<event>
 7    1  0.5839176E-013  0.5052885E+02  0.7816164E-02  0.1300439E+00
        -11   -1    0    0    0    0  0.00000000000E+00  0.00000000000E+00  0.45593999997E+02  0.45594000000E+02  0.51100000000E-03 0. -1.
         11   -1    0    0    0    0 -0.00000000000E+00 -0.00000000000E+00 -0.45593999997E+02  0.45594000000E+02  0.51100000000E-03 0.  1.
    9900012    2    1    2    0    0 -0.15499840507E+02 -0.18886604222E+02  0.32499496672E+02  0.50528853935E+02  0.29999982021E+02 0.  0.
        -12    1    1    2    0    0  0.15499840507E+02  0.18886604222E+02 -0.32499496672E+02  0.40659146065E+02  0.00000000000E+00 0.  1.
         11    1    3    3    0    0  0.17960089877E+01 -0.18822907039E+01  0.26605614131E+01  0.37211898462E+01  0.51100000000E-03 0. -1.
        -11    1    3    3    0    0  0.10335714937E+01  0.24679362079E+01  0.16880775276E+02  0.17091505297E+02  0.51100000000E-03 0.  1.
         12    1    3    3    0    0 -0.18329420988E+02 -0.19472249726E+02  0.12958159984E+02  0.29716158791E+02  0.00000000000E+00 0. -1.
</event>
<event>
 7    1  0.5839176E-013  0.5052887E+02  0.7816164E-02  0.1300439E+00
        -11   -1    0    0    0    0  0.00000000000E+00  0.00000000000E+00  0.45593999997E+02  0.45594000000E+02  0.51100000000E-03 0.  1.
         11   -1    0    0    0    0 -0.00000000000E+00 -0.00000000000E+00 -0.45593999997E+02  0.45594000000E+02  0.51100000000E-03 0. -1.
    9900012    2    1    2    0    0  0.22242989495E+01  0.24839504259E+02 -0.32112563794E+02  0.50528865343E+02  0.30000016696E+02 0.  0.
        -12    1    1    2    0    0 -0.22242989495E+01 -0.24839504259E+02  0.32112563794E+02  0.40659134657E+02  0.00000000000E+00 0.  1.
         11    1    3    3    0    0 -0.73260162316E+01  0.10285344719E+02 -0.19561082767E+02  0.23282929135E+02  0.51100000000E-03 0. -1.
        -11    1    3    3    0    0 -0.29798136081E+01  0.61296744787E+01  0.10841137477E+01  0.69012680888E+01  0.51100000000E-03 0.  1.
         12    1    3    3    0    0  0.12530128789E+02  0.84244850620E+01 -0.13635594775E+02  0.20344668119E+02  0.00000000000E+00 0. -1.
</event>
<event>
 7    1  0.5839176E-013  0.5052886E+02  0.7816164E-02  0.1300439E+00
        -11   -1    0    0    0    0  0.00000000000E+00  0.00000000000E+00  0.45593999997E+02  0.45594000000E+02  0.51100000000E-03 0. -1.
         11   -1    0    0    0    0 -0.00000000000E+00 -0.00000000000E+00 -0.45593999997E+02  0.45594000000E+02  0.51100000000E-03 0.  1.
    9900012    2    1    2    0    0  0.69976744541E+01 -0.27573000842E+02  0.29050435344E+02  0.50528860599E+02  0.30000002276E+02 0.  0.
        -12    1    1    2    0    0 -0.69976744541E+01  0.27573000842E+02 -0.29050435344E+02  0.40659139401E+02  0.00000000000E+00 0.  1.
         11    1    3    3    0    0  0.43750443746E+01 -0.16083995870E+02  0.10750946515E+02  0.19834787310E+02  0.51100000000E-03 0. -1.
        -11    1    3    3    0    0 -0.61530568187E+01 -0.14149764688E+02  0.10596987924E+02  0.18718229143E+02  0.51100000000E-03 0.  1.
        -12    1    3    3    0    0  0.87756868981E+01  0.26607597159E+01  0.77025009051E+01  0.11975844145E+02  0.00000000000E+00 0.  1.
</event>
<event>
 7    1  0.5839176E-013  0.5052885E+02  0.7816164E-02  0.1300439E+00
        -11   -1    0    0    0    0  0.00000000000E+00  0.00000000000E+00  0.45593999997E+02  0.45594000000E+02  0.51100000000E-03 0. -1.
         11   -1    0    0    0    0 -0.00000000000E+00 -0.00000000000E+00 -0.45593999997E+02  0.45594000000E+02  0.51100000000E-03 0.  1.
    9900012    2    1    2    0    0  0.24321865507E+02  0.19511430210E+00  0.32581818494E+02  0.50528854563E+02  0.29999983929E+02 0.  0.
        -12    1    1    2    0    0 -0.24321865507E+02 -0.19511430210E+00 -0.32581818494E+02  0.40659145437E+02  0.00000000000E+00 0.  1.
         11    1    3    3    0    0  0.88327629671E+01  0.80575303602E+01  0.28100212747E+02  0.30537901922E+02  0.51100000000E-03 0. -1.
        -11    1    3    3    0    0  0.85183860727E+01 -0.37983565234E+01  0.68609231835E+01  0.11578543982E+02  0.51100000000E-03 0.  1.
        -12    1    3    3    0    0  0.69707164672E+01 -0.40640595348E+01 -0.23793174367E+01  0.84124086582E+01  0.00000000000E+00 0.  1.
</event>
<event>
 7    1  0.5839176E-013  0.5052888E+02  0.7816164E-02  0.1300439E+00
        -11   -1    0    0    0    0  0.00000000000E+00  0.00000000000E+00  0.45593999997E+02  0.45594000000E+02  0.51100000000E-03 0. -1.
         11   -1    0    0    0    0 -0.00000000000E+00 -0.00000000000E+00 -0.45593999997E+02  0.45594000000E+02  0.51100000000E-03 0.  1.
    9900012    2    1    2    0    0  0.21814291286E+02 -0.32530379437E+02 -0.10912174558E+02  0.50528875019E+02  0.30000046109E+02 0.  0.
        -12    1    1    2    0    0 -0.21814291286E+02  0.32530379437E+02  0.10912174558E+02  0.40659124981E+02  0.00000000000E+00 0.  1.
         11    1    3    3    0    0  0.52107474252E+01 -0.10405479574E+00 -0.22821134599E+00  0.52167803106E+01  0.51100000000E-03 0. -1.
        -11    1    3    3    0    0  0.11053711379E+02 -0.49452533691E+01  0.50986488378E+01  0.13139112846E+02  0.51100000000E-03 0.  1.
        -12    1    3    3    0    0  0.55498324813E+01 -0.27481071272E+02 -0.15782612050E+02  0.32172981863E+02  0.00000000000E+00 0.  1.
</event>
<event>
 7    1  0.5839176E-013  0.5052885E+02  0.7816164E-02  0.1300439E+00
        -11   -1    0    0    0    0  0.00000000000E+00  0.00000000000E+00  0.45593999997E+02  0.45594000000E+02  0.51100000000E-03 0.  1.
         11   -1    0    0    0    0 -0.00000000000E+00 -0.00000000000E+00 -0.45593999997E+02  0.45594000000E+02  0.51100000000E-03 0. -1.
    9900012    2    1    2    0    0  0.19769397333E+02 -0.23640460836E+02 -0.26522928653E+02  0.50528853381E+02  0.29999980336E+02 0.  0.
        -12    1    1    2    0    0 -0.19769397333E+02  0.23640460836E+02  0.26522928653E+02  0.40659146619E+02  0.00000000000E+00 0.  1.
         11    1    3    3    0    0  0.22224687465E+02 -0.82359920328E+01 -0.83865784603E+01  0.25141658581E+02  0.51100000000E-03 0.  1.
        -11    1    3    3    0    0  0.23044723060E+01 -0.12244538939E+01 -0.41921549805E+01  0.49380202094E+01  0.51100000000E-03 0. -1.
        -12    1    3    3    0    0 -0.47597624381E+01 -0.14180014910E+02 -0.13944195212E+02  0.20449174590E+02  0.00000000000E+00 0.  1.
</event>
<event>
 7    1  0.5839176E-013  0.5052886E+02  0.7816164E-02  0.1300439E+00
        -11   -1    0    0    0    0  0.00000000000E+00  0.00000000000E+00  0.45593999997E+02  0.45594000000E+02  0.51100000000E-03 0.  1.
         11   -1    0    0    0    0 -0.00000000000E+00 -0.00000000000E+00 -0.45593999997E+02  0.45594000000E+02  0.51100000000E-03 0. -1.
    9900012    2    1    2    0    0  0.28991114354E+02  0.17993930956E+02  0.22111065022E+02  0.50528862538E+02  0.30000008172E+02 0.  0.
        -12    1    1    2    0    0 -0.28991114354E+02 -0.17993930956E+02 -0.22111065022E+02  0.40659137462E+02  0.00000000000E+00 0.  1.
         11    1    3    3    0    0  0.13263332982E+02  0.16041897372E+02  0.83275629970E+01  0.22418893345E+02  0.51100000000E-03 0. -1.
        -11    1    3    3    0    0  0.11097827519E+02 -0.73159369200E+00 -0.21271026344E+01  0.11323496406E+02  0.51100000000E-03 0.  1.
        -12    1    3    3    0    0  0.46299538524E+01  0.26836272761E+01  0.15910604659E+02  0.16786472788E+02  0.00000000000E+00 0.  1.
</event>
<event>
 7    1  0.5839176E-013  0.5052886E+02  0.7816164E-02  0.1300439E+00
        -11   -1    0    0    0    0  0.00000000000E+00  0.00000000000E+00  0.45593999997E+02  0.45594000000E+02  0.51100000000E-03 0. -1.
         11   -1    0    0    0    0 -0.00000000000E+00 -0.00000000000E+00 -0.45593999997E+02  0.45594000000E+02  0.51100000000E-03 0.  1.
    9900012    2    1    2    0    0  0.88184660095E+01  0.27312621197E+02  0.28799669175E+02  0.50528861249E+02  0.30000004252E+02 0.  0.
        -12    1    1    2    0    0 -0.88184660095E+01 -0.27312621197E+02 -0.28799669175E+02  0.40659138751E+02  0.00000000000E+00 0.  1.
         11    1    3    3    0    0 -0.90453670967E+01  0.11224200631E+02  0.80115383077E+01  0.16492000850E+02  0.51100000000E-03 0. -1.
        -11    1    3    3    0    0  0.43925489024E+00  0.10981022184E+01 -0.15736748862E+01  0.19685594350E+01  0.51100000000E-03 0.  1.
         12    1    3    3    0    0  0.17424578216E+02  0.14990318348E+02  0.22361805753E+02  0.32068300964E+02  0.00000000000E+00 0. -1.
</event>
<event>
 7    1  0.5839176E-013  0.5052886E+02  0.7816164E-02  0.1300439E+00
        -11   -1    0    0    0    0  0.00000000000E+00  0.00000000000E+00  0.45593999997E+02  0.45594000000E+02  0.51100000000E-03 0. -1.
         11   -1    0    0    0    0 -0.00000000000E+00 -0.00000000000E+00 -0.45593999997E+02  0.45594000000E+02  0.51100000000E-03 0.  1.
    9900012    2    1    2    0    0  0.25746805305E+02 -0.47018627244E+01  0.31115271033E+02  0.50528860954E+02  0.30000003356E+02 0.  0.
        -12    1    1    2    0    0 -0.25746805305E+02  0.47018627244E+01 -0.31115271033E+02  0.40659139046E+02  0.00000000000E+00 0.  1.
         11    1    3    3    0    0  0.15129716627E+02 -0.11620735271E+02  0.96778216339E+01  0.21391821926E+02  0.51100000000E-03 0. -1.
        -11    1    3    3    0    0 -0.88295720141E+00 -0.33886973796E+01  0.12463677767E+01  0.37170305684E+01  0.51100000000E-03 0.  1.
         12    1    3    3    0    0  0.11500045879E+02  0.10307569926E+02  0.20191081623E+02  0.25420008460E+02  0.00000000000E+00 0. -1.
</event>
<event>
 7    1  0.5839176E-013  0.5052892E+02  0.7816164E-02  0.1300439E+00
        -11   -1    0    0    0    0  0.00000000000E+00  0.00000000000E+00  0.45593999997E+02  0.45594000000E+02  0.51100000000E-03 0.  1.
         11   -1    0    0    0    0 -0.00000000000E+00 -0.00000000000E+00 -0.45593999997E+02  0.45594000000E+02  0.51100000000E-03 0. -1.
    9900012    2    1    2    0    0  0.17115591620E+02  0.29921110908E+02 -0.21562566308E+02  0.50528922043E+02  0.30000189042E+02 0.  0.
        -12    1    1    2    0    0 -0.17115591620E+02 -0.29921110908E+02  0.21562566308E+02  0.40659077957E+02  0.00000000000E+00 0.  1.
         11    1    3    3    0    0  0.78706627677E+01  0.22961778311E+02 -0.20516515345E+02  0.31782353560E+02  0.51100000000E-03 0. -1.
        -11    1    3    3    0    0  0.11831190751E+02  0.92777173845E+01 -0.19410240121E+01  0.15159838024E+02  0.51100000000E-03 0.  1.
        -12    1    3    3    0    0 -0.25862618980E+01 -0.23183847874E+01  0.89497304988E+00  0.35867304593E+01  0.00000000000E+00 0.  1.
</event>
<event>
 7    1  0.5839176E-013  0.5052894E+02  0.7816164E-02  0.1300439E+00
        -11   -1    0    0    0    0  0.00000000000E+00  0.00000000000E+00  0.45593999997E+02  0.45594000000E+02  0.51100000000E-03 0. -1.
         11   -1    0    0    0    0 -0.00000000000E+00 -0.00000000000E+00 -0.45593999997E+02  0.45594000000E+02  0.51100000000E-03 0.  1.
    9900012    2    1    2    0    0  0.22927464422E+01  0.38656397894E+02  0.12392956033E+02  0.50528940202E+02  0.30000244237E+02 0.  0.
        -12    1    1    2    0    0 -0.22927464422E+01 -0.38656397894E+02 -0.12392956033E+02  0.40659059798E+02  0.00000000000E+00 0.  1.
         11    1    3    3    0    0  0.11580715456E+01  0.11015146412E+02  0.30321714658E+01  0.11483407344E+02  0.51100000000E-03 0. -1.
        -11    1    3    3    0    0 -0.94412704719E+00  0.21205187663E+02 -0.61709945433E+01  0.22105034124E+02  0.51100000000E-03 0.  1.
        -12    1    3    3    0    0  0.20788019437E+01  0.64360638200E+01  0.15531779111E+02  0.16940498734E+02  0.00000000000E+00 0.  1.
</event>
<event>
 7    1  0.5839176E-013  0.5052886E+02  0.7816164E-02  0.1300439E+00
        -11   -1    0    0    0    0  0.00000000000E+00  0.00000000000E+00  0.45593999997E+02  0.45594000000E+02  0.51100000000E-03 0. -1.
         11   -1    0    0    0    0 -0.00000000000E+00 -0.00000000000E+00 -0.45593999997E+02  0.45594000000E+02  0.51100000000E-03 0.  1.
    9900012    2    1    2    0    0  0.17719933001E+02 -0.13973584184E+02  0.33821718947E+02  0.50528858924E+02  0.29999997186E+02 0.  0.
        -12    1    1    2    0    0 -0.17719933001E+02  0.13973584184E+02 -0.33821718947E+02  0.40659141076E+02  0.00000000000E+00 0.  1.
         11    1    3    3    0    0  0.22736483626E-01 -0.42310263502E+01  0.16280280990E+02  0.16821107285E+02  0.51100000000E-03 0. -1.
        -11    1    3    3    0    0  0.98906780036E+00  0.43512744534E+01  0.93581309444E+01  0.10367567676E+02  0.51100000000E-03 0.  1.
         12    1    3    3    0    0  0.16708128717E+02 -0.14093832288E+02  0.81833070120E+01  0.23340183963E+02  0.00000000000E+00 0. -1.
</event>
<event>
 7    1  0.5839176E-013  0.5052886E+02  0.7816164E-02  0.1300439E+00
        -11   -1    0    0    0    0  0.00000000000E+00  0.00000000000E+00  0.45593999997E+02  0.45594000000E+02  0.51100000000E-03 0. -1.
         11   -1    0    0    0    0 -0.00000000000E+00 -0.00000000000E+00 -0.45593999997E+02  0.45594000000E+02  0.51100000000E-03 0.  1.
    9900012    2    1    2    0    0  0.25929888711E+01  0.37047326217E+02  0.16551058853E+02  0.50528861787E+02  0.30000005887E+02 0.  0.
        -12    1    1    2    0    0 -0.25929888711E+01 -0.37047326217E+02 -0.16551058853E+02  0.40659138213E+02  0.00000000000E+00 0.  1.
         11    1    3    3    0    0 -0.28983893643E+01  0.26841378659E+01  0.41604687454E+01  0.57371384359E+01  0.51100000000E-03 0. -1.
        -11    1    3    3    0    0  0.93903949079E+00  0.24458041877E+02  0.19907829014E+02  0.31549948715E+02  0.51100000000E-03 0.  1.
        -12    1    3    3    0    0  0.45523387446E+01  0.99051464737E+01 -0.75172389068E+01  0.13241774635E+02  0.00000000000E+00 0.  1.
</event>
<event>
 7    1  0.5839176E-013  0.5052886E+02  0.7816164E-02  0.1300439E+00
        -11   -1    0    0    0    0  0.00000000000E+00  0.00000000000E+00  0.45593999997E+02  0.45594000000E+02  0.51100000000E-03 0.  1.
         11   -1    0    0    0    0 -0.00000000000E+00 -0.00000000000E+00 -0.45593999997E+02  0.45594000000E+02  0.51100000000E-03 0. -1.
    9900012    2    1    2    0    0  0.38738498555E+01  0.26330977629E+01 -0.40388434297E+02  0.50528861526E+02  0.30000005093E+02 0.  0.
        -12    1    1    2    0    0 -0.38738498555E+01 -0.26330977629E+01  0.40388434297E+02  0.40659138474E+02  0.00000000000E+00 0.  1.
         11    1    3    3    0    0 -0.35114701409E+01 -0.59235511295E+01 -0.23673183405E+02  0.24654380814E+02  0.51100000000E-03 0. -1.
        -11    1    3    3    0    0 -0.11655602997E+00  0.69410164971E-01 -0.14289566941E+02  0.14290210870E+02  0.51100000000E-03 0.  1.
        -12    1    3    3    0    0  0.75018760264E+01  0.84872387275E+01 -0.24256839502E+01  0.11584269841E+02  0.00000000000E+00 0.  1.
</event>
<event>
 7    1  0.5839176E-013  0.5052886E+02  0.7816164E-02  0.1300439E+00
        -11   -1    0    0    0    0  0.00000000000E+00  0.00000000000E+00  0.45593999997E+02  0.45594000000E+02  0.51100000000E-03 0.  1.
         11   -1    0    0    0    0 -0.00000000000E+00 -0.00000000000E+00 -0.45593999997E+02  0.45594000000E+02  0.51100000000E-03 0. -1.
    9900012    2    1    2    0    0  0.18994975021E+02  0.28033087597E+02 -0.22505607564E+02  0.50528862674E+02  0.30000008583E+02 0.  0.
        -12    1    1    2    0    0 -0.18994975021E+02 -0.28033087597E+02  0.22505607564E+02  0.40659137326E+02  0.00000000000E+00 0.  1.
         11    1    3    3    0    0  0.60452770052E+01  0.68683804837E+01 -0.13978436158E+02  0.16706786113E+02  0.51100000000E-03 0. -1.
        -11    1    3    3    0    0  0.83750070646E+01  0.90044983527E+01 -0.14926236660E+02  0.19339448673E+02  0.51100000000E-03 0.  1.
        -12    1    3    3    0    0  0.45746909510E+01  0.12160208761E+02  0.63990652533E+01  0.14482627887E+02  0.00000000000E+00 0.  1.
</event>
<event>
 7    1  0.5839176E-013  0.5052885E+02  0.7816164E-02  0.1300439E+00
        -11   -1    0    0    0    0  0.00000000000E+00  0.00000000000E+00  0.45593999997E+02  0.45594000000E+02  0.51100000000E-03 0.  1.
         11   -1    0    0    0    0 -0.00000000000E+00 -0.00000000000E+00 -0.45593999997E+02  0.45594000000E+02  0.51100000000E-03 0. -1.
    9900012    2    1    2    0    0  0.17804411694E+02 -0.36538503638E+02  0.10522341570E+01  0.50528849486E+02  0.29999968497E+02 0.  0.
        -12    1    1    2    0    0 -0.17804411694E+02  0.36538503638E+02 -0.10522341570E+01  0.40659150514E+02  0.00000000000E+00 0.  1.
         11    1    3    3    0    0  0.17650760857E+02 -0.26272867236E+02  0.27174957041E+00  0.31652594834E+02  0.51100000000E-03 0. -1.
        -11    1    3    3    0    0  0.69079527502E+01 -0.98588360619E+01  0.11933490588E+01  0.12097129491E+02  0.51100000000E-03 0.  1.
        -12    1    3    3    0    0 -0.67543019140E+01 -0.40680033942E+00 -0.41286447220E+00  0.67791251599E+01  0.00000000000E+00 0.  1.
</event>
<event>
 7    1  0.5839176E-013  0.5052886E+02  0.7816164E-02  0.1300439E+00
        -11   -1    0    0    0    0  0.00000000000E+00  0.00000000000E+00  0.45593999997E+02  0.45594000000E+02  0.51100000000E-03 0.  1.
         11   -1    0    0    0    0 -0.00000000000E+00 -0.00000000000E+00 -0.45593999997E+02  0.45594000000E+02  0.51100000000E-03 0. -1.
    9900012    2    1    2    0    0 -0.12688274106E+01 -0.31287254893E+02  0.25935751858E+02  0.50528862451E+02  0.30000007906E+02 0.  0.
        -12    1    1    2    0    0  0.12688274106E+01  0.31287254893E+02 -0.25935751858E+02  0.40659137549E+02  0.00000000000E+00 0.  1.
         11    1    3    3    0    0 -0.62781873326E+01 -0.23398754009E+02  0.24497584772E+01  0.24349920785E+02  0.51100000000E-03 0. -1.
        -11    1    3    3    0    0  0.47948848994E+00 -0.69985036518E-02 -0.39816943094E+00  0.62329555421E+00  0.51100000000E-03 0.  1.
        -12    1    3    3    0    0  0.45298714321E+01 -0.78815023803E+01  0.23884162812E+02  0.25555646112E+02  0.00000000000E+00 0.  1.
</event>
<event>
 7    1  0.5839176E-013  0.5052885E+02  0.7816164E-02  0.1300439E+00
        -11   -1    0    0    0    0  0.00000000000E+00  0.00000000000E+00  0.45593999997E+02  0.45594000000E+02  0.51100000000E-03 0.  1.
         11   -1    0    0    0    0 -0.00000000000E+00 -0.00000000000E+00 -0.45593999997E+02  0.45594000000E+02  0.51100000000E-03 0. -1.
    9900012    2    1    2    0    0 -0.71888275585E+01 -0.10099240878E+02 -0.38723277335E+02  0.50528854467E+02  0.29999983637E+02 0.  0.
        -12    1    1    2    0    0  0.71888275585E+01  0.10099240878E+02  0.38723277335E+02  0.40659145533E+02  0.00000000000E+00 0.  1.
         11    1    3    3    0    0 -0.76595004133E+01 -0.40523027936E+01 -0.21550700370E+02  0.23227608384E+02  0.51100000000E-03 0. -1.
        -11    1    3    3    0    0  0.39653619533E+01  0.41042259022E+01 -0.15395612983E+02  0.16419307691E+02  0.51100000000E-03 0.  1.
        -12    1    3    3    0    0 -0.34946890985E+01 -0.10151163986E+02 -0.17769639813E+01  0.10881938392E+02  0.00000000000E+00 0.  1.
</event>
<event>
 7    1  0.5839176E-013  0.5052887E+02  0.7816164E-02  0.1300439E+00
        -11   -1    0    0    0    0  0.00000000000E+00  0.00000000000E+00  0.45593999997E+02  0.45594000000E+02  0.51100000000E-03 0.  1.
         11   -1    0    0    0    0 -0.00000000000E+00 -0.00000000000E+00 -0.45593999997E+02  0.45594000000E+02  0.51100000000E-03 0. -1.
    9900012    2    1    2    0    0  0.70255636423E+01  0.99004213153E+01 -0.38804483134E+02  0.50528870668E+02  0.30000032883E+02 0.  0.
        -12    1    1    2    0    0 -0.70255636423E+01 -0.99004213153E+01  0.38804483134E+02  0.40659129332E+02  0.00000000000E+00 0.  1.
         11    1    3    3    0    0 -0.19343645723E+01  0.22963924251E+01 -0.13007942011E+02  0.13349971539E+02  0.51100000000E-03 0. -1.
        -11    1    3    3    0    0  0.50198393279E+00 -0.63737792137E+00 -0.25348193554E+02  0.25361174169E+02  0.51100000000E-03 0.  1.
        -12    1    3    3    0    0  0.84579442818E+01  0.82414068116E+01 -0.44834756930E+00  0.11817724961E+02  0.00000000000E+00 0.  1.
</event>
<event>
 7    1  0.5839176E-013  0.5052886E+02  0.7816164E-02  0.1300439E+00
        -11   -1    0    0    0    0  0.00000000000E+00  0.00000000000E+00  0.45593999997E+02  0.45594000000E+02  0.51100000000E-03 0. -1.
         11   -1    0    0    0    0 -0.00000000000E+00 -0.00000000000E+00 -0.45593999997E+02  0.45594000000E+02  0.51100000000E-03 0.  1.
    9900012    2    1    2    0    0 -0.17646332649E+01  0.22724923271E+02  0.33669418092E+02  0.50528858557E+02  0.29999996070E+02 0.  0.
        -12    1    1    2    0    0  0.17646332649E+01 -0.22724923271E+02 -0.33669418092E+02  0.40659141443E+02  0.00000000000E+00 0.  1.
         11    1    3    3    0    0  0.32966036095E+00  0.19264666075E+02  0.15051579377E+02  0.24449664148E+02  0.51100000000E-03 0. -1.
        -11    1    3    3    0    0 -0.94342383172E+01  0.48262620787E+01  0.89964295050E+01  0.13900841787E+02  0.51100000000E-03 0.  1.
        -12    1    3    3    0    0  0.73399446914E+01 -0.13660048832E+01  0.96214092101E+01  0.12178352623E+02  0.00000000000E+00 0.  1.
</event>
<event>
 7    1  0.5839176E-013  0.5052886E+02  0.7816164E-02  0.1300439E+00
        -11   -1    0    0    0    0  0.00000000000E+00  0.00000000000E+00  0.45593999997E+02  0.45594000000E+02  0.51100000000E-03 0.  1.
         11   -1    0    0    0    0 -0.00000000000E+00 -0.00000000000E+00 -0.45593999997E+02  0.45594000000E+02  0.51100000000E-03 0. -1.
    9900012    2    1    2    0    0  0.15862769555E+02 -0.30795163739E+02 -0.21288402005E+02  0.50528860467E+02  0.30000001874E+02 0.  0.
        -12    1    1    2    0    0 -0.15862769555E+02  0.30795163739E+02  0.21288402005E+02  0.40659139533E+02  0.00000000000E+00 0.  1.
         11    1    3    3    0    0 -0.21702088931E+01 -0.20423983847E+02 -0.55967904978E+01  0.21287860084E+02  0.51100000000E-03 0.  1.
        -11    1    3    3    0    0 -0.18777777282E+00 -0.55919496306E+01 -0.53994338767E+01  0.77755416283E+01  0.51100000000E-03 0. -1.
         12    1    3    3    0    0  0.18220756221E+02 -0.47792302617E+01 -0.10292177630E+02  0.21465458754E+02  0.00000000000E+00 0. -1.
</event>
<event>
 7    1  0.5839176E-013  0.5052887E+02  0.7816164E-02  0.1300439E+00
        -11   -1    0    0    0    0  0.00000000000E+00  0.00000000000E+00  0.45593999997E+02  0.45594000000E+02  0.51100000000E-03 0.  1.
         11   -1    0    0    0    0 -0.00000000000E+00 -0.00000000000E+00 -0.45593999997E+02  0.45594000000E+02  0.51100000000E-03 0. -1.
    9900012    2    1    2    0    0  0.99139900200E+01 -0.19169546991E+02 -0.34458754559E+02  0.50528874386E+02  0.30000044184E+02 0.  0.
        -12    1    1    2    0    0 -0.99139900200E+01  0.19169546991E+02  0.34458754559E+02  0.40659125614E+02  0.00000000000E+00 0.  1.
         11    1    3    3    0    0 -0.63039959867E+00 -0.11582664835E+00  0.91955665899E+00  0.11208943646E+01  0.51100000000E-03 0. -1.
        -11    1    3    3    0    0 -0.28482695069E+01 -0.20588732872E+02 -0.24160278410E+02  0.31870481853E+02  0.51100000000E-03 0.  1.
         12    1    3    3    0    0  0.13392659126E+02  0.15350125293E+01 -0.11218032808E+02  0.17537498168E+02  0.00000000000E+00 0. -1.
</event>
<event>
 7    1  0.5839176E-013  0.5052886E+02  0.7816164E-02  0.1300439E+00
        -11   -1    0    0    0    0  0.00000000000E+00  0.00000000000E+00  0.45593999997E+02  0.45594000000E+02  0.51100000000E-03 0.  1.
         11   -1    0    0    0    0 -0.00000000000E+00 -0.00000000000E+00 -0.45593999997E+02  0.45594000000E+02  0.51100000000E-03 0. -1.
    9900012    2    1    2    0    0 -0.12972047321E+02 -0.38333270424E+02  0.39309162727E+01  0.50528859135E+02  0.29999997827E+02 0.  0.
        -12    1    1    2    0    0  0.12972047321E+02  0.38333270424E+02 -0.39309162727E+01  0.40659140865E+02  0.00000000000E+00 0.  1.
         11    1    3    3    0    0  0.13602376066E+01  0.58583158081E+00 -0.11584361597E+01  0.18802711466E+01  0.51100000000E-03 0. -1.
        -11    1    3    3    0    0 -0.28215027763E+01 -0.72242012257E+01  0.11941532808E+02  0.14239036741E+02  0.51100000000E-03 0.  1.
        -12    1    3    3    0    0 -0.11510782151E+02 -0.31694900779E+02 -0.68521803752E+01  0.34409551247E+02  0.00000000000E+00 0.  1.
</event>
<event>
 7    1  0.5839176E-013  0.5052887E+02  0.7816164E-02  0.1300439E+00
        -11   -1    0    0    0    0  0.00000000000E+00  0.00000000000E+00  0.45593999997E+02  0.45594000000E+02  0.51100000000E-03 0. -1.
         11   -1    0    0    0    0 -0.00000000000E+00 -0.00000000000E+00 -0.45593999997E+02  0.45594000000E+02  0.51100000000E-03 0.  1.
    9900012    2    1    2    0    0  0.19739178235E+02 -0.41658110512E+00  0.35543725155E+02  0.50528867015E+02  0.30000021780E+02 0.  0.
        -12    1    1    2    0    0 -0.19739178235E+02  0.41658110512E+00 -0.35543725155E+02  0.40659132985E+02  0.00000000000E+00 0.  1.
         11    1    3    3    0    0  0.14772187190E+02  0.38434622882E+01  0.16813724926E+02  0.22708832266E+02  0.51100000000E-03 0. -1.
        -11    1    3    3    0    0  0.27644306349E+01 -0.12095638747E+02  0.11957644926E+02  0.17231709894E+02  0.51100000000E-03 0.  1.
         12    1    3    3    0    0  0.22025604095E+01  0.78355953534E+01  0.67723553028E+01  0.10588324856E+02  0.00000000000E+00 0. -1.
</event>
<event>
 7    1  0.5839176E-013  0.5052886E+02  0.7816164E-02  0.1300439E+00
        -11   -1    0    0    0    0  0.00000000000E+00  0.00000000000E+00  0.45593999997E+02  0.45594000000E+02  0.51100000000E-03 0. -1.
         11   -1    0    0    0    0 -0.00000000000E+00 -0.00000000000E+00 -0.45593999997E+02  0.45594000000E+02  0.51100000000E-03 0.  1.
    9900012    2    1    2    0    0 -0.11358219716E+02  0.21185128708E+02  0.32792476305E+02  0.50528864056E+02  0.30000012785E+02 0.  0.
        -12    1    1    2    0    0  0.11358219716E+02 -0.21185128708E+02 -0.32792476305E+02  0.40659135944E+02  0.00000000000E+00 0.  1.
         11    1    3    3    0    0 -0.12058209175E+02  0.72770676176E+01  0.10593421294E+02  0.17623186335E+02  0.51100000000E-03 0. -1.
        -11    1    3    3    0    0  0.21975321949E+01  0.15881901337E+02  0.24659753306E+02  0.29413727598E+02  0.51100000000E-03 0.  1.
         12    1    3    3    0    0 -0.14975427357E+01 -0.19738402467E+01 -0.24606982949E+01  0.34919501233E+01  0.00000000000E+00 0. -1.
</event>
<event>
 7    1  0.5839176E-013  0.5052886E+02  0.7816164E-02  0.1300439E+00
        -11   -1    0    0    0    0  0.00000000000E+00  0.00000000000E+00  0.45593999997E+02  0.45594000000E+02  0.51100000000E-03 0.  1.
         11   -1    0    0    0    0 -0.00000000000E+00 -0.00000000000E+00 -0.45593999997E+02  0.45594000000E+02  0.51100000000E-03 0. -1.
    9900012    2    1    2    0    0  0.74019122437E+01 -0.14453687156E+02 -0.37275576749E+02  0.50528855896E+02  0.29999987983E+02 0.  0.
        -12    1    1    2    0    0 -0.74019122437E+01  0.14453687156E+02  0.37275576749E+02  0.40659144104E+02  0.00000000000E+00 0.  1.
         11    1    3    3    0    0  0.95876454315E+01 -0.15666600434E+02 -0.41239520751E+02  0.45144915396E+02  0.51100000000E-03 0. -1.
        -11    1    3    3    0    0 -0.94716143220E+00  0.11474709338E+01  0.30276493234E+00  0.15183778146E+01  0.51100000000E-03 0.  1.
         12    1    3    3    0    0 -0.12385717555E+01  0.65442343617E-01  0.36611790701E+01  0.38655626857E+01  0.00000000000E+00 0. -1.
</event>
<event>
 7    1  0.5839176E-013  0.5052886E+02  0.7816164E-02  0.1300439E+00
        -11   -1    0    0    0    0  0.00000000000E+00  0.00000000000E+00  0.45593999997E+02  0.45594000000E+02  0.51100000000E-03 0. -1.
         11   -1    0    0    0    0 -0.00000000000E+00 -0.00000000000E+00 -0.45593999997E+02  0.45594000000E+02  0.51100000000E-03 0.  1.
    9900012    2    1    2    0    0  0.10029450314E+02  0.26994385281E+01  0.39310159851E+02  0.50528861919E+02  0.30000006288E+02 0.  0.
        -12    1    1    2    0    0 -0.10029450314E+02 -0.26994385281E+01 -0.39310159851E+02  0.40659138081E+02  0.00000000000E+00 0.  1.
         11    1    3    3    0    0  0.71013067380E+01  0.97668671323E+01  0.16708999014E+02  0.20615792473E+02  0.51100000000E-03 0. -1.
        -11    1    3    3    0    0 -0.12272913473E+01  0.35789693880E+01  0.16558574510E+02  0.16985336500E+02  0.51100000000E-03 0.  1.
         12    1    3    3    0    0  0.41554349230E+01 -0.10646397992E+02  0.60425863265E+01  0.12927732946E+02  0.00000000000E+00 0. -1.
</event>
<event>
 7    1  0.5839176E-013  0.5052886E+02  0.7816164E-02  0.1300439E+00
        -11   -1    0    0    0    0  0.00000000000E+00  0.00000000000E+00  0.45593999997E+02  0.45594000000E+02  0.51100000000E-03 0.  1.
         11   -1    0    0    0    0 -0.00000000000E+00 -0.00000000000E+00 -0.45593999997E+02  0.45594000000E+02  0.51100000000E-03 0. -1.
    9900012    2    1    2    0    0  0.29037585663E+01  0.11438506048E+02 -0.38908794712E+02  0.50528861540E+02  0.30000005136E+02 0.  0.
        -12    1    1    2    0    0 -0.29037585663E+01 -0.11438506048E+02  0.38908794712E+02  0.40659138460E+02  0.00000000000E+00 0.  1.
         11    1    3    3    0    0 -0.85468713525E+01  0.14937339319E+01 -0.27711890335E+02  0.29038407621E+02  0.51100000000E-03 0. -1.
        -11    1    3    3    0    0  0.83655522385E+01  0.30629455978E+01 -0.10713145193E+02  0.13933254472E+02  0.51100000000E-03 0.  1.
        -12    1    3    3    0    0  0.30850776804E+01  0.68818265185E+01 -0.48375918347E+00  0.75571994464E+01  0.00000000000E+00 0.  1.
</event>
<event>
 7    1  0.5839176E-013  0.5052886E+02  0.7816164E-02  0.1300439E+00
        -11   -1    0    0    0    0  0.00000000000E+00  0.00000000000E+00  0.45593999997E+02  0.45594000000E+02  0.51100000000E-03 0.  1.
         11   -1    0    0    0    0 -0.00000000000E+00 -0.00000000000E+00 -0.45593999997E+02  0.45594000000E+02  0.51100000000E-03 0. -1.
    9900012    2    1    2    0    0  0.77271934335E+01  0.20592061296E+02 -0.34196828236E+02  0.50528861197E+02  0.30000004095E+02 0.  0.
        -12    1    1    2    0    0 -0.77271934335E+01 -0.20592061296E+02  0.34196828236E+02  0.40659138803E+02  0.00000000000E+00 0.  1.
         11    1    3    3    0    0  0.40130352489E+01  0.65195056188E+01 -0.89740040453E+01  0.11795810879E+02  0.51100000000E-03 0. -1.
        -11    1    3    3    0    0  0.13235316305E+02  0.35502745944E+01 -0.18521940635E+02  0.23039972495E+02  0.51100000000E-03 0.  1.
         12    1    3    3    0    0 -0.95211581209E+01  0.10522281083E+02 -0.67008835559E+01  0.15693077824E+02  0.00000000000E+00 0. -1.
</event>
<event>
 7    1  0.5839176E-013  0.5052886E+02  0.7816164E-02  0.1300439E+00
        -11   -1    0    0    0    0  0.00000000000E+00  0.00000000000E+00  0.45593999997E+02  0.45594000000E+02  0.51100000000E-03 0.  1.
         11   -1    0    0    0    0 -0.00000000000E+00 -0.00000000000E+00 -0.45593999997E+02  0.45594000000E+02  0.51100000000E-03 0. -1.
    9900012    2    1    2    0    0  0.21759122416E+02  0.16619933840E+01 -0.34306612167E+02  0.50528864881E+02  0.30000015291E+02 0.  0.
        -12    1    1    2    0    0 -0.21759122416E+02 -0.16619933840E+01  0.34306612167E+02  0.40659135119E+02  0.00000000000E+00 0.  1.
         11    1    3    3    0    0  0.25376731058E+02  0.12483510696E+01 -0.21446489225E+02  0.33248891108E+02  0.51100000000E-03 0. -1.
        -11    1    3    3    0    0 -0.47313757536E+00 -0.50061108690E+01 -0.39858461953E+01  0.64165392036E+01  0.51100000000E-03 0.  1.
        -12    1    3    3    0    0 -0.31444710670E+01  0.54197531834E+01 -0.88742767459E+01  0.10863434568E+02  0.00000000000E+00 0.  1.
</event>
<event>
 7    1  0.5839176E-013  0.5052887E+02  0.7816164E-02  0.1300439E+00
        -11   -1    0    0    0    0  0.00000000000E+00  0.00000000000E+00  0.45593999997E+02  0.45594000000E+02  0.51100000000E-03 0. -1.
         11   -1    0    0    0    0 -0.00000000000E+00 -0.00000000000E+00 -0.45593999997E+02  0.45594000000E+02  0.51100000000E-03 0.  1.
    9900012    2    1    2    0    0  0.19792928369E+01 -0.40433851806E+02 -0.37882607583E+01  0.50528869517E+02  0.30000029385E+02 0.  0.
        -12    1    1    2    0    0 -0.19792928369E+01  0.40433851806E+02  0.37882607583E+01  0.40659130483E+02  0.00000000000E+00 0.  1.
         11    1    3    3    0    0 -0.97145167168E+00 -0.92395397295E+00  0.24303303156E+01  0.27755927292E+01  0.51100000000E-03 0. -1.
        -11    1    3    3    0    0 -0.82020515792E+01 -0.64888823434E+01 -0.75103920762E+01  0.12875761476E+02  0.51100000000E-03 0.  1.
         12    1    3    3    0    0  0.11152796088E+02 -0.33021015490E+02  0.12918010023E+01  0.34877515313E+02  0.00000000000E+00 0. -1.
</event>
<event>
 7    1  0.5839176E-013  0.5052887E+02  0.7816164E-02  0.1300439E+00
        -11   -1    0    0    0    0  0.00000000000E+00  0.00000000000E+00  0.45593999997E+02  0.45594000000E+02  0.51100000000E-03 0.  1.
         11   -1    0    0    0    0 -0.00000000000E+00 -0.00000000000E+00 -0.45593999997E+02  0.45594000000E+02  0.51100000000E-03 0. -1.
    9900012    2    1    2    0    0  0.51588150310E+01 -0.38335970285E+01 -0.40147913876E+02  0.50528870308E+02  0.30000031790E+02 0.  0.
        -12    1    1    2    0    0 -0.51588150310E+01  0.38335970285E+01  0.40147913876E+02  0.40659129692E+02  0.00000000000E+00 0.  1.
         11    1    3    3    0    0  0.70794646656E+01 -0.96579620904E+01 -0.33031810722E+02  0.35135389162E+02  0.51100000000E-03 0. -1.
        -11    1    3    3    0    0  0.10430375059E+01 -0.24671066441E+01 -0.59323835606E+01  0.65090488862E+01  0.51100000000E-03 0.  1.
        -12    1    3    3    0    0 -0.29636871404E+01  0.82914717060E+01 -0.11837195927E+01  0.88844322605E+01  0.00000000000E+00 0.  1.
</event>
<event>
 7    1  0.5839176E-013  0.5052886E+02  0.7816164E-02  0.1300439E+00
        -11   -1    0    0    0    0  0.00000000000E+00  0.00000000000E+00  0.45593999997E+02  0.45594000000E+02  0.51100000000E-03 0.  1.
         11   -1    0    0    0    0 -0.00000000000E+00 -0.00000000000E+00 -0.45593999997E+02  0.45594000000E+02  0.51100000000E-03 0. -1.
    9900012    2    1    2    0    0  0.18903796477E+02  0.11752048312E+02 -0.34025009991E+02  0.50528862458E+02  0.30000007926E+02 0.  0.
        -12    1    1    2    0    0 -0.18903796477E+02 -0.11752048312E+02  0.34025009991E+02  0.40659137542E+02  0.00000000000E+00 0.  1.
         11    1    3    3    0    0  0.53705138801E-01  0.48771933332E+01 -0.24697450308E+02  0.25174470224E+02  0.51100000000E-03 0. -1.
        -11    1    3    3    0    0  0.84623946400E+01 -0.84594085504E+00 -0.90354394123E+01  0.12408340123E+02  0.51100000000E-03 0.  1.
        -12    1    3    3    0    0  0.10387696698E+02  0.77207958340E+01 -0.29212027076E+00  0.12946052111E+02  0.00000000000E+00 0.  1.
</event>
<event>
 7    1  0.5839176E-013  0.5052883E+02  0.7816164E-02  0.1300439E+00
        -11   -1    0    0    0    0  0.00000000000E+00  0.00000000000E+00  0.45593999997E+02  0.45594000000E+02  0.51100000000E-03 0.  1.
         11   -1    0    0    0    0 -0.00000000000E+00 -0.00000000000E+00 -0.45593999997E+02  0.45594000000E+02  0.51100000000E-03 0. -1.
    9900012    2    1    2    0    0  0.32764936236E+02  0.83739026456E+01 -0.22572219595E+02  0.50528826503E+02  0.29999898638E+02 0.  0.
        -12    1    1    2    0    0 -0.32764936236E+02 -0.83739026456E+01  0.22572219595E+02  0.40659173497E+02  0.00000000000E+00 0.  1.
         11    1    3    3    0    0  0.24867142093E+01 -0.27602374459E+01  0.35803542404E+01  0.51596119102E+01  0.51100000000E-03 0.  1.
        -11    1    3    3    0    0  0.44149331798E+01  0.92843644429E+01 -0.32737448988E+01  0.10789275417E+02  0.51100000000E-03 0. -1.
         12    1    3    3    0    0  0.25863288847E+02  0.18497756485E+01 -0.22878828936E+02  0.34579939176E+02  0.00000000000E+00 0. -1.
</event>
<event>
 7    1  0.5839176E-013  0.5052886E+02  0.7816164E-02  0.1300439E+00
        -11   -1    0    0    0    0  0.00000000000E+00  0.00000000000E+00  0.45593999997E+02  0.45594000000E+02  0.51100000000E-03 0.  1.
         11   -1    0    0    0    0 -0.00000000000E+00 -0.00000000000E+00 -0.45593999997E+02  0.45594000000E+02  0.51100000000E-03 0. -1.
    9900012    2    1    2    0    0  0.11272758050E+02 -0.22421424110E+02 -0.31990161371E+02  0.50528858867E+02  0.29999997012E+02 0.  0.
        -12    1    1    2    0    0 -0.11272758050E+02  0.22421424110E+02  0.31990161371E+02  0.40659141133E+02  0.00000000000E+00 0.  1.
         11    1    3    3    0    0  0.73305126008E+01 -0.12578291525E+02 -0.12830105536E+02  0.19405191084E+02  0.51100000000E-03 0. -1.
        -11    1    3    3    0    0  0.31579751380E+01 -0.14501564398E+02 -0.41835671221E+01  0.15419805805E+02  0.51100000000E-03 0.  1.
        -12    1    3    3    0    0  0.78427031128E+00  0.46584318126E+01 -0.14976488712E+02  0.15703861978E+02  0.00000000000E+00 0.  1.
</event>
<event>
 7    1  0.5839176E-013  0.5052885E+02  0.7816164E-02  0.1300439E+00
        -11   -1    0    0    0    0  0.00000000000E+00  0.00000000000E+00  0.45593999997E+02  0.45594000000E+02  0.51100000000E-03 0.  1.
         11   -1    0    0    0    0 -0.00000000000E+00 -0.00000000000E+00 -0.45593999997E+02  0.45594000000E+02  0.51100000000E-03 0. -1.
    9900012    2    1    2    0    0 -0.20801140122E+02 -0.34883021050E+02 -0.19115208866E+01  0.50528849738E+02  0.29999969264E+02 0.  0.
        -12    1    1    2    0    0  0.20801140122E+02  0.34883021050E+02  0.19115208866E+01  0.40659150262E+02  0.00000000000E+00 0.  1.
         11    1    3    3    0    0 -0.21631726376E+00 -0.18331030592E+02  0.59084089996E+01  0.19260913085E+02  0.51100000000E-03 0. -1.
        -11    1    3    3    0    0 -0.36058480556E+01 -0.31889925516E+01  0.43340439970E+01  0.64773259392E+01  0.51100000000E-03 0.  1.
         12    1    3    3    0    0 -0.16978974802E+02 -0.13362997906E+02 -0.12153973883E+02  0.24790610713E+02  0.00000000000E+00 0. -1.
</event>
<event>
 7    1  0.5839176E-013  0.5052885E+02  0.7816164E-02  0.1300439E+00
        -11   -1    0    0    0    0  0.00000000000E+00  0.00000000000E+00  0.45593999997E+02  0.45594000000E+02  0.51100000000E-03 0. -1.
         11   -1    0    0    0    0 -0.00000000000E+00 -0.00000000000E+00 -0.45593999997E+02  0.45594000000E+02  0.51100000000E-03 0.  1.
    9900012    2    1    2    0    0 -0.29418260214E+02  0.11237529671E+02  0.25718673813E+02  0.50528852323E+02  0.29999977122E+02 0.  0.
        -12    1    1    2    0    0  0.29418260214E+02 -0.11237529671E+02 -0.25718673813E+02  0.40659147677E+02  0.00000000000E+00 0.  1.
         11    1    3    3    0    0 -0.97988211080E+01 -0.53337887330E+01  0.10197762511E+02  0.15114911771E+02  0.51100000000E-03 0. -1.
        -11    1    3    3    0    0 -0.44098332300E+01 -0.27171272542E+01  0.83479492035E+01  0.98243404765E+01  0.51100000000E-03 0.  1.
        -12    1    3    3    0    0 -0.15209605876E+02  0.19288445658E+02  0.71729620986E+01  0.25589600076E+02  0.00000000000E+00 0.  1.
</event>
<event>
 7    1  0.5839176E-013  0.5052894E+02  0.7816164E-02  0.1300438E+00
        -11   -1    0    0    0    0  0.00000000000E+00  0.00000000000E+00  0.45593999997E+02  0.45594000000E+02  0.51100000000E-03 0.  1.
         11   -1    0    0    0    0 -0.00000000000E+00 -0.00000000000E+00 -0.45593999997E+02  0.45594000000E+02  0.51100000000E-03 0. -1.
    9900012    2    1    2    0    0  0.15206659067E+02 -0.31533405468E+02 -0.20677540142E+02  0.50528944346E+02  0.30000256832E+02 0.  0.
        -12    1    1    2    0    0 -0.15206659067E+02  0.31533405468E+02  0.20677540142E+02  0.40659055654E+02  0.00000000000E+00 0.  1.
         11    1    3    3    0    0  0.15882596606E+01  0.48358315280E+00 -0.17236393658E+01  0.23931891566E+01  0.51100000000E-03 0. -1.
        -11    1    3    3    0    0 -0.57784393117E+01 -0.47357423941E+01  0.30582474740E+01  0.80728244609E+01  0.51100000000E-03 0.  1.
         12    1    3    3    0    0  0.19396838719E+02 -0.27281246226E+02 -0.22012148250E+02  0.40062930728E+02  0.00000000000E+00 0. -1.
</event>
<event>
 7    1  0.5839176E-013  0.5052887E+02  0.7816164E-02  0.1300439E+00
        -11   -1    0    0    0    0  0.00000000000E+00  0.00000000000E+00  0.45593999997E+02  0.45594000000E+02  0.51100000000E-03 0.  1.
         11   -1    0    0    0    0 -0.00000000000E+00 -0.00000000000E+00 -0.45593999997E+02  0.45594000000E+02  0.51100000000E-03 0. -1.
    9900012    2    1    2    0    0  0.35133473912E+01  0.38465410359E+02 -0.12697771910E+02  0.50528870454E+02  0.30000032232E+02 0.  0.
        -12    1    1    2    0    0 -0.35133473912E+01 -0.38465410359E+02  0.12697771910E+02  0.40659129546E+02  0.00000000000E+00 0.  1.
         11    1    3    3    0    0 -0.43603127975E+01  0.18669918982E+02 -0.26328508306E+01  0.19352263595E+02  0.51100000000E-03 0. -1.
        -11    1    3    3    0    0 -0.69463647623E+01  0.75698355867E+01 -0.29445615795E+01  0.10687602041E+02  0.51100000000E-03 0.  1.
        -12    1    3    3    0    0  0.14820024951E+02  0.12225655790E+02 -0.71203594995E+01  0.20489004818E+02  0.00000000000E+00 0.  1.
</event>
<event>
 7    1  0.5839176E-013  0.5052887E+02  0.7816164E-02  0.1300439E+00
        -11   -1    0    0    0    0  0.00000000000E+00  0.00000000000E+00  0.45593999997E+02  0.45594000000E+02  0.51100000000E-03 0. -1.
         11   -1    0    0    0    0 -0.00000000000E+00 -0.00000000000E+00 -0.45593999997E+02  0.45594000000E+02  0.51100000000E-03 0.  1.
    9900012    2    1    2    0    0  0.20250874270E+02  0.14822277775E+02  0.31990110827E+02  0.50528867965E+02  0.30000024667E+02 0.  0.
        -12    1    1    2    0    0 -0.20250874270E+02 -0.14822277775E+02 -0.31990110827E+02  0.40659132035E+02  0.00000000000E+00 0.  1.
         11    1    3    3    0    0  0.33993304737E+01  0.87034550074E+01  0.14667832745E+01  0.94581726655E+01  0.51100000000E-03 0.  1.
        -11    1    3    3    0    0  0.44627495765E+00  0.62841790940E+01 -0.13192710649E+00  0.63013866130E+01  0.51100000000E-03 0. -1.
         12    1    3    3    0    0  0.16405268838E+02 -0.16535632686E+00  0.30655254659E+02  0.34769308687E+02  0.00000000000E+00 0. -1.
</event>
<event>
 7    1  0.5839176E-013  0.5052887E+02  0.7816164E-02  0.1300439E+00
        -11   -1    0    0    0    0  0.00000000000E+00  0.00000000000E+00  0.45593999997E+02  0.45594000000E+02  0.51100000000E-03 0. -1.
         11   -1    0    0    0    0 -0.00000000000E+00 -0.00000000000E+00 -0.45593999997E+02  0.45594000000E+02  0.51100000000E-03 0.  1.
    9900012    2    1    2    0    0 -0.72536850392E+01  0.33406917710E+02  0.22011975092E+02  0.50528866401E+02  0.30000019912E+02 0.  0.
        -12    1    1    2    0    0  0.72536850392E+01 -0.33406917710E+02 -0.22011975092E+02  0.40659133599E+02  0.00000000000E+00 0.  1.
         11    1    3    3    0    0  0.56942141274E+01  0.46353560316E+01  0.31579556296E+01  0.79927019267E+01  0.51100000000E-03 0. -1.
        -11    1    3    3    0    0  0.58005303203E+01  0.90212471879E+01  0.71849056347E+01  0.12909373419E+02  0.51100000000E-03 0.  1.
        -12    1    3    3    0    0 -0.18748429487E+02  0.19750314491E+02  0.11669113828E+02  0.29626791056E+02  0.00000000000E+00 0.  1.
</event>
<event>
 7    1  0.5839176E-013  0.5052885E+02  0.7816164E-02  0.1300439E+00
        -11   -1    0    0    0    0  0.00000000000E+00  0.00000000000E+00  0.45593999997E+02  0.45594000000E+02  0.51100000000E-03 0.  1.
         11   -1    0    0    0    0 -0.00000000000E+00 -0.00000000000E+00 -0.45593999997E+02  0.45594000000E+02  0.51100000000E-03 0. -1.
    9900012    2    1    2    0    0 -0.23756853867E+02  0.90424949375E+01 -0.31733448055E+02  0.50528849175E+02  0.29999967553E+02 0.  0.
        -12    1    1    2    0    0  0.23756853867E+02 -0.90424949375E+01  0.31733448055E+02  0.40659150825E+02  0.00000000000E+00 0.  1.
         11    1    3    3    0    0 -0.78554390408E+01  0.97391770329E+01  0.23506875567E+01  0.12731269538E+02  0.51100000000E-03 0.  1.
        -11    1    3    3    0    0 -0.64582417728E+01 -0.74657762640E-01 -0.18150831806E+02  0.19265698952E+02  0.51100000000E-03 0. -1.
        -12    1    3    3    0    0 -0.94431730529E+01 -0.62202433271E+00 -0.15933303805E+02  0.18531880685E+02  0.00000000000E+00 0.  1.
</event>
<event>
 7    1  0.5839176E-013  0.5052886E+02  0.7816164E-02  0.1300439E+00
        -11   -1    0    0    0    0  0.00000000000E+00  0.00000000000E+00  0.45593999997E+02  0.45594000000E+02  0.51100000000E-03 0. -1.
         11   -1    0    0    0    0 -0.00000000000E+00 -0.00000000000E+00 -0.45593999997E+02  0.45594000000E+02  0.51100000000E-03 0.  1.
    9900012    2    1    2    0    0 -0.18537903518E+02  0.35408093890E+02  0.74685022651E+01  0.50528861964E+02  0.30000006426E+02 0.  0.
        -12    1    1    2    0    0  0.18537903518E+02 -0.35408093890E+02 -0.74685022651E+01  0.40659138036E+02  0.00000000000E+00 0.  1.
         11    1    3    3    0    0  0.43914096208E+01  0.42690456039E+01  0.65115761774E+01  0.89392311415E+01  0.51100000000E-03 0. -1.
        -11    1    3    3    0    0 -0.22138350320E+00  0.81001185386E+01  0.41130861650E+01  0.90872663138E+01  0.51100000000E-03 0.  1.
         12    1    3    3    0    0 -0.22707929636E+02  0.23038929747E+02 -0.31561600772E+01  0.32502364509E+02  0.00000000000E+00 0. -1.
</event>
<event>
 7    1  0.5839176E-013  0.5052886E+02  0.7816164E-02  0.1300439E+00
        -11   -1    0    0    0    0  0.00000000000E+00  0.00000000000E+00  0.45593999997E+02  0.45594000000E+02  0.51100000000E-03 0. -1.
         11   -1    0    0    0    0 -0.00000000000E+00 -0.00000000000E+00 -0.45593999997E+02  0.45594000000E+02  0.51100000000E-03 0.  1.
    9900012    2    1    2    0    0 -0.14364657719E+02 -0.34663346546E+01  0.37878840045E+02  0.50528863382E+02  0.30000010737E+02 0.  0.
        -12    1    1    2    0    0  0.14364657719E+02  0.34663346546E+01 -0.37878840045E+02  0.40659136618E+02  0.00000000000E+00 0.  1.
         11    1    3    3    0    0 -0.18610666430E+01 -0.46073065117E+00  0.44960774362E+01  0.48877964725E+01  0.51100000000E-03 0. -1.
        -11    1    3    3    0    0 -0.69638745602E+01 -0.10434836167E+02  0.17352602620E+01  0.12664615397E+02  0.51100000000E-03 0.  1.
        -12    1    3    3    0    0 -0.55397165159E+01  0.74292321631E+01  0.31647502347E+02  0.32976451513E+02  0.00000000000E+00 0.  1.
</event>
<event>
 7    1  0.5839176E-013  0.5052886E+02  0.7816164E-02  0.1300439E+00
        -11   -1    0    0    0    0  0.00000000000E+00  0.00000000000E+00  0.45593999997E+02  0.45594000000E+02  0.51100000000E-03 0.  1.
         11   -1    0    0    0    0 -0.00000000000E+00 -0.00000000000E+00 -0.45593999997E+02  0.45594000000E+02  0.51100000000E-03 0. -1.
    9900012    2    1    2    0    0 -0.11177887508E+02  0.72614971561E+01 -0.38412127748E+02  0.50528855048E+02  0.29999985405E+02 0.  0.
        -12    1    1    2    0    0  0.11177887508E+02 -0.72614971561E+01  0.38412127748E+02  0.40659144952E+02  0.00000000000E+00 0.  1.
         11    1    3    3    0    0 -0.36955857507E+01  0.34411683960E+01 -0.19790467384E+02  0.20424534107E+02  0.51100000000E-03 0. -1.
        -11    1    3    3    0    0 -0.21449777118E+01 -0.75079455005E+00 -0.22132496982E+02  0.22248866146E+02  0.51100000000E-03 0.  1.
        -12    1    3    3    0    0 -0.53373240451E+01  0.45711233101E+01  0.35108366181E+01  0.78554547951E+01  0.00000000000E+00 0.  1.
</event>
<event>
 7    1  0.5839176E-013  0.5052886E+02  0.7816164E-02  0.1300439E+00
        -11   -1    0    0    0    0  0.00000000000E+00  0.00000000000E+00  0.45593999997E+02  0.45594000000E+02  0.51100000000E-03 0. -1.
         11   -1    0    0    0    0 -0.00000000000E+00 -0.00000000000E+00 -0.45593999997E+02  0.45594000000E+02  0.51100000000E-03 0.  1.
    9900012    2    1    2    0    0  0.10291324592E+02  0.34214910193E+02 -0.19406044633E+02  0.50528855768E+02  0.29999987592E+02 0.  0.
        -12    1    1    2    0    0 -0.10291324592E+02 -0.34214910193E+02  0.19406044633E+02  0.40659144232E+02  0.00000000000E+00 0.  1.
         11    1    3    3    0    0 -0.11405482485E+00 -0.12116904555E+01  0.48569913306E+00  0.13103839789E+01  0.51100000000E-03 0. -1.
        -11    1    3    3    0    0 -0.82414512889E+01  0.81699509038E+01 -0.80988945867E+01  0.14151385477E+02  0.51100000000E-03 0.  1.
         12    1    3    3    0    0  0.18646830706E+02  0.27256649745E+02 -0.11792849180E+02  0.35067086313E+02  0.00000000000E+00 0. -1.
</event>
<event>
 7    1  0.5839176E-013  0.5052886E+02  0.7816164E-02  0.1300439E+00
        -11   -1    0    0    0    0  0.00000000000E+00  0.00000000000E+00  0.45593999997E+02  0.45594000000E+02  0.51100000000E-03 0.  1.
         11   -1    0    0    0    0 -0.00000000000E+00 -0.00000000000E+00 -0.45593999997E+02  0.45594000000E+02  0.51100000000E-03 0. -1.
    9900012    2    1    2    0    0  0.31744982402E+02  0.24381408370E+02  0.71392215599E+01  0.50528862450E+02  0.30000007904E+02 0.  0.
        -12    1    1    2    0    0 -0.31744982402E+02 -0.24381408370E+02 -0.71392215599E+01  0.40659137550E+02  0.00000000000E+00 0.  1.
         11    1    3    3    0    0  0.41832295939E+01 -0.27698810945E+00  0.45564811973E+01  0.61917407415E+01  0.51100000000E-03 0.  1.
        -11    1    3    3    0    0  0.15493674063E+02 -0.66404327786E+00  0.47048017029E+01  0.16205864641E+02  0.51100000000E-03 0. -1.
         12    1    3    3    0    0  0.12068078745E+02  0.25322439757E+02 -0.21220613403E+01  0.28131257067E+02  0.00000000000E+00 0. -1.
</event>
<event>
 7    1  0.5839176E-013  0.5052886E+02  0.7816164E-02  0.1300439E+00
        -11   -1    0    0    0    0  0.00000000000E+00  0.00000000000E+00  0.45593999997E+02  0.45594000000E+02  0.51100000000E-03 0. -1.
         11   -1    0    0    0    0 -0.00000000000E+00 -0.00000000000E+00 -0.45593999997E+02  0.45594000000E+02  0.51100000000E-03 0.  1.
    9900012    2    1    2    0    0 -0.38168626913E+02  0.89797678252E+01  0.10755721559E+02  0.50528857647E+02  0.29999993305E+02 0.  0.
        -12    1    1    2    0    0  0.38168626913E+02 -0.89797678252E+01 -0.10755721559E+02  0.40659142353E+02  0.00000000000E+00 0.  1.
         11    1    3    3    0    0 -0.17988898423E+02  0.77821176693E+01  0.29604641299E+01  0.19822365399E+02  0.51100000000E-03 0. -1.
        -11    1    3    3    0    0 -0.20324058908E+02  0.60374938870E+01 -0.37961885484E+00  0.21205254389E+02  0.51100000000E-03 0.  1.
        -12    1    3    3    0    0  0.14433041819E+00 -0.48398437311E+01  0.81748762841E+01  0.95012378600E+01  0.00000000000E+00 0.  1.
</event>
<event>
 7    1  0.5839176E-013  0.5052888E+02  0.7816164E-02  0.1300439E+00
        -11   -1    0    0    0    0  0.00000000000E+00  0.00000000000E+00  0.45593999997E+02  0.45594000000E+02  0.51100000000E-03 0. -1.
         11   -1    0    0    0    0 -0.00000000000E+00 -0.00000000000E+00 -0.45593999997E+02  0.45594000000E+02  0.51100000000E-03 0.  1.
    9900012    2    1    2    0    0  0.20583169295E+02  0.27196684892E+02  0.22132277213E+02  0.50528877752E+02  0.30000054415E+02 0.  0.
        -12    1    1    2    0    0 -0.20583169295E+02 -0.27196684892E+02 -0.22132277213E+02  0.40659122248E+02  0.00000000000E+00 0.  1.
         11    1    3    3    0    0  0.17339193044E+02  0.14580897609E+02  0.14235857621E+02  0.26756491417E+02  0.51100000000E-03 0. -1.
        -11    1    3    3    0    0 -0.20936645273E+01 -0.33616898225E+01  0.54698268804E+01  0.67530286522E+01  0.51100000000E-03 0.  1.
         12    1    3    3    0    0  0.53376407781E+01  0.15977477106E+02  0.24265927114E+01  0.17019357683E+02  0.00000000000E+00 0. -1.
</event>
<event>
 7    1  0.5839176E-013  0.5052886E+02  0.7816164E-02  0.1300439E+00
        -11   -1    0    0    0    0  0.00000000000E+00  0.00000000000E+00  0.45593999997E+02  0.45594000000E+02  0.51100000000E-03 0.  1.
         11   -1    0    0    0    0 -0.00000000000E+00 -0.00000000000E+00 -0.45593999997E+02  0.45594000000E+02  0.51100000000E-03 0. -1.
    9900012    2    1    2    0    0 -0.39190474958E+02  0.10035199401E+02  0.40702965678E+01  0.50528857503E+02  0.29999992866E+02 0.  0.
        -12    1    1    2    0    0  0.39190474958E+02 -0.10035199401E+02 -0.40702965678E+01  0.40659142497E+02  0.00000000000E+00 0.  1.
         11    1    3    3    0    0 -0.26057982278E+02 -0.10685746152E+01  0.49461162065E+00  0.26084572702E+02  0.51100000000E-03 0. -1.
        -11    1    3    3    0    0 -0.62620783082E+01  0.87980184704E+01 -0.60633941518E+01  0.12384809350E+02  0.51100000000E-03 0.  1.
         12    1    3    3    0    0 -0.68704143711E+01  0.23057555459E+01  0.96390790990E+01  0.12059475451E+02  0.00000000000E+00 0. -1.
</event>
<event>
 7    1  0.5839176E-013  0.5052887E+02  0.7816164E-02  0.1300439E+00
        -11   -1    0    0    0    0  0.00000000000E+00  0.00000000000E+00  0.45593999997E+02  0.45594000000E+02  0.51100000000E-03 0.  1.
         11   -1    0    0    0    0 -0.00000000000E+00 -0.00000000000E+00 -0.45593999997E+02  0.45594000000E+02  0.51100000000E-03 0. -1.
    9900012    2    1    2    0    0  0.16633720702E+02  0.19630248428E+02 -0.31482339640E+02  0.50528867853E+02  0.30000024326E+02 0.  0.
        -12    1    1    2    0    0 -0.16633720702E+02 -0.19630248428E+02  0.31482339640E+02  0.40659132147E+02  0.00000000000E+00 0.  1.
         11    1    3    3    0    0  0.13175126252E+02  0.24878452652E+02 -0.31167654915E+02  0.41999334177E+02  0.51100000000E-03 0. -1.
        -11    1    3    3    0    0  0.16151461858E+01  0.10353344592E+01  0.34047375966E+00  0.19484704992E+01  0.51100000000E-03 0.  1.
         12    1    3    3    0    0  0.18434482643E+01 -0.62835386840E+01 -0.65515848473E+00  0.65810631768E+01  0.00000000000E+00 0. -1.
</event>
<event>
 7    1  0.5839176E-013  0.5052886E+02  0.7816164E-02  0.1300439E+00
        -11   -1    0    0    0    0  0.00000000000E+00  0.00000000000E+00  0.45593999997E+02  0.45594000000E+02  0.51100000000E-03 0.  1.
         11   -1    0    0    0    0 -0.00000000000E+00 -0.00000000000E+00 -0.45593999997E+02  0.45594000000E+02  0.51100000000E-03 0. -1.
    9900012    2    1    2    0    0  0.12111393069E+02 -0.18602156578E+02 -0.34065222952E+02  0.50528862205E+02  0.30000007159E+02 0.  0.
        -12    1    1    2    0    0 -0.12111393069E+02  0.18602156578E+02  0.34065222952E+02  0.40659137795E+02  0.00000000000E+00 0.  1.
         11    1    3    3    0    0 -0.35891246516E+01 -0.85119165058E+01 -0.11754723098E+02  0.14950185743E+02  0.51100000000E-03 0. -1.
        -11    1    3    3    0    0 -0.34925928280E+01 -0.45872702384E+01 -0.17435733420E+00  0.57681586008E+01  0.51100000000E-03 0.  1.
         12    1    3    3    0    0  0.19193110549E+02 -0.55029698335E+01 -0.22136142520E+02  0.29810517862E+02  0.00000000000E+00 0. -1.
</event>
<event>
 7    1  0.6338706E-013  0.5052888E+02  0.7816164E-02  0.1300439E+00
        -11   -1    0    0    0    0  0.00000000000E+00  0.00000000000E+00  0.45593999997E+02  0.45594000000E+02  0.51100000000E-03 0. -1.
         11   -1    0    0    0    0 -0.00000000000E+00 -0.00000000000E+00 -0.45593999997E+02  0.45594000000E+02  0.51100000000E-03 0.  1.
    9900012    2    1    2    0    0  0.10852093781E+02  0.13244869390E+02  0.36877763432E+02  0.50528881216E+02  0.30000064943E+02 0.  0.
        -12    1    1    2    0    0 -0.10852093781E+02 -0.13244869390E+02 -0.36877763432E+02  0.40659118784E+02  0.00000000000E+00 0.  1.
         11    1    3    3    0    0 -0.23987095013E+01  0.12528789172E+02  0.18881864216E+02  0.22787039340E+02  0.51100000000E-03 0. -1.
        -11    1    3    3    0    0  0.11239928901E+02  0.67640391647E+01  0.16702875619E+02  0.21238509405E+02  0.51100000000E-03 0.  1.
        -12    1    3    3    0    0  0.20108743813E+01 -0.60479589466E+01  0.12930235969E+01  0.65033324703E+01  0.00000000000E+00 0.  1.
</event>
<event>
 7    1  0.5839176E-013  0.5052885E+02  0.7816164E-02  0.1300439E+00
        -11   -1    0    0    0    0  0.00000000000E+00  0.00000000000E+00  0.45593999997E+02  0.45594000000E+02  0.51100000000E-03 0. -1.
         11   -1    0    0    0    0 -0.00000000000E+00 -0.00000000000E+00 -0.45593999997E+02  0.45594000000E+02  0.51100000000E-03 0.  1.
    9900012    2    1    2    0    0 -0.13842830832E+02  0.38040469924E+02  0.38033072302E+01  0.50528850189E+02  0.29999970635E+02 0.  0.
        -12    1    1    2    0    0  0.13842830832E+02 -0.38040469924E+02 -0.38033072302E+01  0.40659149811E+02  0.00000000000E+00 0.  1.
         11    1    3    3    0    0 -0.12078569389E+02  0.30366712040E+02 -0.15958292346E+01  0.32719653266E+02  0.51100000000E-03 0. -1.
        -11    1    3    3    0    0 -0.97835029125E+00  0.10397044724E+02 -0.13110310637E+01  0.10524947078E+02  0.51100000000E-03 0.  1.
        -12    1    3    3    0    0 -0.78591115162E+00 -0.27232868404E+01  0.67101675285E+01  0.72842498457E+01  0.00000000000E+00 0.  1.
</event>
<event>
 7    1  0.5839176E-013  0.5052886E+02  0.7816164E-02  0.1300439E+00
        -11   -1    0    0    0    0  0.00000000000E+00  0.00000000000E+00  0.45593999997E+02  0.45594000000E+02  0.51100000000E-03 0.  1.
         11   -1    0    0    0    0 -0.00000000000E+00 -0.00000000000E+00 -0.45593999997E+02  0.45594000000E+02  0.51100000000E-03 0. -1.
    9900012    2    1    2    0    0  0.35039469078E+02 -0.88391224537E+01 -0.18635219163E+02  0.50528857458E+02  0.29999992728E+02 0.  0.
        -12    1    1    2    0    0 -0.35039469078E+02  0.88391224537E+01  0.18635219163E+02  0.40659142542E+02  0.00000000000E+00 0.  1.
         11    1    3    3    0    0 -0.27170562249E+01  0.48778657794E+00  0.17035665799E+01  0.32438356352E+01  0.51100000000E-03 0. -1.
        -11    1    3    3    0    0 -0.15594482253E+01 -0.23117804917E+00 -0.29475036182E+01  0.33426187187E+01  0.51100000000E-03 0.  1.
         12    1    3    3    0    0  0.39315973528E+02 -0.90957309825E+01 -0.17391282125E+02  0.43942403104E+02  0.00000000000E+00 0. -1.
</event>
<event>
 7    1  0.5839176E-013  0.5052887E+02  0.7816164E-02  0.1300439E+00
        -11   -1    0    0    0    0  0.00000000000E+00  0.00000000000E+00  0.45593999997E+02  0.45594000000E+02  0.51100000000E-03 0.  1.
         11   -1    0    0    0    0 -0.00000000000E+00 -0.00000000000E+00 -0.45593999997E+02  0.45594000000E+02  0.51100000000E-03 0. -1.
    9900012    2    1    2    0    0 -0.26095364974E+02 -0.21442975754E+02 -0.22636161600E+02  0.50528867025E+02  0.30000021810E+02 0.  0.
        -12    1    1    2    0    0  0.26095364974E+02  0.21442975754E+02  0.22636161600E+02  0.40659132975E+02  0.00000000000E+00 0.  1.
         11    1    3    3    0    0  0.28099882170E-01 -0.17341468949E+01 -0.55727804437E+01  0.58364318887E+01  0.51100000000E-03 0. -1.
        -11    1    3    3    0    0  0.47171989151E+01 -0.40535724874E-01 -0.16253747609E+01  0.49895342592E+01  0.51100000000E-03 0.  1.
         12    1    3    3    0    0 -0.30840663771E+02 -0.19668293134E+02 -0.15438006395E+02  0.39702900877E+02  0.00000000000E+00 0. -1.
</event>
<event>
 7    1  0.5839176E-013  0.5052887E+02  0.7816164E-02  0.1300439E+00
        -11   -1    0    0    0    0  0.00000000000E+00  0.00000000000E+00  0.45593999997E+02  0.45594000000E+02  0.51100000000E-03 0.  1.
         11   -1    0    0    0    0 -0.00000000000E+00 -0.00000000000E+00 -0.45593999997E+02  0.45594000000E+02  0.51100000000E-03 0. -1.
    9900012    2    1    2    0    0 -0.24780866980E+02 -0.17145332501E+02 -0.27296724544E+02  0.50528868607E+02  0.30000026616E+02 0.  0.
        -12    1    1    2    0    0  0.24780866980E+02  0.17145332501E+02  0.27296724544E+02  0.40659131393E+02  0.00000000000E+00 0.  1.
         11    1    3    3    0    0 -0.16901376994E+02 -0.22865533898E+02 -0.20932863379E+02  0.35308270338E+02  0.51100000000E-03 0. -1.
        -11    1    3    3    0    0 -0.26648709403E+01  0.36503149404E+01 -0.81614166875E+01  0.93292582182E+01  0.51100000000E-03 0.  1.
        -12    1    3    3    0    0 -0.52146190455E+01  0.20698864560E+01  0.17975555233E+01  0.58913400504E+01  0.00000000000E+00 0.  1.
</event>
<event>
 7    1  0.5839176E-013  0.5052885E+02  0.7816164E-02  0.1300439E+00
        -11   -1    0    0    0    0  0.00000000000E+00  0.00000000000E+00  0.45593999997E+02  0.45594000000E+02  0.51100000000E-03 0.  1.
         11   -1    0    0    0    0 -0.00000000000E+00 -0.00000000000E+00 -0.45593999997E+02  0.45594000000E+02  0.51100000000E-03 0. -1.
    9900012    2    1    2    0    0 -0.11642459258E+02  0.26079313569E+01 -0.38869246547E+02  0.50528849853E+02  0.29999969613E+02 0.  0.
        -12    1    1    2    0    0  0.11642459258E+02 -0.26079313569E+01  0.38869246547E+02  0.40659150147E+02  0.00000000000E+00 0.  1.
         11    1    3    3    0    0 -0.19003944702E+01  0.29534980052E+01 -0.72279775182E+01  0.80360630208E+01  0.51100000000E-03 0. -1.
        -11    1    3    3    0    0 -0.15106592571E+02 -0.47569813573E+01 -0.31821558257E+02  0.35545035953E+02  0.51100000000E-03 0.  1.
        -12    1    3    3    0    0  0.53645277829E+01  0.44114147090E+01  0.18028922835E+00  0.69477508788E+01  0.00000000000E+00 0.  1.
</event>
<event>
 7    1  0.5839176E-013  0.5052886E+02  0.7816164E-02  0.1300439E+00
        -11   -1    0    0    0    0  0.00000000000E+00  0.00000000000E+00  0.45593999997E+02  0.45594000000E+02  0.51100000000E-03 0.  1.
         11   -1    0    0    0    0 -0.00000000000E+00 -0.00000000000E+00 -0.45593999997E+02  0.45594000000E+02  0.51100000000E-03 0. -1.
    9900012    2    1    2    0    0  0.30641917552E+02 -0.18652131890E+02 -0.19139913978E+02  0.50528862744E+02  0.30000008797E+02 0.  0.
        -12    1    1    2    0    0 -0.30641917552E+02  0.18652131890E+02  0.19139913978E+02  0.40659137256E+02  0.00000000000E+00 0.  1.
         11    1    3    3    0    0  0.88042594802E+01 -0.95282112291E+01  0.12076377304E+01  0.13029205017E+02  0.51100000000E-03 0. -1.
        -11    1    3    3    0    0  0.10443490303E+01 -0.10048437658E+02 -0.34020206176E+01  0.10659995723E+02  0.51100000000E-03 0.  1.
         12    1    3    3    0    0  0.20793309042E+02  0.92451699720E+00 -0.16945531090E+02  0.26839662004E+02  0.00000000000E+00 0. -1.
</event>
<event>
 7    1  0.5839176E-013  0.5052886E+02  0.7816164E-02  0.1300439E+00
        -11   -1    0    0    0    0  0.00000000000E+00  0.00000000000E+00  0.45593999997E+02  0.45594000000E+02  0.51100000000E-03 0.  1.
         11   -1    0    0    0    0 -0.00000000000E+00 -0.00000000000E+00 -0.45593999997E+02  0.45594000000E+02  0.51100000000E-03 0. -1.
    9900012    2    1    2    0    0 -0.33162293013E+02  0.31194742986E+01  0.23317306428E+02  0.50528861091E+02  0.30000003772E+02 0.  0.
        -12    1    1    2    0    0  0.33162293013E+02 -0.31194742986E+01 -0.23317306428E+02  0.40659138909E+02  0.00000000000E+00 0.  1.
         11    1    3    3    0    0 -0.11720148655E+02  0.44477387435E+01  0.61434522168E+01  0.13960167256E+02  0.51100000000E-03 0. -1.
        -11    1    3    3    0    0 -0.19034220397E+02  0.83225873889E+01  0.16623910592E+02  0.26606792565E+02  0.51100000000E-03 0.  1.
        -12    1    3    3    0    0 -0.24079239615E+01 -0.96508518339E+01  0.54994361896E+00  0.99619012697E+01  0.00000000000E+00 0.  1.
</event>
<event>
 7    1  0.5839176E-013  0.5052883E+02  0.7816164E-02  0.1300439E+00
        -11   -1    0    0    0    0  0.00000000000E+00  0.00000000000E+00  0.45593999997E+02  0.45594000000E+02  0.51100000000E-03 0.  1.
         11   -1    0    0    0    0 -0.00000000000E+00 -0.00000000000E+00 -0.45593999997E+02  0.45594000000E+02  0.51100000000E-03 0. -1.
    9900012    2    1    2    0    0 -0.33383286407E+01  0.19156994521E+02 -0.35707611181E+02  0.50528826700E+02  0.29999899238E+02 0.  0.
        -12    1    1    2    0    0  0.33383286407E+01 -0.19156994521E+02  0.35707611181E+02  0.40659173300E+02  0.00000000000E+00 0.  1.
         11    1    3    3    0    0 -0.38537462245E+01  0.15517681840E+02 -0.22929817716E+02  0.27954004193E+02  0.51100000000E-03 0. -1.
        -11    1    3    3    0    0 -0.45052191977E+01  0.36999450193E+01 -0.15712441898E+02  0.16759099732E+02  0.51100000000E-03 0.  1.
        -12    1    3    3    0    0  0.50206367814E+01 -0.60632338110E-01  0.29346484336E+01  0.58157227754E+01  0.00000000000E+00 0.  1.
</event>
<event>
 7    1  0.5839176E-013  0.5052892E+02  0.7816164E-02  0.1300439E+00
        -11   -1    0    0    0    0  0.00000000000E+00  0.00000000000E+00  0.45593999997E+02  0.45594000000E+02  0.51100000000E-03 0.  1.
         11   -1    0    0    0    0 -0.00000000000E+00 -0.00000000000E+00 -0.45593999997E+02  0.45594000000E+02  0.51100000000E-03 0. -1.
    9900012    2    1    2    0    0 -0.92893293038E+01  0.21165145469E+02 -0.33450046909E+02  0.50528921556E+02  0.30000187562E+02 0.  0.
        -12    1    1    2    0    0  0.92893293038E+01 -0.21165145469E+02  0.33450046909E+02  0.40659078444E+02  0.00000000000E+00 0.  1.
         11    1    3    3    0    0 -0.83303084839E+01  0.17119280784E+02 -0.16329456909E+02  0.25082164524E+02  0.51100000000E-03 0.  1.
        -11    1    3    3    0    0 -0.92809998713E+01  0.43030629166E+01 -0.72769634960E+01  0.12554182851E+02  0.51100000000E-03 0. -1.
         12    1    3    3    0    0  0.83219790514E+01 -0.25719823192E+00 -0.98436265043E+01  0.12892574181E+02  0.00000000000E+00 0. -1.
</event>
<event>
 7    1  0.5839176E-013  0.5052885E+02  0.7816164E-02  0.1300439E+00
        -11   -1    0    0    0    0  0.00000000000E+00  0.00000000000E+00  0.45593999997E+02  0.45594000000E+02  0.51100000000E-03 0.  1.
         11   -1    0    0    0    0 -0.00000000000E+00 -0.00000000000E+00 -0.45593999997E+02  0.45594000000E+02  0.51100000000E-03 0. -1.
    9900012    2    1    2    0    0 -0.78971220376E+00  0.40003260652E+01 -0.40454169374E+02  0.50528854980E+02  0.29999985198E+02 0.  0.
        -12    1    1    2    0    0  0.78971220376E+00 -0.40003260652E+01  0.40454169374E+02  0.40659145020E+02  0.00000000000E+00 0.  1.
         11    1    3    3    0    0  0.32607109523E+01 -0.17447701030E+00 -0.12450085583E+02  0.12871181353E+02  0.51100000000E-03 0. -1.
        -11    1    3    3    0    0  0.90039902215E+01  0.39131676783E+01 -0.20165662854E+02  0.22428523798E+02  0.51100000000E-03 0.  1.
        -12    1    3    3    0    0 -0.13054413378E+02  0.26163539717E+00 -0.78384209370E+01  0.15229149828E+02  0.00000000000E+00 0.  1.
</event>
<event>
 7    1  0.5839176E-013  0.5052886E+02  0.7816164E-02  0.1300439E+00
        -11   -1    0    0    0    0  0.00000000000E+00  0.00000000000E+00  0.45593999997E+02  0.45594000000E+02  0.51100000000E-03 0.  1.
         11   -1    0    0    0    0 -0.00000000000E+00 -0.00000000000E+00 -0.45593999997E+02  0.45594000000E+02  0.51100000000E-03 0. -1.
    9900012    2    1    2    0    0  0.48791850356E+01 -0.34736806914E+02 -0.20560000062E+02  0.50528858301E+02  0.29999995292E+02 0.  0.
        -12    1    1    2    0    0 -0.48791850356E+01  0.34736806914E+02  0.20560000062E+02  0.40659141699E+02  0.00000000000E+00 0.  1.
         11    1    3    3    0    0  0.14175213866E+02 -0.17995084820E+02 -0.49992590414E+01  0.23446798440E+02  0.51100000000E-03 0. -1.
        -11    1    3    3    0    0  0.16534119265E+01  0.48151824182E+00 -0.82700361357E+00  0.19103837452E+01  0.51100000000E-03 0.  1.
         12    1    3    3    0    0 -0.10949440757E+02 -0.17223240335E+02 -0.14733737407E+02  0.25171676116E+02  0.00000000000E+00 0. -1.
</event>
<event>
 7    1  0.5839176E-013  0.5052886E+02  0.7816164E-02  0.1300439E+00
        -11   -1    0    0    0    0  0.00000000000E+00  0.00000000000E+00  0.45593999997E+02  0.45594000000E+02  0.51100000000E-03 0.  1.
         11   -1    0    0    0    0 -0.00000000000E+00 -0.00000000000E+00 -0.45593999997E+02  0.45594000000E+02  0.51100000000E-03 0. -1.
    9900012    2    1    2    0    0  0.21396115689E+02 -0.88485628087E+01 -0.33422670685E+02  0.50528859010E+02  0.29999997445E+02 0.  0.
        -12    1    1    2    0    0 -0.21396115689E+02  0.88485628087E+01  0.33422670685E+02  0.40659140990E+02  0.00000000000E+00 0.  1.
         11    1    3    3    0    0  0.44785806344E+00 -0.24121497987E+01 -0.40403053172E+00  0.24864200023E+01  0.51100000000E-03 0. -1.
        -11    1    3    3    0    0 -0.14736744166E+01  0.41800821871E+01  0.22120051430E+01  0.49535613846E+01  0.51100000000E-03 0.  1.
         12    1    3    3    0    0  0.22421932042E+02 -0.10616495197E+02 -0.35230645296E+02  0.43088877623E+02  0.00000000000E+00 0. -1.
</event>
<event>
 7    1  0.5839176E-013  0.5052885E+02  0.7816164E-02  0.1300439E+00
        -11   -1    0    0    0    0  0.00000000000E+00  0.00000000000E+00  0.45593999997E+02  0.45594000000E+02  0.51100000000E-03 0.  1.
         11   -1    0    0    0    0 -0.00000000000E+00 -0.00000000000E+00 -0.45593999997E+02  0.45594000000E+02  0.51100000000E-03 0. -1.
    9900012    2    1    2    0    0  0.87940812795E+01  0.30447192436E+02 -0.25471537167E+02  0.50528848528E+02  0.29999965585E+02 0.  0.
        -12    1    1    2    0    0 -0.87940812795E+01 -0.30447192436E+02  0.25471537167E+02  0.40659151472E+02  0.00000000000E+00 0.  1.
         11    1    3    3    0    0  0.10313349306E+02  0.58480239118E+01 -0.39160047850E+01  0.12485978188E+02  0.51100000000E-03 0. -1.
        -11    1    3    3    0    0  0.21777400238E+01  0.25770603984E+02 -0.13664600302E+02  0.29250433894E+02  0.51100000000E-03 0.  1.
         12    1    3    3    0    0 -0.36970080499E+01 -0.11714354605E+01 -0.78909320800E+01  0.87924364456E+01  0.00000000000E+00 0. -1.
</event>
<event>
 7    1  0.5839176E-013  0.5052885E+02  0.7816164E-02  0.1300439E+00
        -11   -1    0    0    0    0  0.00000000000E+00  0.00000000000E+00  0.45593999997E+02  0.45594000000E+02  0.51100000000E-03 0. -1.
         11   -1    0    0    0    0 -0.00000000000E+00 -0.00000000000E+00 -0.45593999997E+02  0.45594000000E+02  0.51100000000E-03 0.  1.
    9900012    2    1    2    0    0 -0.24325169677E+02 -0.32427104322E+02  0.31521090816E+01  0.50528846465E+02  0.29999959316E+02 0.  0.
        -12    1    1    2    0    0  0.24325169677E+02  0.32427104322E+02 -0.31521090816E+01  0.40659153535E+02  0.00000000000E+00 0.  1.
         11    1    3    3    0    0 -0.15930437352E+02 -0.34037367713E+02 -0.23298985892E+01  0.37653016648E+02  0.51100000000E-03 0. -1.
        -11    1    3    3    0    0 -0.45641965148E+00  0.31952327714E+00  0.47693187589E+01  0.48017513168E+01  0.51100000000E-03 0.  1.
        -12    1    3    3    0    0 -0.79383126733E+01  0.12907401137E+01  0.71268891193E+00  0.80740785001E+01  0.00000000000E+00 0.  1.
</event>
<event>
 7    1  0.5839176E-013  0.5052886E+02  0.7816164E-02  0.1300439E+00
        -11   -1    0    0    0    0  0.00000000000E+00  0.00000000000E+00  0.45593999997E+02  0.45594000000E+02  0.51100000000E-03 0. -1.
         11   -1    0    0    0    0 -0.00000000000E+00 -0.00000000000E+00 -0.45593999997E+02  0.45594000000E+02  0.51100000000E-03 0.  1.
    9900012    2    1    2    0    0 -0.86777585790E+01  0.37121540188E+02 -0.14136962591E+02  0.50528856487E+02  0.29999989779E+02 0.  0.
        -12    1    1    2    0    0  0.86777585790E+01 -0.37121540188E+02  0.14136962591E+02  0.40659143513E+02  0.00000000000E+00 0.  1.
         11    1    3    3    0    0  0.83388033584E+00  0.18110368101E+00  0.32400441714E+01  0.33505285331E+01  0.51100000000E-03 0. -1.
        -11    1    3    3    0    0 -0.12154002589E+02  0.18497691159E+02 -0.65424483354E+00  0.22142998752E+02  0.51100000000E-03 0.  1.
        -12    1    3    3    0    0  0.26423636741E+01  0.18442745348E+02 -0.16722761929E+02  0.25035329203E+02  0.00000000000E+00 0.  1.
</event>
<event>
 7    1  0.5839176E-013  0.5052886E+02  0.7816164E-02  0.1300439E+00
        -11   -1    0    0    0    0  0.00000000000E+00  0.00000000000E+00  0.45593999997E+02  0.45594000000E+02  0.51100000000E-03 0. -1.
         11   -1    0    0    0    0 -0.00000000000E+00 -0.00000000000E+00 -0.45593999997E+02  0.45594000000E+02  0.51100000000E-03 0.  1.
    9900012    2    1    2    0    0  0.25050550140E+02 -0.29687042024E+02  0.12013110392E+02  0.50528863908E+02  0.30000012335E+02 0.  0.
        -12    1    1    2    0    0 -0.25050550140E+02  0.29687042024E+02 -0.12013110392E+02  0.40659136092E+02  0.00000000000E+00 0.  1.
         11    1    3    3    0    0  0.13020333884E+02 -0.22442341411E+02 -0.24705154937E+01  0.26063216024E+02  0.51100000000E-03 0. -1.
        -11    1    3    3    0    0  0.25438488939E+01 -0.57465329344E+01 -0.88153761204E+00  0.63459370296E+01  0.51100000000E-03 0.  1.
        -12    1    3    3    0    0  0.94863673622E+01 -0.14981676784E+01  0.15365163498E+02  0.18119710854E+02  0.00000000000E+00 0.  1.
</event>
<event>
 7    1  0.5839176E-013  0.5052886E+02  0.7816164E-02  0.1300439E+00
        -11   -1    0    0    0    0  0.00000000000E+00  0.00000000000E+00  0.45593999997E+02  0.45594000000E+02  0.51100000000E-03 0. -1.
         11   -1    0    0    0    0 -0.00000000000E+00 -0.00000000000E+00 -0.45593999997E+02  0.45594000000E+02  0.51100000000E-03 0.  1.
    9900012    2    1    2    0    0  0.35726038486E+02  0.13903969555E+02  0.13546053101E+02  0.50528858963E+02  0.29999997303E+02 0.  0.
        -12    1    1    2    0    0 -0.35726038486E+02 -0.13903969555E+02 -0.13546053101E+02  0.40659141037E+02  0.00000000000E+00 0.  1.
         11    1    3    3    0    0  0.29759836701E+01 -0.59133572320E+01 -0.16943405273E+01  0.68333785671E+01  0.51100000000E-03 0.  1.
        -11    1    3    3    0    0  0.74346845200E+01  0.15613501984E+01 -0.22428282829E+01  0.79210243859E+01  0.51100000000E-03 0. -1.
         12    1    3    3    0    0  0.25315370296E+02  0.18255976589E+02  0.17483221911E+02  0.35774456010E+02  0.00000000000E+00 0. -1.
</event>
<event>
 7    1  0.5839176E-013  0.5052886E+02  0.7816164E-02  0.1300439E+00
        -11   -1    0    0    0    0  0.00000000000E+00  0.00000000000E+00  0.45593999997E+02  0.45594000000E+02  0.51100000000E-03 0. -1.
         11   -1    0    0    0    0 -0.00000000000E+00 -0.00000000000E+00 -0.45593999997E+02  0.45594000000E+02  0.51100000000E-03 0.  1.
    9900012    2    1    2    0    0 -0.30080924534E+02 -0.17782693824E+02  0.20786516651E+02  0.50528862098E+02  0.30000006832E+02 0.  0.
        -12    1    1    2    0    0  0.30080924534E+02  0.17782693824E+02 -0.20786516651E+02  0.40659137902E+02  0.00000000000E+00 0.  1.
         11    1    3    3    0    0 -0.16539328557E+02 -0.16680926857E+02  0.20184648812E+02  0.30971321538E+02  0.51100000000E-03 0. -1.
        -11    1    3    3    0    0 -0.22497095103E+01 -0.60129876465E+00  0.64312626544E+01  0.68398751945E+01  0.51100000000E-03 0.  1.
         12    1    3    3    0    0 -0.11291886467E+02 -0.50046820246E+00 -0.58293948156E+01  0.12717665365E+02  0.00000000000E+00 0. -1.
</event>
<event>
 7    1  0.5839176E-013  0.5052888E+02  0.7816164E-02  0.1300439E+00
        -11   -1    0    0    0    0  0.00000000000E+00  0.00000000000E+00  0.45593999997E+02  0.45594000000E+02  0.51100000000E-03 0.  1.
         11   -1    0    0    0    0 -0.00000000000E+00 -0.00000000000E+00 -0.45593999997E+02  0.45594000000E+02  0.51100000000E-03 0. -1.
    9900012    2    1    2    0    0 -0.85634708138E+01  0.67303344111E+01 -0.39173124266E+02  0.50528879271E+02  0.30000059032E+02 0.  0.
        -12    1    1    2    0    0  0.85634708138E+01 -0.67303344111E+01  0.39173124266E+02  0.40659120729E+02  0.00000000000E+00 0.  1.
         11    1    3    3    0    0 -0.65069396138E+00 -0.69603410371E+01 -0.71384038994E+01  0.99913242604E+01  0.51100000000E-03 0. -1.
        -11    1    3    3    0    0 -0.60360027447E+00 -0.44672977083E+01 -0.10553305970E+02  0.11475772273E+02  0.51100000000E-03 0.  1.
        -12    1    3    3    0    0 -0.73091765780E+01  0.18157973156E+02 -0.21481414396E+02  0.29061782737E+02  0.00000000000E+00 0.  1.
</event>
<event>
 7    1  0.5839176E-013  0.5052887E+02  0.7816164E-02  0.1300439E+00
        -11   -1    0    0    0    0  0.00000000000E+00  0.00000000000E+00  0.45593999997E+02  0.45594000000E+02  0.51100000000E-03 0.  1.
         11   -1    0    0    0    0 -0.00000000000E+00 -0.00000000000E+00 -0.45593999997E+02  0.45594000000E+02  0.51100000000E-03 0. -1.
    9900012    2    1    2    0    0  0.20331663436E+02 -0.18601017702E+02 -0.29896330563E+02  0.50528868445E+02  0.30000026127E+02 0.  0.
        -12    1    1    2    0    0 -0.20331663436E+02  0.18601017702E+02  0.29896330563E+02  0.40659131555E+02  0.00000000000E+00 0.  1.
         11    1    3    3    0    0  0.54379789371E-02 -0.24924721038E+00  0.10816005640E+01  0.11099611635E+01  0.51100000000E-03 0.  1.
        -11    1    3    3    0    0  0.90100321607E+01 -0.23908950059E+02 -0.23766308688E+02  0.34894928018E+02  0.51100000000E-03 0. -1.
         12    1    3    3    0    0  0.11316193296E+02  0.55571795670E+01 -0.72116224390E+01  0.14523979264E+02  0.00000000000E+00 0. -1.
</event>
<event>
 7    1  0.5839176E-013  0.5052886E+02  0.7816164E-02  0.1300439E+00
        -11   -1    0    0    0    0  0.00000000000E+00  0.00000000000E+00  0.45593999997E+02  0.45594000000E+02  0.51100000000E-03 0.  1.
         11   -1    0    0    0    0 -0.00000000000E+00 -0.00000000000E+00 -0.45593999997E+02  0.45594000000E+02  0.51100000000E-03 0. -1.
    9900012    2    1    2    0    0  0.18741286034E+02 -0.35871923383E+02  0.38903266129E+01  0.50528864119E+02  0.30000012976E+02 0.  0.
        -12    1    1    2    0    0 -0.18741286034E+02  0.35871923383E+02 -0.38903266129E+01  0.40659135881E+02  0.00000000000E+00 0.  1.
         11    1    3    3    0    0  0.29441615044E+01 -0.14080183891E+02 -0.44040652811E+01  0.15043784651E+02  0.51100000000E-03 0. -1.
        -11    1    3    3    0    0  0.24657436166E+01 -0.17659716208E+02  0.11430244070E+02  0.21180083755E+02  0.51100000000E-03 0.  1.
        -12    1    3    3    0    0  0.13331380913E+02 -0.41320232846E+01 -0.31358521759E+01  0.14304995713E+02  0.00000000000E+00 0.  1.
</event>
<event>
 7    1  0.5839176E-013  0.5052887E+02  0.7816164E-02  0.1300439E+00
        -11   -1    0    0    0    0  0.00000000000E+00  0.00000000000E+00  0.45593999997E+02  0.45594000000E+02  0.51100000000E-03 0.  1.
         11   -1    0    0    0    0 -0.00000000000E+00 -0.00000000000E+00 -0.45593999997E+02  0.45594000000E+02  0.51100000000E-03 0. -1.
    9900012    2    1    2    0    0 -0.80719414946E+00 -0.21155191899E+02 -0.34712700091E+02  0.50528865057E+02  0.30000015829E+02 0.  0.
        -12    1    1    2    0    0  0.80719414946E+00  0.21155191899E+02  0.34712700091E+02  0.40659134943E+02  0.00000000000E+00 0.  1.
         11    1    3    3    0    0  0.17478325585E+01 -0.22066298342E+02 -0.15990568629E+02  0.27307045364E+02  0.51100000000E-03 0. -1.
        -11    1    3    3    0    0 -0.16970765025E+01 -0.29668337732E+01  0.62209406005E+00  0.34740714693E+01  0.51100000000E-03 0.  1.
         12    1    3    3    0    0 -0.85795020545E+00  0.38779402162E+01 -0.19344225522E+02  0.19747748224E+02  0.00000000000E+00 0. -1.
</event>
<event>
 7    1  0.5839176E-013  0.5052871E+02  0.7816164E-02  0.1300439E+00
        -11   -1    0    0    0    0  0.00000000000E+00  0.00000000000E+00  0.45593999997E+02  0.45594000000E+02  0.51100000000E-03 0.  1.
         11   -1    0    0    0    0 -0.00000000000E+00 -0.00000000000E+00 -0.45593999997E+02  0.45594000000E+02  0.51100000000E-03 0. -1.
    9900012    2    1    2    0    0  0.25958036839E+02  0.10383190744E+02 -0.29521981013E+02  0.50528712138E+02  0.29999551010E+02 0.  0.
        -12    1    1    2    0    0 -0.25958036839E+02 -0.10383190744E+02  0.29521981013E+02  0.40659287862E+02  0.00000000000E+00 0.  1.
         11    1    3    3    0    0  0.83048335355E+01  0.42241122825E+01 -0.21665795400E+02  0.23584318417E+02  0.51100000000E-03 0. -1.
        -11    1    3    3    0    0  0.90309642328E+01  0.12228168719E+02 -0.52554245388E+01  0.16084337491E+02  0.51100000000E-03 0.  1.
         12    1    3    3    0    0  0.86222390706E+01 -0.60690902569E+01 -0.26007610738E+01  0.10860056229E+02  0.00000000000E+00 0. -1.
</event>
<event>
 7    1  0.5839176E-013  0.5052886E+02  0.7816164E-02  0.1300439E+00
        -11   -1    0    0    0    0  0.00000000000E+00  0.00000000000E+00  0.45593999997E+02  0.45594000000E+02  0.51100000000E-03 0.  1.
         11   -1    0    0    0    0 -0.00000000000E+00 -0.00000000000E+00 -0.45593999997E+02  0.45594000000E+02  0.51100000000E-03 0. -1.
    9900012    2    1    2    0    0  0.46717793004E+01  0.34715651342E+02  0.20643729542E+02  0.50528861552E+02  0.30000005173E+02 0.  0.
        -12    1    1    2    0    0 -0.46717793004E+01 -0.34715651342E+02 -0.20643729542E+02  0.40659138448E+02  0.00000000000E+00 0.  1.
         11    1    3    3    0    0  0.14872045981E+01  0.22450101554E+02  0.16490249581E+02  0.27895289366E+02  0.51100000000E-03 0. -1.
        -11    1    3    3    0    0 -0.47006425961E+01  0.70217205215E+01  0.87008228798E+01  0.12128681666E+02  0.51100000000E-03 0.  1.
         12    1    3    3    0    0  0.78852172984E+01  0.52438292662E+01 -0.45473429189E+01  0.10504890520E+02  0.00000000000E+00 0. -1.
</event>
<event>
 7    1  0.5839176E-013  0.5052889E+02  0.7816164E-02  0.1300439E+00
        -11   -1    0    0    0    0  0.00000000000E+00  0.00000000000E+00  0.45593999997E+02  0.45594000000E+02  0.51100000000E-03 0.  1.
         11   -1    0    0    0    0 -0.00000000000E+00 -0.00000000000E+00 -0.45593999997E+02  0.45594000000E+02  0.51100000000E-03 0. -1.
    9900012    2    1    2    0    0 -0.70114013315E+01 -0.85314258222E+01 -0.39130787350E+02  0.50528886706E+02  0.30000081632E+02 0.  0.
        -12    1    1    2    0    0  0.70114013315E+01  0.85314258222E+01  0.39130787350E+02  0.40659113294E+02  0.00000000000E+00 0.  1.
         11    1    3    3    0    0 -0.31893031774E+01  0.33030790975E+01 -0.14683610860E+00  0.45938597482E+01  0.51100000000E-03 0. -1.
        -11    1    3    3    0    0 -0.65632900436E+01 -0.27834800185E+01 -0.15114401343E+01  0.72875914231E+01  0.51100000000E-03 0.  1.
         12    1    3    3    0    0  0.27411918895E+01 -0.90510249013E+01 -0.37472511107E+02  0.38647435535E+02  0.00000000000E+00 0. -1.
</event>
<event>
 7    1  0.5839176E-013  0.5052887E+02  0.7816164E-02  0.1300439E+00
        -11   -1    0    0    0    0  0.00000000000E+00  0.00000000000E+00  0.45593999997E+02  0.45594000000E+02  0.51100000000E-03 0.  1.
         11   -1    0    0    0    0 -0.00000000000E+00 -0.00000000000E+00 -0.45593999997E+02  0.45594000000E+02  0.51100000000E-03 0. -1.
    9900012    2    1    2    0    0  0.53760831247E+01  0.30427030386E+02 -0.26428358517E+02  0.50528873327E+02  0.30000040966E+02 0.  0.
        -12    1    1    2    0    0 -0.53760831247E+01 -0.30427030386E+02  0.26428358517E+02  0.40659126673E+02  0.00000000000E+00 0.  1.
         11    1    3    3    0    0 -0.15393871169E+01  0.21150245073E+02 -0.11096929064E+02  0.23934168342E+02  0.51100000000E-03 0. -1.
        -11    1    3    3    0    0  0.14292716437E+01  0.20512681564E+01  0.42968172527E+01  0.49712329703E+01  0.51100000000E-03 0.  1.
        -12    1    3    3    0    0  0.54861985979E+01  0.72255171568E+01 -0.19628246705E+02  0.21623472015E+02  0.00000000000E+00 0.  1.
</event>
<event>
 7    1  0.5839176E-013  0.5052886E+02  0.7816164E-02  0.1300439E+00
        -11   -1    0    0    0    0  0.00000000000E+00  0.00000000000E+00  0.45593999997E+02  0.45594000000E+02  0.51100000000E-03 0.  1.
         11   -1    0    0    0    0 -0.00000000000E+00 -0.00000000000E+00 -0.45593999997E+02  0.45594000000E+02  0.51100000000E-03 0. -1.
    9900012    2    1    2    0    0 -0.23297434258E+02  0.16927749519E+02 -0.28702731430E+02  0.50528856645E+02  0.29999990259E+02 0.  0.
        -12    1    1    2    0    0  0.23297434258E+02 -0.16927749519E+02  0.28702731430E+02  0.40659143355E+02  0.00000000000E+00 0.  1.
         11    1    3    3    0    0 -0.48142984008E+01  0.88913773051E+01 -0.34654684709E+01  0.10688476573E+02  0.51100000000E-03 0. -1.
        -11    1    3    3    0    0 -0.13233828349E+02  0.15600181227E+02 -0.12003028071E+02  0.23718611894E+02  0.51100000000E-03 0.  1.
         12    1    3    3    0    0 -0.52493075080E+01 -0.75638090125E+01 -0.13234234888E+02  0.16121768178E+02  0.00000000000E+00 0. -1.
</event>
<event>
 7    1  0.5839176E-013  0.5052886E+02  0.7816164E-02  0.1300439E+00
        -11   -1    0    0    0    0  0.00000000000E+00  0.00000000000E+00  0.45593999997E+02  0.45594000000E+02  0.51100000000E-03 0.  1.
         11   -1    0    0    0    0 -0.00000000000E+00 -0.00000000000E+00 -0.45593999997E+02  0.45594000000E+02  0.51100000000E-03 0. -1.
    9900012    2    1    2    0    0 -0.11268190265E+02  0.38993891820E+02 -0.23812048772E+01  0.50528857759E+02  0.29999993644E+02 0.  0.
        -12    1    1    2    0    0  0.11268190265E+02 -0.38993891820E+02  0.23812048772E+01  0.40659142241E+02  0.00000000000E+00 0.  1.
         11    1    3    3    0    0 -0.12332232286E+02  0.86358724426E+01 -0.50264244786E+01  0.15872214379E+02  0.51100000000E-03 0. -1.
        -11    1    3    3    0    0 -0.36902204250E+01  0.29461730964E+02  0.18099074638E+01  0.29747051677E+02  0.51100000000E-03 0.  1.
        -12    1    3    3    0    0  0.47542624454E+01  0.89628841304E+00  0.83531213756E+00  0.49095917026E+01  0.00000000000E+00 0.  1.
</event>
<event>
 7    1  0.5839176E-013  0.5052886E+02  0.7816164E-02  0.1300439E+00
        -11   -1    0    0    0    0  0.00000000000E+00  0.00000000000E+00  0.45593999997E+02  0.45594000000E+02  0.51100000000E-03 0. -1.
         11   -1    0    0    0    0 -0.00000000000E+00 -0.00000000000E+00 -0.45593999997E+02  0.45594000000E+02  0.51100000000E-03 0.  1.
    9900012    2    1    2    0    0  0.39215097711E+01  0.16477711753E+02  0.36963124339E+02  0.50528858539E+02  0.29999996014E+02 0.  0.
        -12    1    1    2    0    0 -0.39215097711E+01 -0.16477711753E+02 -0.36963124339E+02  0.40659141461E+02  0.00000000000E+00 0.  1.
         11    1    3    3    0    0 -0.35962598756E+01  0.18539707394E+01  0.48749810712E+01  0.63352768922E+01  0.51100000000E-03 0.  1.
        -11    1    3    3    0    0  0.54805602406E+00  0.86588142213E+01  0.33770205412E+02  0.34866921329E+02  0.51100000000E-03 0. -1.
        -12    1    3    3    0    0  0.69697136226E+01  0.59649267919E+01 -0.16820621445E+01  0.93266603171E+01  0.00000000000E+00 0.  1.
</event>
<event>
 7    1  0.5839176E-013  0.5052886E+02  0.7816164E-02  0.1300439E+00
        -11   -1    0    0    0    0  0.00000000000E+00  0.00000000000E+00  0.45593999997E+02  0.45594000000E+02  0.51100000000E-03 0.  1.
         11   -1    0    0    0    0 -0.00000000000E+00 -0.00000000000E+00 -0.45593999997E+02  0.45594000000E+02  0.51100000000E-03 0. -1.
    9900012    2    1    2    0    0 -0.29093888955E+02  0.40158000670E+01 -0.28117337294E+02  0.50528859808E+02  0.29999999872E+02 0.  0.
        -12    1    1    2    0    0  0.29093888955E+02 -0.40158000670E+01  0.28117337294E+02  0.40659140192E+02  0.00000000000E+00 0.  1.
         11    1    3    3    0    0 -0.50427536945E+01 -0.70618015085E+01 -0.71415688607E+00  0.87068034139E+01  0.51100000000E-03 0. -1.
        -11    1    3    3    0    0 -0.11492230788E+02 -0.37271820174E+01 -0.12131244407E+02  0.17121049775E+02  0.51100000000E-03 0.  1.
        -12    1    3    3    0    0 -0.12558904472E+02  0.14804783593E+02 -0.15271936000E+02  0.24701006619E+02  0.00000000000E+00 0.  1.
</event>
<event>
 7    1  0.5839176E-013  0.5052886E+02  0.7816164E-02  0.1300439E+00
        -11   -1    0    0    0    0  0.00000000000E+00  0.00000000000E+00  0.45593999997E+02  0.45594000000E+02  0.51100000000E-03 0. -1.
         11   -1    0    0    0    0 -0.00000000000E+00 -0.00000000000E+00 -0.45593999997E+02  0.45594000000E+02  0.51100000000E-03 0.  1.
    9900012    2    1    2    0    0 -0.13450269664E+02 -0.53853843617E+01  0.37990173840E+02  0.50528862931E+02  0.30000009365E+02 0.  0.
        -12    1    1    2    0    0  0.13450269664E+02  0.53853843617E+01 -0.37990173840E+02  0.40659137069E+02  0.00000000000E+00 0.  1.
         11    1    3    3    0    0 -0.65938209048E+01 -0.21206372071E+01  0.11711163760E+01  0.70247484023E+01  0.51100000000E-03 0. -1.
        -11    1    3    3    0    0 -0.10176650584E+02  0.69561424613E+01  0.21663228008E+02  0.24924838676E+02  0.51100000000E-03 0.  1.
         12    1    3    3    0    0  0.33202018245E+01 -0.10220889616E+02  0.15155829457E+02  0.18579275853E+02  0.00000000000E+00 0. -1.
</event>
<event>
 7    1  0.5839176E-013  0.5052881E+02  0.7816164E-02  0.1300439E+00
        -11   -1    0    0    0    0  0.00000000000E+00  0.00000000000E+00  0.45593999997E+02  0.45594000000E+02  0.51100000000E-03 0. -1.
         11   -1    0    0    0    0 -0.00000000000E+00 -0.00000000000E+00 -0.45593999997E+02  0.45594000000E+02  0.51100000000E-03 0.  1.
    9900012    2    1    2    0    0  0.38858861935E+02 -0.70481198896E+01  0.96686317692E+01  0.50528811799E+02  0.29999853944E+02 0.  0.
        -12    1    1    2    0    0 -0.38858861935E+02  0.70481198896E+01 -0.96686317692E+01  0.40659188201E+02  0.00000000000E+00 0.  1.
         11    1    3    3    0    0  0.49322962519E+01 -0.27448779586E+01  0.24992337941E+01  0.61731735066E+01  0.51100000000E-03 0. -1.
        -11    1    3    3    0    0  0.17221453861E+02 -0.11277229459E+02 -0.65935132792E+01  0.21615475821E+02  0.51100000000E-03 0.  1.
         12    1    3    3    0    0  0.16705111822E+02  0.69739875278E+01  0.13762911254E+02  0.22740162472E+02  0.00000000000E+00 0. -1.
</event>
<event>
 7    1  0.5839176E-013  0.5052886E+02  0.7816164E-02  0.1300439E+00
        -11   -1    0    0    0    0  0.00000000000E+00  0.00000000000E+00  0.45593999997E+02  0.45594000000E+02  0.51100000000E-03 0.  1.
         11   -1    0    0    0    0 -0.00000000000E+00 -0.00000000000E+00 -0.45593999997E+02  0.45594000000E+02  0.51100000000E-03 0. -1.
    9900012    2    1    2    0    0  0.28988085112E+02 -0.27499262082E+02 -0.75264277456E+01  0.50528860706E+02  0.30000002603E+02 0.  0.
        -12    1    1    2    0    0 -0.28988085112E+02  0.27499262082E+02  0.75264277456E+01  0.40659139294E+02  0.00000000000E+00 0.  1.
         11    1    3    3    0    0 -0.27434771205E+01 -0.43451861487E+00 -0.26721934558E+01  0.38543600329E+01  0.51100000000E-03 0.  1.
        -11    1    3    3    0    0  0.53987312919E+01 -0.53768655380E+01 -0.95732987335E+01  0.12235400749E+02  0.51100000000E-03 0. -1.
        -12    1    3    3    0    0  0.26332830941E+02 -0.21687877929E+02  0.47190644437E+01  0.34439099925E+02  0.00000000000E+00 0.  1.
</event>
<event>
 7    1  0.5839176E-013  0.5052887E+02  0.7816164E-02  0.1300439E+00
        -11   -1    0    0    0    0  0.00000000000E+00  0.00000000000E+00  0.45593999997E+02  0.45594000000E+02  0.51100000000E-03 0. -1.
         11   -1    0    0    0    0 -0.00000000000E+00 -0.00000000000E+00 -0.45593999997E+02  0.45594000000E+02  0.51100000000E-03 0.  1.
    9900012    2    1    2    0    0  0.12954206217E+02  0.38524512813E+02 -0.11025469948E+01  0.50528866265E+02  0.30000019500E+02 0.  0.
        -12    1    1    2    0    0 -0.12954206217E+02 -0.38524512813E+02  0.11025469948E+01  0.40659133735E+02  0.00000000000E+00 0.  1.
         11    1    3    3    0    0 -0.26327464377E+01  0.71662047942E+00 -0.15926474582E+00  0.27331784130E+01  0.51100000000E-03 0. -1.
        -11    1    3    3    0    0  0.32499660249E+01 -0.10059819000E+01 -0.58565881719E+01  0.67730276850E+01  0.51100000000E-03 0.  1.
         12    1    3    3    0    0  0.12336986629E+02  0.38813874234E+02  0.49133059228E+01  0.41022660167E+02  0.00000000000E+00 0. -1.
</event>
<event>
 7    1  0.5839176E-013  0.5052887E+02  0.7816164E-02  0.1300439E+00
        -11   -1    0    0    0    0  0.00000000000E+00  0.00000000000E+00  0.45593999997E+02  0.45594000000E+02  0.51100000000E-03 0. -1.
         11   -1    0    0    0    0 -0.00000000000E+00 -0.00000000000E+00 -0.45593999997E+02  0.45594000000E+02  0.51100000000E-03 0.  1.
    9900012    2    1    2    0    0  0.29044308257E-01 -0.40115321770E+02  0.66275945004E+01  0.50528869499E+02  0.30000029328E+02 0.  0.
        -12    1    1    2    0    0 -0.29044308257E-01  0.40115321770E+02 -0.66275945004E+01  0.40659130501E+02  0.00000000000E+00 0.  1.
         11    1    3    3    0    0 -0.31136424685E+01 -0.25860721987E+02  0.89739174594E+01  0.27550007367E+02  0.51100000000E-03 0. -1.
        -11    1    3    3    0    0 -0.30495011723E+01 -0.16077334023E+02 -0.10694654169E+01  0.16398898842E+02  0.51100000000E-03 0.  1.
         12    1    3    3    0    0  0.61921879491E+01  0.18227342403E+01 -0.12768575422E+01  0.65799632894E+01  0.00000000000E+00 0. -1.
</event>
<event>
 7    1  0.5839176E-013  0.5052887E+02  0.7816164E-02  0.1300439E+00
        -11   -1    0    0    0    0  0.00000000000E+00  0.00000000000E+00  0.45593999997E+02  0.45594000000E+02  0.51100000000E-03 0. -1.
         11   -1    0    0    0    0 -0.00000000000E+00 -0.00000000000E+00 -0.45593999997E+02  0.45594000000E+02  0.51100000000E-03 0.  1.
    9900012    2    1    2    0    0 -0.28202631932E+02  0.73614285945E+00  0.29278561812E+02  0.50528873891E+02  0.30000042679E+02 0.  0.
        -12    1    1    2    0    0  0.28202631932E+02 -0.73614285945E+00 -0.29278561812E+02  0.40659126109E+02  0.00000000000E+00 0.  1.
         11    1    3    3    0    0  0.15183727877E+01  0.64019610404E+01  0.15558462880E+02  0.16892493260E+02  0.51100000000E-03 0. -1.
        -11    1    3    3    0    0 -0.33484874350E+01  0.42053262744E+00  0.19748552085E+00  0.33805645364E+01  0.51100000000E-03 0.  1.
         12    1    3    3    0    0 -0.26372517284E+02 -0.60863508084E+01  0.13522613411E+02  0.30255816094E+02  0.00000000000E+00 0. -1.
</event>
<event>
 7    1  0.5839176E-013  0.5052886E+02  0.7816164E-02  0.1300439E+00
        -11   -1    0    0    0    0  0.00000000000E+00  0.00000000000E+00  0.45593999997E+02  0.45594000000E+02  0.51100000000E-03 0.  1.
         11   -1    0    0    0    0 -0.00000000000E+00 -0.00000000000E+00 -0.45593999997E+02  0.45594000000E+02  0.51100000000E-03 0. -1.
    9900012    2    1    2    0    0 -0.38692111751E+02 -0.61350377253E+01 -0.10883357814E+02  0.50528859860E+02  0.30000000030E+02 0.  0.
        -12    1    1    2    0    0  0.38692111751E+02  0.61350377253E+01  0.10883357814E+02  0.40659140140E+02  0.00000000000E+00 0.  1.
         11    1    3    3    0    0 -0.24399090587E+02 -0.12149824946E+02 -0.20932062046E+01  0.27337069707E+02  0.51100000000E-03 0. -1.
        -11    1    3    3    0    0 -0.14872666957E+02  0.37213173434E+01 -0.13567721724E+01  0.15391077161E+02  0.51100000000E-03 0.  1.
        -12    1    3    3    0    0  0.57964579302E+00  0.22934698774E+01 -0.74333794374E+01  0.78007129920E+01  0.00000000000E+00 0.  1.
</event>
<event>
 7    1  0.5839176E-013  0.5052885E+02  0.7816164E-02  0.1300439E+00
        -11   -1    0    0    0    0  0.00000000000E+00  0.00000000000E+00  0.45593999997E+02  0.45594000000E+02  0.51100000000E-03 0. -1.
         11   -1    0    0    0    0 -0.00000000000E+00 -0.00000000000E+00 -0.45593999997E+02  0.45594000000E+02  0.51100000000E-03 0.  1.
    9900012    2    1    2    0    0  0.17196480628E+02 -0.30161628550E+02  0.21159480010E+02  0.50528851250E+02  0.29999973860E+02 0.  0.
        -12    1    1    2    0    0 -0.17196480628E+02  0.30161628550E+02 -0.21159480010E+02  0.40659148750E+02  0.00000000000E+00 0.  1.
         11    1    3    3    0    0  0.10351661384E+02 -0.18235815648E+02  0.36390362063E+01  0.21282491643E+02  0.51100000000E-03 0. -1.
        -11    1    3    3    0    0  0.54665552844E+01 -0.16306554791E+02  0.86354679691E+01  0.19244694415E+02  0.51100000000E-03 0.  1.
         12    1    3    3    0    0  0.13782639603E+01  0.43807418889E+01  0.88849758343E+01  0.10001665192E+02  0.00000000000E+00 0. -1.
</event>
<event>
 7    1  0.5839176E-013  0.5052886E+02  0.7816164E-02  0.1300439E+00
        -11   -1    0    0    0    0  0.00000000000E+00  0.00000000000E+00  0.45593999997E+02  0.45594000000E+02  0.51100000000E-03 0. -1.
         11   -1    0    0    0    0 -0.00000000000E+00 -0.00000000000E+00 -0.45593999997E+02  0.45594000000E+02  0.51100000000E-03 0.  1.
    9900012    2    1    2    0    0  0.30368348746E+02  0.22770328578E+01  0.26939632681E+02  0.50528864579E+02  0.30000014374E+02 0.  0.
        -12    1    1    2    0    0 -0.30368348746E+02 -0.22770328578E+01 -0.26939632681E+02  0.40659135421E+02  0.00000000000E+00 0.  1.
         11    1    3    3    0    0  0.43549081268E+01 -0.60607088237E+01  0.14804991320E+02  0.16579661773E+02  0.51100000000E-03 0. -1.
        -11    1    3    3    0    0  0.43273445721E+01  0.72635498949E+00  0.99353793706E+01  0.10861181617E+02  0.51100000000E-03 0.  1.
        -12    1    3    3    0    0  0.21686096047E+02  0.76113866920E+01  0.21992619904E+01  0.23088021189E+02  0.00000000000E+00 0.  1.
</event>
<event>
 7    1  0.5839176E-013  0.5052892E+02  0.7816164E-02  0.1300439E+00
        -11   -1    0    0    0    0  0.00000000000E+00  0.00000000000E+00  0.45593999997E+02  0.45594000000E+02  0.51100000000E-03 0.  1.
         11   -1    0    0    0    0 -0.00000000000E+00 -0.00000000000E+00 -0.45593999997E+02  0.45594000000E+02  0.51100000000E-03 0. -1.
    9900012    2    1    2    0    0  0.22197493323E+02 -0.33834848196E+02 -0.39541088053E+01  0.50528921817E+02  0.30000188355E+02 0.  0.
        -12    1    1    2    0    0 -0.22197493323E+02  0.33834848196E+02  0.39541088053E+01  0.40659078183E+02  0.00000000000E+00 0.  1.
         11    1    3    3    0    0  0.15805908969E+02 -0.11073273685E+02  0.42265224318E+01  0.19756205115E+02  0.51100000000E-03 0. -1.
        -11    1    3    3    0    0 -0.17810937648E+01  0.18288860174E+01  0.16699737023E+01  0.30505624877E+01  0.51100000000E-03 0.  1.
        -12    1    3    3    0    0  0.81726781188E+01 -0.24590460528E+02 -0.98506049394E+01  0.27722154214E+02  0.00000000000E+00 0.  1.
</event>
<event>
 7    1  0.5839176E-013  0.5052887E+02  0.7816164E-02  0.1300439E+00
        -11   -1    0    0    0    0  0.00000000000E+00  0.00000000000E+00  0.45593999997E+02  0.45594000000E+02  0.51100000000E-03 0.  1.
         11   -1    0    0    0    0 -0.00000000000E+00 -0.00000000000E+00 -0.45593999997E+02  0.45594000000E+02  0.51100000000E-03 0. -1.
    9900012    2    1    2    0    0  0.20880690417E+02  0.18034916119E+02 -0.29864749315E+02  0.50528872078E+02  0.30000037168E+02 0.  0.
        -12    1    1    2    0    0 -0.20880690417E+02 -0.18034916119E+02  0.29864749315E+02  0.40659127922E+02  0.00000000000E+00 0.  1.
         11    1    3    3    0    0  0.50082725984E+01  0.71117791435E+01 -0.10419919489E+02  0.13573316449E+02  0.51100000000E-03 0. -1.
        -11    1    3    3    0    0  0.16015842766E+02  0.17238814065E+02 -0.99422498338E+01  0.25544711036E+02  0.51100000000E-03 0.  1.
        -12    1    3    3    0    0 -0.14342494755E+00 -0.63156770897E+01 -0.95025799931E+01  0.11410844594E+02  0.00000000000E+00 0.  1.
</event>
<event>
 7    1  0.5839176E-013  0.5052886E+02  0.7816164E-02  0.1300439E+00
        -11   -1    0    0    0    0  0.00000000000E+00  0.00000000000E+00  0.45593999997E+02  0.45594000000E+02  0.51100000000E-03 0.  1.
         11   -1    0    0    0    0 -0.00000000000E+00 -0.00000000000E+00 -0.45593999997E+02  0.45594000000E+02  0.51100000000E-03 0. -1.
    9900012    2    1    2    0    0  0.37464017373E+02  0.14771859670E+02 -0.56040345338E+01  0.50528860328E+02  0.30000001451E+02 0.  0.
        -12    1    1    2    0    0 -0.37464017373E+02 -0.14771859670E+02  0.56040345338E+01  0.40659139672E+02  0.00000000000E+00 0.  1.
         11    1    3    3    0    0  0.13892185054E+02  0.50897033274E+01 -0.41242667123E+01  0.15359279335E+02  0.51100000000E-03 0. -1.
        -11    1    3    3    0    0  0.27480183521E+02  0.11905573256E+02 -0.36621576846E+01  0.30171419590E+02  0.51100000000E-03 0.  1.
        -12    1    3    3    0    0 -0.39083512017E+01 -0.22234169134E+01  0.21823898631E+01  0.49981614020E+01  0.00000000000E+00 0.  1.
</event>
<event>
 7    1  0.5839176E-013  0.5052887E+02  0.7816164E-02  0.1300439E+00
        -11   -1    0    0    0    0  0.00000000000E+00  0.00000000000E+00  0.45593999997E+02  0.45594000000E+02  0.51100000000E-03 0.  1.
         11   -1    0    0    0    0 -0.00000000000E+00 -0.00000000000E+00 -0.45593999997E+02  0.45594000000E+02  0.51100000000E-03 0. -1.
    9900012    2    1    2    0    0  0.21229310308E+02 -0.34282035508E+02 -0.52175838312E+01  0.50528871188E+02  0.30000034463E+02 0.  0.
        -12    1    1    2    0    0 -0.21229310308E+02  0.34282035508E+02  0.52175838312E+01  0.40659128812E+02  0.00000000000E+00 0.  1.
         11    1    3    3    0    0  0.21713282215E+02 -0.15833081209E+02 -0.15633889934E+01  0.26918344498E+02  0.51100000000E-03 0. -1.
        -11    1    3    3    0    0  0.48309966705E+01 -0.11703473488E+01  0.68970899110E+00  0.50183603399E+01  0.51100000000E-03 0.  1.
        -12    1    3    3    0    0 -0.53149685772E+01 -0.17278606950E+02 -0.43439038289E+01  0.18592166350E+02  0.00000000000E+00 0.  1.
</event>
<event>
 7    1  0.5839176E-013  0.5052886E+02  0.7816164E-02  0.1300439E+00
        -11   -1    0    0    0    0  0.00000000000E+00  0.00000000000E+00  0.45593999997E+02  0.45594000000E+02  0.51100000000E-03 0.  1.
         11   -1    0    0    0    0 -0.00000000000E+00 -0.00000000000E+00 -0.45593999997E+02  0.45594000000E+02  0.51100000000E-03 0. -1.
    9900012    2    1    2    0    0  0.36733231274E+01 -0.37807516827E+02  0.14500488355E+02  0.50528858420E+02  0.29999995654E+02 0.  0.
        -12    1    1    2    0    0 -0.36733231274E+01  0.37807516827E+02 -0.14500488355E+02  0.40659141580E+02  0.00000000000E+00 0.  1.
         11    1    3    3    0    0 -0.44341419615E+01 -0.86363915287E+01  0.46831996488E+01  0.10778739851E+02  0.51100000000E-03 0. -1.
        -11    1    3    3    0    0 -0.36164474965E+01 -0.20966027906E+02  0.13210538179E+02  0.25043389106E+02  0.51100000000E-03 0.  1.
        -12    1    3    3    0    0  0.11723912585E+02 -0.82050973923E+01 -0.33932494720E+01  0.14706729463E+02  0.00000000000E+00 0.  1.
</event>
<event>
 7    1  0.5839176E-013  0.5052885E+02  0.7816164E-02  0.1300439E+00
        -11   -1    0    0    0    0  0.00000000000E+00  0.00000000000E+00  0.45593999997E+02  0.45594000000E+02  0.51100000000E-03 0.  1.
         11   -1    0    0    0    0 -0.00000000000E+00 -0.00000000000E+00 -0.45593999997E+02  0.45594000000E+02  0.51100000000E-03 0. -1.
    9900012    2    1    2    0    0  0.16165238170E+02  0.30343935872E+02 -0.21704762461E+02  0.50528854869E+02  0.29999984860E+02 0.  0.
        -12    1    1    2    0    0 -0.16165238170E+02 -0.30343935872E+02  0.21704762461E+02  0.40659145131E+02  0.00000000000E+00 0.  1.
         11    1    3    3    0    0  0.90286514992E+00  0.27008545427E+01 -0.48633391293E+01  0.56357651200E+01  0.51100000000E-03 0. -1.
        -11    1    3    3    0    0 -0.31012113270E+01 -0.35272344940E+01 -0.49203728057E+01  0.68021293489E+01  0.51100000000E-03 0.  1.
        -12    1    3    3    0    0  0.18363584347E+02  0.31170315823E+02 -0.11921050526E+02  0.38090960400E+02  0.00000000000E+00 0.  1.
</event>
<event>
 7    1  0.5839176E-013  0.5052886E+02  0.7816164E-02  0.1300439E+00
        -11   -1    0    0    0    0  0.00000000000E+00  0.00000000000E+00  0.45593999997E+02  0.45594000000E+02  0.51100000000E-03 0.  1.
         11   -1    0    0    0    0 -0.00000000000E+00 -0.00000000000E+00 -0.45593999997E+02  0.45594000000E+02  0.51100000000E-03 0. -1.
    9900012    2    1    2    0    0 -0.70678468262E+01 -0.16215885836E+02 -0.36609511895E+02  0.50528858673E+02  0.29999996424E+02 0.  0.
        -12    1    1    2    0    0  0.70678468262E+01  0.16215885836E+02  0.36609511895E+02  0.40659141327E+02  0.00000000000E+00 0.  1.
         11    1    3    3    0    0 -0.43997440968E+01 -0.10792935651E+02 -0.14750397740E+02  0.18799453232E+02  0.51100000000E-03 0. -1.
        -11    1    3    3    0    0 -0.10982710250E+02 -0.27925074128E+01 -0.19729468637E+02  0.22752361527E+02  0.51100000000E-03 0.  1.
        -12    1    3    3    0    0  0.83146075210E+01 -0.26304427715E+01 -0.21296455187E+01  0.89770439142E+01  0.00000000000E+00 0.  1.
</event>
<event>
 7    1  0.5839176E-013  0.5052887E+02  0.7816164E-02  0.1300439E+00
        -11   -1    0    0    0    0  0.00000000000E+00  0.00000000000E+00  0.45593999997E+02  0.45594000000E+02  0.51100000000E-03 0.  1.
         11   -1    0    0    0    0 -0.00000000000E+00 -0.00000000000E+00 -0.45593999997E+02  0.45594000000E+02  0.51100000000E-03 0. -1.
    9900012    2    1    2    0    0 -0.28619036654E+02 -0.28078690788E+02  0.67603979417E+01  0.50528866761E+02  0.30000021008E+02 0.  0.
        -12    1    1    2    0    0  0.28619036654E+02  0.28078690788E+02 -0.67603979417E+01  0.40659133239E+02  0.00000000000E+00 0.  1.
         11    1    3    3    0    0 -0.28457427905E+02 -0.17333923393E+02  0.92045056991E+01  0.34568960479E+02  0.51100000000E-03 0. -1.
        -11    1    3    3    0    0 -0.28571865232E+01  0.84887442147E+00  0.16073592000E+01  0.33864002231E+01  0.51100000000E-03 0.  1.
         12    1    3    3    0    0  0.26955777743E+01 -0.11593641817E+02 -0.40514669575E+01  0.12573506059E+02  0.00000000000E+00 0. -1.
</event>
<event>
 7    1  0.5839176E-013  0.5052886E+02  0.7816164E-02  0.1300439E+00
        -11   -1    0    0    0    0  0.00000000000E+00  0.00000000000E+00  0.45593999997E+02  0.45594000000E+02  0.51100000000E-03 0. -1.
         11   -1    0    0    0    0 -0.00000000000E+00 -0.00000000000E+00 -0.45593999997E+02  0.45594000000E+02  0.51100000000E-03 0.  1.
    9900012    2    1    2    0    0 -0.34637853387E+02 -0.10137391519E+02 -0.18724805583E+02  0.50528856647E+02  0.29999990264E+02 0.  0.
        -12    1    1    2    0    0  0.34637853387E+02  0.10137391519E+02  0.18724805583E+02  0.40659143353E+02  0.00000000000E+00 0.  1.
         11    1    3    3    0    0 -0.16662736154E+02  0.61921901989E+01 -0.14199262254E+01  0.17832727956E+02  0.51100000000E-03 0. -1.
        -11    1    3    3    0    0  0.97845479989E+00 -0.42962427324E+01 -0.93796186631E-01  0.44072523637E+01  0.51100000000E-03 0.  1.
        -12    1    3    3    0    0 -0.18953572034E+02 -0.12033338986E+02 -0.17211083171E+02  0.28288876328E+02  0.00000000000E+00 0.  1.
</event>
<event>
 7    1  0.5839176E-013  0.5052886E+02  0.7816164E-02  0.1300439E+00
        -11   -1    0    0    0    0  0.00000000000E+00  0.00000000000E+00  0.45593999997E+02  0.45594000000E+02  0.51100000000E-03 0.  1.
         11   -1    0    0    0    0 -0.00000000000E+00 -0.00000000000E+00 -0.45593999997E+02  0.45594000000E+02  0.51100000000E-03 0. -1.
    9900012    2    1    2    0    0 -0.34450533382E+02 -0.19113707709E+02 -0.10049526773E+02  0.50528855136E+02  0.29999985671E+02 0.  0.
        -12    1    1    2    0    0  0.34450533382E+02  0.19113707709E+02  0.10049526773E+02  0.40659144864E+02  0.00000000000E+00 0.  1.
         11    1    3    3    0    0 -0.63651374176E+00 -0.18360808326E+01 -0.10247503505E+02  0.10430132833E+02  0.51100000000E-03 0. -1.
        -11    1    3    3    0    0 -0.59754581121E+01 -0.88243954248E+01  0.23922540781E+01  0.10922405143E+02  0.51100000000E-03 0.  1.
         12    1    3    3    0    0 -0.27838561528E+02 -0.84532314518E+01 -0.21942773455E+01  0.29176317160E+02  0.00000000000E+00 0. -1.
</event>
<event>
 7    1  0.5839176E-013  0.5052887E+02  0.7816164E-02  0.1300439E+00
        -11   -1    0    0    0    0  0.00000000000E+00  0.00000000000E+00  0.45593999997E+02  0.45594000000E+02  0.51100000000E-03 0. -1.
         11   -1    0    0    0    0 -0.00000000000E+00 -0.00000000000E+00 -0.45593999997E+02  0.45594000000E+02  0.51100000000E-03 0.  1.
    9900012    2    1    2    0    0  0.16653716914E+02  0.18224548904E+02  0.32306099753E+02  0.50528873705E+02  0.30000042114E+02 0.  0.
        -12    1    1    2    0    0 -0.16653716914E+02 -0.18224548904E+02 -0.32306099753E+02  0.40659126295E+02  0.00000000000E+00 0.  1.
         11    1    3    3    0    0 -0.31278602971E+01  0.99796253078E+01  0.21212957600E+02  0.23650919680E+02  0.51100000000E-03 0. -1.
        -11    1    3    3    0    0  0.84619106539E+01  0.95755598882E+01  0.37419705647E+01  0.13315315357E+02  0.51100000000E-03 0.  1.
        -12    1    3    3    0    0  0.11319666557E+02 -0.13306362921E+01  0.73511715884E+01  0.13562638668E+02  0.00000000000E+00 0.  1.
</event>
<event>
 7    1  0.5839176E-013  0.5052887E+02  0.7816164E-02  0.1300439E+00
        -11   -1    0    0    0    0  0.00000000000E+00  0.00000000000E+00  0.45593999997E+02  0.45594000000E+02  0.51100000000E-03 0. -1.
         11   -1    0    0    0    0 -0.00000000000E+00 -0.00000000000E+00 -0.45593999997E+02  0.45594000000E+02  0.51100000000E-03 0.  1.
    9900012    2    1    2    0    0  0.17143167459E+02  0.36033549912E-01  0.36868357230E+02  0.50528865064E+02  0.30000015848E+02 0.  0.
        -12    1    1    2    0    0 -0.17143167459E+02 -0.36033549912E-01 -0.36868357230E+02  0.40659134936E+02  0.00000000000E+00 0.  1.
         11    1    3    3    0    0 -0.26002101481E+01 -0.13261688347E+01 -0.24407182006E+00  0.29290592187E+01  0.51100000000E-03 0. -1.
        -11    1    3    3    0    0  0.55730256601E+01  0.38552633404E+01 -0.10111128519E+01  0.68515706150E+01  0.51100000000E-03 0.  1.
         12    1    3    3    0    0  0.14170351947E+02 -0.24930609558E+01  0.38123541902E+02  0.40748235230E+02  0.00000000000E+00 0. -1.
</event>
<event>
 7    1  0.5839176E-013  0.5052889E+02  0.7816164E-02  0.1300439E+00
        -11   -1    0    0    0    0  0.00000000000E+00  0.00000000000E+00  0.45593999997E+02  0.45594000000E+02  0.51100000000E-03 0.  1.
         11   -1    0    0    0    0 -0.00000000000E+00 -0.00000000000E+00 -0.45593999997E+02  0.45594000000E+02  0.51100000000E-03 0. -1.
    9900012    2    1    2    0    0 -0.14084371160E+02  0.28580376719E+02 -0.25257783062E+02  0.50528892170E+02  0.30000098240E+02 0.  0.
        -12    1    1    2    0    0  0.14084371160E+02 -0.28580376719E+02  0.25257783062E+02  0.40659107830E+02  0.00000000000E+00 0.  1.
         11    1    3    3    0    0 -0.31248625519E+01  0.21078759735E+02 -0.15649726192E+02  0.26438472121E+02  0.51100000000E-03 0. -1.
        -11    1    3    3    0    0 -0.10347439739E+02  0.80931170378E+01 -0.14244119534E+02  0.19376867500E+02  0.51100000000E-03 0.  1.
         12    1    3    3    0    0 -0.61206886876E+00 -0.59150005408E+00  0.46360626641E+01  0.47135525498E+01  0.00000000000E+00 0. -1.
</event>
<event>
 7    1  0.5839176E-013  0.5052886E+02  0.7816164E-02  0.1300439E+00
        -11   -1    0    0    0    0  0.00000000000E+00  0.00000000000E+00  0.45593999997E+02  0.45594000000E+02  0.51100000000E-03 0.  1.
         11   -1    0    0    0    0 -0.00000000000E+00 -0.00000000000E+00 -0.45593999997E+02  0.45594000000E+02  0.51100000000E-03 0. -1.
    9900012    2    1    2    0    0 -0.87261219648E+01 -0.16093895715E+02 -0.36304363164E+02  0.50528862423E+02  0.30000007820E+02 0.  0.
        -12    1    1    2    0    0  0.87261219648E+01  0.16093895715E+02  0.36304363164E+02  0.40659137577E+02  0.00000000000E+00 0.  1.
         11    1    3    3    0    0  0.43281919276E+01 -0.24970180886E+01 -0.18616151660E+01  0.53323499495E+01  0.51100000000E-03 0. -1.
        -11    1    3    3    0    0  0.60055225104E+01 -0.59255532567E+01 -0.13014652971E+02  0.15509986274E+02  0.51100000000E-03 0.  1.
         12    1    3    3    0    0 -0.19059836403E+02 -0.76713243693E+01 -0.21428095027E+02  0.29686526199E+02  0.00000000000E+00 0. -1.
</event>
<event>
 7    1  0.5839176E-013  0.5052886E+02  0.7816164E-02  0.1300439E+00
        -11   -1    0    0    0    0  0.00000000000E+00  0.00000000000E+00  0.45593999997E+02  0.45594000000E+02  0.51100000000E-03 0.  1.
         11   -1    0    0    0    0 -0.00000000000E+00 -0.00000000000E+00 -0.45593999997E+02  0.45594000000E+02  0.51100000000E-03 0. -1.
    9900012    2    1    2    0    0  0.12494034149E+00 -0.14005004322E+02 -0.38170794038E+02  0.50528864819E+02  0.30000015104E+02 0.  0.
        -12    1    1    2    0    0 -0.12494034149E+00  0.14005004322E+02  0.38170794038E+02  0.40659135181E+02  0.00000000000E+00 0.  1.
         11    1    3    3    0    0 -0.83193883502E+01 -0.14670012416E+02 -0.25307843703E+02  0.30412307377E+02  0.51100000000E-03 0. -1.
        -11    1    3    3    0    0  0.16419936193E+01 -0.42069357387E+01  0.29278558844E+00  0.45255027365E+01  0.51100000000E-03 0.  1.
         12    1    3    3    0    0  0.68023350724E+01  0.48719438334E+01 -0.13155735924E+02  0.15591054706E+02  0.00000000000E+00 0. -1.
</event>
<event>
 7    1  0.5839176E-013  0.5052886E+02  0.7816164E-02  0.1300439E+00
        -11   -1    0    0    0    0  0.00000000000E+00  0.00000000000E+00  0.45593999997E+02  0.45594000000E+02  0.51100000000E-03 0. -1.
         11   -1    0    0    0    0 -0.00000000000E+00 -0.00000000000E+00 -0.45593999997E+02  0.45594000000E+02  0.51100000000E-03 0.  1.
    9900012    2    1    2    0    0  0.60574576306E+01 -0.22457896088E+02  0.33348401547E+02  0.50528858649E+02  0.29999996351E+02 0.  0.
        -12    1    1    2    0    0 -0.60574576306E+01  0.22457896088E+02 -0.33348401547E+02  0.40659141351E+02  0.00000000000E+00 0.  1.
         11    1    3    3    0    0 -0.39426138507E+01  0.24901587765E+01  0.15300992309E+02  0.15995795092E+02  0.51100000000E-03 0. -1.
        -11    1    3    3    0    0  0.12691410815E+01  0.32989104629E+00 -0.10426228836E+01  0.16752939819E+01  0.51100000000E-03 0.  1.
         12    1    3    3    0    0  0.87309303997E+01 -0.25277945911E+02  0.19090032121E+02  0.32857769576E+02  0.00000000000E+00 0. -1.
</event>
<event>
 7    1  0.5839176E-013  0.5052890E+02  0.7816164E-02  0.1300439E+00
        -11   -1    0    0    0    0  0.00000000000E+00  0.00000000000E+00  0.45593999997E+02  0.45594000000E+02  0.51100000000E-03 0.  1.
         11   -1    0    0    0    0 -0.00000000000E+00 -0.00000000000E+00 -0.45593999997E+02  0.45594000000E+02  0.51100000000E-03 0. -1.
    9900012    2    1    2    0    0 -0.22755397101E+02  0.31056203882E+02  0.13071599782E+02  0.50528897481E+02  0.30000114383E+02 0.  0.
        -12    1    1    2    0    0  0.22755397101E+02 -0.31056203882E+02 -0.13071599782E+02  0.40659102519E+02  0.00000000000E+00 0.  1.
         11    1    3    3    0    0 -0.67262861163E+01  0.18803328123E+02  0.12782620560E+02  0.23710830059E+02  0.51100000000E-03 0. -1.
        -11    1    3    3    0    0 -0.29202711301E+01  0.11162017823E+02  0.53578826753E+01  0.12721066480E+02  0.51100000000E-03 0.  1.
         12    1    3    3    0    0 -0.13108839854E+02  0.10908579359E+01 -0.50689034533E+01  0.14097000943E+02  0.00000000000E+00 0. -1.
</event>
<event>
 7    1  0.5839176E-013  0.5052886E+02  0.7816164E-02  0.1300439E+00
        -11   -1    0    0    0    0  0.00000000000E+00  0.00000000000E+00  0.45593999997E+02  0.45594000000E+02  0.51100000000E-03 0. -1.
         11   -1    0    0    0    0 -0.00000000000E+00 -0.00000000000E+00 -0.45593999997E+02  0.45594000000E+02  0.51100000000E-03 0.  1.
    9900012    2    1    2    0    0 -0.30987966204E+02  0.34595711176E+01  0.26094886898E+02  0.50528858298E+02  0.29999995281E+02 0.  0.
        -12    1    1    2    0    0  0.30987966204E+02 -0.34595711176E+01 -0.26094886898E+02  0.40659141702E+02  0.00000000000E+00 0.  1.
         11    1    3    3    0    0 -0.87415525329E+01  0.42169262405E+01  0.18919500252E+02  0.21263694356E+02  0.51100000000E-03 0. -1.
        -11    1    3    3    0    0 -0.18460934301E+02  0.69789384707E+01  0.44506790569E+01  0.20231663841E+02  0.51100000000E-03 0.  1.
         12    1    3    3    0    0 -0.37854793698E+01 -0.77362935936E+01  0.27247075891E+01  0.90335001009E+01  0.00000000000E+00 0. -1.
</event>
<event>
 7    1  0.5839176E-013  0.5052885E+02  0.7816164E-02  0.1300439E+00
        -11   -1    0    0    0    0  0.00000000000E+00  0.00000000000E+00  0.45593999997E+02  0.45594000000E+02  0.51100000000E-03 0.  1.
         11   -1    0    0    0    0 -0.00000000000E+00 -0.00000000000E+00 -0.45593999997E+02  0.45594000000E+02  0.51100000000E-03 0. -1.
    9900012    2    1    2    0    0 -0.31250850294E+01 -0.21575153784E+02 -0.34320735149E+02  0.50528852463E+02  0.29999977547E+02 0.  0.
        -12    1    1    2    0    0  0.31250850294E+01  0.21575153784E+02  0.34320735149E+02  0.40659147537E+02  0.00000000000E+00 0.  1.
         11    1    3    3    0    0  0.47555822008E+01 -0.16695779400E+01 -0.17968346704E+02  0.18661847071E+02  0.51100000000E-03 0. -1.
        -11    1    3    3    0    0 -0.79437368792E+01 -0.40973504268E+01  0.25078370626E+00  0.89417072673E+01  0.51100000000E-03 0.  1.
         12    1    3    3    0    0  0.63069649004E-01 -0.15808225417E+02 -0.16603172151E+02  0.22925298125E+02  0.00000000000E+00 0. -1.
</event>
<event>
 7    1  0.5839176E-013  0.5052886E+02  0.7816164E-02  0.1300439E+00
        -11   -1    0    0    0    0  0.00000000000E+00  0.00000000000E+00  0.45593999997E+02  0.45594000000E+02  0.51100000000E-03 0.  1.
         11   -1    0    0    0    0 -0.00000000000E+00 -0.00000000000E+00 -0.45593999997E+02  0.45594000000E+02  0.51100000000E-03 0. -1.
    9900012    2    1    2    0    0  0.61981478106E+01  0.10685363211E+02 -0.38737213941E+02  0.50528858751E+02  0.29999996659E+02 0.  0.
        -12    1    1    2    0    0 -0.61981478106E+01 -0.10685363211E+02  0.38737213941E+02  0.40659141249E+02  0.00000000000E+00 0.  1.
         11    1    3    3    0    0  0.59274338017E+01 -0.13474070251E+01 -0.36130491234E+00  0.60893775269E+01  0.51100000000E-03 0.  1.
        -11    1    3    3    0    0 -0.38158534127E+01  0.14297269514E+02 -0.36534701013E+02  0.39417724836E+02  0.51100000000E-03 0. -1.
         12    1    3    3    0    0  0.40865674217E+01 -0.22644992772E+01 -0.18412080148E+01  0.50217563882E+01  0.00000000000E+00 0. -1.
</event>
<event>
 7    1  0.5839176E-013  0.5052886E+02  0.7816164E-02  0.1300439E+00
        -11   -1    0    0    0    0  0.00000000000E+00  0.00000000000E+00  0.45593999997E+02  0.45594000000E+02  0.51100000000E-03 0.  1.
         11   -1    0    0    0    0 -0.00000000000E+00 -0.00000000000E+00 -0.45593999997E+02  0.45594000000E+02  0.51100000000E-03 0. -1.
    9900012    2    1    2    0    0  0.10109497277E+02 -0.36019893673E+02  0.15922649236E+02  0.50528862846E+02  0.30000009106E+02 0.  0.
        -12    1    1    2    0    0 -0.10109497277E+02  0.36019893673E+02 -0.15922649236E+02  0.40659137154E+02  0.00000000000E+00 0.  1.
         11    1    3    3    0    0  0.71814655427E+01 -0.16499734601E+02 -0.54152930987E+00  0.18002998180E+02  0.51100000000E-03 0. -1.
        -11    1    3    3    0    0  0.79901972970E+01 -0.21237655616E+02  0.13730528464E+02  0.26521852896E+02  0.51100000000E-03 0.  1.
        -12    1    3    3    0    0 -0.50621655624E+01  0.17174965427E+01  0.27336500815E+01  0.60040117691E+01  0.00000000000E+00 0.  1.
</event>
<event>
 7    1  0.5839176E-013  0.5052886E+02  0.7816164E-02  0.1300439E+00
        -11   -1    0    0    0    0  0.00000000000E+00  0.00000000000E+00  0.45593999997E+02  0.45594000000E+02  0.51100000000E-03 0. -1.
         11   -1    0    0    0    0 -0.00000000000E+00 -0.00000000000E+00 -0.45593999997E+02  0.45594000000E+02  0.51100000000E-03 0.  1.
    9900012    2    1    2    0    0 -0.14612765195E+02  0.12829504228E+02  0.35707654241E+02  0.50528860107E+02  0.30000000783E+02 0.  0.
        -12    1    1    2    0    0  0.14612765195E+02 -0.12829504228E+02 -0.35707654241E+02  0.40659139893E+02  0.00000000000E+00 0.  1.
         11    1    3    3    0    0 -0.13379279762E+02  0.64348793603E+01  0.14489595886E+02  0.20745148554E+02  0.51100000000E-03 0. -1.
        -11    1    3    3    0    0 -0.59862895840E+01  0.11838841825E+02  0.16418010198E+02  0.21107934476E+02  0.51100000000E-03 0.  1.
         12    1    3    3    0    0  0.47528041513E+01 -0.54442169570E+01  0.48000481571E+01  0.86757770767E+01  0.00000000000E+00 0. -1.
</event>
<event>
 7    1  0.5839176E-013  0.5052877E+02  0.7816164E-02  0.1300439E+00
        -11   -1    0    0    0    0  0.00000000000E+00  0.00000000000E+00  0.45593999997E+02  0.45594000000E+02  0.51100000000E-03 0.  1.
         11   -1    0    0    0    0 -0.00000000000E+00 -0.00000000000E+00 -0.45593999997E+02  0.45594000000E+02  0.51100000000E-03 0. -1.
    9900012    2    1    2    0    0 -0.22673081094E+01 -0.15502578178E+02 -0.37519358974E+02  0.50528770863E+02  0.29999729513E+02 0.  0.
        -12    1    1    2    0    0  0.22673081094E+01  0.15502578178E+02  0.37519358974E+02  0.40659229137E+02  0.00000000000E+00 0.  1.
         11    1    3    3    0    0 -0.43661778452E+01 -0.15298334384E+02 -0.12445948092E+02  0.20199113052E+02  0.51100000000E-03 0. -1.
        -11    1    3    3    0    0  0.61686780234E+00 -0.15250102291E+01 -0.27298344202E+02  0.27347866069E+02  0.51100000000E-03 0.  1.
         12    1    3    3    0    0  0.14820019335E+01  0.13207664352E+01  0.22249333210E+01  0.29817917416E+01  0.00000000000E+00 0. -1.
</event>
<event>
 7    1  0.5839176E-013  0.5052878E+02  0.7816164E-02  0.1300439E+00
        -11   -1    0    0    0    0  0.00000000000E+00  0.00000000000E+00  0.45593999997E+02  0.45594000000E+02  0.51100000000E-03 0.  1.
         11   -1    0    0    0    0 -0.00000000000E+00 -0.00000000000E+00 -0.45593999997E+02  0.45594000000E+02  0.51100000000E-03 0. -1.
    9900012    2    1    2    0    0  0.81547177311E+01 -0.24093484017E+02 -0.31720290939E+02  0.50528779021E+02  0.29999754311E+02 0.  0.
        -12    1    1    2    0    0 -0.81547177311E+01  0.24093484017E+02  0.31720290939E+02  0.40659220979E+02  0.00000000000E+00 0.  1.
         11    1    3    3    0    0 -0.82855030828E+01 -0.42857960857E+01 -0.53470700859E+01  0.10752151793E+02  0.51100000000E-03 0. -1.
        -11    1    3    3    0    0  0.82777090852E+01 -0.18860565376E+02 -0.13931417677E+02  0.24866157579E+02  0.51100000000E-03 0.  1.
        -12    1    3    3    0    0  0.81625117287E+01 -0.94712255553E+00 -0.12441803177E+02  0.14910469649E+02  0.00000000000E+00 0.  1.
</event>
<event>
 7    1  0.5839176E-013  0.5052886E+02  0.7816164E-02  0.1300439E+00
        -11   -1    0    0    0    0  0.00000000000E+00  0.00000000000E+00  0.45593999997E+02  0.45594000000E+02  0.51100000000E-03 0.  1.
         11   -1    0    0    0    0 -0.00000000000E+00 -0.00000000000E+00 -0.45593999997E+02  0.45594000000E+02  0.51100000000E-03 0. -1.
    9900012    2    1    2    0    0  0.20791608610E+02  0.51969959268E+01 -0.34552370389E+02  0.50528855214E+02  0.29999985908E+02 0.  0.
        -12    1    1    2    0    0 -0.20791608610E+02 -0.51969959268E+01  0.34552370389E+02  0.40659144786E+02  0.00000000000E+00 0.  1.
         11    1    3    3    0    0  0.10657985077E+02 -0.24141596788E+01 -0.21102263025E+01  0.11129863798E+02  0.51100000000E-03 0. -1.
        -11    1    3    3    0    0  0.81397326428E+01 -0.43154507398E+01 -0.83111638306E+01  0.12407812340E+02  0.51100000000E-03 0.  1.
         12    1    3    3    0    0  0.19938908905E+01  0.11926606345E+02 -0.24130980256E+02  0.26991179076E+02  0.00000000000E+00 0. -1.
</event>
<event>
 7    1  0.5839176E-013  0.5052886E+02  0.7816164E-02  0.1300439E+00
        -11   -1    0    0    0    0  0.00000000000E+00  0.00000000000E+00  0.45593999997E+02  0.45594000000E+02  0.51100000000E-03 0. -1.
         11   -1    0    0    0    0 -0.00000000000E+00 -0.00000000000E+00 -0.45593999997E+02  0.45594000000E+02  0.51100000000E-03 0.  1.
    9900012    2    1    2    0    0  0.32816157557E+02 -0.13489347082E+02  0.19857060931E+02  0.50528861417E+02  0.30000004763E+02 0.  0.
        -12    1    1    2    0    0 -0.32816157557E+02  0.13489347082E+02 -0.19857060931E+02  0.40659138583E+02  0.00000000000E+00 0.  1.
         11    1    3    3    0    0  0.13619723059E+02 -0.27339602844E+01  0.24857141057E+01  0.14112057607E+02  0.51100000000E-03 0.  1.
        -11    1    3    3    0    0  0.24201304054E+02 -0.57419256424E+01  0.14346307307E+02  0.28713922783E+02  0.51100000000E-03 0. -1.
        -12    1    3    3    0    0 -0.50048695558E+01 -0.50134611549E+01  0.30250395183E+01  0.77028810266E+01  0.00000000000E+00 0.  1.
</event>
<event>
 7    1  0.5839176E-013  0.5052886E+02  0.7816164E-02  0.1300439E+00
        -11   -1    0    0    0    0  0.00000000000E+00  0.00000000000E+00  0.45593999997E+02  0.45594000000E+02  0.51100000000E-03 0.  1.
         11   -1    0    0    0    0 -0.00000000000E+00 -0.00000000000E+00 -0.45593999997E+02  0.45594000000E+02  0.51100000000E-03 0. -1.
    9900012    2    1    2    0    0 -0.41620137214E+01  0.15454729908E+01 -0.40416022526E+02  0.50528859308E+02  0.29999998353E+02 0.  0.
        -12    1    1    2    0    0  0.41620137214E+01 -0.15454729908E+01  0.40416022526E+02  0.40659140692E+02  0.00000000000E+00 0.  1.
         11    1    3    3    0    0 -0.48002123942E+01  0.11987983517E+01  0.62701293785E+00  0.49872138517E+01  0.51100000000E-03 0. -1.
        -11    1    3    3    0    0  0.36943628006E+01 -0.31168509704E+01 -0.64034495462E+00  0.48757684929E+01  0.51100000000E-03 0.  1.
         12    1    3    3    0    0 -0.30561641278E+01  0.34635256095E+01 -0.40402690509E+02  0.40665876963E+02  0.00000000000E+00 0. -1.
</event>
<event>
 7    1  0.5839176E-013  0.5052885E+02  0.7816164E-02  0.1300439E+00
        -11   -1    0    0    0    0  0.00000000000E+00  0.00000000000E+00  0.45593999997E+02  0.45594000000E+02  0.51100000000E-03 0.  1.
         11   -1    0    0    0    0 -0.00000000000E+00 -0.00000000000E+00 -0.45593999997E+02  0.45594000000E+02  0.51100000000E-03 0. -1.
    9900012    2    1    2    0    0 -0.32544611358E+02  0.21337644631E+02 -0.11777918103E+02  0.50528853898E+02  0.29999981910E+02 0.  0.
        -12    1    1    2    0    0  0.32544611358E+02 -0.21337644631E+02  0.11777918103E+02  0.40659146102E+02  0.00000000000E+00 0.  1.
         11    1    3    3    0    0 -0.78780047263E+01  0.61028895755E+00 -0.10100799798E+02  0.12824257011E+02  0.51100000000E-03 0. -1.
        -11    1    3    3    0    0 -0.20600410296E+02  0.20194810818E+02 -0.82079501757E+01  0.29992961419E+02  0.51100000000E-03 0.  1.
        -12    1    3    3    0    0 -0.40661963359E+01  0.53254485574E+00  0.65308318708E+01  0.77116354679E+01  0.00000000000E+00 0.  1.
</event>
<event>
 7    1  0.5839176E-013  0.5052883E+02  0.7816164E-02  0.1300439E+00
        -11   -1    0    0    0    0  0.00000000000E+00  0.00000000000E+00  0.45593999997E+02  0.45594000000E+02  0.51100000000E-03 0.  1.
         11   -1    0    0    0    0 -0.00000000000E+00 -0.00000000000E+00 -0.45593999997E+02  0.45594000000E+02  0.51100000000E-03 0. -1.
    9900012    2    1    2    0    0  0.40503866894E+02 -0.14065530592E+01  0.32598839443E+01  0.50528825535E+02  0.29999895695E+02 0.  0.
        -12    1    1    2    0    0 -0.40503866894E+02  0.14065530592E+01 -0.32598839443E+01  0.40659174465E+02  0.00000000000E+00 0.  1.
         11    1    3    3    0    0  0.84052325034E+01  0.10664587760E+02 -0.15816365045E+01  0.13670513517E+02  0.51100000000E-03 0. -1.
        -11    1    3    3    0    0  0.22306512891E+00  0.76135145243E+00  0.22652874296E+01  0.24001961348E+01  0.51100000000E-03 0.  1.
        -12    1    3    3    0    0  0.31875569262E+02 -0.12832492271E+02  0.25762330192E+01  0.34458115883E+02  0.00000000000E+00 0.  1.
</event>
<event>
 7    1  0.5839176E-013  0.5052886E+02  0.7816164E-02  0.1300439E+00
        -11   -1    0    0    0    0  0.00000000000E+00  0.00000000000E+00  0.45593999997E+02  0.45594000000E+02  0.51100000000E-03 0. -1.
         11   -1    0    0    0    0 -0.00000000000E+00 -0.00000000000E+00 -0.45593999997E+02  0.45594000000E+02  0.51100000000E-03 0.  1.
    9900012    2    1    2    0    0 -0.36715582494E+02  0.40904895006E+01  0.16982332129E+02  0.50528859493E+02  0.29999998915E+02 0.  0.
        -12    1    1    2    0    0  0.36715582494E+02 -0.40904895006E+01 -0.16982332129E+02  0.40659140507E+02  0.00000000000E+00 0.  1.
         11    1    3    3    0    0 -0.38391088259E+01  0.26459221095E+01  0.13804660350E+02  0.14570803273E+02  0.51100000000E-03 0. -1.
        -11    1    3    3    0    0 -0.24426462354E+02  0.12200334293E+01  0.85891028317E+01  0.25921289174E+02  0.51100000000E-03 0.  1.
        -12    1    3    3    0    0 -0.84500113139E+01  0.22453396180E+00 -0.54114310524E+01  0.10036767046E+02  0.00000000000E+00 0.  1.
</event>
<event>
 7    1  0.5839176E-013  0.5052890E+02  0.7816164E-02  0.1300439E+00
        -11   -1    0    0    0    0  0.00000000000E+00  0.00000000000E+00  0.45593999997E+02  0.45594000000E+02  0.51100000000E-03 0.  1.
         11   -1    0    0    0    0 -0.00000000000E+00 -0.00000000000E+00 -0.45593999997E+02  0.45594000000E+02  0.51100000000E-03 0. -1.
    9900012    2    1    2    0    0  0.85101257404E+00 -0.39160303307E+01 -0.40461128880E+02  0.50528899343E+02  0.30000120043E+02 0.  0.
        -12    1    1    2    0    0 -0.85101257404E+00  0.39160303307E+01  0.40461128880E+02  0.40659100657E+02  0.00000000000E+00 0.  1.
         11    1    3    3    0    0  0.17942375175E+01  0.96192174076E+00 -0.11581249378E+02  0.11758823033E+02  0.51100000000E-03 0. -1.
        -11    1    3    3    0    0  0.75316479249E+00  0.93349416681E+01 -0.19568714340E+02  0.21694307418E+02  0.51100000000E-03 0.  1.
         12    1    3    3    0    0 -0.16963897360E+01 -0.14212893740E+02 -0.93111651620E+01  0.17075768892E+02  0.00000000000E+00 0. -1.
</event>
<event>
 7    1  0.5839176E-013  0.5052887E+02  0.7816164E-02  0.1300439E+00
        -11   -1    0    0    0    0  0.00000000000E+00  0.00000000000E+00  0.45593999997E+02  0.45594000000E+02  0.51100000000E-03 0.  1.
         11   -1    0    0    0    0 -0.00000000000E+00 -0.00000000000E+00 -0.45593999997E+02  0.45594000000E+02  0.51100000000E-03 0. -1.
    9900012    2    1    2    0    0 -0.18760814336E+01 -0.26280956516E+02 -0.30967026993E+02  0.50528866737E+02  0.30000020933E+02 0.  0.
        -12    1    1    2    0    0  0.18760814336E+01  0.26280956516E+02  0.30967026993E+02  0.40659133263E+02  0.00000000000E+00 0.  1.
         11    1    3    3    0    0 -0.38264349022E+01 -0.12053988122E+01 -0.23821360122E+01  0.46657435205E+01  0.51100000000E-03 0. -1.
        -11    1    3    3    0    0 -0.28149363776E+01 -0.13910119488E+02  0.65095561179E+00  0.14207006527E+02  0.51100000000E-03 0.  1.
         12    1    3    3    0    0  0.47652898462E+01 -0.11165438216E+02 -0.29235846592E+02  0.31656116689E+02  0.00000000000E+00 0. -1.
</event>
<event>
 7    1  0.5839176E-013  0.5052887E+02  0.7816164E-02  0.1300439E+00
        -11   -1    0    0    0    0  0.00000000000E+00  0.00000000000E+00  0.45593999997E+02  0.45594000000E+02  0.51100000000E-03 0.  1.
         11   -1    0    0    0    0 -0.00000000000E+00 -0.00000000000E+00 -0.45593999997E+02  0.45594000000E+02  0.51100000000E-03 0. -1.
    9900012    2    1    2    0    0  0.86083789736E+01  0.39731851552E+02  0.66400994509E+00  0.50528866641E+02  0.30000020641E+02 0.  0.
        -12    1    1    2    0    0 -0.86083789736E+01 -0.39731851552E+02 -0.66400994509E+00  0.40659133359E+02  0.00000000000E+00 0.  1.
         11    1    3    3    0    0  0.92389317245E+01  0.23579235145E+02 -0.52788907150E+01  0.25868994509E+02  0.51100000000E-03 0. -1.
        -11    1    3    3    0    0  0.71419067140E+01  0.76632711428E+01 -0.20141427206E+01  0.10667208036E+02  0.51100000000E-03 0.  1.
        -12    1    3    3    0    0 -0.77724594649E+01  0.84893452640E+01  0.79570433807E+01  0.13992664096E+02  0.00000000000E+00 0.  1.
</event>
<event>
 7    1  0.5839176E-013  0.5052886E+02  0.7816164E-02  0.1300439E+00
        -11   -1    0    0    0    0  0.00000000000E+00  0.00000000000E+00  0.45593999997E+02  0.45594000000E+02  0.51100000000E-03 0. -1.
         11   -1    0    0    0    0 -0.00000000000E+00 -0.00000000000E+00 -0.45593999997E+02  0.45594000000E+02  0.51100000000E-03 0.  1.
    9900012    2    1    2    0    0  0.24318321722E+02  0.26239021761E+02  0.19320941614E+02  0.50528858110E+02  0.29999994711E+02 0.  0.
        -12    1    1    2    0    0 -0.24318321722E+02 -0.26239021761E+02 -0.19320941614E+02  0.40659141890E+02  0.00000000000E+00 0.  1.
         11    1    3    3    0    0  0.39039857029E+01 -0.37565789995E+01  0.64921385130E+01  0.84558176944E+01  0.51100000000E-03 0. -1.
        -11    1    3    3    0    0  0.19123639850E+02  0.21454852192E+02  0.28599584707E+01  0.28882583790E+02  0.51100000000E-03 0.  1.
         12    1    3    3    0    0  0.12906961695E+01  0.85407485686E+01  0.99688446308E+01  0.13190456625E+02  0.00000000000E+00 0. -1.
</event>
<event>
 7    1  0.5839176E-013  0.5052885E+02  0.7816164E-02  0.1300439E+00
        -11   -1    0    0    0    0  0.00000000000E+00  0.00000000000E+00  0.45593999997E+02  0.45594000000E+02  0.51100000000E-03 0. -1.
         11   -1    0    0    0    0 -0.00000000000E+00 -0.00000000000E+00 -0.45593999997E+02  0.45594000000E+02  0.51100000000E-03 0.  1.
    9900012    2    1    2    0    0 -0.32324410286E+02 -0.20846329510E+02  0.13180645651E+02  0.50528851286E+02  0.29999973968E+02 0.  0.
        -12    1    1    2    0    0  0.32324410286E+02  0.20846329510E+02 -0.13180645651E+02  0.40659148714E+02  0.00000000000E+00 0.  1.
         11    1    3    3    0    0 -0.38986891601E+00 -0.52482995342E+01  0.46293139079E+01  0.70090793469E+01  0.51100000000E-03 0. -1.
        -11    1    3    3    0    0 -0.15648412768E+01  0.29914336445E+01  0.71243792351E+01  0.78837924388E+01  0.51100000000E-03 0.  1.
         12    1    3    3    0    0 -0.30369700094E+02 -0.18589463620E+02  0.14269525078E+01  0.35635979500E+02  0.00000000000E+00 0. -1.
</event>
<event>
 7    1  0.5839176E-013  0.5052886E+02  0.7816164E-02  0.1300439E+00
        -11   -1    0    0    0    0  0.00000000000E+00  0.00000000000E+00  0.45593999997E+02  0.45594000000E+02  0.51100000000E-03 0.  1.
         11   -1    0    0    0    0 -0.00000000000E+00 -0.00000000000E+00 -0.45593999997E+02  0.45594000000E+02  0.51100000000E-03 0. -1.
    9900012    2    1    2    0    0 -0.34815265611E+02 -0.19435459137E+02 -0.79577610941E+01  0.50528858924E+02  0.29999997185E+02 0.  0.
        -12    1    1    2    0    0  0.34815265611E+02  0.19435459137E+02  0.79577610941E+01  0.40659141076E+02  0.00000000000E+00 0.  1.
         11    1    3    3    0    0 -0.44801203351E+01  0.26179365340E+01 -0.30039793092E+01  0.59957453135E+01  0.51100000000E-03 0. -1.
        -11    1    3    3    0    0 -0.58723360234E+01 -0.53431005820E+01 -0.11709442695E+02  0.14147229506E+02  0.51100000000E-03 0.  1.
         12    1    3    3    0    0 -0.24462809252E+02 -0.16710295089E+02  0.67556609101E+01  0.30385884104E+02  0.00000000000E+00 0. -1.
</event>
<event>
 7    1  0.5839176E-013  0.5052886E+02  0.7816164E-02  0.1300439E+00
        -11   -1    0    0    0    0  0.00000000000E+00  0.00000000000E+00  0.45593999997E+02  0.45594000000E+02  0.51100000000E-03 0.  1.
         11   -1    0    0    0    0 -0.00000000000E+00 -0.00000000000E+00 -0.45593999997E+02  0.45594000000E+02  0.51100000000E-03 0. -1.
    9900012    2    1    2    0    0 -0.16502167243E+01  0.23369088639E+02 -0.33231430833E+02  0.50528861860E+02  0.30000006110E+02 0.  0.
        -12    1    1    2    0    0  0.16502167243E+01 -0.23369088639E+02  0.33231430833E+02  0.40659138140E+02  0.00000000000E+00 0.  1.
         11    1    3    3    0    0  0.12569016919E+01  0.20436063199E+02 -0.19260500541E+02  0.28110129176E+02  0.51100000000E-03 0. -1.
        -11    1    3    3    0    0 -0.93010152702E+01  0.25962358278E+00 -0.12055449068E+02  0.15228596191E+02  0.51100000000E-03 0.  1.
         12    1    3    3    0    0  0.63938968540E+01  0.26734018571E+01 -0.19154812247E+01  0.71901364932E+01  0.00000000000E+00 0. -1.
</event>
<event>
 7    1  0.5839176E-013  0.5052887E+02  0.7816164E-02  0.1300439E+00
        -11   -1    0    0    0    0  0.00000000000E+00  0.00000000000E+00  0.45593999997E+02  0.45594000000E+02  0.51100000000E-03 0.  1.
         11   -1    0    0    0    0 -0.00000000000E+00 -0.00000000000E+00 -0.45593999997E+02  0.45594000000E+02  0.51100000000E-03 0. -1.
    9900012    2    1    2    0    0 -0.10217245530E+02  0.96042672795E+01 -0.38164527005E+02  0.50528865999E+02  0.30000018691E+02 0.  0.
        -12    1    1    2    0    0  0.10217245530E+02 -0.96042672795E+01  0.38164527005E+02  0.40659134001E+02  0.00000000000E+00 0.  1.
         11    1    3    3    0    0 -0.43049247464E+01  0.13872829507E+01 -0.86943143411E+01  0.98004098476E+01  0.51100000000E-03 0. -1.
        -11    1    3    3    0    0 -0.93489970206E+01  0.11300804144E+02 -0.32186974775E+02  0.35371079501E+02  0.51100000000E-03 0.  1.
        -12    1    3    3    0    0  0.34366762365E+01 -0.30838198152E+01  0.27167621119E+01  0.53573766510E+01  0.00000000000E+00 0.  1.
</event>
<event>
 7    1  0.5839176E-013  0.5052884E+02  0.7816164E-02  0.1300439E+00
        -11   -1    0    0    0    0  0.00000000000E+00  0.00000000000E+00  0.45593999997E+02  0.45594000000E+02  0.51100000000E-03 0. -1.
         11   -1    0    0    0    0 -0.00000000000E+00 -0.00000000000E+00 -0.45593999997E+02  0.45594000000E+02  0.51100000000E-03 0.  1.
    9900012    2    1    2    0    0  0.43354869005E+01 -0.37687744350E+02  0.14628905180E+02  0.50528838823E+02  0.29999936086E+02 0.  0.
        -12    1    1    2    0    0 -0.43354869005E+01  0.37687744350E+02 -0.14628905180E+02  0.40659161177E+02  0.00000000000E+00 0.  1.
         11    1    3    3    0    0  0.17596392927E+01 -0.65711011488E+01  0.12416837858E+02  0.14158162430E+02  0.51100000000E-03 0.  1.
        -11    1    3    3    0    0  0.70210217794E+01 -0.28627888059E+02 -0.22993206493E+01  0.29565818054E+02  0.51100000000E-03 0. -1.
         12    1    3    3    0    0 -0.44451741716E+01 -0.24887551429E+01  0.45113879710E+01  0.68048583381E+01  0.00000000000E+00 0. -1.
</event>
<event>
 7    1  0.5839176E-013  0.5052886E+02  0.7816164E-02  0.1300439E+00
        -11   -1    0    0    0    0  0.00000000000E+00  0.00000000000E+00  0.45593999997E+02  0.45594000000E+02  0.51100000000E-03 0.  1.
         11   -1    0    0    0    0 -0.00000000000E+00 -0.00000000000E+00 -0.45593999997E+02  0.45594000000E+02  0.51100000000E-03 0. -1.
    9900012    2    1    2    0    0 -0.23370191061E+02 -0.13844697918E+01 -0.33242785868E+02  0.50528863277E+02  0.30000010416E+02 0.  0.
        -12    1    1    2    0    0  0.23370191061E+02  0.13844697918E+01  0.33242785868E+02  0.40659136723E+02  0.00000000000E+00 0.  1.
         11    1    3    3    0    0 -0.14806725553E+01 -0.35623057432E+01 -0.17370720583E+02  0.17793941308E+02  0.51100000000E-03 0. -1.
        -11    1    3    3    0    0 -0.90491611074E+01 -0.29421861283E+01 -0.16334189292E+02  0.18903690541E+02  0.51100000000E-03 0.  1.
         12    1    3    3    0    0 -0.12840357398E+02  0.51200220797E+01  0.46212400788E+00  0.13831231428E+02  0.00000000000E+00 0. -1.
</event>
<event>
 7    1  0.5839176E-013  0.5052891E+02  0.7816164E-02  0.1300439E+00
        -11   -1    0    0    0    0  0.00000000000E+00  0.00000000000E+00  0.45593999997E+02  0.45594000000E+02  0.51100000000E-03 0.  1.
         11   -1    0    0    0    0 -0.00000000000E+00 -0.00000000000E+00 -0.45593999997E+02  0.45594000000E+02  0.51100000000E-03 0. -1.
    9900012    2    1    2    0    0  0.80262316019E+01 -0.57954944264E+01 -0.39435431105E+02  0.50528912753E+02  0.30000160802E+02 0.  0.
        -12    1    1    2    0    0 -0.80262316019E+01  0.57954944264E+01  0.39435431105E+02  0.40659087247E+02  0.00000000000E+00 0.  1.
         11    1    3    3    0    0 -0.93810687125E-01  0.25855392050E+01 -0.23697563340E+02  0.23838379180E+02  0.51100000000E-03 0. -1.
        -11    1    3    3    0    0 -0.11939986722E+01  0.39811609022E+01 -0.87926513011E+01  0.97255329994E+01  0.51100000000E-03 0.  1.
         12    1    3    3    0    0  0.93140409612E+01 -0.12362194534E+02 -0.69452164636E+01  0.16965000573E+02  0.00000000000E+00 0. -1.
</event>
<event>
 7    1  0.5839176E-013  0.5052887E+02  0.7816164E-02  0.1300439E+00
        -11   -1    0    0    0    0  0.00000000000E+00  0.00000000000E+00  0.45593999997E+02  0.45594000000E+02  0.51100000000E-03 0.  1.
         11   -1    0    0    0    0 -0.00000000000E+00 -0.00000000000E+00 -0.45593999997E+02  0.45594000000E+02  0.51100000000E-03 0. -1.
    9900012    2    1    2    0    0  0.12326378814E+02 -0.36564723203E+02 -0.12815870828E+02  0.50528866430E+02  0.30000020001E+02 0.  0.
        -12    1    1    2    0    0 -0.12326378814E+02  0.36564723203E+02  0.12815870828E+02  0.40659133570E+02  0.00000000000E+00 0.  1.
         11    1    3    3    0    0  0.14946094480E+02 -0.20084197193E+02 -0.10151668388E+02  0.27015127030E+02  0.51100000000E-03 0. -1.
        -11    1    3    3    0    0  0.50493512321E+01 -0.13441363572E+02 -0.45298675266E+01  0.15056091877E+02  0.51100000000E-03 0.  1.
        -12    1    3    3    0    0 -0.76690668982E+01 -0.30391624374E+01  0.18656650865E+01  0.84576475231E+01  0.00000000000E+00 0.  1.
</event>
<event>
 7    1  0.5839176E-013  0.5052887E+02  0.7816164E-02  0.1300439E+00
        -11   -1    0    0    0    0  0.00000000000E+00  0.00000000000E+00  0.45593999997E+02  0.45594000000E+02  0.51100000000E-03 0. -1.
         11   -1    0    0    0    0 -0.00000000000E+00 -0.00000000000E+00 -0.45593999997E+02  0.45594000000E+02  0.51100000000E-03 0.  1.
    9900012    2    1    2    0    0  0.99069723934E+01 -0.37122368925E+02  0.13302127246E+02  0.50528868604E+02  0.30000026609E+02 0.  0.
        -12    1    1    2    0    0 -0.99069723934E+01  0.37122368925E+02 -0.13302127246E+02  0.40659131396E+02  0.00000000000E+00 0.  1.
         11    1    3    3    0    0 -0.39637838027E+01 -0.14460315041E+02  0.22771922215E+01  0.15165681580E+02  0.51100000000E-03 0. -1.
        -11    1    3    3    0    0  0.77606668707E+01 -0.97251328931E-02  0.88952635419E+01  0.11804819295E+02  0.51100000000E-03 0.  1.
         12    1    3    3    0    0  0.61100893254E+01 -0.22652328751E+02  0.21296714827E+01  0.23558367728E+02  0.00000000000E+00 0. -1.
</event>
<event>
 7    1  0.5839176E-013  0.5052886E+02  0.7816164E-02  0.1300439E+00
        -11   -1    0    0    0    0  0.00000000000E+00  0.00000000000E+00  0.45593999997E+02  0.45594000000E+02  0.51100000000E-03 0.  1.
         11   -1    0    0    0    0 -0.00000000000E+00 -0.00000000000E+00 -0.45593999997E+02  0.45594000000E+02  0.51100000000E-03 0. -1.
    9900012    2    1    2    0    0  0.38105375345E+02  0.14146473025E+02  0.10115280954E+01  0.50528861810E+02  0.30000005958E+02 0.  0.
        -12    1    1    2    0    0 -0.38105375345E+02 -0.14146473025E+02 -0.10115280954E+01  0.40659138190E+02  0.00000000000E+00 0.  1.
         11    1    3    3    0    0  0.31384782098E+01  0.50960858234E+01  0.42758322065E+01  0.73554658257E+01  0.51100000000E-03 0. -1.
        -11    1    3    3    0    0  0.32392343714E+02  0.77581453045E+01  0.56687265215E+01  0.33787382415E+02  0.51100000000E-03 0.  1.
         12    1    3    3    0    0  0.25745534219E+01  0.12922418969E+01 -0.89330306327E+01  0.93860135695E+01  0.00000000000E+00 0. -1.
</event>
<event>
 7    1  0.5839176E-013  0.5052886E+02  0.7816164E-02  0.1300439E+00
        -11   -1    0    0    0    0  0.00000000000E+00  0.00000000000E+00  0.45593999997E+02  0.45594000000E+02  0.51100000000E-03 0.  1.
         11   -1    0    0    0    0 -0.00000000000E+00 -0.00000000000E+00 -0.45593999997E+02  0.45594000000E+02  0.51100000000E-03 0. -1.
    9900012    2    1    2    0    0  0.28603014692E+02  0.28692427223E+02  0.34319006378E+01  0.50528858698E+02  0.29999996499E+02 0.  0.
        -12    1    1    2    0    0 -0.28603014692E+02 -0.28692427223E+02 -0.34319006378E+01  0.40659141302E+02  0.00000000000E+00 0.  1.
         11    1    3    3    0    0  0.10225330143E+02  0.71596779596E+01  0.32126207871E+01  0.12889503388E+02  0.51100000000E-03 0. -1.
        -11    1    3    3    0    0  0.24588936095E+02  0.16423693901E+02  0.75400572203E+00  0.29579080860E+02  0.51100000000E-03 0.  1.
        -12    1    3    3    0    0 -0.62112515451E+01  0.51090553619E+01 -0.53472587135E+00  0.80602744497E+01  0.00000000000E+00 0.  1.
</event>
<event>
 7    1  0.5839176E-013  0.5052899E+02  0.7816164E-02  0.1300438E+00
        -11   -1    0    0    0    0  0.00000000000E+00  0.00000000000E+00  0.45593999997E+02  0.45594000000E+02  0.51100000000E-03 0.  1.
         11   -1    0    0    0    0 -0.00000000000E+00 -0.00000000000E+00 -0.45593999997E+02  0.45594000000E+02  0.51100000000E-03 0. -1.
    9900012    2    1    2    0    0 -0.23763398043E+02  0.60044946564E+01 -0.32440742722E+02  0.50528993237E+02  0.30000405439E+02 0.  0.
        -12    1    1    2    0    0  0.23763398043E+02 -0.60044946564E+01  0.32440742722E+02  0.40659006763E+02  0.00000000000E+00 0.  1.
         11    1    3    3    0    0 -0.28048261591E+01  0.27186254842E+01  0.32303918828E+00  0.39194806906E+01  0.51100000000E-03 0. -1.
        -11    1    3    3    0    0 -0.18974575877E+02  0.11381293236E+02 -0.14282101164E+02  0.26335276330E+02  0.51100000000E-03 0.  1.
         12    1    3    3    0    0 -0.19839960067E+01 -0.80954240642E+01 -0.18481680747E+02  0.20274236216E+02  0.00000000000E+00 0. -1.
</event>
<event>
 7    1  0.5839176E-013  0.5052886E+02  0.7816164E-02  0.1300439E+00
        -11   -1    0    0    0    0  0.00000000000E+00  0.00000000000E+00  0.45593999997E+02  0.45594000000E+02  0.51100000000E-03 0. -1.
         11   -1    0    0    0    0 -0.00000000000E+00 -0.00000000000E+00 -0.45593999997E+02  0.45594000000E+02  0.51100000000E-03 0.  1.
    9900012    2    1    2    0    0 -0.37570535481E+02  0.14731302725E+02 -0.49607320893E+01  0.50528864751E+02  0.30000014899E+02 0.  0.
        -12    1    1    2    0    0  0.37570535481E+02 -0.14731302725E+02  0.49607320893E+01  0.40659135249E+02  0.00000000000E+00 0.  1.
         11    1    3    3    0    0 -0.42675722740E+01  0.10865402106E+02 -0.33437425231E+01  0.12142888880E+02  0.51100000000E-03 0. -1.
        -11    1    3    3    0    0  0.14291773956E+01 -0.38022189209E-01 -0.30893460008E+01  0.34041228957E+01  0.51100000000E-03 0.  1.
         12    1    3    3    0    0 -0.34732140603E+02  0.39039228080E+01  0.14723564346E+01  0.34981852975E+02  0.00000000000E+00 0. -1.
</event>
<event>
 7    1  0.5839176E-013  0.5052886E+02  0.7816164E-02  0.1300439E+00
        -11   -1    0    0    0    0  0.00000000000E+00  0.00000000000E+00  0.45593999997E+02  0.45594000000E+02  0.51100000000E-03 0. -1.
         11   -1    0    0    0    0 -0.00000000000E+00 -0.00000000000E+00 -0.45593999997E+02  0.45594000000E+02  0.51100000000E-03 0.  1.
    9900012    2    1    2    0    0 -0.20396685599E+02 -0.21000962919E+02 -0.28215251033E+02  0.50528860586E+02  0.30000002238E+02 0.  0.
        -12    1    1    2    0    0  0.20396685599E+02  0.21000962919E+02  0.28215251033E+02  0.40659139414E+02  0.00000000000E+00 0.  1.
         11    1    3    3    0    0  0.53831157991E+01 -0.38848495888E+01 -0.21200299793E+01  0.69688248226E+01  0.51100000000E-03 0. -1.
        -11    1    3    3    0    0 -0.22682634899E+01  0.15484618864E+01  0.11903617655E+01  0.29932782809E+01  0.51100000000E-03 0.  1.
         12    1    3    3    0    0 -0.23511537909E+02 -0.18664575217E+02 -0.27285582820E+02  0.40566757483E+02  0.00000000000E+00 0. -1.
</event>
<event>
 7    1  0.5839176E-013  0.5052885E+02  0.7816164E-02  0.1300439E+00
        -11   -1    0    0    0    0  0.00000000000E+00  0.00000000000E+00  0.45593999997E+02  0.45594000000E+02  0.51100000000E-03 0.  1.
         11   -1    0    0    0    0 -0.00000000000E+00 -0.00000000000E+00 -0.45593999997E+02  0.45594000000E+02  0.51100000000E-03 0. -1.
    9900012    2    1    2    0    0  0.39594463612E+02  0.60313798898E+01 -0.70047860248E+01  0.50528854420E+02  0.29999983494E+02 0.  0.
        -12    1    1    2    0    0 -0.39594463612E+02 -0.60313798898E+01  0.70047860248E+01  0.40659145580E+02  0.00000000000E+00 0.  1.
         11    1    3    3    0    0  0.18360818326E+02 -0.59698246699E+00 -0.94043215007E+00  0.18394576661E+02  0.51100000000E-03 0.  1.
        -11    1    3    3    0    0  0.19215186521E+02 -0.33875713227E+01 -0.90235841308E+01  0.21497071971E+02  0.51100000000E-03 0. -1.
        -12    1    3    3    0    0  0.20184587653E+01  0.10015933679E+02  0.29592302560E+01  0.10637205788E+02  0.00000000000E+00 0.  1.
</event>
<event>
 7    1  0.5839176E-013  0.5052887E+02  0.7816164E-02  0.1300439E+00
        -11   -1    0    0    0    0  0.00000000000E+00  0.00000000000E+00  0.45593999997E+02  0.45594000000E+02  0.51100000000E-03 0.  1.
         11   -1    0    0    0    0 -0.00000000000E+00 -0.00000000000E+00 -0.45593999997E+02  0.45594000000E+02  0.51100000000E-03 0. -1.
    9900012    2    1    2    0    0  0.33841730573E+02  0.22506325060E+02  0.11695084372E+01  0.50528866391E+02  0.30000019881E+02 0.  0.
        -12    1    1    2    0    0 -0.33841730573E+02 -0.22506325060E+02 -0.11695084372E+01  0.40659133609E+02  0.00000000000E+00 0.  1.
         11    1    3    3    0    0  0.14190588497E+02  0.10935718604E+02 -0.22557786427E+01  0.18056890121E+02  0.51100000000E-03 0. -1.
        -11    1    3    3    0    0  0.20309991699E+02  0.12845361593E+02 -0.44733814092E+01  0.24444022148E+02  0.51100000000E-03 0.  1.
        -12    1    3    3    0    0 -0.65884962353E+00 -0.12747551370E+01  0.78986684891E+01  0.80279541221E+01  0.00000000000E+00 0.  1.
</event>
<event>
 7    1  0.5839176E-013  0.5052885E+02  0.7816164E-02  0.1300439E+00
        -11   -1    0    0    0    0  0.00000000000E+00  0.00000000000E+00  0.45593999997E+02  0.45594000000E+02  0.51100000000E-03 0.  1.
         11   -1    0    0    0    0 -0.00000000000E+00 -0.00000000000E+00 -0.45593999997E+02  0.45594000000E+02  0.51100000000E-03 0. -1.
    9900012    2    1    2    0    0 -0.19597329223E+01 -0.15549837930E+02 -0.37517045416E+02  0.50528847162E+02  0.29999961433E+02 0.  0.
        -12    1    1    2    0    0  0.19597329223E+01  0.15549837930E+02  0.37517045416E+02  0.40659152838E+02  0.00000000000E+00 0.  1.
         11    1    3    3    0    0 -0.39881466406E+01 -0.12676346580E+02 -0.21382464732E+02  0.25175481615E+02  0.51100000000E-03 0. -1.
        -11    1    3    3    0    0 -0.74789459538E+01 -0.59513212702E+01 -0.75794782304E+01  0.12198415797E+02  0.51100000000E-03 0.  1.
        -12    1    3    3    0    0  0.95073596722E+01  0.30778299204E+01 -0.85551024531E+01  0.13154949751E+02  0.00000000000E+00 0.  1.
</event>
<event>
 7    1  0.5839176E-013  0.5052886E+02  0.7816164E-02  0.1300439E+00
        -11   -1    0    0    0    0  0.00000000000E+00  0.00000000000E+00  0.45593999997E+02  0.45594000000E+02  0.51100000000E-03 0.  1.
         11   -1    0    0    0    0 -0.00000000000E+00 -0.00000000000E+00 -0.45593999997E+02  0.45594000000E+02  0.51100000000E-03 0. -1.
    9900012    2    1    2    0    0  0.39169852282E+02  0.61748497185E+01 -0.89866451425E+01  0.50528857268E+02  0.29999992151E+02 0.  0.
        -12    1    1    2    0    0 -0.39169852282E+02 -0.61748497185E+01  0.89866451425E+01  0.40659142732E+02  0.00000000000E+00 0.  1.
         11    1    3    3    0    0  0.95157311500E+01 -0.12032212495E+01 -0.12416118615E+02  0.15689387573E+02  0.51100000000E-03 0. -1.
        -11    1    3    3    0    0  0.19044484681E+02 -0.25396691643E+01 -0.20385574924E+01  0.19320922161E+02  0.51100000000E-03 0.  1.
         12    1    3    3    0    0  0.10609636451E+02  0.99177401322E+01  0.54680309645E+01  0.15518547534E+02  0.00000000000E+00 0. -1.
</event>
<event>
 7    1  0.5839176E-013  0.5052886E+02  0.7816164E-02  0.1300439E+00
        -11   -1    0    0    0    0  0.00000000000E+00  0.00000000000E+00  0.45593999997E+02  0.45594000000E+02  0.51100000000E-03 0.  1.
         11   -1    0    0    0    0 -0.00000000000E+00 -0.00000000000E+00 -0.45593999997E+02  0.45594000000E+02  0.51100000000E-03 0. -1.
    9900012    2    1    2    0    0 -0.16774191474E+01 -0.17329587549E+02 -0.36742851125E+02  0.50528862670E+02  0.30000008572E+02 0.  0.
        -12    1    1    2    0    0  0.16774191474E+01  0.17329587549E+02  0.36742851125E+02  0.40659137330E+02  0.00000000000E+00 0.  1.
         11    1    3    3    0    0  0.50667998636E+01 -0.76428040370E+01 -0.16493012763E+02  0.18870728250E+02  0.51100000000E-03 0. -1.
        -11    1    3    3    0    0 -0.44758856694E+01 -0.16529938998E+02 -0.14181982588E+02  0.22235131351E+02  0.51100000000E-03 0.  1.
        -12    1    3    3    0    0 -0.22683333416E+01  0.68431554863E+01 -0.60678557741E+01  0.94230030698E+01  0.00000000000E+00 0.  1.
</event>
<event>
 7    1  0.5839176E-013  0.5052886E+02  0.7816164E-02  0.1300439E+00
        -11   -1    0    0    0    0  0.00000000000E+00  0.00000000000E+00  0.45593999997E+02  0.45594000000E+02  0.51100000000E-03 0.  1.
         11   -1    0    0    0    0 -0.00000000000E+00 -0.00000000000E+00 -0.45593999997E+02  0.45594000000E+02  0.51100000000E-03 0. -1.
    9900012    2    1    2    0    0 -0.56369111023E+01  0.21389850179E+02 -0.34115474456E+02  0.50528855213E+02  0.29999985905E+02 0.  0.
        -12    1    1    2    0    0  0.56369111023E+01 -0.21389850179E+02  0.34115474456E+02  0.40659144787E+02  0.00000000000E+00 0.  1.
         11    1    3    3    0    0 -0.50451385936E+01 -0.17572563004E+01 -0.67080389539E+01  0.85754976533E+01  0.51100000000E-03 0. -1.
        -11    1    3    3    0    0  0.60268482444E+00 -0.42733560671E+01 -0.38566960018E+01  0.57878238903E+01  0.51100000000E-03 0.  1.
         12    1    3    3    0    0 -0.11944573331E+01  0.27420462546E+02 -0.23550739500E+02  0.36165533669E+02  0.00000000000E+00 0. -1.
</event>
<event>
 7    1  0.5839176E-013  0.5052886E+02  0.7816164E-02  0.1300439E+00
        -11   -1    0    0    0    0  0.00000000000E+00  0.00000000000E+00  0.45593999997E+02  0.45594000000E+02  0.51100000000E-03 0.  1.
         11   -1    0    0    0    0 -0.00000000000E+00 -0.00000000000E+00 -0.45593999997E+02  0.45594000000E+02  0.51100000000E-03 0. -1.
    9900012    2    1    2    0    0 -0.30085407590E+02  0.27165696529E+02 -0.31716166413E+01  0.50528856257E+02  0.29999989079E+02 0.  0.
        -12    1    1    2    0    0  0.30085407590E+02 -0.27165696529E+02  0.31716166413E+01  0.40659143743E+02  0.00000000000E+00 0.  1.
         11    1    3    3    0    0 -0.72425202409E+01  0.30247765908E+01 -0.86370315822E+01  0.11670547874E+02  0.51100000000E-03 0.  1.
        -11    1    3    3    0    0 -0.23868615180E+02  0.12805762974E+02  0.40939817939E+01  0.27394507536E+02  0.51100000000E-03 0. -1.
         12    1    3    3    0    0  0.10257278300E+01  0.11335156965E+02  0.13714331471E+01  0.11463800847E+02  0.00000000000E+00 0. -1.
</event>
<event>
 7    1  0.5839176E-013  0.5052887E+02  0.7816164E-02  0.1300439E+00
        -11   -1    0    0    0    0  0.00000000000E+00  0.00000000000E+00  0.45593999997E+02  0.45594000000E+02  0.51100000000E-03 0.  1.
         11   -1    0    0    0    0 -0.00000000000E+00 -0.00000000000E+00 -0.45593999997E+02  0.45594000000E+02  0.51100000000E-03 0. -1.
    9900012    2    1    2    0    0 -0.32710397589E+02 -0.23026412984E+02 -0.72786883170E+01  0.50528866845E+02  0.30000021261E+02 0.  0.
        -12    1    1    2    0    0  0.32710397589E+02  0.23026412984E+02  0.72786883170E+01  0.40659133155E+02  0.00000000000E+00 0.  1.
         11    1    3    3    0    0 -0.10251993506E+02  0.51653747100E+00 -0.11192393123E+02  0.15186831331E+02  0.51100000000E-03 0. -1.
        -11    1    3    3    0    0 -0.13823678014E+01 -0.15633420722E+01 -0.34322480697E+01  0.40168776738E+01  0.51100000000E-03 0.  1.
        -12    1    3    3    0    0 -0.21076036282E+02 -0.21979608383E+02  0.73459528759E+01  0.31325157840E+02  0.00000000000E+00 0.  1.
</event>
<event>
 7    1  0.5839176E-013  0.5052886E+02  0.7816164E-02  0.1300439E+00
        -11   -1    0    0    0    0  0.00000000000E+00  0.00000000000E+00  0.45593999997E+02  0.45594000000E+02  0.51100000000E-03 0. -1.
         11   -1    0    0    0    0 -0.00000000000E+00 -0.00000000000E+00 -0.45593999997E+02  0.45594000000E+02  0.51100000000E-03 0.  1.
    9900012    2    1    2    0    0  0.22043072004E+02 -0.10326308573E+02  0.32567409424E+02  0.50528857993E+02  0.29999994357E+02 0.  0.
        -12    1    1    2    0    0 -0.22043072004E+02  0.10326308573E+02 -0.32567409424E+02  0.40659142007E+02  0.00000000000E+00 0.  1.
         11    1    3    3    0    0  0.36972805247E+01 -0.85787831975E+01  0.76784635080E+01  0.12092320147E+02  0.51100000000E-03 0. -1.
        -11    1    3    3    0    0 -0.53957144741E+00 -0.75717182884E+01  0.13864537142E+02  0.15806563371E+02  0.51100000000E-03 0.  1.
         12    1    3    3    0    0  0.18885362926E+02  0.58241929127E+01  0.11024408775E+02  0.22629974476E+02  0.00000000000E+00 0. -1.
</event>
<event>
 7    1  0.5839176E-013  0.5052885E+02  0.7816164E-02  0.1300439E+00
        -11   -1    0    0    0    0  0.00000000000E+00  0.00000000000E+00  0.45593999997E+02  0.45594000000E+02  0.51100000000E-03 0. -1.
         11   -1    0    0    0    0 -0.00000000000E+00 -0.00000000000E+00 -0.45593999997E+02  0.45594000000E+02  0.51100000000E-03 0.  1.
    9900012    2    1    2    0    0  0.23910411889E+01  0.22602082030E+02  0.33713423889E+02  0.50528854161E+02  0.29999982707E+02 0.  0.
        -12    1    1    2    0    0 -0.23910411889E+01 -0.22602082030E+02 -0.33713423889E+02  0.40659145839E+02  0.00000000000E+00 0.  1.
         11    1    3    3    0    0 -0.62115758489E+01  0.17189906800E+01  0.10033691973E+02  0.11925333469E+02  0.51100000000E-03 0. -1.
        -11    1    3    3    0    0 -0.16266466742E+01 -0.23944514791E+01  0.85265466013E+01  0.90045196703E+01  0.51100000000E-03 0.  1.
        -12    1    3    3    0    0  0.10229263712E+02  0.23277542830E+02  0.15153185315E+02  0.29599001021E+02  0.00000000000E+00 0.  1.
</event>
<event>
 7    1  0.5839176E-013  0.5052887E+02  0.7816164E-02  0.1300439E+00
        -11   -1    0    0    0    0  0.00000000000E+00  0.00000000000E+00  0.45593999997E+02  0.45594000000E+02  0.51100000000E-03 0.  1.
         11   -1    0    0    0    0 -0.00000000000E+00 -0.00000000000E+00 -0.45593999997E+02  0.45594000000E+02  0.51100000000E-03 0. -1.
    9900012    2    1    2    0    0 -0.49123554991E+01 -0.18744949032E+02 -0.35744380118E+02  0.50528867436E+02  0.30000023060E+02 0.  0.
        -12    1    1    2    0    0  0.49123554991E+01  0.18744949032E+02  0.35744380118E+02  0.40659132564E+02  0.00000000000E+00 0.  1.
         11    1    3    3    0    0  0.51400206849E+01 -0.94510142177E+01 -0.55419057949E+01  0.12101826411E+02  0.51100000000E-03 0. -1.
        -11    1    3    3    0    0 -0.19108168378E+01 -0.36792123930E+01 -0.27986519273E+02  0.28291926164E+02  0.51100000000E-03 0.  1.
        -12    1    3    3    0    0 -0.81415593461E+01 -0.56147224218E+01 -0.22159550506E+01  0.10135114861E+02  0.00000000000E+00 0.  1.
</event>
<event>
 7    1  0.5839176E-013  0.5052886E+02  0.7816164E-02  0.1300439E+00
        -11   -1    0    0    0    0  0.00000000000E+00  0.00000000000E+00  0.45593999997E+02  0.45594000000E+02  0.51100000000E-03 0. -1.
         11   -1    0    0    0    0 -0.00000000000E+00 -0.00000000000E+00 -0.45593999997E+02  0.45594000000E+02  0.51100000000E-03 0.  1.
    9900012    2    1    2    0    0 -0.37327266245E+02  0.90931570828E+00  0.16093923254E+02  0.50528855566E+02  0.29999986980E+02 0.  0.
        -12    1    1    2    0    0  0.37327266245E+02 -0.90931570828E+00 -0.16093923254E+02  0.40659144434E+02  0.00000000000E+00 0.  1.
         11    1    3    3    0    0 -0.65408198964E+01 -0.16301022337E+01  0.12589657214E+02  0.14280722224E+02  0.51100000000E-03 0. -1.
        -11    1    3    3    0    0 -0.37426418015E+00  0.33648123292E+01  0.47103995368E+01  0.58008533635E+01  0.51100000000E-03 0.  1.
        -12    1    3    3    0    0 -0.30412182168E+02 -0.82539438722E+00 -0.12061334963E+01  0.30447279979E+02  0.00000000000E+00 0.  1.
</event>
<event>
 7    1  0.5839176E-013  0.5052886E+02  0.7816164E-02  0.1300439E+00
        -11   -1    0    0    0    0  0.00000000000E+00  0.00000000000E+00  0.45593999997E+02  0.45594000000E+02  0.51100000000E-03 0. -1.
         11   -1    0    0    0    0 -0.00000000000E+00 -0.00000000000E+00 -0.45593999997E+02  0.45594000000E+02  0.51100000000E-03 0.  1.
    9900012    2    1    2    0    0 -0.35165257363E+02  0.11409112794E+02 -0.16923430881E+02  0.50528859663E+02  0.29999999431E+02 0.  0.
        -12    1    1    2    0    0  0.35165257363E+02 -0.11409112794E+02  0.16923430881E+02  0.40659140337E+02  0.00000000000E+00 0.  1.
         11    1    3    3    0    0 -0.20798890444E+01  0.87942784727E+01  0.39882405265E+01  0.98778203594E+01  0.51100000000E-03 0. -1.
        -11    1    3    3    0    0 -0.22238295439E+02  0.47879949072E+01 -0.91921058891E+01  0.24534903509E+02  0.51100000000E-03 0.  1.
        -12    1    3    3    0    0 -0.10847072880E+02 -0.21731605859E+01 -0.11719565519E+02  0.16116135794E+02  0.00000000000E+00 0.  1.
</event>
<event>
 7    1  0.5839176E-013  0.5052886E+02  0.7816164E-02  0.1300439E+00
        -11   -1    0    0    0    0  0.00000000000E+00  0.00000000000E+00  0.45593999997E+02  0.45594000000E+02  0.51100000000E-03 0. -1.
         11   -1    0    0    0    0 -0.00000000000E+00 -0.00000000000E+00 -0.45593999997E+02  0.45594000000E+02  0.51100000000E-03 0.  1.
    9900012    2    1    2    0    0  0.14838438153E+02 -0.36467262982E+02  0.10155043483E+02  0.50528862966E+02  0.30000009471E+02 0.  0.
        -12    1    1    2    0    0 -0.14838438153E+02  0.36467262982E+02 -0.10155043483E+02  0.40659137034E+02  0.00000000000E+00 0.  1.
         11    1    3    3    0    0  0.97875374023E+01 -0.27794278540E+01  0.30011519022E+01  0.10607922539E+02  0.51100000000E-03 0. -1.
        -11    1    3    3    0    0  0.25711972090E+01  0.12895296477E+01  0.36993122171E+01  0.46860274156E+01  0.51100000000E-03 0.  1.
        -12    1    3    3    0    0  0.24797035415E+01 -0.34977364776E+02  0.34545793634E+01  0.35234913011E+02  0.00000000000E+00 0.  1.
</event>
<event>
 7    1  0.5839176E-013  0.5052886E+02  0.7816164E-02  0.1300439E+00
        -11   -1    0    0    0    0  0.00000000000E+00  0.00000000000E+00  0.45593999997E+02  0.45594000000E+02  0.51100000000E-03 0. -1.
         11   -1    0    0    0    0 -0.00000000000E+00 -0.00000000000E+00 -0.45593999997E+02  0.45594000000E+02  0.51100000000E-03 0.  1.
    9900012    2    1    2    0    0 -0.76084340194E+00 -0.32244220546E+02  0.24756755799E+02  0.50528860818E+02  0.30000002942E+02 0.  0.
        -12    1    1    2    0    0  0.76084340194E+00  0.32244220546E+02 -0.24756755799E+02  0.40659139182E+02  0.00000000000E+00 0.  1.
         11    1    3    3    0    0 -0.59607107893E+01 -0.23856567105E+02  0.88434340149E+01  0.26131823369E+02  0.51100000000E-03 0. -1.
        -11    1    3    3    0    0 -0.19588387537E+01 -0.97971998098E+01  0.47546662125E+01  0.11064764997E+02  0.51100000000E-03 0.  1.
        -12    1    3    3    0    0  0.71587061410E+01  0.14095463682E+01  0.11158655572E+02  0.13332272452E+02  0.00000000000E+00 0.  1.
</event>
<event>
 7    1  0.5839176E-013  0.5052885E+02  0.7816164E-02  0.1300439E+00
        -11   -1    0    0    0    0  0.00000000000E+00  0.00000000000E+00  0.45593999997E+02  0.45594000000E+02  0.51100000000E-03 0.  1.
         11   -1    0    0    0    0 -0.00000000000E+00 -0.00000000000E+00 -0.45593999997E+02  0.45594000000E+02  0.51100000000E-03 0. -1.
    9900012    2    1    2    0    0  0.23669661577E+02 -0.13184862230E+02 -0.30316210707E+02  0.50528854623E+02  0.29999984111E+02 0.  0.
        -12    1    1    2    0    0 -0.23669661577E+02  0.13184862230E+02  0.30316210707E+02  0.40659145377E+02  0.00000000000E+00 0.  1.
         11    1    3    3    0    0  0.12485959133E+02  0.13831797345E+01 -0.83082645680E+01  0.15061195904E+02  0.51100000000E-03 0. -1.
        -11    1    3    3    0    0  0.12349556546E+02  0.62651605347E+00 -0.77167464148E+01  0.14575741653E+02  0.51100000000E-03 0.  1.
         12    1    3    3    0    0 -0.11658541023E+01 -0.15194558018E+02 -0.14291199724E+02  0.20891917066E+02  0.00000000000E+00 0. -1.
</event>
<event>
 7    1  0.5839176E-013  0.5052887E+02  0.7816164E-02  0.1300439E+00
        -11   -1    0    0    0    0  0.00000000000E+00  0.00000000000E+00  0.45593999997E+02  0.45594000000E+02  0.51100000000E-03 0.  1.
         11   -1    0    0    0    0 -0.00000000000E+00 -0.00000000000E+00 -0.45593999997E+02  0.45594000000E+02  0.51100000000E-03 0. -1.
    9900012    2    1    2    0    0 -0.25733795831E+02 -0.30925809520E+02  0.58763094390E+01  0.50528868739E+02  0.30000027018E+02 0.  0.
        -12    1    1    2    0    0  0.25733795831E+02  0.30925809520E+02 -0.58763094390E+01  0.40659131261E+02  0.00000000000E+00 0.  1.
         11    1    3    3    0    0 -0.14930822509E+02 -0.31484100365E+01  0.63948286646E+01  0.16544962389E+02  0.51100000000E-03 0. -1.
        -11    1    3    3    0    0 -0.97712481876E+00 -0.54727506590E+00  0.44703268876E+01  0.46084819249E+01  0.51100000000E-03 0.  1.
        -12    1    3    3    0    0 -0.98258485038E+01 -0.27230124417E+02 -0.49888461131E+01  0.29375424425E+02  0.00000000000E+00 0.  1.
</event>
<event>
 7    1  0.5839176E-013  0.5052881E+02  0.7816164E-02  0.1300439E+00
        -11   -1    0    0    0    0  0.00000000000E+00  0.00000000000E+00  0.45593999997E+02  0.45594000000E+02  0.51100000000E-03 0. -1.
         11   -1    0    0    0    0 -0.00000000000E+00 -0.00000000000E+00 -0.45593999997E+02  0.45594000000E+02  0.51100000000E-03 0.  1.
    9900012    2    1    2    0    0 -0.28417518889E+02 -0.25240919229E+02 -0.14439889385E+02  0.50528809296E+02  0.29999846334E+02 0.  0.
        -12    1    1    2    0    0  0.28417518889E+02  0.25240919229E+02  0.14439889385E+02  0.40659190704E+02  0.00000000000E+00 0.  1.
         11    1    3    3    0    0 -0.65479652311E+01  0.26309451349E+01  0.35765181876E+01  0.79113338684E+01  0.51100000000E-03 0.  1.
        -11    1    3    3    0    0 -0.14094172539E+02 -0.66775877283E+01 -0.10590838463E+02  0.18852101661E+02  0.51100000000E-03 0. -1.
        -12    1    3    3    0    0 -0.77753811182E+01 -0.21194276635E+02 -0.74255691092E+01  0.23765373766E+02  0.00000000000E+00 0.  1.
</event>
<event>
 7    1  0.5839176E-013  0.5052886E+02  0.7816164E-02  0.1300439E+00
        -11   -1    0    0    0    0  0.00000000000E+00  0.00000000000E+00  0.45593999997E+02  0.45594000000E+02  0.51100000000E-03 0.  1.
         11   -1    0    0    0    0 -0.00000000000E+00 -0.00000000000E+00 -0.45593999997E+02  0.45594000000E+02  0.51100000000E-03 0. -1.
    9900012    2    1    2    0    0  0.15648171453E+02 -0.18392725787E+02 -0.32710974971E+02  0.50528861849E+02  0.30000006075E+02 0.  0.
        -12    1    1    2    0    0 -0.15648171453E+02  0.18392725787E+02  0.32710974971E+02  0.40659138151E+02  0.00000000000E+00 0.  1.
         11    1    3    3    0    0  0.22621753621E+01 -0.10612531217E+01 -0.33979518538E+01  0.42177923869E+01  0.51100000000E-03 0. -1.
        -11    1    3    3    0    0  0.99657301059E+01  0.52185633057E+01 -0.17018626332E+02  0.20400559355E+02  0.51100000000E-03 0.  1.
         12    1    3    3    0    0  0.34202659847E+01 -0.22550035971E+02 -0.12294396785E+02  0.25910510107E+02  0.00000000000E+00 0. -1.
</event>
<event>
 7    1  0.5839176E-013  0.5052886E+02  0.7816164E-02  0.1300439E+00
        -11   -1    0    0    0    0  0.00000000000E+00  0.00000000000E+00  0.45593999997E+02  0.45594000000E+02  0.51100000000E-03 0. -1.
         11   -1    0    0    0    0 -0.00000000000E+00 -0.00000000000E+00 -0.45593999997E+02  0.45594000000E+02  0.51100000000E-03 0.  1.
    9900012    2    1    2    0    0 -0.13313123209E+02  0.30189510560E+02  0.23759625024E+02  0.50528861068E+02  0.30000003702E+02 0.  0.
        -12    1    1    2    0    0  0.13313123209E+02 -0.30189510560E+02 -0.23759625024E+02  0.40659138932E+02  0.00000000000E+00 0.  1.
         11    1    3    3    0    0 -0.24578106596E+01  0.19276804537E+02  0.14737143295E+02  0.24388920008E+02  0.51100000000E-03 0. -1.
        -11    1    3    3    0    0 -0.73897826349E+01  0.10376059666E+02  0.14709451451E+02  0.19458660381E+02  0.51100000000E-03 0.  1.
        -12    1    3    3    0    0 -0.34655299145E+01  0.53664635740E+00 -0.56869697214E+01  0.66812806791E+01  0.00000000000E+00 0.  1.
</event>
<event>
 7    1  0.5839176E-013  0.5052887E+02  0.7816164E-02  0.1300439E+00
        -11   -1    0    0    0    0  0.00000000000E+00  0.00000000000E+00  0.45593999997E+02  0.45594000000E+02  0.51100000000E-03 0.  1.
         11   -1    0    0    0    0 -0.00000000000E+00 -0.00000000000E+00 -0.45593999997E+02  0.45594000000E+02  0.51100000000E-03 0. -1.
    9900012    2    1    2    0    0 -0.33674963678E+02  0.22770233091E+02  0.82355032859E+00  0.50528869059E+02  0.30000027991E+02 0.  0.
        -12    1    1    2    0    0  0.33674963678E+02 -0.22770233091E+02 -0.82355032859E+00  0.40659130941E+02  0.00000000000E+00 0.  1.
         11    1    3    3    0    0 -0.84237361036E+01 -0.14669814201E+01 -0.44310505341E+01  0.96304503283E+01  0.51100000000E-03 0.  1.
        -11    1    3    3    0    0 -0.51701470619E+01 -0.27771049171E+01  0.42084451276E+01  0.72217548432E+01  0.51100000000E-03 0. -1.
         12    1    3    3    0    0 -0.20081080513E+02  0.27014319429E+02  0.10461557351E+01  0.33676663887E+02  0.00000000000E+00 0. -1.
</event>
<event>
 7    1  0.5839176E-013  0.5052886E+02  0.7816164E-02  0.1300439E+00
        -11   -1    0    0    0    0  0.00000000000E+00  0.00000000000E+00  0.45593999997E+02  0.45594000000E+02  0.51100000000E-03 0. -1.
         11   -1    0    0    0    0 -0.00000000000E+00 -0.00000000000E+00 -0.45593999997E+02  0.45594000000E+02  0.51100000000E-03 0.  1.
    9900012    2    1    2    0    0  0.25487993123E+02 -0.43304270285E-01  0.31678476028E+02  0.50528861886E+02  0.30000006188E+02 0.  0.
        -12    1    1    2    0    0 -0.25487993123E+02  0.43304270285E-01 -0.31678476028E+02  0.40659138114E+02  0.00000000000E+00 0.  1.
         11    1    3    3    0    0  0.34719715101E+00  0.12584899414E+01  0.27813009233E+01  0.30724546996E+01  0.51100000000E-03 0. -1.
        -11    1    3    3    0    0  0.31365144886E+02 -0.83107417176E+00  0.23437268562E+02  0.39163357311E+02  0.51100000000E-03 0.  1.
        -12    1    3    3    0    0 -0.62243489139E+01 -0.47072003988E+00  0.54599065435E+01  0.82930498745E+01  0.00000000000E+00 0.  1.
</event>
<event>
 7    1  0.5839176E-013  0.5052886E+02  0.7816164E-02  0.1300439E+00
        -11   -1    0    0    0    0  0.00000000000E+00  0.00000000000E+00  0.45593999997E+02  0.45594000000E+02  0.51100000000E-03 0. -1.
         11   -1    0    0    0    0 -0.00000000000E+00 -0.00000000000E+00 -0.45593999997E+02  0.45594000000E+02  0.51100000000E-03 0.  1.
    9900012    2    1    2    0    0  0.19045222185E+01  0.34592298541E+02  0.21281723354E+02  0.50528855000E+02  0.29999985258E+02 0.  0.
        -12    1    1    2    0    0 -0.19045222185E+01 -0.34592298541E+02 -0.21281723354E+02  0.40659145000E+02  0.00000000000E+00 0.  1.
         11    1    3    3    0    0 -0.53002264246E+01  0.14797923535E+02 -0.28271368372E+01  0.15970712071E+02  0.51100000000E-03 0. -1.
        -11    1    3    3    0    0  0.32975056412E+00  0.77550268968E+00 -0.16239351587E+01  0.18295642970E+01  0.51100000000E-03 0.  1.
         12    1    3    3    0    0  0.68749980789E+01  0.19018872316E+02  0.25732795350E+02  0.32728578632E+02  0.00000000000E+00 0. -1.
</event>
<event>
 7    1  0.5839176E-013  0.5052886E+02  0.7816164E-02  0.1300439E+00
        -11   -1    0    0    0    0  0.00000000000E+00  0.00000000000E+00  0.45593999997E+02  0.45594000000E+02  0.51100000000E-03 0.  1.
         11   -1    0    0    0    0 -0.00000000000E+00 -0.00000000000E+00 -0.45593999997E+02  0.45594000000E+02  0.51100000000E-03 0. -1.
    9900012    2    1    2    0    0 -0.91599707021E+01  0.11172740205E+02 -0.38005661730E+02  0.50528861906E+02  0.30000006250E+02 0.  0.
        -12    1    1    2    0    0  0.91599707021E+01 -0.11172740205E+02  0.38005661730E+02  0.40659138094E+02  0.00000000000E+00 0.  1.
         11    1    3    3    0    0 -0.11664549832E+02  0.10696578332E+02 -0.20373772194E+02  0.25798626019E+02  0.51100000000E-03 0. -1.
        -11    1    3    3    0    0 -0.19350730488E+01  0.78231605698E+01 -0.12029913943E+02  0.14479819707E+02  0.51100000000E-03 0.  1.
         12    1    3    3    0    0  0.44396521790E+01 -0.73469986966E+01 -0.56019755937E+01  0.10250416180E+02  0.00000000000E+00 0. -1.
</event>
<event>
 7    1  0.5839176E-013  0.5052886E+02  0.7816164E-02  0.1300439E+00
        -11   -1    0    0    0    0  0.00000000000E+00  0.00000000000E+00  0.45593999997E+02  0.45594000000E+02  0.51100000000E-03 0.  1.
         11   -1    0    0    0    0 -0.00000000000E+00 -0.00000000000E+00 -0.45593999997E+02  0.45594000000E+02  0.51100000000E-03 0. -1.
    9900012    2    1    2    0    0 -0.12346774359E+02 -0.15810706812E+02 -0.35365861161E+02  0.50528862988E+02  0.30000009537E+02 0.  0.
        -12    1    1    2    0    0  0.12346774359E+02  0.15810706812E+02  0.35365861161E+02  0.40659137012E+02  0.00000000000E+00 0.  1.
         11    1    3    3    0    0  0.21233102223E+01 -0.17302858563E+02 -0.20747237780E+02  0.27098805076E+02  0.51100000000E-03 0. -1.
        -11    1    3    3    0    0 -0.16060528230E+01 -0.34374363742E+01 -0.72197971138E+00  0.38622052589E+01  0.51100000000E-03 0.  1.
         12    1    3    3    0    0 -0.12864031759E+02  0.49295881260E+01 -0.13896643669E+02  0.19567852653E+02  0.00000000000E+00 0. -1.
</event>
<event>
 7    1  0.5839176E-013  0.5052885E+02  0.7816164E-02  0.1300439E+00
        -11   -1    0    0    0    0  0.00000000000E+00  0.00000000000E+00  0.45593999997E+02  0.45594000000E+02  0.51100000000E-03 0.  1.
         11   -1    0    0    0    0 -0.00000000000E+00 -0.00000000000E+00 -0.45593999997E+02  0.45594000000E+02  0.51100000000E-03 0. -1.
    9900012    2    1    2    0    0  0.18040187411E+02  0.35871018024E+02 -0.64021740060E+01  0.50528854314E+02  0.29999983173E+02 0.  0.
        -12    1    1    2    0    0 -0.18040187411E+02 -0.35871018024E+02  0.64021740060E+01  0.40659145686E+02  0.00000000000E+00 0.  1.
         11    1    3    3    0    0  0.17578595581E+02  0.34641870222E+02 -0.68979356372E+01  0.39454375060E+02  0.51100000000E-03 0. -1.
        -11    1    3    3    0    0  0.35796554654E+01  0.46260154076E+01  0.20660981982E+01  0.62034437072E+01  0.51100000000E-03 0.  1.
         12    1    3    3    0    0 -0.31180636359E+01 -0.33968676050E+01 -0.15703365670E+01  0.48710355467E+01  0.00000000000E+00 0. -1.
</event>
<event>
 7    1  0.5839176E-013  0.5052886E+02  0.7816164E-02  0.1300439E+00
        -11   -1    0    0    0    0  0.00000000000E+00  0.00000000000E+00  0.45593999997E+02  0.45594000000E+02  0.51100000000E-03 0. -1.
         11   -1    0    0    0    0 -0.00000000000E+00 -0.00000000000E+00 -0.45593999997E+02  0.45594000000E+02  0.51100000000E-03 0.  1.
    9900012    2    1    2    0    0  0.46617556680E+01 -0.38036959814E+02  0.13587620689E+02  0.50528859407E+02  0.29999998653E+02 0.  0.
        -12    1    1    2    0    0 -0.46617556680E+01  0.38036959814E+02 -0.13587620689E+02  0.40659140593E+02  0.00000000000E+00 0.  1.
         11    1    3    3    0    0  0.75637023602E+01 -0.64244945427E+01  0.71083908938E+01  0.12207085847E+02  0.51100000000E-03 0. -1.
        -11    1    3    3    0    0  0.13414872700E+01 -0.21910620226E+01  0.81536381767E+01  0.85488102483E+01  0.51100000000E-03 0.  1.
        -12    1    3    3    0    0 -0.42434339623E+01 -0.29421403249E+02 -0.16744083820E+01  0.29772963311E+02  0.00000000000E+00 0.  1.
</event>
<event>
 7    1  0.5839176E-013  0.5052886E+02  0.7816164E-02  0.1300439E+00
        -11   -1    0    0    0    0  0.00000000000E+00  0.00000000000E+00  0.45593999997E+02  0.45594000000E+02  0.51100000000E-03 0. -1.
         11   -1    0    0    0    0 -0.00000000000E+00 -0.00000000000E+00 -0.45593999997E+02  0.45594000000E+02  0.51100000000E-03 0.  1.
    9900012    2    1    2    0    0 -0.13131724474E+02 -0.35986151653E+02 -0.13627922723E+02  0.50528861098E+02  0.30000003794E+02 0.  0.
        -12    1    1    2    0    0  0.13131724474E+02  0.35986151653E+02  0.13627922723E+02  0.40659138902E+02  0.00000000000E+00 0.  1.
         11    1    3    3    0    0 -0.87939389583E+01 -0.11790756221E+02 -0.11376144711E+02  0.18594944566E+02  0.51100000000E-03 0. -1.
        -11    1    3    3    0    0 -0.11867478826E+02 -0.12151477001E+02 -0.44560379322E+01  0.17559946506E+02  0.51100000000E-03 0.  1.
         12    1    3    3    0    0  0.75296933098E+01 -0.12043918431E+02  0.22042599196E+01  0.14373970026E+02  0.00000000000E+00 0. -1.
</event>
<event>
 7    1  0.5839176E-013  0.5052883E+02  0.7816164E-02  0.1300439E+00
        -11   -1    0    0    0    0  0.00000000000E+00  0.00000000000E+00  0.45593999997E+02  0.45594000000E+02  0.51100000000E-03 0.  1.
         11   -1    0    0    0    0 -0.00000000000E+00 -0.00000000000E+00 -0.45593999997E+02  0.45594000000E+02  0.51100000000E-03 0. -1.
    9900012    2    1    2    0    0 -0.17567701634E+02 -0.12883833842E+02 -0.34330021644E+02  0.50528834966E+02  0.29999924364E+02 0.  0.
        -12    1    1    2    0    0  0.17567701634E+02  0.12883833842E+02  0.34330021644E+02  0.40659165034E+02  0.00000000000E+00 0.  1.
         11    1    3    3    0    0 -0.10070315479E+02 -0.83437314598E+01 -0.65953345093E+01  0.14646758893E+02  0.51100000000E-03 0. -1.
        -11    1    3    3    0    0 -0.93601790898E+01  0.60749600826E+00 -0.20249101473E+01  0.95959504667E+01  0.51100000000E-03 0.  1.
         12    1    3    3    0    0  0.18627929342E+01 -0.51475983905E+01 -0.25709776987E+02  0.26286125607E+02  0.00000000000E+00 0. -1.
</event>
<event>
 7    1  0.5839176E-013  0.5052886E+02  0.7816164E-02  0.1300439E+00
        -11   -1    0    0    0    0  0.00000000000E+00  0.00000000000E+00  0.45593999997E+02  0.45594000000E+02  0.51100000000E-03 0. -1.
         11   -1    0    0    0    0 -0.00000000000E+00 -0.00000000000E+00 -0.45593999997E+02  0.45594000000E+02  0.51100000000E-03 0.  1.
    9900012    2    1    2    0    0  0.34104904702E+02  0.21883182189E+02 -0.33388217402E+01  0.50528856895E+02  0.29999991017E+02 0.  0.
        -12    1    1    2    0    0 -0.34104904702E+02 -0.21883182189E+02  0.33388217402E+01  0.40659143105E+02  0.00000000000E+00 0.  1.
         11    1    3    3    0    0  0.17725701255E+02  0.21051574664E+01 -0.37566247578E+01  0.18241282926E+02  0.51100000000E-03 0. -1.
        -11    1    3    3    0    0  0.51745627372E+01 -0.34374285421E+01 -0.16476609614E+01  0.64270367517E+01  0.51100000000E-03 0.  1.
        -12    1    3    3    0    0  0.11204640710E+02  0.23215453264E+02  0.20654639790E+01  0.25860537217E+02  0.00000000000E+00 0.  1.
</event>
<event>
 7    1  0.5839176E-013  0.5052884E+02  0.7816164E-02  0.1300439E+00
        -11   -1    0    0    0    0  0.00000000000E+00  0.00000000000E+00  0.45593999997E+02  0.45594000000E+02  0.51100000000E-03 0.  1.
         11   -1    0    0    0    0 -0.00000000000E+00 -0.00000000000E+00 -0.45593999997E+02  0.45594000000E+02  0.51100000000E-03 0. -1.
    9900012    2    1    2    0    0 -0.25610518547E+02 -0.24149158279E+02 -0.20349125666E+02  0.50528838411E+02  0.29999934833E+02 0.  0.
        -12    1    1    2    0    0  0.25610518547E+02  0.24149158279E+02  0.20349125666E+02  0.40659161589E+02  0.00000000000E+00 0.  1.
         11    1    3    3    0    0 -0.22700099470E+00 -0.14082785339E+01 -0.37268802678E+01  0.39905406491E+01  0.51100000000E-03 0. -1.
        -11    1    3    3    0    0  0.53550025949E+01 -0.48572948234E+01 -0.60794611392E+01  0.94461216273E+01  0.51100000000E-03 0.  1.
         12    1    3    3    0    0 -0.30738520147E+02 -0.17883584921E+02 -0.10542784259E+02  0.37092176134E+02  0.00000000000E+00 0. -1.
</event>
<event>
 7    1  0.5839176E-013  0.5052886E+02  0.7816164E-02  0.1300439E+00
        -11   -1    0    0    0    0  0.00000000000E+00  0.00000000000E+00  0.45593999997E+02  0.45594000000E+02  0.51100000000E-03 0.  1.
         11   -1    0    0    0    0 -0.00000000000E+00 -0.00000000000E+00 -0.45593999997E+02  0.45594000000E+02  0.51100000000E-03 0. -1.
    9900012    2    1    2    0    0 -0.16680474329E+02  0.36809815795E+02  0.44681660080E+01  0.50528864862E+02  0.30000015235E+02 0.  0.
        -12    1    1    2    0    0  0.16680474329E+02 -0.36809815795E+02 -0.44681660080E+01  0.40659135138E+02  0.00000000000E+00 0.  1.
         11    1    3    3    0    0 -0.11096033430E+01  0.32892349495E+01 -0.60727620139E+01  0.69949070666E+01  0.51100000000E-03 0. -1.
        -11    1    3    3    0    0 -0.40801566168E+01 -0.15443821984E+01 -0.16624413932E+01  0.46686728349E+01  0.51100000000E-03 0.  1.
        -12    1    3    3    0    0 -0.11490714369E+02  0.35064963044E+02  0.12203369415E+02  0.38865284961E+02  0.00000000000E+00 0.  1.
</event>
<event>
 7    1  0.5839176E-013  0.5052886E+02  0.7816164E-02  0.1300439E+00
        -11   -1    0    0    0    0  0.00000000000E+00  0.00000000000E+00  0.45593999997E+02  0.45594000000E+02  0.51100000000E-03 0. -1.
         11   -1    0    0    0    0 -0.00000000000E+00 -0.00000000000E+00 -0.45593999997E+02  0.45594000000E+02  0.51100000000E-03 0.  1.
    9900012    2    1    2    0    0 -0.30519748163E+02 -0.73825435936E+01  0.25830380060E+02  0.50528861890E+02  0.30000006200E+02 0.  0.
        -12    1    1    2    0    0  0.30519748163E+02  0.73825435936E+01 -0.25830380060E+02  0.40659138110E+02  0.00000000000E+00 0.  1.
         11    1    3    3    0    0  0.53027427542E+01  0.55348145384E+00  0.17483847758E+01  0.56109065241E+01  0.51100000000E-03 0.  1.
        -11    1    3    3    0    0 -0.33143887591E+01 -0.38375509605E+01  0.22650901426E+01  0.55536117830E+01  0.51100000000E-03 0. -1.
        -12    1    3    3    0    0 -0.32508102158E+02 -0.40984740870E+01  0.21816905141E+02  0.39364343583E+02  0.00000000000E+00 0.  1.
</event>
<event>
 7    1  0.5839176E-013  0.5052886E+02  0.7816164E-02  0.1300439E+00
        -11   -1    0    0    0    0  0.00000000000E+00  0.00000000000E+00  0.45593999997E+02  0.45594000000E+02  0.51100000000E-03 0.  1.
         11   -1    0    0    0    0 -0.00000000000E+00 -0.00000000000E+00 -0.45593999997E+02  0.45594000000E+02  0.51100000000E-03 0. -1.
    9900012    2    1    2    0    0  0.11566055579E+02  0.12346236516E+02 -0.36972454941E+02  0.50528860534E+02  0.30000002078E+02 0.  0.
        -12    1    1    2    0    0 -0.11566055579E+02 -0.12346236516E+02  0.36972454941E+02  0.40659139466E+02  0.00000000000E+00 0.  1.
         11    1    3    3    0    0 -0.49631721734E+01 -0.26978907420E+01 -0.10070766369E+02  0.11546948861E+02  0.51100000000E-03 0. -1.
        -11    1    3    3    0    0  0.27496407515E+01 -0.35047397665E+01 -0.78828007098E+01  0.90544062414E+01  0.51100000000E-03 0.  1.
         12    1    3    3    0    0  0.13779587001E+02  0.18548867025E+02 -0.19018887862E+02  0.29927505431E+02  0.00000000000E+00 0. -1.
</event>
<event>
 7    1  0.5839176E-013  0.5052886E+02  0.7816164E-02  0.1300439E+00
        -11   -1    0    0    0    0  0.00000000000E+00  0.00000000000E+00  0.45593999997E+02  0.45594000000E+02  0.51100000000E-03 0.  1.
         11   -1    0    0    0    0 -0.00000000000E+00 -0.00000000000E+00 -0.45593999997E+02  0.45594000000E+02  0.51100000000E-03 0. -1.
    9900012    2    1    2    0    0  0.22036811840E+02  0.29977568960E+02 -0.16397865798E+02  0.50528859336E+02  0.29999998437E+02 0.  0.
        -12    1    1    2    0    0 -0.22036811840E+02 -0.29977568960E+02  0.16397865798E+02  0.40659140664E+02  0.00000000000E+00 0.  1.
         11    1    3    3    0    0 -0.90851491907E-01  0.12103150539E+02 -0.10403323509E+02  0.15960064137E+02  0.51100000000E-03 0. -1.
        -11    1    3    3    0    0  0.54233850285E+01 -0.34846566456E+01 -0.35095118237E+01  0.73397963601E+01  0.51100000000E-03 0.  1.
         12    1    3    3    0    0  0.16704278304E+02  0.21359075067E+02 -0.24850304651E+01  0.27228998839E+02  0.00000000000E+00 0. -1.
</event>
<event>
 7    1  0.5839176E-013  0.5052878E+02  0.7816164E-02  0.1300439E+00
        -11   -1    0    0    0    0  0.00000000000E+00  0.00000000000E+00  0.45593999997E+02  0.45594000000E+02  0.51100000000E-03 0.  1.
         11   -1    0    0    0    0 -0.00000000000E+00 -0.00000000000E+00 -0.45593999997E+02  0.45594000000E+02  0.51100000000E-03 0. -1.
    9900012    2    1    2    0    0 -0.14412789927E+02  0.37939275492E+02 -0.24606986589E+01  0.50528779936E+02  0.29999757092E+02 0.  0.
        -12    1    1    2    0    0  0.14412789927E+02 -0.37939275492E+02  0.24606986589E+01  0.40659220064E+02  0.00000000000E+00 0.  1.
         11    1    3    3    0    0 -0.39024562063E+01  0.50554108538E+00  0.63251173099E+01  0.74492848970E+01  0.51100000000E-03 0. -1.
        -11    1    3    3    0    0 -0.39026702310E+01  0.11761247555E+01  0.21872814560E+01  0.46258301743E+01  0.51100000000E-03 0.  1.
         12    1    3    3    0    0 -0.66076634897E+01  0.36257609651E+02 -0.10973097425E+02  0.38453664864E+02  0.00000000000E+00 0. -1.
</event>
<event>
 7    1  0.5839176E-013  0.5052886E+02  0.7816164E-02  0.1300439E+00
        -11   -1    0    0    0    0  0.00000000000E+00  0.00000000000E+00  0.45593999997E+02  0.45594000000E+02  0.51100000000E-03 0. -1.
         11   -1    0    0    0    0 -0.00000000000E+00 -0.00000000000E+00 -0.45593999997E+02  0.45594000000E+02  0.51100000000E-03 0.  1.
    9900012    2    1    2    0    0 -0.45799817158E+00  0.30595233321E+02  0.26774751484E+02  0.50528863495E+02  0.30000011079E+02 0.  0.
        -12    1    1    2    0    0  0.45799817158E+00 -0.30595233321E+02 -0.26774751484E+02  0.40659136505E+02  0.00000000000E+00 0.  1.
         11    1    3    3    0    0 -0.70414771444E+00 -0.21082005684E+01  0.22841632981E+01  0.31871203105E+01  0.51100000000E-03 0. -1.
        -11    1    3    3    0    0 -0.21552299799E+01  0.55297857099E+00 -0.38299537147E+01  0.44293732383E+01  0.51100000000E-03 0.  1.
         12    1    3    3    0    0  0.24013795228E+01  0.32150455319E+02  0.28320541901E+02  0.42912369946E+02  0.00000000000E+00 0. -1.
</event>
<event>
 7    1  0.5839176E-013  0.5052886E+02  0.7816164E-02  0.1300439E+00
        -11   -1    0    0    0    0  0.00000000000E+00  0.00000000000E+00  0.45593999997E+02  0.45594000000E+02  0.51100000000E-03 0. -1.
         11   -1    0    0    0    0 -0.00000000000E+00 -0.00000000000E+00 -0.45593999997E+02  0.45594000000E+02  0.51100000000E-03 0.  1.
    9900012    2    1    2    0    0 -0.39450675326E+02  0.58584462656E+01 -0.79049555907E+01  0.50528862045E+02  0.30000006673E+02 0.  0.
        -12    1    1    2    0    0  0.39450675326E+02 -0.58584462656E+01  0.79049555907E+01  0.40659137955E+02  0.00000000000E+00 0.  1.
         11    1    3    3    0    0 -0.78346720913E+01  0.70298403474E+01  0.66751930557E+01  0.12464306827E+02  0.51100000000E-03 0.  1.
        -11    1    3    3    0    0 -0.55751326478E+01  0.20464199668E+01  0.28262306856E+01  0.65770448433E+01  0.51100000000E-03 0. -1.
        -12    1    3    3    0    0 -0.26040870587E+02 -0.32178140486E+01 -0.17406379332E+02  0.31487510375E+02  0.00000000000E+00 0.  1.
</event>
<event>
 7    1  0.5839176E-013  0.5052886E+02  0.7816164E-02  0.1300439E+00
        -11   -1    0    0    0    0  0.00000000000E+00  0.00000000000E+00  0.45593999997E+02  0.45594000000E+02  0.51100000000E-03 0.  1.
         11   -1    0    0    0    0 -0.00000000000E+00 -0.00000000000E+00 -0.45593999997E+02  0.45594000000E+02  0.51100000000E-03 0. -1.
    9900012    2    1    2    0    0 -0.53241464024E+01  0.25184361930E+01 -0.40230292034E+02  0.50528862615E+02  0.30000008403E+02 0.  0.
        -12    1    1    2    0    0  0.53241464024E+01 -0.25184361930E+01  0.40230292034E+02  0.40659137385E+02  0.00000000000E+00 0.  1.
         11    1    3    3    0    0  0.54022575953E+01  0.15132760422E+01 -0.24353204917E+02  0.24991058031E+02  0.51100000000E-03 0.  1.
        -11    1    3    3    0    0  0.18729831718E+01 -0.20163236773E+01 -0.11556696366E+02  0.11879850937E+02  0.51100000000E-03 0. -1.
        -12    1    3    3    0    0 -0.12599387169E+02  0.30214838281E+01 -0.43203907509E+01  0.13657953646E+02  0.00000000000E+00 0.  1.
</event>
<event>
 7    1  0.5839176E-013  0.5052886E+02  0.7816164E-02  0.1300439E+00
        -11   -1    0    0    0    0  0.00000000000E+00  0.00000000000E+00  0.45593999997E+02  0.45594000000E+02  0.51100000000E-03 0.  1.
         11   -1    0    0    0    0 -0.00000000000E+00 -0.00000000000E+00 -0.45593999997E+02  0.45594000000E+02  0.51100000000E-03 0. -1.
    9900012    2    1    2    0    0  0.35783582722E+02 -0.87338989959E+00 -0.19285700801E+02  0.50528857636E+02  0.29999993272E+02 0.  0.
        -12    1    1    2    0    0 -0.35783582722E+02  0.87338989959E+00  0.19285700801E+02  0.40659142364E+02  0.00000000000E+00 0.  1.
         11    1    3    3    0    0  0.24078252510E+02 -0.33038006018E+01 -0.74717380704E+01  0.25426447106E+02  0.51100000000E-03 0. -1.
        -11    1    3    3    0    0  0.79389023279E+01 -0.71283430517E+01 -0.19238384474E+01  0.10841614246E+02  0.51100000000E-03 0.  1.
        -12    1    3    3    0    0  0.37664278842E+01  0.95587537539E+01 -0.98901242828E+01  0.14260796284E+02  0.00000000000E+00 0.  1.
</event>
<event>
 7    1  0.5839176E-013  0.5052886E+02  0.7816164E-02  0.1300439E+00
        -11   -1    0    0    0    0  0.00000000000E+00  0.00000000000E+00  0.45593999997E+02  0.45594000000E+02  0.51100000000E-03 0.  1.
         11   -1    0    0    0    0 -0.00000000000E+00 -0.00000000000E+00 -0.45593999997E+02  0.45594000000E+02  0.51100000000E-03 0. -1.
    9900012    2    1    2    0    0  0.15186269476E+02  0.34794962547E+02  0.14555195528E+02  0.50528856919E+02  0.29999991092E+02 0.  0.
        -12    1    1    2    0    0 -0.15186269476E+02 -0.34794962547E+02 -0.14555195528E+02  0.40659143081E+02  0.00000000000E+00 0.  1.
         11    1    3    3    0    0  0.75874971601E+01  0.12492583588E+02  0.10619961003E+02  0.18067050944E+02  0.51100000000E-03 0. -1.
        -11    1    3    3    0    0 -0.45807785885E+01  0.17398932306E+02  0.64128014919E+01  0.19100534052E+02  0.51100000000E-03 0.  1.
         12    1    3    3    0    0  0.12179550904E+02  0.49034466527E+01 -0.24775669672E+01  0.13361271922E+02  0.00000000000E+00 0. -1.
</event>
<event>
 7    1  0.5839176E-013  0.5052882E+02  0.7816164E-02  0.1300439E+00
        -11   -1    0    0    0    0  0.00000000000E+00  0.00000000000E+00  0.45593999997E+02  0.45594000000E+02  0.51100000000E-03 0.  1.
         11   -1    0    0    0    0 -0.00000000000E+00 -0.00000000000E+00 -0.45593999997E+02  0.45594000000E+02  0.51100000000E-03 0. -1.
    9900012    2    1    2    0    0  0.65162627350E+01  0.38861721373E+02 -0.10023649219E+02  0.50528823770E+02  0.29999890330E+02 0.  0.
        -12    1    1    2    0    0 -0.65162627350E+01 -0.38861721373E+02  0.10023649219E+02  0.40659176230E+02  0.00000000000E+00 0.  1.
         11    1    3    3    0    0 -0.74309225665E-01  0.23855626258E+02 -0.10045612789E+02  0.25884566107E+02  0.51100000000E-03 0. -1.
        -11    1    3    3    0    0 -0.53706759436E+01  0.10018189715E+02 -0.19577431628E+01  0.11534341932E+02  0.51100000000E-03 0.  1.
        -12    1    3    3    0    0  0.11961247904E+02  0.49879054004E+01  0.19797067330E+01  0.13109915730E+02  0.00000000000E+00 0.  1.
</event>
<event>
 7    1  0.5839176E-013  0.5052887E+02  0.7816164E-02  0.1300439E+00
        -11   -1    0    0    0    0  0.00000000000E+00  0.00000000000E+00  0.45593999997E+02  0.45594000000E+02  0.51100000000E-03 0.  1.
         11   -1    0    0    0    0 -0.00000000000E+00 -0.00000000000E+00 -0.45593999997E+02  0.45594000000E+02  0.51100000000E-03 0. -1.
    9900012    2    1    2    0    0  0.20189232588E+02  0.14615660041E+02 -0.32123862456E+02  0.50528866094E+02  0.30000018979E+02 0.  0.
        -12    1    1    2    0    0 -0.20189232588E+02 -0.14615660041E+02  0.32123862456E+02  0.40659133906E+02  0.00000000000E+00 0.  1.
         11    1    3    3    0    0  0.76191514004E+01 -0.22979914660E+01 -0.67185964375E+01  0.10414978214E+02  0.51100000000E-03 0. -1.
        -11    1    3    3    0    0 -0.65183781378E+01  0.33028411823E+01 -0.38171644708E+01  0.82443167261E+01  0.51100000000E-03 0.  1.
         12    1    3    3    0    0  0.19088459325E+02  0.13610810325E+02 -0.21588101547E+02  0.31869571154E+02  0.00000000000E+00 0. -1.
</event>
<event>
 7    1  0.5839176E-013  0.5052882E+02  0.7816164E-02  0.1300439E+00
        -11   -1    0    0    0    0  0.00000000000E+00  0.00000000000E+00  0.45593999997E+02  0.45594000000E+02  0.51100000000E-03 0.  1.
         11   -1    0    0    0    0 -0.00000000000E+00 -0.00000000000E+00 -0.45593999997E+02  0.45594000000E+02  0.51100000000E-03 0. -1.
    9900012    2    1    2    0    0 -0.26671576341E+01 -0.40138571400E+02 -0.59118590040E+01  0.50528822429E+02  0.29999886254E+02 0.  0.
        -12    1    1    2    0    0  0.26671576341E+01  0.40138571400E+02  0.59118590040E+01  0.40659177571E+02  0.00000000000E+00 0.  1.
         11    1    3    3    0    0  0.49692837771E+00 -0.29717823224E+02  0.50817231102E+01  0.30153272874E+02  0.51100000000E-03 0. -1.
        -11    1    3    3    0    0  0.60539890642E-02  0.20710477584E+01  0.13965353605E+01  0.24979164803E+01  0.51100000000E-03 0.  1.
         12    1    3    3    0    0 -0.31701400009E+01 -0.12491795934E+02 -0.12390117475E+02  0.17877633074E+02  0.00000000000E+00 0. -1.
</event>
<event>
 7    1  0.5839176E-013  0.5052884E+02  0.7816164E-02  0.1300439E+00
        -11   -1    0    0    0    0  0.00000000000E+00  0.00000000000E+00  0.45593999997E+02  0.45594000000E+02  0.51100000000E-03 0. -1.
         11   -1    0    0    0    0 -0.00000000000E+00 -0.00000000000E+00 -0.45593999997E+02  0.45594000000E+02  0.51100000000E-03 0.  1.
    9900012    2    1    2    0    0  0.18462545787E+02 -0.35856425295E+02  0.51593015066E+01  0.50528840836E+02  0.29999942205E+02 0.  0.
        -12    1    1    2    0    0 -0.18462545787E+02  0.35856425295E+02 -0.51593015066E+01  0.40659159164E+02  0.00000000000E+00 0.  1.
         11    1    3    3    0    0  0.13782019327E+02 -0.49451784389E+01 -0.28473829927E+01  0.14916649647E+02  0.51100000000E-03 0. -1.
        -11    1    3    3    0    0 -0.29274876699E+01 -0.15719987844E+01 -0.17698948474E+01  0.37648230062E+01  0.51100000000E-03 0.  1.
        -12    1    3    3    0    0  0.76080141291E+01 -0.29339248072E+02  0.97765793468E+01  0.31847368182E+02  0.00000000000E+00 0.  1.
</event>
<event>
 7    1  0.5839176E-013  0.5052885E+02  0.7816164E-02  0.1300439E+00
        -11   -1    0    0    0    0  0.00000000000E+00  0.00000000000E+00  0.45593999997E+02  0.45594000000E+02  0.51100000000E-03 0. -1.
         11   -1    0    0    0    0 -0.00000000000E+00 -0.00000000000E+00 -0.45593999997E+02  0.45594000000E+02  0.51100000000E-03 0.  1.
    9900012    2    1    2    0    0  0.28080583235E+02  0.22876680601E+01  0.29315756498E+02  0.50528853931E+02  0.29999982009E+02 0.  0.
        -12    1    1    2    0    0 -0.28080583235E+02 -0.22876680601E+01 -0.29315756498E+02  0.40659146069E+02  0.00000000000E+00 0.  1.
         11    1    3    3    0    0  0.11236720796E+01 -0.20387824041E+01  0.65785099952E+01  0.69782567058E+01  0.51100000000E-03 0. -1.
        -11    1    3    3    0    0 -0.92060931367E+00  0.34228513856E+01  0.13820555456E+02  0.14267837484E+02  0.51100000000E-03 0.  1.
        -12    1    3    3    0    0  0.27877520469E+02  0.90359907859E+00  0.89166910475E+01  0.29282759741E+02  0.00000000000E+00 0.  1.
</event>
<event>
 7    1  0.5839176E-013  0.5052885E+02  0.7816164E-02  0.1300439E+00
        -11   -1    0    0    0    0  0.00000000000E+00  0.00000000000E+00  0.45593999997E+02  0.45594000000E+02  0.51100000000E-03 0.  1.
         11   -1    0    0    0    0 -0.00000000000E+00 -0.00000000000E+00 -0.45593999997E+02  0.45594000000E+02  0.51100000000E-03 0. -1.
    9900012    2    1    2    0    0 -0.17297726853E+01  0.71101360094E+01 -0.39995249933E+02  0.50528853860E+02  0.29999981794E+02 0.  0.
        -12    1    1    2    0    0  0.17297726853E+01 -0.71101360094E+01  0.39995249933E+02  0.40659146140E+02  0.00000000000E+00 0.  1.
         11    1    3    3    0    0  0.29397814447E+01 -0.26107755906E+01 -0.20714458121E+02  0.21084288929E+02  0.51100000000E-03 0. -1.
        -11    1    3    3    0    0 -0.61872358372E+01 -0.22409259289E+01  0.14349048919E+00  0.65821141061E+01  0.51100000000E-03 0.  1.
        -12    1    3    3    0    0  0.15176817072E+01  0.11961837529E+02 -0.19424282301E+02  0.22862450825E+02  0.00000000000E+00 0.  1.
</event>
<event>
 7    1  0.5839176E-013  0.5052887E+02  0.7816164E-02  0.1300439E+00
        -11   -1    0    0    0    0  0.00000000000E+00  0.00000000000E+00  0.45593999997E+02  0.45594000000E+02  0.51100000000E-03 0.  1.
         11   -1    0    0    0    0 -0.00000000000E+00 -0.00000000000E+00 -0.45593999997E+02  0.45594000000E+02  0.51100000000E-03 0. -1.
    9900012    2    1    2    0    0  0.16790124681E+02 -0.14250106799E+02 -0.34178813526E+02  0.50528866652E+02  0.30000020674E+02 0.  0.
        -12    1    1    2    0    0 -0.16790124681E+02  0.14250106799E+02  0.34178813526E+02  0.40659133348E+02  0.00000000000E+00 0.  1.
         11    1    3    3    0    0  0.26314631233E+01 -0.55960313429E+00 -0.93137745298E+01  0.96945422837E+01  0.51100000000E-03 0. -1.
        -11    1    3    3    0    0 -0.21663576641E+01 -0.14116051787E+02 -0.18349160751E+02  0.23251832705E+02  0.51100000000E-03 0.  1.
         12    1    3    3    0    0  0.16325019221E+02  0.42554812268E+00 -0.65158782454E+01  0.17582491663E+02  0.00000000000E+00 0. -1.
</event>
<event>
 7    1  0.5839176E-013  0.5052886E+02  0.7816164E-02  0.1300439E+00
        -11   -1    0    0    0    0  0.00000000000E+00  0.00000000000E+00  0.45593999997E+02  0.45594000000E+02  0.51100000000E-03 0.  1.
         11   -1    0    0    0    0 -0.00000000000E+00 -0.00000000000E+00 -0.45593999997E+02  0.45594000000E+02  0.51100000000E-03 0. -1.
    9900012    2    1    2    0    0  0.34205602662E+01 -0.28204994505E+01 -0.40416706362E+02  0.50528860771E+02  0.30000002800E+02 0.  0.
        -12    1    1    2    0    0 -0.34205602662E+01  0.28204994505E+01  0.40416706362E+02  0.40659139229E+02  0.00000000000E+00 0.  1.
         11    1    3    3    0    0 -0.61647322623E+01 -0.57831332490E+01 -0.11802612960E+02  0.14517238959E+02  0.51100000000E-03 0. -1.
        -11    1    3    3    0    0  0.76321194152E+01 -0.61337089038E+01 -0.58166021048E+01  0.11388787995E+02  0.51100000000E-03 0.  1.
         12    1    3    3    0    0  0.19531731133E+01  0.90963427022E+01 -0.22797491297E+02  0.24622833817E+02  0.00000000000E+00 0. -1.
</event>
<event>
 7    1  0.5839176E-013  0.5052886E+02  0.7816164E-02  0.1300439E+00
        -11   -1    0    0    0    0  0.00000000000E+00  0.00000000000E+00  0.45593999997E+02  0.45594000000E+02  0.51100000000E-03 0. -1.
         11   -1    0    0    0    0 -0.00000000000E+00 -0.00000000000E+00 -0.45593999997E+02  0.45594000000E+02  0.51100000000E-03 0.  1.
    9900012    2    1    2    0    0 -0.20959981998E+02  0.13401262577E+02  0.32159768477E+02  0.50528863357E+02  0.30000010660E+02 0.  0.
        -12    1    1    2    0    0  0.20959981998E+02 -0.13401262577E+02 -0.32159768477E+02  0.40659136643E+02  0.00000000000E+00 0.  1.
         11    1    3    3    0    0  0.45658971906E+01  0.39495416770E+01  0.15700602762E+02  0.16821272959E+02  0.51100000000E-03 0.  1.
        -11    1    3    3    0    0 -0.80454589505E+01  0.34169746790E+01  0.11713758198E+02  0.14615651100E+02  0.51100000000E-03 0. -1.
        -12    1    3    3    0    0 -0.17480420239E+02  0.60347462211E+01  0.47454075172E+01  0.19091939298E+02  0.00000000000E+00 0.  1.
</event>
<event>
 7    1  0.5839176E-013  0.5052886E+02  0.7816164E-02  0.1300439E+00
        -11   -1    0    0    0    0  0.00000000000E+00  0.00000000000E+00  0.45593999997E+02  0.45594000000E+02  0.51100000000E-03 0.  1.
         11   -1    0    0    0    0 -0.00000000000E+00 -0.00000000000E+00 -0.45593999997E+02  0.45594000000E+02  0.51100000000E-03 0. -1.
    9900012    2    1    2    0    0 -0.21821781601E+02 -0.31718235448E+02  0.13073991352E+02  0.50528857584E+02  0.29999993111E+02 0.  0.
        -12    1    1    2    0    0  0.21821781601E+02  0.31718235448E+02 -0.13073991352E+02  0.40659142416E+02  0.00000000000E+00 0.  1.
         11    1    3    3    0    0 -0.11327874222E+02 -0.64629618341E+01  0.43706535684E+01  0.13754752740E+02  0.51100000000E-03 0. -1.
        -11    1    3    3    0    0 -0.11499156567E+02 -0.10305784620E+02  0.14038734407E+02  0.20869256393E+02  0.51100000000E-03 0.  1.
        -12    1    3    3    0    0  0.10052491883E+01 -0.14949488994E+02 -0.53353966235E+01  0.15904848451E+02  0.00000000000E+00 0.  1.
</event>
<event>
 7    1  0.5839176E-013  0.5052887E+02  0.7816164E-02  0.1300439E+00
        -11   -1    0    0    0    0  0.00000000000E+00  0.00000000000E+00  0.45593999997E+02  0.45594000000E+02  0.51100000000E-03 0.  1.
         11   -1    0    0    0    0 -0.00000000000E+00 -0.00000000000E+00 -0.45593999997E+02  0.45594000000E+02  0.51100000000E-03 0. -1.
    9900012    2    1    2    0    0  0.26938729246E+02 -0.74743745585E+01 -0.29522927167E+02  0.50528872649E+02  0.30000038903E+02 0.  0.
        -12    1    1    2    0    0 -0.26938729246E+02  0.74743745585E+01  0.29522927167E+02  0.40659127351E+02  0.00000000000E+00 0.  1.
         11    1    3    3    0    0  0.27691137836E+01  0.89060296103E-01  0.44617292972E+01  0.52519473975E+01  0.51100000000E-03 0. -1.
        -11    1    3    3    0    0  0.53642909326E+00 -0.50972688207E+01 -0.21642879816E+01  0.55636362507E+01  0.51100000000E-03 0.  1.
         12    1    3    3    0    0  0.23633186369E+02 -0.24661660339E+01 -0.31820368483E+02  0.39713289001E+02  0.00000000000E+00 0. -1.
</event>
<event>
 7    1  0.5839176E-013  0.5052887E+02  0.7816164E-02  0.1300439E+00
        -11   -1    0    0    0    0  0.00000000000E+00  0.00000000000E+00  0.45593999997E+02  0.45594000000E+02  0.51100000000E-03 0. -1.
         11   -1    0    0    0    0 -0.00000000000E+00 -0.00000000000E+00 -0.45593999997E+02  0.45594000000E+02  0.51100000000E-03 0.  1.
    9900012    2    1    2    0    0  0.24243534331E+02  0.24824862691E+02  0.21192966463E+02  0.50528873202E+02  0.30000040585E+02 0.  0.
        -12    1    1    2    0    0 -0.24243534331E+02 -0.24824862691E+02 -0.21192966463E+02  0.40659126798E+02  0.00000000000E+00 0.  1.
         11    1    3    3    0    0 -0.17503553769E+01 -0.30622292856E+01 -0.25978303955E-01  0.35272747662E+01  0.51100000000E-03 0. -1.
        -11    1    3    3    0    0  0.44719521521E+01 -0.34193917642E+00 -0.16459466984E+01  0.47774908944E+01  0.51100000000E-03 0.  1.
         12    1    3    3    0    0  0.21521937556E+02  0.28229031153E+02  0.22864891465E+02  0.42224107542E+02  0.00000000000E+00 0. -1.
</event>
<event>
 7    1  0.5839176E-013  0.5052880E+02  0.7816164E-02  0.1300439E+00
        -11   -1    0    0    0    0  0.00000000000E+00  0.00000000000E+00  0.45593999997E+02  0.45594000000E+02  0.51100000000E-03 0.  1.
         11   -1    0    0    0    0 -0.00000000000E+00 -0.00000000000E+00 -0.45593999997E+02  0.45594000000E+02  0.51100000000E-03 0. -1.
    9900012    2    1    2    0    0  0.72015115047E+01  0.31399744916E+02 -0.24806552220E+02  0.50528797084E+02  0.29999809215E+02 0.  0.
        -12    1    1    2    0    0 -0.72015115047E+01 -0.31399744916E+02  0.24806552220E+02  0.40659202916E+02  0.00000000000E+00 0.  1.
         11    1    3    3    0    0 -0.36779442374E+00  0.88463896657E+01 -0.16311156576E+02  0.18559302572E+02  0.51100000000E-03 0. -1.
        -11    1    3    3    0    0  0.12735504655E+02  0.15131354863E+02 -0.10940338352E+02  0.22601813695E+02  0.51100000000E-03 0.  1.
        -12    1    3    3    0    0 -0.51661987267E+01  0.74220003878E+01  0.24449427075E+01  0.93676808167E+01  0.00000000000E+00 0.  1.
</event>
<event>
 7    1  0.5839176E-013  0.5052887E+02  0.7816164E-02  0.1300439E+00
        -11   -1    0    0    0    0  0.00000000000E+00  0.00000000000E+00  0.45593999997E+02  0.45594000000E+02  0.51100000000E-03 0. -1.
         11   -1    0    0    0    0 -0.00000000000E+00 -0.00000000000E+00 -0.45593999997E+02  0.45594000000E+02  0.51100000000E-03 0.  1.
    9900012    2    1    2    0    0 -0.74891444385E+01 -0.29680656522E+02  0.26760727468E+02  0.50528865840E+02  0.30000018207E+02 0.  0.
        -12    1    1    2    0    0  0.74891444385E+01  0.29680656522E+02 -0.26760727468E+02  0.40659134160E+02  0.00000000000E+00 0.  1.
         11    1    3    3    0    0 -0.38082815701E+01 -0.10168349977E+02 -0.40224978059E+01  0.11579241712E+02  0.51100000000E-03 0. -1.
        -11    1    3    3    0    0 -0.12053899937E+01  0.28134496595E+00 -0.88557965355E+00  0.15219630779E+01  0.51100000000E-03 0.  1.
         12    1    3    3    0    0 -0.24754728747E+01 -0.19793651511E+02  0.31668804928E+02  0.37427661050E+02  0.00000000000E+00 0. -1.
</event>
<event>
 7    1  0.5839176E-013  0.5052886E+02  0.7816164E-02  0.1300439E+00
        -11   -1    0    0    0    0  0.00000000000E+00  0.00000000000E+00  0.45593999997E+02  0.45594000000E+02  0.51100000000E-03 0. -1.
         11   -1    0    0    0    0 -0.00000000000E+00 -0.00000000000E+00 -0.45593999997E+02  0.45594000000E+02  0.51100000000E-03 0.  1.
    9900012    2    1    2    0    0 -0.27243867351E+02 -0.96032513341E+01  0.28613195765E+02  0.50528859376E+02  0.29999998559E+02 0.  0.
        -12    1    1    2    0    0  0.27243867351E+02  0.96032513341E+01 -0.28613195765E+02  0.40659140624E+02  0.00000000000E+00 0.  1.
         11    1    3    3    0    0 -0.13317375073E+02 -0.71674833077E+01  0.79884389609E+01  0.17103813992E+02  0.51100000000E-03 0. -1.
        -11    1    3    3    0    0 -0.19040999396E+02  0.23426256571E+01  0.13659834768E+02  0.23550767272E+02  0.51100000000E-03 0.  1.
         12    1    3    3    0    0  0.51145071175E+01 -0.47783936835E+01  0.69649220362E+01  0.98742781113E+01  0.00000000000E+00 0. -1.
</event>
<event>
 7    1  0.5839176E-013  0.5052886E+02  0.7816164E-02  0.1300439E+00
        -11   -1    0    0    0    0  0.00000000000E+00  0.00000000000E+00  0.45593999997E+02  0.45594000000E+02  0.51100000000E-03 0.  1.
         11   -1    0    0    0    0 -0.00000000000E+00 -0.00000000000E+00 -0.45593999997E+02  0.45594000000E+02  0.51100000000E-03 0. -1.
    9900012    2    1    2    0    0  0.31481779511E+02 -0.24800604598E+02 -0.68551453099E+01  0.50528862690E+02  0.30000008632E+02 0.  0.
        -12    1    1    2    0    0 -0.31481779511E+02  0.24800604598E+02  0.68551453099E+01  0.40659137310E+02  0.00000000000E+00 0.  1.
         11    1    3    3    0    0  0.20304210612E+02 -0.83159153363E+01  0.28862221913E+01  0.22130198717E+02  0.51100000000E-03 0. -1.
        -11    1    3    3    0    0  0.40877319494E+01  0.17863138198E+01  0.26718096408E+01  0.51999073617E+01  0.51100000000E-03 0.  1.
         12    1    3    3    0    0  0.70898369501E+01 -0.18271003081E+02 -0.12413177142E+02  0.23198756612E+02  0.00000000000E+00 0. -1.
</event>
<event>
 7    1  0.5839176E-013  0.5052888E+02  0.7816164E-02  0.1300439E+00
        -11   -1    0    0    0    0  0.00000000000E+00  0.00000000000E+00  0.45593999997E+02  0.45594000000E+02  0.51100000000E-03 0.  1.
         11   -1    0    0    0    0 -0.00000000000E+00 -0.00000000000E+00 -0.45593999997E+02  0.45594000000E+02  0.51100000000E-03 0. -1.
    9900012    2    1    2    0    0  0.30474083497E+02  0.52727883067E+01 -0.26394920742E+02  0.50528881681E+02  0.30000066358E+02 0.  0.
        -12    1    1    2    0    0 -0.30474083497E+02 -0.52727883067E+01  0.26394920742E+02  0.40659118319E+02  0.00000000000E+00 0.  1.
         11    1    3    3    0    0  0.21233301170E+02 -0.93866892314E+01 -0.12298345549E+02  0.26271892144E+02  0.51100000000E-03 0. -1.
        -11    1    3    3    0    0  0.55066212805E+01  0.11767797400E+01 -0.28754842776E+01  0.63226654644E+01  0.51100000000E-03 0.  1.
        -12    1    3    3    0    0  0.37341610464E+01  0.13482697798E+02 -0.11221090915E+02  0.17934324073E+02  0.00000000000E+00 0.  1.
</event>
<event>
 7    1  0.5839176E-013  0.5052886E+02  0.7816164E-02  0.1300439E+00
        -11   -1    0    0    0    0  0.00000000000E+00  0.00000000000E+00  0.45593999997E+02  0.45594000000E+02  0.51100000000E-03 0.  1.
         11   -1    0    0    0    0 -0.00000000000E+00 -0.00000000000E+00 -0.45593999997E+02  0.45594000000E+02  0.51100000000E-03 0. -1.
    9900012    2    1    2    0    0  0.27201745876E+02  0.19989324697E+02 -0.22664013517E+02  0.50528860938E+02  0.30000003307E+02 0.  0.
        -12    1    1    2    0    0 -0.27201745876E+02 -0.19989324697E+02  0.22664013517E+02  0.40659139062E+02  0.00000000000E+00 0.  1.
         11    1    3    3    0    0  0.39902810600E+01 -0.26939020250E+01 -0.41084813779E+01  0.63292235346E+01  0.51100000000E-03 0. -1.
        -11    1    3    3    0    0 -0.23316511885E+01 -0.29455100952E+01 -0.59569382806E+00  0.38036138584E+01  0.51100000000E-03 0.  1.
         12    1    3    3    0    0  0.25543116005E+02  0.25628736817E+02 -0.17959838311E+02  0.40396023545E+02  0.00000000000E+00 0. -1.
</event>
<event>
 7    1  0.5839176E-013  0.5052885E+02  0.7816164E-02  0.1300439E+00
        -11   -1    0    0    0    0  0.00000000000E+00  0.00000000000E+00  0.45593999997E+02  0.45594000000E+02  0.51100000000E-03 0.  1.
         11   -1    0    0    0    0 -0.00000000000E+00 -0.00000000000E+00 -0.45593999997E+02  0.45594000000E+02  0.51100000000E-03 0. -1.
    9900012    2    1    2    0    0 -0.15537098274E+02 -0.31560838902E+02 -0.20388187492E+02  0.50528853868E+02  0.29999981816E+02 0.  0.
        -12    1    1    2    0    0  0.15537098274E+02  0.31560838902E+02  0.20388187492E+02  0.40659146132E+02  0.00000000000E+00 0.  1.
         11    1    3    3    0    0 -0.91397324860E+01 -0.19282186425E+02 -0.80972582062E+01  0.22823299804E+02  0.51100000000E-03 0. -1.
        -11    1    3    3    0    0 -0.12795970072E+02 -0.51157733273E+01 -0.11708875932E+02  0.18083300657E+02  0.51100000000E-03 0.  1.
        -12    1    3    3    0    0  0.63986042835E+01 -0.71628791503E+01 -0.58205335353E+00  0.96222534058E+01  0.00000000000E+00 0.  1.
</event>
<event>
 7    1  0.5839176E-013  0.5052885E+02  0.7816164E-02  0.1300439E+00
        -11   -1    0    0    0    0  0.00000000000E+00  0.00000000000E+00  0.45593999997E+02  0.45594000000E+02  0.51100000000E-03 0. -1.
         11   -1    0    0    0    0 -0.00000000000E+00 -0.00000000000E+00 -0.45593999997E+02  0.45594000000E+02  0.51100000000E-03 0.  1.
    9900012    2    1    2    0    0  0.14661398099E+01 -0.37047196322E+02  0.16688981370E+02  0.50528850717E+02  0.29999972240E+02 0.  0.
        -12    1    1    2    0    0 -0.14661398099E+01  0.37047196322E+02 -0.16688981370E+02  0.40659149283E+02  0.00000000000E+00 0.  1.
         11    1    3    3    0    0  0.23343509832E+00  0.27648318427E+01  0.15761609339E+00  0.27791419822E+01  0.51100000000E-03 0. -1.
        -11    1    3    3    0    0  0.12342428478E+01  0.20662794942E+01  0.27671937892E+01  0.36674552600E+01  0.51100000000E-03 0.  1.
         12    1    3    3    0    0 -0.15381362773E-02 -0.41878307658E+02  0.13764171487E+02  0.44082253475E+02  0.00000000000E+00 0. -1.
</event>
<event>
 7    1  0.5839176E-013  0.5052886E+02  0.7816164E-02  0.1300439E+00
        -11   -1    0    0    0    0  0.00000000000E+00  0.00000000000E+00  0.45593999997E+02  0.45594000000E+02  0.51100000000E-03 0.  1.
         11   -1    0    0    0    0 -0.00000000000E+00 -0.00000000000E+00 -0.45593999997E+02  0.45594000000E+02  0.51100000000E-03 0. -1.
    9900012    2    1    2    0    0 -0.16195607058E+02 -0.20663703896E+02 -0.31046408911E+02  0.50528857695E+02  0.29999993451E+02 0.  0.
        -12    1    1    2    0    0  0.16195607058E+02  0.20663703896E+02  0.31046408911E+02  0.40659142305E+02  0.00000000000E+00 0.  1.
         11    1    3    3    0    0  0.26599319816E+01 -0.48405082607E+01 -0.55286821800E+01  0.78148631004E+01  0.51100000000E-03 0. -1.
        -11    1    3    3    0    0  0.45941085877E+00 -0.13966106172E+02 -0.15526926431E+02  0.20888959395E+02  0.51100000000E-03 0.  1.
        -12    1    3    3    0    0 -0.19314949898E+02 -0.18570894631E+01 -0.99908003004E+01  0.21825035200E+02  0.00000000000E+00 0.  1.
</event>
<event>
 7    1  0.5839176E-013  0.5052886E+02  0.7816164E-02  0.1300439E+00
        -11   -1    0    0    0    0  0.00000000000E+00  0.00000000000E+00  0.45593999997E+02  0.45594000000E+02  0.51100000000E-03 0.  1.
         11   -1    0    0    0    0 -0.00000000000E+00 -0.00000000000E+00 -0.45593999997E+02  0.45594000000E+02  0.51100000000E-03 0. -1.
    9900012    2    1    2    0    0  0.24602050591E+02  0.17533414010E+02 -0.27211834325E+02  0.50528862928E+02  0.30000009356E+02 0.  0.
        -12    1    1    2    0    0 -0.24602050591E+02 -0.17533414010E+02  0.27211834325E+02  0.40659137072E+02  0.00000000000E+00 0.  1.
         11    1    3    3    0    0  0.34910407077E+01  0.12248821359E+02 -0.15855831456E+01  0.12834915819E+02  0.51100000000E-03 0.  1.
        -11    1    3    3    0    0  0.36243813002E+01  0.89020587998E+01 -0.69978166585E+01  0.11889164350E+02  0.51100000000E-03 0. -1.
        -12    1    3    3    0    0  0.17486628584E+02 -0.36174661494E+01 -0.18628434521E+02  0.25804782759E+02  0.00000000000E+00 0.  1.
</event>
<event>
 7    1  0.5839176E-013  0.5052886E+02  0.7816164E-02  0.1300439E+00
        -11   -1    0    0    0    0  0.00000000000E+00  0.00000000000E+00  0.45593999997E+02  0.45594000000E+02  0.51100000000E-03 0. -1.
         11   -1    0    0    0    0 -0.00000000000E+00 -0.00000000000E+00 -0.45593999997E+02  0.45594000000E+02  0.51100000000E-03 0.  1.
    9900012    2    1    2    0    0 -0.18037851407E+02 -0.27279798820E+02  0.24158108947E+02  0.50528859147E+02  0.29999997862E+02 0.  0.
        -12    1    1    2    0    0  0.18037851407E+02  0.27279798820E+02 -0.24158108947E+02  0.40659140853E+02  0.00000000000E+00 0.  1.
         11    1    3    3    0    0 -0.25253101254E+01 -0.87545632602E+01  0.13416187867E+02  0.16217696083E+02  0.51100000000E-03 0. -1.
        -11    1    3    3    0    0  0.32775659127E+01  0.26892844690E+01  0.16424127371E+01  0.45466701142E+01  0.51100000000E-03 0.  1.
        -12    1    3    3    0    0 -0.18790107195E+02 -0.21214520029E+02  0.90995083425E+01  0.29764492949E+02  0.00000000000E+00 0.  1.
</event>
<event>
 7    1  0.5839176E-013  0.5052885E+02  0.7816164E-02  0.1300439E+00
        -11   -1    0    0    0    0  0.00000000000E+00  0.00000000000E+00  0.45593999997E+02  0.45594000000E+02  0.51100000000E-03 0.  1.
         11   -1    0    0    0    0 -0.00000000000E+00 -0.00000000000E+00 -0.45593999997E+02  0.45594000000E+02  0.51100000000E-03 0. -1.
    9900012    2    1    2    0    0 -0.10361994495E+02  0.26876575026E+02 -0.28695733107E+02  0.50528852031E+02  0.29999976232E+02 0.  0.
        -12    1    1    2    0    0  0.10361994495E+02 -0.26876575026E+02  0.28695733107E+02  0.40659147969E+02  0.00000000000E+00 0.  1.
         11    1    3    3    0    0  0.78944846427E+01  0.10946109948E+02 -0.14130433850E+02  0.19539942984E+02  0.51100000000E-03 0. -1.
        -11    1    3    3    0    0 -0.90331872949E+01  0.34610841934E+01 -0.11759966586E+02  0.15227422332E+02  0.51100000000E-03 0.  1.
        -12    1    3    3    0    0 -0.92232918428E+01  0.12469380884E+02 -0.28053326704E+01  0.15761486714E+02  0.00000000000E+00 0.  1.
</event>
<event>
 7    1  0.5839176E-013  0.5052886E+02  0.7816164E-02  0.1300439E+00
        -11   -1    0    0    0    0  0.00000000000E+00  0.00000000000E+00  0.45593999997E+02  0.45594000000E+02  0.51100000000E-03 0. -1.
         11   -1    0    0    0    0 -0.00000000000E+00 -0.00000000000E+00 -0.45593999997E+02  0.45594000000E+02  0.51100000000E-03 0.  1.
    9900012    2    1    2    0    0 -0.13513725845E+02  0.35918598366E+02  0.13431271444E+02  0.50528861453E+02  0.30000004873E+02 0.  0.
        -12    1    1    2    0    0  0.13513725845E+02 -0.35918598366E+02 -0.13431271444E+02  0.40659138547E+02  0.00000000000E+00 0.  1.
         11    1    3    3    0    0 -0.11928544990E+02  0.24125790811E+02  0.91850947733E+01  0.28437825762E+02  0.51100000000E-03 0. -1.
        -11    1    3    3    0    0  0.13400954473E+01 -0.80784527991E+00  0.83691098791E+01  0.85141335574E+01  0.51100000000E-03 0.  1.
         12    1    3    3    0    0 -0.29252763025E+01  0.12600652835E+02 -0.41229332084E+01  0.13576902134E+02  0.00000000000E+00 0. -1.
</event>
<event>
 7    1  0.5839176E-013  0.5052886E+02  0.7816164E-02  0.1300439E+00
        -11   -1    0    0    0    0  0.00000000000E+00  0.00000000000E+00  0.45593999997E+02  0.45594000000E+02  0.51100000000E-03 0. -1.
         11   -1    0    0    0    0 -0.00000000000E+00 -0.00000000000E+00 -0.45593999997E+02  0.45594000000E+02  0.51100000000E-03 0.  1.
    9900012    2    1    2    0    0  0.19110585075E+01 -0.37787454528E+02  0.14886977739E+02  0.50528856249E+02  0.29999989055E+02 0.  0.
        -12    1    1    2    0    0 -0.19110585075E+01  0.37787454528E+02 -0.14886977739E+02  0.40659143751E+02  0.00000000000E+00 0.  1.
         11    1    3    3    0    0 -0.41386481249E+01  0.12919595312E+00 -0.21491457109E+01  0.46651824663E+01  0.51100000000E-03 0.  1.
        -11    1    3    3    0    0  0.54695524208E+01 -0.48223471757E+01 -0.21543820897E+01  0.76034464828E+01  0.51100000000E-03 0. -1.
         12    1    3    3    0    0  0.58015421159E+00 -0.33094303306E+02  0.19190505539E+02  0.38260227300E+02  0.00000000000E+00 0. -1.
</event>
<event>
 7    1  0.5839176E-013  0.5052889E+02  0.7816164E-02  0.1300439E+00
        -11   -1    0    0    0    0  0.00000000000E+00  0.00000000000E+00  0.45593999997E+02  0.45594000000E+02  0.51100000000E-03 0.  1.
         11   -1    0    0    0    0 -0.00000000000E+00 -0.00000000000E+00 -0.45593999997E+02  0.45594000000E+02  0.51100000000E-03 0. -1.
    9900012    2    1    2    0    0  0.16513036134E+02  0.30183494262E+02 -0.21666560350E+02  0.50528886315E+02  0.30000080443E+02 0.  0.
        -12    1    1    2    0    0 -0.16513036134E+02 -0.30183494262E+02  0.21666560350E+02  0.40659113685E+02  0.00000000000E+00 0.  1.
         11    1    3    3    0    0  0.10914720879E+02  0.19120931832E+02  0.26496228884E+01  0.22175699937E+02  0.51100000000E-03 0. -1.
        -11    1    3    3    0    0  0.37359955222E+01  0.25761440841E+01 -0.32976411880E+01  0.56096897018E+01  0.51100000000E-03 0.  1.
         12    1    3    3    0    0  0.18623197333E+01  0.84864183460E+01 -0.21018542050E+02  0.22743496676E+02  0.00000000000E+00 0. -1.
</event>
<event>
 7    1  0.5839176E-013  0.5052893E+02  0.7816164E-02  0.1300439E+00
        -11   -1    0    0    0    0  0.00000000000E+00  0.00000000000E+00  0.45593999997E+02  0.45594000000E+02  0.51100000000E-03 0.  1.
         11   -1    0    0    0    0 -0.00000000000E+00 -0.00000000000E+00 -0.45593999997E+02  0.45594000000E+02  0.51100000000E-03 0. -1.
    9900012    2    1    2    0    0  0.28169067180E+02  0.13858674181E+02 -0.25837975451E+02  0.50528927566E+02  0.30000205828E+02 0.  0.
        -12    1    1    2    0    0 -0.28169067180E+02 -0.13858674181E+02  0.25837975451E+02  0.40659072434E+02  0.00000000000E+00 0.  1.
         11    1    3    3    0    0  0.18017586131E+02  0.15003096417E+02 -0.16162868031E+02  0.28477440463E+02  0.51100000000E-03 0. -1.
        -11    1    3    3    0    0  0.91417169360E+01 -0.23543590486E+00  0.27523641551E+01  0.95499700160E+01  0.51100000000E-03 0.  1.
        -12    1    3    3    0    0  0.10097641129E+01 -0.90898633164E+00 -0.12427471575E+02  0.12501517087E+02  0.00000000000E+00 0.  1.
</event>
<event>
 7    1  0.5839176E-013  0.5052886E+02  0.7816164E-02  0.1300439E+00
        -11   -1    0    0    0    0  0.00000000000E+00  0.00000000000E+00  0.45593999997E+02  0.45594000000E+02  0.51100000000E-03 0.  1.
         11   -1    0    0    0    0 -0.00000000000E+00 -0.00000000000E+00 -0.45593999997E+02  0.45594000000E+02  0.51100000000E-03 0. -1.
    9900012    2    1    2    0    0 -0.18557849899E+02  0.45419905074E+01 -0.35890698591E+02  0.50528859380E+02  0.29999998571E+02 0.  0.
        -12    1    1    2    0    0  0.18557849899E+02 -0.45419905074E+01  0.35890698591E+02  0.40659140620E+02  0.00000000000E+00 0.  1.
         11    1    3    3    0    0 -0.15050257542E+02  0.87988879406E+01 -0.20173565191E+02  0.26662772058E+02  0.51100000000E-03 0. -1.
        -11    1    3    3    0    0  0.18403424777E+01  0.45555349439E+01  0.18325074742E+00  0.49166391120E+01  0.51100000000E-03 0.  1.
        -12    1    3    3    0    0 -0.53479348345E+01 -0.88124323771E+01 -0.15900384148E+02  0.18949448210E+02  0.00000000000E+00 0.  1.
</event>
<event>
 7    1  0.5839176E-013  0.5052884E+02  0.7816164E-02  0.1300439E+00
        -11   -1    0    0    0    0  0.00000000000E+00  0.00000000000E+00  0.45593999997E+02  0.45594000000E+02  0.51100000000E-03 0.  1.
         11   -1    0    0    0    0 -0.00000000000E+00 -0.00000000000E+00 -0.45593999997E+02  0.45594000000E+02  0.51100000000E-03 0. -1.
    9900012    2    1    2    0    0  0.62563937680E+01  0.20205896736E+02 -0.34723856172E+02  0.50528844656E+02  0.29999953815E+02 0.  0.
        -12    1    1    2    0    0 -0.62563937680E+01 -0.20205896736E+02  0.34723856172E+02  0.40659155344E+02  0.00000000000E+00 0.  1.
         11    1    3    3    0    0 -0.13518595951E+01  0.96490455997E+00 -0.17666099165E+02  0.17744002512E+02  0.51100000000E-03 0. -1.
        -11    1    3    3    0    0  0.13961680929E+02  0.12900202952E+02 -0.11124335161E+02  0.22024863305E+02  0.51100000000E-03 0.  1.
         12    1    3    3    0    0 -0.63534275657E+01  0.63407892235E+01 -0.59334218460E+01  0.10759978839E+02  0.00000000000E+00 0. -1.
</event>
<event>
 7    1  0.5839176E-013  0.5052885E+02  0.7816164E-02  0.1300439E+00
        -11   -1    0    0    0    0  0.00000000000E+00  0.00000000000E+00  0.45593999997E+02  0.45594000000E+02  0.51100000000E-03 0.  1.
         11   -1    0    0    0    0 -0.00000000000E+00 -0.00000000000E+00 -0.45593999997E+02  0.45594000000E+02  0.51100000000E-03 0. -1.
    9900012    2    1    2    0    0 -0.35897078093E+02 -0.19026291766E+02 -0.16020033935E+01  0.50528850859E+02  0.29999972672E+02 0.  0.
        -12    1    1    2    0    0  0.35897078093E+02  0.19026291766E+02  0.16020033935E+01  0.40659149141E+02  0.00000000000E+00 0.  1.
         11    1    3    3    0    0 -0.42775892837E+01 -0.25947216056E+01  0.65071626281E+01  0.82081371833E+01  0.51100000000E-03 0.  1.
        -11    1    3    3    0    0 -0.29440390013E+02 -0.11222597219E+02  0.10913187158E+01  0.31525770875E+02  0.51100000000E-03 0. -1.
        -12    1    3    3    0    0 -0.21790987959E+01 -0.52089729414E+01 -0.92004847375E+01  0.10794942801E+02  0.00000000000E+00 0.  1.
</event>
<event>
 7    1  0.5839176E-013  0.5052887E+02  0.7816164E-02  0.1300439E+00
        -11   -1    0    0    0    0  0.00000000000E+00  0.00000000000E+00  0.45593999997E+02  0.45594000000E+02  0.51100000000E-03 0.  1.
         11   -1    0    0    0    0 -0.00000000000E+00 -0.00000000000E+00 -0.45593999997E+02  0.45594000000E+02  0.51100000000E-03 0. -1.
    9900012    2    1    2    0    0  0.24721400310E+02 -0.85661043949E+01 -0.31122973392E+02  0.50528865103E+02  0.30000015967E+02 0.  0.
        -12    1    1    2    0    0 -0.24721400310E+02  0.85661043949E+01  0.31122973392E+02  0.40659134897E+02  0.00000000000E+00 0.  1.
         11    1    3    3    0    0  0.70698448621E+01 -0.48027647783E+01 -0.13062472886E+02  0.15610171493E+02  0.51100000000E-03 0. -1.
        -11    1    3    3    0    0  0.15191011478E+02  0.15361500677E+01 -0.22769197545E+02  0.27414648345E+02  0.51100000000E-03 0.  1.
        -12    1    3    3    0    0  0.24605439693E+01 -0.52994896843E+01  0.47086970385E+01  0.75040452650E+01  0.00000000000E+00 0.  1.
</event>
<event>
 7    1  0.5839176E-013  0.5052885E+02  0.7816164E-02  0.1300439E+00
        -11   -1    0    0    0    0  0.00000000000E+00  0.00000000000E+00  0.45593999997E+02  0.45594000000E+02  0.51100000000E-03 0.  1.
         11   -1    0    0    0    0 -0.00000000000E+00 -0.00000000000E+00 -0.45593999997E+02  0.45594000000E+02  0.51100000000E-03 0. -1.
    9900012    2    1    2    0    0 -0.29875737648E+02  0.16383798596E+02 -0.22185091411E+02  0.50528845590E+02  0.29999956655E+02 0.  0.
        -12    1    1    2    0    0  0.29875737648E+02 -0.16383798596E+02  0.22185091411E+02  0.40659154410E+02  0.00000000000E+00 0.  1.
         11    1    3    3    0    0 -0.69643608807E+01  0.43962353530E+00 -0.39580459523E+01  0.80225756058E+01  0.51100000000E-03 0. -1.
        -11    1    3    3    0    0 -0.68219646911E+01 -0.40540294331E+01  0.36930932446E+01  0.87529020825E+01  0.51100000000E-03 0.  1.
         12    1    3    3    0    0 -0.16089412076E+02  0.19998204494E+02 -0.21920138704E+02  0.33753367902E+02  0.00000000000E+00 0. -1.
</event>
<event>
 7    1  0.5839176E-013  0.5052887E+02  0.7816164E-02  0.1300439E+00
        -11   -1    0    0    0    0  0.00000000000E+00  0.00000000000E+00  0.45593999997E+02  0.45594000000E+02  0.51100000000E-03 0.  1.
         11   -1    0    0    0    0 -0.00000000000E+00 -0.00000000000E+00 -0.45593999997E+02  0.45594000000E+02  0.51100000000E-03 0. -1.
    9900012    2    1    2    0    0 -0.33442284875E+02 -0.20248693359E+02 -0.11169993027E+02  0.50528871325E+02  0.30000034880E+02 0.  0.
        -12    1    1    2    0    0  0.33442284875E+02  0.20248693359E+02  0.11169993027E+02  0.40659128675E+02  0.00000000000E+00 0.  1.
         11    1    3    3    0    0 -0.15131023893E+02 -0.67680513899E+01 -0.64254685688E+01  0.17777543425E+02  0.51100000000E-03 0. -1.
        -11    1    3    3    0    0  0.23208107639E+01 -0.55410320158E+00 -0.78522448591E+01  0.82067620015E+01  0.51100000000E-03 0.  1.
         12    1    3    3    0    0 -0.20632071746E+02 -0.12926538767E+02  0.31077204010E+01  0.24544565898E+02  0.00000000000E+00 0. -1.
</event>
<event>
 7    1  0.5839176E-013  0.5052886E+02  0.7816164E-02  0.1300439E+00
        -11   -1    0    0    0    0  0.00000000000E+00  0.00000000000E+00  0.45593999997E+02  0.45594000000E+02  0.51100000000E-03 0. -1.
         11   -1    0    0    0    0 -0.00000000000E+00 -0.00000000000E+00 -0.45593999997E+02  0.45594000000E+02  0.51100000000E-03 0.  1.
    9900012    2    1    2    0    0  0.28853406028E+02  0.19718409235E+02  0.20780538167E+02  0.50528862420E+02  0.30000007813E+02 0.  0.
        -12    1    1    2    0    0 -0.28853406028E+02 -0.19718409235E+02 -0.20780538167E+02  0.40659137580E+02  0.00000000000E+00 0.  1.
         11    1    3    3    0    0  0.30771949784E+02  0.10080713863E+02  0.15889731086E+02  0.36069616574E+02  0.51100000000E-03 0.  1.
        -11    1    3    3    0    0  0.24698811486E+01  0.85209256931E+01  0.20235311463E+01  0.90995146088E+01  0.51100000000E-03 0. -1.
        -12    1    3    3    0    0 -0.43884249044E+01  0.11167696791E+01  0.28672759346E+01  0.53597312379E+01  0.00000000000E+00 0.  1.
</event>
<event>
 7    1  0.5839176E-013  0.5052885E+02  0.7816164E-02  0.1300439E+00
        -11   -1    0    0    0    0  0.00000000000E+00  0.00000000000E+00  0.45593999997E+02  0.45594000000E+02  0.51100000000E-03 0. -1.
         11   -1    0    0    0    0 -0.00000000000E+00 -0.00000000000E+00 -0.45593999997E+02  0.45594000000E+02  0.51100000000E-03 0.  1.
    9900012    2    1    2    0    0 -0.21881562197E+02  0.34002237722E+02  0.42674859800E+01  0.50528851326E+02  0.29999974091E+02 0.  0.
        -12    1    1    2    0    0  0.21881562197E+02 -0.34002237722E+02 -0.42674859800E+01  0.40659148674E+02  0.00000000000E+00 0.  1.
         11    1    3    3    0    0 -0.13528564750E+01  0.51150489093E+00  0.37041460806E+01  0.39765005146E+01  0.51100000000E-03 0. -1.
        -11    1    3    3    0    0 -0.53987520722E+01  0.16011867253E+02  0.12034592238E+02  0.20745067546E+02  0.51100000000E-03 0.  1.
        -12    1    3    3    0    0 -0.15129953650E+02  0.17478865578E+02 -0.11471252339E+02  0.25807283266E+02  0.00000000000E+00 0.  1.
</event>
<event>
 7    1  0.5839176E-013  0.5052886E+02  0.7816164E-02  0.1300439E+00
        -11   -1    0    0    0    0  0.00000000000E+00  0.00000000000E+00  0.45593999997E+02  0.45594000000E+02  0.51100000000E-03 0. -1.
         11   -1    0    0    0    0 -0.00000000000E+00 -0.00000000000E+00 -0.45593999997E+02  0.45594000000E+02  0.51100000000E-03 0.  1.
    9900012    2    1    2    0    0 -0.22841247110E+01 -0.10281427305E+02  0.39271375872E+02  0.50528856674E+02  0.29999990345E+02 0.  0.
        -12    1    1    2    0    0  0.22841247110E+01  0.10281427305E+02 -0.39271375872E+02  0.40659143326E+02  0.00000000000E+00 0.  1.
         11    1    3    3    0    0 -0.44875407042E+01 -0.78977719139E+01  0.38005441745E+01  0.98466724867E+01  0.51100000000E-03 0. -1.
        -11    1    3    3    0    0  0.97240495996E+00 -0.10729879917E+02  0.14393433841E+02  0.17979066506E+02  0.51100000000E-03 0.  1.
        -12    1    3    3    0    0  0.12310110332E+01  0.83462245262E+01  0.21077397857E+02  0.22703117681E+02  0.00000000000E+00 0.  1.
</event>
<event>
 7    1  0.5839176E-013  0.5052888E+02  0.7816164E-02  0.1300439E+00
        -11   -1    0    0    0    0  0.00000000000E+00  0.00000000000E+00  0.45593999997E+02  0.45594000000E+02  0.51100000000E-03 0.  1.
         11   -1    0    0    0    0 -0.00000000000E+00 -0.00000000000E+00 -0.45593999997E+02  0.45594000000E+02  0.51100000000E-03 0. -1.
    9900012    2    1    2    0    0  0.27142415553E+02  0.30060583624E+02 -0.35797998983E+01  0.50528875844E+02  0.30000048615E+02 0.  0.
        -12    1    1    2    0    0 -0.27142415553E+02 -0.30060583624E+02  0.35797998983E+01  0.40659124156E+02  0.00000000000E+00 0.  1.
         11    1    3    3    0    0 -0.34003397995E+01  0.11825246960E+01 -0.25780260415E+01  0.44279672470E+01  0.51100000000E-03 0. -1.
        -11    1    3    3    0    0 -0.10368925875E+01 -0.15456565005E+01  0.11667521345E+01  0.21967045909E+01  0.51100000000E-03 0.  1.
         12    1    3    3    0    0  0.31579647940E+02  0.30423715428E+02 -0.21685259912E+01  0.43904204006E+02  0.00000000000E+00 0. -1.
</event>
<event>
 7    1  0.5839176E-013  0.5052886E+02  0.7816164E-02  0.1300439E+00
        -11   -1    0    0    0    0  0.00000000000E+00  0.00000000000E+00  0.45593999997E+02  0.45594000000E+02  0.51100000000E-03 0.  1.
         11   -1    0    0    0    0 -0.00000000000E+00 -0.00000000000E+00 -0.45593999997E+02  0.45594000000E+02  0.51100000000E-03 0. -1.
    9900012    2    1    2    0    0  0.28274248954E+02 -0.28786387710E+02 -0.50076208653E+01  0.50528861568E+02  0.30000005222E+02 0.  0.
        -12    1    1    2    0    0 -0.28274248954E+02  0.28786387710E+02  0.50076208653E+01  0.40659138432E+02  0.00000000000E+00 0.  1.
         11    1    3    3    0    0  0.37897836240E+01  0.13071113012E+01 -0.10259302871E+01  0.41380590964E+01  0.51100000000E-03 0. -1.
        -11    1    3    3    0    0  0.18984546821E+02 -0.38504339903E+01 -0.77556430666E+00  0.19386602595E+02  0.51100000000E-03 0.  1.
        -12    1    3    3    0    0  0.54999185085E+01 -0.26243065021E+02 -0.32061262716E+01  0.27004199877E+02  0.00000000000E+00 0.  1.
</event>
<event>
 7    1  0.5839176E-013  0.5052885E+02  0.7816164E-02  0.1300439E+00
        -11   -1    0    0    0    0  0.00000000000E+00  0.00000000000E+00  0.45593999997E+02  0.45594000000E+02  0.51100000000E-03 0.  1.
         11   -1    0    0    0    0 -0.00000000000E+00 -0.00000000000E+00 -0.45593999997E+02  0.45594000000E+02  0.51100000000E-03 0. -1.
    9900012    2    1    2    0    0  0.21329647412E+02 -0.34336306125E+02 -0.43852498417E+01  0.50528853511E+02  0.29999980732E+02 0.  0.
        -12    1    1    2    0    0 -0.21329647412E+02  0.34336306125E+02  0.43852498417E+01  0.40659146489E+02  0.00000000000E+00 0.  1.
         11    1    3    3    0    0 -0.24925100880E+01 -0.99397748824E+01  0.56347157500E+01  0.11694518079E+02  0.51100000000E-03 0.  1.
        -11    1    3    3    0    0  0.49398494162E+01 -0.12280022449E+02  0.19922937767E+01  0.13385450996E+02  0.51100000000E-03 0. -1.
         12    1    3    3    0    0  0.18882308084E+02 -0.12116508793E+02 -0.12012259368E+02  0.25448884436E+02  0.00000000000E+00 0. -1.
</event>
<event>
 7    1  0.5839176E-013  0.5052886E+02  0.7816164E-02  0.1300439E+00
        -11   -1    0    0    0    0  0.00000000000E+00  0.00000000000E+00  0.45593999997E+02  0.45594000000E+02  0.51100000000E-03 0. -1.
         11   -1    0    0    0    0 -0.00000000000E+00 -0.00000000000E+00 -0.45593999997E+02  0.45594000000E+02  0.51100000000E-03 0.  1.
    9900012    2    1    2    0    0  0.28283995915E+02 -0.59731354129E+01  0.28592012927E+02  0.50528856197E+02  0.29999988896E+02 0.  0.
        -12    1    1    2    0    0 -0.28283995915E+02  0.59731354129E+01 -0.28592012927E+02  0.40659143803E+02  0.00000000000E+00 0.  1.
         11    1    3    3    0    0  0.13976941846E+02  0.64570487847E+01  0.11480825289E+02  0.19205669266E+02  0.51100000000E-03 0. -1.
        -11    1    3    3    0    0  0.12876979826E+02  0.47923620649E+00  0.11115753271E+02  0.17017821477E+02  0.51100000000E-03 0.  1.
        -12    1    3    3    0    0  0.14300742425E+01 -0.12909420404E+02  0.59954343676E+01  0.14305365454E+02  0.00000000000E+00 0.  1.
</event>
<event>
 7    1  0.5839176E-013  0.5052886E+02  0.7816164E-02  0.1300439E+00
        -11   -1    0    0    0    0  0.00000000000E+00  0.00000000000E+00  0.45593999997E+02  0.45594000000E+02  0.51100000000E-03 0.  1.
         11   -1    0    0    0    0 -0.00000000000E+00 -0.00000000000E+00 -0.45593999997E+02  0.45594000000E+02  0.51100000000E-03 0. -1.
    9900012    2    1    2    0    0 -0.72624199787E+01 -0.27595878054E+02 -0.28963608206E+02  0.50528857980E+02  0.29999994316E+02 0.  0.
        -12    1    1    2    0    0  0.72624199787E+01  0.27595878054E+02  0.28963608206E+02  0.40659142020E+02  0.00000000000E+00 0.  1.
         11    1    3    3    0    0  0.32347109452E+01 -0.54489047275E+01 -0.82507789624E+00  0.63902012037E+01  0.51100000000E-03 0. -1.
        -11    1    3    3    0    0  0.33084304857E+01  0.35291408152E+01 -0.35293643075E+01  0.59880681232E+01  0.51100000000E-03 0.  1.
         12    1    3    3    0    0 -0.13805561410E+02 -0.25676114142E+02 -0.24609166002E+02  0.38150588653E+02  0.00000000000E+00 0. -1.
</event>
<event>
 7    1  0.5839176E-013  0.5052886E+02  0.7816164E-02  0.1300439E+00
        -11   -1    0    0    0    0  0.00000000000E+00  0.00000000000E+00  0.45593999997E+02  0.45594000000E+02  0.51100000000E-03 0. -1.
         11   -1    0    0    0    0 -0.00000000000E+00 -0.00000000000E+00 -0.45593999997E+02  0.45594000000E+02  0.51100000000E-03 0.  1.
    9900012    2    1    2    0    0 -0.23352556014E+02 -0.79119039721E+01 -0.32329947894E+02  0.50528860465E+02  0.30000001870E+02 0.  0.
        -12    1    1    2    0    0  0.23352556014E+02  0.79119039721E+01  0.32329947894E+02  0.40659139535E+02  0.00000000000E+00 0.  1.
         11    1    3    3    0    0 -0.42479678696E+00  0.10562283367E+00  0.52428856612E+00  0.68299872246E+00  0.51100000000E-03 0. -1.
        -11    1    3    3    0    0 -0.69003499160E+01 -0.15720019401E+00 -0.31159137244E+02  0.31914438346E+02  0.51100000000E-03 0.  1.
        -12    1    3    3    0    0 -0.16027409311E+02 -0.78603266118E+01 -0.16950992162E+01  0.17931423397E+02  0.00000000000E+00 0.  1.
</event>
<event>
 7    1  0.5839176E-013  0.5052886E+02  0.7816164E-02  0.1300439E+00
        -11   -1    0    0    0    0  0.00000000000E+00  0.00000000000E+00  0.45593999997E+02  0.45594000000E+02  0.51100000000E-03 0.  1.
         11   -1    0    0    0    0 -0.00000000000E+00 -0.00000000000E+00 -0.45593999997E+02  0.45594000000E+02  0.51100000000E-03 0. -1.
    9900012    2    1    2    0    0 -0.22254778857E+01  0.30332668215E+02 -0.26984113919E+02  0.50528856909E+02  0.29999991062E+02 0.  0.
        -12    1    1    2    0    0  0.22254778857E+01 -0.30332668215E+02  0.26984113919E+02  0.40659143091E+02  0.00000000000E+00 0.  1.
         11    1    3    3    0    0 -0.69801485896E+01  0.22803188348E+02 -0.20509002153E+02  0.31453569635E+02  0.51100000000E-03 0.  1.
        -11    1    3    3    0    0  0.25074758142E+01  0.10970492251E+02  0.17840341258E+00  0.11254819556E+02  0.51100000000E-03 0. -1.
        -12    1    3    3    0    0  0.22471948897E+01 -0.34410123849E+01 -0.66535151790E+01  0.78204677189E+01  0.00000000000E+00 0.  1.
</event>
<event>
 7    1  0.5839176E-013  0.5052886E+02  0.7816164E-02  0.1300439E+00
        -11   -1    0    0    0    0  0.00000000000E+00  0.00000000000E+00  0.45593999997E+02  0.45594000000E+02  0.51100000000E-03 0.  1.
         11   -1    0    0    0    0 -0.00000000000E+00 -0.00000000000E+00 -0.45593999997E+02  0.45594000000E+02  0.51100000000E-03 0. -1.
    9900012    2    1    2    0    0 -0.20862681918E+01 -0.38953826679E+02 -0.11463515785E+02  0.50528864224E+02  0.30000013296E+02 0.  0.
        -12    1    1    2    0    0  0.20862681918E+01  0.38953826679E+02  0.11463515785E+02  0.40659135776E+02  0.00000000000E+00 0.  1.
         11    1    3    3    0    0  0.60030840993E+01 -0.34669288163E+02 -0.26059669540E+01  0.35281547932E+02  0.51100000000E-03 0. -1.
        -11    1    3    3    0    0 -0.29343660709E+01  0.17203828580E+01 -0.43714376765E-01  0.34017837415E+01  0.51100000000E-03 0.  1.
        -12    1    3    3    0    0 -0.51549862202E+01 -0.60049213735E+01 -0.88138344540E+01  0.11845532551E+02  0.00000000000E+00 0.  1.
</event>
<event>
 7    1  0.5839176E-013  0.5052886E+02  0.7816164E-02  0.1300439E+00
        -11   -1    0    0    0    0  0.00000000000E+00  0.00000000000E+00  0.45593999997E+02  0.45594000000E+02  0.51100000000E-03 0. -1.
         11   -1    0    0    0    0 -0.00000000000E+00 -0.00000000000E+00 -0.45593999997E+02  0.45594000000E+02  0.51100000000E-03 0.  1.
    9900012    2    1    2    0    0  0.39057397226E+02  0.78485282760E+01 -0.81293314884E+01  0.50528859519E+02  0.29999998995E+02 0.  0.
        -12    1    1    2    0    0 -0.39057397226E+02 -0.78485282760E+01  0.81293314884E+01  0.40659140481E+02  0.00000000000E+00 0.  1.
         11    1    3    3    0    0  0.62077824977E+01 -0.41543871643E+01  0.20697254060E+01  0.77510811998E+01  0.51100000000E-03 0. -1.
        -11    1    3    3    0    0  0.50202288238E+01  0.78785224363E+01  0.52144399383E+01  0.10698794201E+02  0.51100000000E-03 0.  1.
         12    1    3    3    0    0  0.27829385905E+02  0.41243930039E+01 -0.15413496833E+02  0.32078984119E+02  0.00000000000E+00 0. -1.
</event>
<event>
 7    1  0.5839176E-013  0.5052885E+02  0.7816164E-02  0.1300439E+00
        -11   -1    0    0    0    0  0.00000000000E+00  0.00000000000E+00  0.45593999997E+02  0.45594000000E+02  0.51100000000E-03 0. -1.
         11   -1    0    0    0    0 -0.00000000000E+00 -0.00000000000E+00 -0.45593999997E+02  0.45594000000E+02  0.51100000000E-03 0.  1.
    9900012    2    1    2    0    0  0.83150399002E+01  0.31514147758E+02  0.24308119854E+02  0.50528854801E+02  0.29999984653E+02 0.  0.
        -12    1    1    2    0    0 -0.83150399002E+01 -0.31514147758E+02 -0.24308119854E+02  0.40659145199E+02  0.00000000000E+00 0.  1.
         11    1    3    3    0    0 -0.10191849859E+01  0.11684968843E+02  0.11721290717E+02  0.16582095502E+02  0.51100000000E-03 0. -1.
        -11    1    3    3    0    0 -0.55442699258E+01  0.14730404807E+02  0.52499756905E+01  0.16591744929E+02  0.51100000000E-03 0.  1.
         12    1    3    3    0    0  0.14878494812E+02  0.50987741086E+01  0.73368534465E+01  0.17355014370E+02  0.00000000000E+00 0. -1.
</event>
<event>
 7    1  0.5839176E-013  0.5052880E+02  0.7816164E-02  0.1300439E+00
        -11   -1    0    0    0    0  0.00000000000E+00  0.00000000000E+00  0.45593999997E+02  0.45594000000E+02  0.51100000000E-03 0. -1.
         11   -1    0    0    0    0 -0.00000000000E+00 -0.00000000000E+00 -0.45593999997E+02  0.45594000000E+02  0.51100000000E-03 0.  1.
    9900012    2    1    2    0    0  0.13036484052E+02  0.24428150778E+02  0.29773919509E+02  0.50528797477E+02  0.29999810411E+02 0.  0.
        -12    1    1    2    0    0 -0.13036484052E+02 -0.24428150778E+02 -0.29773919509E+02  0.40659202523E+02  0.00000000000E+00 0.  1.
         11    1    3    3    0    0  0.10721418687E+02  0.53131897622E+01  0.14570443463E+02  0.18854087809E+02  0.51100000000E-03 0. -1.
        -11    1    3    3    0    0  0.10307504507E+02  0.49664341677E+01  0.75858186519E+01  0.13727882662E+02  0.51100000000E-03 0.  1.
         12    1    3    3    0    0 -0.79924391426E+01  0.14148526849E+02  0.76176573932E+01  0.17946827006E+02  0.00000000000E+00 0. -1.
</event>
<event>
 7    1  0.5839176E-013  0.5052886E+02  0.7816164E-02  0.1300439E+00
        -11   -1    0    0    0    0  0.00000000000E+00  0.00000000000E+00  0.45593999997E+02  0.45594000000E+02  0.51100000000E-03 0. -1.
         11   -1    0    0    0    0 -0.00000000000E+00 -0.00000000000E+00 -0.45593999997E+02  0.45594000000E+02  0.51100000000E-03 0.  1.
    9900012    2    1    2    0    0  0.18918228820E+02 -0.11310208938E+02  0.34166435281E+02  0.50528861941E+02  0.30000006356E+02 0.  0.
        -12    1    1    2    0    0 -0.18918228820E+02  0.11310208938E+02 -0.34166435281E+02  0.40659138059E+02  0.00000000000E+00 0.  1.
         11    1    3    3    0    0  0.38653714784E+01  0.50223466908E+01  0.20265963982E+02  0.21233802282E+02  0.51100000000E-03 0. -1.
        -11    1    3    3    0    0  0.16997795534E+01  0.22305792425E+01  0.69589761437E+00  0.28894650090E+01  0.51100000000E-03 0.  1.
         12    1    3    3    0    0  0.13353077788E+02 -0.18563134871E+02  0.13204573684E+02  0.26405594650E+02  0.00000000000E+00 0. -1.
</event>
<event>
 7    1  0.5839176E-013  0.5052885E+02  0.7816164E-02  0.1300439E+00
        -11   -1    0    0    0    0  0.00000000000E+00  0.00000000000E+00  0.45593999997E+02  0.45594000000E+02  0.51100000000E-03 0.  1.
         11   -1    0    0    0    0 -0.00000000000E+00 -0.00000000000E+00 -0.45593999997E+02  0.45594000000E+02  0.51100000000E-03 0. -1.
    9900012    2    1    2    0    0  0.20112732050E+02  0.26577448880E+02 -0.23286981435E+02  0.50528852397E+02  0.29999977345E+02 0.  0.
        -12    1    1    2    0    0 -0.20112732050E+02 -0.26577448880E+02  0.23286981435E+02  0.40659147603E+02  0.00000000000E+00 0.  1.
         11    1    3    3    0    0  0.86908965011E+01  0.15769975560E+01 -0.33731965849E+00  0.88392526889E+01  0.51100000000E-03 0. -1.
        -11    1    3    3    0    0  0.98475370500E+00 -0.89015005236E+00 -0.11404037181E+02  0.11481035287E+02  0.51100000000E-03 0.  1.
         12    1    3    3    0    0  0.10437081844E+02  0.25890601376E+02 -0.11545624595E+02  0.30208564420E+02  0.00000000000E+00 0. -1.
</event>
<event>
 7    1  0.5839176E-013  0.5052886E+02  0.7816164E-02  0.1300439E+00
        -11   -1    0    0    0    0  0.00000000000E+00  0.00000000000E+00  0.45593999997E+02  0.45594000000E+02  0.51100000000E-03 0.  1.
         11   -1    0    0    0    0 -0.00000000000E+00 -0.00000000000E+00 -0.45593999997E+02  0.45594000000E+02  0.51100000000E-03 0. -1.
    9900012    2    1    2    0    0 -0.27554876246E+02 -0.42190657906E+01 -0.29598880553E+02  0.50528862637E+02  0.30000008472E+02 0.  0.
        -12    1    1    2    0    0  0.27554876246E+02  0.42190657906E+01  0.29598880553E+02  0.40659137363E+02  0.00000000000E+00 0.  1.
         11    1    3    3    0    0 -0.28453991733E+02  0.18492192580E+01 -0.22072938123E+02  0.36059171580E+02  0.51100000000E-03 0. -1.
        -11    1    3    3    0    0 -0.13456450912E+01  0.26310279104E+01 -0.36200871091E+01  0.46731252407E+01  0.51100000000E-03 0.  1.
        -12    1    3    3    0    0  0.22447605775E+01 -0.86993129590E+01 -0.39058553212E+01  0.97965658166E+01  0.00000000000E+00 0.  1.
</event>
<event>
 7    1  0.5839176E-013  0.5052886E+02  0.7816164E-02  0.1300439E+00
        -11   -1    0    0    0    0  0.00000000000E+00  0.00000000000E+00  0.45593999997E+02  0.45594000000E+02  0.51100000000E-03 0.  1.
         11   -1    0    0    0    0 -0.00000000000E+00 -0.00000000000E+00 -0.45593999997E+02  0.45594000000E+02  0.51100000000E-03 0. -1.
    9900012    2    1    2    0    0  0.33556091155E+02  0.22697694089E+02 -0.34596383397E+01  0.50528859970E+02  0.30000000364E+02 0.  0.
        -12    1    1    2    0    0 -0.33556091155E+02 -0.22697694089E+02  0.34596383397E+01  0.40659140030E+02  0.00000000000E+00 0.  1.
         11    1    3    3    0    0  0.10329591345E+02  0.14574038693E+01  0.45292730965E+01  0.11372721682E+02  0.51100000000E-03 0. -1.
        -11    1    3    3    0    0  0.55262758756E+01  0.50768086638E+01  0.75061968881E+01  0.10613986209E+02  0.51100000000E-03 0.  1.
         12    1    3    3    0    0  0.17700223934E+02  0.16163481556E+02 -0.15495108324E+02  0.28542152079E+02  0.00000000000E+00 0. -1.
</event>
<event>
 7    1  0.5839176E-013  0.5052886E+02  0.7816164E-02  0.1300439E+00
        -11   -1    0    0    0    0  0.00000000000E+00  0.00000000000E+00  0.45593999997E+02  0.45594000000E+02  0.51100000000E-03 0.  1.
         11   -1    0    0    0    0 -0.00000000000E+00 -0.00000000000E+00 -0.45593999997E+02  0.45594000000E+02  0.51100000000E-03 0. -1.
    9900012    2    1    2    0    0 -0.33394275246E+02  0.22738280010E+02 -0.45780398187E+01  0.50528862705E+02  0.30000008677E+02 0.  0.
        -12    1    1    2    0    0  0.33394275246E+02 -0.22738280010E+02  0.45780398187E+01  0.40659137295E+02  0.00000000000E+00 0.  1.
         11    1    3    3    0    0 -0.18759078292E+02  0.18563253347E+02 -0.33765729668E+01  0.26606364623E+02  0.51100000000E-03 0. -1.
        -11    1    3    3    0    0 -0.15412789080E+02  0.93149546250E+01  0.14866132107E+01  0.18070209351E+02  0.51100000000E-03 0.  1.
        -12    1    3    3    0    0  0.77759212638E+00 -0.51399279617E+01 -0.26880800626E+01  0.58522887308E+01  0.00000000000E+00 0.  1.
</event>
<event>
 7    1  0.5839176E-013  0.5052887E+02  0.7816164E-02  0.1300439E+00
        -11   -1    0    0    0    0  0.00000000000E+00  0.00000000000E+00  0.45593999997E+02  0.45594000000E+02  0.51100000000E-03 0.  1.
         11   -1    0    0    0    0 -0.00000000000E+00 -0.00000000000E+00 -0.45593999997E+02  0.45594000000E+02  0.51100000000E-03 0. -1.
    9900012    2    1    2    0    0 -0.21029180445E+01 -0.26620695332E+02 -0.30660742672E+02  0.50528870330E+02  0.30000031856E+02 0.  0.
        -12    1    1    2    0    0  0.21029180445E+01  0.26620695332E+02  0.30660742672E+02  0.40659129670E+02  0.00000000000E+00 0.  1.
         11    1    3    3    0    0  0.63404784692E+01 -0.57689220560E+01 -0.11698603282E+02  0.14503084083E+02  0.51100000000E-03 0. -1.
        -11    1    3    3    0    0  0.51493792488E+01 -0.11681047036E+02 -0.29389446788E+01  0.13099632155E+02  0.51100000000E-03 0.  1.
         12    1    3    3    0    0 -0.13592775762E+02 -0.91707262402E+01 -0.16023194711E+02  0.22926154092E+02  0.00000000000E+00 0. -1.
</event>
<event>
 7    1  0.5839176E-013  0.5052886E+02  0.7816164E-02  0.1300439E+00
        -11   -1    0    0    0    0  0.00000000000E+00  0.00000000000E+00  0.45593999997E+02  0.45594000000E+02  0.51100000000E-03 0.  1.
         11   -1    0    0    0    0 -0.00000000000E+00 -0.00000000000E+00 -0.45593999997E+02  0.45594000000E+02  0.51100000000E-03 0. -1.
    9900012    2    1    2    0    0  0.23965865607E+02  0.21426535761E+02 -0.24893900530E+02  0.50528862864E+02  0.30000009161E+02 0.  0.
        -12    1    1    2    0    0 -0.23965865607E+02 -0.21426535761E+02  0.24893900530E+02  0.40659137136E+02  0.00000000000E+00 0.  1.
         11    1    3    3    0    0  0.22816462136E+02  0.11252225979E+02 -0.19674867892E+02  0.32160596398E+02  0.51100000000E-03 0. -1.
        -11    1    3    3    0    0 -0.10289593073E+01  0.75055489961E+01 -0.99563398361E+01  0.12510824361E+02  0.51100000000E-03 0.  1.
         12    1    3    3    0    0  0.21783627787E+01  0.26687607865E+01  0.47373071975E+01  0.58574421051E+01  0.00000000000E+00 0. -1.
</event>
<event>
 7    1  0.5839176E-013  0.5052886E+02  0.7816164E-02  0.1300439E+00
        -11   -1    0    0    0    0  0.00000000000E+00  0.00000000000E+00  0.45593999997E+02  0.45594000000E+02  0.51100000000E-03 0. -1.
         11   -1    0    0    0    0 -0.00000000000E+00 -0.00000000000E+00 -0.45593999997E+02  0.45594000000E+02  0.51100000000E-03 0.  1.
    9900012    2    1    2    0    0  0.39110777644E+02  0.10526047783E+02 -0.35658325482E+01  0.50528858695E+02  0.29999996490E+02 0.  0.
        -12    1    1    2    0    0 -0.39110777644E+02 -0.10526047783E+02  0.35658325482E+01  0.40659141305E+02  0.00000000000E+00 0.  1.
         11    1    3    3    0    0  0.16816259184E+02  0.96534299572E+01  0.42920318898E+01  0.19859426500E+02  0.51100000000E-03 0. -1.
        -11    1    3    3    0    0  0.20134582316E+02  0.53754077689E+01  0.59865345411E+00  0.20848376434E+02  0.51100000000E-03 0.  1.
        -12    1    3    3    0    0  0.21599361442E+01 -0.45027899427E+01 -0.84565178922E+01  0.98210557618E+01  0.00000000000E+00 0.  1.
</event>
<event>
 7    1  0.5839176E-013  0.5052886E+02  0.7816164E-02  0.1300439E+00
        -11   -1    0    0    0    0  0.00000000000E+00  0.00000000000E+00  0.45593999997E+02  0.45594000000E+02  0.51100000000E-03 0.  1.
         11   -1    0    0    0    0 -0.00000000000E+00 -0.00000000000E+00 -0.45593999997E+02  0.45594000000E+02  0.51100000000E-03 0. -1.
    9900012    2    1    2    0    0 -0.21270752088E+02 -0.23301811738E+02 -0.25646558079E+02  0.50528864914E+02  0.30000015393E+02 0.  0.
        -12    1    1    2    0    0  0.21270752088E+02  0.23301811738E+02  0.25646558079E+02  0.40659135086E+02  0.00000000000E+00 0.  1.
         11    1    3    3    0    0 -0.27887566920E+01 -0.12501573826E+02 -0.51847168915E+01  0.13818386357E+02  0.51100000000E-03 0. -1.
        -11    1    3    3    0    0 -0.62309563795E+01 -0.12238980257E+02 -0.11323235092E+01  0.13780406813E+02  0.51100000000E-03 0.  1.
        -12    1    3    3    0    0 -0.12251039017E+02  0.14387423454E+01 -0.19329517678E+02  0.22930071744E+02  0.00000000000E+00 0.  1.
</event>
<event>
 7    1  0.5839176E-013  0.5052886E+02  0.7816164E-02  0.1300439E+00
        -11   -1    0    0    0    0  0.00000000000E+00  0.00000000000E+00  0.45593999997E+02  0.45594000000E+02  0.51100000000E-03 0.  1.
         11   -1    0    0    0    0 -0.00000000000E+00 -0.00000000000E+00 -0.45593999997E+02  0.45594000000E+02  0.51100000000E-03 0. -1.
    9900012    2    1    2    0    0 -0.33054787675E+02 -0.73256276994E+01 -0.22514043395E+02  0.50528856386E+02  0.29999989471E+02 0.  0.
        -12    1    1    2    0    0  0.33054787675E+02  0.73256276994E+01  0.22514043395E+02  0.40659143614E+02  0.00000000000E+00 0.  1.
         11    1    3    3    0    0 -0.54303287089E+01 -0.56835259156E+01 -0.12102369967E+02  0.14431157119E+02  0.51100000000E-03 0. -1.
        -11    1    3    3    0    0 -0.38114511046E+01  0.77684144894E+01 -0.58852388630E+00  0.86730492809E+01  0.51100000000E-03 0.  1.
        -12    1    3    3    0    0 -0.23813007861E+02 -0.94105162732E+01 -0.98231495417E+01  0.27424649986E+02  0.00000000000E+00 0.  1.
</event>
<event>
 7    1  0.5839176E-013  0.5052887E+02  0.7816164E-02  0.1300439E+00
        -11   -1    0    0    0    0  0.00000000000E+00  0.00000000000E+00  0.45593999997E+02  0.45594000000E+02  0.51100000000E-03 0.  1.
         11   -1    0    0    0    0 -0.00000000000E+00 -0.00000000000E+00 -0.45593999997E+02  0.45594000000E+02  0.51100000000E-03 0. -1.
    9900012    2    1    2    0    0  0.39416772112E+02  0.23173842108E+01 -0.97011741788E+01  0.50528868508E+02  0.30000026316E+02 0.  0.
        -12    1    1    2    0    0 -0.39416772112E+02 -0.23173842108E+01  0.97011741788E+01  0.40659131492E+02  0.00000000000E+00 0.  1.
         11    1    3    3    0    0  0.70426244738E+01 -0.57158535405E+01 -0.32459147568E+01  0.96335613376E+01  0.51100000000E-03 0. -1.
        -11    1    3    3    0    0  0.34809185437E+02  0.42606901234E+01 -0.29384862140E+01  0.35191867990E+02  0.51100000000E-03 0.  1.
        -12    1    3    3    0    0 -0.24350377991E+01  0.37725476279E+01 -0.35167732080E+01  0.57034391804E+01  0.00000000000E+00 0.  1.
</event>
<event>
 7    1  0.5839176E-013  0.5052886E+02  0.7816164E-02  0.1300439E+00
        -11   -1    0    0    0    0  0.00000000000E+00  0.00000000000E+00  0.45593999997E+02  0.45594000000E+02  0.51100000000E-03 0. -1.
         11   -1    0    0    0    0 -0.00000000000E+00 -0.00000000000E+00 -0.45593999997E+02  0.45594000000E+02  0.51100000000E-03 0.  1.
    9900012    2    1    2    0    0  0.20566953404E+02  0.34393055059E+02 -0.68763048201E+01  0.50528863553E+02  0.30000011256E+02 0.  0.
        -12    1    1    2    0    0 -0.20566953404E+02 -0.34393055059E+02  0.68763048201E+01  0.40659136447E+02  0.00000000000E+00 0.  1.
         11    1    3    3    0    0  0.27136772709E+01  0.93013406629E+01  0.23368980566E+01  0.99669491444E+01  0.51100000000E-03 0. -1.
        -11    1    3    3    0    0  0.17743411359E+02  0.29572212450E+02 -0.58989066091E+01  0.34987733498E+02  0.51100000000E-03 0.  1.
        -12    1    3    3    0    0  0.10986477413E+00 -0.44804980541E+01 -0.33142962675E+01  0.55741809112E+01  0.00000000000E+00 0.  1.
</event>
<event>
 7    1  0.5839176E-013  0.5052886E+02  0.7816164E-02  0.1300439E+00
        -11   -1    0    0    0    0  0.00000000000E+00  0.00000000000E+00  0.45593999997E+02  0.45594000000E+02  0.51100000000E-03 0.  1.
         11   -1    0    0    0    0 -0.00000000000E+00 -0.00000000000E+00 -0.45593999997E+02  0.45594000000E+02  0.51100000000E-03 0. -1.
    9900012    2    1    2    0    0  0.22948426249E+02  0.52520989190E+01 -0.33150430817E+02  0.50528857440E+02  0.29999992674E+02 0.  0.
        -12    1    1    2    0    0 -0.22948426249E+02 -0.52520989190E+01  0.33150430817E+02  0.40659142560E+02  0.00000000000E+00 0.  1.
         11    1    3    3    0    0  0.12474540418E+01 -0.50045862076E+01 -0.10662065931E+02  0.11844056521E+02  0.51100000000E-03 0. -1.
        -11    1    3    3    0    0  0.90556073213E+01  0.90847503587E+00 -0.21001957978E+02  0.22889115100E+02  0.51100000000E-03 0.  1.
        -12    1    3    3    0    0  0.12645364886E+02  0.93482100908E+01 -0.14864069073E+01  0.15795685819E+02  0.00000000000E+00 0.  1.
</event>
<event>
 7    1  0.5839176E-013  0.5052887E+02  0.7816164E-02  0.1300439E+00
        -11   -1    0    0    0    0  0.00000000000E+00  0.00000000000E+00  0.45593999997E+02  0.45594000000E+02  0.51100000000E-03 0.  1.
         11   -1    0    0    0    0 -0.00000000000E+00 -0.00000000000E+00 -0.45593999997E+02  0.45594000000E+02  0.51100000000E-03 0. -1.
    9900012    2    1    2    0    0  0.32085781719E+00  0.39900796653E+02 -0.78095167633E+01  0.50528867257E+02  0.30000022515E+02 0.  0.
        -12    1    1    2    0    0 -0.32085781719E+00 -0.39900796653E+02  0.78095167633E+01  0.40659132743E+02  0.00000000000E+00 0.  1.
         11    1    3    3    0    0  0.67633335072E+01  0.21790477540E+02 -0.22192300770E+01  0.22923624799E+02  0.51100000000E-03 0. -1.
        -11    1    3    3    0    0 -0.11173658799E+02  0.10214020254E+02  0.25078686623E+01  0.15344910107E+02  0.51100000000E-03 0.  1.
         12    1    3    3    0    0  0.47311831094E+01  0.78962988599E+01 -0.80981553487E+01  0.12260332351E+02  0.00000000000E+00 0. -1.
</event>
<event>
 7    1  0.5839176E-013  0.5052886E+02  0.7816164E-02  0.1300439E+00
        -11   -1    0    0    0    0  0.00000000000E+00  0.00000000000E+00  0.45593999997E+02  0.45594000000E+02  0.51100000000E-03 0.  1.
         11   -1    0    0    0    0 -0.00000000000E+00 -0.00000000000E+00 -0.45593999997E+02  0.45594000000E+02  0.51100000000E-03 0. -1.
    9900012    2    1    2    0    0  0.32108584686E+02  0.23691757287E+02 -0.78041549597E+01  0.50528863161E+02  0.30000010064E+02 0.  0.
        -12    1    1    2    0    0 -0.32108584686E+02 -0.23691757287E+02  0.78041549597E+01  0.40659136839E+02  0.00000000000E+00 0.  1.
         11    1    3    3    0    0  0.38014229950E+01 -0.65187062866E-01 -0.26318967849E+01  0.46240617521E+01  0.51100000000E-03 0. -1.
        -11    1    3    3    0    0  0.20130149831E+02  0.15832289526E+02 -0.15995249623E+02  0.30194905773E+02  0.51100000000E-03 0.  1.
        -12    1    3    3    0    0  0.81770118596E+01  0.79246548231E+01  0.10822991448E+02  0.15709895636E+02  0.00000000000E+00 0.  1.
</event>
<event>
 7    1  0.5839176E-013  0.5052886E+02  0.7816164E-02  0.1300439E+00
        -11   -1    0    0    0    0  0.00000000000E+00  0.00000000000E+00  0.45593999997E+02  0.45594000000E+02  0.51100000000E-03 0.  1.
         11   -1    0    0    0    0 -0.00000000000E+00 -0.00000000000E+00 -0.45593999997E+02  0.45594000000E+02  0.51100000000E-03 0. -1.
    9900012    2    1    2    0    0  0.34008092649E+02 -0.12158681052E+02 -0.18675704419E+02  0.50528858026E+02  0.29999994455E+02 0.  0.
        -12    1    1    2    0    0 -0.34008092649E+02  0.12158681052E+02  0.18675704419E+02  0.40659141974E+02  0.00000000000E+00 0.  1.
         11    1    3    3    0    0  0.15761224891E+02 -0.28245006049E+01  0.26236228123E+01  0.16225825423E+02  0.51100000000E-03 0. -1.
        -11    1    3    3    0    0  0.13383131845E+00  0.39538408592E+01 -0.11341005029E+01  0.41154529002E+01  0.51100000000E-03 0.  1.
         12    1    3    3    0    0  0.18113036439E+02 -0.13288021306E+02 -0.20165226728E+02  0.30187579703E+02  0.00000000000E+00 0. -1.
</event>
<event>
 7    1  0.5839176E-013  0.5052885E+02  0.7816164E-02  0.1300439E+00
        -11   -1    0    0    0    0  0.00000000000E+00  0.00000000000E+00  0.45593999997E+02  0.45594000000E+02  0.51100000000E-03 0.  1.
         11   -1    0    0    0    0 -0.00000000000E+00 -0.00000000000E+00 -0.45593999997E+02  0.45594000000E+02  0.51100000000E-03 0. -1.
    9900012    2    1    2    0    0  0.26585653796E+01  0.23700307275E+02 -0.32930131862E+02  0.50528854420E+02  0.29999983496E+02 0.  0.
        -12    1    1    2    0    0 -0.26585653796E+01 -0.23700307275E+02  0.32930131862E+02  0.40659145580E+02  0.00000000000E+00 0.  1.
         11    1    3    3    0    0  0.36161646298E+01  0.59140777861E-01 -0.27575921480E+01  0.45480170379E+01  0.51100000000E-03 0. -1.
        -11    1    3    3    0    0 -0.55160251164E+01 -0.22380674876E+01  0.22307121971E-01  0.59528125313E+01  0.51100000000E-03 0.  1.
         12    1    3    3    0    0  0.45584258663E+01  0.25879233985E+02 -0.30194846836E+02  0.40028024851E+02  0.00000000000E+00 0. -1.
</event>
<event>
 7    1  0.5839176E-013  0.5052886E+02  0.7816164E-02  0.1300439E+00
        -11   -1    0    0    0    0  0.00000000000E+00  0.00000000000E+00  0.45593999997E+02  0.45594000000E+02  0.51100000000E-03 0.  1.
         11   -1    0    0    0    0 -0.00000000000E+00 -0.00000000000E+00 -0.45593999997E+02  0.45594000000E+02  0.51100000000E-03 0. -1.
    9900012    2    1    2    0    0 -0.33185394345E+02 -0.87220458729E+01 -0.21813334466E+02  0.50528855364E+02  0.29999986364E+02 0.  0.
        -12    1    1    2    0    0  0.33185394345E+02  0.87220458729E+01  0.21813334466E+02  0.40659144636E+02  0.00000000000E+00 0.  1.
         11    1    3    3    0    0 -0.10494498131E+02 -0.32511146398E+00 -0.47740331356E+01  0.11533931729E+02  0.51100000000E-03 0. -1.
        -11    1    3    3    0    0 -0.23788993797E+02 -0.49788135185E+01 -0.22059783518E+02  0.32822840508E+02  0.51100000000E-03 0.  1.
        -12    1    3    3    0    0  0.10980975831E+01 -0.34181208904E+01  0.50204821879E+01  0.61720831266E+01  0.00000000000E+00 0.  1.
</event>
<event>
 7    1  0.5839176E-013  0.5052886E+02  0.7816164E-02  0.1300439E+00
        -11   -1    0    0    0    0  0.00000000000E+00  0.00000000000E+00  0.45593999997E+02  0.45594000000E+02  0.51100000000E-03 0.  1.
         11   -1    0    0    0    0 -0.00000000000E+00 -0.00000000000E+00 -0.45593999997E+02  0.45594000000E+02  0.51100000000E-03 0. -1.
    9900012    2    1    2    0    0 -0.22353860323E+02 -0.12706077422E+02 -0.31496443988E+02  0.50528862544E+02  0.30000008189E+02 0.  0.
        -12    1    1    2    0    0  0.22353860323E+02  0.12706077422E+02  0.31496443988E+02  0.40659137456E+02  0.00000000000E+00 0.  1.
         11    1    3    3    0    0 -0.29787475887E+00  0.12486351158E+01 -0.50648091179E+01  0.52249507831E+01  0.51100000000E-03 0. -1.
        -11    1    3    3    0    0  0.59464325524E+01 -0.24022707564E+01 -0.34616491379E+01  0.72879338569E+01  0.51100000000E-03 0.  1.
        -12    1    3    3    0    0 -0.28002418116E+02 -0.11552441781E+02 -0.22969985732E+02  0.38015977904E+02  0.00000000000E+00 0.  1.
</event>
<event>
 7    1  0.5839176E-013  0.5052886E+02  0.7816164E-02  0.1300439E+00
        -11   -1    0    0    0    0  0.00000000000E+00  0.00000000000E+00  0.45593999997E+02  0.45594000000E+02  0.51100000000E-03 0.  1.
         11   -1    0    0    0    0 -0.00000000000E+00 -0.00000000000E+00 -0.45593999997E+02  0.45594000000E+02  0.51100000000E-03 0. -1.
    9900012    2    1    2    0    0  0.37253925145E+02 -0.18150703398E+01  0.16186913350E+02  0.50528861017E+02  0.30000003548E+02 0.  0.
        -12    1    1    2    0    0 -0.37253925145E+02  0.18150703398E+01 -0.16186913350E+02  0.40659138983E+02  0.00000000000E+00 0.  1.
         11    1    3    3    0    0  0.53502435546E+01  0.84473987691E+00  0.24749560548E+01  0.59551741609E+01  0.51100000000E-03 0. -1.
        -11    1    3    3    0    0  0.14835699749E+02 -0.14798842839E+02  0.10313207932E+02  0.23355213434E+02  0.51100000000E-03 0.  1.
        -12    1    3    3    0    0  0.17067981841E+02  0.12139032623E+02  0.33987493636E+01  0.21218473422E+02  0.00000000000E+00 0.  1.
</event>
<event>
 7    1  0.5839176E-013  0.5052887E+02  0.7816164E-02  0.1300439E+00
        -11   -1    0    0    0    0  0.00000000000E+00  0.00000000000E+00  0.45593999997E+02  0.45594000000E+02  0.51100000000E-03 0.  1.
         11   -1    0    0    0    0 -0.00000000000E+00 -0.00000000000E+00 -0.45593999997E+02  0.45594000000E+02  0.51100000000E-03 0. -1.
    9900012    2    1    2    0    0 -0.99978860463E+00  0.15123012068E+02 -0.37728763354E+02  0.50528872421E+02  0.30000038210E+02 0.  0.
        -12    1    1    2    0    0  0.99978860463E+00 -0.15123012068E+02  0.37728763354E+02  0.40659127579E+02  0.00000000000E+00 0.  1.
         11    1    3    3    0    0  0.19322703315E+01  0.73344673151E+01 -0.19997437669E+02  0.21387510211E+02  0.51100000000E-03 0. -1.
        -11    1    3    3    0    0 -0.41703970768E+01  0.12280443515E+02 -0.20094931009E+02  0.23916683659E+02  0.51100000000E-03 0.  1.
        -12    1    3    3    0    0  0.12383381407E+01 -0.44918987619E+01  0.23636053238E+01  0.52246785513E+01  0.00000000000E+00 0.  1.
</event>
<event>
 7    1  0.5839176E-013  0.5052885E+02  0.7816164E-02  0.1300439E+00
        -11   -1    0    0    0    0  0.00000000000E+00  0.00000000000E+00  0.45593999997E+02  0.45594000000E+02  0.51100000000E-03 0. -1.
         11   -1    0    0    0    0 -0.00000000000E+00 -0.00000000000E+00 -0.45593999997E+02  0.45594000000E+02  0.51100000000E-03 0.  1.
    9900012    2    1    2    0    0 -0.19409374376E+02  0.29381651038E+02  0.20326362801E+02  0.50528852738E+02  0.29999978381E+02 0.  0.
        -12    1    1    2    0    0  0.19409374376E+02 -0.29381651038E+02 -0.20326362801E+02  0.40659147262E+02  0.00000000000E+00 0.  1.
         11    1    3    3    0    0 -0.20536321303E+01 -0.10661999633E+01  0.37980837186E+01  0.44474293117E+01  0.51100000000E-03 0. -1.
        -11    1    3    3    0    0 -0.73361809751E+00 -0.43693900196E+01  0.18738850410E+01  0.48105311624E+01  0.51100000000E-03 0.  1.
        -12    1    3    3    0    0 -0.16622124148E+02  0.34817241021E+02  0.14654394041E+02  0.41270892264E+02  0.00000000000E+00 0.  1.
</event>
<event>
 7    1  0.5839176E-013  0.5052887E+02  0.7816164E-02  0.1300439E+00
        -11   -1    0    0    0    0  0.00000000000E+00  0.00000000000E+00  0.45593999997E+02  0.45594000000E+02  0.51100000000E-03 0. -1.
         11   -1    0    0    0    0 -0.00000000000E+00 -0.00000000000E+00 -0.45593999997E+02  0.45594000000E+02  0.51100000000E-03 0.  1.
    9900012    2    1    2    0    0  0.25854556380E+02 -0.10624817214E+02  0.29526604632E+02  0.50528865632E+02  0.30000017575E+02 0.  0.
        -12    1    1    2    0    0 -0.25854556380E+02  0.10624817214E+02 -0.29526604632E+02  0.40659134368E+02  0.00000000000E+00 0.  1.
         11    1    3    3    0    0  0.34847115399E+01 -0.11814504913E+01  0.52291146820E+00  0.37165140177E+01  0.51100000000E-03 0. -1.
        -11    1    3    3    0    0  0.10067755898E+02  0.96778027740E+01  0.99432062465E+01  0.17143130580E+02  0.51100000000E-03 0.  1.
         12    1    3    3    0    0  0.12302088942E+02 -0.19121169496E+02  0.19060486918E+02  0.29669221035E+02  0.00000000000E+00 0. -1.
</event>
<event>
 7    1  0.5839176E-013  0.5052882E+02  0.7816164E-02  0.1300439E+00
        -11   -1    0    0    0    0  0.00000000000E+00  0.00000000000E+00  0.45593999997E+02  0.45594000000E+02  0.51100000000E-03 0. -1.
         11   -1    0    0    0    0 -0.00000000000E+00 -0.00000000000E+00 -0.45593999997E+02  0.45594000000E+02  0.51100000000E-03 0.  1.
    9900012    2    1    2    0    0 -0.37970391901E+02  0.11943932824E+02  0.82921949065E+01  0.50528822822E+02  0.29999887449E+02 0.  0.
        -12    1    1    2    0    0  0.37970391901E+02 -0.11943932824E+02 -0.82921949065E+01  0.40659177178E+02  0.00000000000E+00 0.  1.
         11    1    3    3    0    0 -0.23363926861E+02  0.82811696003E+01  0.10606571669E+02  0.26962014226E+02  0.51100000000E-03 0. -1.
        -11    1    3    3    0    0 -0.13893941825E+02 -0.22898791067E+01  0.42188117483E+01  0.14699780223E+02  0.51100000000E-03 0.  1.
         12    1    3    3    0    0 -0.71252321553E+00  0.59526423300E+01 -0.65331885112E+01  0.88670283728E+01  0.00000000000E+00 0. -1.
</event>
<event>
 7    1  0.5839176E-013  0.5052886E+02  0.7816164E-02  0.1300439E+00
        -11   -1    0    0    0    0  0.00000000000E+00  0.00000000000E+00  0.45593999997E+02  0.45594000000E+02  0.51100000000E-03 0.  1.
         11   -1    0    0    0    0 -0.00000000000E+00 -0.00000000000E+00 -0.45593999997E+02  0.45594000000E+02  0.51100000000E-03 0. -1.
    9900012    2    1    2    0    0 -0.21983205718E+01  0.25188276053E+02 -0.31841538427E+02  0.50528862857E+02  0.30000009139E+02 0.  0.
        -12    1    1    2    0    0  0.21983205718E+01 -0.25188276053E+02  0.31841538427E+02  0.40659137143E+02  0.00000000000E+00 0.  1.
         11    1    3    3    0    0  0.14381672161E+01  0.15551310658E+02 -0.59503542264E+01  0.16712818547E+02  0.51100000000E-03 0. -1.
        -11    1    3    3    0    0  0.30187025900E+01  0.89436407599E+01 -0.29057256289E+01  0.98764627808E+01  0.51100000000E-03 0.  1.
         12    1    3    3    0    0 -0.66551903778E+01  0.69332463484E+00 -0.22985458572E+02  0.23939581529E+02  0.00000000000E+00 0. -1.
</event>
<event>
 7    1  0.5839176E-013  0.5052887E+02  0.7816164E-02  0.1300439E+00
        -11   -1    0    0    0    0  0.00000000000E+00  0.00000000000E+00  0.45593999997E+02  0.45594000000E+02  0.51100000000E-03 0.  1.
         11   -1    0    0    0    0 -0.00000000000E+00 -0.00000000000E+00 -0.45593999997E+02  0.45594000000E+02  0.51100000000E-03 0. -1.
    9900012    2    1    2    0    0  0.14673655323E+02  0.33830994792E+02  0.17126359426E+02  0.50528873640E+02  0.30000041917E+02 0.  0.
        -12    1    1    2    0    0 -0.14673655323E+02 -0.33830994792E+02 -0.17126359426E+02  0.40659126360E+02  0.00000000000E+00 0.  1.
         11    1    3    3    0    0  0.18889582756E+02  0.18070083782E+02  0.14556421874E+02  0.29920455923E+02  0.51100000000E-03 0. -1.
        -11    1    3    3    0    0  0.83116860745E+00  0.28008997393E+01  0.56524109838E+01  0.63628319791E+01  0.51100000000E-03 0.  1.
         12    1    3    3    0    0 -0.50470960407E+01  0.12960011270E+02 -0.30824734321E+01  0.14245585739E+02  0.00000000000E+00 0. -1.
</event>
<event>
 7    1  0.5839176E-013  0.5052886E+02  0.7816164E-02  0.1300439E+00
        -11   -1    0    0    0    0  0.00000000000E+00  0.00000000000E+00  0.45593999997E+02  0.45594000000E+02  0.51100000000E-03 0.  1.
         11   -1    0    0    0    0 -0.00000000000E+00 -0.00000000000E+00 -0.45593999997E+02  0.45594000000E+02  0.51100000000E-03 0. -1.
    9900012    2    1    2    0    0  0.38442893274E+02 -0.92523672635E+01 -0.94711829748E+01  0.50528860188E+02  0.30000001029E+02 0.  0.
        -12    1    1    2    0    0 -0.38442893274E+02  0.92523672635E+01  0.94711829748E+01  0.40659139812E+02  0.00000000000E+00 0.  1.
         11    1    3    3    0    0  0.93470553138E-01 -0.10845968537E+01 -0.46715151877E+01  0.47966802571E+01  0.51100000000E-03 0. -1.
        -11    1    3    3    0    0  0.12410449397E+01 -0.73012178642E+01 -0.43942542946E+01  0.86114717622E+01  0.51100000000E-03 0.  1.
         12    1    3    3    0    0  0.37108377781E+02 -0.86655254553E+00 -0.40541349253E+00  0.37120708169E+02  0.00000000000E+00 0. -1.
</event>
<event>
 7    1  0.5839176E-013  0.5052880E+02  0.7816164E-02  0.1300439E+00
        -11   -1    0    0    0    0  0.00000000000E+00  0.00000000000E+00  0.45593999997E+02  0.45594000000E+02  0.51100000000E-03 0.  1.
         11   -1    0    0    0    0 -0.00000000000E+00 -0.00000000000E+00 -0.45593999997E+02  0.45594000000E+02  0.51100000000E-03 0. -1.
    9900012    2    1    2    0    0 -0.25838530194E+02 -0.30221742405E+01 -0.31247522778E+02  0.50528796128E+02  0.29999806310E+02 0.  0.
        -12    1    1    2    0    0  0.25838530194E+02  0.30221742405E+01  0.31247522778E+02  0.40659203872E+02  0.00000000000E+00 0.  1.
         11    1    3    3    0    0  0.49648293778E+01 -0.16478272446E+01 -0.46653028514E+01  0.70092735954E+01  0.51100000000E-03 0. -1.
        -11    1    3    3    0    0 -0.91183225323E+01  0.63393326634E+01 -0.58965816404E+01  0.12573806891E+02  0.51100000000E-03 0.  1.
         12    1    3    3    0    0 -0.21685037039E+02 -0.77136796593E+01 -0.20685638286E+02  0.30945715642E+02  0.00000000000E+00 0. -1.
</event>
<event>
 7    1  0.5839176E-013  0.5052886E+02  0.7816164E-02  0.1300439E+00
        -11   -1    0    0    0    0  0.00000000000E+00  0.00000000000E+00  0.45593999997E+02  0.45594000000E+02  0.51100000000E-03 0.  1.
         11   -1    0    0    0    0 -0.00000000000E+00 -0.00000000000E+00 -0.45593999997E+02  0.45594000000E+02  0.51100000000E-03 0. -1.
    9900012    2    1    2    0    0  0.12845264631E+02  0.17680120735E+02 -0.34286706070E+02  0.50528859505E+02  0.29999998951E+02 0.  0.
        -12    1    1    2    0    0 -0.12845264631E+02 -0.17680120735E+02  0.34286706070E+02  0.40659140495E+02  0.00000000000E+00 0.  1.
         11    1    3    3    0    0  0.40803963489E+00  0.10771964764E+02 -0.15797947935E+02  0.19125294257E+02  0.51100000000E-03 0. -1.
        -11    1    3    3    0    0 -0.22729184608E+01  0.81482828278E+01 -0.13287456501E+02  0.15751735520E+02  0.51100000000E-03 0.  1.
        -12    1    3    3    0    0  0.14710143456E+02 -0.12401268561E+01 -0.52013016347E+01  0.15651829728E+02  0.00000000000E+00 0.  1.
</event>
<event>
 7    1  0.5839176E-013  0.5052887E+02  0.7816164E-02  0.1300439E+00
        -11   -1    0    0    0    0  0.00000000000E+00  0.00000000000E+00  0.45593999997E+02  0.45594000000E+02  0.51100000000E-03 0.  1.
         11   -1    0    0    0    0 -0.00000000000E+00 -0.00000000000E+00 -0.45593999997E+02  0.45594000000E+02  0.51100000000E-03 0. -1.
    9900012    2    1    2    0    0  0.18812467736E+02 -0.90611405904E+01 -0.34887705002E+02  0.50528866077E+02  0.30000018927E+02 0.  0.
        -12    1    1    2    0    0 -0.18812467736E+02  0.90611405904E+01  0.34887705002E+02  0.40659133923E+02  0.00000000000E+00 0.  1.
         11    1    3    3    0    0  0.11334443366E+01  0.48791380947E+01 -0.13457103456E+02  0.14359119690E+02  0.51100000000E-03 0.  1.
        -11    1    3    3    0    0  0.12281837072E+02 -0.41474867865E+01 -0.21362383084E+02  0.24987928682E+02  0.51100000000E-03 0. -1.
        -12    1    3    3    0    0  0.53971863273E+01 -0.97927918986E+01 -0.68218462207E-01  0.11181817705E+02  0.00000000000E+00 0.  1.
</event>
<event>
 7    1  0.5839176E-013  0.5052882E+02  0.7816164E-02  0.1300439E+00
        -11   -1    0    0    0    0  0.00000000000E+00  0.00000000000E+00  0.45593999997E+02  0.45594000000E+02  0.51100000000E-03 0. -1.
         11   -1    0    0    0    0 -0.00000000000E+00 -0.00000000000E+00 -0.45593999997E+02  0.45594000000E+02  0.51100000000E-03 0.  1.
    9900012    2    1    2    0    0  0.31514696530E+02 -0.37676677948E+01  0.25412543704E+02  0.50528821510E+02  0.29999883461E+02 0.  0.
        -12    1    1    2    0    0 -0.31514696530E+02  0.37676677948E+01 -0.25412543704E+02  0.40659178490E+02  0.00000000000E+00 0.  1.
         11    1    3    3    0    0  0.95428968429E+00  0.40293817737E+01 -0.32395223844E+01  0.52574796072E+01  0.51100000000E-03 0. -1.
        -11    1    3    3    0    0  0.41787161718E+01 -0.32503796010E+01 -0.92927204782E+00  0.53749589017E+01  0.51100000000E-03 0.  1.
         12    1    3    3    0    0  0.26381690674E+02 -0.45466699676E+01  0.29581338137E+02  0.39896383001E+02  0.00000000000E+00 0. -1.
</event>
<event>
 7    1  0.5839176E-013  0.5052887E+02  0.7816164E-02  0.1300439E+00
        -11   -1    0    0    0    0  0.00000000000E+00  0.00000000000E+00  0.45593999997E+02  0.45594000000E+02  0.51100000000E-03 0.  1.
         11   -1    0    0    0    0 -0.00000000000E+00 -0.00000000000E+00 -0.45593999997E+02  0.45594000000E+02  0.51100000000E-03 0. -1.
    9900012    2    1    2    0    0  0.15344689513E+02  0.10234113794E+01 -0.37638513594E+02  0.50528873439E+02  0.30000041306E+02 0.  0.
        -12    1    1    2    0    0 -0.15344689513E+02 -0.10234113794E+01  0.37638513594E+02  0.40659126561E+02  0.00000000000E+00 0.  1.
         11    1    3    3    0    0 -0.21460908252E+01  0.13761629463E+01 -0.71600276546E+01  0.76003635808E+01  0.51100000000E-03 0. -1.
        -11    1    3    3    0    0  0.54786503046E+00 -0.10426392040E+02 -0.12053071308E+02  0.15946358057E+02  0.51100000000E-03 0.  1.
        -12    1    3    3    0    0  0.16942915307E+02  0.10073640473E+02 -0.18425414631E+02  0.26982151801E+02  0.00000000000E+00 0.  1.
</event>
<event>
 7    1  0.5839176E-013  0.5052886E+02  0.7816164E-02  0.1300439E+00
        -11   -1    0    0    0    0  0.00000000000E+00  0.00000000000E+00  0.45593999997E+02  0.45594000000E+02  0.51100000000E-03 0. -1.
         11   -1    0    0    0    0 -0.00000000000E+00 -0.00000000000E+00 -0.45593999997E+02  0.45594000000E+02  0.51100000000E-03 0.  1.
    9900012    2    1    2    0    0 -0.96381867581E+01 -0.27611510813E+02  0.28246694690E+02  0.50528856695E+02  0.29999990411E+02 0.  0.
        -12    1    1    2    0    0  0.96381867581E+01  0.27611510813E+02 -0.28246694690E+02  0.40659143305E+02  0.00000000000E+00 0.  1.
         11    1    3    3    0    0 -0.91604900169E-01 -0.12224399060E+01 -0.16219805318E+01  0.20331187590E+01  0.51100000000E-03 0. -1.
        -11    1    3    3    0    0 -0.31311720473E+01  0.45002121198E+01  0.69562378284E+00  0.55263043909E+01  0.51100000000E-03 0.  1.
         12    1    3    3    0    0 -0.64154098106E+01 -0.30889283027E+02  0.29173051439E+02  0.42969433545E+02  0.00000000000E+00 0. -1.
</event>
<event>
 7    1  0.5839176E-013  0.5052886E+02  0.7816164E-02  0.1300439E+00
        -11   -1    0    0    0    0  0.00000000000E+00  0.00000000000E+00  0.45593999997E+02  0.45594000000E+02  0.51100000000E-03 0.  1.
         11   -1    0    0    0    0 -0.00000000000E+00 -0.00000000000E+00 -0.45593999997E+02  0.45594000000E+02  0.51100000000E-03 0. -1.
    9900012    2    1    2    0    0  0.29582303720E+02  0.22335782540E+02 -0.16708266583E+02  0.50528855306E+02  0.29999986188E+02 0.  0.
        -12    1    1    2    0    0 -0.29582303720E+02 -0.22335782540E+02  0.16708266583E+02  0.40659144694E+02  0.00000000000E+00 0.  1.
         11    1    3    3    0    0  0.23401194233E+02  0.13003753422E+02 -0.68494046998E+01  0.27633816956E+02  0.51100000000E-03 0. -1.
        -11    1    3    3    0    0  0.70141288250E+01  0.90431105813E+01  0.14641535825E+01  0.11537746666E+02  0.51100000000E-03 0.  1.
        -12    1    3    3    0    0 -0.83301933810E+00  0.28891853706E+00 -0.11323015466E+02  0.11357291684E+02  0.00000000000E+00 0.  1.
</event>
<event>
 7    1  0.5839176E-013  0.5052886E+02  0.7816164E-02  0.1300439E+00
        -11   -1    0    0    0    0  0.00000000000E+00  0.00000000000E+00  0.45593999997E+02  0.45594000000E+02  0.51100000000E-03 0. -1.
         11   -1    0    0    0    0 -0.00000000000E+00 -0.00000000000E+00 -0.45593999997E+02  0.45594000000E+02  0.51100000000E-03 0.  1.
    9900012    2    1    2    0    0  0.16663409516E+01 -0.22940819521E+02  0.33527716854E+02  0.50528859700E+02  0.29999999545E+02 0.  0.
        -12    1    1    2    0    0 -0.16663409516E+01  0.22940819521E+02 -0.33527716854E+02  0.40659140300E+02  0.00000000000E+00 0.  1.
         11    1    3    3    0    0 -0.17801042185E+01 -0.20341200698E+02  0.28154760216E+02  0.34779645484E+02  0.51100000000E-03 0. -1.
        -11    1    3    3    0    0  0.32430398582E+00 -0.70169692151E+01  0.71813295322E+01  0.10045622139E+02  0.51100000000E-03 0.  1.
        -12    1    3    3    0    0  0.31221411842E+01  0.44173503929E+01 -0.18083728942E+01  0.57035920780E+01  0.00000000000E+00 0.  1.
</event>
<event>
 7    1  0.5839176E-013  0.5052888E+02  0.7816164E-02  0.1300439E+00
        -11   -1    0    0    0    0  0.00000000000E+00  0.00000000000E+00  0.45593999997E+02  0.45594000000E+02  0.51100000000E-03 0. -1.
         11   -1    0    0    0    0 -0.00000000000E+00 -0.00000000000E+00 -0.45593999997E+02  0.45594000000E+02  0.51100000000E-03 0.  1.
    9900012    2    1    2    0    0  0.17174455906E+02  0.27864681362E+02  0.24119731162E+02  0.50528882518E+02  0.30000068903E+02 0.  0.
        -12    1    1    2    0    0 -0.17174455906E+02 -0.27864681362E+02 -0.24119731162E+02  0.40659117482E+02  0.00000000000E+00 0.  1.
         11    1    3    3    0    0  0.45743052229E+01  0.23458145334E+02  0.11919871972E+02  0.26707530752E+02  0.51100000000E-03 0. -1.
        -11    1    3    3    0    0  0.56460035115E+01  0.95977013725E+01  0.38593851196E+01  0.11785078746E+02  0.51100000000E-03 0.  1.
         12    1    3    3    0    0  0.69541471714E+01 -0.51911653441E+01  0.83404740704E+01  0.12036273021E+02  0.00000000000E+00 0. -1.
</event>
<event>
 7    1  0.5839176E-013  0.5052889E+02  0.7816164E-02  0.1300439E+00
        -11   -1    0    0    0    0  0.00000000000E+00  0.00000000000E+00  0.45593999997E+02  0.45594000000E+02  0.51100000000E-03 0.  1.
         11   -1    0    0    0    0 -0.00000000000E+00 -0.00000000000E+00 -0.45593999997E+02  0.45594000000E+02  0.51100000000E-03 0. -1.
    9900012    2    1    2    0    0  0.18492546702E+01  0.86420285814E+01 -0.39687015671E+02  0.50528885232E+02  0.30000077151E+02 0.  0.
        -12    1    1    2    0    0 -0.18492546702E+01 -0.86420285814E+01  0.39687015671E+02  0.40659114768E+02  0.00000000000E+00 0.  1.
         11    1    3    3    0    0 -0.55773486449E+01  0.36348710642E+01 -0.55515612245E+01  0.86682719069E+01  0.51100000000E-03 0. -1.
        -11    1    3    3    0    0 -0.65957211413E+01  0.74908808283E+01 -0.13527136967E+02  0.16810718835E+02  0.51100000000E-03 0.  1.
        -12    1    3    3    0    0  0.14022324456E+02 -0.24837233110E+01 -0.20608317479E+02  0.25049894490E+02  0.00000000000E+00 0.  1.
</event>
<event>
 7    1  0.5839176E-013  0.5052885E+02  0.7816164E-02  0.1300439E+00
        -11   -1    0    0    0    0  0.00000000000E+00  0.00000000000E+00  0.45593999997E+02  0.45594000000E+02  0.51100000000E-03 0. -1.
         11   -1    0    0    0    0 -0.00000000000E+00 -0.00000000000E+00 -0.45593999997E+02  0.45594000000E+02  0.51100000000E-03 0.  1.
    9900012    2    1    2    0    0 -0.11129308210E+02  0.38764241717E+02  0.51612510931E+01  0.50528850354E+02  0.29999971136E+02 0.  0.
        -12    1    1    2    0    0  0.11129308210E+02 -0.38764241717E+02 -0.51612510931E+01  0.40659149646E+02  0.00000000000E+00 0.  1.
         11    1    3    3    0    0  0.15129665403E+01  0.14208645726E+02  0.55895048126E+01  0.15343312727E+02  0.51100000000E-03 0.  1.
        -11    1    3    3    0    0  0.46454747405E+01  0.14007982061E+02 -0.19038005842E+01  0.14880472234E+02  0.51100000000E-03 0. -1.
        -12    1    3    3    0    0 -0.17287749491E+02  0.10547613929E+02  0.14755468647E+01  0.20305065393E+02  0.00000000000E+00 0.  1.
</event>
<event>
 7    1  0.5839176E-013  0.5052887E+02  0.7816164E-02  0.1300439E+00
        -11   -1    0    0    0    0  0.00000000000E+00  0.00000000000E+00  0.45593999997E+02  0.45594000000E+02  0.51100000000E-03 0.  1.
         11   -1    0    0    0    0 -0.00000000000E+00 -0.00000000000E+00 -0.45593999997E+02  0.45594000000E+02  0.51100000000E-03 0. -1.
    9900012    2    1    2    0    0 -0.82694372004E+01  0.26140032043E+01 -0.39723395566E+02  0.50528871140E+02  0.30000034318E+02 0.  0.
        -12    1    1    2    0    0  0.82694372004E+01 -0.26140032043E+01  0.39723395566E+02  0.40659128860E+02  0.00000000000E+00 0.  1.
         11    1    3    3    0    0 -0.34074706173E+01 -0.11352599017E+01  0.97875275020E+00  0.37225835463E+01  0.51100000000E-03 0. -1.
        -11    1    3    3    0    0 -0.44582603902E+01  0.58340546274E+01 -0.14345637528E+01  0.74813269227E+01  0.51100000000E-03 0.  1.
         12    1    3    3    0    0 -0.40370619286E+00 -0.20847915214E+01 -0.39267584563E+02  0.39324960671E+02  0.00000000000E+00 0. -1.
</event>
<event>
 7    1  0.5839176E-013  0.5052885E+02  0.7816164E-02  0.1300439E+00
        -11   -1    0    0    0    0  0.00000000000E+00  0.00000000000E+00  0.45593999997E+02  0.45594000000E+02  0.51100000000E-03 0.  1.
         11   -1    0    0    0    0 -0.00000000000E+00 -0.00000000000E+00 -0.45593999997E+02  0.45594000000E+02  0.51100000000E-03 0. -1.
    9900012    2    1    2    0    0 -0.24690208489E+02  0.32184720572E+02 -0.27756043645E+01  0.50528848347E+02  0.29999965035E+02 0.  0.
        -12    1    1    2    0    0  0.24690208489E+02 -0.32184720572E+02  0.27756043645E+01  0.40659151653E+02  0.00000000000E+00 0.  1.
         11    1    3    3    0    0 -0.49317273157E+01  0.76047394958E+01  0.41379978326E+01  0.99637855978E+01  0.51100000000E-03 0. -1.
        -11    1    3    3    0    0  0.55561828859E+01  0.17176871463E+01 -0.32869244121E+00  0.58249168557E+01  0.51100000000E-03 0.  1.
        -12    1    3    3    0    0 -0.25314664060E+02  0.22862293930E+02 -0.65849097559E+01  0.34740145893E+02  0.00000000000E+00 0.  1.
</event>
<event>
 7    1  0.5839176E-013  0.5052886E+02  0.7816164E-02  0.1300439E+00
        -11   -1    0    0    0    0  0.00000000000E+00  0.00000000000E+00  0.45593999997E+02  0.45594000000E+02  0.51100000000E-03 0.  1.
         11   -1    0    0    0    0 -0.00000000000E+00 -0.00000000000E+00 -0.45593999997E+02  0.45594000000E+02  0.51100000000E-03 0. -1.
    9900012    2    1    2    0    0 -0.21289434191E+02  0.34632964527E+02  0.69550228356E+00  0.50528856336E+02  0.29999989319E+02 0.  0.
        -12    1    1    2    0    0  0.21289434191E+02 -0.34632964527E+02 -0.69550228356E+00  0.40659143664E+02  0.00000000000E+00 0.  1.
         11    1    3    3    0    0 -0.34597674586E+01  0.76373365936E+01 -0.12710606313E+01  0.84802415355E+01  0.51100000000E-03 0. -1.
        -11    1    3    3    0    0 -0.15225509632E+02  0.24161027121E+02  0.12245283989E+02  0.31072791238E+02  0.51100000000E-03 0.  1.
         12    1    3    3    0    0 -0.26041571005E+01  0.28346008125E+01 -0.10278721074E+02  0.10975823563E+02  0.00000000000E+00 0. -1.
</event>
<event>
 7    1  0.5839176E-013  0.5052884E+02  0.7816164E-02  0.1300439E+00
        -11   -1    0    0    0    0  0.00000000000E+00  0.00000000000E+00  0.45593999997E+02  0.45594000000E+02  0.51100000000E-03 0.  1.
         11   -1    0    0    0    0 -0.00000000000E+00 -0.00000000000E+00 -0.45593999997E+02  0.45594000000E+02  0.51100000000E-03 0. -1.
    9900012    2    1    2    0    0  0.31784080972E+02  0.14146709041E+02 -0.21043061295E+02  0.50528836105E+02  0.29999927826E+02 0.  0.
        -12    1    1    2    0    0 -0.31784080972E+02 -0.14146709041E+02  0.21043061295E+02  0.40659163895E+02  0.00000000000E+00 0.  1.
         11    1    3    3    0    0  0.25471621046E+01  0.23754350147E+01  0.36152956584E+01  0.50200686504E+01  0.51100000000E-03 0. -1.
        -11    1    3    3    0    0  0.74581097763E+01 -0.75584123490E+00  0.30612215118E+01  0.80972695900E+01  0.51100000000E-03 0.  1.
         12    1    3    3    0    0  0.21778809091E+02  0.12527115261E+02 -0.27719578466E+02  0.37411497865E+02  0.00000000000E+00 0. -1.
</event>
<event>
 7    1  0.5839176E-013  0.5052887E+02  0.7816164E-02  0.1300439E+00
        -11   -1    0    0    0    0  0.00000000000E+00  0.00000000000E+00  0.45593999997E+02  0.45594000000E+02  0.51100000000E-03 0.  1.
         11   -1    0    0    0    0 -0.00000000000E+00 -0.00000000000E+00 -0.45593999997E+02  0.45594000000E+02  0.51100000000E-03 0. -1.
    9900012    2    1    2    0    0  0.23257452535E+02 -0.61041179831E+01 -0.32787129198E+02  0.50528865776E+02  0.30000018013E+02 0.  0.
        -12    1    1    2    0    0 -0.23257452535E+02  0.61041179831E+01  0.32787129198E+02  0.40659134224E+02  0.00000000000E+00 0.  1.
         11    1    3    3    0    0  0.60422684439E+01  0.12962937630E+01 -0.63993801655E+01  0.88961481683E+01  0.51100000000E-03 0. -1.
        -11    1    3    3    0    0  0.19895861518E+02 -0.58764415296E+01 -0.68412173590E+01  0.21844452975E+02  0.51100000000E-03 0.  1.
        -12    1    3    3    0    0 -0.26806774267E+01 -0.15239702165E+01 -0.19546531674E+02  0.19788264633E+02  0.00000000000E+00 0.  1.
</event>
<event>
 7    1  0.5839176E-013  0.5052886E+02  0.7816164E-02  0.1300439E+00
        -11   -1    0    0    0    0  0.00000000000E+00  0.00000000000E+00  0.45593999997E+02  0.45594000000E+02  0.51100000000E-03 0.  1.
         11   -1    0    0    0    0 -0.00000000000E+00 -0.00000000000E+00 -0.45593999997E+02  0.45594000000E+02  0.51100000000E-03 0. -1.
    9900012    2    1    2    0    0 -0.19110557214E+02  0.96169318531E+01 -0.34575523679E+02  0.50528860646E+02  0.30000002420E+02 0.  0.
        -12    1    1    2    0    0  0.19110557214E+02 -0.96169318531E+01  0.34575523679E+02  0.40659139354E+02  0.00000000000E+00 0.  1.
         11    1    3    3    0    0 -0.54443002834E+01 -0.24655386500E+01 -0.32943703509E+01  0.68243800217E+01  0.51100000000E-03 0.  1.
        -11    1    3    3    0    0  0.47792753351E+01 -0.21984711056E+01 -0.80008886967E+00  0.53211737795E+01  0.51100000000E-03 0. -1.
         12    1    3    3    0    0 -0.18445532266E+02  0.14280941609E+02 -0.30481064459E+02  0.38383306845E+02  0.00000000000E+00 0. -1.
</event>
<event>
 7    1  0.5839176E-013  0.5052886E+02  0.7816164E-02  0.1300439E+00
        -11   -1    0    0    0    0  0.00000000000E+00  0.00000000000E+00  0.45593999997E+02  0.45594000000E+02  0.51100000000E-03 0.  1.
         11   -1    0    0    0    0 -0.00000000000E+00 -0.00000000000E+00 -0.45593999997E+02  0.45594000000E+02  0.51100000000E-03 0. -1.
    9900012    2    1    2    0    0 -0.31241412111E+02  0.16941453001E+02 -0.19751627716E+02  0.50528862554E+02  0.30000008218E+02 0.  0.
        -12    1    1    2    0    0  0.31241412111E+02 -0.16941453001E+02  0.19751627716E+02  0.40659137446E+02  0.00000000000E+00 0.  1.
         11    1    3    3    0    0 -0.12809920487E+02  0.10068399613E+02 -0.58438400329E+01  0.17309454072E+02  0.51100000000E-03 0. -1.
        -11    1    3    3    0    0 -0.22332268726E+02  0.71519155456E+01 -0.57071737661E+01  0.24134041416E+02  0.51100000000E-03 0.  1.
        -12    1    3    3    0    0  0.39007771029E+01 -0.27886215742E+00 -0.82006139166E+01  0.90853670657E+01  0.00000000000E+00 0.  1.
</event>
<event>
 7    1  0.5839176E-013  0.5052886E+02  0.7816164E-02  0.1300439E+00
        -11   -1    0    0    0    0  0.00000000000E+00  0.00000000000E+00  0.45593999997E+02  0.45594000000E+02  0.51100000000E-03 0.  1.
         11   -1    0    0    0    0 -0.00000000000E+00 -0.00000000000E+00 -0.45593999997E+02  0.45594000000E+02  0.51100000000E-03 0. -1.
    9900012    2    1    2    0    0 -0.38837355401E-01  0.32186881085E+02 -0.24842886605E+02  0.50528857889E+02  0.29999994039E+02 0.  0.
        -12    1    1    2    0    0  0.38837355401E-01 -0.32186881085E+02  0.24842886605E+02  0.40659142111E+02  0.00000000000E+00 0.  1.
         11    1    3    3    0    0  0.82329006482E+00  0.97329050074E+01 -0.11933289141E+02  0.15421110090E+02  0.51100000000E-03 0.  1.
        -11    1    3    3    0    0  0.34165665180E+01 -0.39065484727E+01  0.51971588022E+00  0.52157600212E+01  0.51100000000E-03 0. -1.
         12    1    3    3    0    0 -0.42786939382E+01  0.26360524551E+02 -0.13429313344E+02  0.29891987778E+02  0.00000000000E+00 0. -1.
</event>
<event>
 7    1  0.5839176E-013  0.5052886E+02  0.7816164E-02  0.1300439E+00
        -11   -1    0    0    0    0  0.00000000000E+00  0.00000000000E+00  0.45593999997E+02  0.45594000000E+02  0.51100000000E-03 0.  1.
         11   -1    0    0    0    0 -0.00000000000E+00 -0.00000000000E+00 -0.45593999997E+02  0.45594000000E+02  0.51100000000E-03 0. -1.
    9900012    2    1    2    0    0  0.38512958880E+02 -0.64062852321E+01 -0.11352415378E+02  0.50528858014E+02  0.29999994418E+02 0.  0.
        -12    1    1    2    0    0 -0.38512958880E+02  0.64062852321E+01  0.11352415378E+02  0.40659141986E+02  0.00000000000E+00 0.  1.
         11    1    3    3    0    0  0.46803511918E+01 -0.51608909948E+01  0.40551196717E+01  0.80612951163E+01  0.51100000000E-03 0. -1.
        -11    1    3    3    0    0  0.16897521255E+01 -0.38621181216E+01  0.31478628620E+01  0.52612032359E+01  0.51100000000E-03 0.  1.
         12    1    3    3    0    0  0.32142855563E+02  0.26167238842E+01 -0.18555397912E+02  0.37206359661E+02  0.00000000000E+00 0. -1.
</event>
<event>
 7    1  0.5839176E-013  0.5052886E+02  0.7816164E-02  0.1300439E+00
        -11   -1    0    0    0    0  0.00000000000E+00  0.00000000000E+00  0.45593999997E+02  0.45594000000E+02  0.51100000000E-03 0.  1.
         11   -1    0    0    0    0 -0.00000000000E+00 -0.00000000000E+00 -0.45593999997E+02  0.45594000000E+02  0.51100000000E-03 0. -1.
    9900012    2    1    2    0    0  0.36956132519E+01  0.35117520225E+02 -0.20156083600E+02  0.50528862156E+02  0.30000007011E+02 0.  0.
        -12    1    1    2    0    0 -0.36956132519E+01 -0.35117520225E+02  0.20156083600E+02  0.40659137844E+02  0.00000000000E+00 0.  1.
         11    1    3    3    0    0 -0.10170083231E+02  0.18171254646E+02 -0.75099338399E+01  0.22136490121E+02  0.51100000000E-03 0. -1.
        -11    1    3    3    0    0 -0.92455397711E+00  0.61960452224E+00  0.17513601852E+01  0.20750837525E+01  0.51100000000E-03 0.  1.
        -12    1    3    3    0    0  0.14790250460E+02  0.16326661057E+02 -0.14397509945E+02  0.26317288283E+02  0.00000000000E+00 0.  1.
</event>
<event>
 7    1  0.5839176E-013  0.5052885E+02  0.7816164E-02  0.1300439E+00
        -11   -1    0    0    0    0  0.00000000000E+00  0.00000000000E+00  0.45593999997E+02  0.45594000000E+02  0.51100000000E-03 0.  1.
         11   -1    0    0    0    0 -0.00000000000E+00 -0.00000000000E+00 -0.45593999997E+02  0.45594000000E+02  0.51100000000E-03 0. -1.
    9900012    2    1    2    0    0 -0.21726974618E+02  0.12320228584E+02 -0.32082967104E+02  0.50528852978E+02  0.29999979111E+02 0.  0.
        -12    1    1    2    0    0  0.21726974618E+02 -0.12320228584E+02  0.32082967104E+02  0.40659147022E+02  0.00000000000E+00 0.  1.
         11    1    3    3    0    0 -0.21409066211E+02  0.30785731526E+01 -0.85255786767E+01  0.23248897194E+02  0.51100000000E-03 0. -1.
        -11    1    3    3    0    0  0.44785029573E+00  0.14980264091E+01  0.76678795111E+00  0.17414410794E+01  0.51100000000E-03 0.  1.
        -12    1    3    3    0    0 -0.76575870220E+00  0.77436290223E+01 -0.24324176378E+02  0.25538514704E+02  0.00000000000E+00 0.  1.
</event>
<event>
 7    1  0.5839176E-013  0.5052885E+02  0.7816164E-02  0.1300439E+00
        -11   -1    0    0    0    0  0.00000000000E+00  0.00000000000E+00  0.45593999997E+02  0.45594000000E+02  0.51100000000E-03 0. -1.
         11   -1    0    0    0    0 -0.00000000000E+00 -0.00000000000E+00 -0.45593999997E+02  0.45594000000E+02  0.51100000000E-03 0.  1.
    9900012    2    1    2    0    0  0.13463695291E+02  0.47308627331E+01  0.38072488123E+02  0.50528849677E+02  0.29999969079E+02 0.  0.
        -12    1    1    2    0    0 -0.13463695291E+02 -0.47308627331E+01 -0.38072488123E+02  0.40659150323E+02  0.00000000000E+00 0.  1.
         11    1    3    3    0    0 -0.79713418485E-01 -0.93618915488E+00  0.10116684661E+02  0.10160222101E+02  0.51100000000E-03 0. -1.
        -11    1    3    3    0    0 -0.57197945151E+00  0.11333855458E+02  0.20494682062E+02  0.23426810135E+02  0.51100000000E-03 0.  1.
        -12    1    3    3    0    0  0.14115388161E+02 -0.56668035704E+01  0.74611214008E+01  0.16941817441E+02  0.00000000000E+00 0.  1.
</event>
<event>
 7    1  0.5839176E-013  0.5052883E+02  0.7816164E-02  0.1300439E+00
        -11   -1    0    0    0    0  0.00000000000E+00  0.00000000000E+00  0.45593999997E+02  0.45594000000E+02  0.51100000000E-03 0.  1.
         11   -1    0    0    0    0 -0.00000000000E+00 -0.00000000000E+00 -0.45593999997E+02  0.45594000000E+02  0.51100000000E-03 0. -1.
    9900012    2    1    2    0    0  0.25511487756E+02  0.31637041493E+02 -0.11957398552E+01  0.50528828885E+02  0.29999905878E+02 0.  0.
        -12    1    1    2    0    0 -0.25511487756E+02 -0.31637041493E+02  0.11957398552E+01  0.40659171115E+02  0.00000000000E+00 0.  1.
         11    1    3    3    0    0  0.12909888587E+02 -0.24037734402E+01  0.16864902398E+00  0.13132851664E+02  0.51100000000E-03 0. -1.
        -11    1    3    3    0    0  0.28869763516E+01  0.70148816562E+01  0.33503479366E+01  0.82926490739E+01  0.51100000000E-03 0.  1.
        -12    1    3    3    0    0  0.97146228181E+01  0.27025933277E+02 -0.47147368158E+01  0.29103328147E+02  0.00000000000E+00 0.  1.
</event>
<event>
 7    1  0.5839176E-013  0.5052885E+02  0.7816164E-02  0.1300439E+00
        -11   -1    0    0    0    0  0.00000000000E+00  0.00000000000E+00  0.45593999997E+02  0.45594000000E+02  0.51100000000E-03 0.  1.
         11   -1    0    0    0    0 -0.00000000000E+00 -0.00000000000E+00 -0.45593999997E+02  0.45594000000E+02  0.51100000000E-03 0. -1.
    9900012    2    1    2    0    0 -0.44797865677E+00  0.17524244858E+02 -0.36686052887E+02  0.50528851962E+02  0.29999976023E+02 0.  0.
        -12    1    1    2    0    0  0.44797865677E+00 -0.17524244858E+02  0.36686052887E+02  0.40659148038E+02  0.00000000000E+00 0.  1.
         11    1    3    3    0    0 -0.68098983781E+01  0.13549440623E+02 -0.13295492286E+02  0.20167602052E+02  0.51100000000E-03 0. -1.
        -11    1    3    3    0    0  0.61222534432E+00 -0.10118704472E+01  0.28253547812E+01  0.30628959458E+01  0.51100000000E-03 0.  1.
         12    1    3    3    0    0  0.57496943771E+01  0.49866746822E+01 -0.26215915383E+02  0.27298353965E+02  0.00000000000E+00 0. -1.
</event>
<event>
 7    1  0.5839176E-013  0.5052887E+02  0.7816164E-02  0.1300439E+00
        -11   -1    0    0    0    0  0.00000000000E+00  0.00000000000E+00  0.45593999997E+02  0.45594000000E+02  0.51100000000E-03 0.  1.
         11   -1    0    0    0    0 -0.00000000000E+00 -0.00000000000E+00 -0.45593999997E+02  0.45594000000E+02  0.51100000000E-03 0. -1.
    9900012    2    1    2    0    0  0.89569585391E+01 -0.28901024535E+02 -0.27160058683E+02  0.50528866794E+02  0.30000021106E+02 0.  0.
        -12    1    1    2    0    0 -0.89569585391E+01  0.28901024535E+02  0.27160058683E+02  0.40659133206E+02  0.00000000000E+00 0.  1.
         11    1    3    3    0    0  0.10430141885E+02 -0.14863499350E+02 -0.70082023927E+01  0.19463462531E+02  0.51100000000E-03 0. -1.
        -11    1    3    3    0    0 -0.54461741405E+01 -0.89875975598E+01 -0.64631756211E+00  0.10528791446E+02  0.51100000000E-03 0.  1.
         12    1    3    3    0    0  0.39729907951E+01 -0.50499276244E+01 -0.19505538728E+02  0.20536612816E+02  0.00000000000E+00 0. -1.
</event>
<event>
 7    1  0.5839176E-013  0.5052884E+02  0.7816164E-02  0.1300439E+00
        -11   -1    0    0    0    0  0.00000000000E+00  0.00000000000E+00  0.45593999997E+02  0.45594000000E+02  0.51100000000E-03 0.  1.
         11   -1    0    0    0    0 -0.00000000000E+00 -0.00000000000E+00 -0.45593999997E+02  0.45594000000E+02  0.51100000000E-03 0. -1.
    9900012    2    1    2    0    0 -0.33023643260E+02  0.66025485425E+01 -0.22781842172E+02  0.50528843661E+02  0.29999950791E+02 0.  0.
        -12    1    1    2    0    0  0.33023643260E+02 -0.66025485425E+01  0.22781842172E+02  0.40659156339E+02  0.00000000000E+00 0.  1.
         11    1    3    3    0    0 -0.16988670915E+02  0.28232904014E+01 -0.50150509258E+01  0.17937018821E+02  0.51100000000E-03 0. -1.
        -11    1    3    3    0    0 -0.78218021411E+01 -0.20743492292E+01  0.36817154736E+01  0.88903623407E+01  0.51100000000E-03 0.  1.
         12    1    3    3    0    0 -0.82131702043E+01  0.58536073703E+01 -0.21448506720E+02  0.23701462499E+02  0.00000000000E+00 0. -1.
</event>
<event>
 7    1  0.5839176E-013  0.5052886E+02  0.7816164E-02  0.1300439E+00
        -11   -1    0    0    0    0  0.00000000000E+00  0.00000000000E+00  0.45593999997E+02  0.45594000000E+02  0.51100000000E-03 0. -1.
         11   -1    0    0    0    0 -0.00000000000E+00 -0.00000000000E+00 -0.45593999997E+02  0.45594000000E+02  0.51100000000E-03 0.  1.
    9900012    2    1    2    0    0 -0.38306312140E+02  0.10961170983E+02 -0.81021460568E+01  0.50528860932E+02  0.30000003288E+02 0.  0.
        -12    1    1    2    0    0  0.38306312140E+02 -0.10961170983E+02  0.81021460568E+01  0.40659139068E+02  0.00000000000E+00 0.  1.
         11    1    3    3    0    0 -0.20820564395E+02  0.16107993973E+02 -0.11832292103E+02  0.28861159163E+02  0.51100000000E-03 0. -1.
        -11    1    3    3    0    0 -0.47548385125E+01  0.21526967219E+01  0.46133514033E+01  0.69660321481E+01  0.51100000000E-03 0.  1.
        -12    1    3    3    0    0 -0.12730909233E+02 -0.72995197125E+01 -0.88320535673E+00  0.14701669620E+02  0.00000000000E+00 0.  1.
</event>
<event>
 7    1  0.5839176E-013  0.5052886E+02  0.7816164E-02  0.1300439E+00
        -11   -1    0    0    0    0  0.00000000000E+00  0.00000000000E+00  0.45593999997E+02  0.45594000000E+02  0.51100000000E-03 0. -1.
         11   -1    0    0    0    0 -0.00000000000E+00 -0.00000000000E+00 -0.45593999997E+02  0.45594000000E+02  0.51100000000E-03 0.  1.
    9900012    2    1    2    0    0 -0.18210845700E+02 -0.23162714165E+02  0.28018200022E+02  0.50528858825E+02  0.29999996886E+02 0.  0.
        -12    1    1    2    0    0  0.18210845700E+02  0.23162714165E+02 -0.28018200022E+02  0.40659141175E+02  0.00000000000E+00 0.  1.
         11    1    3    3    0    0 -0.15431930474E+01 -0.27920082630E+01  0.45562912332E+01  0.55620630152E+01  0.51100000000E-03 0. -1.
        -11    1    3    3    0    0 -0.13926299556E+02  0.29592820077E+01  0.50002814401E+01  0.15089797350E+02  0.51100000000E-03 0.  1.
         12    1    3    3    0    0 -0.27413530975E+01 -0.23329987909E+02  0.18461627348E+02  0.29876998460E+02  0.00000000000E+00 0. -1.
</event>
<event>
 7    1  0.5839176E-013  0.5052886E+02  0.7816164E-02  0.1300439E+00
        -11   -1    0    0    0    0  0.00000000000E+00  0.00000000000E+00  0.45593999997E+02  0.45594000000E+02  0.51100000000E-03 0. -1.
         11   -1    0    0    0    0 -0.00000000000E+00 -0.00000000000E+00 -0.45593999997E+02  0.45594000000E+02  0.51100000000E-03 0.  1.
    9900012    2    1    2    0    0 -0.39133461989E+02 -0.11025732115E+02  0.41360081610E+00  0.50528859803E+02  0.29999999857E+02 0.  0.
        -12    1    1    2    0    0  0.39133461989E+02  0.11025732115E+02 -0.41360081610E+00  0.40659140197E+02  0.00000000000E+00 0.  1.
         11    1    3    3    0    0  0.75747022492E+00  0.43560452426E+01 -0.14742427821E+01  0.46607170413E+01  0.51100000000E-03 0.  1.
        -11    1    3    3    0    0 -0.21969411615E+02 -0.82410691062E+01  0.92468111392E+01  0.25220503231E+02  0.51100000000E-03 0. -1.
        -12    1    3    3    0    0 -0.17921520599E+02 -0.71407082514E+01 -0.73589675410E+01  0.20647639530E+02  0.00000000000E+00 0.  1.
</event>
<event>
 7    1  0.5839176E-013  0.5052888E+02  0.7816164E-02  0.1300439E+00
        -11   -1    0    0    0    0  0.00000000000E+00  0.00000000000E+00  0.45593999997E+02  0.45594000000E+02  0.51100000000E-03 0.  1.
         11   -1    0    0    0    0 -0.00000000000E+00 -0.00000000000E+00 -0.45593999997E+02  0.45594000000E+02  0.51100000000E-03 0. -1.
    9900012    2    1    2    0    0 -0.33551278241E+01 -0.21834744069E+02 -0.34134310466E+02  0.50528879470E+02  0.30000059636E+02 0.  0.
        -12    1    1    2    0    0  0.33551278241E+01  0.21834744069E+02  0.34134310466E+02  0.40659120530E+02  0.00000000000E+00 0.  1.
         11    1    3    3    0    0 -0.13236464818E+01 -0.17370359788E+02 -0.23331121063E+02  0.29117394277E+02  0.51100000000E-03 0. -1.
        -11    1    3    3    0    0 -0.39068541517E+01  0.16205230036E+01 -0.13756883317E+02  0.14392409215E+02  0.51100000000E-03 0.  1.
        -12    1    3    3    0    0  0.18753728094E+01 -0.60849072845E+01  0.29536939135E+01  0.70190759769E+01  0.00000000000E+00 0.  1.
</event>
<event>
 7    1  0.5839176E-013  0.5052887E+02  0.7816164E-02  0.1300439E+00
        -11   -1    0    0    0    0  0.00000000000E+00  0.00000000000E+00  0.45593999997E+02  0.45594000000E+02  0.51100000000E-03 0.  1.
         11   -1    0    0    0    0 -0.00000000000E+00 -0.00000000000E+00 -0.45593999997E+02  0.45594000000E+02  0.51100000000E-03 0. -1.
    9900012    2    1    2    0    0  0.85828934038E+01 -0.10955948031E+02 -0.38202962333E+02  0.50528865879E+02  0.30000018326E+02 0.  0.
        -12    1    1    2    0    0 -0.85828934038E+01  0.10955948031E+02  0.38202962333E+02  0.40659134121E+02  0.00000000000E+00 0.  1.
         11    1    3    3    0    0  0.63571402181E+01  0.16046821711E+01 -0.54388300869E+00  0.65790611496E+01  0.51100000000E-03 0. -1.
        -11    1    3    3    0    0  0.12967281574E+01  0.17377177335E+01  0.12385574490E+01  0.24970365739E+01  0.51100000000E-03 0.  1.
         12    1    3    3    0    0  0.92902502834E+00 -0.14298347936E+02 -0.38897636773E+02  0.41452768156E+02  0.00000000000E+00 0. -1.
</event>
<event>
 7    1  0.5839176E-013  0.5052885E+02  0.7816164E-02  0.1300439E+00
        -11   -1    0    0    0    0  0.00000000000E+00  0.00000000000E+00  0.45593999997E+02  0.45594000000E+02  0.51100000000E-03 0.  1.
         11   -1    0    0    0    0 -0.00000000000E+00 -0.00000000000E+00 -0.45593999997E+02  0.45594000000E+02  0.51100000000E-03 0. -1.
    9900012    2    1    2    0    0  0.33011544311E+02 -0.39703858055E+01 -0.23401715094E+02  0.50528852313E+02  0.29999977091E+02 0.  0.
        -12    1    1    2    0    0 -0.33011544311E+02  0.39703858055E+01  0.23401715094E+02  0.40659147687E+02  0.00000000000E+00 0.  1.
         11    1    3    3    0    0  0.52670052241E+01 -0.86242171804E+00 -0.10599513390E+02  0.11867383857E+02  0.51100000000E-03 0. -1.
        -11    1    3    3    0    0  0.52723111276E+01 -0.70948762666E+01 -0.13139207338E+02  0.15835823427E+02  0.51100000000E-03 0.  1.
        -12    1    3    3    0    0  0.22472227960E+02  0.39869121792E+01  0.33700563421E+00  0.22825645029E+02  0.00000000000E+00 0.  1.
</event>
<event>
 7    1  0.5839176E-013  0.5052886E+02  0.7816164E-02  0.1300439E+00
        -11   -1    0    0    0    0  0.00000000000E+00  0.00000000000E+00  0.45593999997E+02  0.45594000000E+02  0.51100000000E-03 0.  1.
         11   -1    0    0    0    0 -0.00000000000E+00 -0.00000000000E+00 -0.45593999997E+02  0.45594000000E+02  0.51100000000E-03 0. -1.
    9900012    2    1    2    0    0 -0.30407303323E+02  0.49140240187E+01 -0.26540796766E+02  0.50528860555E+02  0.30000002143E+02 0.  0.
        -12    1    1    2    0    0  0.30407303323E+02 -0.49140240187E+01  0.26540796766E+02  0.40659139445E+02  0.00000000000E+00 0.  1.
         11    1    3    3    0    0  0.61911307066E+00  0.44863816648E+01 -0.74109372433E+01  0.86852122900E+01  0.51100000000E-03 0. -1.
        -11    1    3    3    0    0  0.21082358055E+01  0.33421402877E+01 -0.19545606964E+01  0.44084994830E+01  0.51100000000E-03 0.  1.
         12    1    3    3    0    0 -0.33134652199E+02 -0.29144979338E+01 -0.17175298826E+02  0.37435148782E+02  0.00000000000E+00 0. -1.
</event>
<event>
 7    1  0.5839176E-013  0.5052886E+02  0.7816164E-02  0.1300439E+00
        -11   -1    0    0    0    0  0.00000000000E+00  0.00000000000E+00  0.45593999997E+02  0.45594000000E+02  0.51100000000E-03 0. -1.
         11   -1    0    0    0    0 -0.00000000000E+00 -0.00000000000E+00 -0.45593999997E+02  0.45594000000E+02  0.51100000000E-03 0.  1.
    9900012    2    1    2    0    0 -0.78233138149E+01  0.92571934181E+01  0.38810642594E+02  0.50528857762E+02  0.29999993652E+02 0.  0.
        -12    1    1    2    0    0  0.78233138149E+01 -0.92571934181E+01 -0.38810642594E+02  0.40659142238E+02  0.00000000000E+00 0.  1.
         11    1    3    3    0    0  0.62997471676E+01  0.41263451181E+01  0.74290044409E+01  0.10578451950E+02  0.51100000000E-03 0. -1.
        -11    1    3    3    0    0  0.72596218459E+00 -0.13629798120E+01 -0.21852102739E+01  0.26757950713E+01  0.51100000000E-03 0.  1.
         12    1    3    3    0    0 -0.14849023167E+02  0.64938281120E+01  0.33566848427E+02  0.37274610741E+02  0.00000000000E+00 0. -1.
</event>
<event>
 7    1  0.5839176E-013  0.5052886E+02  0.7816164E-02  0.1300439E+00
        -11   -1    0    0    0    0  0.00000000000E+00  0.00000000000E+00  0.45593999997E+02  0.45594000000E+02  0.51100000000E-03 0.  1.
         11   -1    0    0    0    0 -0.00000000000E+00 -0.00000000000E+00 -0.45593999997E+02  0.45594000000E+02  0.51100000000E-03 0. -1.
    9900012    2    1    2    0    0 -0.14166604990E+01 -0.16686914061E+02 -0.37050040397E+02  0.50528861774E+02  0.30000005847E+02 0.  0.
        -12    1    1    2    0    0  0.14166604990E+01  0.16686914061E+02  0.37050040397E+02  0.40659138226E+02  0.00000000000E+00 0.  1.
         11    1    3    3    0    0  0.62810626765E+01 -0.11714013561E+02 -0.29370884758E+02  0.32238466678E+02  0.51100000000E-03 0. -1.
        -11    1    3    3    0    0  0.30244377414E+01 -0.17457114393E+01  0.15106278849E+01  0.38048296872E+01  0.51100000000E-03 0.  1.
         12    1    3    3    0    0 -0.10722160917E+02 -0.32271890606E+01 -0.91897835247E+01  0.14485565408E+02  0.00000000000E+00 0. -1.
</event>
<event>
 7    1  0.5839176E-013  0.5052885E+02  0.7816164E-02  0.1300439E+00
        -11   -1    0    0    0    0  0.00000000000E+00  0.00000000000E+00  0.45593999997E+02  0.45594000000E+02  0.51100000000E-03 0.  1.
         11   -1    0    0    0    0 -0.00000000000E+00 -0.00000000000E+00 -0.45593999997E+02  0.45594000000E+02  0.51100000000E-03 0. -1.
    9900012    2    1    2    0    0 -0.33680766206E+02 -0.29558230853E+01 -0.22583960044E+02  0.50528853999E+02  0.29999982214E+02 0.  0.
        -12    1    1    2    0    0  0.33680766206E+02  0.29558230853E+01  0.22583960044E+02  0.40659146001E+02  0.00000000000E+00 0.  1.
         11    1    3    3    0    0 -0.99698454880E+01 -0.74422486764E+00 -0.12069316948E+02  0.15672271742E+02  0.51100000000E-03 0. -1.
        -11    1    3    3    0    0 -0.10774249780E+02 -0.12606184981E+01 -0.17145120317E+02  0.20288636432E+02  0.51100000000E-03 0.  1.
        -12    1    3    3    0    0 -0.12936670938E+02 -0.95097971950E+00  0.66304772210E+01  0.14567945825E+02  0.00000000000E+00 0.  1.
</event>
<event>
 7    1  0.5839176E-013  0.5052886E+02  0.7816164E-02  0.1300439E+00
        -11   -1    0    0    0    0  0.00000000000E+00  0.00000000000E+00  0.45593999997E+02  0.45594000000E+02  0.51100000000E-03 0.  1.
         11   -1    0    0    0    0 -0.00000000000E+00 -0.00000000000E+00 -0.45593999997E+02  0.45594000000E+02  0.51100000000E-03 0. -1.
    9900012    2    1    2    0    0 -0.11699090057E+02 -0.16460870739E+02 -0.35289323285E+02  0.50528864353E+02  0.30000013689E+02 0.  0.
        -12    1    1    2    0    0  0.11699090057E+02  0.16460870739E+02  0.35289323285E+02  0.40659135647E+02  0.00000000000E+00 0.  1.
         11    1    3    3    0    0 -0.88375579280E+01 -0.19443987388E+02 -0.22566319091E+02  0.31071044934E+02  0.51100000000E-03 0. -1.
        -11    1    3    3    0    0  0.26669169429E+01 -0.23250773953E+01 -0.11064154108E+02  0.11616106803E+02  0.51100000000E-03 0.  1.
        -12    1    3    3    0    0 -0.55284490715E+01  0.53081940446E+01 -0.16588500852E+01  0.78417126163E+01  0.00000000000E+00 0.  1.
</event>
<event>
 7    1  0.5839176E-013  0.5052886E+02  0.7816164E-02  0.1300439E+00
        -11   -1    0    0    0    0  0.00000000000E+00  0.00000000000E+00  0.45593999997E+02  0.45594000000E+02  0.51100000000E-03 0.  1.
         11   -1    0    0    0    0 -0.00000000000E+00 -0.00000000000E+00 -0.45593999997E+02  0.45594000000E+02  0.51100000000E-03 0. -1.
    9900012    2    1    2    0    0  0.30820872212E+02  0.23696071693E+02 -0.11905269657E+02  0.50528862980E+02  0.30000009513E+02 0.  0.
        -12    1    1    2    0    0 -0.30820872212E+02 -0.23696071693E+02  0.11905269657E+02  0.40659137020E+02  0.00000000000E+00 0.  1.
         11    1    3    3    0    0  0.18897360778E+02  0.11842596742E+02 -0.14479811437E+02  0.26589890588E+02  0.51100000000E-03 0. -1.
        -11    1    3    3    0    0  0.10891335308E+01  0.24770685414E+01 -0.64574699849E+01  0.70014997875E+01  0.51100000000E-03 0.  1.
        -12    1    3    3    0    0  0.10834377904E+02  0.93764064097E+01  0.90320117643E+01  0.16937472605E+02  0.00000000000E+00 0.  1.
</event>
<event>
 7    1  0.5839176E-013  0.5052886E+02  0.7816164E-02  0.1300439E+00
        -11   -1    0    0    0    0  0.00000000000E+00  0.00000000000E+00  0.45593999997E+02  0.45594000000E+02  0.51100000000E-03 0.  1.
         11   -1    0    0    0    0 -0.00000000000E+00 -0.00000000000E+00 -0.45593999997E+02  0.45594000000E+02  0.51100000000E-03 0. -1.
    9900012    2    1    2    0    0  0.36659990874E+02  0.13884190143E+02 -0.10790736663E+02  0.50528860012E+02  0.30000000493E+02 0.  0.
        -12    1    1    2    0    0 -0.36659990874E+02 -0.13884190143E+02  0.10790736663E+02  0.40659139988E+02  0.00000000000E+00 0.  1.
         11    1    3    3    0    0  0.10629465512E+02  0.14634059839E+02 -0.56042533129E+00  0.18095726602E+02  0.51100000000E-03 0. -1.
        -11    1    3    3    0    0  0.23264387473E+02  0.83333443925E+00 -0.17167239629E+01  0.23342521547E+02  0.51100000000E-03 0.  1.
         12    1    3    3    0    0  0.27661378893E+01 -0.15832041352E+01 -0.85135873689E+01  0.90906118631E+01  0.00000000000E+00 0. -1.
</event>
<event>
 7    1  0.5839176E-013  0.5052886E+02  0.7816164E-02  0.1300439E+00
        -11   -1    0    0    0    0  0.00000000000E+00  0.00000000000E+00  0.45593999997E+02  0.45594000000E+02  0.51100000000E-03 0. -1.
         11   -1    0    0    0    0 -0.00000000000E+00 -0.00000000000E+00 -0.45593999997E+02  0.45594000000E+02  0.51100000000E-03 0.  1.
    9900012    2    1    2    0    0 -0.37027562550E+02 -0.16793260071E+02 -0.33414093933E+00  0.50528860530E+02  0.30000002068E+02 0.  0.
        -12    1    1    2    0    0  0.37027562550E+02  0.16793260071E+02  0.33414093933E+00  0.40659139470E+02  0.00000000000E+00 0.  1.
         11    1    3    3    0    0 -0.21336932448E+02 -0.20870129082E+02 -0.85917776549E-03  0.29846724698E+02  0.51100000000E-03 0. -1.
        -11    1    3    3    0    0 -0.72271744563E+01 -0.36120696095E+01 -0.35181478559E+01  0.88122903993E+01  0.51100000000E-03 0.  1.
        -12    1    3    3    0    0 -0.84634556462E+01  0.76889386198E+01  0.31848660943E+01  0.11869845433E+02  0.00000000000E+00 0.  1.
</event>
<event>
 7    1  0.5839176E-013  0.5052885E+02  0.7816164E-02  0.1300439E+00
        -11   -1    0    0    0    0  0.00000000000E+00  0.00000000000E+00  0.45593999997E+02  0.45594000000E+02  0.51100000000E-03 0. -1.
         11   -1    0    0    0    0 -0.00000000000E+00 -0.00000000000E+00 -0.45593999997E+02  0.45594000000E+02  0.51100000000E-03 0.  1.
    9900012    2    1    2    0    0 -0.31575035681E+02  0.23480081254E+02  0.10240567799E+02  0.50528851917E+02  0.29999975888E+02 0.  0.
        -12    1    1    2    0    0  0.31575035681E+02 -0.23480081254E+02 -0.10240567799E+02  0.40659148083E+02  0.00000000000E+00 0.  1.
         11    1    3    3    0    0 -0.60649909370E+01  0.11829439066E+02  0.10381841292E+02  0.16867198124E+02  0.51100000000E-03 0. -1.
        -11    1    3    3    0    0 -0.81942535094E+01  0.12230486877E+02 -0.51993115680E+01  0.15612925442E+02  0.51100000000E-03 0.  1.
         12    1    3    3    0    0 -0.17315791235E+02 -0.57984468831E+00  0.50580380758E+01  0.18048728352E+02  0.00000000000E+00 0. -1.
</event>
<event>
 7    1  0.5839176E-013  0.5052886E+02  0.7816164E-02  0.1300439E+00
        -11   -1    0    0    0    0  0.00000000000E+00  0.00000000000E+00  0.45593999997E+02  0.45594000000E+02  0.51100000000E-03 0. -1.
         11   -1    0    0    0    0 -0.00000000000E+00 -0.00000000000E+00 -0.45593999997E+02  0.45594000000E+02  0.51100000000E-03 0.  1.
    9900012    2    1    2    0    0  0.37205646236E+02 -0.16391974552E+02  0.45671959941E+00  0.50528861613E+02  0.30000005360E+02 0.  0.
        -12    1    1    2    0    0 -0.37205646236E+02  0.16391974552E+02 -0.45671959941E+00  0.40659138387E+02  0.00000000000E+00 0.  1.
         11    1    3    3    0    0  0.11217066480E+02 -0.32387244753E+01 -0.74764988000E+01  0.13863980352E+02  0.51100000000E-03 0. -1.
        -11    1    3    3    0    0  0.22421603303E+02 -0.81943029771E+01 -0.30810875772E+01  0.24070064331E+02  0.51100000000E-03 0.  1.
        -12    1    3    3    0    0  0.35669764527E+01 -0.49589471001E+01  0.11014305977E+02  0.12594816930E+02  0.00000000000E+00 0.  1.
</event>
<event>
 7    1  0.5839176E-013  0.5052884E+02  0.7816164E-02  0.1300439E+00
        -11   -1    0    0    0    0  0.00000000000E+00  0.00000000000E+00  0.45593999997E+02  0.45594000000E+02  0.51100000000E-03 0. -1.
         11   -1    0    0    0    0 -0.00000000000E+00 -0.00000000000E+00 -0.45593999997E+02  0.45594000000E+02  0.51100000000E-03 0.  1.
    9900012    2    1    2    0    0 -0.29407459603E+02  0.27977056990E+02 -0.23776183871E+01  0.50528837843E+02  0.29999933109E+02 0.  0.
        -12    1    1    2    0    0  0.29407459603E+02 -0.27977056990E+02  0.23776183871E+01  0.40659162157E+02  0.00000000000E+00 0.  1.
         11    1    3    3    0    0 -0.10200692203E+02  0.65452883127E+01 -0.52677026721E+01  0.13215279498E+02  0.51100000000E-03 0. -1.
        -11    1    3    3    0    0 -0.40435667346E+01 -0.28682040979E+01 -0.55610483825E+01  0.74499856415E+01  0.51100000000E-03 0.  1.
         12    1    3    3    0    0 -0.15163200666E+02  0.24299972775E+02  0.84511326675E+01  0.29863572704E+02  0.00000000000E+00 0. -1.
</event>
<event>
 7    1  0.5839176E-013  0.5052885E+02  0.7816164E-02  0.1300439E+00
        -11   -1    0    0    0    0  0.00000000000E+00  0.00000000000E+00  0.45593999997E+02  0.45594000000E+02  0.51100000000E-03 0. -1.
         11   -1    0    0    0    0 -0.00000000000E+00 -0.00000000000E+00 -0.45593999997E+02  0.45594000000E+02  0.51100000000E-03 0.  1.
    9900012    2    1    2    0    0 -0.20847582304E+02 -0.32370023592E+02  0.13066216269E+02  0.50528854376E+02  0.29999983362E+02 0.  0.
        -12    1    1    2    0    0  0.20847582304E+02  0.32370023592E+02 -0.13066216269E+02  0.40659145624E+02  0.00000000000E+00 0.  1.
         11    1    3    3    0    0 -0.17029642153E+01 -0.25422979981E+01 -0.33668695573E+01  0.45496348323E+01  0.51100000000E-03 0. -1.
        -11    1    3    3    0    0 -0.53879191983E+01  0.37543321961E+01  0.14978952873E+01  0.67356049527E+01  0.51100000000E-03 0.  1.
         12    1    3    3    0    0 -0.13756698891E+02 -0.33582057790E+02  0.14935190539E+02  0.39243614591E+02  0.00000000000E+00 0. -1.
</event>
<event>
 7    1  0.5839176E-013  0.5052883E+02  0.7816164E-02  0.1300439E+00
        -11   -1    0    0    0    0  0.00000000000E+00  0.00000000000E+00  0.45593999997E+02  0.45594000000E+02  0.51100000000E-03 0. -1.
         11   -1    0    0    0    0 -0.00000000000E+00 -0.00000000000E+00 -0.45593999997E+02  0.45594000000E+02  0.51100000000E-03 0.  1.
    9900012    2    1    2    0    0 -0.32043315765E+02 -0.22475587584E+02 -0.11010977436E+02  0.50528834409E+02  0.29999922670E+02 0.  0.
        -12    1    1    2    0    0  0.32043315765E+02  0.22475587584E+02  0.11010977436E+02  0.40659165591E+02  0.00000000000E+00 0.  1.
         11    1    3    3    0    0  0.37924667594E+00 -0.10579867765E+02 -0.30994605103E+01  0.11031050978E+02  0.51100000000E-03 0. -1.
        -11    1    3    3    0    0  0.72426860384E+00  0.99741894883E+00 -0.34369972044E+01  0.36513503823E+01  0.51100000000E-03 0.  1.
         12    1    3    3    0    0 -0.33146831045E+02 -0.12893138767E+02 -0.44745197211E+01  0.35846433049E+02  0.00000000000E+00 0. -1.
</event>
<event>
 7    1  0.5839176E-013  0.5052886E+02  0.7816164E-02  0.1300439E+00
        -11   -1    0    0    0    0  0.00000000000E+00  0.00000000000E+00  0.45593999997E+02  0.45594000000E+02  0.51100000000E-03 0.  1.
         11   -1    0    0    0    0 -0.00000000000E+00 -0.00000000000E+00 -0.45593999997E+02  0.45594000000E+02  0.51100000000E-03 0. -1.
    9900012    2    1    2    0    0 -0.27494733943E+02  0.29738471795E+02  0.35816768660E+01  0.50528861931E+02  0.30000006327E+02 0.  0.
        -12    1    1    2    0    0  0.27494733943E+02 -0.29738471795E+02 -0.35816768660E+01  0.40659138069E+02  0.00000000000E+00 0.  1.
         11    1    3    3    0    0 -0.15187228693E+02  0.68016482356E+01 -0.30756816495E+01  0.16922592944E+02  0.51100000000E-03 0. -1.
        -11    1    3    3    0    0  0.16921360083E+01 -0.29781704430E+01  0.80449177646E-01  0.34262655749E+01  0.51100000000E-03 0.  1.
         12    1    3    3    0    0 -0.13999641259E+02  0.25914994003E+02  0.65769093378E+01  0.30180003412E+02  0.00000000000E+00 0. -1.
</event>
<event>
 7    1  0.5839176E-013  0.5052886E+02  0.7816164E-02  0.1300439E+00
        -11   -1    0    0    0    0  0.00000000000E+00  0.00000000000E+00  0.45593999997E+02  0.45594000000E+02  0.51100000000E-03 0. -1.
         11   -1    0    0    0    0 -0.00000000000E+00 -0.00000000000E+00 -0.45593999997E+02  0.45594000000E+02  0.51100000000E-03 0.  1.
    9900012    2    1    2    0    0  0.16891430781E+02 -0.31424024361E+02  0.19503220179E+02  0.50528864025E+02  0.30000012692E+02 0.  0.
        -12    1    1    2    0    0 -0.16891430781E+02  0.31424024361E+02 -0.19503220179E+02  0.40659135975E+02  0.00000000000E+00 0.  1.
         11    1    3    3    0    0  0.35201494293E+01 -0.13340828970E+02  0.17170910053E+02  0.22027467442E+02  0.51100000000E-03 0. -1.
        -11    1    3    3    0    0  0.11826481311E+01  0.27894578474E-01  0.62164160632E+01  0.63279746872E+01  0.51100000000E-03 0.  1.
        -12    1    3    3    0    0  0.12188633221E+02 -0.18111089969E+02 -0.38841059371E+01  0.22173421896E+02  0.00000000000E+00 0.  1.
</event>
<event>
 7    1  0.5839176E-013  0.5052886E+02  0.7816164E-02  0.1300439E+00
        -11   -1    0    0    0    0  0.00000000000E+00  0.00000000000E+00  0.45593999997E+02  0.45594000000E+02  0.51100000000E-03 0.  1.
         11   -1    0    0    0    0 -0.00000000000E+00 -0.00000000000E+00 -0.45593999997E+02  0.45594000000E+02  0.51100000000E-03 0. -1.
    9900012    2    1    2    0    0  0.98709232466E+01 -0.44595621985E+01 -0.39189831716E+02  0.50528859199E+02  0.29999998021E+02 0.  0.
        -12    1    1    2    0    0 -0.98709232466E+01  0.44595621985E+01  0.39189831716E+02  0.40659140801E+02  0.00000000000E+00 0.  1.
         11    1    3    3    0    0 -0.48272643873E+01 -0.97556235256E+01 -0.24619655377E+02  0.26918434259E+02  0.51100000000E-03 0. -1.
        -11    1    3    3    0    0  0.78927559471E+01  0.50733330749E+01 -0.13897410958E+02  0.16768194194E+02  0.51100000000E-03 0.  1.
        -12    1    3    3    0    0  0.68054316868E+01  0.22272825218E+00 -0.67276538092E+00  0.68422307455E+01  0.00000000000E+00 0.  1.
</event>
<event>
 7    1  0.5839176E-013  0.5052887E+02  0.7816164E-02  0.1300439E+00
        -11   -1    0    0    0    0  0.00000000000E+00  0.00000000000E+00  0.45593999997E+02  0.45594000000E+02  0.51100000000E-03 0.  1.
         11   -1    0    0    0    0 -0.00000000000E+00 -0.00000000000E+00 -0.45593999997E+02  0.45594000000E+02  0.51100000000E-03 0. -1.
    9900012    2    1    2    0    0 -0.12870873438E+02 -0.36110029656E+02  0.13548860267E+02  0.50528865241E+02  0.30000016386E+02 0.  0.
        -12    1    1    2    0    0  0.12870873438E+02  0.36110029656E+02 -0.13548860267E+02  0.40659134759E+02  0.00000000000E+00 0.  1.
         11    1    3    3    0    0  0.13151974813E+01 -0.11106738918E+02 -0.58857761747E+01  0.12638502887E+02  0.51100000000E-03 0. -1.
        -11    1    3    3    0    0 -0.14506067106E+02 -0.11585412556E+02  0.78332947472E+01  0.20149646990E+02  0.51100000000E-03 0.  1.
         12    1    3    3    0    0  0.31999618634E+00 -0.13417878182E+02  0.11601341695E+02  0.17740715363E+02  0.00000000000E+00 0. -1.
</event>
<event>
 7    1  0.5839176E-013  0.5052886E+02  0.7816164E-02  0.1300439E+00
        -11   -1    0    0    0    0  0.00000000000E+00  0.00000000000E+00  0.45593999997E+02  0.45594000000E+02  0.51100000000E-03 0.  1.
         11   -1    0    0    0    0 -0.00000000000E+00 -0.00000000000E+00 -0.45593999997E+02  0.45594000000E+02  0.51100000000E-03 0. -1.
    9900012    2    1    2    0    0  0.94523346677E+01  0.19556702629E+02 -0.34370836625E+02  0.50528860084E+02  0.30000000713E+02 0.  0.
        -12    1    1    2    0    0 -0.94523346677E+01 -0.19556702629E+02  0.34370836625E+02  0.40659139916E+02  0.00000000000E+00 0.  1.
         11    1    3    3    0    0  0.57460417998E+01  0.90605008294E+01 -0.21190453743E+01  0.10936179644E+02  0.51100000000E-03 0.  1.
        -11    1    3    3    0    0  0.71415024229E+01  0.14955279244E+02 -0.28005426943E+02  0.32541748149E+02  0.51100000000E-03 0. -1.
         12    1    3    3    0    0 -0.34352095549E+01 -0.44590774443E+01 -0.42463643078E+01  0.70509322912E+01  0.00000000000E+00 0. -1.
</event>
<event>
 7    1  0.5839176E-013  0.5052886E+02  0.7816164E-02  0.1300439E+00
        -11   -1    0    0    0    0  0.00000000000E+00  0.00000000000E+00  0.45593999997E+02  0.45594000000E+02  0.51100000000E-03 0. -1.
         11   -1    0    0    0    0 -0.00000000000E+00 -0.00000000000E+00 -0.45593999997E+02  0.45594000000E+02  0.51100000000E-03 0.  1.
    9900012    2    1    2    0    0 -0.34401692320E+02  0.37132196144E+01  0.21351840833E+02  0.50528861527E+02  0.30000005099E+02 0.  0.
        -12    1    1    2    0    0  0.34401692320E+02 -0.37132196144E+01 -0.21351840833E+02  0.40659138473E+02  0.00000000000E+00 0.  1.
         11    1    3    3    0    0 -0.22912779613E+02  0.92719671129E+01  0.21045481874E+02  0.32463474110E+02  0.51100000000E-03 0. -1.
        -11    1    3    3    0    0 -0.54415722966E+01  0.39126823896E+01  0.11344456707E+01  0.67975554269E+01  0.51100000000E-03 0.  1.
        -12    1    3    3    0    0 -0.60473404106E+01 -0.94714298881E+01 -0.82808671179E+00  0.11267831991E+02  0.00000000000E+00 0.  1.
</event>
<event>
 7    1  0.5839176E-013  0.5052891E+02  0.7816164E-02  0.1300439E+00
        -11   -1    0    0    0    0  0.00000000000E+00  0.00000000000E+00  0.45593999997E+02  0.45594000000E+02  0.51100000000E-03 0. -1.
         11   -1    0    0    0    0 -0.00000000000E+00 -0.00000000000E+00 -0.45593999997E+02  0.45594000000E+02  0.51100000000E-03 0.  1.
    9900012    2    1    2    0    0 -0.18152886527E+02  0.32936147338E+02  0.15454585783E+02  0.50528913531E+02  0.30000163170E+02 0.  0.
        -12    1    1    2    0    0  0.18152886527E+02 -0.32936147338E+02 -0.15454585783E+02  0.40659086469E+02  0.00000000000E+00 0.  1.
         11    1    3    3    0    0 -0.13664942967E+02  0.26624525932E+02  0.17070079879E+02  0.34452629432E+02  0.51100000000E-03 0. -1.
        -11    1    3    3    0    0 -0.39110367765E+01  0.95998477664E+01 -0.48352051619E+01  0.11438203313E+02  0.51100000000E-03 0.  1.
        -12    1    3    3    0    0 -0.57690678345E+00 -0.32882263609E+01  0.32197110660E+01  0.46380807869E+01  0.00000000000E+00 0.  1.
</event>
<event>
 7    1  0.5839176E-013  0.5052886E+02  0.7816164E-02  0.1300439E+00
        -11   -1    0    0    0    0  0.00000000000E+00  0.00000000000E+00  0.45593999997E+02  0.45594000000E+02  0.51100000000E-03 0.  1.
         11   -1    0    0    0    0 -0.00000000000E+00 -0.00000000000E+00 -0.45593999997E+02  0.45594000000E+02  0.51100000000E-03 0. -1.
    9900012    2    1    2    0    0 -0.15778448398E+02  0.34171507635E+02 -0.15379016023E+02  0.50528862015E+02  0.30000006580E+02 0.  0.
        -12    1    1    2    0    0  0.15778448398E+02 -0.34171507635E+02  0.15379016023E+02  0.40659137985E+02  0.00000000000E+00 0.  1.
         11    1    3    3    0    0 -0.12046243246E+02  0.12870744935E+02 -0.13688600176E+00  0.17629146025E+02  0.51100000000E-03 0. -1.
        -11    1    3    3    0    0 -0.16807686048E+01  0.10491470149E+02  0.34829752003E+01  0.11181549333E+02  0.51100000000E-03 0.  1.
        -12    1    3    3    0    0 -0.20514365470E+01  0.10809292551E+02 -0.18725105222E+02  0.21718166657E+02  0.00000000000E+00 0.  1.
</event>
<event>
 7    1  0.5839176E-013  0.5052886E+02  0.7816164E-02  0.1300439E+00
        -11   -1    0    0    0    0  0.00000000000E+00  0.00000000000E+00  0.45593999997E+02  0.45594000000E+02  0.51100000000E-03 0.  1.
         11   -1    0    0    0    0 -0.00000000000E+00 -0.00000000000E+00 -0.45593999997E+02  0.45594000000E+02  0.51100000000E-03 0. -1.
    9900012    2    1    2    0    0 -0.31336298374E+02  0.12625520211E+02 -0.22622954035E+02  0.50528863196E+02  0.30000010170E+02 0.  0.
        -12    1    1    2    0    0  0.31336298374E+02 -0.12625520211E+02  0.22622954035E+02  0.40659136804E+02  0.00000000000E+00 0.  1.
         11    1    3    3    0    0 -0.11008627473E+02  0.11330598338E+01 -0.70906655866E+01  0.13143486681E+02  0.51100000000E-03 0. -1.
        -11    1    3    3    0    0 -0.24048629522E+02  0.11535079992E+02 -0.18637751562E+02  0.32538599169E+02  0.51100000000E-03 0.  1.
        -12    1    3    3    0    0  0.37209586211E+01 -0.42619614375E-01  0.31054631135E+01  0.48467773458E+01  0.00000000000E+00 0.  1.
</event>
<event>
 7    1  0.5839176E-013  0.5052886E+02  0.7816164E-02  0.1300439E+00
        -11   -1    0    0    0    0  0.00000000000E+00  0.00000000000E+00  0.45593999997E+02  0.45594000000E+02  0.51100000000E-03 0.  1.
         11   -1    0    0    0    0 -0.00000000000E+00 -0.00000000000E+00 -0.45593999997E+02  0.45594000000E+02  0.51100000000E-03 0. -1.
    9900012    2    1    2    0    0  0.33724848967E+02 -0.11493171190E+02 -0.19588455039E+02  0.50528855977E+02  0.29999988229E+02 0.  0.
        -12    1    1    2    0    0 -0.33724848967E+02  0.11493171190E+02  0.19588455039E+02  0.40659144023E+02  0.00000000000E+00 0.  1.
         11    1    3    3    0    0  0.17447163087E+02 -0.12069628223E+01 -0.10349688292E+02  0.20321818498E+02  0.51100000000E-03 0. -1.
        -11    1    3    3    0    0  0.60962625524E+01 -0.75918337651E+01 -0.15240436853E+02  0.18085111909E+02  0.51100000000E-03 0.  1.
        -12    1    3    3    0    0  0.10181423328E+02 -0.26943746024E+01  0.60016701067E+01  0.12121925571E+02  0.00000000000E+00 0.  1.
</event>
<event>
 7    1  0.5839176E-013  0.5052893E+02  0.7816164E-02  0.1300439E+00
        -11   -1    0    0    0    0  0.00000000000E+00  0.00000000000E+00  0.45593999997E+02  0.45594000000E+02  0.51100000000E-03 0. -1.
         11   -1    0    0    0    0 -0.00000000000E+00 -0.00000000000E+00 -0.45593999997E+02  0.45594000000E+02  0.51100000000E-03 0.  1.
    9900012    2    1    2    0    0  0.34058831160E+02  0.66458381087E+01  0.21189353511E+02  0.50528931560E+02  0.30000217970E+02 0.  0.
        -12    1    1    2    0    0 -0.34058831160E+02 -0.66458381087E+01 -0.21189353511E+02  0.40659068440E+02  0.00000000000E+00 0.  1.
         11    1    3    3    0    0  0.14678551083E+02  0.95300628277E+01  0.23259574038E+02  0.29108241858E+02  0.51100000000E-03 0.  1.
        -11    1    3    3    0    0  0.67061412366E+01  0.16093283343E+01 -0.37812512958E+01  0.78651210795E+01  0.51100000000E-03 0. -1.
        -12    1    3    3    0    0  0.12674138840E+02 -0.44935530533E+01  0.17110307696E+01  0.13555568623E+02  0.00000000000E+00 0.  1.
</event>
<event>
 7    1  0.5839176E-013  0.5052886E+02  0.7816164E-02  0.1300439E+00
        -11   -1    0    0    0    0  0.00000000000E+00  0.00000000000E+00  0.45593999997E+02  0.45594000000E+02  0.51100000000E-03 0. -1.
         11   -1    0    0    0    0 -0.00000000000E+00 -0.00000000000E+00 -0.45593999997E+02  0.45594000000E+02  0.51100000000E-03 0.  1.
    9900012    2    1    2    0    0 -0.31646865985E+02  0.24788244049E+02  0.60978880174E+01  0.50528863167E+02  0.30000010083E+02 0.  0.
        -12    1    1    2    0    0  0.31646865985E+02 -0.24788244049E+02 -0.60978880174E+01  0.40659136833E+02  0.00000000000E+00 0.  1.
         11    1    3    3    0    0 -0.24368767726E+02  0.62646955223E+01  0.55300776647E+00  0.25167222102E+02  0.51100000000E-03 0. -1.
        -11    1    3    3    0    0 -0.54393168468E+01  0.21189781342E+01 -0.32252621865E+01  0.66692242822E+01  0.51100000000E-03 0.  1.
        -12    1    3    3    0    0 -0.18387814126E+01  0.16404570392E+02  0.87701424374E+01  0.18692416784E+02  0.00000000000E+00 0.  1.
</event>
<event>
 7    1  0.5839176E-013  0.5052886E+02  0.7816164E-02  0.1300439E+00
        -11   -1    0    0    0    0  0.00000000000E+00  0.00000000000E+00  0.45593999997E+02  0.45594000000E+02  0.51100000000E-03 0.  1.
         11   -1    0    0    0    0 -0.00000000000E+00 -0.00000000000E+00 -0.45593999997E+02  0.45594000000E+02  0.51100000000E-03 0. -1.
    9900012    2    1    2    0    0 -0.29307772558E+02  0.10724574885E+02 -0.26061530521E+02  0.50528863120E+02  0.30000009939E+02 0.  0.
        -12    1    1    2    0    0  0.29307772558E+02 -0.10724574885E+02  0.26061530521E+02  0.40659136880E+02  0.00000000000E+00 0.  1.
         11    1    3    3    0    0 -0.37781928815E+01  0.18321248694E+00 -0.46513989868E+01  0.59953165939E+01  0.51100000000E-03 0. -1.
        -11    1    3    3    0    0 -0.67351655053E+01 -0.81733141093E+01 -0.23313364826E+00  0.10593388007E+02  0.51100000000E-03 0.  1.
        -12    1    3    3    0    0 -0.18794414171E+02  0.18714676508E+02 -0.21176997886E+02  0.33940158519E+02  0.00000000000E+00 0.  1.
</event>
<event>
 7    1  0.5839176E-013  0.5052885E+02  0.7816164E-02  0.1300439E+00
        -11   -1    0    0    0    0  0.00000000000E+00  0.00000000000E+00  0.45593999997E+02  0.45594000000E+02  0.51100000000E-03 0. -1.
         11   -1    0    0    0    0 -0.00000000000E+00 -0.00000000000E+00 -0.45593999997E+02  0.45594000000E+02  0.51100000000E-03 0.  1.
    9900012    2    1    2    0    0  0.21674459403E+02  0.17862855786E+02  0.29399022639E+02  0.50528851713E+02  0.29999975268E+02 0.  0.
        -12    1    1    2    0    0 -0.21674459403E+02 -0.17862855786E+02 -0.29399022639E+02  0.40659148287E+02  0.00000000000E+00 0.  1.
         11    1    3    3    0    0  0.80731570578E+01  0.62182302228E+00  0.10291168992E+02  0.13094681678E+02  0.51100000000E-03 0. -1.
        -11    1    3    3    0    0  0.25212134967E+01 -0.59149098673E+01  0.49807445020E+01  0.81332952909E+01  0.51100000000E-03 0.  1.
         12    1    3    3    0    0  0.11080088849E+02  0.23155942631E+02  0.14127109145E+02  0.29300874745E+02  0.00000000000E+00 0. -1.
</event>
<event>
 7    1  0.5839176E-013  0.5052886E+02  0.7816164E-02  0.1300439E+00
        -11   -1    0    0    0    0  0.00000000000E+00  0.00000000000E+00  0.45593999997E+02  0.45594000000E+02  0.51100000000E-03 0.  1.
         11   -1    0    0    0    0 -0.00000000000E+00 -0.00000000000E+00 -0.45593999997E+02  0.45594000000E+02  0.51100000000E-03 0. -1.
    9900012    2    1    2    0    0  0.17085134994E+02 -0.16571015912E+02 -0.32964611777E+02  0.50528855448E+02  0.29999986619E+02 0.  0.
        -12    1    1    2    0    0 -0.17085134994E+02  0.16571015912E+02  0.32964611777E+02  0.40659144552E+02  0.00000000000E+00 0.  1.
         11    1    3    3    0    0  0.15088663102E+01 -0.60988337980E+00 -0.34673547738E+01  0.38302982478E+01  0.51100000000E-03 0. -1.
        -11    1    3    3    0    0  0.97548964564E+01 -0.20811849031E+02 -0.87207493065E+01  0.24583379217E+02  0.51100000000E-03 0.  1.
        -12    1    3    3    0    0  0.58213722272E+01  0.48507164992E+01 -0.20776507697E+02  0.22115177983E+02  0.00000000000E+00 0.  1.
</event>
<event>
 7    1  0.5839176E-013  0.5052886E+02  0.7816164E-02  0.1300439E+00
        -11   -1    0    0    0    0  0.00000000000E+00  0.00000000000E+00  0.45593999997E+02  0.45594000000E+02  0.51100000000E-03 0.  1.
         11   -1    0    0    0    0 -0.00000000000E+00 -0.00000000000E+00 -0.45593999997E+02  0.45594000000E+02  0.51100000000E-03 0. -1.
    9900012    2    1    2    0    0  0.33293585510E+01 -0.34193421534E+02 -0.21746047580E+02  0.50528864620E+02  0.30000014498E+02 0.  0.
        -12    1    1    2    0    0 -0.33293585510E+01  0.34193421534E+02  0.21746047580E+02  0.40659135380E+02  0.00000000000E+00 0.  1.
         11    1    3    3    0    0  0.15105101053E+01 -0.10058447173E+02  0.32777263481E+01  0.10686322594E+02  0.51100000000E-03 0. -1.
        -11    1    3    3    0    0 -0.26992591229E+01  0.87295575918E+00  0.14154762894E+01  0.31704297748E+01  0.51100000000E-03 0.  1.
         12    1    3    3    0    0  0.45181075686E+01 -0.25007930120E+02 -0.26439250217E+02  0.36672112251E+02  0.00000000000E+00 0. -1.
</event>
<event>
 7    1  0.5839176E-013  0.5052886E+02  0.7816164E-02  0.1300439E+00
        -11   -1    0    0    0    0  0.00000000000E+00  0.00000000000E+00  0.45593999997E+02  0.45594000000E+02  0.51100000000E-03 0. -1.
         11   -1    0    0    0    0 -0.00000000000E+00 -0.00000000000E+00 -0.45593999997E+02  0.45594000000E+02  0.51100000000E-03 0.  1.
    9900012    2    1    2    0    0  0.13445720736E+01 -0.34254089567E+02  0.21863553673E+02  0.50528861970E+02  0.30000006444E+02 0.  0.
        -12    1    1    2    0    0 -0.13445720736E+01  0.34254089567E+02 -0.21863553673E+02  0.40659138030E+02  0.00000000000E+00 0.  1.
         11    1    3    3    0    0  0.44378126149E+01  0.24865805299E+01  0.10082807411E+01  0.51859323030E+01  0.51100000000E-03 0. -1.
        -11    1    3    3    0    0  0.53038851484E+01 -0.92840124837E+01  0.16972151796E+01  0.10826108493E+02  0.51100000000E-03 0.  1.
         12    1    3    3    0    0 -0.83971256898E+01 -0.27456657613E+02  0.19158057752E+02  0.34516821174E+02  0.00000000000E+00 0. -1.
</event>
<event>
 7    1  0.5839176E-013  0.5052886E+02  0.7816164E-02  0.1300439E+00
        -11   -1    0    0    0    0  0.00000000000E+00  0.00000000000E+00  0.45593999997E+02  0.45594000000E+02  0.51100000000E-03 0.  1.
         11   -1    0    0    0    0 -0.00000000000E+00 -0.00000000000E+00 -0.45593999997E+02  0.45594000000E+02  0.51100000000E-03 0. -1.
    9900012    2    1    2    0    0  0.30687800613E+02 -0.23800618736E+02  0.12039722145E+02  0.50528862430E+02  0.30000007842E+02 0.  0.
        -12    1    1    2    0    0 -0.30687800613E+02  0.23800618736E+02 -0.12039722145E+02  0.40659137570E+02  0.00000000000E+00 0.  1.
         11    1    3    3    0    0  0.13879654684E+02 -0.13848150997E+02  0.16343082627E+01  0.19674528303E+02  0.51100000000E-03 0. -1.
        -11    1    3    3    0    0  0.14568571406E+01 -0.24843495342E+01 -0.63260914199E+01  0.69508170923E+01  0.51100000000E-03 0.  1.
         12    1    3    3    0    0  0.15351288788E+02 -0.74681182043E+01  0.16731505302E+02  0.23903517035E+02  0.00000000000E+00 0. -1.
</event>
<event>
 7    1  0.5839176E-013  0.5052886E+02  0.7816164E-02  0.1300439E+00
        -11   -1    0    0    0    0  0.00000000000E+00  0.00000000000E+00  0.45593999997E+02  0.45594000000E+02  0.51100000000E-03 0.  1.
         11   -1    0    0    0    0 -0.00000000000E+00 -0.00000000000E+00 -0.45593999997E+02  0.45594000000E+02  0.51100000000E-03 0. -1.
    9900012    2    1    2    0    0  0.23379578167E+02  0.12554298084E+02 -0.30805046629E+02  0.50528856213E+02  0.29999988945E+02 0.  0.
        -12    1    1    2    0    0 -0.23379578167E+02 -0.12554298084E+02  0.30805046629E+02  0.40659143787E+02  0.00000000000E+00 0.  1.
         11    1    3    3    0    0  0.37519396506E+01  0.11817747430E+02 -0.55962963065E+01  0.13603482572E+02  0.51100000000E-03 0. -1.
        -11    1    3    3    0    0 -0.21143620256E+01  0.23697860101E+01  0.50105683873E+00  0.32151937307E+01  0.51100000000E-03 0.  1.
         12    1    3    3    0    0  0.21742000542E+02 -0.16332353561E+01 -0.25709807161E+02  0.33710179910E+02  0.00000000000E+00 0. -1.
</event>
<event>
 7    1  0.5839176E-013  0.5052885E+02  0.7816164E-02  0.1300439E+00
        -11   -1    0    0    0    0  0.00000000000E+00  0.00000000000E+00  0.45593999997E+02  0.45594000000E+02  0.51100000000E-03 0.  1.
         11   -1    0    0    0    0 -0.00000000000E+00 -0.00000000000E+00 -0.45593999997E+02  0.45594000000E+02  0.51100000000E-03 0. -1.
    9900012    2    1    2    0    0 -0.18033468329E+01 -0.14664794464E+02 -0.37879518212E+02  0.50528853964E+02  0.29999982108E+02 0.  0.
        -12    1    1    2    0    0  0.18033468329E+01  0.14664794464E+02  0.37879518212E+02  0.40659146036E+02  0.00000000000E+00 0.  1.
         11    1    3    3    0    0 -0.30698303901E+01 -0.92901795389E+01 -0.13854642892E+02  0.16961203507E+02  0.51100000000E-03 0. -1.
        -11    1    3    3    0    0 -0.33597217644E+01  0.56119705909E+01 -0.19909552621E+02  0.20956436483E+02  0.51100000000E-03 0.  1.
         12    1    3    3    0    0  0.46262053216E+01 -0.10986585516E+02 -0.41153226992E+01  0.12611213974E+02  0.00000000000E+00 0. -1.
</event>
<event>
 7    1  0.5839176E-013  0.5052885E+02  0.7816164E-02  0.1300439E+00
        -11   -1    0    0    0    0  0.00000000000E+00  0.00000000000E+00  0.45593999997E+02  0.45594000000E+02  0.51100000000E-03 0.  1.
         11   -1    0    0    0    0 -0.00000000000E+00 -0.00000000000E+00 -0.45593999997E+02  0.45594000000E+02  0.51100000000E-03 0. -1.
    9900012    2    1    2    0    0  0.48886104733E+01  0.13778651294E+02 -0.37939640866E+02  0.50528854745E+02  0.29999984481E+02 0.  0.
        -12    1    1    2    0    0 -0.48886104733E+01 -0.13778651294E+02  0.37939640866E+02  0.40659145255E+02  0.00000000000E+00 0.  1.
         11    1    3    3    0    0 -0.88115984712E-01  0.28413003679E+01  0.11021878131E+01  0.30488637955E+01  0.51100000000E-03 0. -1.
        -11    1    3    3    0    0  0.89336643649E+01 -0.94013257505E+00 -0.32351233972E+01  0.95477867539E+01  0.51100000000E-03 0.  1.
         12    1    3    3    0    0 -0.39569379069E+01  0.11877483501E+02 -0.35806705282E+02  0.37932204195E+02  0.00000000000E+00 0. -1.
</event>
<event>
 7    1  0.5839176E-013  0.5052886E+02  0.7816164E-02  0.1300439E+00
        -11   -1    0    0    0    0  0.00000000000E+00  0.00000000000E+00  0.45593999997E+02  0.45594000000E+02  0.51100000000E-03 0.  1.
         11   -1    0    0    0    0 -0.00000000000E+00 -0.00000000000E+00 -0.45593999997E+02  0.45594000000E+02  0.51100000000E-03 0. -1.
    9900012    2    1    2    0    0  0.23349398860E+01  0.39838560618E+02 -0.77847794241E+01  0.50528860227E+02  0.30000001146E+02 0.  0.
        -12    1    1    2    0    0 -0.23349398860E+01 -0.39838560618E+02  0.77847794241E+01  0.40659139773E+02  0.00000000000E+00 0.  1.
         11    1    3    3    0    0  0.53230917341E+01  0.65550026254E+01 -0.90868146424E+01  0.12404578414E+02  0.51100000000E-03 0. -1.
        -11    1    3    3    0    0  0.52043957908E+01  0.80218839219E+01  0.58078554807E+01  0.11187830118E+02  0.51100000000E-03 0.  1.
        -12    1    3    3    0    0 -0.81925476389E+01  0.25261674071E+02 -0.45058202625E+01  0.26936451695E+02  0.00000000000E+00 0.  1.
</event>
<event>
 7    1  0.5839176E-013  0.5052886E+02  0.7816164E-02  0.1300439E+00
        -11   -1    0    0    0    0  0.00000000000E+00  0.00000000000E+00  0.45593999997E+02  0.45594000000E+02  0.51100000000E-03 0.  1.
         11   -1    0    0    0    0 -0.00000000000E+00 -0.00000000000E+00 -0.45593999997E+02  0.45594000000E+02  0.51100000000E-03 0. -1.
    9900012    2    1    2    0    0 -0.34729395850E+02  0.20941280900E+02 -0.29150910807E+01  0.50528856652E+02  0.29999990279E+02 0.  0.
        -12    1    1    2    0    0  0.34729395850E+02 -0.20941280900E+02  0.29150910807E+01  0.40659143348E+02  0.00000000000E+00 0.  1.
         11    1    3    3    0    0 -0.11955170060E+02  0.25750190489E+01 -0.15095127715E+01  0.12322152544E+02  0.51100000000E-03 0. -1.
        -11    1    3    3    0    0 -0.19500456690E+02  0.98156754519E+01  0.96354137548E+01  0.23863287581E+02  0.51100000000E-03 0.  1.
        -12    1    3    3    0    0 -0.32737690999E+01  0.85505863989E+01 -0.11040992064E+02  0.14343416526E+02  0.00000000000E+00 0.  1.
</event>
<event>
 7    1  0.5839176E-013  0.5052886E+02  0.7816164E-02  0.1300439E+00
        -11   -1    0    0    0    0  0.00000000000E+00  0.00000000000E+00  0.45593999997E+02  0.45594000000E+02  0.51100000000E-03 0. -1.
         11   -1    0    0    0    0 -0.00000000000E+00 -0.00000000000E+00 -0.45593999997E+02  0.45594000000E+02  0.51100000000E-03 0.  1.
    9900012    2    1    2    0    0  0.31519463136E+02  0.23814289835E+02  0.96212622382E+01  0.50528860268E+02  0.30000001269E+02 0.  0.
        -12    1    1    2    0    0 -0.31519463136E+02 -0.23814289835E+02 -0.96212622382E+01  0.40659139732E+02  0.00000000000E+00 0.  1.
         11    1    3    3    0    0  0.69716704435E+01  0.48571178090E+01  0.63952946942E+01  0.10634640411E+02  0.51100000000E-03 0. -1.
        -11    1    3    3    0    0  0.21213133679E+02  0.12310317066E+02  0.12884373562E+02  0.27704657174E+02  0.51100000000E-03 0.  1.
        -12    1    3    3    0    0  0.33346590131E+01  0.66468549603E+01 -0.96584060179E+01  0.12189562683E+02  0.00000000000E+00 0.  1.
</event>
<event>
 7    1  0.5839176E-013  0.5052886E+02  0.7816164E-02  0.1300439E+00
        -11   -1    0    0    0    0  0.00000000000E+00  0.00000000000E+00  0.45593999997E+02  0.45594000000E+02  0.51100000000E-03 0.  1.
         11   -1    0    0    0    0 -0.00000000000E+00 -0.00000000000E+00 -0.45593999997E+02  0.45594000000E+02  0.51100000000E-03 0. -1.
    9900012    2    1    2    0    0  0.87808128531E+01 -0.30732854200E+02 -0.25130751310E+02  0.50528860030E+02  0.30000000548E+02 0.  0.
        -12    1    1    2    0    0 -0.87808128531E+01  0.30732854200E+02  0.25130751310E+02  0.40659139970E+02  0.00000000000E+00 0.  1.
         11    1    3    3    0    0 -0.41719035316E+01  0.21412921495E+01 -0.18519788255E+01  0.50417989823E+01  0.51100000000E-03 0. -1.
        -11    1    3    3    0    0  0.28479120163E+01 -0.82884002636E+01 -0.15474210458E+02  0.17783682728E+02  0.51100000000E-03 0.  1.
         12    1    3    3    0    0  0.10104804368E+02 -0.24585746086E+02 -0.78045620263E+01  0.27703378321E+02  0.00000000000E+00 0. -1.
</event>
<event>
 7    1  0.5839176E-013  0.5052886E+02  0.7816164E-02  0.1300439E+00
        -11   -1    0    0    0    0  0.00000000000E+00  0.00000000000E+00  0.45593999997E+02  0.45594000000E+02  0.51100000000E-03 0. -1.
         11   -1    0    0    0    0 -0.00000000000E+00 -0.00000000000E+00 -0.45593999997E+02  0.45594000000E+02  0.51100000000E-03 0.  1.
    9900012    2    1    2    0    0  0.29011710939E+02  0.21890561391E+02  0.18228813346E+02  0.50528859754E+02  0.29999999707E+02 0.  0.
        -12    1    1    2    0    0 -0.29011710939E+02 -0.21890561391E+02 -0.18228813346E+02  0.40659140246E+02  0.00000000000E+00 0.  1.
         11    1    3    3    0    0  0.68858658819E+01  0.46170942095E+01  0.17072454647E+02  0.18978972992E+02  0.51100000000E-03 0. -1.
        -11    1    3    3    0    0  0.91393234051E+01  0.76149460967E+01  0.76147351502E+01  0.14124405404E+02  0.51100000000E-03 0.  1.
        -12    1    3    3    0    0  0.12986521652E+02  0.96585210843E+01 -0.64583764517E+01  0.17425481357E+02  0.00000000000E+00 0.  1.
</event>
<event>
 7    1  0.5839176E-013  0.5052886E+02  0.7816164E-02  0.1300439E+00
        -11   -1    0    0    0    0  0.00000000000E+00  0.00000000000E+00  0.45593999997E+02  0.45594000000E+02  0.51100000000E-03 0.  1.
         11   -1    0    0    0    0 -0.00000000000E+00 -0.00000000000E+00 -0.45593999997E+02  0.45594000000E+02  0.51100000000E-03 0. -1.
    9900012    2    1    2    0    0 -0.28057804134E+02 -0.50513785160E+01 -0.28989807449E+02  0.50528859162E+02  0.29999997909E+02 0.  0.
        -12    1    1    2    0    0  0.28057804134E+02  0.50513785160E+01  0.28989807449E+02  0.40659140838E+02  0.00000000000E+00 0.  1.
         11    1    3    3    0    0 -0.16664244204E+02  0.26916670042E+01 -0.12970298167E+02  0.21287807331E+02  0.51100000000E-03 0. -1.
        -11    1    3    3    0    0 -0.29492098569E+01 -0.58439911383E+01 -0.18992895495E+02  0.20089304387E+02  0.51100000000E-03 0.  1.
         12    1    3    3    0    0 -0.84443500727E+01 -0.18990543819E+01  0.29733862136E+01  0.91517474435E+01  0.00000000000E+00 0. -1.
</event>
<event>
 7    1  0.5839176E-013  0.5052887E+02  0.7816164E-02  0.1300439E+00
        -11   -1    0    0    0    0  0.00000000000E+00  0.00000000000E+00  0.45593999997E+02  0.45594000000E+02  0.51100000000E-03 0.  1.
         11   -1    0    0    0    0 -0.00000000000E+00 -0.00000000000E+00 -0.45593999997E+02  0.45594000000E+02  0.51100000000E-03 0. -1.
    9900012    2    1    2    0    0 -0.39347082438E+02  0.99854097497E+01 -0.22942442178E+01  0.50528869896E+02  0.30000030537E+02 0.  0.
        -12    1    1    2    0    0  0.39347082438E+02 -0.99854097497E+01  0.22942442178E+01  0.40659130104E+02  0.00000000000E+00 0.  1.
         11    1    3    3    0    0 -0.80400027516E+01  0.70599984568E+01 -0.12146712880E+01  0.10768502638E+02  0.51100000000E-03 0. -1.
        -11    1    3    3    0    0 -0.13486146669E+02  0.11852621180E+02  0.54878484546E+01  0.18774377798E+02  0.51100000000E-03 0.  1.
         12    1    3    3    0    0 -0.17820933018E+02 -0.89272098869E+01 -0.65674213844E+01  0.20985989460E+02  0.00000000000E+00 0. -1.
</event>
<event>
 7    1  0.5839176E-013  0.5052885E+02  0.7816164E-02  0.1300439E+00
        -11   -1    0    0    0    0  0.00000000000E+00  0.00000000000E+00  0.45593999997E+02  0.45594000000E+02  0.51100000000E-03 0.  1.
         11   -1    0    0    0    0 -0.00000000000E+00 -0.00000000000E+00 -0.45593999997E+02  0.45594000000E+02  0.51100000000E-03 0. -1.
    9900012    2    1    2    0    0 -0.34773844440E+02 -0.14940167055E+02 -0.14857246340E+02  0.50528848292E+02  0.29999964869E+02 0.  0.
        -12    1    1    2    0    0  0.34773844440E+02  0.14940167055E+02  0.14857246340E+02  0.40659151708E+02  0.00000000000E+00 0.  1.
         11    1    3    3    0    0 -0.40106992431E+01 -0.78382697090E+01 -0.61715592558E+01  0.10752317162E+02  0.51100000000E-03 0. -1.
        -11    1    3    3    0    0 -0.11973455516E+02 -0.14333499925E+02 -0.38069335317E+01  0.19060577123E+02  0.51100000000E-03 0.  1.
         12    1    3    3    0    0 -0.18789689681E+02  0.72316025790E+01 -0.48787535529E+01  0.20715954006E+02  0.00000000000E+00 0. -1.
</event>
<event>
 7    1  0.5839176E-013  0.5052886E+02  0.7816164E-02  0.1300439E+00
        -11   -1    0    0    0    0  0.00000000000E+00  0.00000000000E+00  0.45593999997E+02  0.45594000000E+02  0.51100000000E-03 0.  1.
         11   -1    0    0    0    0 -0.00000000000E+00 -0.00000000000E+00 -0.45593999997E+02  0.45594000000E+02  0.51100000000E-03 0. -1.
    9900012    2    1    2    0    0 -0.25579664077E+02  0.21361473383E+02 -0.23292355240E+02  0.50528861150E+02  0.30000003952E+02 0.  0.
        -12    1    1    2    0    0  0.25579664077E+02 -0.21361473383E+02  0.23292355240E+02  0.40659138850E+02  0.00000000000E+00 0.  1.
         11    1    3    3    0    0 -0.54695417111E+01  0.53146236102E+01 -0.10465405323E+02  0.12949355948E+02  0.51100000000E-03 0. -1.
        -11    1    3    3    0    0 -0.14377554373E+02 -0.11283821562E+01 -0.13081847724E+02  0.19471056883E+02  0.51100000000E-03 0.  1.
         12    1    3    3    0    0 -0.57325679929E+01  0.17175231929E+02  0.25489780577E+00  0.18108448319E+02  0.00000000000E+00 0. -1.
</event>
<event>
 7    1  0.5839176E-013  0.5052886E+02  0.7816164E-02  0.1300439E+00
        -11   -1    0    0    0    0  0.00000000000E+00  0.00000000000E+00  0.45593999997E+02  0.45594000000E+02  0.51100000000E-03 0.  1.
         11   -1    0    0    0    0 -0.00000000000E+00 -0.00000000000E+00 -0.45593999997E+02  0.45594000000E+02  0.51100000000E-03 0. -1.
    9900012    2    1    2    0    0  0.21019427987E+02 -0.27357215941E+02 -0.21515859442E+02  0.50528858046E+02  0.29999994517E+02 0.  0.
        -12    1    1    2    0    0 -0.21019427987E+02  0.27357215941E+02  0.21515859442E+02  0.40659141954E+02  0.00000000000E+00 0.  1.
         11    1    3    3    0    0  0.30654532235E+01 -0.95475107963E+01  0.10617673334E+01  0.10083616217E+02  0.51100000000E-03 0. -1.
        -11    1    3    3    0    0 -0.38395912827E+01 -0.37239066978E+01  0.93261332585E+00  0.54295220958E+01  0.51100000000E-03 0.  1.
         12    1    3    3    0    0  0.21793566046E+02 -0.14085798447E+02 -0.23510240101E+02  0.35015719734E+02  0.00000000000E+00 0. -1.
</event>
<event>
 7    1  0.5839176E-013  0.5052883E+02  0.7816164E-02  0.1300439E+00
        -11   -1    0    0    0    0  0.00000000000E+00  0.00000000000E+00  0.45593999997E+02  0.45594000000E+02  0.51100000000E-03 0.  1.
         11   -1    0    0    0    0 -0.00000000000E+00 -0.00000000000E+00 -0.45593999997E+02  0.45594000000E+02  0.51100000000E-03 0. -1.
    9900012    2    1    2    0    0  0.18248159812E+02  0.28433997967E+02 -0.22620360431E+02  0.50528827813E+02  0.29999902621E+02 0.  0.
        -12    1    1    2    0    0 -0.18248159812E+02 -0.28433997967E+02  0.22620360431E+02  0.40659172187E+02  0.00000000000E+00 0.  1.
         11    1    3    3    0    0  0.37636349860E+01  0.58531779782E+01  0.95455646729E+00  0.70239461176E+01  0.51100000000E-03 0.  1.
        -11    1    3    3    0    0  0.13103139285E+02  0.59940893897E+01 -0.22637608777E+02  0.26834356675E+02  0.51100000000E-03 0. -1.
         12    1    3    3    0    0  0.13813855409E+01  0.16586730599E+02 -0.93730812094E+00  0.16670525021E+02  0.00000000000E+00 0. -1.
</event>
<event>
 7    1  0.5839176E-013  0.5052887E+02  0.7816164E-02  0.1300439E+00
        -11   -1    0    0    0    0  0.00000000000E+00  0.00000000000E+00  0.45593999997E+02  0.45594000000E+02  0.51100000000E-03 0.  1.
         11   -1    0    0    0    0 -0.00000000000E+00 -0.00000000000E+00 -0.45593999997E+02  0.45594000000E+02  0.51100000000E-03 0. -1.
    9900012    2    1    2    0    0 -0.31828235739E+01  0.12994899913E+02 -0.38394885739E+02  0.50528867686E+02  0.30000023819E+02 0.  0.
        -12    1    1    2    0    0  0.31828235739E+01 -0.12994899913E+02  0.38394885739E+02  0.40659132314E+02  0.00000000000E+00 0.  1.
         11    1    3    3    0    0  0.85859087361E+00  0.11195977672E+02 -0.13312812556E+02  0.17416029190E+02  0.51100000000E-03 0. -1.
        -11    1    3    3    0    0  0.38350197044E+00 -0.33848060814E+01 -0.26012085246E+02  0.26234186953E+02  0.51100000000E-03 0.  1.
         12    1    3    3    0    0 -0.44249164179E+01  0.51837283218E+01  0.93001206367E+00  0.68786515436E+01  0.00000000000E+00 0. -1.
</event>
<event>
 7    1  0.5839176E-013  0.5052886E+02  0.7816164E-02  0.1300439E+00
        -11   -1    0    0    0    0  0.00000000000E+00  0.00000000000E+00  0.45593999997E+02  0.45594000000E+02  0.51100000000E-03 0. -1.
         11   -1    0    0    0    0 -0.00000000000E+00 -0.00000000000E+00 -0.45593999997E+02  0.45594000000E+02  0.51100000000E-03 0.  1.
    9900012    2    1    2    0    0  0.38233587009E+02  0.10148794233E+02  0.94000380726E+01  0.50528856924E+02  0.29999991105E+02 0.  0.
        -12    1    1    2    0    0 -0.38233587009E+02 -0.10148794233E+02 -0.94000380726E+01  0.40659143076E+02  0.00000000000E+00 0.  1.
         11    1    3    3    0    0  0.24966137986E+02 -0.77189915716E+00 -0.11823725247E+01  0.25006036857E+02  0.51100000000E-03 0. -1.
        -11    1    3    3    0    0  0.37403199416E+01 -0.15692311878E+01  0.88294647466E+01  0.97165800444E+01  0.51100000000E-03 0.  1.
        -12    1    3    3    0    0  0.95271290815E+01  0.12489924578E+02  0.17529458507E+01  0.15806240022E+02  0.00000000000E+00 0.  1.
</event>
<event>
 7    1  0.5839176E-013  0.5052887E+02  0.7816164E-02  0.1300439E+00
        -11   -1    0    0    0    0  0.00000000000E+00  0.00000000000E+00  0.45593999997E+02  0.45594000000E+02  0.51100000000E-03 0.  1.
         11   -1    0    0    0    0 -0.00000000000E+00 -0.00000000000E+00 -0.45593999997E+02  0.45594000000E+02  0.51100000000E-03 0. -1.
    9900012    2    1    2    0    0 -0.14248160946E+02 -0.56590525899E+01 -0.37658060455E+02  0.50528874533E+02  0.30000044629E+02 0.  0.
        -12    1    1    2    0    0  0.14248160946E+02  0.56590525899E+01  0.37658060455E+02  0.40659125467E+02  0.00000000000E+00 0.  1.
         11    1    3    3    0    0 -0.35228248225E+01  0.88452346578E+01 -0.19809236648E+02  0.21978496940E+02  0.51100000000E-03 0. -1.
        -11    1    3    3    0    0 -0.25289098702E+01  0.17868533298E+01 -0.93661139762E-01  0.30979029397E+01  0.51100000000E-03 0.  1.
         12    1    3    3    0    0 -0.81964262537E+01 -0.16291140578E+02 -0.17755162667E+02  0.25452474653E+02  0.00000000000E+00 0. -1.
</event>
<event>
 7    1  0.5839176E-013  0.5052886E+02  0.7816164E-02  0.1300439E+00
        -11   -1    0    0    0    0  0.00000000000E+00  0.00000000000E+00  0.45593999997E+02  0.45594000000E+02  0.51100000000E-03 0.  1.
         11   -1    0    0    0    0 -0.00000000000E+00 -0.00000000000E+00 -0.45593999997E+02  0.45594000000E+02  0.51100000000E-03 0. -1.
    9900012    2    1    2    0    0 -0.28033803153E+02  0.29437695600E+02 -0.83298176329E+00  0.50528857116E+02  0.29999991689E+02 0.  0.
        -12    1    1    2    0    0  0.28033803153E+02 -0.29437695600E+02  0.83298176329E+00  0.40659142884E+02  0.00000000000E+00 0.  1.
         11    1    3    3    0    0 -0.16511875026E+01  0.42322726321E+01  0.11617434716E+01  0.46891577022E+01  0.51100000000E-03 0. -1.
        -11    1    3    3    0    0 -0.20039325682E+02  0.31077677598E+00  0.33176358316E+00  0.20044481119E+02  0.51100000000E-03 0.  1.
        -12    1    3    3    0    0 -0.63432899684E+01  0.24894646192E+02 -0.23264888180E+01  0.25795218294E+02  0.00000000000E+00 0.  1.
</event>
<event>
 7    1  0.5839176E-013  0.5052886E+02  0.7816164E-02  0.1300439E+00
        -11   -1    0    0    0    0  0.00000000000E+00  0.00000000000E+00  0.45593999997E+02  0.45594000000E+02  0.51100000000E-03 0.  1.
         11   -1    0    0    0    0 -0.00000000000E+00 -0.00000000000E+00 -0.45593999997E+02  0.45594000000E+02  0.51100000000E-03 0. -1.
    9900012    2    1    2    0    0  0.28559303348E+02  0.28480019075E+02  0.51400755848E+01  0.50528859929E+02  0.30000000241E+02 0.  0.
        -12    1    1    2    0    0 -0.28559303348E+02 -0.28480019075E+02 -0.51400755848E+01  0.40659140071E+02  0.00000000000E+00 0.  1.
         11    1    3    3    0    0  0.13092169646E+02  0.23312812987E+02 -0.52866195459E+01  0.27255100475E+02  0.51100000000E-03 0. -1.
        -11    1    3    3    0    0  0.66417549204E+01  0.83830517494E+00 -0.24017162048E+01  0.71122362854E+01  0.51100000000E-03 0.  1.
        -12    1    3    3    0    0  0.88253787812E+01  0.43289009135E+01  0.12828411336E+02  0.16161523169E+02  0.00000000000E+00 0.  1.
</event>
<event>
 7    1  0.5839176E-013  0.5052886E+02  0.7816164E-02  0.1300439E+00
        -11   -1    0    0    0    0  0.00000000000E+00  0.00000000000E+00  0.45593999997E+02  0.45594000000E+02  0.51100000000E-03 0.  1.
         11   -1    0    0    0    0 -0.00000000000E+00 -0.00000000000E+00 -0.45593999997E+02  0.45594000000E+02  0.51100000000E-03 0. -1.
    9900012    2    1    2    0    0  0.38974083529E+02  0.11432964585E+02 -0.18638532422E+01  0.50528858162E+02  0.29999994868E+02 0.  0.
        -12    1    1    2    0    0 -0.38974083529E+02 -0.11432964585E+02  0.18638532422E+01  0.40659141838E+02  0.00000000000E+00 0.  1.
         11    1    3    3    0    0  0.15207314465E+02  0.49472046672E+01 -0.18502122829E+01  0.16098463685E+02  0.51100000000E-03 0. -1.
        -11    1    3    3    0    0  0.98367278130E+01 -0.56425466875E+01  0.84216836130E+01  0.14125307159E+02  0.51100000000E-03 0.  1.
         12    1    3    3    0    0  0.13930041251E+02  0.12128306605E+02 -0.84353245723E+01  0.20305087318E+02  0.00000000000E+00 0. -1.
</event>
<event>
 7    1  0.5839176E-013  0.5052887E+02  0.7816164E-02  0.1300439E+00
        -11   -1    0    0    0    0  0.00000000000E+00  0.00000000000E+00  0.45593999997E+02  0.45594000000E+02  0.51100000000E-03 0.  1.
         11   -1    0    0    0    0 -0.00000000000E+00 -0.00000000000E+00 -0.45593999997E+02  0.45594000000E+02  0.51100000000E-03 0. -1.
    9900012    2    1    2    0    0  0.97672390391E+01  0.14806777272E+02 -0.36585865912E+02  0.50528865772E+02  0.30000018002E+02 0.  0.
        -12    1    1    2    0    0 -0.97672390391E+01 -0.14806777272E+02  0.36585865912E+02  0.40659134228E+02  0.00000000000E+00 0.  1.
         11    1    3    3    0    0  0.30600926703E+01 -0.42329243815E+01 -0.72213302890E+01  0.89123188550E+01  0.51100000000E-03 0.  1.
        -11    1    3    3    0    0  0.11674211640E+02  0.25151064967E+01 -0.14941360447E+02  0.19127394762E+02  0.51100000000E-03 0. -1.
        -12    1    3    3    0    0 -0.49670652716E+01  0.16524595157E+02 -0.14423175175E+02  0.22489152155E+02  0.00000000000E+00 0.  1.
</event>
<event>
 7    1  0.5839176E-013  0.5052886E+02  0.7816164E-02  0.1300439E+00
        -11   -1    0    0    0    0  0.00000000000E+00  0.00000000000E+00  0.45593999997E+02  0.45594000000E+02  0.51100000000E-03 0. -1.
         11   -1    0    0    0    0 -0.00000000000E+00 -0.00000000000E+00 -0.45593999997E+02  0.45594000000E+02  0.51100000000E-03 0.  1.
    9900012    2    1    2    0    0  0.16767648405E+02  0.36026590266E+02  0.86079428622E+01  0.50528856876E+02  0.29999990960E+02 0.  0.
        -12    1    1    2    0    0 -0.16767648405E+02 -0.36026590266E+02 -0.86079428622E+01  0.40659143124E+02  0.00000000000E+00 0.  1.
         11    1    3    3    0    0 -0.17413435848E+01  0.17451034565E+02  0.76417834792E+01  0.19130283319E+02  0.51100000000E-03 0. -1.
        -11    1    3    3    0    0  0.19095062696E+01  0.83450732888E+00 -0.58125387538E+01  0.61748055598E+01  0.51100000000E-03 0.  1.
        -12    1    3    3    0    0  0.16599485721E+02  0.17741048372E+02  0.67786981368E+01  0.25223767997E+02  0.00000000000E+00 0.  1.
</event>
<event>
 7    1  0.5839176E-013  0.5052885E+02  0.7816164E-02  0.1300439E+00
        -11   -1    0    0    0    0  0.00000000000E+00  0.00000000000E+00  0.45593999997E+02  0.45594000000E+02  0.51100000000E-03 0.  1.
         11   -1    0    0    0    0 -0.00000000000E+00 -0.00000000000E+00 -0.45593999997E+02  0.45594000000E+02  0.51100000000E-03 0. -1.
    9900012    2    1    2    0    0 -0.16667270492E+02 -0.37082367208E+02  0.51599899623E+00  0.50528854431E+02  0.29999983529E+02 0.  0.
        -12    1    1    2    0    0  0.16667270492E+02  0.37082367208E+02 -0.51599899623E+00  0.40659145569E+02  0.00000000000E+00 0.  1.
         11    1    3    3    0    0  0.26836560557E+01 -0.71096067738E+01  0.27330951505E+01  0.80757865045E+01  0.51100000000E-03 0. -1.
        -11    1    3    3    0    0  0.89326091859E+00 -0.19024714571E+02 -0.36552173204E+01  0.19393253814E+02  0.51100000000E-03 0.  1.
        -12    1    3    3    0    0 -0.20244187467E+02 -0.10948045863E+02  0.14381211662E+01  0.23059814112E+02  0.00000000000E+00 0.  1.
</event>
<event>
 7    1  0.5839176E-013  0.5052886E+02  0.7816164E-02  0.1300439E+00
        -11   -1    0    0    0    0  0.00000000000E+00  0.00000000000E+00  0.45593999997E+02  0.45594000000E+02  0.51100000000E-03 0. -1.
         11   -1    0    0    0    0 -0.00000000000E+00 -0.00000000000E+00 -0.45593999997E+02  0.45594000000E+02  0.51100000000E-03 0.  1.
    9900012    2    1    2    0    0 -0.28680103047E+02 -0.28706484697E+02 -0.25602976181E+01  0.50528859597E+02  0.29999999231E+02 0.  0.
        -12    1    1    2    0    0  0.28680103047E+02  0.28706484697E+02  0.25602976181E+01  0.40659140403E+02  0.00000000000E+00 0.  1.
         11    1    3    3    0    0  0.89825182793E+00 -0.12305955932E+01 -0.26891505750E+01  0.30907528106E+01  0.51100000000E-03 0. -1.
        -11    1    3    3    0    0 -0.45302896586E+01 -0.17117400466E+02 -0.75752173551E+01  0.19259097626E+02  0.51100000000E-03 0.  1.
         12    1    3    3    0    0 -0.25048065216E+02 -0.10358488637E+02  0.77040703120E+01  0.28179009161E+02  0.00000000000E+00 0. -1.
</event>
<event>
 7    1  0.5839176E-013  0.5052886E+02  0.7816164E-02  0.1300439E+00
        -11   -1    0    0    0    0  0.00000000000E+00  0.00000000000E+00  0.45593999997E+02  0.45594000000E+02  0.51100000000E-03 0.  1.
         11   -1    0    0    0    0 -0.00000000000E+00 -0.00000000000E+00 -0.45593999997E+02  0.45594000000E+02  0.51100000000E-03 0. -1.
    9900012    2    1    2    0    0 -0.28858220310E+02  0.25235353799E+02 -0.13547906751E+02  0.50528859107E+02  0.29999997741E+02 0.  0.
        -12    1    1    2    0    0  0.28858220310E+02 -0.25235353799E+02  0.13547906751E+02  0.40659140893E+02  0.00000000000E+00 0.  1.
         11    1    3    3    0    0  0.17476605902E+01  0.13541025972E+02 -0.82833295259E+01  0.15969572637E+02  0.51100000000E-03 0. -1.
        -11    1    3    3    0    0 -0.63684565999E+00 -0.11907851992E+01 -0.95565242360E+00  0.16543317688E+01  0.51100000000E-03 0.  1.
         12    1    3    3    0    0 -0.29969035240E+02  0.12885113027E+02 -0.43089248014E+01  0.32904954701E+02  0.00000000000E+00 0. -1.
</event>
<event>
 7    1  0.5839176E-013  0.5052886E+02  0.7816164E-02  0.1300439E+00
        -11   -1    0    0    0    0  0.00000000000E+00  0.00000000000E+00  0.45593999997E+02  0.45594000000E+02  0.51100000000E-03 0.  1.
         11   -1    0    0    0    0 -0.00000000000E+00 -0.00000000000E+00 -0.45593999997E+02  0.45594000000E+02  0.51100000000E-03 0. -1.
    9900012    2    1    2    0    0 -0.23500421938E+02  0.23058872522E+02 -0.23857583322E+02  0.50528859389E+02  0.29999998599E+02 0.  0.
        -12    1    1    2    0    0  0.23500421938E+02 -0.23058872522E+02  0.23857583322E+02  0.40659140611E+02  0.00000000000E+00 0.  1.
         11    1    3    3    0    0 -0.33829109671E+01  0.15097934372E+01 -0.12648467115E+02  0.13179805896E+02  0.51100000000E-03 0. -1.
        -11    1    3    3    0    0 -0.18157777524E+02  0.56209849032E+01 -0.27435096051E+01  0.19204874410E+02  0.51100000000E-03 0.  1.
         12    1    3    3    0    0 -0.19597334464E+01  0.15928094182E+02 -0.84656066019E+01  0.18144179083E+02  0.00000000000E+00 0. -1.
</event>
<event>
 7    1  0.5839176E-013  0.5052884E+02  0.7816164E-02  0.1300439E+00
        -11   -1    0    0    0    0  0.00000000000E+00  0.00000000000E+00  0.45593999997E+02  0.45594000000E+02  0.51100000000E-03 0. -1.
         11   -1    0    0    0    0 -0.00000000000E+00 -0.00000000000E+00 -0.45593999997E+02  0.45594000000E+02  0.51100000000E-03 0.  1.
    9900012    2    1    2    0    0  0.76666992840E+01 -0.15581101858E+02  0.36764356138E+02  0.50528844877E+02  0.29999954489E+02 0.  0.
        -12    1    1    2    0    0 -0.76666992840E+01  0.15581101858E+02 -0.36764356138E+02  0.40659155123E+02  0.00000000000E+00 0.  1.
         11    1    3    3    0    0 -0.60922483519E+00  0.50125414224E+01  0.16544174202E+02  0.17297584418E+02  0.51100000000E-03 0. -1.
        -11    1    3    3    0    0  0.62646577273E+01 -0.13136509999E+01  0.82751695439E+01  0.10461837632E+02  0.51100000000E-03 0.  1.
         12    1    3    3    0    0  0.20112663919E+01 -0.19279992281E+02  0.11945012392E+02  0.22769422827E+02  0.00000000000E+00 0. -1.
</event>
<event>
 7    1  0.5839176E-013  0.5052883E+02  0.7816164E-02  0.1300439E+00
        -11   -1    0    0    0    0  0.00000000000E+00  0.00000000000E+00  0.45593999997E+02  0.45594000000E+02  0.51100000000E-03 0.  1.
         11   -1    0    0    0    0 -0.00000000000E+00 -0.00000000000E+00 -0.45593999997E+02  0.45594000000E+02  0.51100000000E-03 0. -1.
    9900012    2    1    2    0    0 -0.32964125579E+01  0.33467062007E+02 -0.22852948584E+02  0.50528833332E+02  0.29999919397E+02 0.  0.
        -12    1    1    2    0    0  0.32964125579E+01 -0.33467062007E+02  0.22852948584E+02  0.40659166668E+02  0.00000000000E+00 0.  1.
         11    1    3    3    0    0 -0.85208067413E+00  0.30654004963E+02 -0.14594354271E+02  0.33961584748E+02  0.51100000000E-03 0. -1.
        -11    1    3    3    0    0 -0.67580518794E+01  0.47680208687E+01 -0.16449667524E+01  0.84327459399E+01  0.51100000000E-03 0.  1.
        -12    1    3    3    0    0  0.43137199956E+01 -0.19549638253E+01 -0.66136275604E+01  0.81345026441E+01  0.00000000000E+00 0.  1.
</event>
<event>
 7    1  0.5839176E-013  0.5052886E+02  0.7816164E-02  0.1300439E+00
        -11   -1    0    0    0    0  0.00000000000E+00  0.00000000000E+00  0.45593999997E+02  0.45594000000E+02  0.51100000000E-03 0. -1.
         11   -1    0    0    0    0 -0.00000000000E+00 -0.00000000000E+00 -0.45593999997E+02  0.45594000000E+02  0.51100000000E-03 0.  1.
    9900012    2    1    2    0    0  0.33220424575E+02  0.17779194996E+02 -0.15279705724E+02  0.50528858461E+02  0.29999995779E+02 0.  0.
        -12    1    1    2    0    0 -0.33220424575E+02 -0.17779194996E+02  0.15279705724E+02  0.40659141539E+02  0.00000000000E+00 0.  1.
         11    1    3    3    0    0  0.10271343916E+02  0.88753051752E+01  0.54855755389E+01  0.14641143638E+02  0.51100000000E-03 0. -1.
        -11    1    3    3    0    0  0.23515690059E+02  0.10288083768E+02 -0.14570520329E+02  0.29514952304E+02  0.51100000000E-03 0.  1.
         12    1    3    3    0    0 -0.56660939969E+00 -0.13841939481E+01 -0.61947609338E+01  0.63727625191E+01  0.00000000000E+00 0. -1.
</event>
<event>
 7    1  0.5839176E-013  0.5052887E+02  0.7816164E-02  0.1300439E+00
        -11   -1    0    0    0    0  0.00000000000E+00  0.00000000000E+00  0.45593999997E+02  0.45594000000E+02  0.51100000000E-03 0.  1.
         11   -1    0    0    0    0 -0.00000000000E+00 -0.00000000000E+00 -0.45593999997E+02  0.45594000000E+02  0.51100000000E-03 0. -1.
    9900012    2    1    2    0    0  0.21800087931E+02  0.26448068553E+02 -0.21872838091E+02  0.50528865600E+02  0.30000017478E+02 0.  0.
        -12    1    1    2    0    0 -0.21800087931E+02 -0.26448068553E+02  0.21872838091E+02  0.40659134400E+02  0.00000000000E+00 0.  1.
         11    1    3    3    0    0 -0.54486605509E+00 -0.19716645997E+01  0.54957534239E+00  0.21181061422E+01  0.51100000000E-03 0. -1.
        -11    1    3    3    0    0 -0.45490191072E+01  0.20187651793E+01 -0.43710089333E+01  0.66237985358E+01  0.51100000000E-03 0.  1.
         12    1    3    3    0    0  0.26893973093E+02  0.26400967973E+02 -0.18051404501E+02  0.41786960922E+02  0.00000000000E+00 0. -1.
</event>
<event>
 7    1  0.5839176E-013  0.5052889E+02  0.7816164E-02  0.1300439E+00
        -11   -1    0    0    0    0  0.00000000000E+00  0.00000000000E+00  0.45593999997E+02  0.45594000000E+02  0.51100000000E-03 0.  1.
         11   -1    0    0    0    0 -0.00000000000E+00 -0.00000000000E+00 -0.45593999997E+02  0.45594000000E+02  0.51100000000E-03 0. -1.
    9900012    2    1    2    0    0  0.32338314924E+02  0.76209119272E+01 -0.23437542142E+02  0.50528889184E+02  0.30000089162E+02 0.  0.
        -12    1    1    2    0    0 -0.32338314924E+02 -0.76209119272E+01  0.23437542142E+02  0.40659110816E+02  0.00000000000E+00 0.  1.
         11    1    3    3    0    0  0.78005412845E+01 -0.83487958136E+01 -0.20581684264E+01  0.11609775769E+02  0.51100000000E-03 0. -1.
        -11    1    3    3    0    0  0.11414450998E+01  0.72314206517E+01 -0.68469987493E+01  0.10023858224E+02  0.51100000000E-03 0.  1.
        -12    1    3    3    0    0  0.23396328540E+02  0.87382870891E+01 -0.14532374966E+02  0.28895255191E+02  0.00000000000E+00 0.  1.
</event>
<event>
 7    1  0.5839176E-013  0.5052885E+02  0.7816164E-02  0.1300439E+00
        -11   -1    0    0    0    0  0.00000000000E+00  0.00000000000E+00  0.45593999997E+02  0.45594000000E+02  0.51100000000E-03 0.  1.
         11   -1    0    0    0    0 -0.00000000000E+00 -0.00000000000E+00 -0.45593999997E+02  0.45594000000E+02  0.51100000000E-03 0. -1.
    9900012    2    1    2    0    0  0.28422461513E+02 -0.12202108329E+02 -0.26390126318E+02  0.50528849330E+02  0.29999968025E+02 0.  0.
        -12    1    1    2    0    0 -0.28422461513E+02  0.12202108329E+02  0.26390126318E+02  0.40659150670E+02  0.00000000000E+00 0.  1.
         11    1    3    3    0    0  0.20475688856E+02  0.22841487043E+01 -0.19415737791E+02  0.28309751741E+02  0.51100000000E-03 0. -1.
        -11    1    3    3    0    0  0.27583772445E+01  0.17829001901E+00  0.27298911498E+01  0.38849373617E+01  0.51100000000E-03 0.  1.
         12    1    3    3    0    0  0.51883954127E+01 -0.14664547052E+02 -0.97042796764E+01  0.18334160227E+02  0.00000000000E+00 0. -1.
</event>
<event>
 7    1  0.5839176E-013  0.5052881E+02  0.7816164E-02  0.1300439E+00
        -11   -1    0    0    0    0  0.00000000000E+00  0.00000000000E+00  0.45593999997E+02  0.45594000000E+02  0.51100000000E-03 0.  1.
         11   -1    0    0    0    0 -0.00000000000E+00 -0.00000000000E+00 -0.45593999997E+02  0.45594000000E+02  0.51100000000E-03 0. -1.
    9900012    2    1    2    0    0  0.10447423795E+02 -0.13982659905E+02 -0.36722013944E+02  0.50528809771E+02  0.29999847779E+02 0.  0.
        -12    1    1    2    0    0 -0.10447423795E+02  0.13982659905E+02  0.36722013944E+02  0.40659190229E+02  0.00000000000E+00 0.  1.
         11    1    3    3    0    0 -0.51123855688E+01 -0.11855774572E+02 -0.18536590619E+02  0.22589844376E+02  0.51100000000E-03 0.  1.
        -11    1    3    3    0    0  0.27604473172E+01 -0.65293504078E+01 -0.95123807960E+01  0.11863299491E+02  0.51100000000E-03 0. -1.
        -12    1    3    3    0    0  0.12799362047E+02  0.44024650748E+01 -0.86730425295E+01  0.16075665904E+02  0.00000000000E+00 0.  1.
</event>
<event>
 7    1  0.5839176E-013  0.5052883E+02  0.7816164E-02  0.1300439E+00
        -11   -1    0    0    0    0  0.00000000000E+00  0.00000000000E+00  0.45593999997E+02  0.45594000000E+02  0.51100000000E-03 0.  1.
         11   -1    0    0    0    0 -0.00000000000E+00 -0.00000000000E+00 -0.45593999997E+02  0.45594000000E+02  0.51100000000E-03 0. -1.
    9900012    2    1    2    0    0  0.89419199378E+01 -0.26249971624E+02 -0.29734649495E+02  0.50528827320E+02  0.29999901122E+02 0.  0.
        -12    1    1    2    0    0 -0.89419199378E+01  0.26249971624E+02  0.29734649495E+02  0.40659172680E+02  0.00000000000E+00 0.  1.
         11    1    3    3    0    0 -0.40931813005E+01  0.99733243926E+00 -0.18656783206E+01  0.46075547756E+01  0.51100000000E-03 0. -1.
        -11    1    3    3    0    0  0.14718120562E+02 -0.72417669358E+01 -0.11810040715E+02  0.20212454655E+02  0.51100000000E-03 0.  1.
         12    1    3    3    0    0 -0.16830193234E+01 -0.20005537127E+02 -0.16058930460E+02  0.25708817890E+02  0.00000000000E+00 0. -1.
</event>
<event>
 7    1  0.5839176E-013  0.5052888E+02  0.7816164E-02  0.1300439E+00
        -11   -1    0    0    0    0  0.00000000000E+00  0.00000000000E+00  0.45593999997E+02  0.45594000000E+02  0.51100000000E-03 0. -1.
         11   -1    0    0    0    0 -0.00000000000E+00 -0.00000000000E+00 -0.45593999997E+02  0.45594000000E+02  0.51100000000E-03 0.  1.
    9900012    2    1    2    0    0 -0.74403083737E-01 -0.36291402558E+02  0.18332820038E+02  0.50528883851E+02  0.30000072953E+02 0.  0.
        -12    1    1    2    0    0  0.74403083737E-01  0.36291402558E+02 -0.18332820038E+02  0.40659116149E+02  0.00000000000E+00 0.  1.
         11    1    3    3    0    0 -0.21666717702E+01 -0.19109914964E+02  0.12379232765E+02  0.22872007359E+02  0.51100000000E-03 0. -1.
        -11    1    3    3    0    0 -0.86262949459E+01 -0.31816616674E+01  0.35766532166E+01  0.98655148854E+01  0.51100000000E-03 0.  1.
         12    1    3    3    0    0  0.10718563632E+02 -0.13999825927E+02  0.23769340563E+01  0.17791361607E+02  0.00000000000E+00 0. -1.
</event>
<event>
 7    1  0.5839176E-013  0.5052886E+02  0.7816164E-02  0.1300439E+00
        -11   -1    0    0    0    0  0.00000000000E+00  0.00000000000E+00  0.45593999997E+02  0.45594000000E+02  0.51100000000E-03 0. -1.
         11   -1    0    0    0    0 -0.00000000000E+00 -0.00000000000E+00 -0.45593999997E+02  0.45594000000E+02  0.51100000000E-03 0.  1.
    9900012    2    1    2    0    0 -0.36164659814E+02 -0.64065893744E+01  0.17442444767E+02  0.50528857285E+02  0.29999992203E+02 0.  0.
        -12    1    1    2    0    0  0.36164659814E+02  0.64065893744E+01 -0.17442444767E+02  0.40659142715E+02  0.00000000000E+00 0.  1.
         11    1    3    3    0    0 -0.21487882017E+02 -0.45991615894E+01  0.59457941654E+01  0.22764749711E+02  0.51100000000E-03 0. -1.
        -11    1    3    3    0    0 -0.11756726435E+02 -0.31007797219E+01 -0.33226533359E+01  0.12604581579E+02  0.51100000000E-03 0.  1.
        -12    1    3    3    0    0 -0.29200513629E+01  0.12933519369E+01  0.14819303937E+02  0.15159525995E+02  0.00000000000E+00 0.  1.
</event>
<event>
 7    1  0.5839176E-013  0.5052887E+02  0.7816164E-02  0.1300439E+00
        -11   -1    0    0    0    0  0.00000000000E+00  0.00000000000E+00  0.45593999997E+02  0.45594000000E+02  0.51100000000E-03 0.  1.
         11   -1    0    0    0    0 -0.00000000000E+00 -0.00000000000E+00 -0.45593999997E+02  0.45594000000E+02  0.51100000000E-03 0. -1.
    9900012    2    1    2    0    0 -0.24558144213E+02 -0.29226570996E+02 -0.13995344217E+02  0.50528873606E+02  0.30000041813E+02 0.  0.
        -12    1    1    2    0    0  0.24558144213E+02  0.29226570996E+02  0.13995344217E+02  0.40659126394E+02  0.00000000000E+00 0.  1.
         11    1    3    3    0    0 -0.70665176612E+01 -0.15237413411E+02 -0.19192172855E+01  0.16905556322E+02  0.51100000000E-03 0. -1.
        -11    1    3    3    0    0 -0.21836929091E+01  0.49255925459E+01  0.17143193134E+01  0.56541018401E+01  0.51100000000E-03 0.  1.
         12    1    3    3    0    0 -0.15307933643E+02 -0.18914750131E+02 -0.13790446245E+02  0.27969215444E+02  0.00000000000E+00 0. -1.
</event>
<event>
 7    1  0.5839176E-013  0.5052874E+02  0.7816164E-02  0.1300439E+00
        -11   -1    0    0    0    0  0.00000000000E+00  0.00000000000E+00  0.45593999997E+02  0.45594000000E+02  0.51100000000E-03 0. -1.
         11   -1    0    0    0    0 -0.00000000000E+00 -0.00000000000E+00 -0.45593999997E+02  0.45594000000E+02  0.51100000000E-03 0.  1.
    9900012    2    1    2    0    0 -0.38964342667E+02 -0.10048258485E+02  0.58299232244E+01  0.50528739027E+02  0.29999632745E+02 0.  0.
        -12    1    1    2    0    0  0.38964342667E+02  0.10048258485E+02 -0.58299232244E+01  0.40659260973E+02  0.00000000000E+00 0.  1.
         11    1    3    3    0    0 -0.14927571714E+02  0.55405162770E+00  0.83902323947E+01  0.17132873967E+02  0.51100000000E-03 0. -1.
        -11    1    3    3    0    0  0.55376001345E-01  0.19768755115E+01  0.48395692774E+01  0.52280526338E+01  0.51100000000E-03 0.  1.
        -12    1    3    3    0    0 -0.24092146954E+02 -0.12579185625E+02 -0.73998784477E+01  0.28167812426E+02  0.00000000000E+00 0.  1.
</event>
<event>
 7    1  0.5839176E-013  0.5052879E+02  0.7816164E-02  0.1300439E+00
        -11   -1    0    0    0    0  0.00000000000E+00  0.00000000000E+00  0.45593999997E+02  0.45594000000E+02  0.51100000000E-03 0.  1.
         11   -1    0    0    0    0 -0.00000000000E+00 -0.00000000000E+00 -0.45593999997E+02  0.45594000000E+02  0.51100000000E-03 0. -1.
    9900012    2    1    2    0    0  0.30018934792E+02 -0.20710133183E+02 -0.17975690725E+02  0.50528788011E+02  0.29999781639E+02 0.  0.
        -12    1    1    2    0    0 -0.30018934792E+02  0.20710133183E+02  0.17975690725E+02  0.40659211989E+02  0.00000000000E+00 0.  1.
         11    1    3    3    0    0  0.19293295119E+01 -0.89132880199E+01 -0.11314278577E+02  0.14532099493E+02  0.51100000000E-03 0. -1.
        -11    1    3    3    0    0 -0.89611161148E+00  0.14875806693E+01 -0.35603677620E+01  0.39613294649E+01  0.51100000000E-03 0.  1.
        -12    1    3    3    0    0  0.28985716891E+02 -0.13284425833E+02 -0.31010443858E+01  0.32035359054E+02  0.00000000000E+00 0.  1.
</event>
<event>
 7    1  0.5839176E-013  0.5052886E+02  0.7816164E-02  0.1300439E+00
        -11   -1    0    0    0    0  0.00000000000E+00  0.00000000000E+00  0.45593999997E+02  0.45594000000E+02  0.51100000000E-03 0.  1.
         11   -1    0    0    0    0 -0.00000000000E+00 -0.00000000000E+00 -0.45593999997E+02  0.45594000000E+02  0.51100000000E-03 0. -1.
    9900012    2    1    2    0    0 -0.33765557504E+02  0.44204936335E+01 -0.22215127492E+02  0.50528861703E+02  0.30000005634E+02 0.  0.
        -12    1    1    2    0    0  0.33765557504E+02 -0.44204936335E+01  0.22215127492E+02  0.40659138297E+02  0.00000000000E+00 0.  1.
         11    1    3    3    0    0  0.14218582431E+01 -0.24442631255E+01 -0.18706130550E+01  0.33904714351E+01  0.51100000000E-03 0. -1.
        -11    1    3    3    0    0 -0.34786405994E+01  0.56805038755E+01  0.34268891568E+01  0.74908366858E+01  0.51100000000E-03 0.  1.
         12    1    3    3    0    0 -0.31708775148E+02  0.11842528835E+01 -0.23771403594E+02  0.39647553583E+02  0.00000000000E+00 0. -1.
</event>
<event>
 7    1  0.5839176E-013  0.5052886E+02  0.7816164E-02  0.1300439E+00
        -11   -1    0    0    0    0  0.00000000000E+00  0.00000000000E+00  0.45593999997E+02  0.45594000000E+02  0.51100000000E-03 0.  1.
         11   -1    0    0    0    0 -0.00000000000E+00 -0.00000000000E+00 -0.45593999997E+02  0.45594000000E+02  0.51100000000E-03 0. -1.
    9900012    2    1    2    0    0 -0.42689990786E+01 -0.38615276119E+02 -0.11991745509E+02  0.50528857568E+02  0.29999993065E+02 0.  0.
        -12    1    1    2    0    0  0.42689990786E+01  0.38615276119E+02  0.11991745509E+02  0.40659142432E+02  0.00000000000E+00 0.  1.
         11    1    3    3    0    0 -0.14890726549E+00 -0.40207518948E+02 -0.11981211387E+02  0.41954930341E+02  0.51100000000E-03 0. -1.
        -11    1    3    3    0    0 -0.26788104074E+01 -0.28322864331E+01  0.30172063910E+00  0.39101032266E+01  0.51100000000E-03 0.  1.
         12    1    3    3    0    0 -0.14412814058E+01  0.44245292616E+01 -0.31225476128E+00  0.46638240011E+01  0.00000000000E+00 0. -1.
</event>
<event>
 7    1  0.5839176E-013  0.5052887E+02  0.7816164E-02  0.1300439E+00
        -11   -1    0    0    0    0  0.00000000000E+00  0.00000000000E+00  0.45593999997E+02  0.45594000000E+02  0.51100000000E-03 0.  1.
         11   -1    0    0    0    0 -0.00000000000E+00 -0.00000000000E+00 -0.45593999997E+02  0.45594000000E+02  0.51100000000E-03 0. -1.
    9900012    2    1    2    0    0  0.24507696420E+02 -0.15121254812E+02 -0.28703400011E+02  0.50528871835E+02  0.30000036430E+02 0.  0.
        -12    1    1    2    0    0 -0.24507696420E+02  0.15121254812E+02  0.28703400011E+02  0.40659128165E+02  0.00000000000E+00 0.  1.
         11    1    3    3    0    0  0.42566618822E+01 -0.11899128860E+02 -0.13080521393E+02  0.18188141141E+02  0.51100000000E-03 0.  1.
        -11    1    3    3    0    0  0.10767444264E+02 -0.10218038780E+01 -0.19143985778E+02  0.21988045181E+02  0.51100000000E-03 0. -1.
        -12    1    3    3    0    0  0.94835902738E+01 -0.22003220749E+01  0.35211071591E+01  0.10352685513E+02  0.00000000000E+00 0.  1.
</event>
<event>
 7    1  0.5839176E-013  0.5052886E+02  0.7816164E-02  0.1300439E+00
        -11   -1    0    0    0    0  0.00000000000E+00  0.00000000000E+00  0.45593999997E+02  0.45594000000E+02  0.51100000000E-03 0. -1.
         11   -1    0    0    0    0 -0.00000000000E+00 -0.00000000000E+00 -0.45593999997E+02  0.45594000000E+02  0.51100000000E-03 0.  1.
    9900012    2    1    2    0    0  0.30548695604E+02 -0.23353229002E+02  0.13212484984E+02  0.50528857518E+02  0.29999992911E+02 0.  0.
        -12    1    1    2    0    0 -0.30548695604E+02  0.23353229002E+02 -0.13212484984E+02  0.40659142482E+02  0.00000000000E+00 0.  1.
         11    1    3    3    0    0 -0.36483268492E+01 -0.54215991845E+01  0.59546384741E+01  0.88409131957E+01  0.51100000000E-03 0. -1.
        -11    1    3    3    0    0  0.12193280261E+02  0.26947278487E+00  0.44965467555E+01  0.12998755021E+02  0.51100000000E-03 0.  1.
         12    1    3    3    0    0  0.22003742192E+02 -0.18201102603E+02  0.27612997545E+01  0.28689189301E+02  0.00000000000E+00 0. -1.
</event>
<event>
 7    1  0.5839176E-013  0.5052885E+02  0.7816164E-02  0.1300439E+00
        -11   -1    0    0    0    0  0.00000000000E+00  0.00000000000E+00  0.45593999997E+02  0.45594000000E+02  0.51100000000E-03 0.  1.
         11   -1    0    0    0    0 -0.00000000000E+00 -0.00000000000E+00 -0.45593999997E+02  0.45594000000E+02  0.51100000000E-03 0. -1.
    9900012    2    1    2    0    0 -0.35936040719E+02 -0.13476458275E+01 -0.18972381054E+02  0.50528850788E+02  0.29999972455E+02 0.  0.
        -12    1    1    2    0    0  0.35936040719E+02  0.13476458275E+01  0.18972381054E+02  0.40659149212E+02  0.00000000000E+00 0.  1.
         11    1    3    3    0    0 -0.11099448425E+02 -0.12052218198E+01 -0.89122952703E+01  0.14285633421E+02  0.51100000000E-03 0. -1.
        -11    1    3    3    0    0 -0.79767507751E+01 -0.10503260867E+02 -0.98364324091E+01  0.16453037548E+02  0.51100000000E-03 0.  1.
         12    1    3    3    0    0 -0.16859841518E+02  0.10360836859E+02 -0.22365337418E+00  0.19790179819E+02  0.00000000000E+00 0. -1.
</event>
<event>
 7    1  0.5839176E-013  0.5052887E+02  0.7816164E-02  0.1300439E+00
        -11   -1    0    0    0    0  0.00000000000E+00  0.00000000000E+00  0.45593999997E+02  0.45594000000E+02  0.51100000000E-03 0. -1.
         11   -1    0    0    0    0 -0.00000000000E+00 -0.00000000000E+00 -0.45593999997E+02  0.45594000000E+02  0.51100000000E-03 0.  1.
    9900012    2    1    2    0    0  0.96402528264E+01  0.33239005427E+02  0.21340086004E+02  0.50528865393E+02  0.30000016849E+02 0.  0.
        -12    1    1    2    0    0 -0.96402528264E+01 -0.33239005427E+02 -0.21340086004E+02  0.40659134607E+02  0.00000000000E+00 0.  1.
         11    1    3    3    0    0  0.13918692978E+02  0.34915008296E+02  0.22247320585E+02  0.43677581115E+02  0.51100000000E-03 0. -1.
        -11    1    3    3    0    0 -0.42676483211E+00  0.14996687948E+01 -0.10108037230E+01  0.18581870583E+01  0.51100000000E-03 0.  1.
         12    1    3    3    0    0 -0.38516753191E+01 -0.31756716645E+01  0.10356914165E+00  0.49930972204E+01  0.00000000000E+00 0. -1.
</event>
<event>
 7    1  0.5839176E-013  0.5052889E+02  0.7816164E-02  0.1300439E+00
        -11   -1    0    0    0    0  0.00000000000E+00  0.00000000000E+00  0.45593999997E+02  0.45594000000E+02  0.51100000000E-03 0.  1.
         11   -1    0    0    0    0 -0.00000000000E+00 -0.00000000000E+00 -0.45593999997E+02  0.45594000000E+02  0.51100000000E-03 0. -1.
    9900012    2    1    2    0    0 -0.94711946528E+01  0.38160476834E+02  0.10355576060E+02  0.50528886927E+02  0.30000082303E+02 0.  0.
        -12    1    1    2    0    0  0.94711946528E+01 -0.38160476834E+02 -0.10355576060E+02  0.40659113073E+02  0.00000000000E+00 0.  1.
         11    1    3    3    0    0 -0.95074216612E-01  0.89375990285E+01  0.50796325519E+01  0.10280680066E+02  0.51100000000E-03 0. -1.
        -11    1    3    3    0    0 -0.65313005483E+01  0.32841185915E+02  0.32177787613E+00  0.33485891364E+02  0.51100000000E-03 0.  1.
        -12    1    3    3    0    0 -0.28448198879E+01 -0.36183081098E+01  0.49541656315E+01  0.67623154967E+01  0.00000000000E+00 0.  1.
</event>
<event>
 7    1  0.5839176E-013  0.5052887E+02  0.7816164E-02  0.1300439E+00
        -11   -1    0    0    0    0  0.00000000000E+00  0.00000000000E+00  0.45593999997E+02  0.45594000000E+02  0.51100000000E-03 0. -1.
         11   -1    0    0    0    0 -0.00000000000E+00 -0.00000000000E+00 -0.45593999997E+02  0.45594000000E+02  0.51100000000E-03 0.  1.
    9900012    2    1    2    0    0 -0.24619873049E+02 -0.32162379379E+02  0.35507772815E+01  0.50528870452E+02  0.30000032226E+02 0.  0.
        -12    1    1    2    0    0  0.24619873049E+02  0.32162379379E+02 -0.35507772815E+01  0.40659129548E+02  0.00000000000E+00 0.  1.
         11    1    3    3    0    0  0.63762092431E+00 -0.88928520983E+00  0.63066222538E+01  0.64008494078E+01  0.51100000000E-03 0. -1.
        -11    1    3    3    0    0 -0.48679363294E+01 -0.10928161600E+01 -0.57142775877E+01  0.75857774735E+01  0.51100000000E-03 0.  1.
         12    1    3    3    0    0 -0.20389557644E+02 -0.30180278010E+02  0.29584326154E+01  0.36542243571E+02  0.00000000000E+00 0. -1.
</event>
<event>
 7    1  0.5839176E-013  0.5052886E+02  0.7816164E-02  0.1300439E+00
        -11   -1    0    0    0    0  0.00000000000E+00  0.00000000000E+00  0.45593999997E+02  0.45594000000E+02  0.51100000000E-03 0.  1.
         11   -1    0    0    0    0 -0.00000000000E+00 -0.00000000000E+00 -0.45593999997E+02  0.45594000000E+02  0.51100000000E-03 0. -1.
    9900012    2    1    2    0    0 -0.14811365361E+02  0.13973059589E+02 -0.35192940266E+02  0.50528856100E+02  0.29999988600E+02 0.  0.
        -12    1    1    2    0    0  0.14811365361E+02 -0.13973059589E+02  0.35192940266E+02  0.40659143900E+02  0.00000000000E+00 0.  1.
         11    1    3    3    0    0 -0.82879079957E+01  0.11543243849E+02 -0.31212894167E+02  0.34295490375E+02  0.51100000000E-03 0. -1.
        -11    1    3    3    0    0 -0.92673604266E+01  0.10289243361E+01 -0.71972622031E+01  0.11778931957E+02  0.51100000000E-03 0.  1.
        -12    1    3    3    0    0  0.27439030609E+01  0.14008914036E+01  0.32172161040E+01  0.44544337679E+01  0.00000000000E+00 0.  1.
</event>
<event>
 7    1  0.5839176E-013  0.5052887E+02  0.7816164E-02  0.1300439E+00
        -11   -1    0    0    0    0  0.00000000000E+00  0.00000000000E+00  0.45593999997E+02  0.45594000000E+02  0.51100000000E-03 0. -1.
         11   -1    0    0    0    0 -0.00000000000E+00 -0.00000000000E+00 -0.45593999997E+02  0.45594000000E+02  0.51100000000E-03 0.  1.
    9900012    2    1    2    0    0  0.28427036831E+02 -0.18180341479E+02 -0.22683562675E+02  0.50528865050E+02  0.30000015806E+02 0.  0.
        -12    1    1    2    0    0 -0.28427036831E+02  0.18180341479E+02  0.22683562675E+02  0.40659134950E+02  0.00000000000E+00 0.  1.
         11    1    3    3    0    0 -0.25948182757E+00 -0.68106471015E+01 -0.18982117312E+01  0.70749878302E+01  0.51100000000E-03 0. -1.
        -11    1    3    3    0    0  0.18677699926E+02 -0.15068487185E+02 -0.51827163023E+01  0.24551503602E+02  0.51100000000E-03 0.  1.
        -12    1    3    3    0    0  0.10008818732E+02  0.36987928077E+01 -0.15602634641E+02  0.18902373618E+02  0.00000000000E+00 0.  1.
</event>
<event>
 7    1  0.5839176E-013  0.5052886E+02  0.7816164E-02  0.1300439E+00
        -11   -1    0    0    0    0  0.00000000000E+00  0.00000000000E+00  0.45593999997E+02  0.45594000000E+02  0.51100000000E-03 0. -1.
         11   -1    0    0    0    0 -0.00000000000E+00 -0.00000000000E+00 -0.45593999997E+02  0.45594000000E+02  0.51100000000E-03 0.  1.
    9900012    2    1    2    0    0  0.35261559666E+02 -0.18302132207E+01 -0.20160323988E+02  0.50528856701E+02  0.29999990427E+02 0.  0.
        -12    1    1    2    0    0 -0.35261559666E+02  0.18302132207E+01  0.20160323988E+02  0.40659143299E+02  0.00000000000E+00 0.  1.
         11    1    3    3    0    0  0.24762448025E+02 -0.80867350528E+00 -0.20314203784E+02  0.32039033392E+02  0.51100000000E-03 0. -1.
        -11    1    3    3    0    0  0.62659134930E+01  0.60444455812E+01 -0.36208754928E+01  0.94290897695E+01  0.51100000000E-03 0.  1.
         12    1    3    3    0    0  0.42331981481E+01 -0.70659852967E+01  0.37747552888E+01  0.90607335390E+01  0.00000000000E+00 0. -1.
</event>
<event>
 7    1  0.5839176E-013  0.5052885E+02  0.7816164E-02  0.1300439E+00
        -11   -1    0    0    0    0  0.00000000000E+00  0.00000000000E+00  0.45593999997E+02  0.45594000000E+02  0.51100000000E-03 0.  1.
         11   -1    0    0    0    0 -0.00000000000E+00 -0.00000000000E+00 -0.45593999997E+02  0.45594000000E+02  0.51100000000E-03 0. -1.
    9900012    2    1    2    0    0 -0.25275902966E+02 -0.27254065968E+02 -0.16477594470E+02  0.50528849713E+02  0.29999969188E+02 0.  0.
        -12    1    1    2    0    0  0.25275902966E+02  0.27254065968E+02  0.16477594470E+02  0.40659150287E+02  0.00000000000E+00 0.  1.
         11    1    3    3    0    0 -0.50073129780E+01 -0.52067609731E+00 -0.83534121224E+01  0.97531421196E+01  0.51100000000E-03 0. -1.
        -11    1    3    3    0    0 -0.46434937265E+01  0.30553977921E+01 -0.40805421977E+01  0.68955285906E+01  0.51100000000E-03 0.  1.
         12    1    3    3    0    0 -0.15625096261E+02 -0.29788787663E+02 -0.40436401502E+01  0.33880179003E+02  0.00000000000E+00 0. -1.
</event>
<event>
 7    1  0.5839176E-013  0.5052883E+02  0.7816164E-02  0.1300439E+00
        -11   -1    0    0    0    0  0.00000000000E+00  0.00000000000E+00  0.45593999997E+02  0.45594000000E+02  0.51100000000E-03 0.  1.
         11   -1    0    0    0    0 -0.00000000000E+00 -0.00000000000E+00 -0.45593999997E+02  0.45594000000E+02  0.51100000000E-03 0. -1.
    9900012    2    1    2    0    0 -0.23805304813E+02 -0.87026787584E+01 -0.31792121969E+02  0.50528829151E+02  0.29999906687E+02 0.  0.
        -12    1    1    2    0    0  0.23805304813E+02  0.87026787584E+01  0.31792121969E+02  0.40659170849E+02  0.00000000000E+00 0.  1.
         11    1    3    3    0    0 -0.40688233759E+01 -0.27186404448E+01  0.23955342335E+01  0.54483863718E+01  0.51100000000E-03 0. -1.
        -11    1    3    3    0    0 -0.63135540829E+01 -0.67432911778E+01 -0.10226640131E+01  0.92940186686E+01  0.51100000000E-03 0.  1.
         12    1    3    3    0    0 -0.13422927354E+02  0.75925286415E+00 -0.33164992190E+02  0.35786424111E+02  0.00000000000E+00 0. -1.
</event>
<event>
 7    1  0.5839176E-013  0.5052887E+02  0.7816164E-02  0.1300439E+00
        -11   -1    0    0    0    0  0.00000000000E+00  0.00000000000E+00  0.45593999997E+02  0.45594000000E+02  0.51100000000E-03 0. -1.
         11   -1    0    0    0    0 -0.00000000000E+00 -0.00000000000E+00 -0.45593999997E+02  0.45594000000E+02  0.51100000000E-03 0.  1.
    9900012    2    1    2    0    0  0.34414008894E+02 -0.11489889158E+02  0.18352756618E+02  0.50528865276E+02  0.30000016492E+02 0.  0.
        -12    1    1    2    0    0 -0.34414008894E+02  0.11489889158E+02 -0.18352756618E+02  0.40659134724E+02  0.00000000000E+00 0.  1.
         11    1    3    3    0    0  0.85298107999E+01 -0.11679965831E+02  0.14083296367E+01  0.14531437187E+02  0.51100000000E-03 0. -1.
        -11    1    3    3    0    0 -0.10909279760E+01 -0.40955596059E+01  0.94320661983E+00  0.43420469048E+01  0.51100000000E-03 0.  1.
        -12    1    3    3    0    0  0.26975126070E+02  0.42856362790E+01  0.16001220361E+02  0.31655381184E+02  0.00000000000E+00 0.  1.
</event>
<event>
 7    1  0.5839176E-013  0.5052886E+02  0.7816164E-02  0.1300439E+00
        -11   -1    0    0    0    0  0.00000000000E+00  0.00000000000E+00  0.45593999997E+02  0.45594000000E+02  0.51100000000E-03 0.  1.
         11   -1    0    0    0    0 -0.00000000000E+00 -0.00000000000E+00 -0.45593999997E+02  0.45594000000E+02  0.51100000000E-03 0. -1.
    9900012    2    1    2    0    0 -0.10385543679E+02 -0.25054393464E+01 -0.39230453946E+02  0.50528864979E+02  0.30000015591E+02 0.  0.
        -12    1    1    2    0    0  0.10385543679E+02  0.25054393464E+01  0.39230453946E+02  0.40659135021E+02  0.00000000000E+00 0.  1.
         11    1    3    3    0    0 -0.13706365963E+02 -0.54562874573E+01 -0.18545925102E+02  0.23697824349E+02  0.51100000000E-03 0. -1.
        -11    1    3    3    0    0  0.36064529842E+01 -0.46131076024E+01 -0.12679924536E+01  0.59912494524E+01  0.51100000000E-03 0.  1.
        -12    1    3    3    0    0 -0.28563070038E+00  0.75639557133E+01 -0.19416536391E+02  0.20839791178E+02  0.00000000000E+00 0.  1.
</event>
<event>
 7    1  0.5839176E-013  0.5052887E+02  0.7816164E-02  0.1300439E+00
        -11   -1    0    0    0    0  0.00000000000E+00  0.00000000000E+00  0.45593999997E+02  0.45594000000E+02  0.51100000000E-03 0.  1.
         11   -1    0    0    0    0 -0.00000000000E+00 -0.00000000000E+00 -0.45593999997E+02  0.45594000000E+02  0.51100000000E-03 0. -1.
    9900012    2    1    2    0    0 -0.19602703057E+01 -0.12186156865E+01 -0.40593559545E+02  0.50528871131E+02  0.30000034290E+02 0.  0.
        -12    1    1    2    0    0  0.19602703057E+01  0.12186156865E+01  0.40593559545E+02  0.40659128869E+02  0.00000000000E+00 0.  1.
         11    1    3    3    0    0  0.40003341011E+01 -0.17086580096E+01 -0.80354734365E+01  0.91373419945E+01  0.51100000000E-03 0. -1.
        -11    1    3    3    0    0 -0.28898699815E+01 -0.24081610746E+00 -0.36345616284E+02  0.36461118526E+02  0.51100000000E-03 0.  1.
        -12    1    3    3    0    0 -0.30707344253E+01  0.73085843050E+00  0.37875301754E+01  0.49304106103E+01  0.00000000000E+00 0.  1.
</event>
<event>
 7    1  0.5839176E-013  0.5052886E+02  0.7816164E-02  0.1300439E+00
        -11   -1    0    0    0    0  0.00000000000E+00  0.00000000000E+00  0.45593999997E+02  0.45594000000E+02  0.51100000000E-03 0.  1.
         11   -1    0    0    0    0 -0.00000000000E+00 -0.00000000000E+00 -0.45593999997E+02  0.45594000000E+02  0.51100000000E-03 0. -1.
    9900012    2    1    2    0    0 -0.27601504488E+02 -0.12845964489E+02 -0.26950026436E+02  0.50528858610E+02  0.29999996231E+02 0.  0.
        -12    1    1    2    0    0  0.27601504488E+02  0.12845964489E+02  0.26950026436E+02  0.40659141390E+02  0.00000000000E+00 0.  1.
         11    1    3    3    0    0 -0.20107502352E+02 -0.34622242425E+01 -0.11324329789E+02  0.23335361428E+02  0.51100000000E-03 0. -1.
        -11    1    3    3    0    0 -0.26464980530E+01  0.57686993778E+01 -0.44150834588E+01  0.77314168602E+01  0.51100000000E-03 0.  1.
         12    1    3    3    0    0 -0.48475040839E+01 -0.15152439625E+02 -0.11210613188E+02  0.19462080322E+02  0.00000000000E+00 0. -1.
</event>
<event>
 7    1  0.5839176E-013  0.5052887E+02  0.7816164E-02  0.1300439E+00
        -11   -1    0    0    0    0  0.00000000000E+00  0.00000000000E+00  0.45593999997E+02  0.45594000000E+02  0.51100000000E-03 0.  1.
         11   -1    0    0    0    0 -0.00000000000E+00 -0.00000000000E+00 -0.45593999997E+02  0.45594000000E+02  0.51100000000E-03 0. -1.
    9900012    2    1    2    0    0  0.59814842382E+01 -0.25963307625E+02 -0.30713085611E+02  0.50528866657E+02  0.30000020689E+02 0.  0.
        -12    1    1    2    0    0 -0.59814842382E+01  0.25963307625E+02  0.30713085611E+02  0.40659133343E+02  0.00000000000E+00 0.  1.
         11    1    3    3    0    0  0.14384472283E+01 -0.16089084951E+02 -0.65570577553E+01  0.17433381532E+02  0.51100000000E-03 0. -1.
        -11    1    3    3    0    0  0.81365300483E+01 -0.12965970779E+02 -0.10297970932E+02  0.18449057565E+02  0.51100000000E-03 0.  1.
         12    1    3    3    0    0 -0.35934930383E+01  0.30917481045E+01 -0.13858056924E+02  0.14646427559E+02  0.00000000000E+00 0. -1.
</event>
<event>
 7    1  0.5839176E-013  0.5052886E+02  0.7816164E-02  0.1300439E+00
        -11   -1    0    0    0    0  0.00000000000E+00  0.00000000000E+00  0.45593999997E+02  0.45594000000E+02  0.51100000000E-03 0. -1.
         11   -1    0    0    0    0 -0.00000000000E+00 -0.00000000000E+00 -0.45593999997E+02  0.45594000000E+02  0.51100000000E-03 0.  1.
    9900012    2    1    2    0    0  0.33458827368E+02  0.21556119562E+02  0.83070168289E+01  0.50528856527E+02  0.29999989899E+02 0.  0.
        -12    1    1    2    0    0 -0.33458827368E+02 -0.21556119562E+02 -0.83070168289E+01  0.40659143473E+02  0.00000000000E+00 0.  1.
         11    1    3    3    0    0  0.25978894555E+02  0.11727435073E+02  0.12678920492E+02  0.31196004885E+02  0.51100000000E-03 0. -1.
        -11    1    3    3    0    0  0.11260825966E+02  0.79912995977E+01 -0.82525268517E+00  0.13832863512E+02  0.51100000000E-03 0.  1.
        -12    1    3    3    0    0 -0.37808931528E+01  0.18373848913E+01 -0.35466509778E+01  0.54999881300E+01  0.00000000000E+00 0.  1.
</event>
<event>
 7    1  0.5839176E-013  0.5052886E+02  0.7816164E-02  0.1300439E+00
        -11   -1    0    0    0    0  0.00000000000E+00  0.00000000000E+00  0.45593999997E+02  0.45594000000E+02  0.51100000000E-03 0.  1.
         11   -1    0    0    0    0 -0.00000000000E+00 -0.00000000000E+00 -0.45593999997E+02  0.45594000000E+02  0.51100000000E-03 0. -1.
    9900012    2    1    2    0    0 -0.38700083716E+02 -0.68096928330E+01  0.10444955956E+02  0.50528862023E+02  0.30000006604E+02 0.  0.
        -12    1    1    2    0    0  0.38700083716E+02  0.68096928330E+01 -0.10444955956E+02  0.40659137977E+02  0.00000000000E+00 0.  1.
         11    1    3    3    0    0 -0.34781077589E+01 -0.15829977705E+01 -0.40609008111E+01  0.55762022186E+01  0.51100000000E-03 0. -1.
        -11    1    3    3    0    0 -0.85924788955E+01  0.89236192495E+01  0.39344788289E+01  0.12997761269E+02  0.51100000000E-03 0.  1.
         12    1    3    3    0    0 -0.26629497062E+02 -0.14150314312E+02  0.10571377938E+02  0.31954898536E+02  0.00000000000E+00 0. -1.
</event>
<event>
 7    1  0.5839176E-013  0.5052888E+02  0.7816164E-02  0.1300439E+00
        -11   -1    0    0    0    0  0.00000000000E+00  0.00000000000E+00  0.45593999997E+02  0.45594000000E+02  0.51100000000E-03 0.  1.
         11   -1    0    0    0    0 -0.00000000000E+00 -0.00000000000E+00 -0.45593999997E+02  0.45594000000E+02  0.51100000000E-03 0. -1.
    9900012    2    1    2    0    0  0.15778252264E+02  0.66601865134E+01 -0.36876178818E+02  0.50528881796E+02  0.30000066707E+02 0.  0.
        -12    1    1    2    0    0 -0.15778252264E+02 -0.66601865134E+01  0.36876178818E+02  0.40659118204E+02  0.00000000000E+00 0.  1.
         11    1    3    3    0    0  0.23367339945E+01 -0.30670604550E+01 -0.72591349662E+01  0.82196244631E+01  0.51100000000E-03 0. -1.
        -11    1    3    3    0    0  0.56883010866E+01 -0.60301045154E+01 -0.21342739921E+02  0.22896101793E+02  0.51100000000E-03 0.  1.
        -12    1    3    3    0    0  0.77532171832E+01  0.15757351484E+02 -0.82743039306E+01  0.19413155540E+02  0.00000000000E+00 0.  1.
</event>
<event>
 7    1  0.5839176E-013  0.5052885E+02  0.7816164E-02  0.1300439E+00
        -11   -1    0    0    0    0  0.00000000000E+00  0.00000000000E+00  0.45593999997E+02  0.45594000000E+02  0.51100000000E-03 0.  1.
         11   -1    0    0    0    0 -0.00000000000E+00 -0.00000000000E+00 -0.45593999997E+02  0.45594000000E+02  0.51100000000E-03 0. -1.
    9900012    2    1    2    0    0 -0.25335454995E+02  0.14435825309E+02 -0.28335278113E+02  0.50528851978E+02  0.29999976071E+02 0.  0.
        -12    1    1    2    0    0  0.25335454995E+02 -0.14435825309E+02  0.28335278113E+02  0.40659148022E+02  0.00000000000E+00 0.  1.
         11    1    3    3    0    0 -0.21875442872E+02  0.60382282331E+01 -0.91838125225E+01  0.24481372791E+02  0.51100000000E-03 0.  1.
        -11    1    3    3    0    0 -0.91883995813E+01  0.43201062323E+01 -0.82855566739E+01  0.13104978229E+02  0.51100000000E-03 0. -1.
        -12    1    3    3    0    0  0.57283874580E+01  0.40774908436E+01 -0.10865908916E+02  0.12942500957E+02  0.00000000000E+00 0.  1.
</event>
<event>
 7    1  0.5839176E-013  0.5052886E+02  0.7816164E-02  0.1300439E+00
        -11   -1    0    0    0    0  0.00000000000E+00  0.00000000000E+00  0.45593999997E+02  0.45594000000E+02  0.51100000000E-03 0.  1.
         11   -1    0    0    0    0 -0.00000000000E+00 -0.00000000000E+00 -0.45593999997E+02  0.45594000000E+02  0.51100000000E-03 0. -1.
    9900012    2    1    2    0    0 -0.22984770961E+02 -0.20464526950E+02 -0.26571959786E+02  0.50528860729E+02  0.30000002671E+02 0.  0.
        -12    1    1    2    0    0  0.22984770961E+02  0.20464526950E+02  0.26571959786E+02  0.40659139271E+02  0.00000000000E+00 0.  1.
         11    1    3    3    0    0 -0.21873512379E+02 -0.15023936285E+02 -0.22625013209E+02  0.34872057988E+02  0.51100000000E-03 0. -1.
        -11    1    3    3    0    0 -0.50469586792E+01  0.53616372755E+00 -0.63307142945E+01  0.81140130141E+01  0.51100000000E-03 0.  1.
        -12    1    3    3    0    0  0.39357000980E+01 -0.59767543928E+01  0.23837677179E+01  0.75427897271E+01  0.00000000000E+00 0.  1.
</event>
<event>
 7    1  0.5839176E-013  0.5052886E+02  0.7816164E-02  0.1300439E+00
        -11   -1    0    0    0    0  0.00000000000E+00  0.00000000000E+00  0.45593999997E+02  0.45594000000E+02  0.51100000000E-03 0.  1.
         11   -1    0    0    0    0 -0.00000000000E+00 -0.00000000000E+00 -0.45593999997E+02  0.45594000000E+02  0.51100000000E-03 0. -1.
    9900012    2    1    2    0    0  0.13340808814E+02 -0.28085621125E+02 -0.26198971659E+02  0.50528863145E+02  0.30000010016E+02 0.  0.
        -12    1    1    2    0    0 -0.13340808814E+02  0.28085621125E+02  0.26198971659E+02  0.40659136855E+02  0.00000000000E+00 0.  1.
         11    1    3    3    0    0  0.44364769449E+01 -0.65168808226E+01 -0.18282582630E+02  0.19909919418E+02  0.51100000000E-03 0. -1.
        -11    1    3    3    0    0 -0.20055003271E+01 -0.34765091983E+01 -0.85897551986E+01  0.94811414081E+01  0.51100000000E-03 0.  1.
        -12    1    3    3    0    0  0.10909832196E+02 -0.18092231105E+02  0.67336617043E+00  0.21137802319E+02  0.00000000000E+00 0.  1.
</event>
<event>
 7    1  0.5839176E-013  0.5052886E+02  0.7816164E-02  0.1300439E+00
        -11   -1    0    0    0    0  0.00000000000E+00  0.00000000000E+00  0.45593999997E+02  0.45594000000E+02  0.51100000000E-03 0.  1.
         11   -1    0    0    0    0 -0.00000000000E+00 -0.00000000000E+00 -0.45593999997E+02  0.45594000000E+02  0.51100000000E-03 0. -1.
    9900012    2    1    2    0    0  0.20648815619E+02  0.33899013683E+02 -0.88118701276E+01  0.50528858712E+02  0.29999996540E+02 0.  0.
        -12    1    1    2    0    0 -0.20648815619E+02 -0.33899013683E+02  0.88118701276E+01  0.40659141288E+02  0.00000000000E+00 0.  1.
         11    1    3    3    0    0  0.14380278542E+02  0.13048047439E+02 -0.37246784421E+01  0.19771625696E+02  0.51100000000E-03 0. -1.
        -11    1    3    3    0    0  0.30999194100E+01 -0.32671385056E+01  0.26567744340E+01  0.52289716979E+01  0.51100000000E-03 0.  1.
         12    1    3    3    0    0  0.31686176670E+01  0.24118104750E+02 -0.77439661195E+01  0.25528261318E+02  0.00000000000E+00 0. -1.
</event>
<event>
 7    1  0.5839176E-013  0.5052890E+02  0.7816164E-02  0.1300439E+00
        -11   -1    0    0    0    0  0.00000000000E+00  0.00000000000E+00  0.45593999997E+02  0.45594000000E+02  0.51100000000E-03 0. -1.
         11   -1    0    0    0    0 -0.00000000000E+00 -0.00000000000E+00 -0.45593999997E+02  0.45594000000E+02  0.51100000000E-03 0.  1.
    9900012    2    1    2    0    0  0.29297955479E+02 -0.15550080545E+02  0.23515680124E+02  0.50528900011E+02  0.30000122075E+02 0.  0.
        -12    1    1    2    0    0 -0.29297955479E+02  0.15550080545E+02 -0.23515680124E+02  0.40659099989E+02  0.00000000000E+00 0.  1.
         11    1    3    3    0    0  0.59011409028E+01 -0.80156378874E+01  0.64812556638E+01  0.11877735051E+02  0.51100000000E-03 0. -1.
        -11    1    3    3    0    0  0.68939733815E+01 -0.13398632256E+02  0.14578134542E+02  0.20965977732E+02  0.51100000000E-03 0.  1.
        -12    1    3    3    0    0  0.16502841195E+02  0.58641895980E+01  0.24562899184E+01  0.17685187228E+02  0.00000000000E+00 0.  1.
</event>
<event>
 7    1  0.5839176E-013  0.5052886E+02  0.7816164E-02  0.1300439E+00
        -11   -1    0    0    0    0  0.00000000000E+00  0.00000000000E+00  0.45593999997E+02  0.45594000000E+02  0.51100000000E-03 0.  1.
         11   -1    0    0    0    0 -0.00000000000E+00 -0.00000000000E+00 -0.45593999997E+02  0.45594000000E+02  0.51100000000E-03 0. -1.
    9900012    2    1    2    0    0 -0.35261089058E+02  0.94325392608E+01 -0.17912248876E+02  0.50528857630E+02  0.29999993252E+02 0.  0.
        -12    1    1    2    0    0  0.35261089058E+02 -0.94325392608E+01  0.17912248876E+02  0.40659142370E+02  0.00000000000E+00 0.  1.
         11    1    3    3    0    0 -0.99877931421E+00 -0.14367536014E+01  0.24476905885E+01  0.30088221130E+01  0.51100000000E-03 0. -1.
        -11    1    3    3    0    0 -0.13403109906E+01 -0.30487237557E+01 -0.96475170632E+01  0.10206161660E+02  0.51100000000E-03 0.  1.
         12    1    3    3    0    0 -0.32921998753E+02  0.13918016618E+02 -0.10712422402E+02  0.37313873857E+02  0.00000000000E+00 0. -1.
</event>
<event>
 7    1  0.5839176E-013  0.5052886E+02  0.7816164E-02  0.1300439E+00
        -11   -1    0    0    0    0  0.00000000000E+00  0.00000000000E+00  0.45593999997E+02  0.45594000000E+02  0.51100000000E-03 0.  1.
         11   -1    0    0    0    0 -0.00000000000E+00 -0.00000000000E+00 -0.45593999997E+02  0.45594000000E+02  0.51100000000E-03 0. -1.
    9900012    2    1    2    0    0 -0.21258731573E+02 -0.17090891967E+02 -0.30151837407E+02  0.50528861355E+02  0.30000004576E+02 0.  0.
        -12    1    1    2    0    0  0.21258731573E+02  0.17090891967E+02  0.30151837407E+02  0.40659138645E+02  0.00000000000E+00 0.  1.
         11    1    3    3    0    0 -0.61344559527E+01  0.44659132453E+01 -0.32421268534E+00  0.75948038208E+01  0.51100000000E-03 0. -1.
        -11    1    3    3    0    0 -0.71329379069E+01  0.75351809836E+00 -0.64699097927E+01  0.96595199516E+01  0.51100000000E-03 0.  1.
        -12    1    3    3    0    0 -0.79913377133E+01 -0.22310323311E+02 -0.23357714929E+02  0.33274537583E+02  0.00000000000E+00 0.  1.
</event>
<event>
 7    1  0.5839176E-013  0.5052884E+02  0.7816164E-02  0.1300439E+00
        -11   -1    0    0    0    0  0.00000000000E+00  0.00000000000E+00  0.45593999997E+02  0.45594000000E+02  0.51100000000E-03 0. -1.
         11   -1    0    0    0    0 -0.00000000000E+00 -0.00000000000E+00 -0.45593999997E+02  0.45594000000E+02  0.51100000000E-03 0.  1.
    9900012    2    1    2    0    0 -0.29652626398E+02 -0.21410637749E+02  0.17761579429E+02  0.50528839101E+02  0.29999936933E+02 0.  0.
        -12    1    1    2    0    0  0.29652626398E+02  0.21410637749E+02 -0.17761579429E+02  0.40659160899E+02  0.00000000000E+00 0.  1.
         11    1    3    3    0    0 -0.16542214783E+02 -0.20006684914E+02  0.10655834776E+02  0.28061702126E+02  0.51100000000E-03 0. -1.
        -11    1    3    3    0    0 -0.36916637938E+01 -0.86577453065E+01  0.35397614969E+01  0.10055587853E+02  0.51100000000E-03 0.  1.
        -12    1    3    3    0    0 -0.94187478214E+01  0.72537924712E+01  0.35659831569E+01  0.12411549122E+02  0.00000000000E+00 0.  1.
</event>
<event>
 7    1  0.5839176E-013  0.5052886E+02  0.7816164E-02  0.1300439E+00
        -11   -1    0    0    0    0  0.00000000000E+00  0.00000000000E+00  0.45593999997E+02  0.45594000000E+02  0.51100000000E-03 0.  1.
         11   -1    0    0    0    0 -0.00000000000E+00 -0.00000000000E+00 -0.45593999997E+02  0.45594000000E+02  0.51100000000E-03 0. -1.
    9900012    2    1    2    0    0 -0.30150822251E+02  0.21877585545E+01  0.27190211478E+02  0.50528856254E+02  0.29999989070E+02 0.  0.
        -12    1    1    2    0    0  0.30150822251E+02 -0.21877585545E+01 -0.27190211478E+02  0.40659143746E+02  0.00000000000E+00 0.  1.
         11    1    3    3    0    0 -0.19977816401E+02  0.84062938408E+01  0.99512273165E+01  0.23849650933E+02  0.51100000000E-03 0. -1.
        -11    1    3    3    0    0  0.17400691993E+01  0.91566478915E+00  0.11478778450E+02  0.11645970882E+02  0.51100000000E-03 0.  1.
         12    1    3    3    0    0 -0.11913075050E+02 -0.71342000754E+01  0.57602057122E+01  0.15033234439E+02  0.00000000000E+00 0. -1.
</event>
<event>
 7    1  0.5839176E-013  0.5052888E+02  0.7816164E-02  0.1300439E+00
        -11   -1    0    0    0    0  0.00000000000E+00  0.00000000000E+00  0.45593999997E+02  0.45594000000E+02  0.51100000000E-03 0. -1.
         11   -1    0    0    0    0 -0.00000000000E+00 -0.00000000000E+00 -0.45593999997E+02  0.45594000000E+02  0.51100000000E-03 0.  1.
    9900012    2    1    2    0    0  0.21684163958E+02 -0.18268220556E+02  0.29141609848E+02  0.50528877119E+02  0.30000052492E+02 0.  0.
        -12    1    1    2    0    0 -0.21684163958E+02  0.18268220556E+02 -0.29141609848E+02  0.40659122881E+02  0.00000000000E+00 0.  1.
         11    1    3    3    0    0  0.10039804703E+02  0.14141050111E+01  0.11077490389E+02  0.15016929281E+02  0.51100000000E-03 0. -1.
        -11    1    3    3    0    0  0.13945354709E+02 -0.67626436773E+01  0.34640677026E+01  0.15880995963E+02  0.51100000000E-03 0.  1.
        -12    1    3    3    0    0 -0.23009954541E+01 -0.12919681890E+02  0.14600051757E+02  0.19630951875E+02  0.00000000000E+00 0.  1.
</event>
<event>
 7    1  0.5839176E-013  0.5052887E+02  0.7816164E-02  0.1300439E+00
        -11   -1    0    0    0    0  0.00000000000E+00  0.00000000000E+00  0.45593999997E+02  0.45594000000E+02  0.51100000000E-03 0.  1.
         11   -1    0    0    0    0 -0.00000000000E+00 -0.00000000000E+00 -0.45593999997E+02  0.45594000000E+02  0.51100000000E-03 0. -1.
    9900012    2    1    2    0    0 -0.36037933758E+00  0.45385072738E+01 -0.40403427972E+02  0.50528869249E+02  0.30000028568E+02 0.  0.
        -12    1    1    2    0    0  0.36037933758E+00 -0.45385072738E+01  0.40403427972E+02  0.40659130751E+02  0.00000000000E+00 0.  1.
         11    1    3    3    0    0  0.46787426642E+01  0.67270969685E+01 -0.18611799537E+02  0.20335770180E+02  0.51100000000E-03 0.  1.
        -11    1    3    3    0    0 -0.82081768630E+01 -0.47445582051E+00 -0.24398107160E+02  0.25746201836E+02  0.51100000000E-03 0. -1.
        -12    1    3    3    0    0  0.31690548612E+01 -0.17141338742E+01  0.26064787249E+01  0.44468972324E+01  0.00000000000E+00 0.  1.
</event>
<event>
 7    1  0.5839176E-013  0.5052884E+02  0.7816164E-02  0.1300439E+00
        -11   -1    0    0    0    0  0.00000000000E+00  0.00000000000E+00  0.45593999997E+02  0.45594000000E+02  0.51100000000E-03 0.  1.
         11   -1    0    0    0    0 -0.00000000000E+00 -0.00000000000E+00 -0.45593999997E+02  0.45594000000E+02  0.51100000000E-03 0. -1.
    9900012    2    1    2    0    0  0.14626454019E+02  0.37786892461E+02 -0.33741907464E+01  0.50528836676E+02  0.29999929561E+02 0.  0.
        -12    1    1    2    0    0 -0.14626454019E+02 -0.37786892461E+02  0.33741907464E+01  0.40659163324E+02  0.00000000000E+00 0.  1.
         11    1    3    3    0    0 -0.19683035575E+00 -0.10230103534E+01 -0.34400101955E+01  0.35942958668E+01  0.51100000000E-03 0. -1.
        -11    1    3    3    0    0  0.42738194640E+01 -0.13345608453E+00 -0.46450954240E+01  0.63134978496E+01  0.51100000000E-03 0.  1.
        -12    1    3    3    0    0  0.10549464911E+02  0.38943358899E+02  0.47109148730E+01  0.40621042960E+02  0.00000000000E+00 0.  1.
</event>
<event>
 7    1  0.5839176E-013  0.5052884E+02  0.7816164E-02  0.1300439E+00
        -11   -1    0    0    0    0  0.00000000000E+00  0.00000000000E+00  0.45593999997E+02  0.45594000000E+02  0.51100000000E-03 0.  1.
         11   -1    0    0    0    0 -0.00000000000E+00 -0.00000000000E+00 -0.45593999997E+02  0.45594000000E+02  0.51100000000E-03 0. -1.
    9900012    2    1    2    0    0  0.33064731523E+01 -0.40485812511E+02 -0.17702119682E+01  0.50528838305E+02  0.29999934511E+02 0.  0.
        -12    1    1    2    0    0 -0.33064731523E+01  0.40485812511E+02  0.17702119682E+01  0.40659161695E+02  0.00000000000E+00 0.  1.
         11    1    3    3    0    0  0.32245966419E+01 -0.72712986851E+01  0.15089315222E+01  0.80960905795E+01  0.51100000000E-03 0. -1.
        -11    1    3    3    0    0  0.77718780951E+01 -0.23433126815E+02 -0.11789001258E+02  0.27358619709E+02  0.51100000000E-03 0.  1.
        -12    1    3    3    0    0 -0.76900015847E+01 -0.97813870110E+01  0.85098577678E+01  0.15074128017E+02  0.00000000000E+00 0.  1.
</event>
<event>
 7    1  0.5839176E-013  0.5052886E+02  0.7816164E-02  0.1300439E+00
        -11   -1    0    0    0    0  0.00000000000E+00  0.00000000000E+00  0.45593999997E+02  0.45594000000E+02  0.51100000000E-03 0.  1.
         11   -1    0    0    0    0 -0.00000000000E+00 -0.00000000000E+00 -0.45593999997E+02  0.45594000000E+02  0.51100000000E-03 0. -1.
    9900012    2    1    2    0    0 -0.27477968379E+02 -0.20678432524E+02 -0.21691696141E+02  0.50528855895E+02  0.29999987978E+02 0.  0.
        -12    1    1    2    0    0  0.27477968379E+02  0.20678432524E+02  0.21691696141E+02  0.40659144105E+02  0.00000000000E+00 0.  1.
         11    1    3    3    0    0 -0.54604986806E+01 -0.26277761428E+01  0.49678140535E+01  0.78359064587E+01  0.51100000000E-03 0. -1.
        -11    1    3    3    0    0 -0.20175287177E+01  0.26979026213E+01 -0.71147008591E+01  0.78719800086E+01  0.51100000000E-03 0.  1.
         12    1    3    3    0    0 -0.19999940981E+02 -0.20748559003E+02 -0.19544809335E+02  0.34820969428E+02  0.00000000000E+00 0. -1.
</event>
<event>
 7    1  0.5839176E-013  0.5052886E+02  0.7816164E-02  0.1300439E+00
        -11   -1    0    0    0    0  0.00000000000E+00  0.00000000000E+00  0.45593999997E+02  0.45594000000E+02  0.51100000000E-03 0. -1.
         11   -1    0    0    0    0 -0.00000000000E+00 -0.00000000000E+00 -0.45593999997E+02  0.45594000000E+02  0.51100000000E-03 0.  1.
    9900012    2    1    2    0    0  0.30340800334E+02 -0.78463224761E+01  0.25904381723E+02  0.50528856702E+02  0.29999990430E+02 0.  0.
        -12    1    1    2    0    0 -0.30340800334E+02  0.78463224761E+01 -0.25904381723E+02  0.40659143298E+02  0.00000000000E+00 0.  1.
         11    1    3    3    0    0  0.32701113725E+02 -0.61086216446E+01  0.12331101819E+02  0.35478643852E+02  0.51100000000E-03 0. -1.
        -11    1    3    3    0    0  0.95847753032E-01  0.19010063294E+01  0.25279882279E+01  0.31644488616E+01  0.51100000000E-03 0.  1.
         12    1    3    3    0    0 -0.24561611440E+01 -0.36387071608E+01  0.11045291676E+02  0.11885763987E+02  0.00000000000E+00 0. -1.
</event>
<event>
 7    1  0.5839176E-013  0.5052886E+02  0.7816164E-02  0.1300439E+00
        -11   -1    0    0    0    0  0.00000000000E+00  0.00000000000E+00  0.45593999997E+02  0.45594000000E+02  0.51100000000E-03 0.  1.
         11   -1    0    0    0    0 -0.00000000000E+00 -0.00000000000E+00 -0.45593999997E+02  0.45594000000E+02  0.51100000000E-03 0. -1.
    9900012    2    1    2    0    0 -0.57487602640E+01 -0.19812119640E+02 -0.35037080175E+02  0.50528864293E+02  0.30000013506E+02 0.  0.
        -12    1    1    2    0    0  0.57487602640E+01  0.19812119640E+02  0.35037080175E+02  0.40659135707E+02  0.00000000000E+00 0.  1.
         11    1    3    3    0    0  0.59587357050E+01 -0.20216972566E+01 -0.16296424576E+01  0.64999635230E+01  0.51100000000E-03 0. -1.
        -11    1    3    3    0    0 -0.34026780668E+01 -0.10518247215E+01  0.19332971272E+01  0.40524302973E+01  0.51100000000E-03 0.  1.
         12    1    3    3    0    0 -0.83048179022E+01 -0.16738597662E+02 -0.35340734845E+02  0.39976470473E+02  0.00000000000E+00 0. -1.
</event>
<event>
 7    1  0.5839176E-013  0.5052886E+02  0.7816164E-02  0.1300439E+00
        -11   -1    0    0    0    0  0.00000000000E+00  0.00000000000E+00  0.45593999997E+02  0.45594000000E+02  0.51100000000E-03 0.  1.
         11   -1    0    0    0    0 -0.00000000000E+00 -0.00000000000E+00 -0.45593999997E+02  0.45594000000E+02  0.51100000000E-03 0. -1.
    9900012    2    1    2    0    0  0.14479091937E+02 -0.23701595248E+02 -0.29694374321E+02  0.50528860967E+02  0.30000003394E+02 0.  0.
        -12    1    1    2    0    0 -0.14479091937E+02  0.23701595248E+02  0.29694374321E+02  0.40659139033E+02  0.00000000000E+00 0.  1.
         11    1    3    3    0    0  0.81483976438E+01 -0.13980699100E+01 -0.35856657541E+01  0.90115471922E+01  0.51100000000E-03 0. -1.
        -11    1    3    3    0    0  0.12371318865E+02 -0.14498034646E+02 -0.75549903998E+01  0.20501717471E+02  0.51100000000E-03 0.  1.
        -12    1    3    3    0    0 -0.60406245722E+01 -0.78054906919E+01 -0.18553718167E+02  0.21015596303E+02  0.00000000000E+00 0.  1.
</event>
<event>
 7    1  0.5839176E-013  0.5052887E+02  0.7816164E-02  0.1300439E+00
        -11   -1    0    0    0    0  0.00000000000E+00  0.00000000000E+00  0.45593999997E+02  0.45594000000E+02  0.51100000000E-03 0. -1.
         11   -1    0    0    0    0 -0.00000000000E+00 -0.00000000000E+00 -0.45593999997E+02  0.45594000000E+02  0.51100000000E-03 0.  1.
    9900012    2    1    2    0    0 -0.35078259624E+02 -0.42273796843E+01  0.20119882506E+02  0.50528871759E+02  0.30000036198E+02 0.  0.
        -12    1    1    2    0    0  0.35078259624E+02  0.42273796843E+01 -0.20119882506E+02  0.40659128241E+02  0.00000000000E+00 0.  1.
         11    1    3    3    0    0 -0.26332613671E+02  0.52137865470E+01  0.42943118911E+01  0.27185128798E+02  0.51100000000E-03 0. -1.
        -11    1    3    3    0    0 -0.84690313731E+01 -0.84080546755E+01  0.58134113896E+01  0.13274623462E+02  0.51100000000E-03 0.  1.
        -12    1    3    3    0    0 -0.27661458039E+00 -0.10331115558E+01  0.10012159225E+02  0.10069119498E+02  0.00000000000E+00 0.  1.
</event>
<event>
 7    1  0.5839176E-013  0.5052887E+02  0.7816164E-02  0.1300439E+00
        -11   -1    0    0    0    0  0.00000000000E+00  0.00000000000E+00  0.45593999997E+02  0.45594000000E+02  0.51100000000E-03 0. -1.
         11   -1    0    0    0    0 -0.00000000000E+00 -0.00000000000E+00 -0.45593999997E+02  0.45594000000E+02  0.51100000000E-03 0.  1.
    9900012    2    1    2    0    0  0.11605474100E+02  0.38715991073E+02 -0.44215155243E+01  0.50528870725E+02  0.30000033057E+02 0.  0.
        -12    1    1    2    0    0 -0.11605474100E+02 -0.38715991073E+02  0.44215155243E+01  0.40659129275E+02  0.00000000000E+00 0.  1.
         11    1    3    3    0    0  0.98885717236E+01  0.23357940240E+02  0.27567516486E+01  0.25514249017E+02  0.51100000000E-03 0. -1.
        -11    1    3    3    0    0  0.33591686895E+01  0.65855444442E+01  0.57076779672E+01  0.93397536343E+01  0.51100000000E-03 0.  1.
        -12    1    3    3    0    0 -0.16422663133E+01  0.87725063887E+01 -0.12885945140E+02  0.15674868074E+02  0.00000000000E+00 0.  1.
</event>
<event>
 7    1  0.5839176E-013  0.5052885E+02  0.7816164E-02  0.1300439E+00
        -11   -1    0    0    0    0  0.00000000000E+00  0.00000000000E+00  0.45593999997E+02  0.45594000000E+02  0.51100000000E-03 0.  1.
         11   -1    0    0    0    0 -0.00000000000E+00 -0.00000000000E+00 -0.45593999997E+02  0.45594000000E+02  0.51100000000E-03 0. -1.
    9900012    2    1    2    0    0  0.27898277470E+02 -0.21110459474E+02  0.20717164528E+02  0.50528852308E+02  0.29999977074E+02 0.  0.
        -12    1    1    2    0    0 -0.27898277470E+02  0.21110459474E+02 -0.20717164528E+02  0.40659147692E+02  0.00000000000E+00 0.  1.
         11    1    3    3    0    0  0.25934325343E+02 -0.93655084312E+01  0.88868435724E+01  0.28970294581E+02  0.51100000000E-03 0. -1.
        -11    1    3    3    0    0 -0.31678041891E+00  0.23626530324E+01  0.53701257377E+01  0.58754344422E+01  0.51100000000E-03 0.  1.
        -12    1    3    3    0    0  0.22807325456E+01 -0.14107604075E+02  0.64601952180E+01  0.15683123284E+02  0.00000000000E+00 0.  1.
</event>
<event>
 7    1  0.6490857E-013  0.5052886E+02  0.7816164E-02  0.1300439E+00
        -11   -1    0    0    0    0  0.00000000000E+00  0.00000000000E+00  0.45593999997E+02  0.45594000000E+02  0.51100000000E-03 0.  1.
         11   -1    0    0    0    0 -0.00000000000E+00 -0.00000000000E+00 -0.45593999997E+02  0.45594000000E+02  0.51100000000E-03 0. -1.
    9900012    2    1    2    0    0 -0.14970904604E+02 -0.14449228246E+02 -0.34932182822E+02  0.50528861073E+02  0.30000003719E+02 0.  0.
        -12    1    1    2    0    0  0.14970904604E+02  0.14449228246E+02  0.34932182822E+02  0.40659138927E+02  0.00000000000E+00 0.  1.
         11    1    3    3    0    0 -0.90997134595E+01 -0.10589989615E+02 -0.20923019784E+02  0.25154033915E+02  0.51100000000E-03 0.  1.
        -11    1    3    3    0    0 -0.10333567120E+02 -0.45753498636E+00 -0.16307470350E+02  0.19311280050E+02  0.51100000000E-03 0. -1.
        -12    1    3    3    0    0  0.44623759755E+01 -0.34017036445E+01  0.22983073120E+01  0.60635471080E+01  0.00000000000E+00 0.  1.
</event>
<event>
 7    1  0.5839176E-013  0.5052887E+02  0.7816164E-02  0.1300439E+00
        -11   -1    0    0    0    0  0.00000000000E+00  0.00000000000E+00  0.45593999997E+02  0.45594000000E+02  0.51100000000E-03 0.  1.
         11   -1    0    0    0    0 -0.00000000000E+00 -0.00000000000E+00 -0.45593999997E+02  0.45594000000E+02  0.51100000000E-03 0. -1.
    9900012    2    1    2    0    0 -0.36996602218E+01 -0.38217396067E+02  0.13375650624E+02  0.50528869691E+02  0.30000029911E+02 0.  0.
        -12    1    1    2    0    0  0.36996602218E+01  0.38217396067E+02 -0.13375650624E+02  0.40659130309E+02  0.00000000000E+00 0.  1.
         11    1    3    3    0    0  0.39574043210E+01 -0.27143506092E+01  0.19052750863E+01  0.51632181442E+01  0.51100000000E-03 0. -1.
        -11    1    3    3    0    0  0.63879173124E+00 -0.31458724361E+01  0.11523127518E+02  0.11961899361E+02  0.51100000000E-03 0.  1.
         12    1    3    3    0    0 -0.82958562740E+01 -0.32357173022E+02 -0.52751980732E-01  0.33403752185E+02  0.00000000000E+00 0. -1.
</event>
<event>
 7    1  0.5839176E-013  0.5052886E+02  0.7816164E-02  0.1300439E+00
        -11   -1    0    0    0    0  0.00000000000E+00  0.00000000000E+00  0.45593999997E+02  0.45594000000E+02  0.51100000000E-03 0.  1.
         11   -1    0    0    0    0 -0.00000000000E+00 -0.00000000000E+00 -0.45593999997E+02  0.45594000000E+02  0.51100000000E-03 0. -1.
    9900012    2    1    2    0    0 -0.46412847866E+01  0.22175604794E+02 -0.33761909751E+02  0.50528861759E+02  0.30000005804E+02 0.  0.
        -12    1    1    2    0    0  0.46412847866E+01 -0.22175604794E+02  0.33761909751E+02  0.40659138241E+02  0.00000000000E+00 0.  1.
         11    1    3    3    0    0 -0.54018193410E+01  0.99227612198E+01 -0.21047185019E+02  0.23887755021E+02  0.51100000000E-03 0. -1.
        -11    1    3    3    0    0 -0.16344375067E+01 -0.63512927170E+00 -0.13400335845E+02  0.13514576434E+02  0.51100000000E-03 0.  1.
         12    1    3    3    0    0  0.23949720611E+01  0.12887972846E+02  0.68561111379E+00  0.13126530305E+02  0.00000000000E+00 0. -1.
</event>
<event>
 7    1  0.5839176E-013  0.5052886E+02  0.7816164E-02  0.1300439E+00
        -11   -1    0    0    0    0  0.00000000000E+00  0.00000000000E+00  0.45593999997E+02  0.45594000000E+02  0.51100000000E-03 0.  1.
         11   -1    0    0    0    0 -0.00000000000E+00 -0.00000000000E+00 -0.45593999997E+02  0.45594000000E+02  0.51100000000E-03 0. -1.
    9900012    2    1    2    0    0  0.24535702502E+02 -0.31676206907E+02 -0.69125068970E+01  0.50528861631E+02  0.30000005414E+02 0.  0.
        -12    1    1    2    0    0 -0.24535702502E+02  0.31676206907E+02  0.69125068970E+01  0.40659138369E+02  0.00000000000E+00 0.  1.
         11    1    3    3    0    0  0.22860462368E+02 -0.10150712428E+02 -0.34580520906E+00  0.25015141095E+02  0.51100000000E-03 0. -1.
        -11    1    3    3    0    0  0.29097333703E+01 -0.13788830155E+01 -0.40485137497E+01  0.51728454935E+01  0.51100000000E-03 0.  1.
         12    1    3    3    0    0 -0.12344932366E+01 -0.20146611463E+02 -0.25181879382E+01  0.20340875043E+02  0.00000000000E+00 0. -1.
</event>
<event>
 7    1  0.5839176E-013  0.5052885E+02  0.7816164E-02  0.1300439E+00
        -11   -1    0    0    0    0  0.00000000000E+00  0.00000000000E+00  0.45593999997E+02  0.45594000000E+02  0.51100000000E-03 0.  1.
         11   -1    0    0    0    0 -0.00000000000E+00 -0.00000000000E+00 -0.45593999997E+02  0.45594000000E+02  0.51100000000E-03 0. -1.
    9900012    2    1    2    0    0 -0.34422872864E+02  0.16121400098E+02 -0.14433729030E+02  0.50528852800E+02  0.29999978570E+02 0.  0.
        -12    1    1    2    0    0  0.34422872864E+02 -0.16121400098E+02  0.14433729030E+02  0.40659147200E+02  0.00000000000E+00 0.  1.
         11    1    3    3    0    0 -0.46113166670E+01 -0.13670062480E+01 -0.69865711982E+01  0.84820472090E+01  0.51100000000E-03 0. -1.
        -11    1    3    3    0    0 -0.52073748841E+01 -0.47753313900E+01  0.23546094259E+01  0.74474645939E+01  0.51100000000E-03 0.  1.
         12    1    3    3    0    0 -0.24604181313E+02  0.22263737736E+02 -0.98017672575E+01  0.34599340997E+02  0.00000000000E+00 0. -1.
</event>
<event>
 7    1  0.5839176E-013  0.5052885E+02  0.7816164E-02  0.1300439E+00
        -11   -1    0    0    0    0  0.00000000000E+00  0.00000000000E+00  0.45593999997E+02  0.45594000000E+02  0.51100000000E-03 0.  1.
         11   -1    0    0    0    0 -0.00000000000E+00 -0.00000000000E+00 -0.45593999997E+02  0.45594000000E+02  0.51100000000E-03 0. -1.
    9900012    2    1    2    0    0 -0.28989381533E+02  0.70718110993E+01 -0.27618322510E+02  0.50528849835E+02  0.29999969557E+02 0.  0.
        -12    1    1    2    0    0  0.28989381533E+02 -0.70718110993E+01  0.27618322510E+02  0.40659150165E+02  0.00000000000E+00 0.  1.
         11    1    3    3    0    0 -0.15484205702E+02 -0.46041706681E+01 -0.15584035561E+02  0.22445961294E+02  0.51100000000E-03 0. -1.
        -11    1    3    3    0    0 -0.17215862722E+02  0.99085329882E+01 -0.59411846506E+01  0.20733128817E+02  0.51100000000E-03 0.  1.
        -12    1    3    3    0    0  0.37106868904E+01  0.17674487792E+01 -0.60931022976E+01  0.73497597236E+01  0.00000000000E+00 0.  1.
</event>
<event>
 7    1  0.5839176E-013  0.5052886E+02  0.7816164E-02  0.1300439E+00
        -11   -1    0    0    0    0  0.00000000000E+00  0.00000000000E+00  0.45593999997E+02  0.45594000000E+02  0.51100000000E-03 0.  1.
         11   -1    0    0    0    0 -0.00000000000E+00 -0.00000000000E+00 -0.45593999997E+02  0.45594000000E+02  0.51100000000E-03 0. -1.
    9900012    2    1    2    0    0 -0.87089410031E+01 -0.39483436508E+02 -0.42869930829E+01  0.50528859311E+02  0.29999998363E+02 0.  0.
        -12    1    1    2    0    0  0.87089410031E+01  0.39483436508E+02  0.42869930829E+01  0.40659140689E+02  0.00000000000E+00 0.  1.
         11    1    3    3    0    0  0.31496671754E+01 -0.29939518151E+02 -0.89692520149E+01  0.31412459827E+02  0.51100000000E-03 0. -1.
        -11    1    3    3    0    0 -0.60295690764E+01 -0.45395948035E+01 -0.31198186630E+01  0.81668165756E+01  0.51100000000E-03 0.  1.
         12    1    3    3    0    0 -0.58290391021E+01 -0.50043235532E+01  0.78020775950E+01  0.10949582909E+02  0.00000000000E+00 0. -1.
</event>
<event>
 7    1  0.5839176E-013  0.5052885E+02  0.7816164E-02  0.1300439E+00
        -11   -1    0    0    0    0  0.00000000000E+00  0.00000000000E+00  0.45593999997E+02  0.45594000000E+02  0.51100000000E-03 0.  1.
         11   -1    0    0    0    0 -0.00000000000E+00 -0.00000000000E+00 -0.45593999997E+02  0.45594000000E+02  0.51100000000E-03 0. -1.
    9900012    2    1    2    0    0  0.48808316188E+01 -0.27160707700E+02 -0.29860339747E+02  0.50528850355E+02  0.29999971138E+02 0.  0.
        -12    1    1    2    0    0 -0.48808316188E+01  0.27160707700E+02  0.29860339747E+02  0.40659149645E+02  0.00000000000E+00 0.  1.
         11    1    3    3    0    0 -0.42841298230E+01 -0.38814532186E+01 -0.80629742601E+01  0.99212399229E+01  0.51100000000E-03 0. -1.
        -11    1    3    3    0    0 -0.49156844810E+01 -0.52540606519E+00  0.14599544776E+01  0.51547524468E+01  0.51100000000E-03 0.  1.
         12    1    3    3    0    0  0.14080645923E+02 -0.22753848416E+02 -0.23257319965E+02  0.35452857985E+02  0.00000000000E+00 0. -1.
</event>
<event>
 7    1  0.5839176E-013  0.5052886E+02  0.7816164E-02  0.1300439E+00
        -11   -1    0    0    0    0  0.00000000000E+00  0.00000000000E+00  0.45593999997E+02  0.45594000000E+02  0.51100000000E-03 0.  1.
         11   -1    0    0    0    0 -0.00000000000E+00 -0.00000000000E+00 -0.45593999997E+02  0.45594000000E+02  0.51100000000E-03 0. -1.
    9900012    2    1    2    0    0  0.15268126080E+02  0.80226159020E+01 -0.36819666369E+02  0.50528857468E+02  0.29999992759E+02 0.  0.
        -12    1    1    2    0    0 -0.15268126080E+02 -0.80226159020E+01  0.36819666369E+02  0.40659142532E+02  0.00000000000E+00 0.  1.
         11    1    3    3    0    0  0.74477865742E+01 -0.58616279367E+00 -0.11659720457E+02  0.13847822683E+02  0.51100000000E-03 0. -1.
        -11    1    3    3    0    0  0.13268706889E+02  0.13063838133E+02 -0.22381575043E+02  0.29114555654E+02  0.51100000000E-03 0.  1.
        -12    1    3    3    0    0 -0.54483673836E+01 -0.44550594374E+01 -0.27783708694E+01  0.75664791300E+01  0.00000000000E+00 0.  1.
</event>
<event>
 7    1  0.5839176E-013  0.5052886E+02  0.7816164E-02  0.1300439E+00
        -11   -1    0    0    0    0  0.00000000000E+00  0.00000000000E+00  0.45593999997E+02  0.45594000000E+02  0.51100000000E-03 0.  1.
         11   -1    0    0    0    0 -0.00000000000E+00 -0.00000000000E+00 -0.45593999997E+02  0.45594000000E+02  0.51100000000E-03 0. -1.
    9900012    2    1    2    0    0  0.11325336423E+01  0.83590094302E+01 -0.39774493850E+02  0.50528855492E+02  0.29999986754E+02 0.  0.
        -12    1    1    2    0    0 -0.11325336423E+01 -0.83590094302E+01  0.39774493850E+02  0.40659144508E+02  0.00000000000E+00 0.  1.
         11    1    3    3    0    0 -0.81998897336E+00 -0.36381306639E+00 -0.30151259116E+02  0.30164601247E+02  0.51100000000E-03 0. -1.
        -11    1    3    3    0    0 -0.64717182109E+01  0.25701872367E+01 -0.63685750282E+01  0.94365113884E+01  0.51100000000E-03 0.  1.
         12    1    3    3    0    0  0.84242408266E+01  0.61526352599E+01 -0.32546597058E+01  0.10927742857E+02  0.00000000000E+00 0. -1.
</event>
<event>
 7    1  0.5839176E-013  0.5052888E+02  0.7816164E-02  0.1300439E+00
        -11   -1    0    0    0    0  0.00000000000E+00  0.00000000000E+00  0.45593999997E+02  0.45594000000E+02  0.51100000000E-03 0.  1.
         11   -1    0    0    0    0 -0.00000000000E+00 -0.00000000000E+00 -0.45593999997E+02  0.45594000000E+02  0.51100000000E-03 0. -1.
    9900012    2    1    2    0    0 -0.14067575872E+02  0.35988764978E+02 -0.12652131960E+02  0.50528876316E+02  0.30000050051E+02 0.  0.
        -12    1    1    2    0    0  0.14067575872E+02 -0.35988764978E+02  0.12652131960E+02  0.40659123684E+02  0.00000000000E+00 0.  1.
         11    1    3    3    0    0  0.67169679274E+00  0.10058462160E+02 -0.87773172450E+01  0.13366567842E+02  0.51100000000E-03 0. -1.
        -11    1    3    3    0    0  0.60108957883E+00  0.14208808629E+02 -0.94409796859E+01  0.17069963357E+02  0.51100000000E-03 0.  1.
         12    1    3    3    0    0 -0.15340362244E+02  0.11721494190E+02  0.55661649709E+01  0.20092345117E+02  0.00000000000E+00 0. -1.
</event>
<event>
 7    1  0.5839176E-013  0.5052886E+02  0.7816164E-02  0.1300439E+00
        -11   -1    0    0    0    0  0.00000000000E+00  0.00000000000E+00  0.45593999997E+02  0.45594000000E+02  0.51100000000E-03 0.  1.
         11   -1    0    0    0    0 -0.00000000000E+00 -0.00000000000E+00 -0.45593999997E+02  0.45594000000E+02  0.51100000000E-03 0. -1.
    9900012    2    1    2    0    0 -0.34265865842E+02  0.21003240215E+02  0.61546775807E+01  0.50528859361E+02  0.29999998513E+02 0.  0.
        -12    1    1    2    0    0  0.34265865842E+02 -0.21003240215E+02 -0.61546775807E+01  0.40659140639E+02  0.00000000000E+00 0.  1.
         11    1    3    3    0    0  0.16131824534E+01  0.14863432941E+01  0.49257269861E+01  0.53920645970E+01  0.51100000000E-03 0. -1.
        -11    1    3    3    0    0 -0.26474964221E+01 -0.34141400828E+01 -0.17284292547E+01  0.46532846205E+01  0.51100000000E-03 0.  1.
         12    1    3    3    0    0 -0.33231551873E+02  0.22931037003E+02  0.29573798493E+01  0.40483510143E+02  0.00000000000E+00 0. -1.
</event>
<event>
 7    1  0.5839176E-013  0.5052886E+02  0.7816164E-02  0.1300439E+00
        -11   -1    0    0    0    0  0.00000000000E+00  0.00000000000E+00  0.45593999997E+02  0.45594000000E+02  0.51100000000E-03 0. -1.
         11   -1    0    0    0    0 -0.00000000000E+00 -0.00000000000E+00 -0.45593999997E+02  0.45594000000E+02  0.51100000000E-03 0.  1.
    9900012    2    1    2    0    0  0.47782308887E+01  0.40206247093E+02 -0.37137240792E+01  0.50528861516E+02  0.30000005063E+02 0.  0.
        -12    1    1    2    0    0 -0.47782308887E+01 -0.40206247093E+02  0.37137240792E+01  0.40659138484E+02  0.00000000000E+00 0.  1.
         11    1    3    3    0    0  0.77142917287E+01  0.26119934583E+02 -0.43932196731E+01  0.27587345992E+02  0.51100000000E-03 0. -1.
        -11    1    3    3    0    0  0.61312729667E+01  0.14062346060E+01  0.33485149368E+01  0.71261880766E+01  0.51100000000E-03 0.  1.
        -12    1    3    3    0    0 -0.90673338067E+01  0.12680077904E+02 -0.26690193429E+01  0.15815327448E+02  0.00000000000E+00 0.  1.
</event>
<event>
 7    1  0.5839176E-013  0.5052886E+02  0.7816164E-02  0.1300439E+00
        -11   -1    0    0    0    0  0.00000000000E+00  0.00000000000E+00  0.45593999997E+02  0.45594000000E+02  0.51100000000E-03 0. -1.
         11   -1    0    0    0    0 -0.00000000000E+00 -0.00000000000E+00 -0.45593999997E+02  0.45594000000E+02  0.51100000000E-03 0.  1.
    9900012    2    1    2    0    0 -0.95588731167E+01 -0.23684787580E+02  0.31635806132E+02  0.50528862680E+02  0.30000008602E+02 0.  0.
        -12    1    1    2    0    0  0.95588731167E+01  0.23684787580E+02 -0.31635806132E+02  0.40659137320E+02  0.00000000000E+00 0.  1.
         11    1    3    3    0    0 -0.27785438817E+01 -0.57457413665E+00  0.47948960599E+01  0.55714872366E+01  0.51100000000E-03 0.  1.
        -11    1    3    3    0    0  0.71045132670E+01  0.19926251742E+01  0.54667312083E+01  0.91831266032E+01  0.51100000000E-03 0. -1.
         12    1    3    3    0    0 -0.13884842502E+02 -0.25102838617E+02  0.21374178864E+02  0.35774248840E+02  0.00000000000E+00 0. -1.
</event>
<event>
 7    1  0.5839176E-013  0.5052886E+02  0.7816164E-02  0.1300439E+00
        -11   -1    0    0    0    0  0.00000000000E+00  0.00000000000E+00  0.45593999997E+02  0.45594000000E+02  0.51100000000E-03 0. -1.
         11   -1    0    0    0    0 -0.00000000000E+00 -0.00000000000E+00 -0.45593999997E+02  0.45594000000E+02  0.51100000000E-03 0.  1.
    9900012    2    1    2    0    0 -0.26337541527E+02  0.30900158471E+02 -0.21633351434E+01  0.50528857041E+02  0.29999991463E+02 0.  0.
        -12    1    1    2    0    0  0.26337541527E+02 -0.30900158471E+02  0.21633351434E+01  0.40659142959E+02  0.00000000000E+00 0.  1.
         11    1    3    3    0    0 -0.10643908214E+02  0.14274970473E+02 -0.45151236577E+01  0.18369918507E+02  0.51100000000E-03 0. -1.
        -11    1    3    3    0    0 -0.51774720566E+01  0.71670928473E+01 -0.10023310172E+02  0.13365634435E+02  0.51100000000E-03 0.  1.
        -12    1    3    3    0    0 -0.10516161257E+02  0.94580951504E+01  0.12375098687E+02  0.18793304099E+02  0.00000000000E+00 0.  1.
</event>
<event>
 7    1  0.5839176E-013  0.5052886E+02  0.7816164E-02  0.1300439E+00
        -11   -1    0    0    0    0  0.00000000000E+00  0.00000000000E+00  0.45593999997E+02  0.45594000000E+02  0.51100000000E-03 0.  1.
         11   -1    0    0    0    0 -0.00000000000E+00 -0.00000000000E+00 -0.45593999997E+02  0.45594000000E+02  0.51100000000E-03 0. -1.
    9900012    2    1    2    0    0  0.55069756183E+01  0.38193115445E+02  0.12811125837E+02  0.50528858431E+02  0.29999995688E+02 0.  0.
        -12    1    1    2    0    0 -0.55069756183E+01 -0.38193115445E+02 -0.12811125837E+02  0.40659141569E+02  0.00000000000E+00 0.  1.
         11    1    3    3    0    0  0.19532271466E+01  0.55281537916E+00  0.34644396139E+01  0.40153509472E+01  0.51100000000E-03 0. -1.
        -11    1    3    3    0    0  0.82948331284E+01  0.72804571263E+01  0.11207377130E+02  0.15729418775E+02  0.51100000000E-03 0.  1.
         12    1    3    3    0    0 -0.47410846567E+01  0.30359842940E+02 -0.18606909062E+01  0.30784088710E+02  0.00000000000E+00 0. -1.
</event>
<event>
 7    1  0.5839176E-013  0.5052886E+02  0.7816164E-02  0.1300439E+00
        -11   -1    0    0    0    0  0.00000000000E+00  0.00000000000E+00  0.45593999997E+02  0.45594000000E+02  0.51100000000E-03 0. -1.
         11   -1    0    0    0    0 -0.00000000000E+00 -0.00000000000E+00 -0.45593999997E+02  0.45594000000E+02  0.51100000000E-03 0.  1.
    9900012    2    1    2    0    0 -0.27639852389E+02  0.27070142335E+02 -0.12506468122E+02  0.50528858457E+02  0.29999995767E+02 0.  0.
        -12    1    1    2    0    0  0.27639852389E+02 -0.27070142335E+02  0.12506468122E+02  0.40659141543E+02  0.00000000000E+00 0.  1.
         11    1    3    3    0    0 -0.91633340494E+01  0.69440605028E+01  0.13648219890E+01  0.11577970741E+02  0.51100000000E-03 0. -1.
        -11    1    3    3    0    0 -0.46076903746E+01  0.19152948613E+02 -0.56659511831E+00  0.19707543770E+02  0.51100000000E-03 0.  1.
        -12    1    3    3    0    0 -0.13868827965E+02  0.97313321956E+00 -0.13304694992E+02  0.19243343946E+02  0.00000000000E+00 0.  1.
</event>
<event>
 7    1  0.5839176E-013  0.5052886E+02  0.7816164E-02  0.1300439E+00
        -11   -1    0    0    0    0  0.00000000000E+00  0.00000000000E+00  0.45593999997E+02  0.45594000000E+02  0.51100000000E-03 0.  1.
         11   -1    0    0    0    0 -0.00000000000E+00 -0.00000000000E+00 -0.45593999997E+02  0.45594000000E+02  0.51100000000E-03 0. -1.
    9900012    2    1    2    0    0  0.35238519509E+02  0.18222235174E+02 -0.89085805073E+01  0.50528856888E+02  0.29999990997E+02 0.  0.
        -12    1    1    2    0    0 -0.35238519509E+02 -0.18222235174E+02  0.89085805073E+01  0.40659143112E+02  0.00000000000E+00 0.  1.
         11    1    3    3    0    0  0.81231264798E+01  0.85582777394E+01 -0.11143246637E+02  0.16229641017E+02  0.51100000000E-03 0. -1.
        -11    1    3    3    0    0  0.60443020359E+01  0.93473515610E+01 -0.47442687168E+01  0.12100192322E+02  0.51100000000E-03 0.  1.
        -12    1    3    3    0    0  0.21071090993E+02  0.31660587350E+00  0.69789348468E+01  0.22199023549E+02  0.00000000000E+00 0.  1.
</event>
<event>
 7    1  0.5839176E-013  0.5052890E+02  0.7816164E-02  0.1300439E+00
        -11   -1    0    0    0    0  0.00000000000E+00  0.00000000000E+00  0.45593999997E+02  0.45594000000E+02  0.51100000000E-03 0. -1.
         11   -1    0    0    0    0 -0.00000000000E+00 -0.00000000000E+00 -0.45593999997E+02  0.45594000000E+02  0.51100000000E-03 0.  1.
    9900012    2    1    2    0    0  0.19133712530E+02  0.19575779467E+02  0.30064138212E+02  0.50528898886E+02  0.30000118655E+02 0.  0.
        -12    1    1    2    0    0 -0.19133712530E+02 -0.19575779467E+02 -0.30064138212E+02  0.40659101114E+02  0.00000000000E+00 0.  1.
         11    1    3    3    0    0  0.44161980394E+01  0.13412938426E+02  0.54793897950E+01  0.15147060280E+02  0.51100000000E-03 0. -1.
        -11    1    3    3    0    0  0.25587042991E+01 -0.70235420959E+01  0.64150196795E+01  0.98503598418E+01  0.51100000000E-03 0.  1.
         12    1    3    3    0    0  0.12158810192E+02  0.13186383137E+02  0.18169728738E+02  0.25531478765E+02  0.00000000000E+00 0. -1.
</event>
<event>
 7    1  0.5839176E-013  0.5052887E+02  0.7816164E-02  0.1300439E+00
        -11   -1    0    0    0    0  0.00000000000E+00  0.00000000000E+00  0.45593999997E+02  0.45594000000E+02  0.51100000000E-03 0.  1.
         11   -1    0    0    0    0 -0.00000000000E+00 -0.00000000000E+00 -0.45593999997E+02  0.45594000000E+02  0.51100000000E-03 0. -1.
    9900012    2    1    2    0    0  0.19967873870E+02  0.34421193840E+02 -0.83444923972E+01  0.50528866639E+02  0.30000020636E+02 0.  0.
        -12    1    1    2    0    0 -0.19967873870E+02 -0.34421193840E+02  0.83444923972E+01  0.40659133361E+02  0.00000000000E+00 0.  1.
         11    1    3    3    0    0  0.11362671975E+02  0.34341686142E+01  0.14626150806E+00  0.11871192913E+02  0.51100000000E-03 0. -1.
        -11    1    3    3    0    0  0.22287181047E+01 -0.13903881541E+01  0.27436422691E+01  0.37984124014E+01  0.51100000000E-03 0.  1.
         12    1    3    3    0    0  0.63764837905E+01  0.32377413380E+02 -0.11234396174E+02  0.34859261325E+02  0.00000000000E+00 0. -1.
</event>
<event>
 7    1  0.5839176E-013  0.5052885E+02  0.7816164E-02  0.1300439E+00
        -11   -1    0    0    0    0  0.00000000000E+00  0.00000000000E+00  0.45593999997E+02  0.45594000000E+02  0.51100000000E-03 0.  1.
         11   -1    0    0    0    0 -0.00000000000E+00 -0.00000000000E+00 -0.45593999997E+02  0.45594000000E+02  0.51100000000E-03 0. -1.
    9900012    2    1    2    0    0  0.17770609289E+02 -0.21742003497E+02 -0.29405056955E+02  0.50528847954E+02  0.29999963840E+02 0.  0.
        -12    1    1    2    0    0 -0.17770609289E+02  0.21742003497E+02  0.29405056955E+02  0.40659152046E+02  0.00000000000E+00 0.  1.
         11    1    3    3    0    0  0.34496704805E+01 -0.91836416692E+01 -0.85622461067E+01  0.13021196542E+02  0.51100000000E-03 0.  1.
        -11    1    3    3    0    0  0.46711577444E+01 -0.15442866430E+02 -0.22094863251E+02  0.27358450625E+02  0.51100000000E-03 0. -1.
        -12    1    3    3    0    0  0.96497810641E+01  0.28845046022E+01  0.12520524025E+01  0.10149200786E+02  0.00000000000E+00 0.  1.
</event>
<event>
 7    1  0.5839176E-013  0.5052891E+02  0.7816164E-02  0.1300439E+00
        -11   -1    0    0    0    0  0.00000000000E+00  0.00000000000E+00  0.45593999997E+02  0.45594000000E+02  0.51100000000E-03 0.  1.
         11   -1    0    0    0    0 -0.00000000000E+00 -0.00000000000E+00 -0.45593999997E+02  0.45594000000E+02  0.51100000000E-03 0. -1.
    9900012    2    1    2    0    0 -0.11062647281E+02 -0.28346134910E+02 -0.26968058480E+02  0.50528908675E+02  0.30000148409E+02 0.  0.
        -12    1    1    2    0    0  0.11062647281E+02  0.28346134910E+02  0.26968058480E+02  0.40659091325E+02  0.00000000000E+00 0.  1.
         11    1    3    3    0    0 -0.12251999931E+02 -0.52854815212E+01 -0.10977995787E+02  0.17279010648E+02  0.51100000000E-03 0. -1.
        -11    1    3    3    0    0 -0.40781155759E+01 -0.20071421676E+02 -0.56164021727E+01  0.21237630950E+02  0.51100000000E-03 0.  1.
         12    1    3    3    0    0  0.52674682256E+01 -0.29892317127E+01 -0.10373660520E+02  0.12012267077E+02  0.00000000000E+00 0. -1.
</event>
<event>
 7    1  0.5839176E-013  0.5052886E+02  0.7816164E-02  0.1300439E+00
        -11   -1    0    0    0    0  0.00000000000E+00  0.00000000000E+00  0.45593999997E+02  0.45594000000E+02  0.51100000000E-03 0. -1.
         11   -1    0    0    0    0 -0.00000000000E+00 -0.00000000000E+00 -0.45593999997E+02  0.45594000000E+02  0.51100000000E-03 0.  1.
    9900012    2    1    2    0    0 -0.40429496460E+02  0.13005534074E+01  0.41145909002E+01  0.50528862264E+02  0.30000007338E+02 0.  0.
        -12    1    1    2    0    0  0.40429496460E+02 -0.13005534074E+01 -0.41145909002E+01  0.40659137736E+02  0.00000000000E+00 0.  1.
         11    1    3    3    0    0  0.23111539053E+01 -0.86574472460E-01  0.58379342743E+01  0.62793633726E+01  0.51100000000E-03 0.  1.
        -11    1    3    3    0    0 -0.21808923403E+01  0.28968287801E+01 -0.25911710502E+00  0.36352510665E+01  0.51100000000E-03 0. -1.
        -12    1    3    3    0    0 -0.40559758025E+02 -0.15097009002E+01 -0.14642262691E+01  0.40614247825E+02  0.00000000000E+00 0.  1.
</event>
<event>
 7    1  0.5839176E-013  0.5052886E+02  0.7816164E-02  0.1300439E+00
        -11   -1    0    0    0    0  0.00000000000E+00  0.00000000000E+00  0.45593999997E+02  0.45594000000E+02  0.51100000000E-03 0. -1.
         11   -1    0    0    0    0 -0.00000000000E+00 -0.00000000000E+00 -0.45593999997E+02  0.45594000000E+02  0.51100000000E-03 0.  1.
    9900012    2    1    2    0    0  0.11938506211E+02 -0.38802676763E+02  0.22338745350E+01  0.50528857732E+02  0.29999993562E+02 0.  0.
        -12    1    1    2    0    0 -0.11938506211E+02  0.38802676763E+02 -0.22338745350E+01  0.40659142268E+02  0.00000000000E+00 0.  1.
         11    1    3    3    0    0  0.40971888809E+01 -0.99767285740E+01 -0.16586936631E+01  0.10912072887E+02  0.51100000000E-03 0. -1.
        -11    1    3    3    0    0  0.16263651237E+00 -0.12740190181E+02 -0.10655002552E+02  0.16609273799E+02  0.51100000000E-03 0.  1.
         12    1    3    3    0    0  0.76786808175E+01 -0.16085758008E+02  0.14547570750E+02  0.23007511046E+02  0.00000000000E+00 0. -1.
</event>
<event>
 7    1  0.5839176E-013  0.5052887E+02  0.7816164E-02  0.1300439E+00
        -11   -1    0    0    0    0  0.00000000000E+00  0.00000000000E+00  0.45593999997E+02  0.45594000000E+02  0.51100000000E-03 0.  1.
         11   -1    0    0    0    0 -0.00000000000E+00 -0.00000000000E+00 -0.45593999997E+02  0.45594000000E+02  0.51100000000E-03 0. -1.
    9900012    2    1    2    0    0  0.20625324504E+02  0.76421882465E+01 -0.34195875920E+02  0.50528868405E+02  0.30000026004E+02 0.  0.
        -12    1    1    2    0    0 -0.20625324504E+02 -0.76421882465E+01  0.34195875920E+02  0.40659131595E+02  0.00000000000E+00 0.  1.
         11    1    3    3    0    0  0.13488723477E+02 -0.39547526266E+01 -0.19095656292E+02  0.23711385848E+02  0.51100000000E-03 0. -1.
        -11    1    3    3    0    0  0.34380818818E+01  0.53021114546E+01  0.32226968846E+01  0.70935582308E+01  0.51100000000E-03 0.  1.
         12    1    3    3    0    0  0.36985191457E+01  0.62948294186E+01 -0.18322916513E+02  0.19723924326E+02  0.00000000000E+00 0. -1.
</event>
<event>
 7    1  0.5839176E-013  0.5052886E+02  0.7816164E-02  0.1300439E+00
        -11   -1    0    0    0    0  0.00000000000E+00  0.00000000000E+00  0.45593999997E+02  0.45594000000E+02  0.51100000000E-03 0.  1.
         11   -1    0    0    0    0 -0.00000000000E+00 -0.00000000000E+00 -0.45593999997E+02  0.45594000000E+02  0.51100000000E-03 0. -1.
    9900012    2    1    2    0    0  0.39483860677E+01 -0.35779153944E+02 -0.18905772883E+02  0.50528857635E+02  0.29999993269E+02 0.  0.
        -12    1    1    2    0    0 -0.39483860677E+01  0.35779153944E+02  0.18905772883E+02  0.40659142365E+02  0.00000000000E+00 0.  1.
         11    1    3    3    0    0  0.18035868782E+01 -0.37363401166E+01 -0.43059662636E+01  0.59795074060E+01  0.51100000000E-03 0. -1.
        -11    1    3    3    0    0  0.72408005002E+01 -0.33876030117E+02 -0.72034910083E+01  0.35382268036E+02  0.51100000000E-03 0.  1.
        -12    1    3    3    0    0 -0.50960013107E+01  0.18332162896E+01 -0.73963156115E+01  0.91670821938E+01  0.00000000000E+00 0.  1.
</event>
<event>
 7    1  0.5839176E-013  0.5052876E+02  0.7816164E-02  0.1300439E+00
        -11   -1    0    0    0    0  0.00000000000E+00  0.00000000000E+00  0.45593999997E+02  0.45594000000E+02  0.51100000000E-03 0.  1.
         11   -1    0    0    0    0 -0.00000000000E+00 -0.00000000000E+00 -0.45593999997E+02  0.45594000000E+02  0.51100000000E-03 0. -1.
    9900012    2    1    2    0    0  0.32074897534E+02  0.24543738331E+02  0.46882126150E+01  0.50528763895E+02  0.29999708334E+02 0.  0.
        -12    1    1    2    0    0 -0.32074897534E+02 -0.24543738331E+02 -0.46882126150E+01  0.40659236105E+02  0.00000000000E+00 0.  1.
         11    1    3    3    0    0 -0.17853174135E+01  0.47865155036E+01 -0.49388469634E+01  0.71056525754E+01  0.51100000000E-03 0. -1.
        -11    1    3    3    0    0 -0.59026551764E+00 -0.61171860014E+00 -0.16387433372E+01  0.18461021134E+01  0.51100000000E-03 0.  1.
         12    1    3    3    0    0  0.34450480466E+02  0.20368941428E+02  0.11265802915E+02  0.41577009206E+02  0.00000000000E+00 0. -1.
</event>
<event>
 7    1  0.5839176E-013  0.5052886E+02  0.7816164E-02  0.1300439E+00
        -11   -1    0    0    0    0  0.00000000000E+00  0.00000000000E+00  0.45593999997E+02  0.45594000000E+02  0.51100000000E-03 0. -1.
         11   -1    0    0    0    0 -0.00000000000E+00 -0.00000000000E+00 -0.45593999997E+02  0.45594000000E+02  0.51100000000E-03 0.  1.
    9900012    2    1    2    0    0  0.38790834945E+02  0.92415327962E+00  0.12148372568E+02  0.50528857227E+02  0.29999992027E+02 0.  0.
        -12    1    1    2    0    0 -0.38790834945E+02 -0.92415327962E+00 -0.12148372568E+02  0.40659142773E+02  0.00000000000E+00 0.  1.
         11    1    3    3    0    0  0.61646854906E+01  0.41141557670E+00  0.15636114063E+02  0.16812515374E+02  0.51100000000E-03 0. -1.
        -11    1    3    3    0    0  0.28390510455E+01  0.23265714030E+01  0.31889715825E-02  0.36705797584E+01  0.51100000000E-03 0.  1.
         12    1    3    3    0    0  0.29787098409E+02 -0.18138337001E+01 -0.34909304663E+01  0.30045762094E+02  0.00000000000E+00 0. -1.
</event>
<event>
 7    1  0.5839176E-013  0.5052886E+02  0.7816164E-02  0.1300439E+00
        -11   -1    0    0    0    0  0.00000000000E+00  0.00000000000E+00  0.45593999997E+02  0.45594000000E+02  0.51100000000E-03 0.  1.
         11   -1    0    0    0    0 -0.00000000000E+00 -0.00000000000E+00 -0.45593999997E+02  0.45594000000E+02  0.51100000000E-03 0. -1.
    9900012    2    1    2    0    0 -0.12648409177E+02  0.15767703399E+02 -0.35278365646E+02  0.50528858250E+02  0.29999995137E+02 0.  0.
        -12    1    1    2    0    0  0.12648409177E+02 -0.15767703399E+02  0.35278365646E+02  0.40659141750E+02  0.00000000000E+00 0.  1.
         11    1    3    3    0    0 -0.42177454567E+01  0.17071781358E+02 -0.80827908254E+01  0.19353723240E+02  0.51100000000E-03 0. -1.
        -11    1    3    3    0    0 -0.42391242362E+01  0.37929439156E+01 -0.37369551550E+01  0.68059850080E+01  0.51100000000E-03 0.  1.
        -12    1    3    3    0    0 -0.41915394839E+01 -0.50970218739E+01 -0.23458619665E+02  0.24369150002E+02  0.00000000000E+00 0.  1.
</event>
<event>
 7    1  0.5839176E-013  0.5052886E+02  0.7816164E-02  0.1300439E+00
        -11   -1    0    0    0    0  0.00000000000E+00  0.00000000000E+00  0.45593999997E+02  0.45594000000E+02  0.51100000000E-03 0. -1.
         11   -1    0    0    0    0 -0.00000000000E+00 -0.00000000000E+00 -0.45593999997E+02  0.45594000000E+02  0.51100000000E-03 0.  1.
    9900012    2    1    2    0    0 -0.25439617381E+00  0.33476554066E+02  0.23074249636E+02  0.50528863440E+02  0.30000010911E+02 0.  0.
        -12    1    1    2    0    0  0.25439617381E+00 -0.33476554066E+02 -0.23074249636E+02  0.40659136560E+02  0.00000000000E+00 0.  1.
         11    1    3    3    0    0  0.79859162502E+01  0.44698056255E+01 -0.47227495358E+00  0.91639000746E+01  0.51100000000E-03 0. -1.
        -11    1    3    3    0    0  0.38291034610E+01  0.12393457464E+02  0.57386129573E+01  0.14184198961E+02  0.51100000000E-03 0.  1.
         12    1    3    3    0    0 -0.12069415885E+02  0.16613290977E+02  0.17807911633E+02  0.27180764404E+02  0.00000000000E+00 0. -1.
</event>
<event>
 7    1  0.5839176E-013  0.5052887E+02  0.7816164E-02  0.1300439E+00
        -11   -1    0    0    0    0  0.00000000000E+00  0.00000000000E+00  0.45593999997E+02  0.45594000000E+02  0.51100000000E-03 0.  1.
         11   -1    0    0    0    0 -0.00000000000E+00 -0.00000000000E+00 -0.45593999997E+02  0.45594000000E+02  0.51100000000E-03 0. -1.
    9900012    2    1    2    0    0 -0.14603330623E+02 -0.32783464009E+02 -0.19108958929E+02  0.50528867089E+02  0.30000022004E+02 0.  0.
        -12    1    1    2    0    0  0.14603330623E+02  0.32783464009E+02  0.19108958929E+02  0.40659132911E+02  0.00000000000E+00 0.  1.
         11    1    3    3    0    0  0.34775315235E+01 -0.11613283863E+01 -0.58652632333E+01  0.69168795114E+01  0.51100000000E-03 0. -1.
        -11    1    3    3    0    0 -0.75330457243E+01 -0.22286011787E+01  0.30025572889E+01  0.84100411195E+01  0.51100000000E-03 0.  1.
         12    1    3    3    0    0 -0.10547816422E+02 -0.29393534444E+02 -0.16246252984E+02  0.35201946458E+02  0.00000000000E+00 0. -1.
</event>
<event>
 7    1  0.5839176E-013  0.5052886E+02  0.7816164E-02  0.1300439E+00
        -11   -1    0    0    0    0  0.00000000000E+00  0.00000000000E+00  0.45593999997E+02  0.45594000000E+02  0.51100000000E-03 0. -1.
         11   -1    0    0    0    0 -0.00000000000E+00 -0.00000000000E+00 -0.45593999997E+02  0.45594000000E+02  0.51100000000E-03 0.  1.
    9900012    2    1    2    0    0 -0.29520840365E+02 -0.20438461743E+02 -0.19077600112E+02  0.50528861294E+02  0.30000004388E+02 0.  0.
        -12    1    1    2    0    0  0.29520840365E+02  0.20438461743E+02  0.19077600112E+02  0.40659138706E+02  0.00000000000E+00 0.  1.
         11    1    3    3    0    0 -0.14259237827E+02 -0.69329519085E+01 -0.11482879811E+02  0.19576726350E+02  0.51100000000E-03 0. -1.
        -11    1    3    3    0    0 -0.16281136206E+02 -0.25265295721E+00 -0.67704880372E+01  0.17634589255E+02  0.51100000000E-03 0.  1.
        -12    1    3    3    0    0  0.10195336683E+01 -0.13252856878E+02 -0.82423226385E+00  0.13317545688E+02  0.00000000000E+00 0.  1.
</event>
<event>
 7    1  0.5839176E-013  0.5052885E+02  0.7816164E-02  0.1300439E+00
        -11   -1    0    0    0    0  0.00000000000E+00  0.00000000000E+00  0.45593999997E+02  0.45594000000E+02  0.51100000000E-03 0.  1.
         11   -1    0    0    0    0 -0.00000000000E+00 -0.00000000000E+00 -0.45593999997E+02  0.45594000000E+02  0.51100000000E-03 0. -1.
    9900012    2    1    2    0    0  0.18533466776E+02  0.51736755731E+01 -0.35817739441E+02  0.50528846439E+02  0.29999959235E+02 0.  0.
        -12    1    1    2    0    0 -0.18533466776E+02 -0.51736755731E+01  0.35817739441E+02  0.40659153561E+02  0.00000000000E+00 0.  1.
         11    1    3    3    0    0  0.82762311615E+01 -0.44156477373E+00 -0.82297593407E+01  0.11679893867E+02  0.51100000000E-03 0. -1.
        -11    1    3    3    0    0  0.14833219690E+02 -0.43678861283E+01 -0.11084230094E+02  0.19025325034E+02  0.51100000000E-03 0.  1.
         12    1    3    3    0    0 -0.45759840753E+01  0.99831264752E+01 -0.16503750006E+02  0.19823627537E+02  0.00000000000E+00 0. -1.
</event>
<event>
 7    1  0.5839176E-013  0.5052886E+02  0.7816164E-02  0.1300439E+00
        -11   -1    0    0    0    0  0.00000000000E+00  0.00000000000E+00  0.45593999997E+02  0.45594000000E+02  0.51100000000E-03 0. -1.
         11   -1    0    0    0    0 -0.00000000000E+00 -0.00000000000E+00 -0.45593999997E+02  0.45594000000E+02  0.51100000000E-03 0.  1.
    9900012    2    1    2    0    0  0.34962581759E+02  0.20455333986E+02  0.35160887218E+01  0.50528859679E+02  0.29999999480E+02 0.  0.
        -12    1    1    2    0    0 -0.34962581759E+02 -0.20455333986E+02 -0.35160887218E+01  0.40659140321E+02  0.00000000000E+00 0.  1.
         11    1    3    3    0    0  0.27927581519E+02  0.53922811653E+01 -0.11690794470E+01  0.28467406848E+02  0.51100000000E-03 0. -1.
        -11    1    3    3    0    0  0.86816034123E+01  0.27510613631E+01  0.25533751206E+01  0.94582398574E+01  0.51100000000E-03 0.  1.
        -12    1    3    3    0    0 -0.16466031716E+01  0.12311991457E+02  0.21317930482E+01  0.12603212973E+02  0.00000000000E+00 0.  1.
</event>
<event>
 7    1  0.5839176E-013  0.5052884E+02  0.7816164E-02  0.1300439E+00
        -11   -1    0    0    0    0  0.00000000000E+00  0.00000000000E+00  0.45593999997E+02  0.45594000000E+02  0.51100000000E-03 0. -1.
         11   -1    0    0    0    0 -0.00000000000E+00 -0.00000000000E+00 -0.45593999997E+02  0.45594000000E+02  0.51100000000E-03 0.  1.
    9900012    2    1    2    0    0 -0.16515962778E+02 -0.33368789882E+02  0.16337510363E+02  0.50528838553E+02  0.29999935267E+02 0.  0.
        -12    1    1    2    0    0  0.16515962778E+02  0.33368789882E+02 -0.16337510363E+02  0.40659161447E+02  0.00000000000E+00 0.  1.
         11    1    3    3    0    0  0.22819273013E+01 -0.13039268798E+01  0.82146386114E+01  0.86248307400E+01  0.51100000000E-03 0. -1.
        -11    1    3    3    0    0 -0.51042193534E+01  0.87999549968E+00  0.26206886085E+01  0.58047787496E+01  0.51100000000E-03 0.  1.
        -12    1    3    3    0    0 -0.13693670726E+02 -0.32944858502E+02  0.55021831431E+01  0.36099229064E+02  0.00000000000E+00 0.  1.
</event>
<event>
 7    1  0.5839176E-013  0.5052886E+02  0.7816164E-02  0.1300439E+00
        -11   -1    0    0    0    0  0.00000000000E+00  0.00000000000E+00  0.45593999997E+02  0.45594000000E+02  0.51100000000E-03 0.  1.
         11   -1    0    0    0    0 -0.00000000000E+00 -0.00000000000E+00 -0.45593999997E+02  0.45594000000E+02  0.51100000000E-03 0. -1.
    9900012    2    1    2    0    0 -0.38572965565E+01  0.66998099257E+01 -0.39917405722E+02  0.50528862412E+02  0.30000007788E+02 0.  0.
        -12    1    1    2    0    0  0.38572965565E+01 -0.66998099257E+01  0.39917405722E+02  0.40659137588E+02  0.00000000000E+00 0.  1.
         11    1    3    3    0    0  0.37486753848E+00  0.57104029279E+01 -0.68404430776E+01  0.89185698982E+01  0.51100000000E-03 0. -1.
        -11    1    3    3    0    0 -0.12883607923E+02  0.94702868983E+00 -0.82719028425E+01  0.15339771620E+02  0.51100000000E-03 0.  1.
         12    1    3    3    0    0  0.86514438283E+01  0.42378307938E-01 -0.24805059802E+02  0.26270520894E+02  0.00000000000E+00 0. -1.
</event>
<event>
 7    1  0.5839176E-013  0.5052887E+02  0.7816164E-02  0.1300439E+00
        -11   -1    0    0    0    0  0.00000000000E+00  0.00000000000E+00  0.45593999997E+02  0.45594000000E+02  0.51100000000E-03 0.  1.
         11   -1    0    0    0    0 -0.00000000000E+00 -0.00000000000E+00 -0.45593999997E+02  0.45594000000E+02  0.51100000000E-03 0. -1.
    9900012    2    1    2    0    0  0.34614581023E+01 -0.29772882372E+02 -0.27472875073E+02  0.50528867180E+02  0.30000022279E+02 0.  0.
        -12    1    1    2    0    0 -0.34614581023E+01  0.29772882372E+02  0.27472875073E+02  0.40659132820E+02  0.00000000000E+00 0.  1.
         11    1    3    3    0    0  0.48524323846E+01 -0.18451811838E+02 -0.10670007082E+02  0.21860112341E+02  0.51100000000E-03 0.  1.
        -11    1    3    3    0    0  0.55634781335E+01 -0.14147000517E+02 -0.82761630075E+01  0.17308517757E+02  0.51100000000E-03 0. -1.
        -12    1    3    3    0    0 -0.69544524158E+01  0.28259299835E+01 -0.85267049832E+01  0.11360237081E+02  0.00000000000E+00 0.  1.
</event>
<event>
 7    1  0.5839176E-013  0.5052886E+02  0.7816164E-02  0.1300439E+00
        -11   -1    0    0    0    0  0.00000000000E+00  0.00000000000E+00  0.45593999997E+02  0.45594000000E+02  0.51100000000E-03 0.  1.
         11   -1    0    0    0    0 -0.00000000000E+00 -0.00000000000E+00 -0.45593999997E+02  0.45594000000E+02  0.51100000000E-03 0. -1.
    9900012    2    1    2    0    0  0.10271133269E+02 -0.38992107553E+02 -0.52235170828E+01  0.50528858829E+02  0.29999996896E+02 0.  0.
        -12    1    1    2    0    0 -0.10271133269E+02  0.38992107553E+02  0.52235170828E+01  0.40659141171E+02  0.00000000000E+00 0.  1.
         11    1    3    3    0    0  0.84498213311E+01 -0.12802992414E+02 -0.11216012903E+02  0.19003027153E+02  0.51100000000E-03 0. -1.
        -11    1    3    3    0    0  0.53319812833E+01 -0.10861341346E+01 -0.15515012818E+00  0.54436920915E+01  0.51100000000E-03 0.  1.
         12    1    3    3    0    0 -0.35106693457E+01 -0.25102981005E+02  0.61476459485E+01  0.26082139584E+02  0.00000000000E+00 0. -1.
</event>
<event>
 7    1  0.5839176E-013  0.5052886E+02  0.7816164E-02  0.1300439E+00
        -11   -1    0    0    0    0  0.00000000000E+00  0.00000000000E+00  0.45593999997E+02  0.45594000000E+02  0.51100000000E-03 0. -1.
         11   -1    0    0    0    0 -0.00000000000E+00 -0.00000000000E+00 -0.45593999997E+02  0.45594000000E+02  0.51100000000E-03 0.  1.
    9900012    2    1    2    0    0 -0.36472131361E+02  0.79655978632E+01  0.16108965242E+02  0.50528857406E+02  0.29999992570E+02 0.  0.
        -12    1    1    2    0    0  0.36472131361E+02 -0.79655978632E+01 -0.16108965242E+02  0.40659142594E+02  0.00000000000E+00 0.  1.
         11    1    3    3    0    0 -0.14713607914E+02  0.95269381930E+01 -0.35772485999E+01  0.17889927808E+02  0.51100000000E-03 0.  1.
        -11    1    3    3    0    0 -0.80426472970E-01  0.55611022255E+00 -0.18950903308E+01  0.19766371999E+01  0.51100000000E-03 0. -1.
         12    1    3    3    0    0 -0.21678096974E+02 -0.21174505524E+01  0.21581304173E+02  0.30662292397E+02  0.00000000000E+00 0. -1.
</event>
<event>
 7    1  0.5839176E-013  0.5052885E+02  0.7816164E-02  0.1300439E+00
        -11   -1    0    0    0    0  0.00000000000E+00  0.00000000000E+00  0.45593999997E+02  0.45594000000E+02  0.51100000000E-03 0.  1.
         11   -1    0    0    0    0 -0.00000000000E+00 -0.00000000000E+00 -0.45593999997E+02  0.45594000000E+02  0.51100000000E-03 0. -1.
    9900012    2    1    2    0    0  0.35232141194E+02 -0.10441929299E+02 -0.17401979434E+02  0.50528849138E+02  0.29999967439E+02 0.  0.
        -12    1    1    2    0    0 -0.35232141194E+02  0.10441929299E+02  0.17401979434E+02  0.40659150862E+02  0.00000000000E+00 0.  1.
         11    1    3    3    0    0  0.86732431876E+01 -0.16218492800E+01 -0.34470126857E+01  0.94729847036E+01  0.51100000000E-03 0. -1.
        -11    1    3    3    0    0  0.11949727298E+02  0.85635468862E+01 -0.10549215073E+02  0.18094647183E+02  0.51100000000E-03 0.  1.
         12    1    3    3    0    0  0.14609170708E+02 -0.17383626906E+02 -0.34057516758E+01  0.22961217251E+02  0.00000000000E+00 0. -1.
</event>
<event>
 7    1  0.5839176E-013  0.5052886E+02  0.7816164E-02  0.1300439E+00
        -11   -1    0    0    0    0  0.00000000000E+00  0.00000000000E+00  0.45593999997E+02  0.45594000000E+02  0.51100000000E-03 0.  1.
         11   -1    0    0    0    0 -0.00000000000E+00 -0.00000000000E+00 -0.45593999997E+02  0.45594000000E+02  0.51100000000E-03 0. -1.
    9900012    2    1    2    0    0 -0.18582078291E+02 -0.28674754085E+01 -0.36050650743E+02  0.50528862431E+02  0.30000007846E+02 0.  0.
        -12    1    1    2    0    0  0.18582078291E+02  0.28674754085E+01  0.36050650743E+02  0.40659137569E+02  0.00000000000E+00 0.  1.
         11    1    3    3    0    0 -0.18702386893E+01  0.38148749948E+00  0.17910071900E+01  0.26174477040E+01  0.51100000000E-03 0. -1.
        -11    1    3    3    0    0 -0.10471364293E+02  0.63908119959E+01 -0.52278805699E+01  0.13335017197E+02  0.51100000000E-03 0.  1.
         12    1    3    3    0    0 -0.62404753091E+01 -0.96397749039E+01 -0.32613777363E+02  0.34576397530E+02  0.00000000000E+00 0. -1.
</event>
<event>
 7    1  0.5839176E-013  0.5052872E+02  0.7816164E-02  0.1300439E+00
        -11   -1    0    0    0    0  0.00000000000E+00  0.00000000000E+00  0.45593999997E+02  0.45594000000E+02  0.51100000000E-03 0. -1.
         11   -1    0    0    0    0 -0.00000000000E+00 -0.00000000000E+00 -0.45593999997E+02  0.45594000000E+02  0.51100000000E-03 0.  1.
    9900012    2    1    2    0    0 -0.29492530545E+02  0.94512011370E+01  0.26344679004E+02  0.50528724641E+02  0.29999589016E+02 0.  0.
        -12    1    1    2    0    0  0.29492530545E+02 -0.94512011370E+01 -0.26344679004E+02  0.40659275359E+02  0.00000000000E+00 0.  1.
         11    1    3    3    0    0 -0.13714628002E+01  0.28077648500E+00  0.11017817314E+02  0.11106396548E+02  0.51100000000E-03 0. -1.
        -11    1    3    3    0    0 -0.97886462711E-01  0.78073010350E+01  0.60316312263E+01  0.98663117081E+01  0.51100000000E-03 0.  1.
        -12    1    3    3    0    0 -0.28023181282E+02  0.13631236171E+01  0.92952304637E+01  0.29556016385E+02  0.00000000000E+00 0.  1.
</event>
<event>
 7    1  0.5839176E-013  0.5052886E+02  0.7816164E-02  0.1300439E+00
        -11   -1    0    0    0    0  0.00000000000E+00  0.00000000000E+00  0.45593999997E+02  0.45594000000E+02  0.51100000000E-03 0.  1.
         11   -1    0    0    0    0 -0.00000000000E+00 -0.00000000000E+00 -0.45593999997E+02  0.45594000000E+02  0.51100000000E-03 0. -1.
    9900012    2    1    2    0    0 -0.10512671907E+02  0.23117982078E+02 -0.31752294094E+02  0.50528861467E+02  0.30000004915E+02 0.  0.
        -12    1    1    2    0    0  0.10512671907E+02 -0.23117982078E+02  0.31752294094E+02  0.40659138533E+02  0.00000000000E+00 0.  1.
         11    1    3    3    0    0 -0.54677403002E+00 -0.46375808684E+01 -0.48705397302E+01  0.67474643886E+01  0.51100000000E-03 0. -1.
        -11    1    3    3    0    0 -0.81253463588E-01  0.70457415994E+00  0.25236776518E+01  0.26214454073E+01  0.51100000000E-03 0.  1.
         12    1    3    3    0    0 -0.98846444135E+01  0.27050988787E+02 -0.29405432016E+02  0.41159951671E+02  0.00000000000E+00 0. -1.
</event>
<event>
 7    1  0.5839176E-013  0.5052885E+02  0.7816164E-02  0.1300439E+00
        -11   -1    0    0    0    0  0.00000000000E+00  0.00000000000E+00  0.45593999997E+02  0.45594000000E+02  0.51100000000E-03 0.  1.
         11   -1    0    0    0    0 -0.00000000000E+00 -0.00000000000E+00 -0.45593999997E+02  0.45594000000E+02  0.51100000000E-03 0. -1.
    9900012    2    1    2    0    0 -0.52658991090E+01  0.23096443630E+02 -0.33045284015E+02  0.50528853459E+02  0.29999980574E+02 0.  0.
        -12    1    1    2    0    0  0.52658991090E+01 -0.23096443630E+02  0.33045284015E+02  0.40659146541E+02  0.00000000000E+00 0.  1.
         11    1    3    3    0    0 -0.51285098521E+00  0.28479016504E+01 -0.12544566639E+02  0.12873993645E+02  0.51100000000E-03 0.  1.
        -11    1    3    3    0    0 -0.85796049361E+01  0.16664699334E+02 -0.24651413551E+02  0.30967951419E+02  0.51100000000E-03 0. -1.
        -12    1    3    3    0    0  0.38265568123E+01  0.35838426463E+01  0.41506961749E+01  0.66869083953E+01  0.00000000000E+00 0.  1.
</event>
<event>
 7    1  0.5839176E-013  0.5052885E+02  0.7816164E-02  0.1300439E+00
        -11   -1    0    0    0    0  0.00000000000E+00  0.00000000000E+00  0.45593999997E+02  0.45594000000E+02  0.51100000000E-03 0.  1.
         11   -1    0    0    0    0 -0.00000000000E+00 -0.00000000000E+00 -0.45593999997E+02  0.45594000000E+02  0.51100000000E-03 0. -1.
    9900012    2    1    2    0    0 -0.29097697995E+02 -0.45810871999E+01 -0.28026847061E+02  0.50528849188E+02  0.29999967593E+02 0.  0.
        -12    1    1    2    0    0  0.29097697995E+02  0.45810871999E+01  0.28026847061E+02  0.40659150812E+02  0.00000000000E+00 0.  1.
         11    1    3    3    0    0 -0.82514108341E+01 -0.13880277200E+01 -0.40187178461E+01  0.92823755091E+01  0.51100000000E-03 0. -1.
        -11    1    3    3    0    0 -0.76347550632E+01  0.62603192475E+01 -0.22930124272E+02  0.24965409697E+02  0.51100000000E-03 0.  1.
        -12    1    3    3    0    0 -0.13211532098E+02 -0.94533787274E+01 -0.10780049429E+01  0.16281063982E+02  0.00000000000E+00 0.  1.
</event>
<event>
 7    1  0.5839176E-013  0.5052877E+02  0.7816164E-02  0.1300439E+00
        -11   -1    0    0    0    0  0.00000000000E+00  0.00000000000E+00  0.45593999997E+02  0.45594000000E+02  0.51100000000E-03 0. -1.
         11   -1    0    0    0    0 -0.00000000000E+00 -0.00000000000E+00 -0.45593999997E+02  0.45594000000E+02  0.51100000000E-03 0.  1.
    9900012    2    1    2    0    0 -0.37025466897E+02  0.13981114425E+02  0.93175359524E+01  0.50528766907E+02  0.29999717489E+02 0.  0.
        -12    1    1    2    0    0  0.37025466897E+02 -0.13981114425E+02 -0.93175359524E+01  0.40659233093E+02  0.00000000000E+00 0.  1.
         11    1    3    3    0    0 -0.10588544563E+02  0.60877943064E+01 -0.27533329044E+01  0.12520357736E+02  0.51100000000E-03 0. -1.
        -11    1    3    3    0    0 -0.65380625083E+01  0.10629575900E+02  0.12843020495E+02  0.17907465507E+02  0.51100000000E-03 0.  1.
         12    1    3    3    0    0 -0.19898859825E+02 -0.27362557816E+01 -0.77215163852E+00  0.20100943664E+02  0.00000000000E+00 0. -1.
</event>
<event>
 7    1  0.5839176E-013  0.5052887E+02  0.7816164E-02  0.1300439E+00
        -11   -1    0    0    0    0  0.00000000000E+00  0.00000000000E+00  0.45593999997E+02  0.45594000000E+02  0.51100000000E-03 0.  1.
         11   -1    0    0    0    0 -0.00000000000E+00 -0.00000000000E+00 -0.45593999997E+02  0.45594000000E+02  0.51100000000E-03 0. -1.
    9900012    2    1    2    0    0 -0.11365718814E+02 -0.14828864080E+02 -0.36112191939E+02  0.50528865963E+02  0.30000018580E+02 0.  0.
        -12    1    1    2    0    0  0.11365718814E+02  0.14828864080E+02  0.36112191939E+02  0.40659134037E+02  0.00000000000E+00 0.  1.
         11    1    3    3    0    0 -0.11067921517E+02 -0.40192277414E+01 -0.23333901552E+01  0.12004073818E+02  0.51100000000E-03 0. -1.
        -11    1    3    3    0    0 -0.15516560548E+01  0.33812394716E+01 -0.37207048919E+01  0.52615645991E+01  0.51100000000E-03 0.  1.
         12    1    3    3    0    0  0.12538587580E+01 -0.14190875810E+02 -0.30058096891E+02  0.33263227546E+02  0.00000000000E+00 0. -1.
</event>
<event>
 7    1  0.5839176E-013  0.5052890E+02  0.7816164E-02  0.1300439E+00
        -11   -1    0    0    0    0  0.00000000000E+00  0.00000000000E+00  0.45593999997E+02  0.45594000000E+02  0.51100000000E-03 0.  1.
         11   -1    0    0    0    0 -0.00000000000E+00 -0.00000000000E+00 -0.45593999997E+02  0.45594000000E+02  0.51100000000E-03 0. -1.
    9900012    2    1    2    0    0 -0.28417465515E+02  0.23552540139E+02 -0.17055432041E+02  0.50528901935E+02  0.30000127923E+02 0.  0.
        -12    1    1    2    0    0  0.28417465515E+02 -0.23552540139E+02  0.17055432041E+02  0.40659098065E+02  0.00000000000E+00 0.  1.
         11    1    3    3    0    0  0.27949828569E+01  0.69519487072E+01  0.20909683427E+01  0.77790532116E+01  0.51100000000E-03 0.  1.
        -11    1    3    3    0    0 -0.11302739531E+01  0.20394190184E+01  0.21076153559E+01  0.31430545479E+01  0.51100000000E-03 0. -1.
         12    1    3    3    0    0 -0.30082174419E+02  0.14561172414E+02 -0.21254015739E+02  0.39606794176E+02  0.00000000000E+00 0. -1.
</event>
<event>
 7    1  0.5839176E-013  0.5052881E+02  0.7816164E-02  0.1300439E+00
        -11   -1    0    0    0    0  0.00000000000E+00  0.00000000000E+00  0.45593999997E+02  0.45594000000E+02  0.51100000000E-03 0. -1.
         11   -1    0    0    0    0 -0.00000000000E+00 -0.00000000000E+00 -0.45593999997E+02  0.45594000000E+02  0.51100000000E-03 0.  1.
    9900012    2    1    2    0    0  0.83146935958E+01 -0.13450213616E+02  0.37458337562E+02  0.50528813722E+02  0.29999859790E+02 0.  0.
        -12    1    1    2    0    0 -0.83146935958E+01  0.13450213616E+02 -0.37458337562E+02  0.40659186278E+02  0.00000000000E+00 0.  1.
         11    1    3    3    0    0  0.12416489824E+02 -0.13687757282E+02  0.26817004695E+02  0.32568015905E+02  0.51100000000E-03 0. -1.
        -11    1    3    3    0    0  0.45968232884E+00 -0.51398545670E+01  0.95089782459E+01  0.10818968544E+02  0.51100000000E-03 0.  1.
        -12    1    3    3    0    0 -0.45614785568E+01  0.53773982330E+01  0.11323546210E+01  0.71418292732E+01  0.00000000000E+00 0.  1.
</event>
<event>
 7    1  0.5839176E-013  0.5052886E+02  0.7816164E-02  0.1300439E+00
        -11   -1    0    0    0    0  0.00000000000E+00  0.00000000000E+00  0.45593999997E+02  0.45594000000E+02  0.51100000000E-03 0. -1.
         11   -1    0    0    0    0 -0.00000000000E+00 -0.00000000000E+00 -0.45593999997E+02  0.45594000000E+02  0.51100000000E-03 0.  1.
    9900012    2    1    2    0    0  0.21406693876E+02  0.19016903705E+02  0.28866522692E+02  0.50528864476E+02  0.30000014062E+02 0.  0.
        -12    1    1    2    0    0 -0.21406693876E+02 -0.19016903705E+02 -0.28866522692E+02  0.40659135524E+02  0.00000000000E+00 0.  1.
         11    1    3    3    0    0  0.20097260427E+02  0.12051501247E+02  0.10874328462E+02  0.25833884314E+02  0.51100000000E-03 0. -1.
        -11    1    3    3    0    0 -0.60259579312E+00  0.96594703102E+01  0.42658327934E+01  0.10576663843E+02  0.51100000000E-03 0.  1.
        -12    1    3    3    0    0  0.19120292427E+01 -0.26940678524E+01  0.13726361436E+02  0.14118316319E+02  0.00000000000E+00 0.  1.
</event>
<event>
 7    1  0.5839176E-013  0.5052889E+02  0.7816164E-02  0.1300439E+00
        -11   -1    0    0    0    0  0.00000000000E+00  0.00000000000E+00  0.45593999997E+02  0.45594000000E+02  0.51100000000E-03 0.  1.
         11   -1    0    0    0    0 -0.00000000000E+00 -0.00000000000E+00 -0.45593999997E+02  0.45594000000E+02  0.51100000000E-03 0. -1.
    9900012    2    1    2    0    0  0.10247238049E+02 -0.14070729126E+02 -0.36744686123E+02  0.50528889532E+02  0.30000090220E+02 0.  0.
        -12    1    1    2    0    0 -0.10247238049E+02  0.14070729126E+02  0.36744686123E+02  0.40659110468E+02  0.00000000000E+00 0.  1.
         11    1    3    3    0    0 -0.19872117380E+01 -0.77539720447E+00 -0.13331543798E+02  0.13501122606E+02  0.51100000000E-03 0. -1.
        -11    1    3    3    0    0  0.19439893520E+01 -0.79110509183E+01 -0.24054101446E+02  0.25396133915E+02  0.51100000000E-03 0.  1.
        -12    1    3    3    0    0  0.10290460435E+02 -0.53842810036E+01  0.64095912064E+00  0.11631633010E+02  0.00000000000E+00 0.  1.
</event>
<event>
 7    1  0.5839176E-013  0.5052887E+02  0.7816164E-02  0.1300439E+00
        -11   -1    0    0    0    0  0.00000000000E+00  0.00000000000E+00  0.45593999997E+02  0.45594000000E+02  0.51100000000E-03 0.  1.
         11   -1    0    0    0    0 -0.00000000000E+00 -0.00000000000E+00 -0.45593999997E+02  0.45594000000E+02  0.51100000000E-03 0. -1.
    9900012    2    1    2    0    0  0.37774670567E+02  0.11339983963E+02 -0.98814953176E+01  0.50528869138E+02  0.30000028232E+02 0.  0.
        -12    1    1    2    0    0 -0.37774670567E+02 -0.11339983963E+02  0.98814953176E+01  0.40659130862E+02  0.00000000000E+00 0.  1.
         11    1    3    3    0    0  0.78580095462E+01  0.33988407775E+01 -0.14172432823E+02  0.16557725841E+02  0.51100000000E-03 0. -1.
        -11    1    3    3    0    0  0.37601980518E+01 -0.27678580205E+01 -0.18938849070E+01  0.50385442057E+01  0.51100000000E-03 0.  1.
        -12    1    3    3    0    0  0.26156462969E+02  0.10709001206E+02  0.61848224123E+01  0.28932599091E+02  0.00000000000E+00 0.  1.
</event>
<event>
 7    1  0.5839176E-013  0.5052886E+02  0.7816164E-02  0.1300439E+00
        -11   -1    0    0    0    0  0.00000000000E+00  0.00000000000E+00  0.45593999997E+02  0.45594000000E+02  0.51100000000E-03 0.  1.
         11   -1    0    0    0    0 -0.00000000000E+00 -0.00000000000E+00 -0.45593999997E+02  0.45594000000E+02  0.51100000000E-03 0. -1.
    9900012    2    1    2    0    0  0.27083167855E+02 -0.25478317205E+02  0.16447580981E+02  0.50528861436E+02  0.30000004821E+02 0.  0.
        -12    1    1    2    0    0 -0.27083167855E+02  0.25478317205E+02 -0.16447580981E+02  0.40659138564E+02  0.00000000000E+00 0.  1.
         11    1    3    3    0    0  0.42493660257E+01 -0.57452342544E+01  0.55669838811E+01  0.90584843131E+01  0.51100000000E-03 0. -1.
        -11    1    3    3    0    0  0.60497919009E+01  0.74647356105E+00  0.13549600988E+02  0.14857620672E+02  0.51100000000E-03 0.  1.
         12    1    3    3    0    0  0.16784009928E+02 -0.20479556512E+02 -0.26690038881E+01  0.26612756451E+02  0.00000000000E+00 0. -1.
</event>
<event>
 7    1  0.5839176E-013  0.5052886E+02  0.7816164E-02  0.1300439E+00
        -11   -1    0    0    0    0  0.00000000000E+00  0.00000000000E+00  0.45593999997E+02  0.45594000000E+02  0.51100000000E-03 0.  1.
         11   -1    0    0    0    0 -0.00000000000E+00 -0.00000000000E+00 -0.45593999997E+02  0.45594000000E+02  0.51100000000E-03 0. -1.
    9900012    2    1    2    0    0  0.40316274110E+02 -0.27906831271E+01  0.44694263435E+01  0.50528860286E+02  0.30000001326E+02 0.  0.
        -12    1    1    2    0    0 -0.40316274110E+02  0.27906831271E+01 -0.44694263435E+01  0.40659139714E+02  0.00000000000E+00 0.  1.
         11    1    3    3    0    0  0.12617774410E+02 -0.17557035272E+01  0.21990584031E+01  0.12927744740E+02  0.51100000000E-03 0. -1.
        -11    1    3    3    0    0  0.64767763357E+01  0.10292030427E+01  0.12375587677E+02  0.14005822404E+02  0.51100000000E-03 0.  1.
         12    1    3    3    0    0  0.21221723364E+02 -0.20641826426E+01 -0.10105219737E+02  0.23595293142E+02  0.00000000000E+00 0. -1.
</event>
<event>
 7    1  0.5839176E-013  0.5052885E+02  0.7816164E-02  0.1300439E+00
        -11   -1    0    0    0    0  0.00000000000E+00  0.00000000000E+00  0.45593999997E+02  0.45594000000E+02  0.51100000000E-03 0.  1.
         11   -1    0    0    0    0 -0.00000000000E+00 -0.00000000000E+00 -0.45593999997E+02  0.45594000000E+02  0.51100000000E-03 0. -1.
    9900012    2    1    2    0    0 -0.51957170849E+01 -0.24113615494E+02 -0.32321884160E+02  0.50528854363E+02  0.29999983322E+02 0.  0.
        -12    1    1    2    0    0  0.51957170849E+01  0.24113615494E+02  0.32321884160E+02  0.40659145637E+02  0.00000000000E+00 0.  1.
         11    1    3    3    0    0 -0.59947776654E+01 -0.12119241078E+02 -0.27972335119E+02  0.31068712491E+02  0.51100000000E-03 0. -1.
        -11    1    3    3    0    0 -0.66666206621E+01 -0.33367518418E+01 -0.84367657798E+00  0.75026351594E+01  0.51100000000E-03 0.  1.
        -12    1    3    3    0    0  0.74656812426E+01 -0.86576225742E+01 -0.35058724629E+01  0.11957506712E+02  0.00000000000E+00 0.  1.
</event>
<event>
 7    1  0.5839176E-013  0.5052882E+02  0.7816164E-02  0.1300439E+00
        -11   -1    0    0    0    0  0.00000000000E+00  0.00000000000E+00  0.45593999997E+02  0.45594000000E+02  0.51100000000E-03 0. -1.
         11   -1    0    0    0    0 -0.00000000000E+00 -0.00000000000E+00 -0.45593999997E+02  0.45594000000E+02  0.51100000000E-03 0.  1.
    9900012    2    1    2    0    0 -0.74128652424E+01 -0.36062979264E+02  0.17253410801E+02  0.50528816182E+02  0.29999867265E+02 0.  0.
        -12    1    1    2    0    0  0.74128652424E+01  0.36062979264E+02 -0.17253410801E+02  0.40659183818E+02  0.00000000000E+00 0.  1.
         11    1    3    3    0    0 -0.37015068225E+01  0.59238015666E+00 -0.45265284895E+01  0.58772040490E+01  0.51100000000E-03 0.  1.
        -11    1    3    3    0    0  0.41282820421E+01 -0.82906324234E+01  0.29727242560E+01  0.97269927708E+01  0.51100000000E-03 0. -1.
         12    1    3    3    0    0 -0.78396404620E+01 -0.28364726997E+02  0.18807215035E+02  0.34924619362E+02  0.00000000000E+00 0. -1.
</event>
<event>
 7    1  0.5839176E-013  0.5052886E+02  0.7816164E-02  0.1300439E+00
        -11   -1    0    0    0    0  0.00000000000E+00  0.00000000000E+00  0.45593999997E+02  0.45594000000E+02  0.51100000000E-03 0. -1.
         11   -1    0    0    0    0 -0.00000000000E+00 -0.00000000000E+00 -0.45593999997E+02  0.45594000000E+02  0.51100000000E-03 0.  1.
    9900012    2    1    2    0    0 -0.38594578755E+02 -0.82545642416E+01  0.97717054903E+01  0.50528861196E+02  0.30000004092E+02 0.  0.
        -12    1    1    2    0    0  0.38594578755E+02  0.82545642416E+01 -0.97717054903E+01  0.40659138804E+02  0.00000000000E+00 0.  1.
         11    1    3    3    0    0 -0.76213113690E+01  0.55896303803E+01  0.37553419429E+01  0.10170100695E+02  0.51100000000E-03 0. -1.
        -11    1    3    3    0    0 -0.13834803199E+02 -0.58548411844E+00  0.11508351473E+02  0.18005186061E+02  0.51100000000E-03 0.  1.
         12    1    3    3    0    0 -0.17138464187E+02 -0.13258710503E+02 -0.54919879252E+01  0.22353574440E+02  0.00000000000E+00 0. -1.
</event>
<event>
 7    1  0.5839176E-013  0.5052885E+02  0.7816164E-02  0.1300439E+00
        -11   -1    0    0    0    0  0.00000000000E+00  0.00000000000E+00  0.45593999997E+02  0.45594000000E+02  0.51100000000E-03 0.  1.
         11   -1    0    0    0    0 -0.00000000000E+00 -0.00000000000E+00 -0.45593999997E+02  0.45594000000E+02  0.51100000000E-03 0. -1.
    9900012    2    1    2    0    0 -0.22503043040E+02  0.26526345773E+02  0.21050708549E+02  0.50528852240E+02  0.29999976870E+02 0.  0.
        -12    1    1    2    0    0  0.22503043040E+02 -0.26526345773E+02 -0.21050708549E+02  0.40659147760E+02  0.00000000000E+00 0.  1.
         11    1    3    3    0    0 -0.38996689369E+01  0.40796440952E+01  0.36194599812E+01  0.67045808651E+01  0.51100000000E-03 0. -1.
        -11    1    3    3    0    0 -0.18631809386E+02  0.28541357153E+02  0.14178778083E+02  0.36916001101E+02  0.51100000000E-03 0.  1.
         12    1    3    3    0    0  0.28435282609E-01 -0.60946554753E+01  0.32524704842E+01  0.69082702739E+01  0.00000000000E+00 0. -1.
</event>
<event>
 7    1  0.5839176E-013  0.5052886E+02  0.7816164E-02  0.1300439E+00
        -11   -1    0    0    0    0  0.00000000000E+00  0.00000000000E+00  0.45593999997E+02  0.45594000000E+02  0.51100000000E-03 0.  1.
         11   -1    0    0    0    0 -0.00000000000E+00 -0.00000000000E+00 -0.45593999997E+02  0.45594000000E+02  0.51100000000E-03 0. -1.
    9900012    2    1    2    0    0 -0.29817170277E+02 -0.25279526430E+02 -0.11182457855E+02  0.50528862484E+02  0.30000008007E+02 0.  0.
        -12    1    1    2    0    0  0.29817170277E+02  0.25279526430E+02  0.11182457855E+02  0.40659137516E+02  0.00000000000E+00 0.  1.
         11    1    3    3    0    0 -0.60985052724E+00  0.17155025516E+01 -0.16237368122E-01  0.18207500057E+01  0.51100000000E-03 0. -1.
        -11    1    3    3    0    0  0.84785121382E+00 -0.26889494588E+01  0.58353022516E+01  0.64807448261E+01  0.51100000000E-03 0.  1.
         12    1    3    3    0    0 -0.30055170964E+02 -0.24306079523E+02 -0.17001522738E+02  0.42227367652E+02  0.00000000000E+00 0. -1.
</event>
<event>
 7    1  0.5839176E-013  0.5052887E+02  0.7816164E-02  0.1300439E+00
        -11   -1    0    0    0    0  0.00000000000E+00  0.00000000000E+00  0.45593999997E+02  0.45594000000E+02  0.51100000000E-03 0.  1.
         11   -1    0    0    0    0 -0.00000000000E+00 -0.00000000000E+00 -0.45593999997E+02  0.45594000000E+02  0.51100000000E-03 0. -1.
    9900012    2    1    2    0    0 -0.75565098021E+01  0.24744284420E+02 -0.31365331125E+02  0.50528874967E+02  0.30000045950E+02 0.  0.
        -12    1    1    2    0    0  0.75565098021E+01 -0.24744284420E+02  0.31365331125E+02  0.40659125033E+02  0.00000000000E+00 0.  1.
         11    1    3    3    0    0  0.18518318592E+00 -0.32753945400E+01 -0.96685208046E+01  0.10209936191E+02  0.51100000000E-03 0.  1.
        -11    1    3    3    0    0  0.27319652247E+01  0.82825751906E+00 -0.72573800853E+01  0.77986672240E+01  0.51100000000E-03 0. -1.
         12    1    3    3    0    0 -0.10473658213E+02  0.27191421441E+02 -0.14439430236E+02  0.32520271553E+02  0.00000000000E+00 0. -1.
</event>
<event>
 7    1  0.5839176E-013  0.5052890E+02  0.7816164E-02  0.1300439E+00
        -11   -1    0    0    0    0  0.00000000000E+00  0.00000000000E+00  0.45593999997E+02  0.45594000000E+02  0.51100000000E-03 0. -1.
         11   -1    0    0    0    0 -0.00000000000E+00 -0.00000000000E+00 -0.45593999997E+02  0.45594000000E+02  0.51100000000E-03 0.  1.
    9900012    2    1    2    0    0  0.17838868469E+02  0.36497887480E+02 -0.16855918885E+01  0.50528902140E+02  0.30000128544E+02 0.  0.
        -12    1    1    2    0    0 -0.17838868469E+02 -0.36497887480E+02  0.16855918885E+01  0.40659097860E+02  0.00000000000E+00 0.  1.
         11    1    3    3    0    0  0.73967836701E+01  0.16014924499E+02 -0.57990064085E+01  0.18569294304E+02  0.51100000000E-03 0. -1.
        -11    1    3    3    0    0  0.63169582388E+01 -0.35570873169E+01  0.17215107789E+01  0.74512033387E+01  0.51100000000E-03 0.  1.
         12    1    3    3    0    0  0.41251265601E+01  0.24040050298E+02  0.23919037412E+01  0.24508404497E+02  0.00000000000E+00 0. -1.
</event>
<event>
 7    1  0.5839176E-013  0.5052886E+02  0.7816164E-02  0.1300439E+00
        -11   -1    0    0    0    0  0.00000000000E+00  0.00000000000E+00  0.45593999997E+02  0.45594000000E+02  0.51100000000E-03 0. -1.
         11   -1    0    0    0    0 -0.00000000000E+00 -0.00000000000E+00 -0.45593999997E+02  0.45594000000E+02  0.51100000000E-03 0.  1.
    9900012    2    1    2    0    0  0.16969823207E+02  0.32952952809E+02 -0.16712070972E+02  0.50528864314E+02  0.30000013570E+02 0.  0.
        -12    1    1    2    0    0 -0.16969823207E+02 -0.32952952809E+02  0.16712070972E+02  0.40659135686E+02  0.00000000000E+00 0.  1.
         11    1    3    3    0    0  0.19538874820E+01  0.20441418783E+02 -0.13708687238E+02  0.24690026006E+02  0.51100000000E-03 0. -1.
        -11    1    3    3    0    0  0.72083774782E+00  0.10791305402E+02 -0.36811778817E+01  0.11424664117E+02  0.51100000000E-03 0.  1.
         12    1    3    3    0    0  0.14295097977E+02  0.17202286249E+01  0.67779414775E+00  0.14414174191E+02  0.00000000000E+00 0. -1.
</event>
<event>
 7    1  0.5839176E-013  0.5052884E+02  0.7816164E-02  0.1300439E+00
        -11   -1    0    0    0    0  0.00000000000E+00  0.00000000000E+00  0.45593999997E+02  0.45594000000E+02  0.51100000000E-03 0.  1.
         11   -1    0    0    0    0 -0.00000000000E+00 -0.00000000000E+00 -0.45593999997E+02  0.45594000000E+02  0.51100000000E-03 0. -1.
    9900012    2    1    2    0    0 -0.19293646102E+02 -0.29413427309E+02 -0.20390513833E+02  0.50528836945E+02  0.29999930378E+02 0.  0.
        -12    1    1    2    0    0  0.19293646102E+02  0.29413427309E+02  0.20390513833E+02  0.40659163055E+02  0.00000000000E+00 0.  1.
         11    1    3    3    0    0 -0.22442551410E+02 -0.21818092561E+02 -0.15033652388E+02  0.34723306023E+02  0.51100000000E-03 0. -1.
        -11    1    3    3    0    0 -0.35462877104E+01 -0.33359969938E+01  0.17293931886E+01  0.51668010925E+01  0.51100000000E-03 0.  1.
         12    1    3    3    0    0  0.66951930184E+01 -0.42593377541E+01 -0.70862546331E+01  0.10638729829E+02  0.00000000000E+00 0. -1.
</event>
<event>
 7    1  0.5839176E-013  0.5052887E+02  0.7816164E-02  0.1300439E+00
        -11   -1    0    0    0    0  0.00000000000E+00  0.00000000000E+00  0.45593999997E+02  0.45594000000E+02  0.51100000000E-03 0.  1.
         11   -1    0    0    0    0 -0.00000000000E+00 -0.00000000000E+00 -0.45593999997E+02  0.45594000000E+02  0.51100000000E-03 0. -1.
    9900012    2    1    2    0    0  0.17362273856E+02  0.36703849160E+02 -0.21316879607E+01  0.50528865846E+02  0.30000018226E+02 0.  0.
        -12    1    1    2    0    0 -0.17362273856E+02 -0.36703849160E+02  0.21316879607E+01  0.40659134154E+02  0.00000000000E+00 0.  1.
         11    1    3    3    0    0  0.55529807830E+01  0.18209268028E+02  0.64335867774E+01  0.20094876878E+02  0.51100000000E-03 0. -1.
        -11    1    3    3    0    0  0.12036702098E+02  0.22296148312E+02 -0.67873779053E+01  0.26231067955E+02  0.51100000000E-03 0.  1.
        -12    1    3    3    0    0 -0.22740902505E+00 -0.38015671804E+01 -0.17778968328E+01  0.42029210128E+01  0.00000000000E+00 0.  1.
</event>
<event>
 7    1  0.5839176E-013  0.5052885E+02  0.7816164E-02  0.1300439E+00
        -11   -1    0    0    0    0  0.00000000000E+00  0.00000000000E+00  0.45593999997E+02  0.45594000000E+02  0.51100000000E-03 0.  1.
         11   -1    0    0    0    0 -0.00000000000E+00 -0.00000000000E+00 -0.45593999997E+02  0.45594000000E+02  0.51100000000E-03 0. -1.
    9900012    2    1    2    0    0  0.25511444163E+02 -0.21273036790E+02 -0.23447611571E+02  0.50528851387E+02  0.29999974276E+02 0.  0.
        -12    1    1    2    0    0 -0.25511444163E+02  0.21273036790E+02  0.23447611571E+02  0.40659148613E+02  0.00000000000E+00 0.  1.
         11    1    3    3    0    0  0.64627551753E+01 -0.11531760211E+01 -0.11525619940E+02  0.13264122084E+02  0.51100000000E-03 0.  1.
        -11    1    3    3    0    0  0.13317949894E+01 -0.94977101234E+01 -0.13485951714E+02  0.16548446132E+02  0.51100000000E-03 0. -1.
         12    1    3    3    0    0  0.17716893999E+02 -0.10622150645E+02  0.15639600832E+01  0.20716283171E+02  0.00000000000E+00 0. -1.
</event>
<event>
 7    1  0.5839176E-013  0.5052886E+02  0.7816164E-02  0.1300439E+00
        -11   -1    0    0    0    0  0.00000000000E+00  0.00000000000E+00  0.45593999997E+02  0.45594000000E+02  0.51100000000E-03 0. -1.
         11   -1    0    0    0    0 -0.00000000000E+00 -0.00000000000E+00 -0.45593999997E+02  0.45594000000E+02  0.51100000000E-03 0.  1.
    9900012    2    1    2    0    0 -0.38782219915E+02 -0.13962804529E+01  0.12130751032E+02  0.50528864480E+02  0.30000014074E+02 0.  0.
        -12    1    1    2    0    0  0.38782219915E+02  0.13962804529E+01 -0.12130751032E+02  0.40659135520E+02  0.00000000000E+00 0.  1.
         11    1    3    3    0    0 -0.17128416297E+02 -0.15744843876E+01  0.18193668909E+02  0.25037396721E+02  0.51100000000E-03 0. -1.
        -11    1    3    3    0    0 -0.13112680853E+01 -0.58886039970E+00  0.29092350674E+01  0.32449698766E+01  0.51100000000E-03 0.  1.
         12    1    3    3    0    0 -0.20342535532E+02  0.76706433439E+00 -0.89721529447E+01  0.22246497882E+02  0.00000000000E+00 0. -1.
</event>
<event>
 7    1  0.5839176E-013  0.5052886E+02  0.7816164E-02  0.1300439E+00
        -11   -1    0    0    0    0  0.00000000000E+00  0.00000000000E+00  0.45593999997E+02  0.45594000000E+02  0.51100000000E-03 0. -1.
         11   -1    0    0    0    0 -0.00000000000E+00 -0.00000000000E+00 -0.45593999997E+02  0.45594000000E+02  0.51100000000E-03 0.  1.
    9900012    2    1    2    0    0 -0.21886628100E+02 -0.33320537606E+02 -0.79926867277E+01  0.50528858875E+02  0.29999997035E+02 0.  0.
        -12    1    1    2    0    0  0.21886628100E+02  0.33320537606E+02  0.79926867277E+01  0.40659141125E+02  0.00000000000E+00 0.  1.
         11    1    3    3    0    0  0.47623247941E+00 -0.16031628455E+02 -0.29227264483E+01  0.16302829155E+02  0.51100000000E-03 0. -1.
        -11    1    3    3    0    0  0.15734777864E+01 -0.61854061899E+01 -0.45435910978E+01  0.78344943936E+01  0.51100000000E-03 0.  1.
        -12    1    3    3    0    0 -0.23936338366E+02 -0.11103502961E+02 -0.52636918157E+00  0.26391535326E+02  0.00000000000E+00 0.  1.
</event>
<event>
 7    1  0.5839176E-013  0.5052886E+02  0.7816164E-02  0.1300439E+00
        -11   -1    0    0    0    0  0.00000000000E+00  0.00000000000E+00  0.45593999997E+02  0.45594000000E+02  0.51100000000E-03 0.  1.
         11   -1    0    0    0    0 -0.00000000000E+00 -0.00000000000E+00 -0.45593999997E+02  0.45594000000E+02  0.51100000000E-03 0. -1.
    9900012    2    1    2    0    0  0.16274322025E+02 -0.22019624538E+01 -0.37194937999E+02  0.50528860698E+02  0.30000002578E+02 0.  0.
        -12    1    1    2    0    0 -0.16274322025E+02  0.22019624538E+01  0.37194937999E+02  0.40659139302E+02  0.00000000000E+00 0.  1.
         11    1    3    3    0    0 -0.45319772080E+00  0.60657487996E+01 -0.33043206435E+01  0.69222273763E+01  0.51100000000E-03 0. -1.
        -11    1    3    3    0    0  0.39103503773E+01  0.66786891190E+01 -0.90003147788E+01  0.11870189333E+02  0.51100000000E-03 0.  1.
         12    1    3    3    0    0  0.12817169368E+02 -0.14946400372E+02 -0.24890302577E+02  0.31736443989E+02  0.00000000000E+00 0. -1.
</event>
<event>
 7    1  0.5839176E-013  0.5052885E+02  0.7816164E-02  0.1300439E+00
        -11   -1    0    0    0    0  0.00000000000E+00  0.00000000000E+00  0.45593999997E+02  0.45594000000E+02  0.51100000000E-03 0. -1.
         11   -1    0    0    0    0 -0.00000000000E+00 -0.00000000000E+00 -0.45593999997E+02  0.45594000000E+02  0.51100000000E-03 0.  1.
    9900012    2    1    2    0    0 -0.40376114828E+02 -0.38330996474E+01  0.28710465779E+01  0.50528853305E+02  0.29999980105E+02 0.  0.
        -12    1    1    2    0    0  0.40376114828E+02  0.38330996474E+01 -0.28710465779E+01  0.40659146695E+02  0.00000000000E+00 0.  1.
         11    1    3    3    0    0 -0.10516341780E+02  0.72891391528E+01  0.82956528819E+01  0.15249355757E+02  0.51100000000E-03 0. -1.
        -11    1    3    3    0    0 -0.11773857453E+02 -0.11295388112E+01  0.41116636689E+01  0.12522194522E+02  0.51100000000E-03 0.  1.
        -12    1    3    3    0    0 -0.18085915595E+02 -0.99926999890E+01 -0.95362699729E+01  0.22757303025E+02  0.00000000000E+00 0.  1.
</event>
<event>
 7    1  0.5839176E-013  0.5052887E+02  0.7816164E-02  0.1300439E+00
        -11   -1    0    0    0    0  0.00000000000E+00  0.00000000000E+00  0.45593999997E+02  0.45594000000E+02  0.51100000000E-03 0. -1.
         11   -1    0    0    0    0 -0.00000000000E+00 -0.00000000000E+00 -0.45593999997E+02  0.45594000000E+02  0.51100000000E-03 0.  1.
    9900012    2    1    2    0    0  0.35158776747E+02  0.70780678897E+01  0.19155322280E+02  0.50528868196E+02  0.30000025369E+02 0.  0.
        -12    1    1    2    0    0 -0.35158776747E+02 -0.70780678897E+01 -0.19155322280E+02  0.40659131804E+02  0.00000000000E+00 0.  1.
         11    1    3    3    0    0  0.52835029311E+01  0.90014035480E+01  0.12176883157E+02  0.16037990920E+02  0.51100000000E-03 0. -1.
        -11    1    3    3    0    0  0.12568936423E+02  0.26046492206E+01 -0.40692731218E+01  0.13465561421E+02  0.51100000000E-03 0.  1.
        -12    1    3    3    0    0  0.17306337393E+02 -0.45279848788E+01  0.11047712245E+02  0.21025315856E+02  0.00000000000E+00 0.  1.
</event>
<event>
 7    1  0.5839176E-013  0.5052886E+02  0.7816164E-02  0.1300439E+00
        -11   -1    0    0    0    0  0.00000000000E+00  0.00000000000E+00  0.45593999997E+02  0.45594000000E+02  0.51100000000E-03 0.  1.
         11   -1    0    0    0    0 -0.00000000000E+00 -0.00000000000E+00 -0.45593999997E+02  0.45594000000E+02  0.51100000000E-03 0. -1.
    9900012    2    1    2    0    0 -0.12068843120E+02  0.30735804002E+02 -0.23723809632E+02  0.50528858772E+02  0.29999996724E+02 0.  0.
        -12    1    1    2    0    0  0.12068843120E+02 -0.30735804002E+02  0.23723809632E+02  0.40659141228E+02  0.00000000000E+00 0.  1.
         11    1    3    3    0    0  0.31726699320E+01  0.20565983448E+02 -0.81097921534E+01  0.22333701859E+02  0.51100000000E-03 0. -1.
        -11    1    3    3    0    0 -0.42129746606E+01 -0.99626643449E+00  0.18565475461E+01  0.47104640272E+01  0.51100000000E-03 0.  1.
         12    1    3    3    0    0 -0.11028538392E+02  0.11166086989E+02 -0.17470565024E+02  0.23484692887E+02  0.00000000000E+00 0. -1.
</event>
<event>
 7    1  0.5839176E-013  0.5052886E+02  0.7816164E-02  0.1300439E+00
        -11   -1    0    0    0    0  0.00000000000E+00  0.00000000000E+00  0.45593999997E+02  0.45594000000E+02  0.51100000000E-03 0.  1.
         11   -1    0    0    0    0 -0.00000000000E+00 -0.00000000000E+00 -0.45593999997E+02  0.45594000000E+02  0.51100000000E-03 0. -1.
    9900012    2    1    2    0    0  0.15607399440E+01 -0.36918069005E+02 -0.16964257256E+02  0.50528858931E+02  0.29999997208E+02 0.  0.
        -12    1    1    2    0    0 -0.15607399440E+01  0.36918069005E+02  0.16964257256E+02  0.40659141069E+02  0.00000000000E+00 0.  1.
         11    1    3    3    0    0  0.15544751716E+01 -0.27886367013E+02 -0.14869824140E+02  0.31641389484E+02  0.51100000000E-03 0. -1.
        -11    1    3    3    0    0 -0.39846602558E+00 -0.13843913214E+02 -0.72842942723E+00  0.13868789347E+02  0.51100000000E-03 0.  1.
        -12    1    3    3    0    0  0.40473079798E+00  0.48122112231E+01 -0.13660036883E+01  0.50186801004E+01  0.00000000000E+00 0.  1.
</event>
<event>
 7    1  0.5839176E-013  0.5052886E+02  0.7816164E-02  0.1300439E+00
        -11   -1    0    0    0    0  0.00000000000E+00  0.00000000000E+00  0.45593999997E+02  0.45594000000E+02  0.51100000000E-03 0. -1.
         11   -1    0    0    0    0 -0.00000000000E+00 -0.00000000000E+00 -0.45593999997E+02  0.45594000000E+02  0.51100000000E-03 0.  1.
    9900012    2    1    2    0    0 -0.28825347485E+02  0.16585084307E+02  0.23392306729E+02  0.50528859660E+02  0.29999999422E+02 0.  0.
        -12    1    1    2    0    0  0.28825347485E+02 -0.16585084307E+02 -0.23392306729E+02  0.40659140340E+02  0.00000000000E+00 0.  1.
         11    1    3    3    0    0 -0.16742344192E+02  0.67447714498E+01  0.21100281614E+02  0.27767245369E+02  0.51100000000E-03 0. -1.
        -11    1    3    3    0    0 -0.14572525806E+02  0.31147249971E+01  0.39177928229E+01  0.15408086222E+02  0.51100000000E-03 0.  1.
        -12    1    3    3    0    0  0.24895225137E+01  0.67255878602E+01 -0.16257677074E+01  0.73535280682E+01  0.00000000000E+00 0.  1.
</event>
<event>
 7    1  0.5839176E-013  0.5052887E+02  0.7816164E-02  0.1300439E+00
        -11   -1    0    0    0    0  0.00000000000E+00  0.00000000000E+00  0.45593999997E+02  0.45594000000E+02  0.51100000000E-03 0. -1.
         11   -1    0    0    0    0 -0.00000000000E+00 -0.00000000000E+00 -0.45593999997E+02  0.45594000000E+02  0.51100000000E-03 0.  1.
    9900012    2    1    2    0    0 -0.27205425996E+02  0.15145543994E+02  0.26146544809E+02  0.50528874186E+02  0.30000043576E+02 0.  0.
        -12    1    1    2    0    0  0.27205425996E+02 -0.15145543994E+02 -0.26146544809E+02  0.40659125814E+02  0.00000000000E+00 0.  1.
         11    1    3    3    0    0 -0.13284879706E+02 -0.12737022968E+01  0.20348547951E+01  0.13500036320E+02  0.51100000000E-03 0. -1.
        -11    1    3    3    0    0 -0.12917399971E+02  0.79809624502E+01  0.24155008554E+02  0.28531025606E+02  0.51100000000E-03 0.  1.
        -12    1    3    3    0    0 -0.10031463193E+01  0.84382838401E+01 -0.43318539863E-01  0.84978122597E+01  0.00000000000E+00 0.  1.
</event>
<event>
 7    1  0.5839176E-013  0.5052886E+02  0.7816164E-02  0.1300439E+00
        -11   -1    0    0    0    0  0.00000000000E+00  0.00000000000E+00  0.45593999997E+02  0.45594000000E+02  0.51100000000E-03 0.  1.
         11   -1    0    0    0    0 -0.00000000000E+00 -0.00000000000E+00 -0.45593999997E+02  0.45594000000E+02  0.51100000000E-03 0. -1.
    9900012    2    1    2    0    0  0.12613709031E+02  0.38129092927E+02 -0.63428699073E+01  0.50528863491E+02  0.30000011068E+02 0.  0.
        -12    1    1    2    0    0 -0.12613709031E+02 -0.38129092927E+02  0.63428699073E+01  0.40659136509E+02  0.00000000000E+00 0.  1.
         11    1    3    3    0    0  0.57839976333E+01  0.10733475382E+02  0.25883265980E+01  0.12464411628E+02  0.51100000000E-03 0. -1.
        -11    1    3    3    0    0 -0.11913045167E+01  0.79435652460E+01  0.77892787611E+01  0.11188936462E+02  0.51100000000E-03 0.  1.
         12    1    3    3    0    0  0.80210159148E+01  0.19452052299E+02 -0.16720475266E+02  0.26875515402E+02  0.00000000000E+00 0. -1.
</event>
<event>
 7    1  0.5839176E-013  0.5052887E+02  0.7816164E-02  0.1300439E+00
        -11   -1    0    0    0    0  0.00000000000E+00  0.00000000000E+00  0.45593999997E+02  0.45594000000E+02  0.51100000000E-03 0.  1.
         11   -1    0    0    0    0 -0.00000000000E+00 -0.00000000000E+00 -0.45593999997E+02  0.45594000000E+02  0.51100000000E-03 0. -1.
    9900012    2    1    2    0    0  0.46327558292E+01  0.32744069301E+02 -0.23654358763E+02  0.50528865855E+02  0.30000018253E+02 0.  0.
        -12    1    1    2    0    0 -0.46327558292E+01 -0.32744069301E+02  0.23654358763E+02  0.40659134145E+02  0.00000000000E+00 0.  1.
         11    1    3    3    0    0 -0.14720383167E+01 -0.48078093615E+00 -0.22414770125E+00  0.15647011112E+01  0.51100000000E-03 0. -1.
        -11    1    3    3    0    0  0.17925581921E+01 -0.36939995610E+01  0.13143165851E+01  0.43111861448E+01  0.51100000000E-03 0.  1.
         12    1    3    3    0    0  0.43122359538E+01  0.36918849798E+02 -0.24744527647E+02  0.44652978599E+02  0.00000000000E+00 0. -1.
</event>
<event>
 7    1  0.5839176E-013  0.5052884E+02  0.7816164E-02  0.1300439E+00
        -11   -1    0    0    0    0  0.00000000000E+00  0.00000000000E+00  0.45593999997E+02  0.45594000000E+02  0.51100000000E-03 0. -1.
         11   -1    0    0    0    0 -0.00000000000E+00 -0.00000000000E+00 -0.45593999997E+02  0.45594000000E+02  0.51100000000E-03 0.  1.
    9900012    2    1    2    0    0 -0.23627097649E+02 -0.26068276564E+02  0.20380694334E+02  0.50528837590E+02  0.29999932339E+02 0.  0.
        -12    1    1    2    0    0  0.23627097649E+02  0.26068276564E+02 -0.20380694334E+02  0.40659162410E+02  0.00000000000E+00 0.  1.
         11    1    3    3    0    0 -0.91085265466E+01 -0.39419363726E+01 -0.60636783279E+01  0.11630662635E+02  0.51100000000E-03 0. -1.
        -11    1    3    3    0    0  0.51652180517E+00  0.78169562649E+00  0.18695727193E+01  0.20912066472E+01  0.51100000000E-03 0.  1.
         12    1    3    3    0    0 -0.15035092908E+02 -0.22908035818E+02  0.24574799943E+02  0.36806968308E+02  0.00000000000E+00 0. -1.
</event>
<event>
 7    1  0.5839176E-013  0.5052883E+02  0.7816164E-02  0.1300439E+00
        -11   -1    0    0    0    0  0.00000000000E+00  0.00000000000E+00  0.45593999997E+02  0.45594000000E+02  0.51100000000E-03 0.  1.
         11   -1    0    0    0    0 -0.00000000000E+00 -0.00000000000E+00 -0.45593999997E+02  0.45594000000E+02  0.51100000000E-03 0. -1.
    9900012    2    1    2    0    0  0.15165893546E+02  0.22238951581E+02 -0.30472823482E+02  0.50528828028E+02  0.29999903274E+02 0.  0.
        -12    1    1    2    0    0 -0.15165893546E+02 -0.22238951581E+02  0.30472823482E+02  0.40659171972E+02  0.00000000000E+00 0.  1.
         11    1    3    3    0    0  0.10616953601E+02  0.13323371743E+02 -0.80186503526E+01  0.18828985424E+02  0.51100000000E-03 0. -1.
        -11    1    3    3    0    0  0.11064780872E+02  0.12898454486E+01 -0.16880715864E+02  0.20225025226E+02  0.51100000000E-03 0.  1.
        -12    1    3    3    0    0 -0.65158409276E+01  0.76257343894E+01 -0.55734572656E+01  0.11474817378E+02  0.00000000000E+00 0.  1.
</event>
<event>
 7    1  0.5839176E-013  0.5052887E+02  0.7816164E-02  0.1300439E+00
        -11   -1    0    0    0    0  0.00000000000E+00  0.00000000000E+00  0.45593999997E+02  0.45594000000E+02  0.51100000000E-03 0.  1.
         11   -1    0    0    0    0 -0.00000000000E+00 -0.00000000000E+00 -0.45593999997E+02  0.45594000000E+02  0.51100000000E-03 0. -1.
    9900012    2    1    2    0    0  0.15667436275E+02  0.54776707830E+01 -0.37117261800E+02  0.50528873593E+02  0.30000041774E+02 0.  0.
        -12    1    1    2    0    0 -0.15667436275E+02 -0.54776707830E+01  0.37117261800E+02  0.40659126407E+02  0.00000000000E+00 0.  1.
         11    1    3    3    0    0  0.13756286265E+01  0.11126675802E+02 -0.10427907950E+02  0.15311320420E+02  0.51100000000E-03 0. -1.
        -11    1    3    3    0    0  0.85373628558E+01 -0.46617474064E+01 -0.21088682388E+01  0.99531793374E+01  0.51100000000E-03 0.  1.
         12    1    3    3    0    0  0.57544447924E+01 -0.98725761280E+00 -0.24580485611E+02  0.25264373836E+02  0.00000000000E+00 0. -1.
</event>
<event>
 7    1  0.5839176E-013  0.5052887E+02  0.7816164E-02  0.1300439E+00
        -11   -1    0    0    0    0  0.00000000000E+00  0.00000000000E+00  0.45593999997E+02  0.45594000000E+02  0.51100000000E-03 0.  1.
         11   -1    0    0    0    0 -0.00000000000E+00 -0.00000000000E+00 -0.45593999997E+02  0.45594000000E+02  0.51100000000E-03 0. -1.
    9900012    2    1    2    0    0  0.19937778099E+02 -0.34367867368E+02 -0.86313246186E+01  0.50528867353E+02  0.30000022806E+02 0.  0.
        -12    1    1    2    0    0 -0.19937778099E+02  0.34367867368E+02  0.86313246186E+01  0.40659132647E+02  0.00000000000E+00 0.  1.
         11    1    3    3    0    0  0.10624283222E+02 -0.11943010444E+02  0.46212611779E+01  0.16639319324E+02  0.51100000000E-03 0. -1.
        -11    1    3    3    0    0  0.23747162393E+01 -0.14997001207E+02  0.22521369537E+01  0.15349965587E+02  0.51100000000E-03 0.  1.
        -12    1    3    3    0    0  0.69387786377E+01 -0.74278557172E+01 -0.15504722750E+02  0.18539582441E+02  0.00000000000E+00 0.  1.
</event>
<event>
 7    1  0.5839176E-013  0.5052885E+02  0.7816164E-02  0.1300439E+00
        -11   -1    0    0    0    0  0.00000000000E+00  0.00000000000E+00  0.45593999997E+02  0.45594000000E+02  0.51100000000E-03 0.  1.
         11   -1    0    0    0    0 -0.00000000000E+00 -0.00000000000E+00 -0.45593999997E+02  0.45594000000E+02  0.51100000000E-03 0. -1.
    9900012    2    1    2    0    0  0.97703209082E+01  0.10388624511E+02 -0.38076023384E+02  0.50528852854E+02  0.29999978736E+02 0.  0.
        -12    1    1    2    0    0 -0.97703209082E+01 -0.10388624511E+02  0.38076023384E+02  0.40659147146E+02  0.00000000000E+00 0.  1.
         11    1    3    3    0    0  0.20960333330E+01  0.14945618082E+01 -0.78905592513E+01  0.82998792938E+01  0.51100000000E-03 0. -1.
        -11    1    3    3    0    0  0.11795724358E+02 -0.47346014258E+01 -0.23004605352E+02  0.26282454822E+02  0.51100000000E-03 0.  1.
        -12    1    3    3    0    0 -0.41214367823E+01  0.13628664128E+02 -0.71808587804E+01  0.15946518739E+02  0.00000000000E+00 0.  1.
</event>
<event>
 7    1  0.5839176E-013  0.5052886E+02  0.7816164E-02  0.1300439E+00
        -11   -1    0    0    0    0  0.00000000000E+00  0.00000000000E+00  0.45593999997E+02  0.45594000000E+02  0.51100000000E-03 0. -1.
         11   -1    0    0    0    0 -0.00000000000E+00 -0.00000000000E+00 -0.45593999997E+02  0.45594000000E+02  0.51100000000E-03 0.  1.
    9900012    2    1    2    0    0 -0.26253109425E+02  0.27155303014E+02  0.15050903527E+02  0.50528856708E+02  0.29999990449E+02 0.  0.
        -12    1    1    2    0    0  0.26253109425E+02 -0.27155303014E+02 -0.15050903527E+02  0.40659143292E+02  0.00000000000E+00 0.  1.
         11    1    3    3    0    0 -0.20207607398E+01  0.13812090480E+02  0.67341727047E+01  0.15498593474E+02  0.51100000000E-03 0. -1.
        -11    1    3    3    0    0 -0.75114268787E+01  0.14367698511E+02 -0.24998417883E+00  0.16214647286E+02  0.51100000000E-03 0.  1.
        -12    1    3    3    0    0 -0.16720921806E+02 -0.10244859772E+01  0.85667150011E+01  0.18815615947E+02  0.00000000000E+00 0.  1.
</event>
<event>
 7    1  0.5839176E-013  0.5052886E+02  0.7816164E-02  0.1300439E+00
        -11   -1    0    0    0    0  0.00000000000E+00  0.00000000000E+00  0.45593999997E+02  0.45594000000E+02  0.51100000000E-03 0. -1.
         11   -1    0    0    0    0 -0.00000000000E+00 -0.00000000000E+00 -0.45593999997E+02  0.45594000000E+02  0.51100000000E-03 0.  1.
    9900012    2    1    2    0    0  0.33716095911E+02  0.18497311213E+02 -0.13199995648E+02  0.50528861659E+02  0.30000005498E+02 0.  0.
        -12    1    1    2    0    0 -0.33716095911E+02 -0.18497311213E+02  0.13199995648E+02  0.40659138341E+02  0.00000000000E+00 0.  1.
         11    1    3    3    0    0  0.51025200525E+01  0.13275847509E+02 -0.52815246659E+01  0.15171629479E+02  0.51100000000E-03 0. -1.
        -11    1    3    3    0    0  0.55883620619E+01  0.82744094494E+01 -0.68448842514E+01  0.12105704562E+02  0.51100000000E-03 0.  1.
         12    1    3    3    0    0  0.23025213796E+02 -0.30529457463E+01 -0.10735867311E+01  0.23251527618E+02  0.00000000000E+00 0. -1.
</event>
<event>
 7    1  0.5839176E-013  0.5052886E+02  0.7816164E-02  0.1300439E+00
        -11   -1    0    0    0    0  0.00000000000E+00  0.00000000000E+00  0.45593999997E+02  0.45594000000E+02  0.51100000000E-03 0.  1.
         11   -1    0    0    0    0 -0.00000000000E+00 -0.00000000000E+00 -0.45593999997E+02  0.45594000000E+02  0.51100000000E-03 0. -1.
    9900012    2    1    2    0    0  0.44258588374E+01  0.27696843011E+01 -0.40322526931E+02  0.50528861351E+02  0.30000004562E+02 0.  0.
        -12    1    1    2    0    0 -0.44258588374E+01 -0.27696843011E+01  0.40322526931E+02  0.40659138649E+02  0.00000000000E+00 0.  1.
         11    1    3    3    0    0 -0.41416853919E+01  0.82966795971E+01 -0.16846185496E+02  0.19229727409E+02  0.51100000000E-03 0. -1.
        -11    1    3    3    0    0  0.19619806081E+01  0.35369634901E+01 -0.18659704398E+02  0.19093036614E+02  0.51100000000E-03 0.  1.
        -12    1    3    3    0    0  0.66055636212E+01 -0.90639587860E+01 -0.48166370373E+01  0.12206097328E+02  0.00000000000E+00 0.  1.
</event>
<event>
 7    1  0.5839176E-013  0.5052886E+02  0.7816164E-02  0.1300439E+00
        -11   -1    0    0    0    0  0.00000000000E+00  0.00000000000E+00  0.45593999997E+02  0.45594000000E+02  0.51100000000E-03 0.  1.
         11   -1    0    0    0    0 -0.00000000000E+00 -0.00000000000E+00 -0.45593999997E+02  0.45594000000E+02  0.51100000000E-03 0. -1.
    9900012    2    1    2    0    0 -0.99297962620E+01  0.32995691048E+02 -0.21583538831E+02  0.50528860437E+02  0.30000001784E+02 0.  0.
        -12    1    1    2    0    0  0.99297962620E+01 -0.32995691048E+02  0.21583538831E+02  0.40659139563E+02  0.00000000000E+00 0.  1.
         11    1    3    3    0    0 -0.11830701589E+00  0.37598011212E+00 -0.19821363359E+01  0.20209458949E+01  0.51100000000E-03 0. -1.
        -11    1    3    3    0    0  0.18849638510E+01 -0.46256859250E+01 -0.42529536331E+01  0.65603105005E+01  0.51100000000E-03 0.  1.
         12    1    3    3    0    0 -0.11696453097E+02  0.37245396861E+02 -0.15348448862E+02  0.41947604042E+02  0.00000000000E+00 0. -1.
</event>
<event>
 7    1  0.5839176E-013  0.5052886E+02  0.7816164E-02  0.1300439E+00
        -11   -1    0    0    0    0  0.00000000000E+00  0.00000000000E+00  0.45593999997E+02  0.45594000000E+02  0.51100000000E-03 0.  1.
         11   -1    0    0    0    0 -0.00000000000E+00 -0.00000000000E+00 -0.45593999997E+02  0.45594000000E+02  0.51100000000E-03 0. -1.
    9900012    2    1    2    0    0  0.12709985530E+02 -0.22562130144E+02 -0.31346005500E+02  0.50528861917E+02  0.30000006284E+02 0.  0.
        -12    1    1    2    0    0 -0.12709985530E+02  0.22562130144E+02  0.31346005500E+02  0.40659138083E+02  0.00000000000E+00 0.  1.
         11    1    3    3    0    0 -0.35490953873E+01  0.20387426496E+01 -0.48434100222E+01  0.63412278436E+01  0.51100000000E-03 0. -1.
        -11    1    3    3    0    0 -0.22971863586E+00 -0.50651654591E+01  0.23930927573E+01  0.56067428144E+01  0.51100000000E-03 0.  1.
         12    1    3    3    0    0  0.16488799553E+02 -0.19535707335E+02 -0.28895688235E+02  0.38580891259E+02  0.00000000000E+00 0. -1.
</event>
<event>
 7    1  0.5839176E-013  0.5052885E+02  0.7816164E-02  0.1300439E+00
        -11   -1    0    0    0    0  0.00000000000E+00  0.00000000000E+00  0.45593999997E+02  0.45594000000E+02  0.51100000000E-03 0.  1.
         11   -1    0    0    0    0 -0.00000000000E+00 -0.00000000000E+00 -0.45593999997E+02  0.45594000000E+02  0.51100000000E-03 0. -1.
    9900012    2    1    2    0    0 -0.69510865206E+01  0.27946201076E+02 -0.28702933926E+02  0.50528853743E+02  0.29999981436E+02 0.  0.
        -12    1    1    2    0    0  0.69510865206E+01 -0.27946201076E+02  0.28702933926E+02  0.40659146257E+02  0.00000000000E+00 0.  1.
         11    1    3    3    0    0 -0.91988151336E+01  0.46368492722E+01 -0.19076491595E+02  0.21680200711E+02  0.51100000000E-03 0. -1.
        -11    1    3    3    0    0  0.28296770761E+01 -0.90697658437E+00 -0.10980187304E+01  0.31678579944E+01  0.51100000000E-03 0.  1.
        -12    1    3    3    0    0 -0.58194846302E+00  0.24216328388E+02 -0.85284236007E+01  0.25680795037E+02  0.00000000000E+00 0.  1.
</event>
<event>
 7    1  0.5839176E-013  0.5052886E+02  0.7816164E-02  0.1300439E+00
        -11   -1    0    0    0    0  0.00000000000E+00  0.00000000000E+00  0.45593999997E+02  0.45594000000E+02  0.51100000000E-03 0. -1.
         11   -1    0    0    0    0 -0.00000000000E+00 -0.00000000000E+00 -0.45593999997E+02  0.45594000000E+02  0.51100000000E-03 0.  1.
    9900012    2    1    2    0    0  0.30253953622E+02  0.26497823623E+02 -0.59773835501E+01  0.50528862274E+02  0.30000007368E+02 0.  0.
        -12    1    1    2    0    0 -0.30253953622E+02 -0.26497823623E+02  0.59773835501E+01  0.40659137726E+02  0.00000000000E+00 0.  1.
         11    1    3    3    0    0  0.13356265910E+02  0.53270983460E+01  0.43983085046E+01  0.15037052031E+02  0.51100000000E-03 0.  1.
        -11    1    3    3    0    0 -0.16502887416E+01  0.85600195818E+01  0.31859694838E+01  0.92815833770E+01  0.51100000000E-03 0. -1.
         12    1    3    3    0    0  0.18547976454E+02  0.12610705695E+02 -0.13561661538E+02  0.26210226866E+02  0.00000000000E+00 0. -1.
</event>
<event>
 7    1  0.5839176E-013  0.5052886E+02  0.7816164E-02  0.1300439E+00
        -11   -1    0    0    0    0  0.00000000000E+00  0.00000000000E+00  0.45593999997E+02  0.45594000000E+02  0.51100000000E-03 0. -1.
         11   -1    0    0    0    0 -0.00000000000E+00 -0.00000000000E+00 -0.45593999997E+02  0.45594000000E+02  0.51100000000E-03 0.  1.
    9900012    2    1    2    0    0 -0.11939117621E+02 -0.16980689952E+02 -0.34961107455E+02  0.50528863324E+02  0.30000010558E+02 0.  0.
        -12    1    1    2    0    0  0.11939117621E+02  0.16980689952E+02  0.34961107455E+02  0.40659136676E+02  0.00000000000E+00 0.  1.
         11    1    3    3    0    0 -0.63740098584E+01 -0.61837515560E+01  0.17468454448E+01  0.90508703588E+01  0.51100000000E-03 0. -1.
        -11    1    3    3    0    0 -0.74240717348E+01 -0.98074525515E+01 -0.13851650996E+02  0.18524880627E+02  0.51100000000E-03 0.  1.
        -12    1    3    3    0    0  0.18589639727E+01 -0.98948584495E+00 -0.22856301903E+02  0.22953112338E+02  0.00000000000E+00 0.  1.
</event>
<event>
 7    1  0.5839176E-013  0.5052883E+02  0.7816164E-02  0.1300439E+00
        -11   -1    0    0    0    0  0.00000000000E+00  0.00000000000E+00  0.45593999997E+02  0.45594000000E+02  0.51100000000E-03 0.  1.
         11   -1    0    0    0    0 -0.00000000000E+00 -0.00000000000E+00 -0.45593999997E+02  0.45594000000E+02  0.51100000000E-03 0. -1.
    9900012    2    1    2    0    0  0.35645928594E+02  0.19230000298E+02  0.35697133305E+01  0.50528831415E+02  0.29999913569E+02 0.  0.
        -12    1    1    2    0    0 -0.35645928594E+02 -0.19230000298E+02 -0.35697133305E+01  0.40659168585E+02  0.00000000000E+00 0.  1.
         11    1    3    3    0    0  0.26191704598E+00  0.91474163362E+00  0.20479286500E+01  0.22581773207E+01  0.51100000000E-03 0. -1.
        -11    1    3    3    0    0  0.11800199762E+02  0.21390998491E+02 -0.12458306005E+00  0.24430207778E+02  0.51100000000E-03 0.  1.
         12    1    3    3    0    0  0.23583811785E+02 -0.30757398275E+01  0.16463677406E+01  0.23840446316E+02  0.00000000000E+00 0. -1.
</event>
<event>
 7    1  0.5839176E-013  0.5052885E+02  0.7816164E-02  0.1300439E+00
        -11   -1    0    0    0    0  0.00000000000E+00  0.00000000000E+00  0.45593999997E+02  0.45594000000E+02  0.51100000000E-03 0. -1.
         11   -1    0    0    0    0 -0.00000000000E+00 -0.00000000000E+00 -0.45593999997E+02  0.45594000000E+02  0.51100000000E-03 0.  1.
    9900012    2    1    2    0    0 -0.21447662350E+02  0.12612196237E+02  0.32157375241E+02  0.50528849780E+02  0.29999969392E+02 0.  0.
        -12    1    1    2    0    0  0.21447662350E+02 -0.12612196237E+02 -0.32157375241E+02  0.40659150220E+02  0.00000000000E+00 0.  1.
         11    1    3    3    0    0 -0.96936001806E+01  0.73924173125E+01  0.51759232503E+01  0.13244013740E+02  0.51100000000E-03 0. -1.
        -11    1    3    3    0    0 -0.70565163641E+01  0.83541429771E+01  0.13265095257E+01  0.11015704964E+02  0.51100000000E-03 0.  1.
        -12    1    3    3    0    0 -0.46975458055E+01 -0.31343640526E+01  0.25654942465E+02  0.26269131076E+02  0.00000000000E+00 0.  1.
</event>
<event>
 7    1  0.5839176E-013  0.5052885E+02  0.7816164E-02  0.1300439E+00
        -11   -1    0    0    0    0  0.00000000000E+00  0.00000000000E+00  0.45593999997E+02  0.45594000000E+02  0.51100000000E-03 0.  1.
         11   -1    0    0    0    0 -0.00000000000E+00 -0.00000000000E+00 -0.45593999997E+02  0.45594000000E+02  0.51100000000E-03 0. -1.
    9900012    2    1    2    0    0  0.16376570643E+02 -0.33877667887E+01 -0.37060724132E+02  0.50528852160E+02  0.29999976626E+02 0.  0.
        -12    1    1    2    0    0 -0.16376570643E+02  0.33877667887E+01  0.37060724132E+02  0.40659147840E+02  0.00000000000E+00 0.  1.
         11    1    3    3    0    0  0.53452455975E+01  0.18748428021E+01 -0.37659308725E+01  0.68021262578E+01  0.51100000000E-03 0. -1.
        -11    1    3    3    0    0  0.25958099099E+01  0.10084855905E+02 -0.89125350842E+01  0.13706780424E+02  0.51100000000E-03 0.  1.
         12    1    3    3    0    0  0.84355151354E+01 -0.15347465496E+02 -0.24382258176E+02  0.30019945478E+02  0.00000000000E+00 0. -1.
</event>
<event>
 7    1  0.5839176E-013  0.5052887E+02  0.7816164E-02  0.1300439E+00
        -11   -1    0    0    0    0  0.00000000000E+00  0.00000000000E+00  0.45593999997E+02  0.45594000000E+02  0.51100000000E-03 0.  1.
         11   -1    0    0    0    0 -0.00000000000E+00 -0.00000000000E+00 -0.45593999997E+02  0.45594000000E+02  0.51100000000E-03 0. -1.
    9900012    2    1    2    0    0  0.14156003760E+02 -0.21102971554E+02 -0.31740150953E+02  0.50528867774E+02  0.30000024086E+02 0.  0.
        -12    1    1    2    0    0 -0.14156003760E+02  0.21102971554E+02  0.31740150953E+02  0.40659132226E+02  0.00000000000E+00 0.  1.
         11    1    3    3    0    0 -0.18393080071E+00  0.41137230510E+01 -0.13930437870E+01  0.43470816801E+01  0.51100000000E-03 0. -1.
        -11    1    3    3    0    0  0.33979053887E+01  0.27441031506E+01 -0.17131111812E+01  0.46915470063E+01  0.51100000000E-03 0.  1.
         12    1    3    3    0    0  0.10942029172E+02 -0.27960797755E+02 -0.28633995985E+02  0.41490239088E+02  0.00000000000E+00 0. -1.
</event>
<event>
 7    1  0.5839176E-013  0.5052885E+02  0.7816164E-02  0.1300439E+00
        -11   -1    0    0    0    0  0.00000000000E+00  0.00000000000E+00  0.45593999997E+02  0.45594000000E+02  0.51100000000E-03 0.  1.
         11   -1    0    0    0    0 -0.00000000000E+00 -0.00000000000E+00 -0.45593999997E+02  0.45594000000E+02  0.51100000000E-03 0. -1.
    9900012    2    1    2    0    0  0.22319760855E+01 -0.16095137112E+02 -0.37271052098E+02  0.50528849979E+02  0.29999969997E+02 0.  0.
        -12    1    1    2    0    0 -0.22319760855E+01  0.16095137112E+02  0.37271052098E+02  0.40659150021E+02  0.00000000000E+00 0.  1.
         11    1    3    3    0    0  0.36405322496E+01  0.31586656344E-01 -0.22166635734E+02  0.22463619762E+02  0.51100000000E-03 0. -1.
        -11    1    3    3    0    0 -0.81796422344E+01 -0.96486757708E+01 -0.13602092346E+02  0.18574724968E+02  0.51100000000E-03 0.  1.
        -12    1    3    3    0    0  0.67710860703E+01 -0.64780479976E+01 -0.15023240188E+01  0.94905052494E+01  0.00000000000E+00 0.  1.
</event>
<event>
 7    1  0.5839176E-013  0.5052887E+02  0.7816164E-02  0.1300439E+00
        -11   -1    0    0    0    0  0.00000000000E+00  0.00000000000E+00  0.45593999997E+02  0.45594000000E+02  0.51100000000E-03 0.  1.
         11   -1    0    0    0    0 -0.00000000000E+00 -0.00000000000E+00 -0.45593999997E+02  0.45594000000E+02  0.51100000000E-03 0. -1.
    9900012    2    1    2    0    0 -0.84115665114E+01  0.20567590645E+02 -0.34049732953E+02  0.50528873715E+02  0.30000042143E+02 0.  0.
        -12    1    1    2    0    0  0.84115665114E+01 -0.20567590645E+02  0.34049732953E+02  0.40659126285E+02  0.00000000000E+00 0.  1.
         11    1    3    3    0    0 -0.11603720093E+02  0.11620244342E+02 -0.30484559926E+02  0.34626359796E+02  0.51100000000E-03 0. -1.
        -11    1    3    3    0    0  0.32798544370E+01  0.44492397066E+00 -0.61766915206E+01  0.70076330433E+01  0.51100000000E-03 0.  1.
        -12    1    3    3    0    0 -0.87700855295E-01  0.85024223319E+01  0.26115184932E+01  0.88948808756E+01  0.00000000000E+00 0.  1.
</event>
<event>
 7    1  0.5839176E-013  0.5052887E+02  0.7816164E-02  0.1300439E+00
        -11   -1    0    0    0    0  0.00000000000E+00  0.00000000000E+00  0.45593999997E+02  0.45594000000E+02  0.51100000000E-03 0.  1.
         11   -1    0    0    0    0 -0.00000000000E+00 -0.00000000000E+00 -0.45593999997E+02  0.45594000000E+02  0.51100000000E-03 0. -1.
    9900012    2    1    2    0    0  0.24106770990E+01  0.66036417806E+01 -0.40046793317E+02  0.50528866907E+02  0.30000021451E+02 0.  0.
        -12    1    1    2    0    0 -0.24106770990E+01 -0.66036417806E+01  0.40046793317E+02  0.40659133093E+02  0.00000000000E+00 0.  1.
         11    1    3    3    0    0  0.21687738256E+01 -0.20234017223E+01 -0.48721687123E+01  0.57040128557E+01  0.51100000000E-03 0. -1.
        -11    1    3    3    0    0  0.13193618518E+02  0.24656912506E+01 -0.17865813587E+02  0.22345883252E+02  0.51100000000E-03 0.  1.
         12    1    3    3    0    0 -0.12951715244E+02  0.61613522523E+01 -0.17308811019E+02  0.22478970800E+02  0.00000000000E+00 0. -1.
</event>
<event>
 7    1  0.7947773E-013  0.5052886E+02  0.7816164E-02  0.1300439E+00
        -11   -1    0    0    0    0  0.00000000000E+00  0.00000000000E+00  0.45593999997E+02  0.45594000000E+02  0.51100000000E-03 0. -1.
         11   -1    0    0    0    0 -0.00000000000E+00 -0.00000000000E+00 -0.45593999997E+02  0.45594000000E+02  0.51100000000E-03 0.  1.
    9900012    2    1    2    0    0 -0.15506773854E+02 -0.14704627465E+02  0.34590167615E+02  0.50528858348E+02  0.29999995434E+02 0.  0.
        -12    1    1    2    0    0  0.15506773854E+02  0.14704627465E+02 -0.34590167615E+02  0.40659141652E+02  0.00000000000E+00 0.  1.
         11    1    3    3    0    0 -0.17663922160E+02 -0.17963560836E+02  0.26442792076E+02  0.36522936862E+02  0.51100000000E-03 0.  1.
        -11    1    3    3    0    0 -0.32990985776E+01  0.43212298945E+01  0.58641335092E+01  0.79965705963E+01  0.51100000000E-03 0. -1.
        -12    1    3    3    0    0  0.54562468828E+01 -0.10622965237E+01  0.22832420300E+01  0.60093508898E+01  0.00000000000E+00 0.  1.
</event>
<event>
 7    1  0.5839176E-013  0.5052886E+02  0.7816164E-02  0.1300439E+00
        -11   -1    0    0    0    0  0.00000000000E+00  0.00000000000E+00  0.45593999997E+02  0.45594000000E+02  0.51100000000E-03 0. -1.
         11   -1    0    0    0    0 -0.00000000000E+00 -0.00000000000E+00 -0.45593999997E+02  0.45594000000E+02  0.51100000000E-03 0.  1.
    9900012    2    1    2    0    0 -0.53793216516E+01  0.36344273221E+02  0.17416141655E+02  0.50528864649E+02  0.30000014586E+02 0.  0.
        -12    1    1    2    0    0  0.53793216516E+01 -0.36344273221E+02 -0.17416141655E+02  0.40659135351E+02  0.00000000000E+00 0.  1.
         11    1    3    3    0    0  0.63128907090E+01  0.13532114380E+02 -0.15640947764E+01  0.15013896944E+02  0.51100000000E-03 0.  1.
        -11    1    3    3    0    0  0.21530120537E+01 -0.10652155710E+01  0.12270609513E+01  0.26973735292E+01  0.51100000000E-03 0. -1.
         12    1    3    3    0    0 -0.13845224414E+02  0.23877374412E+02  0.17753175480E+02  0.32817594176E+02  0.00000000000E+00 0. -1.
</event>
<event>
 7    1  0.5839176E-013  0.5052886E+02  0.7816164E-02  0.1300439E+00
        -11   -1    0    0    0    0  0.00000000000E+00  0.00000000000E+00  0.45593999997E+02  0.45594000000E+02  0.51100000000E-03 0.  1.
         11   -1    0    0    0    0 -0.00000000000E+00 -0.00000000000E+00 -0.45593999997E+02  0.45594000000E+02  0.51100000000E-03 0. -1.
    9900012    2    1    2    0    0  0.13311286919E+02  0.35771129789E+02 -0.14014346298E+02  0.50528856035E+02  0.29999988403E+02 0.  0.
        -12    1    1    2    0    0 -0.13311286919E+02 -0.35771129789E+02  0.14014346298E+02  0.40659143965E+02  0.00000000000E+00 0.  1.
         11    1    3    3    0    0  0.43732374069E+01  0.14258563397E+01 -0.23264168741E+01  0.51546568704E+01  0.51100000000E-03 0. -1.
        -11    1    3    3    0    0  0.67630188116E+01 -0.49867998510E+00 -0.76605605549E+01  0.10230898956E+02  0.51100000000E-03 0.  1.
         12    1    3    3    0    0  0.21750307001E+01  0.34843953435E+02 -0.40273688688E+01  0.35143300208E+02  0.00000000000E+00 0. -1.
</event>
<event>
 7    1  0.5839176E-013  0.5052886E+02  0.7816164E-02  0.1300439E+00
        -11   -1    0    0    0    0  0.00000000000E+00  0.00000000000E+00  0.45593999997E+02  0.45594000000E+02  0.51100000000E-03 0.  1.
         11   -1    0    0    0    0 -0.00000000000E+00 -0.00000000000E+00 -0.45593999997E+02  0.45594000000E+02  0.51100000000E-03 0. -1.
    9900012    2    1    2    0    0 -0.35982003726E+02 -0.11489304894E+02 -0.15048475070E+02  0.50528864236E+02  0.30000013333E+02 0.  0.
        -12    1    1    2    0    0  0.35982003726E+02  0.11489304894E+02  0.15048475070E+02  0.40659135764E+02  0.00000000000E+00 0.  1.
         11    1    3    3    0    0  0.50511287065E+00  0.11478890087E+01 -0.39975719008E+01  0.41896741582E+01  0.51100000000E-03 0. -1.
        -11    1    3    3    0    0 -0.35241770049E+01  0.44681114044E+01 -0.69409999777E+01  0.89755960267E+01  0.51100000000E-03 0.  1.
         12    1    3    3    0    0 -0.32962939592E+02 -0.17105305308E+02 -0.41099031918E+01  0.37363594052E+02  0.00000000000E+00 0. -1.
</event>
<event>
 7    1  0.5839176E-013  0.5052886E+02  0.7816164E-02  0.1300439E+00
        -11   -1    0    0    0    0  0.00000000000E+00  0.00000000000E+00  0.45593999997E+02  0.45594000000E+02  0.51100000000E-03 0. -1.
         11   -1    0    0    0    0 -0.00000000000E+00 -0.00000000000E+00 -0.45593999997E+02  0.45594000000E+02  0.51100000000E-03 0.  1.
    9900012    2    1    2    0    0  0.95001938696E+01  0.21267374277E+02  0.33325828825E+02  0.50528858850E+02  0.29999996960E+02 0.  0.
        -12    1    1    2    0    0 -0.95001938696E+01 -0.21267374277E+02 -0.33325828825E+02  0.40659141150E+02  0.00000000000E+00 0.  1.
         11    1    3    3    0    0  0.13223127176E+02  0.87052802181E+01  0.16138110512E+02  0.22606892912E+02  0.51100000000E-03 0. -1.
        -11    1    3    3    0    0  0.46926522978E+01  0.15537744087E+01  0.12253608041E+02  0.13213103753E+02  0.51100000000E-03 0.  1.
         12    1    3    3    0    0 -0.84155856043E+01  0.11008319650E+02  0.49341102721E+01  0.14708862184E+02  0.00000000000E+00 0. -1.
</event>
<event>
 7    1  0.5839176E-013  0.5052879E+02  0.7816164E-02  0.1300439E+00
        -11   -1    0    0    0    0  0.00000000000E+00  0.00000000000E+00  0.45593999997E+02  0.45594000000E+02  0.51100000000E-03 0.  1.
         11   -1    0    0    0    0 -0.00000000000E+00 -0.00000000000E+00 -0.45593999997E+02  0.45594000000E+02  0.51100000000E-03 0. -1.
    9900012    2    1    2    0    0  0.84312255483E+01  0.26068774369E+01 -0.39689920555E+02  0.50528792336E+02  0.29999794783E+02 0.  0.
        -12    1    1    2    0    0 -0.84312255483E+01 -0.26068774369E+01  0.39689920555E+02  0.40659207664E+02  0.00000000000E+00 0.  1.
         11    1    3    3    0    0 -0.68854836895E+00 -0.60342192306E+01 -0.13081879308E+00  0.60747851318E+01  0.51100000000E-03 0. -1.
        -11    1    3    3    0    0  0.21055066393E+01  0.94472030686E+01 -0.94465165572E+01  0.13524772802E+02  0.51100000000E-03 0.  1.
         12    1    3    3    0    0  0.70142672779E+01 -0.80610640104E+00 -0.30112585205E+02  0.30929234402E+02  0.00000000000E+00 0. -1.
</event>
<event>
 7    1  0.5839176E-013  0.5052886E+02  0.7816164E-02  0.1300439E+00
        -11   -1    0    0    0    0  0.00000000000E+00  0.00000000000E+00  0.45593999997E+02  0.45594000000E+02  0.51100000000E-03 0.  1.
         11   -1    0    0    0    0 -0.00000000000E+00 -0.00000000000E+00 -0.45593999997E+02  0.45594000000E+02  0.51100000000E-03 0. -1.
    9900012    2    1    2    0    0  0.24544026816E+02  0.31983018001E+02 -0.52766548129E+01  0.50528858607E+02  0.29999996221E+02 0.  0.
        -12    1    1    2    0    0 -0.24544026816E+02 -0.31983018001E+02  0.52766548129E+01  0.40659141393E+02  0.00000000000E+00 0.  1.
         11    1    3    3    0    0  0.92992686464E+01  0.87308327606E+01  0.70283382385E+01  0.14563700653E+02  0.51100000000E-03 0. -1.
        -11    1    3    3    0    0 -0.10235515636E+01  0.11908862596E+01  0.38429525505E+01  0.41514036727E+01  0.51100000000E-03 0.  1.
         12    1    3    3    0    0  0.16268309733E+02  0.22061298981E+02 -0.16147945602E+02  0.31813754281E+02  0.00000000000E+00 0. -1.
</event>
<event>
 7    1  0.5839176E-013  0.5052886E+02  0.7816164E-02  0.1300439E+00
        -11   -1    0    0    0    0  0.00000000000E+00  0.00000000000E+00  0.45593999997E+02  0.45594000000E+02  0.51100000000E-03 0. -1.
         11   -1    0    0    0    0 -0.00000000000E+00 -0.00000000000E+00 -0.45593999997E+02  0.45594000000E+02  0.51100000000E-03 0.  1.
    9900012    2    1    2    0    0 -0.32020279026E+02  0.20676287592E+02 -0.14154794447E+02  0.50528863963E+02  0.30000012502E+02 0.  0.
        -12    1    1    2    0    0  0.32020279026E+02 -0.20676287592E+02  0.14154794447E+02  0.40659136037E+02  0.00000000000E+00 0.  1.
         11    1    3    3    0    0 -0.39541181432E+01 -0.42730866913E+01 -0.77195721337E+01  0.96688217664E+01  0.51100000000E-03 0. -1.
        -11    1    3    3    0    0  0.67721567438E+00  0.45794416870E+01  0.12647532211E+01  0.47989069803E+01  0.51100000000E-03 0.  1.
         12    1    3    3    0    0 -0.28743376557E+02  0.20369932596E+02 -0.76999755339E+01  0.36061135216E+02  0.00000000000E+00 0. -1.
</event>
<event>
 7    1  0.5839176E-013  0.5052886E+02  0.7816164E-02  0.1300439E+00
        -11   -1    0    0    0    0  0.00000000000E+00  0.00000000000E+00  0.45593999997E+02  0.45594000000E+02  0.51100000000E-03 0.  1.
         11   -1    0    0    0    0 -0.00000000000E+00 -0.00000000000E+00 -0.45593999997E+02  0.45594000000E+02  0.51100000000E-03 0. -1.
    9900012    2    1    2    0    0  0.23227676772E+02  0.25931772211E+02 -0.21004381110E+02  0.50528858296E+02  0.29999995278E+02 0.  0.
        -12    1    1    2    0    0 -0.23227676772E+02 -0.25931772211E+02  0.21004381110E+02  0.40659141704E+02  0.00000000000E+00 0.  1.
         11    1    3    3    0    0  0.24167343176E+01  0.59554832742E+01 -0.20116550426E+00  0.64303074276E+01  0.51100000000E-03 0. -1.
        -11    1    3    3    0    0  0.46236580138E+01  0.38611538955E+01  0.62580251321E+01  0.86861730151E+01  0.51100000000E-03 0.  1.
        -12    1    3    3    0    0  0.16187284440E+02  0.16115135042E+02 -0.27061240738E+02  0.35412377854E+02  0.00000000000E+00 0.  1.
</event>
<event>
 7    1  0.5839176E-013  0.5052887E+02  0.7816164E-02  0.1300439E+00
        -11   -1    0    0    0    0  0.00000000000E+00  0.00000000000E+00  0.45593999997E+02  0.45594000000E+02  0.51100000000E-03 0.  1.
         11   -1    0    0    0    0 -0.00000000000E+00 -0.00000000000E+00 -0.45593999997E+02  0.45594000000E+02  0.51100000000E-03 0. -1.
    9900012    2    1    2    0    0  0.17126359837E+02 -0.22949031119E+02 -0.28865109248E+02  0.50528871106E+02  0.30000034213E+02 0.  0.
        -12    1    1    2    0    0 -0.17126359837E+02  0.22949031119E+02  0.28865109248E+02  0.40659128894E+02  0.00000000000E+00 0.  1.
         11    1    3    3    0    0  0.85952017993E+01 -0.30019937056E+00 -0.92494020947E+01  0.12630085233E+02  0.51100000000E-03 0. -1.
        -11    1    3    3    0    0  0.10184802127E+02 -0.25472236733E+02 -0.20791755910E+02  0.34421826689E+02  0.51100000000E-03 0.  1.
         12    1    3    3    0    0 -0.16536440893E+01  0.28234049849E+01  0.11760487566E+01  0.34769591831E+01  0.00000000000E+00 0. -1.
</event>
<event>
 7    1  0.5839176E-013  0.5052886E+02  0.7816164E-02  0.1300439E+00
        -11   -1    0    0    0    0  0.00000000000E+00  0.00000000000E+00  0.45593999997E+02  0.45594000000E+02  0.51100000000E-03 0. -1.
         11   -1    0    0    0    0 -0.00000000000E+00 -0.00000000000E+00 -0.45593999997E+02  0.45594000000E+02  0.51100000000E-03 0.  1.
    9900012    2    1    2    0    0  0.40049885529E+02  0.60975766364E+01 -0.34629126881E+01  0.50528861593E+02  0.30000005298E+02 0.  0.
        -12    1    1    2    0    0 -0.40049885529E+02 -0.60975766364E+01  0.34629126881E+01  0.40659138407E+02  0.00000000000E+00 0.  1.
         11    1    3    3    0    0  0.21019099982E+02 -0.19077690985E+01 -0.33699844267E+01  0.21372855267E+02  0.51100000000E-03 0. -1.
        -11    1    3    3    0    0  0.20583076681E+02  0.22814370137E+01 -0.51747948130E+01  0.21345877872E+02  0.51100000000E-03 0.  1.
        -12    1    3    3    0    0 -0.15522911338E+01  0.57239087212E+01  0.50818665517E+01  0.78101284536E+01  0.00000000000E+00 0.  1.
</event>
<event>
 7    1  0.5839176E-013  0.5052883E+02  0.7816164E-02  0.1300439E+00
        -11   -1    0    0    0    0  0.00000000000E+00  0.00000000000E+00  0.45593999997E+02  0.45594000000E+02  0.51100000000E-03 0. -1.
         11   -1    0    0    0    0 -0.00000000000E+00 -0.00000000000E+00 -0.45593999997E+02  0.45594000000E+02  0.51100000000E-03 0.  1.
    9900012    2    1    2    0    0 -0.14897596202E+02  0.27365424097E+02  0.26122090692E+02  0.50528825996E+02  0.29999897096E+02 0.  0.
        -12    1    1    2    0    0  0.14897596202E+02 -0.27365424097E+02 -0.26122090692E+02  0.40659174004E+02  0.00000000000E+00 0.  1.
         11    1    3    3    0    0 -0.56626776875E+00  0.10305932331E+02  0.24107985181E+01  0.10599285360E+02  0.51100000000E-03 0. -1.
        -11    1    3    3    0    0  0.24962071255E+01  0.35176062605E+01  0.16657983627E+02  0.17207353736E+02  0.51100000000E-03 0.  1.
         12    1    3    3    0    0 -0.16827535559E+02  0.13541885506E+02  0.70533085470E+01  0.22722186900E+02  0.00000000000E+00 0. -1.
</event>
<event>
 7    1  0.5839176E-013  0.5052886E+02  0.7816164E-02  0.1300439E+00
        -11   -1    0    0    0    0  0.00000000000E+00  0.00000000000E+00  0.45593999997E+02  0.45594000000E+02  0.51100000000E-03 0.  1.
         11   -1    0    0    0    0 -0.00000000000E+00 -0.00000000000E+00 -0.45593999997E+02  0.45594000000E+02  0.51100000000E-03 0. -1.
    9900012    2    1    2    0    0 -0.39548124428E+01 -0.40157336025E+02  0.49913585553E+01  0.50528857875E+02  0.29999993998E+02 0.  0.
        -12    1    1    2    0    0  0.39548124428E+01  0.40157336025E+02 -0.49913585553E+01  0.40659142125E+02  0.00000000000E+00 0.  1.
         11    1    3    3    0    0  0.42253465501E+01 -0.27316183232E+01 -0.14435420172E+01  0.52344155308E+01  0.51100000000E-03 0. -1.
        -11    1    3    3    0    0 -0.36698174252E+00 -0.63925815873E+01 -0.79504218894E+01  0.10208280141E+02  0.51100000000E-03 0.  1.
        -12    1    3    3    0    0 -0.78131772505E+01 -0.31033136115E+02  0.14385322462E+02  0.35086162204E+02  0.00000000000E+00 0.  1.
</event>
<event>
 7    1  0.5839176E-013  0.5052886E+02  0.7816164E-02  0.1300439E+00
        -11   -1    0    0    0    0  0.00000000000E+00  0.00000000000E+00  0.45593999997E+02  0.45594000000E+02  0.51100000000E-03 0. -1.
         11   -1    0    0    0    0 -0.00000000000E+00 -0.00000000000E+00 -0.45593999997E+02  0.45594000000E+02  0.51100000000E-03 0.  1.
    9900012    2    1    2    0    0  0.12491065760E+02  0.37040063955E+02  0.11188057259E+02  0.50528859738E+02  0.29999999660E+02 0.  0.
        -12    1    1    2    0    0 -0.12491065760E+02 -0.37040063955E+02 -0.11188057259E+02  0.40659140262E+02  0.00000000000E+00 0.  1.
         11    1    3    3    0    0  0.72134228177E+01  0.15759746272E+02  0.12109504169E+02  0.21143395252E+02  0.51100000000E-03 0. -1.
        -11    1    3    3    0    0 -0.46777468379E+00  0.12957641649E+02  0.85486065382E+01  0.15530549387E+02  0.51100000000E-03 0.  1.
         12    1    3    3    0    0  0.57454176259E+01  0.83226760335E+01 -0.94700534487E+01  0.13854915098E+02  0.00000000000E+00 0. -1.
</event>
<event>
 7    1  0.5839176E-013  0.5052891E+02  0.7816164E-02  0.1300439E+00
        -11   -1    0    0    0    0  0.00000000000E+00  0.00000000000E+00  0.45593999997E+02  0.45594000000E+02  0.51100000000E-03 0.  1.
         11   -1    0    0    0    0 -0.00000000000E+00 -0.00000000000E+00 -0.45593999997E+02  0.45594000000E+02  0.51100000000E-03 0. -1.
    9900012    2    1    2    0    0 -0.89910410112E+01  0.46146541838E+01 -0.39383086288E+02  0.50528913227E+02  0.30000162243E+02 0.  0.
        -12    1    1    2    0    0  0.89910410112E+01 -0.46146541838E+01  0.39383086288E+02  0.40659086773E+02  0.00000000000E+00 0.  1.
         11    1    3    3    0    0  0.83220767861E-01 -0.21225466179E+01 -0.43084007223E+01  0.48035868771E+01  0.51100000000E-03 0. -1.
        -11    1    3    3    0    0  0.27127672276E+01  0.68418770640E+01 -0.32932293414E+02  0.33744723107E+02  0.51100000000E-03 0.  1.
        -12    1    3    3    0    0 -0.11787029007E+02 -0.10467626239E+00 -0.21423921510E+01  0.11980603242E+02  0.00000000000E+00 0.  1.
</event>
<event>
 7    1  0.5839176E-013  0.5052886E+02  0.7816164E-02  0.1300439E+00
        -11   -1    0    0    0    0  0.00000000000E+00  0.00000000000E+00  0.45593999997E+02  0.45594000000E+02  0.51100000000E-03 0. -1.
         11   -1    0    0    0    0 -0.00000000000E+00 -0.00000000000E+00 -0.45593999997E+02  0.45594000000E+02  0.51100000000E-03 0.  1.
    9900012    2    1    2    0    0  0.25540460522E+02 -0.31015436685E+02  0.62364408973E+01  0.50528860418E+02  0.30000001727E+02 0.  0.
        -12    1    1    2    0    0 -0.25540460522E+02  0.31015436685E+02 -0.62364408973E+01  0.40659139582E+02  0.00000000000E+00 0.  1.
         11    1    3    3    0    0  0.10779722179E+02 -0.47652169310E+01 -0.53361151033E+00  0.11798069510E+02  0.51100000000E-03 0. -1.
        -11    1    3    3    0    0  0.13837342190E+02 -0.12786426493E+02 -0.63766415704E+01  0.19890356943E+02  0.51100000000E-03 0.  1.
        -12    1    3    3    0    0  0.92339615266E+00 -0.13463793262E+02  0.13146693978E+02  0.18840433965E+02  0.00000000000E+00 0.  1.
</event>
<event>
 7    1  0.5839176E-013  0.5052886E+02  0.7816164E-02  0.1300439E+00
        -11   -1    0    0    0    0  0.00000000000E+00  0.00000000000E+00  0.45593999997E+02  0.45594000000E+02  0.51100000000E-03 0.  1.
         11   -1    0    0    0    0 -0.00000000000E+00 -0.00000000000E+00 -0.45593999997E+02  0.45594000000E+02  0.51100000000E-03 0. -1.
    9900012    2    1    2    0    0  0.21024710197E+02  0.27273076125E+02  0.21617270245E+02  0.50528862122E+02  0.30000006905E+02 0.  0.
        -12    1    1    2    0    0 -0.21024710197E+02 -0.27273076125E+02 -0.21617270245E+02  0.40659137878E+02  0.00000000000E+00 0.  1.
         11    1    3    3    0    0 -0.17127547239E+01 -0.65390514300E+00 -0.37403944366E+01  0.41655337572E+01  0.51100000000E-03 0. -1.
        -11    1    3    3    0    0  0.32793991597E+01  0.40720976897E+00 -0.11344821871E+01  0.34938987877E+01  0.51100000000E-03 0.  1.
        -12    1    3    3    0    0  0.19458065762E+02  0.27519771499E+02  0.26492146869E+02  0.42869429577E+02  0.00000000000E+00 0.  1.
</event>
<event>
 7    1  0.5839176E-013  0.5052886E+02  0.7816164E-02  0.1300439E+00
        -11   -1    0    0    0    0  0.00000000000E+00  0.00000000000E+00  0.45593999997E+02  0.45594000000E+02  0.51100000000E-03 0. -1.
         11   -1    0    0    0    0 -0.00000000000E+00 -0.00000000000E+00 -0.45593999997E+02  0.45594000000E+02  0.51100000000E-03 0.  1.
    9900012    2    1    2    0    0 -0.13886560186E+02  0.15480371367E+02  0.34938334320E+02  0.50528860111E+02  0.30000000793E+02 0.  0.
        -12    1    1    2    0    0  0.13886560186E+02 -0.15480371367E+02 -0.34938334320E+02  0.40659139889E+02  0.00000000000E+00 0.  1.
         11    1    3    3    0    0  0.45264601283E+01  0.19280293657E+01  0.16814593520E+02  0.17519608844E+02  0.51100000000E-03 0. -1.
        -11    1    3    3    0    0  0.10759316437E+01 -0.11794488882E+01 -0.10861211214E+01  0.19309033982E+01  0.51100000000E-03 0.  1.
         12    1    3    3    0    0 -0.19488951958E+02  0.14731790889E+02  0.19209861922E+02  0.31078347869E+02  0.00000000000E+00 0. -1.
</event>
<event>
 7    1  0.5839176E-013  0.5052885E+02  0.7816164E-02  0.1300439E+00
        -11   -1    0    0    0    0  0.00000000000E+00  0.00000000000E+00  0.45593999997E+02  0.45594000000E+02  0.51100000000E-03 0.  1.
         11   -1    0    0    0    0 -0.00000000000E+00 -0.00000000000E+00 -0.45593999997E+02  0.45594000000E+02  0.51100000000E-03 0. -1.
    9900012    2    1    2    0    0 -0.28880851634E+02 -0.28444872064E+02  0.31546660662E+01  0.50528852741E+02  0.29999978391E+02 0.  0.
        -12    1    1    2    0    0  0.28880851634E+02  0.28444872064E+02 -0.31546660662E+01  0.40659147259E+02  0.00000000000E+00 0.  1.
         11    1    3    3    0    0 -0.62640141131E+01 -0.61151777672E+01 -0.32396636956E+00  0.87600357535E+01  0.51100000000E-03 0. -1.
        -11    1    3    3    0    0 -0.29110586080E+01 -0.39023200318E+00  0.10958306835E+02  0.11345088461E+02  0.51100000000E-03 0.  1.
         12    1    3    3    0    0 -0.19705778913E+02 -0.21939462294E+02 -0.74796743997E+01  0.30423728526E+02  0.00000000000E+00 0. -1.
</event>
<event>
 7    1  0.5839176E-013  0.5052886E+02  0.7816164E-02  0.1300439E+00
        -11   -1    0    0    0    0  0.00000000000E+00  0.00000000000E+00  0.45593999997E+02  0.45594000000E+02  0.51100000000E-03 0.  1.
         11   -1    0    0    0    0 -0.00000000000E+00 -0.00000000000E+00 -0.45593999997E+02  0.45594000000E+02  0.51100000000E-03 0. -1.
    9900012    2    1    2    0    0 -0.99624430233E+01 -0.81027908345E+01 -0.38577976781E+02  0.50528858558E+02  0.29999996072E+02 0.  0.
        -12    1    1    2    0    0  0.99624430233E+01  0.81027908345E+01  0.38577976781E+02  0.40659141442E+02  0.00000000000E+00 0.  1.
         11    1    3    3    0    0 -0.15087287844E+01  0.34306520018E+01 -0.68738406420E+00  0.38102667643E+01  0.51100000000E-03 0. -1.
        -11    1    3    3    0    0 -0.16053273729E+02 -0.66853546938E+01 -0.30293546278E+02  0.34929937176E+02  0.51100000000E-03 0.  1.
         12    1    3    3    0    0  0.75995594903E+01 -0.48480881425E+01 -0.75970464392E+01  0.11788654617E+02  0.00000000000E+00 0. -1.
</event>
<event>
 7    1  0.5839176E-013  0.5052886E+02  0.7816164E-02  0.1300439E+00
        -11   -1    0    0    0    0  0.00000000000E+00  0.00000000000E+00  0.45593999997E+02  0.45594000000E+02  0.51100000000E-03 0. -1.
         11   -1    0    0    0    0 -0.00000000000E+00 -0.00000000000E+00 -0.45593999997E+02  0.45594000000E+02  0.51100000000E-03 0.  1.
    9900012    2    1    2    0    0  0.33491606323E+02 -0.22873565075E+02 -0.28771172974E+01  0.50528862315E+02  0.30000007493E+02 0.  0.
        -12    1    1    2    0    0 -0.33491606323E+02  0.22873565075E+02  0.28771172974E+01  0.40659137685E+02  0.00000000000E+00 0.  1.
         11    1    3    3    0    0  0.11152406247E+02 -0.78526307913E+01  0.66498385725E+01  0.15174331245E+02  0.51100000000E-03 0. -1.
        -11    1    3    3    0    0  0.10268805754E+02  0.43560517280E+01 -0.21215945896E+01  0.11354502285E+02  0.51100000000E-03 0.  1.
         12    1    3    3    0    0  0.12070394322E+02 -0.19376986012E+02 -0.74053612802E+01  0.24000028785E+02  0.00000000000E+00 0. -1.
</event>
<event>
 7    1  0.5839176E-013  0.5052886E+02  0.7816164E-02  0.1300439E+00
        -11   -1    0    0    0    0  0.00000000000E+00  0.00000000000E+00  0.45593999997E+02  0.45594000000E+02  0.51100000000E-03 0.  1.
         11   -1    0    0    0    0 -0.00000000000E+00 -0.00000000000E+00 -0.45593999997E+02  0.45594000000E+02  0.51100000000E-03 0. -1.
    9900012    2    1    2    0    0  0.22295996964E+02 -0.90946974710E+01 -0.32761880689E+02  0.50528857990E+02  0.29999994348E+02 0.  0.
        -12    1    1    2    0    0 -0.22295996964E+02  0.90946974710E+01  0.32761880689E+02  0.40659142010E+02  0.00000000000E+00 0.  1.
         11    1    3    3    0    0 -0.20290385890E+01 -0.95968514631E+01 -0.72585952466E+00  0.98358237028E+01  0.51100000000E-03 0. -1.
        -11    1    3    3    0    0  0.24208308254E+01  0.10675476181E+01 -0.13043097939E+01  0.29497972984E+01  0.51100000000E-03 0.  1.
         12    1    3    3    0    0  0.21904204727E+02 -0.56539362598E+00 -0.30731711370E+02  0.37743236989E+02  0.00000000000E+00 0. -1.
</event>
<event>
 7    1  0.5839176E-013  0.5052887E+02  0.7816164E-02  0.1300439E+00
        -11   -1    0    0    0    0  0.00000000000E+00  0.00000000000E+00  0.45593999997E+02  0.45594000000E+02  0.51100000000E-03 0.  1.
         11   -1    0    0    0    0 -0.00000000000E+00 -0.00000000000E+00 -0.45593999997E+02  0.45594000000E+02  0.51100000000E-03 0. -1.
    9900012    2    1    2    0    0  0.73614998851E+01  0.27657139806E+02 -0.28880027826E+02  0.50528867323E+02  0.30000022714E+02 0.  0.
        -12    1    1    2    0    0 -0.73614998851E+01 -0.27657139806E+02  0.28880027826E+02  0.40659132677E+02  0.00000000000E+00 0.  1.
         11    1    3    3    0    0  0.21435908454E+01  0.13848202960E+02 -0.18981181984E+02  0.23593494373E+02  0.51100000000E-03 0.  1.
        -11    1    3    3    0    0 -0.14414790682E+01  0.48934003537E+01 -0.14135699749E+02  0.15028015058E+02  0.51100000000E-03 0. -1.
        -12    1    3    3    0    0  0.66593881079E+01  0.89155364931E+01  0.42368539078E+01  0.11907357892E+02  0.00000000000E+00 0.  1.
</event>
<event>
 7    1  0.5839176E-013  0.5052886E+02  0.7816164E-02  0.1300439E+00
        -11   -1    0    0    0    0  0.00000000000E+00  0.00000000000E+00  0.45593999997E+02  0.45594000000E+02  0.51100000000E-03 0.  1.
         11   -1    0    0    0    0 -0.00000000000E+00 -0.00000000000E+00 -0.45593999997E+02  0.45594000000E+02  0.51100000000E-03 0. -1.
    9900012    2    1    2    0    0 -0.22007896328E+02  0.15155364704E+02 -0.30645281953E+02  0.50528857288E+02  0.29999992214E+02 0.  0.
        -12    1    1    2    0    0  0.22007896328E+02 -0.15155364704E+02  0.30645281953E+02  0.40659142712E+02  0.00000000000E+00 0.  1.
         11    1    3    3    0    0 -0.52243498982E+00 -0.16815070485E+01  0.76228544728E-01  0.17624458360E+01  0.51100000000E-03 0. -1.
        -11    1    3    3    0    0  0.51360157225E+01 -0.11129497014E+01 -0.74287550841E+01  0.90996547682E+01  0.51100000000E-03 0.  1.
         12    1    3    3    0    0 -0.26621477061E+02  0.17949821454E+02 -0.23292755413E+02  0.39666756684E+02  0.00000000000E+00 0. -1.
</event>
<event>
 7    1  0.5839176E-013  0.5052887E+02  0.7816164E-02  0.1300439E+00
        -11   -1    0    0    0    0  0.00000000000E+00  0.00000000000E+00  0.45593999997E+02  0.45594000000E+02  0.51100000000E-03 0.  1.
         11   -1    0    0    0    0 -0.00000000000E+00 -0.00000000000E+00 -0.45593999997E+02  0.45594000000E+02  0.51100000000E-03 0. -1.
    9900012    2    1    2    0    0 -0.34697532294E+02 -0.68801601130E+01 -0.20047684058E+02  0.50528868349E+02  0.30000025835E+02 0.  0.
        -12    1    1    2    0    0  0.34697532294E+02  0.68801601130E+01  0.20047684058E+02  0.40659131651E+02  0.00000000000E+00 0.  1.
         11    1    3    3    0    0 -0.70715988028E+01 -0.24943724928E+00  0.47563074242E+01  0.85259714487E+01  0.51100000000E-03 0. -1.
        -11    1    3    3    0    0  0.11819490318E+01 -0.44032737886E+01 -0.12567144524E+01  0.47291812237E+01  0.51100000000E-03 0.  1.
        -12    1    3    3    0    0 -0.28807882523E+02 -0.22274490751E+01 -0.23547277030E+02  0.37273715677E+02  0.00000000000E+00 0.  1.
</event>
<event>
 7    1  0.5839176E-013  0.5052885E+02  0.7816164E-02  0.1300439E+00
        -11   -1    0    0    0    0  0.00000000000E+00  0.00000000000E+00  0.45593999997E+02  0.45594000000E+02  0.51100000000E-03 0. -1.
         11   -1    0    0    0    0 -0.00000000000E+00 -0.00000000000E+00 -0.45593999997E+02  0.45594000000E+02  0.51100000000E-03 0.  1.
    9900012    2    1    2    0    0  0.28976790481E+02  0.28356443648E+02 -0.30699032988E+01  0.50528848642E+02  0.29999965931E+02 0.  0.
        -12    1    1    2    0    0 -0.28976790481E+02 -0.28356443648E+02  0.30699032988E+01  0.40659151358E+02  0.00000000000E+00 0.  1.
         11    1    3    3    0    0  0.32457620024E+01  0.90264416354E+01 -0.24942750708E+01  0.99112576378E+01  0.51100000000E-03 0. -1.
        -11    1    3    3    0    0  0.43334587654E+01  0.68302578328E+01 -0.11066326528E+02  0.13707474969E+02  0.51100000000E-03 0.  1.
        -12    1    3    3    0    0  0.21397569713E+02  0.12499744180E+02  0.10490698300E+02  0.26910116035E+02  0.00000000000E+00 0.  1.
</event>
<event>
 7    1  0.5839176E-013  0.5052887E+02  0.7816164E-02  0.1300439E+00
        -11   -1    0    0    0    0  0.00000000000E+00  0.00000000000E+00  0.45593999997E+02  0.45594000000E+02  0.51100000000E-03 0.  1.
         11   -1    0    0    0    0 -0.00000000000E+00 -0.00000000000E+00 -0.45593999997E+02  0.45594000000E+02  0.51100000000E-03 0. -1.
    9900012    2    1    2    0    0 -0.27251528762E+02 -0.22577163589E+02 -0.20019758927E+02  0.50528869622E+02  0.30000029702E+02 0.  0.
        -12    1    1    2    0    0  0.27251528762E+02  0.22577163589E+02  0.20019758927E+02  0.40659130378E+02  0.00000000000E+00 0.  1.
         11    1    3    3    0    0 -0.29278719289E+02 -0.13386005735E+02 -0.12398205566E+02  0.34498464521E+02  0.51100000000E-03 0. -1.
        -11    1    3    3    0    0  0.10876933518E+01 -0.39564520435E+01  0.23504965058E+01  0.47287867032E+01  0.51100000000E-03 0.  1.
        -12    1    3    3    0    0  0.93949717523E+00 -0.52347058108E+01 -0.99720498668E+01  0.11301618398E+02  0.00000000000E+00 0.  1.
</event>
<event>
 7    1  0.5839176E-013  0.5052887E+02  0.7816164E-02  0.1300439E+00
        -11   -1    0    0    0    0  0.00000000000E+00  0.00000000000E+00  0.45593999997E+02  0.45594000000E+02  0.51100000000E-03 0. -1.
         11   -1    0    0    0    0 -0.00000000000E+00 -0.00000000000E+00 -0.45593999997E+02  0.45594000000E+02  0.51100000000E-03 0.  1.
    9900012    2    1    2    0    0 -0.39907352018E+02  0.60808351610E+01 -0.48570852878E+01  0.50528873363E+02  0.30000041075E+02 0.  0.
        -12    1    1    2    0    0  0.39907352018E+02 -0.60808351610E+01  0.48570852878E+01  0.40659126637E+02  0.00000000000E+00 0.  1.
         11    1    3    3    0    0 -0.17476524931E+02 -0.35159308416E+01 -0.84952974548E+01  0.19747424452E+02  0.51100000000E-03 0.  1.
        -11    1    3    3    0    0 -0.98738304798E+01 -0.64125415212E+00 -0.63418880476E+01  0.11752586077E+02  0.51100000000E-03 0. -1.
        -12    1    3    3    0    0 -0.12556996607E+02  0.10238020155E+02  0.99801002146E+01  0.19028862834E+02  0.00000000000E+00 0.  1.
</event>
<event>
 7    1  0.5839176E-013  0.5052881E+02  0.7816164E-02  0.1300439E+00
        -11   -1    0    0    0    0  0.00000000000E+00  0.00000000000E+00  0.45593999997E+02  0.45594000000E+02  0.51100000000E-03 0.  1.
         11   -1    0    0    0    0 -0.00000000000E+00 -0.00000000000E+00 -0.45593999997E+02  0.45594000000E+02  0.51100000000E-03 0. -1.
    9900012    2    1    2    0    0  0.21137524091E+02  0.24885930926E+02 -0.24229423753E+02  0.50528813361E+02  0.29999858691E+02 0.  0.
        -12    1    1    2    0    0 -0.21137524091E+02 -0.24885930926E+02  0.24229423753E+02  0.40659186639E+02  0.00000000000E+00 0.  1.
         11    1    3    3    0    0  0.13817924264E+02  0.10492262973E+02 -0.77308078630E+01  0.18994420332E+02  0.51100000000E-03 0. -1.
        -11    1    3    3    0    0  0.66898423878E+01  0.13364220073E+02 -0.21614452362E+02  0.26278145302E+02  0.51100000000E-03 0.  1.
        -12    1    3    3    0    0  0.62975743950E+00  0.10294478794E+01  0.51158364713E+01  0.52562477272E+01  0.00000000000E+00 0.  1.
</event>
<event>
 7    1  0.5839176E-013  0.5052886E+02  0.7816164E-02  0.1300439E+00
        -11   -1    0    0    0    0  0.00000000000E+00  0.00000000000E+00  0.45593999997E+02  0.45594000000E+02  0.51100000000E-03 0. -1.
         11   -1    0    0    0    0 -0.00000000000E+00 -0.00000000000E+00 -0.45593999997E+02  0.45594000000E+02  0.51100000000E-03 0.  1.
    9900012    2    1    2    0    0 -0.24189675205E+02 -0.23164668494E+02  0.23052624284E+02  0.50528859093E+02  0.29999997698E+02 0.  0.
        -12    1    1    2    0    0  0.24189675205E+02  0.23164668494E+02 -0.23052624284E+02  0.40659140907E+02  0.00000000000E+00 0.  1.
         11    1    3    3    0    0  0.26961212619E+01  0.14849262320E+01 -0.13996312239E+01  0.33812783969E+01  0.51100000000E-03 0. -1.
        -11    1    3    3    0    0  0.24457935695E+01 -0.13999660971E+01  0.24292586198E+01  0.37206328710E+01  0.51100000000E-03 0.  1.
         12    1    3    3    0    0 -0.29331590036E+02 -0.23249628629E+02  0.22022996888E+02  0.43426947825E+02  0.00000000000E+00 0. -1.
</event>
<event>
 7    1  0.5839176E-013  0.5052885E+02  0.7816164E-02  0.1300439E+00
        -11   -1    0    0    0    0  0.00000000000E+00  0.00000000000E+00  0.45593999997E+02  0.45594000000E+02  0.51100000000E-03 0.  1.
         11   -1    0    0    0    0 -0.00000000000E+00 -0.00000000000E+00 -0.45593999997E+02  0.45594000000E+02  0.51100000000E-03 0. -1.
    9900012    2    1    2    0    0  0.30398178298E+02  0.21317620554E+02 -0.16573361823E+02  0.50528849590E+02  0.29999968815E+02 0.  0.
        -12    1    1    2    0    0 -0.30398178298E+02 -0.21317620554E+02  0.16573361823E+02  0.40659150410E+02  0.00000000000E+00 0.  1.
         11    1    3    3    0    0  0.42348826252E+01  0.63063005921E+01 -0.11722225007E+02  0.13968329084E+02  0.51100000000E-03 0. -1.
        -11    1    3    3    0    0  0.99200154199E+01  0.11066810796E+01 -0.10456868462E+02  0.14456055729E+02  0.51100000000E-03 0.  1.
        -12    1    3    3    0    0  0.16243280253E+02  0.13904638882E+02  0.56057316466E+01  0.22104464778E+02  0.00000000000E+00 0.  1.
</event>
<event>
 7    1  0.5839176E-013  0.5052886E+02  0.7816164E-02  0.1300439E+00
        -11   -1    0    0    0    0  0.00000000000E+00  0.00000000000E+00  0.45593999997E+02  0.45594000000E+02  0.51100000000E-03 0.  1.
         11   -1    0    0    0    0 -0.00000000000E+00 -0.00000000000E+00 -0.45593999997E+02  0.45594000000E+02  0.51100000000E-03 0. -1.
    9900012    2    1    2    0    0  0.14237191622E+02  0.37852267468E+02 -0.42040390322E+01  0.50528859307E+02  0.29999998349E+02 0.  0.
        -12    1    1    2    0    0 -0.14237191622E+02 -0.37852267468E+02  0.42040390322E+01  0.40659140693E+02  0.00000000000E+00 0.  1.
         11    1    3    3    0    0 -0.34978506245E+01  0.12167444868E+02  0.54107363960E+01  0.13767997030E+02  0.51100000000E-03 0. -1.
        -11    1    3    3    0    0 -0.24041040478E+00 -0.30479325569E+00  0.27871607411E+01  0.28140649156E+01  0.51100000000E-03 0.  1.
         12    1    3    3    0    0  0.17975452652E+02  0.25989615855E+02 -0.12401936169E+02  0.33946797361E+02  0.00000000000E+00 0. -1.
</event>
<event>
 7    1  0.5839176E-013  0.5052886E+02  0.7816164E-02  0.1300439E+00
        -11   -1    0    0    0    0  0.00000000000E+00  0.00000000000E+00  0.45593999997E+02  0.45594000000E+02  0.51100000000E-03 0. -1.
         11   -1    0    0    0    0 -0.00000000000E+00 -0.00000000000E+00 -0.45593999997E+02  0.45594000000E+02  0.51100000000E-03 0.  1.
    9900012    2    1    2    0    0 -0.20311188698E+02 -0.10731057259E+02  0.33547963244E+02  0.50528858174E+02  0.29999994906E+02 0.  0.
        -12    1    1    2    0    0  0.20311188698E+02  0.10731057259E+02 -0.33547963244E+02  0.40659141826E+02  0.00000000000E+00 0.  1.
         11    1    3    3    0    0  0.14818100898E+01 -0.99039992826E+01  0.54533556304E+01  0.11402808901E+02  0.51100000000E-03 0. -1.
        -11    1    3    3    0    0  0.50370161622E+00  0.25133806944E+01 -0.60117462696E+00  0.26329088527E+01  0.51100000000E-03 0.  1.
         12    1    3    3    0    0 -0.22296700404E+02 -0.33404386704E+01  0.28695782240E+02  0.36493140421E+02  0.00000000000E+00 0. -1.
</event>
<event>
 7    1  0.5839176E-013  0.5052884E+02  0.7816164E-02  0.1300439E+00
        -11   -1    0    0    0    0  0.00000000000E+00  0.00000000000E+00  0.45593999997E+02  0.45594000000E+02  0.51100000000E-03 0.  1.
         11   -1    0    0    0    0 -0.00000000000E+00 -0.00000000000E+00 -0.45593999997E+02  0.45594000000E+02  0.51100000000E-03 0. -1.
    9900012    2    1    2    0    0 -0.18116722115E+02 -0.31555361079E+02 -0.18144161036E+02  0.50528843433E+02  0.29999950099E+02 0.  0.
        -12    1    1    2    0    0  0.18116722115E+02  0.31555361079E+02  0.18144161036E+02  0.40659156567E+02  0.00000000000E+00 0.  1.
         11    1    3    3    0    0 -0.24282548893E+01 -0.23239747000E+01  0.38201558637E+01  0.50883073116E+01  0.51100000000E-03 0.  1.
        -11    1    3    3    0    0  0.21695118536E+01  0.22584928786E+01 -0.67852721576E-01  0.31324393080E+01  0.51100000000E-03 0. -1.
         12    1    3    3    0    0 -0.17857979079E+02 -0.31489879258E+02 -0.21896464178E+02  0.42308096813E+02  0.00000000000E+00 0. -1.
</event>
<event>
 7    1  0.5839176E-013  0.5052886E+02  0.7816164E-02  0.1300439E+00
        -11   -1    0    0    0    0  0.00000000000E+00  0.00000000000E+00  0.45593999997E+02  0.45594000000E+02  0.51100000000E-03 0.  1.
         11   -1    0    0    0    0 -0.00000000000E+00 -0.00000000000E+00 -0.45593999997E+02  0.45594000000E+02  0.51100000000E-03 0. -1.
    9900012    2    1    2    0    0  0.32586344354E+02  0.20266535673E+02 -0.13437391806E+02  0.50528858284E+02  0.29999995239E+02 0.  0.
        -12    1    1    2    0    0 -0.32586344354E+02 -0.20266535673E+02  0.13437391806E+02  0.40659141716E+02  0.00000000000E+00 0.  1.
         11    1    3    3    0    0 -0.14825718186E+01  0.23552128642E+01 -0.62888110927E+01  0.68770772901E+01  0.51100000000E-03 0. -1.
        -11    1    3    3    0    0  0.46553112606E+01  0.77963287785E+01 -0.86096901985E+01  0.12513250214E+02  0.51100000000E-03 0.  1.
         12    1    3    3    0    0  0.29413604912E+02  0.10114994031E+02  0.14611094849E+01  0.31138530779E+02  0.00000000000E+00 0. -1.
</event>
<event>
 7    1  0.5839176E-013  0.5052887E+02  0.7816164E-02  0.1300439E+00
        -11   -1    0    0    0    0  0.00000000000E+00  0.00000000000E+00  0.45593999997E+02  0.45594000000E+02  0.51100000000E-03 0. -1.
         11   -1    0    0    0    0 -0.00000000000E+00 -0.00000000000E+00 -0.45593999997E+02  0.45594000000E+02  0.51100000000E-03 0.  1.
    9900012    2    1    2    0    0  0.20927444514E+01  0.13032047822E+02  0.38457135170E+02  0.50528867013E+02  0.30000021774E+02 0.  0.
        -12    1    1    2    0    0 -0.20927444514E+01 -0.13032047822E+02 -0.38457135170E+02  0.40659132987E+02  0.00000000000E+00 0.  1.
         11    1    3    3    0    0 -0.13326810939E+02  0.44858748549E+01  0.20150692315E+02  0.24571881573E+02  0.51100000000E-03 0. -1.
        -11    1    3    3    0    0 -0.25640648791E+00  0.57947098418E+00  0.93234372341E-01  0.64048717228E+00  0.51100000000E-03 0.  1.
        -12    1    3    3    0    0  0.15675961879E+02  0.79667019831E+01  0.18213208483E+02  0.25316498268E+02  0.00000000000E+00 0.  1.
</event>
<event>
 7    1  0.5839176E-013  0.5052886E+02  0.7816164E-02  0.1300439E+00
        -11   -1    0    0    0    0  0.00000000000E+00  0.00000000000E+00  0.45593999997E+02  0.45594000000E+02  0.51100000000E-03 0.  1.
         11   -1    0    0    0    0 -0.00000000000E+00 -0.00000000000E+00 -0.45593999997E+02  0.45594000000E+02  0.51100000000E-03 0. -1.
    9900012    2    1    2    0    0  0.37508382491E+02 -0.10633769019E+02  0.11541671634E+02  0.50528856075E+02  0.29999988524E+02 0.  0.
        -12    1    1    2    0    0 -0.37508382491E+02  0.10633769019E+02 -0.11541671634E+02  0.40659143925E+02  0.00000000000E+00 0.  1.
         11    1    3    3    0    0  0.92313520653E+01  0.81507427695E-02  0.17082857013E+01  0.93880864763E+01  0.51100000000E-03 0.  1.
        -11    1    3    3    0    0  0.29113583512E+02 -0.14581574667E+02  0.13912183308E+02  0.35408641732E+02  0.51100000000E-03 0. -1.
        -12    1    3    3    0    0 -0.83655308609E+00  0.39396549051E+01 -0.40787973758E+01  0.57321278658E+01  0.00000000000E+00 0.  1.
</event>
<event>
 7    1  0.5839176E-013  0.5052886E+02  0.7816164E-02  0.1300439E+00
        -11   -1    0    0    0    0  0.00000000000E+00  0.00000000000E+00  0.45593999997E+02  0.45594000000E+02  0.51100000000E-03 0. -1.
         11   -1    0    0    0    0 -0.00000000000E+00 -0.00000000000E+00 -0.45593999997E+02  0.45594000000E+02  0.51100000000E-03 0.  1.
    9900012    2    1    2    0    0  0.18152620286E+02  0.23131476314E+02  0.28081720048E+02  0.50528858094E+02  0.29999994661E+02 0.  0.
        -12    1    1    2    0    0 -0.18152620286E+02 -0.23131476314E+02 -0.28081720048E+02  0.40659141906E+02  0.00000000000E+00 0.  1.
         11    1    3    3    0    0  0.11158033860E+02  0.22179976653E+00  0.36079476895E+01  0.11728947163E+02  0.51100000000E-03 0. -1.
        -11    1    3    3    0    0  0.18005074139E+01 -0.29504751365E+01  0.13113260032E+01  0.36968509067E+01  0.51100000000E-03 0.  1.
         12    1    3    3    0    0  0.51940790122E+01  0.25860151684E+02  0.23162446355E+02  0.35103060024E+02  0.00000000000E+00 0. -1.
</event>
<event>
 7    1  0.5839176E-013  0.5052880E+02  0.7816164E-02  0.1300439E+00
        -11   -1    0    0    0    0  0.00000000000E+00  0.00000000000E+00  0.45593999997E+02  0.45594000000E+02  0.51100000000E-03 0.  1.
         11   -1    0    0    0    0 -0.00000000000E+00 -0.00000000000E+00 -0.45593999997E+02  0.45594000000E+02  0.51100000000E-03 0. -1.
    9900012    2    1    2    0    0 -0.13070427093E+02 -0.36384173060E+02 -0.12590717298E+02  0.50528803306E+02  0.29999828129E+02 0.  0.
        -12    1    1    2    0    0  0.13070427093E+02  0.36384173060E+02  0.12590717298E+02  0.40659196694E+02  0.00000000000E+00 0.  1.
         11    1    3    3    0    0 -0.15247042230E+02 -0.11693889690E+02  0.32116371147E+01  0.19481631504E+02  0.51100000000E-03 0. -1.
        -11    1    3    3    0    0 -0.22851548523E+01 -0.34753060200E+01  0.10078773092E+00  0.41605099519E+01  0.51100000000E-03 0.  1.
        -12    1    3    3    0    0  0.44617699890E+01 -0.21214977350E+02 -0.15903142144E+02  0.26886661850E+02  0.00000000000E+00 0.  1.
</event>
<event>
 7    1  0.5839176E-013  0.5052886E+02  0.7816164E-02  0.1300439E+00
        -11   -1    0    0    0    0  0.00000000000E+00  0.00000000000E+00  0.45593999997E+02  0.45594000000E+02  0.51100000000E-03 0.  1.
         11   -1    0    0    0    0 -0.00000000000E+00 -0.00000000000E+00 -0.45593999997E+02  0.45594000000E+02  0.51100000000E-03 0. -1.
    9900012    2    1    2    0    0  0.37566633641E+01 -0.84273641329E+00 -0.40476450027E+02  0.50528859194E+02  0.29999998005E+02 0.  0.
        -12    1    1    2    0    0 -0.37566633641E+01  0.84273641329E+00  0.40476450027E+02  0.40659140806E+02  0.00000000000E+00 0.  1.
         11    1    3    3    0    0  0.84937732803E+01  0.40241919069E+01 -0.48269941772E+01  0.10565896937E+02  0.51100000000E-03 0. -1.
        -11    1    3    3    0    0 -0.64261958995E+01  0.15197962060E+01 -0.41973651429E+01  0.78245542141E+01  0.51100000000E-03 0.  1.
        -12    1    3    3    0    0  0.16890859833E+01 -0.63867245262E+01 -0.31452090707E+02  0.32138408042E+02  0.00000000000E+00 0.  1.
</event>
<event>
 7    1  0.5839176E-013  0.5052886E+02  0.7816164E-02  0.1300439E+00
        -11   -1    0    0    0    0  0.00000000000E+00  0.00000000000E+00  0.45593999997E+02  0.45594000000E+02  0.51100000000E-03 0. -1.
         11   -1    0    0    0    0 -0.00000000000E+00 -0.00000000000E+00 -0.45593999997E+02  0.45594000000E+02  0.51100000000E-03 0.  1.
    9900012    2    1    2    0    0  0.29174473045E+02  0.38310296479E+00  0.28317286087E+02  0.50528864044E+02  0.30000012748E+02 0.  0.
        -12    1    1    2    0    0 -0.29174473045E+02 -0.38310296479E+00 -0.28317286087E+02  0.40659135956E+02  0.00000000000E+00 0.  1.
         11    1    3    3    0    0  0.19372673994E+01 -0.52140321306E+01  0.24731616636E+01  0.60873364381E+01  0.51100000000E-03 0. -1.
        -11    1    3    3    0    0  0.13584463906E+02 -0.87982603273E+01  0.97508610612E+01  0.18895140542E+02  0.51100000000E-03 0.  1.
        -12    1    3    3    0    0  0.13652741741E+02  0.14395395423E+02  0.16093263362E+02  0.25546387064E+02  0.00000000000E+00 0.  1.
</event>
<event>
 7    1  0.5839176E-013  0.5052887E+02  0.7816164E-02  0.1300439E+00
        -11   -1    0    0    0    0  0.00000000000E+00  0.00000000000E+00  0.45593999997E+02  0.45594000000E+02  0.51100000000E-03 0. -1.
         11   -1    0    0    0    0 -0.00000000000E+00 -0.00000000000E+00 -0.45593999997E+02  0.45594000000E+02  0.51100000000E-03 0.  1.
    9900012    2    1    2    0    0 -0.33254095499E+02 -0.23284607435E+02 -0.22709417765E+01  0.50528868339E+02  0.30000025803E+02 0.  0.
        -12    1    1    2    0    0  0.33254095499E+02  0.23284607435E+02  0.22709417765E+01  0.40659131661E+02  0.00000000000E+00 0.  1.
         11    1    3    3    0    0 -0.32279333673E+02 -0.24082032578E+02 -0.66332464430E+01  0.40815433773E+02  0.51100000000E-03 0. -1.
        -11    1    3    3    0    0 -0.43400228403E+01  0.21915692589E+01  0.15228898027E+01  0.50948962386E+01  0.51100000000E-03 0.  1.
        -12    1    3    3    0    0  0.33652610142E+01 -0.13941441157E+01  0.28394148638E+01  0.46185383270E+01  0.00000000000E+00 0.  1.
</event>
<event>
 7    1  0.5839176E-013  0.5052886E+02  0.7816164E-02  0.1300439E+00
        -11   -1    0    0    0    0  0.00000000000E+00  0.00000000000E+00  0.45593999997E+02  0.45594000000E+02  0.51100000000E-03 0. -1.
         11   -1    0    0    0    0 -0.00000000000E+00 -0.00000000000E+00 -0.45593999997E+02  0.45594000000E+02  0.51100000000E-03 0.  1.
    9900012    2    1    2    0    0 -0.10421434572E+02  0.38777761836E+02  0.63909574792E+01  0.50528862663E+02  0.30000008549E+02 0.  0.
        -12    1    1    2    0    0  0.10421434572E+02 -0.38777761836E+02 -0.63909574792E+01  0.40659137337E+02  0.00000000000E+00 0.  1.
         11    1    3    3    0    0  0.30043291492E+01  0.19483531441E+02  0.14991216354E+02  0.24766319046E+02  0.51100000000E-03 0. -1.
        -11    1    3    3    0    0 -0.38610335396E+01  0.40987555097E+01 -0.48237111891E+01  0.74145510059E+01  0.51100000000E-03 0.  1.
        -12    1    3    3    0    0 -0.95647301816E+01  0.15195474885E+02 -0.37765476855E+01  0.18347992611E+02  0.00000000000E+00 0.  1.
</event>
<event>
 7    1  0.5839176E-013  0.5052886E+02  0.7816164E-02  0.1300439E+00
        -11   -1    0    0    0    0  0.00000000000E+00  0.00000000000E+00  0.45593999997E+02  0.45594000000E+02  0.51100000000E-03 0.  1.
         11   -1    0    0    0    0 -0.00000000000E+00 -0.00000000000E+00 -0.45593999997E+02  0.45594000000E+02  0.51100000000E-03 0. -1.
    9900012    2    1    2    0    0  0.68300667247E+01  0.11953735874E+02 -0.38257344055E+02  0.50528856047E+02  0.29999988442E+02 0.  0.
        -12    1    1    2    0    0 -0.68300667247E+01 -0.11953735874E+02  0.38257344055E+02  0.40659143953E+02  0.00000000000E+00 0.  1.
         11    1    3    3    0    0  0.91152716108E+00 -0.79427064402E+00 -0.22125395143E+01  0.25213248471E+01  0.51100000000E-03 0. -1.
        -11    1    3    3    0    0  0.58956609391E+01  0.80826204492E-01 -0.34781232910E+02  0.35277464673E+02  0.51100000000E-03 0.  1.
         12    1    3    3    0    0  0.22878624539E-01  0.12667180313E+02 -0.12635716313E+01  0.12730066527E+02  0.00000000000E+00 0. -1.
</event>
<event>
 7    1  0.5839176E-013  0.5052886E+02  0.7816164E-02  0.1300439E+00
        -11   -1    0    0    0    0  0.00000000000E+00  0.00000000000E+00  0.45593999997E+02  0.45594000000E+02  0.51100000000E-03 0. -1.
         11   -1    0    0    0    0 -0.00000000000E+00 -0.00000000000E+00 -0.45593999997E+02  0.45594000000E+02  0.51100000000E-03 0.  1.
    9900012    2    1    2    0    0 -0.14598227388E+02 -0.23858978021E+02  0.29509429054E+02  0.50528862304E+02  0.30000007459E+02 0.  0.
        -12    1    1    2    0    0  0.14598227388E+02  0.23858978021E+02 -0.29509429054E+02  0.40659137696E+02  0.00000000000E+00 0.  1.
         11    1    3    3    0    0 -0.16878064556E+02 -0.24547902668E+01  0.14213198061E+02  0.22201577822E+02  0.51100000000E-03 0. -1.
        -11    1    3    3    0    0 -0.36540149584E+01 -0.49044862799E+01  0.24397083426E+01  0.65846782794E+01  0.51100000000E-03 0.  1.
        -12    1    3    3    0    0  0.59338521261E+01 -0.16499701474E+02  0.12856522650E+02  0.21742606202E+02  0.00000000000E+00 0.  1.
</event>
<event>
 7    1  0.5839176E-013  0.5052885E+02  0.7816164E-02  0.1300439E+00
        -11   -1    0    0    0    0  0.00000000000E+00  0.00000000000E+00  0.45593999997E+02  0.45594000000E+02  0.51100000000E-03 0.  1.
         11   -1    0    0    0    0 -0.00000000000E+00 -0.00000000000E+00 -0.45593999997E+02  0.45594000000E+02  0.51100000000E-03 0. -1.
    9900012    2    1    2    0    0 -0.41090081295E+01  0.29569200999E+02 -0.27603343438E+02  0.50528853864E+02  0.29999981805E+02 0.  0.
        -12    1    1    2    0    0  0.41090081295E+01 -0.29569200999E+02  0.27603343438E+02  0.40659146136E+02  0.00000000000E+00 0.  1.
         11    1    3    3    0    0 -0.87108428675E+01  0.17987714765E+02 -0.21861554909E+01  0.20105122283E+02  0.51100000000E-03 0. -1.
        -11    1    3    3    0    0 -0.14449801115E+01  0.46380370740E+01 -0.17869762545E+02  0.18518309023E+02  0.51100000000E-03 0.  1.
        -12    1    3    3    0    0  0.60468148496E+01  0.69434491599E+01 -0.75474254026E+01  0.11905422557E+02  0.00000000000E+00 0.  1.
</event>
<event>
 7    1  0.5839176E-013  0.5052887E+02  0.7816164E-02  0.1300439E+00
        -11   -1    0    0    0    0  0.00000000000E+00  0.00000000000E+00  0.45593999997E+02  0.45594000000E+02  0.51100000000E-03 0.  1.
         11   -1    0    0    0    0 -0.00000000000E+00 -0.00000000000E+00 -0.45593999997E+02  0.45594000000E+02  0.51100000000E-03 0. -1.
    9900012    2    1    2    0    0 -0.35418933605E+02  0.45445274926E+01 -0.19442519009E+02  0.50528866546E+02  0.30000020352E+02 0.  0.
        -12    1    1    2    0    0  0.35418933605E+02 -0.45445274926E+01  0.19442519009E+02  0.40659133454E+02  0.00000000000E+00 0.  1.
         11    1    3    3    0    0 -0.67989349504E+01  0.34057719028E+01 -0.74299748715E+01  0.10631525082E+02  0.51100000000E-03 0. -1.
        -11    1    3    3    0    0 -0.13094163844E+01  0.53815465104E+01 -0.10912146505E+02  0.12237260956E+02  0.51100000000E-03 0.  1.
         12    1    3    3    0    0 -0.27310582270E+02 -0.42427909206E+01 -0.11003976331E+01  0.27660080507E+02  0.00000000000E+00 0. -1.
</event>
<event>
 7    1  0.5839176E-013  0.5052888E+02  0.7816164E-02  0.1300439E+00
        -11   -1    0    0    0    0  0.00000000000E+00  0.00000000000E+00  0.45593999997E+02  0.45594000000E+02  0.51100000000E-03 0. -1.
         11   -1    0    0    0    0 -0.00000000000E+00 -0.00000000000E+00 -0.45593999997E+02  0.45594000000E+02  0.51100000000E-03 0.  1.
    9900012    2    1    2    0    0 -0.31071115546E+02  0.26132324707E+01  0.26094464823E+02  0.50528876797E+02  0.30000051513E+02 0.  0.
        -12    1    1    2    0    0  0.31071115546E+02 -0.26132324707E+01 -0.26094464823E+02  0.40659123203E+02  0.00000000000E+00 0.  1.
         11    1    3    3    0    0 -0.64092953527E+01  0.60336605806E+01  0.35726236138E+00  0.88097538885E+01  0.51100000000E-03 0.  1.
        -11    1    3    3    0    0 -0.21989717125E+02 -0.24799955037E+01  0.29582219217E+02  0.36943277210E+02  0.51100000000E-03 0. -1.
         12    1    3    3    0    0 -0.26721030683E+01 -0.94043260615E+00 -0.38450167553E+01  0.47758456992E+01  0.00000000000E+00 0. -1.
</event>
<event>
 7    1  0.5839176E-013  0.5052886E+02  0.7816164E-02  0.1300439E+00
        -11   -1    0    0    0    0  0.00000000000E+00  0.00000000000E+00  0.45593999997E+02  0.45594000000E+02  0.51100000000E-03 0.  1.
         11   -1    0    0    0    0 -0.00000000000E+00 -0.00000000000E+00 -0.45593999997E+02  0.45594000000E+02  0.51100000000E-03 0. -1.
    9900012    2    1    2    0    0  0.29533954772E+01 -0.37766501916E+02 -0.14769373543E+02  0.50528860724E+02  0.30000002658E+02 0.  0.
        -12    1    1    2    0    0 -0.29533954772E+01  0.37766501916E+02  0.14769373543E+02  0.40659139276E+02  0.00000000000E+00 0.  1.
         11    1    3    3    0    0 -0.14179426852E+01 -0.63259801235E+01 -0.12925979815E+02  0.14460620333E+02  0.51100000000E-03 0. -1.
        -11    1    3    3    0    0 -0.25965077612E+01 -0.15314852676E+02 -0.79765037927E+01  0.17461706046E+02  0.51100000000E-03 0.  1.
        -12    1    3    3    0    0  0.69678459236E+01 -0.16125669116E+02  0.61331100645E+01  0.18606534345E+02  0.00000000000E+00 0.  1.
</event>
<event>
 7    1  0.5839176E-013  0.5052886E+02  0.7816164E-02  0.1300439E+00
        -11   -1    0    0    0    0  0.00000000000E+00  0.00000000000E+00  0.45593999997E+02  0.45594000000E+02  0.51100000000E-03 0. -1.
         11   -1    0    0    0    0 -0.00000000000E+00 -0.00000000000E+00 -0.45593999997E+02  0.45594000000E+02  0.51100000000E-03 0.  1.
    9900012    2    1    2    0    0  0.29959383102E+02 -0.24369253446E+02  0.12717724705E+02  0.50528859932E+02  0.30000000251E+02 0.  0.
        -12    1    1    2    0    0 -0.29959383102E+02  0.24369253446E+02 -0.12717724705E+02  0.40659140068E+02  0.00000000000E+00 0.  1.
         11    1    3    3    0    0  0.24308744316E+01  0.26738274210E+01  0.57361883941E+01  0.67795546412E+01  0.51100000000E-03 0. -1.
        -11    1    3    3    0    0  0.52172213139E+01 -0.43946045861E+01  0.96807587430E+01  0.11842678658E+02  0.51100000000E-03 0.  1.
        -12    1    3    3    0    0  0.22311287357E+02 -0.22648476281E+02 -0.26992224320E+01  0.31906626633E+02  0.00000000000E+00 0.  1.
</event>
<event>
 7    1  0.5839176E-013  0.5052886E+02  0.7816164E-02  0.1300439E+00
        -11   -1    0    0    0    0  0.00000000000E+00  0.00000000000E+00  0.45593999997E+02  0.45594000000E+02  0.51100000000E-03 0.  1.
         11   -1    0    0    0    0 -0.00000000000E+00 -0.00000000000E+00 -0.45593999997E+02  0.45594000000E+02  0.51100000000E-03 0. -1.
    9900012    2    1    2    0    0  0.13552904814E+02  0.24051652273E+02 -0.29849671004E+02  0.50528855088E+02  0.29999985526E+02 0.  0.
        -12    1    1    2    0    0 -0.13552904814E+02 -0.24051652273E+02  0.29849671004E+02  0.40659144912E+02  0.00000000000E+00 0.  1.
         11    1    3    3    0    0  0.13395209200E+01  0.31597200824E+01 -0.67258875204E+01  0.75508748163E+01  0.51100000000E-03 0. -1.
        -11    1    3    3    0    0 -0.63439336937E+01  0.14058473218E+02 -0.51663935377E+01  0.16265847238E+02  0.51100000000E-03 0.  1.
         12    1    3    3    0    0  0.18557317587E+02  0.68334589723E+01 -0.17957389945E+02  0.26712133034E+02  0.00000000000E+00 0. -1.
</event>
<event>
 7    1  0.5839176E-013  0.5052886E+02  0.7816164E-02  0.1300439E+00
        -11   -1    0    0    0    0  0.00000000000E+00  0.00000000000E+00  0.45593999997E+02  0.45594000000E+02  0.51100000000E-03 0.  1.
         11   -1    0    0    0    0 -0.00000000000E+00 -0.00000000000E+00 -0.45593999997E+02  0.45594000000E+02  0.51100000000E-03 0. -1.
    9900012    2    1    2    0    0 -0.34555304603E+02  0.78531925917E+01 -0.19935501032E+02  0.50528856976E+02  0.29999991264E+02 0.  0.
        -12    1    1    2    0    0  0.34555304603E+02 -0.78531925917E+01  0.19935501032E+02  0.40659143024E+02  0.00000000000E+00 0.  1.
         11    1    3    3    0    0 -0.66520068093E+01 -0.32581634296E+00 -0.10139425993E+02  0.12131088599E+02  0.51100000000E-03 0. -1.
        -11    1    3    3    0    0 -0.21762561461E+02  0.55147227244E+01 -0.17299542647E+02  0.28342466797E+02  0.51100000000E-03 0.  1.
        -12    1    3    3    0    0 -0.61407363317E+01  0.26642862103E+01  0.75034676079E+01  0.10055301579E+02  0.00000000000E+00 0.  1.
</event>
<event>
 7    1  0.5839176E-013  0.5052887E+02  0.7816164E-02  0.1300439E+00
        -11   -1    0    0    0    0  0.00000000000E+00  0.00000000000E+00  0.45593999997E+02  0.45594000000E+02  0.51100000000E-03 0.  1.
         11   -1    0    0    0    0 -0.00000000000E+00 -0.00000000000E+00 -0.45593999997E+02  0.45594000000E+02  0.51100000000E-03 0. -1.
    9900012    2    1    2    0    0 -0.12158263631E+02  0.19310485604E+02 -0.33651844827E+02  0.50528869548E+02  0.30000029479E+02 0.  0.
        -12    1    1    2    0    0  0.12158263631E+02 -0.19310485604E+02  0.33651844827E+02  0.40659130452E+02  0.00000000000E+00 0.  1.
         11    1    3    3    0    0 -0.28482484563E+01 -0.53683019508E+01 -0.39488945412E+01  0.72474101210E+01  0.51100000000E-03 0. -1.
        -11    1    3    3    0    0 -0.48270801626E+01 -0.20738341751E+00 -0.10405521932E+02  0.11472514882E+02  0.51100000000E-03 0.  1.
         12    1    3    3    0    0 -0.44829350125E+01  0.24886170973E+02 -0.19297428354E+02  0.31808944545E+02  0.00000000000E+00 0. -1.
</event>
<event>
 7    1  0.5839176E-013  0.5052886E+02  0.7816164E-02  0.1300439E+00
        -11   -1    0    0    0    0  0.00000000000E+00  0.00000000000E+00  0.45593999997E+02  0.45594000000E+02  0.51100000000E-03 0. -1.
         11   -1    0    0    0    0 -0.00000000000E+00 -0.00000000000E+00 -0.45593999997E+02  0.45594000000E+02  0.51100000000E-03 0.  1.
    9900012    2    1    2    0    0  0.33786009497E+01 -0.36324620097E+02  0.17951953069E+02  0.50528860946E+02  0.30000003333E+02 0.  0.
        -12    1    1    2    0    0 -0.33786009497E+01  0.36324620097E+02 -0.17951953069E+02  0.40659139054E+02  0.00000000000E+00 0.  1.
         11    1    3    3    0    0  0.10228156664E+02 -0.16672524919E+02  0.66579865850E+01  0.20661971386E+02  0.51100000000E-03 0. -1.
        -11    1    3    3    0    0  0.55002300188E+01 -0.76278845286E+01  0.27285797532E+00  0.94080606066E+01  0.51100000000E-03 0.  1.
         12    1    3    3    0    0 -0.12349785734E+02 -0.12024210650E+02  0.11021108509E+02  0.20458828954E+02  0.00000000000E+00 0. -1.
</event>
<event>
 7    1  0.5839176E-013  0.5052886E+02  0.7816164E-02  0.1300439E+00
        -11   -1    0    0    0    0  0.00000000000E+00  0.00000000000E+00  0.45593999997E+02  0.45594000000E+02  0.51100000000E-03 0.  1.
         11   -1    0    0    0    0 -0.00000000000E+00 -0.00000000000E+00 -0.45593999997E+02  0.45594000000E+02  0.51100000000E-03 0. -1.
    9900012    2    1    2    0    0  0.20209991593E+01 -0.10587074176E+02 -0.39204527175E+02  0.50528861689E+02  0.30000005589E+02 0.  0.
        -12    1    1    2    0    0 -0.20209991593E+01  0.10587074176E+02  0.39204527175E+02  0.40659138311E+02  0.00000000000E+00 0.  1.
         11    1    3    3    0    0  0.26161573757E+01 -0.80460834639E+01 -0.72764875027E+01  0.11159346269E+02  0.51100000000E-03 0. -1.
        -11    1    3    3    0    0  0.53375563273E+01 -0.94598833320E+01 -0.72419886075E+01  0.13054704112E+02  0.51100000000E-03 0.  1.
         12    1    3    3    0    0 -0.59327145437E+01  0.69188926204E+01 -0.24686051065E+02  0.26314811307E+02  0.00000000000E+00 0. -1.
</event>
<event>
 7    1  0.5839176E-013  0.5052889E+02  0.7816164E-02  0.1300439E+00
        -11   -1    0    0    0    0  0.00000000000E+00  0.00000000000E+00  0.45593999997E+02  0.45594000000E+02  0.51100000000E-03 0.  1.
         11   -1    0    0    0    0 -0.00000000000E+00 -0.00000000000E+00 -0.45593999997E+02  0.45594000000E+02  0.51100000000E-03 0. -1.
    9900012    2    1    2    0    0 -0.42353732334E+01  0.31365052870E+02 -0.25523675226E+02  0.50528893701E+02  0.30000102894E+02 0.  0.
        -12    1    1    2    0    0  0.42353732334E+01 -0.31365052870E+02  0.25523675226E+02  0.40659106299E+02  0.00000000000E+00 0.  1.
         11    1    3    3    0    0  0.79459173886E+01  0.17917970757E+02 -0.12611309792E+02  0.23307432594E+02  0.51100000000E-03 0. -1.
        -11    1    3    3    0    0  0.27176236539E+01  0.11079355788E+01  0.13069898070E+01  0.32126659005E+01  0.51100000000E-03 0.  1.
         12    1    3    3    0    0 -0.14898914276E+02  0.12339146534E+02 -0.14219355241E+02  0.24008795206E+02  0.00000000000E+00 0. -1.
</event>
<event>
 7    1  0.5899290E-013  0.5052886E+02  0.7816164E-02  0.1300439E+00
        -11   -1    0    0    0    0  0.00000000000E+00  0.00000000000E+00  0.45593999997E+02  0.45594000000E+02  0.51100000000E-03 0.  1.
         11   -1    0    0    0    0 -0.00000000000E+00 -0.00000000000E+00 -0.45593999997E+02  0.45594000000E+02  0.51100000000E-03 0. -1.
    9900012    2    1    2    0    0 -0.33526920553E+02 -0.22994557259E+02 -0.60120601000E+00  0.50528861864E+02  0.30000006121E+02 0.  0.
        -12    1    1    2    0    0  0.33526920553E+02  0.22994557259E+02  0.60120601000E+00  0.40659138136E+02  0.00000000000E+00 0.  1.
         11    1    3    3    0    0 -0.19649499894E+02 -0.11288999461E+02  0.99864048440E+01  0.24764342044E+02  0.51100000000E-03 0. -1.
        -11    1    3    3    0    0 -0.16625999269E+02 -0.11045624280E+02 -0.69031974006E+01  0.21120696060E+02  0.51100000000E-03 0.  1.
        -12    1    3    3    0    0  0.27485786094E+01 -0.65993351736E+00 -0.36844134534E+01  0.46438237601E+01  0.00000000000E+00 0.  1.
</event>
<event>
 7    1  0.5839176E-013  0.5052887E+02  0.7816164E-02  0.1300439E+00
        -11   -1    0    0    0    0  0.00000000000E+00  0.00000000000E+00  0.45593999997E+02  0.45594000000E+02  0.51100000000E-03 0. -1.
         11   -1    0    0    0    0 -0.00000000000E+00 -0.00000000000E+00 -0.45593999997E+02  0.45594000000E+02  0.51100000000E-03 0.  1.
    9900012    2    1    2    0    0  0.11666511081E+01 -0.23215326360E+02  0.33359446340E+02  0.50528866796E+02  0.30000021113E+02 0.  0.
        -12    1    1    2    0    0 -0.11666511081E+01  0.23215326360E+02 -0.33359446340E+02  0.40659133204E+02  0.00000000000E+00 0.  1.
         11    1    3    3    0    0  0.22268893317E+00 -0.21170436344E+02  0.14535826431E+02  0.25681261956E+02  0.51100000000E-03 0. -1.
        -11    1    3    3    0    0 -0.39894112200E+01 -0.46050137517E+01  0.99595564431E+00  0.61736117016E+01  0.51100000000E-03 0.  1.
         12    1    3    3    0    0  0.49333733949E+01  0.25601237357E+01  0.17827664265E+02  0.18673993138E+02  0.00000000000E+00 0. -1.
</event>
<event>
 7    1  0.5839176E-013  0.5052885E+02  0.7816164E-02  0.1300439E+00
        -11   -1    0    0    0    0  0.00000000000E+00  0.00000000000E+00  0.45593999997E+02  0.45594000000E+02  0.51100000000E-03 0. -1.
         11   -1    0    0    0    0 -0.00000000000E+00 -0.00000000000E+00 -0.45593999997E+02  0.45594000000E+02  0.51100000000E-03 0.  1.
    9900012    2    1    2    0    0  0.37672092115E+02  0.15221648246E+02 -0.15103860828E+01  0.50528851390E+02  0.29999974284E+02 0.  0.
        -12    1    1    2    0    0 -0.37672092115E+02 -0.15221648246E+02  0.15103860828E+01  0.40659148610E+02  0.00000000000E+00 0.  1.
         11    1    3    3    0    0  0.50691720739E+01 -0.33208566146E+01  0.82673954717E+01  0.10250581560E+02  0.51100000000E-03 0. -1.
        -11    1    3    3    0    0  0.56936331524E+01 -0.91506858451E+00 -0.24879251613E+01  0.62804920872E+01  0.51100000000E-03 0.  1.
        -12    1    3    3    0    0  0.26909286888E+02  0.19457573445E+02 -0.72898563932E+01  0.33997777743E+02  0.00000000000E+00 0.  1.
</event>
<event>
 7    1  0.5839176E-013  0.5052885E+02  0.7816164E-02  0.1300439E+00
        -11   -1    0    0    0    0  0.00000000000E+00  0.00000000000E+00  0.45593999997E+02  0.45594000000E+02  0.51100000000E-03 0.  1.
         11   -1    0    0    0    0 -0.00000000000E+00 -0.00000000000E+00 -0.45593999997E+02  0.45594000000E+02  0.51100000000E-03 0. -1.
    9900012    2    1    2    0    0  0.30087095338E+02  0.19387124501E+02 -0.19289188459E+02  0.50528847356E+02  0.29999962025E+02 0.  0.
        -12    1    1    2    0    0 -0.30087095338E+02 -0.19387124501E+02  0.19289188459E+02  0.40659152644E+02  0.00000000000E+00 0.  1.
         11    1    3    3    0    0  0.18126035023E+02  0.19644500834E+02 -0.99560535115E+01  0.28523368673E+02  0.51100000000E-03 0. -1.
        -11    1    3    3    0    0  0.13455202361E+02  0.25548762830E+01 -0.17829527212E+01  0.13811183297E+02  0.51100000000E-03 0.  1.
        -12    1    3    3    0    0 -0.14941420461E+01 -0.28122526159E+01 -0.75501822266E+01  0.81942953867E+01  0.00000000000E+00 0.  1.
</event>
<event>
 7    1  0.5839176E-013  0.5052886E+02  0.7816164E-02  0.1300439E+00
        -11   -1    0    0    0    0  0.00000000000E+00  0.00000000000E+00  0.45593999997E+02  0.45594000000E+02  0.51100000000E-03 0. -1.
         11   -1    0    0    0    0 -0.00000000000E+00 -0.00000000000E+00 -0.45593999997E+02  0.45594000000E+02  0.51100000000E-03 0.  1.
    9900012    2    1    2    0    0  0.28596305502E+02  0.28118789157E+02 -0.66895690065E+01  0.50528864182E+02  0.30000013167E+02 0.  0.
        -12    1    1    2    0    0 -0.28596305502E+02 -0.28118789157E+02  0.66895690065E+01  0.40659135818E+02  0.00000000000E+00 0.  1.
         11    1    3    3    0    0  0.97756747120E+01  0.97872753472E+00 -0.49353699746E+01  0.10994525943E+02  0.51100000000E-03 0. -1.
        -11    1    3    3    0    0  0.13180406913E+01 -0.19217447097E+01 -0.49376852917E+01  0.54599514920E+01  0.51100000000E-03 0.  1.
        -12    1    3    3    0    0  0.17502590099E+02  0.29061806332E+02  0.31834862599E+01  0.34074386747E+02  0.00000000000E+00 0.  1.
</event>
<event>
 7    1  0.5839176E-013  0.5052886E+02  0.7816164E-02  0.1300439E+00
        -11   -1    0    0    0    0  0.00000000000E+00  0.00000000000E+00  0.45593999997E+02  0.45594000000E+02  0.51100000000E-03 0.  1.
         11   -1    0    0    0    0 -0.00000000000E+00 -0.00000000000E+00 -0.45593999997E+02  0.45594000000E+02  0.51100000000E-03 0. -1.
    9900012    2    1    2    0    0  0.30736188241E+02  0.23476434538E+02 -0.12542303412E+02  0.50528860546E+02  0.30000002117E+02 0.  0.
        -12    1    1    2    0    0 -0.30736188241E+02 -0.23476434538E+02  0.12542303412E+02  0.40659139454E+02  0.00000000000E+00 0.  1.
         11    1    3    3    0    0  0.84186642838E+01  0.59267662160E+01 -0.54527759839E+01  0.11650460604E+02  0.51100000000E-03 0. -1.
        -11    1    3    3    0    0  0.25372988457E+02  0.67657505454E+01 -0.13706309091E+01  0.26295295265E+02  0.51100000000E-03 0.  1.
        -12    1    3    3    0    0 -0.30554645001E+01  0.10783917777E+02 -0.57188965193E+01  0.12583104678E+02  0.00000000000E+00 0.  1.
</event>
<event>
 7    1  0.5839176E-013  0.5052886E+02  0.7816164E-02  0.1300439E+00
        -11   -1    0    0    0    0  0.00000000000E+00  0.00000000000E+00  0.45593999997E+02  0.45594000000E+02  0.51100000000E-03 0.  1.
         11   -1    0    0    0    0 -0.00000000000E+00 -0.00000000000E+00 -0.45593999997E+02  0.45594000000E+02  0.51100000000E-03 0. -1.
    9900012    2    1    2    0    0 -0.76127565960E-01 -0.39171819284E+02 -0.10896260628E+02  0.50528859366E+02  0.29999998528E+02 0.  0.
        -12    1    1    2    0    0  0.76127565960E-01  0.39171819284E+02  0.10896260628E+02  0.40659140634E+02  0.00000000000E+00 0.  1.
         11    1    3    3    0    0  0.66113670461E+01 -0.17774058661E+02 -0.11228686356E+02  0.22038846001E+02  0.51100000000E-03 0.  1.
        -11    1    3    3    0    0  0.35359826540E+01 -0.11100469020E+02 -0.54600966896E+01  0.12866088835E+02  0.51100000000E-03 0. -1.
         12    1    3    3    0    0 -0.10223477266E+02 -0.10297291603E+02  0.57925224169E+01  0.15623924530E+02  0.00000000000E+00 0. -1.
</event>
<event>
 7    1  0.5839176E-013  0.5052886E+02  0.7816164E-02  0.1300439E+00
        -11   -1    0    0    0    0  0.00000000000E+00  0.00000000000E+00  0.45593999997E+02  0.45594000000E+02  0.51100000000E-03 0. -1.
         11   -1    0    0    0    0 -0.00000000000E+00 -0.00000000000E+00 -0.45593999997E+02  0.45594000000E+02  0.51100000000E-03 0.  1.
    9900012    2    1    2    0    0  0.37157279198E+01 -0.31313400500E+02 -0.25667681649E+02  0.50528861223E+02  0.30000004174E+02 0.  0.
        -12    1    1    2    0    0 -0.37157279198E+01  0.31313400500E+02  0.25667681649E+02  0.40659138777E+02  0.00000000000E+00 0.  1.
         11    1    3    3    0    0  0.56624390904E+01 -0.12130295073E+02 -0.34430760793E+01  0.13822519602E+02  0.51100000000E-03 0. -1.
        -11    1    3    3    0    0  0.59225800952E+01 -0.20352469016E+02 -0.15081796608E+02  0.26014621643E+02  0.51100000000E-03 0.  1.
        -12    1    3    3    0    0 -0.78692912658E+01  0.11693635890E+01 -0.71428089615E+01  0.10691719978E+02  0.00000000000E+00 0.  1.
</event>
<event>
 7    1  0.5839176E-013  0.5052881E+02  0.7816164E-02  0.1300439E+00
        -11   -1    0    0    0    0  0.00000000000E+00  0.00000000000E+00  0.45593999997E+02  0.45594000000E+02  0.51100000000E-03 0.  1.
         11   -1    0    0    0    0 -0.00000000000E+00 -0.00000000000E+00 -0.45593999997E+02  0.45594000000E+02  0.51100000000E-03 0. -1.
    9900012    2    1    2    0    0  0.33260873654E+02  0.47382768062E+01 -0.22900500582E+02  0.50528807801E+02  0.29999841793E+02 0.  0.
        -12    1    1    2    0    0 -0.33260873654E+02 -0.47382768062E+01  0.22900500582E+02  0.40659192199E+02  0.00000000000E+00 0.  1.
         11    1    3    3    0    0  0.10636564411E+02  0.30375774265E+01 -0.67339613921E+01  0.12950274722E+02  0.51100000000E-03 0. -1.
        -11    1    3    3    0    0  0.25753952404E+02 -0.45223068128E+01 -0.91794769100E+01  0.27712454239E+02  0.51100000000E-03 0.  1.
        -12    1    3    3    0    0 -0.31296431606E+01  0.62230061925E+01 -0.69870622802E+01  0.98660788407E+01  0.00000000000E+00 0.  1.
</event>
<event>
 7    1  0.5839176E-013  0.5052888E+02  0.7816164E-02  0.1300439E+00
        -11   -1    0    0    0    0  0.00000000000E+00  0.00000000000E+00  0.45593999997E+02  0.45594000000E+02  0.51100000000E-03 0. -1.
         11   -1    0    0    0    0 -0.00000000000E+00 -0.00000000000E+00 -0.45593999997E+02  0.45594000000E+02  0.51100000000E-03 0.  1.
    9900012    2    1    2    0    0 -0.80489655812E+01  0.12960479032E+00  0.39854247656E+02  0.50528884164E+02  0.30000073904E+02 0.  0.
        -12    1    1    2    0    0  0.80489655812E+01 -0.12960479032E+00 -0.39854247656E+02  0.40659115836E+02  0.00000000000E+00 0.  1.
         11    1    3    3    0    0 -0.42730618758E+01  0.20084783503E+01 -0.33733438354E+00  0.47335861485E+01  0.51100000000E-03 0. -1.
        -11    1    3    3    0    0 -0.41321958671E+01  0.74957193464E+01  0.62961200476E+01  0.10625534298E+02  0.51100000000E-03 0.  1.
         12    1    3    3    0    0  0.35629216160E+00 -0.93745929063E+01  0.33895461992E+02  0.35169763717E+02  0.00000000000E+00 0. -1.
</event>
<event>
 7    1  0.5839176E-013  0.5052886E+02  0.7816164E-02  0.1300439E+00
        -11   -1    0    0    0    0  0.00000000000E+00  0.00000000000E+00  0.45593999997E+02  0.45594000000E+02  0.51100000000E-03 0.  1.
         11   -1    0    0    0    0 -0.00000000000E+00 -0.00000000000E+00 -0.45593999997E+02  0.45594000000E+02  0.51100000000E-03 0. -1.
    9900012    2    1    2    0    0  0.30408439977E+02 -0.23273911842E+01 -0.26890061626E+02  0.50528863441E+02  0.30000010914E+02 0.  0.
        -12    1    1    2    0    0 -0.30408439977E+02  0.23273911842E+01  0.26890061626E+02  0.40659136559E+02  0.00000000000E+00 0.  1.
         11    1    3    3    0    0  0.31916190779E+01 -0.18832534529E+01 -0.14046778937E+02  0.14527390497E+02  0.51100000000E-03 0. -1.
        -11    1    3    3    0    0  0.25945745215E+02 -0.68260274452E+01 -0.12168723129E+02  0.29459364696E+02  0.51100000000E-03 0.  1.
         12    1    3    3    0    0  0.12710756837E+01  0.63818897139E+01 -0.67455955947E+00  0.65421082468E+01  0.00000000000E+00 0. -1.
</event>
<event>
 7    1  0.5839176E-013  0.5052886E+02  0.7816164E-02  0.1300439E+00
        -11   -1    0    0    0    0  0.00000000000E+00  0.00000000000E+00  0.45593999997E+02  0.45594000000E+02  0.51100000000E-03 0. -1.
         11   -1    0    0    0    0 -0.00000000000E+00 -0.00000000000E+00 -0.45593999997E+02  0.45594000000E+02  0.51100000000E-03 0.  1.
    9900012    2    1    2    0    0 -0.86533002656E+01 -0.77852505302E+01  0.38957363520E+02  0.50528857070E+02  0.29999991551E+02 0.  0.
        -12    1    1    2    0    0  0.86533002656E+01  0.77852505302E+01 -0.38957363520E+02  0.40659142930E+02  0.00000000000E+00 0.  1.
         11    1    3    3    0    0 -0.29784546282E+01  0.54122944634E+01  0.26019041427E+02  0.26742375369E+02  0.51100000000E-03 0. -1.
        -11    1    3    3    0    0  0.31309172670E+01 -0.16972720324E+01  0.75220420035E+01  0.83225291497E+01  0.51100000000E-03 0.  1.
        -12    1    3    3    0    0 -0.88057629044E+01 -0.11500272961E+02  0.54162800900E+01  0.15463952552E+02  0.00000000000E+00 0.  1.
</event>
<event>
 7    1  0.5839176E-013  0.5052886E+02  0.7816164E-02  0.1300439E+00
        -11   -1    0    0    0    0  0.00000000000E+00  0.00000000000E+00  0.45593999997E+02  0.45594000000E+02  0.51100000000E-03 0. -1.
         11   -1    0    0    0    0 -0.00000000000E+00 -0.00000000000E+00 -0.45593999997E+02  0.45594000000E+02  0.51100000000E-03 0.  1.
    9900012    2    1    2    0    0  0.51114867519E+01  0.12692491556E+02  0.38287584134E+02  0.50528859115E+02  0.29999997765E+02 0.  0.
        -12    1    1    2    0    0 -0.51114867519E+01 -0.12692491556E+02 -0.38287584134E+02  0.40659140885E+02  0.00000000000E+00 0.  1.
         11    1    3    3    0    0  0.28503116977E+01 -0.17746022043E+01  0.19777194758E+02  0.20060182514E+02  0.51100000000E-03 0. -1.
        -11    1    3    3    0    0 -0.28858159948E+00 -0.33024161491E+01  0.10127643537E+02  0.10656378167E+02  0.51100000000E-03 0.  1.
        -12    1    3    3    0    0  0.25497566537E+01  0.17769509909E+02  0.83827458384E+01  0.19812298433E+02  0.00000000000E+00 0.  1.
</event>
<event>
 7    1  0.5839176E-013  0.5052892E+02  0.7816164E-02  0.1300439E+00
        -11   -1    0    0    0    0  0.00000000000E+00  0.00000000000E+00  0.45593999997E+02  0.45594000000E+02  0.51100000000E-03 0.  1.
         11   -1    0    0    0    0 -0.00000000000E+00 -0.00000000000E+00 -0.45593999997E+02  0.45594000000E+02  0.51100000000E-03 0. -1.
    9900012    2    1    2    0    0 -0.13433310069E+02  0.34341435399E+02 -0.17128134346E+02  0.50528917486E+02  0.30000175190E+02 0.  0.
        -12    1    1    2    0    0  0.13433310069E+02 -0.34341435399E+02  0.17128134346E+02  0.40659082514E+02  0.00000000000E+00 0.  1.
         11    1    3    3    0    0  0.62426444279E+01  0.12737511422E+02 -0.31401392077E+01  0.14528430100E+02  0.51100000000E-03 0. -1.
        -11    1    3    3    0    0  0.10733495874E+01 -0.70671388560E-01  0.17985450064E+01  0.20956712965E+01  0.51100000000E-03 0.  1.
         12    1    3    3    0    0 -0.20749304085E+02  0.21674595366E+02 -0.15786540145E+02  0.33904816089E+02  0.00000000000E+00 0. -1.
</event>
<event>
 7    1  0.5839176E-013  0.5052887E+02  0.7816164E-02  0.1300439E+00
        -11   -1    0    0    0    0  0.00000000000E+00  0.00000000000E+00  0.45593999997E+02  0.45594000000E+02  0.51100000000E-03 0. -1.
         11   -1    0    0    0    0 -0.00000000000E+00 -0.00000000000E+00 -0.45593999997E+02  0.45594000000E+02  0.51100000000E-03 0.  1.
    9900012    2    1    2    0    0 -0.32558282906E+00 -0.21683618414E+02  0.34393020367E+02  0.50528866197E+02  0.30000019291E+02 0.  0.
        -12    1    1    2    0    0  0.32558282906E+00  0.21683618414E+02 -0.34393020367E+02  0.40659133803E+02  0.00000000000E+00 0.  1.
         11    1    3    3    0    0 -0.75279650811E+01  0.24016041344E+01  0.56363481263E+01  0.97059971740E+01  0.51100000000E-03 0. -1.
        -11    1    3    3    0    0 -0.48925788594E+00 -0.10779053168E+02  0.36599803832E+01  0.11393981620E+02  0.51100000000E-03 0.  1.
         12    1    3    3    0    0  0.76916401380E+01 -0.13306169380E+02  0.25096691857E+02  0.29428887403E+02  0.00000000000E+00 0. -1.
</event>
<event>
 7    1  0.5839176E-013  0.5052887E+02  0.7816164E-02  0.1300439E+00
        -11   -1    0    0    0    0  0.00000000000E+00  0.00000000000E+00  0.45593999997E+02  0.45594000000E+02  0.51100000000E-03 0.  1.
         11   -1    0    0    0    0 -0.00000000000E+00 -0.00000000000E+00 -0.45593999997E+02  0.45594000000E+02  0.51100000000E-03 0. -1.
    9900012    2    1    2    0    0  0.66352571481E+00 -0.28459508103E+02 -0.29030697000E+02  0.50528865281E+02  0.30000016507E+02 0.  0.
        -12    1    1    2    0    0 -0.66352571481E+00  0.28459508103E+02  0.29030697000E+02  0.40659134719E+02  0.00000000000E+00 0.  1.
         11    1    3    3    0    0 -0.58145900093E+01 -0.21023279825E+02 -0.85181356300E+01  0.23416797100E+02  0.51100000000E-03 0. -1.
        -11    1    3    3    0    0  0.22117768846E+01 -0.92216631047E+01 -0.45979665130E+01  0.10539085526E+02  0.51100000000E-03 0.  1.
        -12    1    3    3    0    0  0.42663388395E+01  0.17854348264E+01 -0.15914594857E+02  0.16572982655E+02  0.00000000000E+00 0.  1.
</event>
<event>
 7    1  0.5839176E-013  0.5052886E+02  0.7816164E-02  0.1300439E+00
        -11   -1    0    0    0    0  0.00000000000E+00  0.00000000000E+00  0.45593999997E+02  0.45594000000E+02  0.51100000000E-03 0. -1.
         11   -1    0    0    0    0 -0.00000000000E+00 -0.00000000000E+00 -0.45593999997E+02  0.45594000000E+02  0.51100000000E-03 0.  1.
    9900012    2    1    2    0    0  0.22090556705E+02 -0.34032137098E+02  0.26431577177E+01  0.50528864080E+02  0.30000012859E+02 0.  0.
        -12    1    1    2    0    0 -0.22090556705E+02  0.34032137098E+02 -0.26431577177E+01  0.40659135920E+02  0.00000000000E+00 0.  1.
         11    1    3    3    0    0  0.19104541720E+02 -0.13509655683E+02  0.77347999816E+01  0.24643892591E+02  0.51100000000E-03 0. -1.
        -11    1    3    3    0    0 -0.35691145313E+01 -0.72546834986E+01  0.34585116693E+01  0.87937656570E+01  0.51100000000E-03 0.  1.
        -12    1    3    3    0    0  0.65551295163E+01 -0.13267797917E+02 -0.85501539332E+01  0.17091205833E+02  0.00000000000E+00 0.  1.
</event>
<event>
 7    1  0.5839176E-013  0.5052886E+02  0.7816164E-02  0.1300439E+00
        -11   -1    0    0    0    0  0.00000000000E+00  0.00000000000E+00  0.45593999997E+02  0.45594000000E+02  0.51100000000E-03 0. -1.
         11   -1    0    0    0    0 -0.00000000000E+00 -0.00000000000E+00 -0.45593999997E+02  0.45594000000E+02  0.51100000000E-03 0.  1.
    9900012    2    1    2    0    0 -0.28994496215E+02 -0.21361328419E+02  0.18872696071E+02  0.50528858106E+02  0.29999994699E+02 0.  0.
        -12    1    1    2    0    0  0.28994496215E+02  0.21361328419E+02 -0.18872696071E+02  0.40659141894E+02  0.00000000000E+00 0.  1.
         11    1    3    3    0    0 -0.27497424283E+02 -0.13227291334E+02  0.14589037054E+02  0.33821732372E+02  0.51100000000E-03 0. -1.
        -11    1    3    3    0    0 -0.40967207005E+01 -0.46092965467E+00  0.70326451595E+01  0.81519123428E+01  0.51100000000E-03 0.  1.
         12    1    3    3    0    0  0.25996487689E+01 -0.76731074304E+01 -0.27489861423E+01  0.85552133913E+01  0.00000000000E+00 0. -1.
</event>
<event>
 7    1  0.5839176E-013  0.5052886E+02  0.7816164E-02  0.1300439E+00
        -11   -1    0    0    0    0  0.00000000000E+00  0.00000000000E+00  0.45593999997E+02  0.45594000000E+02  0.51100000000E-03 0.  1.
         11   -1    0    0    0    0 -0.00000000000E+00 -0.00000000000E+00 -0.45593999997E+02  0.45594000000E+02  0.51100000000E-03 0. -1.
    9900012    2    1    2    0    0 -0.32525096108E+02 -0.10753875946E+02 -0.21900646263E+02  0.50528855500E+02  0.29999986778E+02 0.  0.
        -12    1    1    2    0    0  0.32525096108E+02  0.10753875946E+02  0.21900646263E+02  0.40659144500E+02  0.00000000000E+00 0.  1.
         11    1    3    3    0    0 -0.26068607223E+01 -0.59566240730E+01 -0.60205633645E+01  0.88613924787E+01  0.51100000000E-03 0. -1.
        -11    1    3    3    0    0 -0.27486664991E+02 -0.23276335798E+01 -0.23323719411E+01  0.27683471414E+02  0.51100000000E-03 0.  1.
         12    1    3    3    0    0 -0.24315703953E+01 -0.24696182935E+01 -0.13547710957E+02  0.13983991608E+02  0.00000000000E+00 0. -1.
</event>
<event>
 7    1  0.5839176E-013  0.5052886E+02  0.7816164E-02  0.1300439E+00
        -11   -1    0    0    0    0  0.00000000000E+00  0.00000000000E+00  0.45593999997E+02  0.45594000000E+02  0.51100000000E-03 0.  1.
         11   -1    0    0    0    0 -0.00000000000E+00 -0.00000000000E+00 -0.45593999997E+02  0.45594000000E+02  0.51100000000E-03 0. -1.
    9900012    2    1    2    0    0 -0.28745920243E+01  0.21958211610E+02 -0.34098959091E+02  0.50528863912E+02  0.30000012346E+02 0.  0.
        -12    1    1    2    0    0  0.28745920243E+01 -0.21958211610E+02  0.34098959091E+02  0.40659136088E+02  0.00000000000E+00 0.  1.
         11    1    3    3    0    0  0.18500889431E+00  0.25544826185E+01 -0.63902796913E+01  0.68844233261E+01  0.51100000000E-03 0. -1.
        -11    1    3    3    0    0  0.96396978218E+01  0.59196775433E+01 -0.12988276148E+01  0.11386540728E+02  0.51100000000E-03 0.  1.
         12    1    3    3    0    0 -0.12699298740E+02  0.13484051448E+02 -0.26409851784E+02  0.32257899858E+02  0.00000000000E+00 0. -1.
</event>
<event>
 7    1  0.5839176E-013  0.5052885E+02  0.7816164E-02  0.1300439E+00
        -11   -1    0    0    0    0  0.00000000000E+00  0.00000000000E+00  0.45593999997E+02  0.45594000000E+02  0.51100000000E-03 0.  1.
         11   -1    0    0    0    0 -0.00000000000E+00 -0.00000000000E+00 -0.45593999997E+02  0.45594000000E+02  0.51100000000E-03 0. -1.
    9900012    2    1    2    0    0  0.63504130995E+01 -0.13740752358E+02 -0.37736330507E+02  0.50528847746E+02  0.29999963208E+02 0.  0.
        -12    1    1    2    0    0 -0.63504130995E+01  0.13740752358E+02  0.37736330507E+02  0.40659152254E+02  0.00000000000E+00 0.  1.
         11    1    3    3    0    0  0.33925056480E+01 -0.53238779411E+01 -0.83592535976E+01  0.10475203667E+02  0.51100000000E-03 0. -1.
        -11    1    3    3    0    0  0.14018163296E+02 -0.30553391450E+01 -0.11646120325E+02  0.18479072444E+02  0.51100000000E-03 0.  1.
        -12    1    3    3    0    0 -0.11060255845E+02 -0.53615352720E+01 -0.17730956584E+02  0.21574571635E+02  0.00000000000E+00 0.  1.
</event>
<event>
 7    1  0.5839176E-013  0.5052889E+02  0.7816164E-02  0.1300439E+00
        -11   -1    0    0    0    0  0.00000000000E+00  0.00000000000E+00  0.45593999997E+02  0.45594000000E+02  0.51100000000E-03 0.  1.
         11   -1    0    0    0    0 -0.00000000000E+00 -0.00000000000E+00 -0.45593999997E+02  0.45594000000E+02  0.51100000000E-03 0. -1.
    9900012    2    1    2    0    0  0.40068297687E+02  0.68851580592E+01 -0.53766501104E+00  0.50528893214E+02  0.30000101412E+02 0.  0.
        -12    1    1    2    0    0 -0.40068297687E+02 -0.68851580592E+01  0.53766501104E+00  0.40659106786E+02  0.00000000000E+00 0.  1.
         11    1    3    3    0    0  0.41657517906E+02  0.51771159365E+01 -0.13222110485E+01  0.41998804386E+02  0.51100000000E-03 0.  1.
        -11    1    3    3    0    0  0.28406622205E+01  0.39303564291E+00 -0.16484725038E+01  0.33077637045E+01  0.51100000000E-03 0. -1.
        -12    1    3    3    0    0 -0.44298824400E+01  0.13150064798E+01  0.24330185413E+01  0.52223251235E+01  0.00000000000E+00 0.  1.
</event>
<event>
 7    1  0.5839176E-013  0.5052887E+02  0.7816164E-02  0.1300439E+00
        -11   -1    0    0    0    0  0.00000000000E+00  0.00000000000E+00  0.45593999997E+02  0.45594000000E+02  0.51100000000E-03 0.  1.
         11   -1    0    0    0    0 -0.00000000000E+00 -0.00000000000E+00 -0.45593999997E+02  0.45594000000E+02  0.51100000000E-03 0. -1.
    9900012    2    1    2    0    0 -0.15542599123E+02 -0.32408741941E+02 -0.19007001546E+02  0.50528867576E+02  0.30000023485E+02 0.  0.
        -12    1    1    2    0    0  0.15542599123E+02  0.32408741941E+02  0.19007001546E+02  0.40659132424E+02  0.00000000000E+00 0.  1.
         11    1    3    3    0    0 -0.40759925790E+01 -0.58339128135E+01 -0.39912975876E+01  0.81595778636E+01  0.51100000000E-03 0. -1.
        -11    1    3    3    0    0 -0.18480328184E+02 -0.19515964297E+02 -0.17551206469E+02  0.32100471040E+02  0.51100000000E-03 0.  1.
        -12    1    3    3    0    0  0.70137216403E+01 -0.70588648307E+01  0.25355025109E+01  0.10268818672E+02  0.00000000000E+00 0.  1.
</event>
<event>
 7    1  0.5839176E-013  0.5052887E+02  0.7816164E-02  0.1300439E+00
        -11   -1    0    0    0    0  0.00000000000E+00  0.00000000000E+00  0.45593999997E+02  0.45594000000E+02  0.51100000000E-03 0.  1.
         11   -1    0    0    0    0 -0.00000000000E+00 -0.00000000000E+00 -0.45593999997E+02  0.45594000000E+02  0.51100000000E-03 0. -1.
    9900012    2    1    2    0    0  0.38307539484E+02  0.19378008485E+01 -0.13488600014E+02  0.50528868383E+02  0.30000025938E+02 0.  0.
        -12    1    1    2    0    0 -0.38307539484E+02 -0.19378008485E+01  0.13488600014E+02  0.40659131617E+02  0.00000000000E+00 0.  1.
         11    1    3    3    0    0  0.61425149719E+01  0.22261172904E+01 -0.32220592578E+01  0.72847618007E+01  0.51100000000E-03 0. -1.
        -11    1    3    3    0    0  0.22558081618E+02  0.11583360379E+02 -0.99416103419E+00  0.25377739072E+02  0.51100000000E-03 0.  1.
        -12    1    3    3    0    0  0.96069428945E+01 -0.11871676821E+02 -0.92723797223E+01  0.17866367511E+02  0.00000000000E+00 0.  1.
</event>
<event>
 7    1  0.5839176E-013  0.5052885E+02  0.7816164E-02  0.1300439E+00
        -11   -1    0    0    0    0  0.00000000000E+00  0.00000000000E+00  0.45593999997E+02  0.45594000000E+02  0.51100000000E-03 0.  1.
         11   -1    0    0    0    0 -0.00000000000E+00 -0.00000000000E+00 -0.45593999997E+02  0.45594000000E+02  0.51100000000E-03 0. -1.
    9900012    2    1    2    0    0  0.13263681026E+02  0.38379965647E+02  0.20541136965E+01  0.50528851208E+02  0.29999973733E+02 0.  0.
        -12    1    1    2    0    0 -0.13263681026E+02 -0.38379965647E+02 -0.20541136965E+01  0.40659148792E+02  0.00000000000E+00 0.  1.
         11    1    3    3    0    0 -0.31977036782E+01  0.60489847921E+01  0.63903171632E+01  0.93622475686E+01  0.51100000000E-03 0. -1.
        -11    1    3    3    0    0  0.43825327973E+01 -0.85918897850E+00  0.26065096307E+01  0.51709469284E+01  0.51100000000E-03 0.  1.
         12    1    3    3    0    0  0.12078851906E+02  0.33190169833E+02 -0.69427130975E+01  0.35995656711E+02  0.00000000000E+00 0. -1.
</event>
<event>
 7    1  0.5839176E-013  0.5052885E+02  0.7816164E-02  0.1300439E+00
        -11   -1    0    0    0    0  0.00000000000E+00  0.00000000000E+00  0.45593999997E+02  0.45594000000E+02  0.51100000000E-03 0.  1.
         11   -1    0    0    0    0 -0.00000000000E+00 -0.00000000000E+00 -0.45593999997E+02  0.45594000000E+02  0.51100000000E-03 0. -1.
    9900012    2    1    2    0    0  0.44414582292E+01 -0.29894303042E+02 -0.27198717614E+02  0.50528854099E+02  0.29999982521E+02 0.  0.
        -12    1    1    2    0    0 -0.44414582292E+01  0.29894303042E+02  0.27198717614E+02  0.40659145901E+02  0.00000000000E+00 0.  1.
         11    1    3    3    0    0 -0.43302473694E+01 -0.19434093490E+02 -0.97711198853E+01  0.22179040019E+02  0.51100000000E-03 0. -1.
        -11    1    3    3    0    0  0.80456902927E+00 -0.65526453549E+01  0.20775021917E+01  0.69210192955E+01  0.51100000000E-03 0.  1.
         12    1    3    3    0    0  0.79671365693E+01 -0.39075641962E+01 -0.19505099920E+02  0.21428794785E+02  0.00000000000E+00 0. -1.
</event>
<event>
 7    1  0.5839176E-013  0.5052885E+02  0.7816164E-02  0.1300439E+00
        -11   -1    0    0    0    0  0.00000000000E+00  0.00000000000E+00  0.45593999997E+02  0.45594000000E+02  0.51100000000E-03 0.  1.
         11   -1    0    0    0    0 -0.00000000000E+00 -0.00000000000E+00 -0.45593999997E+02  0.45594000000E+02  0.51100000000E-03 0. -1.
    9900012    2    1    2    0    0  0.29029696888E+02 -0.19198960676E+02 -0.21020068342E+02  0.50528847702E+02  0.29999963076E+02 0.  0.
        -12    1    1    2    0    0 -0.29029696888E+02  0.19198960676E+02  0.21020068342E+02  0.40659152298E+02  0.00000000000E+00 0.  1.
         11    1    3    3    0    0 -0.11777717158E+01 -0.16526681238E+01  0.14662420200E+01  0.25036621306E+01  0.51100000000E-03 0. -1.
        -11    1    3    3    0    0 -0.26535317726E+00  0.38455878133E+01  0.10282504331E+01  0.39895184111E+01  0.51100000000E-03 0.  1.
         12    1    3    3    0    0  0.30472821781E+02 -0.21391880366E+02 -0.23514560795E+02  0.44035667161E+02  0.00000000000E+00 0. -1.
</event>
<event>
 7    1  0.5839176E-013  0.5052885E+02  0.7816164E-02  0.1300439E+00
        -11   -1    0    0    0    0  0.00000000000E+00  0.00000000000E+00  0.45593999997E+02  0.45594000000E+02  0.51100000000E-03 0.  1.
         11   -1    0    0    0    0 -0.00000000000E+00 -0.00000000000E+00 -0.45593999997E+02  0.45594000000E+02  0.51100000000E-03 0. -1.
    9900012    2    1    2    0    0 -0.11099963334E+02  0.32769073855E+02 -0.21357562577E+02  0.50528845230E+02  0.29999955562E+02 0.  0.
        -12    1    1    2    0    0  0.11099963334E+02 -0.32769073855E+02  0.21357562577E+02  0.40659154770E+02  0.00000000000E+00 0.  1.
         11    1    3    3    0    0  0.16471361728E+01  0.10903208209E+02 -0.14930021993E+01  0.11127536235E+02  0.51100000000E-03 0. -1.
        -11    1    3    3    0    0  0.54453723427E+01  0.25196265433E+01  0.37453795955E+00  0.60117282716E+01  0.51100000000E-03 0.  1.
        -12    1    3    3    0    0 -0.18192471849E+02  0.19346239102E+02 -0.20239098338E+02  0.33389580724E+02  0.00000000000E+00 0.  1.
</event>
<event>
 7    1  0.5839176E-013  0.5052886E+02  0.7816164E-02  0.1300439E+00
        -11   -1    0    0    0    0  0.00000000000E+00  0.00000000000E+00  0.45593999997E+02  0.45594000000E+02  0.51100000000E-03 0.  1.
         11   -1    0    0    0    0 -0.00000000000E+00 -0.00000000000E+00 -0.45593999997E+02  0.45594000000E+02  0.51100000000E-03 0. -1.
    9900012    2    1    2    0    0  0.99561140132E+01  0.38561180889E+02 -0.81900502603E+01  0.50528858334E+02  0.29999995391E+02 0.  0.
        -12    1    1    2    0    0 -0.99561140132E+01 -0.38561180889E+02  0.81900502603E+01  0.40659141666E+02  0.00000000000E+00 0.  1.
         11    1    3    3    0    0  0.41162445961E+01  0.25252764752E+02  0.58024947126E+01  0.26235749319E+02  0.51100000000E-03 0. -1.
        -11    1    3    3    0    0 -0.28549508881E+01  0.51042633255E+01  0.53408202838E-01  0.58486837294E+01  0.51100000000E-03 0.  1.
         12    1    3    3    0    0  0.86948203052E+01  0.82041528116E+01 -0.14045953176E+02  0.18444425285E+02  0.00000000000E+00 0. -1.
</event>
<event>
 7    1  0.5839176E-013  0.5052886E+02  0.7816164E-02  0.1300439E+00
        -11   -1    0    0    0    0  0.00000000000E+00  0.00000000000E+00  0.45593999997E+02  0.45594000000E+02  0.51100000000E-03 0. -1.
         11   -1    0    0    0    0 -0.00000000000E+00 -0.00000000000E+00 -0.45593999997E+02  0.45594000000E+02  0.51100000000E-03 0.  1.
    9900012    2    1    2    0    0 -0.32844657121E+02 -0.22219538026E+02  0.89825476889E+01  0.50528861612E+02  0.30000005356E+02 0.  0.
        -12    1    1    2    0    0  0.32844657121E+02  0.22219538026E+02 -0.89825476889E+01  0.40659138388E+02  0.00000000000E+00 0.  1.
         11    1    3    3    0    0 -0.12634133963E+02  0.10948910864E+01 -0.37105302673E+00  0.12686914838E+02  0.51100000000E-03 0.  1.
        -11    1    3    3    0    0  0.16628325272E+00 -0.10763315071E+01  0.75477481622E+01  0.76259191062E+01  0.51100000000E-03 0. -1.
         12    1    3    3    0    0 -0.20376806410E+02 -0.22238097605E+02  0.18058525534E+01  0.30216027668E+02  0.00000000000E+00 0. -1.
</event>
<event>
 7    1  0.5839176E-013  0.5052886E+02  0.7816164E-02  0.1300439E+00
        -11   -1    0    0    0    0  0.00000000000E+00  0.00000000000E+00  0.45593999997E+02  0.45594000000E+02  0.51100000000E-03 0.  1.
         11   -1    0    0    0    0 -0.00000000000E+00 -0.00000000000E+00 -0.45593999997E+02  0.45594000000E+02  0.51100000000E-03 0. -1.
    9900012    2    1    2    0    0 -0.27919670344E+02 -0.55505263963E+01 -0.29031867013E+02  0.50528860343E+02  0.30000001498E+02 0.  0.
        -12    1    1    2    0    0  0.27919670344E+02  0.55505263963E+01  0.29031867013E+02  0.40659139657E+02  0.00000000000E+00 0.  1.
         11    1    3    3    0    0  0.18217037425E+01 -0.16788042357E+01 -0.24958334494E+01  0.35165569888E+01  0.51100000000E-03 0. -1.
        -11    1    3    3    0    0 -0.57354792548E+01  0.29073843746E+01  0.40075800686E+01  0.75768927966E+01  0.51100000000E-03 0.  1.
        -12    1    3    3    0    0 -0.24005894832E+02 -0.67791065352E+01 -0.30543613633E+02  0.39435410557E+02  0.00000000000E+00 0.  1.
</event>
<event>
 7    1  0.5839176E-013  0.5052884E+02  0.7816164E-02  0.1300439E+00
        -11   -1    0    0    0    0  0.00000000000E+00  0.00000000000E+00  0.45593999997E+02  0.45594000000E+02  0.51100000000E-03 0.  1.
         11   -1    0    0    0    0 -0.00000000000E+00 -0.00000000000E+00 -0.45593999997E+02  0.45594000000E+02  0.51100000000E-03 0. -1.
    9900012    2    1    2    0    0 -0.31038585820E+02  0.25255540316E+02  0.72063336962E+01  0.50528839019E+02  0.29999936682E+02 0.  0.
        -12    1    1    2    0    0  0.31038585820E+02 -0.25255540316E+02 -0.72063336962E+01  0.40659160981E+02  0.00000000000E+00 0.  1.
         11    1    3    3    0    0 -0.15464529752E+02  0.49052803262E+01 -0.51580034867E+01  0.17024055209E+02  0.51100000000E-03 0. -1.
        -11    1    3    3    0    0 -0.19495539615E+02  0.17028020550E+02  0.92108986172E+01  0.27474901316E+02  0.51100000000E-03 0.  1.
         12    1    3    3    0    0  0.39214835472E+01  0.33222394395E+01  0.31534385658E+01  0.60298824941E+01  0.00000000000E+00 0. -1.
</event>
<event>
 7    1  0.5839176E-013  0.5052884E+02  0.7816164E-02  0.1300439E+00
        -11   -1    0    0    0    0  0.00000000000E+00  0.00000000000E+00  0.45593999997E+02  0.45594000000E+02  0.51100000000E-03 0.  1.
         11   -1    0    0    0    0 -0.00000000000E+00 -0.00000000000E+00 -0.45593999997E+02  0.45594000000E+02  0.51100000000E-03 0. -1.
    9900012    2    1    2    0    0  0.40634517668E+02  0.12208300386E+01 -0.71593035409E+00  0.50528843487E+02  0.29999950264E+02 0.  0.
        -12    1    1    2    0    0 -0.40634517668E+02 -0.12208300386E+01  0.71593035409E+00  0.40659156513E+02  0.00000000000E+00 0.  1.
         11    1    3    3    0    0 -0.74935816173E+00  0.44211330985E+01 -0.21522790222E+01  0.49739582608E+01  0.51100000000E-03 0. -1.
        -11    1    3    3    0    0  0.27885434412E+01 -0.18466999256E+01  0.57947194431E+01  0.66906687875E+01  0.51100000000E-03 0.  1.
         12    1    3    3    0    0  0.38595332388E+02 -0.13536031344E+01 -0.43583707750E+01  0.38864216439E+02  0.00000000000E+00 0. -1.
</event>
<event>
 7    1  0.5839176E-013  0.5052886E+02  0.7816164E-02  0.1300439E+00
        -11   -1    0    0    0    0  0.00000000000E+00  0.00000000000E+00  0.45593999997E+02  0.45594000000E+02  0.51100000000E-03 0. -1.
         11   -1    0    0    0    0 -0.00000000000E+00 -0.00000000000E+00 -0.45593999997E+02  0.45594000000E+02  0.51100000000E-03 0.  1.
    9900012    2    1    2    0    0  0.35574637698E+01  0.31596805153E+02  0.25340724470E+02  0.50528856366E+02  0.29999989412E+02 0.  0.
        -12    1    1    2    0    0 -0.35574637698E+01 -0.31596805153E+02 -0.25340724470E+02  0.40659143634E+02  0.00000000000E+00 0.  1.
         11    1    3    3    0    0 -0.68303961639E+01  0.28149058562E+01  0.12658388714E+02  0.14656493845E+02  0.51100000000E-03 0. -1.
        -11    1    3    3    0    0  0.12760123772E+01  0.22354984165E+02  0.79774073389E+01  0.23769992695E+02  0.51100000000E-03 0.  1.
        -12    1    3    3    0    0  0.91118475565E+01  0.64269151314E+01  0.47049284171E+01  0.12102369826E+02  0.00000000000E+00 0.  1.
</event>
<event>
 7    1  0.5839176E-013  0.5052886E+02  0.7816164E-02  0.1300439E+00
        -11   -1    0    0    0    0  0.00000000000E+00  0.00000000000E+00  0.45593999997E+02  0.45594000000E+02  0.51100000000E-03 0.  1.
         11   -1    0    0    0    0 -0.00000000000E+00 -0.00000000000E+00 -0.45593999997E+02  0.45594000000E+02  0.51100000000E-03 0. -1.
    9900012    2    1    2    0    0  0.27659845340E+00  0.17772904561E+02 -0.36567925586E+02  0.50528858040E+02  0.29999994500E+02 0.  0.
        -12    1    1    2    0    0 -0.27659845340E+00 -0.17772904561E+02  0.36567925586E+02  0.40659141960E+02  0.00000000000E+00 0.  1.
         11    1    3    3    0    0  0.62710108928E+01  0.23353007240E+01 -0.23340599194E+01  0.70871039966E+01  0.51100000000E-03 0.  1.
        -11    1    3    3    0    0  0.14478091746E+01  0.18071543441E+02 -0.18867105941E+02  0.26165712691E+02  0.51100000000E-03 0. -1.
         12    1    3    3    0    0 -0.74422216141E+01 -0.26339396042E+01 -0.15366759725E+02  0.17276041353E+02  0.00000000000E+00 0. -1.
</event>
<event>
 7    1  0.5839176E-013  0.5052886E+02  0.7816164E-02  0.1300439E+00
        -11   -1    0    0    0    0  0.00000000000E+00  0.00000000000E+00  0.45593999997E+02  0.45594000000E+02  0.51100000000E-03 0. -1.
         11   -1    0    0    0    0 -0.00000000000E+00 -0.00000000000E+00 -0.45593999997E+02  0.45594000000E+02  0.51100000000E-03 0.  1.
    9900012    2    1    2    0    0 -0.30774098741E+02  0.24907961702E+02 -0.92581750231E+01  0.50528861860E+02  0.30000006111E+02 0.  0.
        -12    1    1    2    0    0  0.30774098741E+02 -0.24907961702E+02  0.92581750231E+01  0.40659138140E+02  0.00000000000E+00 0.  1.
         11    1    3    3    0    0  0.22172503408E+01  0.89260016999E+01 -0.10334351409E+01  0.92551441843E+01  0.51100000000E-03 0.  1.
        -11    1    3    3    0    0 -0.17864198382E+01  0.16721366283E+01  0.41201840809E+01  0.47919989423E+01  0.51100000000E-03 0. -1.
         12    1    3    3    0    0 -0.31204929244E+02  0.14309823374E+02 -0.12344923963E+02  0.36481718734E+02  0.00000000000E+00 0. -1.
</event>
<event>
 7    1  0.5839176E-013  0.5052887E+02  0.7816164E-02  0.1300439E+00
        -11   -1    0    0    0    0  0.00000000000E+00  0.00000000000E+00  0.45593999997E+02  0.45594000000E+02  0.51100000000E-03 0.  1.
         11   -1    0    0    0    0 -0.00000000000E+00 -0.00000000000E+00 -0.45593999997E+02  0.45594000000E+02  0.51100000000E-03 0. -1.
    9900012    2    1    2    0    0  0.77385024255E+01 -0.34038459799E+02 -0.20848588773E+02  0.50528870409E+02  0.30000032095E+02 0.  0.
        -12    1    1    2    0    0 -0.77385024255E+01  0.34038459799E+02  0.20848588773E+02  0.40659129591E+02  0.00000000000E+00 0.  1.
         11    1    3    3    0    0 -0.47344255408E+01 -0.17058527364E+02 -0.80596362239E+01  0.19451629169E+02  0.51100000000E-03 0. -1.
        -11    1    3    3    0    0  0.29571111514E+00 -0.12482665342E+02  0.50533357090E+00  0.12496389134E+02  0.51100000000E-03 0.  1.
         12    1    3    3    0    0  0.12177216851E+02 -0.44972670934E+01 -0.13294286120E+02  0.18580852106E+02  0.00000000000E+00 0. -1.
</event>
<event>
 7    1  0.5839176E-013  0.5052886E+02  0.7816164E-02  0.1300439E+00
        -11   -1    0    0    0    0  0.00000000000E+00  0.00000000000E+00  0.45593999997E+02  0.45594000000E+02  0.51100000000E-03 0.  1.
         11   -1    0    0    0    0 -0.00000000000E+00 -0.00000000000E+00 -0.45593999997E+02  0.45594000000E+02  0.51100000000E-03 0. -1.
    9900012    2    1    2    0    0 -0.19037321784E+02  0.12556404364E+02 -0.33661288658E+02  0.50528864921E+02  0.30000015415E+02 0.  0.
        -12    1    1    2    0    0  0.19037321784E+02 -0.12556404364E+02  0.33661288658E+02  0.40659135079E+02  0.00000000000E+00 0.  1.
         11    1    3    3    0    0 -0.10718302742E+02  0.18374651530E+02 -0.21472696375E+02  0.30225593830E+02  0.51100000000E-03 0. -1.
        -11    1    3    3    0    0  0.13654052273E+01  0.27308608261E+01 -0.99786484044E+00  0.32121125116E+01  0.51100000000E-03 0.  1.
        -12    1    3    3    0    0 -0.96844242694E+01 -0.85491079927E+01 -0.11190727442E+02  0.17091158579E+02  0.00000000000E+00 0.  1.
</event>
<event>
 7    1  0.5839176E-013  0.5052887E+02  0.7816164E-02  0.1300439E+00
        -11   -1    0    0    0    0  0.00000000000E+00  0.00000000000E+00  0.45593999997E+02  0.45594000000E+02  0.51100000000E-03 0.  1.
         11   -1    0    0    0    0 -0.00000000000E+00 -0.00000000000E+00 -0.45593999997E+02  0.45594000000E+02  0.51100000000E-03 0. -1.
    9900012    2    1    2    0    0  0.25393576537E+02  0.17084169564E+02 -0.26766814988E+02  0.50528868631E+02  0.30000026692E+02 0.  0.
        -12    1    1    2    0    0 -0.25393576537E+02 -0.17084169564E+02  0.26766814988E+02  0.40659131369E+02  0.00000000000E+00 0.  1.
         11    1    3    3    0    0  0.45597303568E+01  0.89009445481E+01 -0.49280373367E+01  0.11149148265E+02  0.51100000000E-03 0. -1.
        -11    1    3    3    0    0  0.11476057897E+02  0.15101927197E+02 -0.20058928481E+02  0.27606678938E+02  0.51100000000E-03 0.  1.
        -12    1    3    3    0    0  0.93577882830E+01 -0.69187021808E+01 -0.17798491705E+01  0.11773041429E+02  0.00000000000E+00 0.  1.
</event>
<event>
 7    1  0.5839176E-013  0.5052886E+02  0.7816164E-02  0.1300439E+00
        -11   -1    0    0    0    0  0.00000000000E+00  0.00000000000E+00  0.45593999997E+02  0.45594000000E+02  0.51100000000E-03 0.  1.
         11   -1    0    0    0    0 -0.00000000000E+00 -0.00000000000E+00 -0.45593999997E+02  0.45594000000E+02  0.51100000000E-03 0. -1.
    9900012    2    1    2    0    0 -0.16238866540E+02 -0.36984192886E+02 -0.46513064132E+01  0.50528856363E+02  0.29999989402E+02 0.  0.
        -12    1    1    2    0    0  0.16238866540E+02  0.36984192886E+02  0.46513064132E+01  0.40659143637E+02  0.00000000000E+00 0.  1.
         11    1    3    3    0    0 -0.10338066297E+02 -0.53031485056E+01  0.74462955136E+01  0.13800228837E+02  0.51100000000E-03 0.  1.
        -11    1    3    3    0    0 -0.26573120093E+01 -0.79139881593E+01  0.24178678589E+01  0.86912945494E+01  0.51100000000E-03 0. -1.
         12    1    3    3    0    0 -0.32434882345E+01 -0.23767056221E+02 -0.14515469786E+02  0.28037332977E+02  0.00000000000E+00 0. -1.
</event>
<event>
 7    1  0.5839176E-013  0.5052888E+02  0.7816164E-02  0.1300439E+00
        -11   -1    0    0    0    0  0.00000000000E+00  0.00000000000E+00  0.45593999997E+02  0.45594000000E+02  0.51100000000E-03 0. -1.
         11   -1    0    0    0    0 -0.00000000000E+00 -0.00000000000E+00 -0.45593999997E+02  0.45594000000E+02  0.51100000000E-03 0.  1.
    9900012    2    1    2    0    0  0.24640727247E+01  0.15001364479E+02  0.37710092597E+02  0.50528884488E+02  0.30000074888E+02 0.  0.
        -12    1    1    2    0    0 -0.24640727247E+01 -0.15001364479E+02 -0.37710092597E+02  0.40659115512E+02  0.00000000000E+00 0.  1.
         11    1    3    3    0    0 -0.78948899339E+01 -0.71382705203E+00  0.21602200348E+02  0.23010734371E+02  0.51100000000E-03 0. -1.
        -11    1    3    3    0    0 -0.27145058647E+01  0.24193389078E+01  0.21295499626E+01  0.42138730576E+01  0.51100000000E-03 0.  1.
        -12    1    3    3    0    0  0.13073468523E+02  0.13295852623E+02  0.13978342286E+02  0.23304277059E+02  0.00000000000E+00 0.  1.
</event>
<event>
 7    1  0.5839176E-013  0.5052886E+02  0.7816164E-02  0.1300439E+00
        -11   -1    0    0    0    0  0.00000000000E+00  0.00000000000E+00  0.45593999997E+02  0.45594000000E+02  0.51100000000E-03 0.  1.
         11   -1    0    0    0    0 -0.00000000000E+00 -0.00000000000E+00 -0.45593999997E+02  0.45594000000E+02  0.51100000000E-03 0. -1.
    9900012    2    1    2    0    0  0.36934962647E+02 -0.64411993484E+01 -0.15731661204E+02  0.50528859834E+02  0.29999999952E+02 0.  0.
        -12    1    1    2    0    0 -0.36934962647E+02  0.64411993484E+01  0.15731661204E+02  0.40659140166E+02  0.00000000000E+00 0.  1.
         11    1    3    3    0    0  0.25017876694E+02  0.85113359459E+01 -0.85148675579E+01  0.27764004820E+02  0.51100000000E-03 0. -1.
        -11    1    3    3    0    0  0.67222452525E+01 -0.63478783104E+01 -0.85899754316E+01  0.12620293913E+02  0.51100000000E-03 0.  1.
        -12    1    3    3    0    0  0.51948407007E+01 -0.86046569839E+01  0.13731817853E+01  0.10144561101E+02  0.00000000000E+00 0.  1.
</event>
<event>
 7    1  0.5839176E-013  0.5052886E+02  0.7816164E-02  0.1300439E+00
        -11   -1    0    0    0    0  0.00000000000E+00  0.00000000000E+00  0.45593999997E+02  0.45594000000E+02  0.51100000000E-03 0.  1.
         11   -1    0    0    0    0 -0.00000000000E+00 -0.00000000000E+00 -0.45593999997E+02  0.45594000000E+02  0.51100000000E-03 0. -1.
    9900012    2    1    2    0    0  0.23850048254E+02  0.74224905280E+01 -0.32081886614E+02  0.50528860608E+02  0.30000002305E+02 0.  0.
        -12    1    1    2    0    0 -0.23850048254E+02 -0.74224905280E+01  0.32081886614E+02  0.40659139392E+02  0.00000000000E+00 0.  1.
         11    1    3    3    0    0  0.25072673073E+02  0.11794269144E+02 -0.21618220926E+02  0.35143864272E+02  0.51100000000E-03 0. -1.
        -11    1    3    3    0    0  0.25747561563E+01 -0.61296825137E+01 -0.42401871569E+01  0.78855287946E+01  0.51100000000E-03 0.  1.
        -12    1    3    3    0    0 -0.37973809756E+01  0.17579038979E+01 -0.62234785307E+01  0.74994675417E+01  0.00000000000E+00 0.  1.
</event>
<event>
 7    1  0.5839176E-013  0.5052886E+02  0.7816164E-02  0.1300439E+00
        -11   -1    0    0    0    0  0.00000000000E+00  0.00000000000E+00  0.45593999997E+02  0.45594000000E+02  0.51100000000E-03 0.  1.
         11   -1    0    0    0    0 -0.00000000000E+00 -0.00000000000E+00 -0.45593999997E+02  0.45594000000E+02  0.51100000000E-03 0. -1.
    9900012    2    1    2    0    0 -0.30875522836E+02 -0.88206305740E+01 -0.24941210234E+02  0.50528863240E+02  0.30000010306E+02 0.  0.
        -12    1    1    2    0    0  0.30875522836E+02  0.88206305740E+01  0.24941210234E+02  0.40659136760E+02  0.00000000000E+00 0.  1.
         11    1    3    3    0    0 -0.12547970981E+01 -0.67381886452E+01  0.20731158722E+01  0.71606921213E+01  0.51100000000E-03 0. -1.
        -11    1    3    3    0    0 -0.15881326718E+02  0.55308481998E+01 -0.77643204202E+01  0.18522729064E+02  0.51100000000E-03 0.  1.
         12    1    3    3    0    0 -0.13739399020E+02 -0.76132901286E+01 -0.19250005686E+02  0.24845442055E+02  0.00000000000E+00 0. -1.
</event>
<event>
 7    1  0.5839176E-013  0.5052886E+02  0.7816164E-02  0.1300439E+00
        -11   -1    0    0    0    0  0.00000000000E+00  0.00000000000E+00  0.45593999997E+02  0.45594000000E+02  0.51100000000E-03 0.  1.
         11   -1    0    0    0    0 -0.00000000000E+00 -0.00000000000E+00 -0.45593999997E+02  0.45594000000E+02  0.51100000000E-03 0. -1.
    9900012    2    1    2    0    0  0.10919644322E+02 -0.47799997848E+01 -0.38872595343E+02  0.50528859592E+02  0.29999999215E+02 0.  0.
        -12    1    1    2    0    0 -0.10919644322E+02  0.47799997848E+01  0.38872595343E+02  0.40659140408E+02  0.00000000000E+00 0.  1.
         11    1    3    3    0    0  0.22057999110E+01  0.49577471546E+00  0.15585809274E+01  0.27460008347E+01  0.51100000000E-03 0. -1.
        -11    1    3    3    0    0 -0.22728149298E+01  0.61328786286E+01 -0.31148290762E+01  0.72443114520E+01  0.51100000000E-03 0.  1.
         12    1    3    3    0    0  0.10986659341E+02 -0.11408653129E+02 -0.37316347194E+02  0.40538547305E+02  0.00000000000E+00 0. -1.
</event>
<event>
 7    1  0.5839176E-013  0.5052886E+02  0.7816164E-02  0.1300439E+00
        -11   -1    0    0    0    0  0.00000000000E+00  0.00000000000E+00  0.45593999997E+02  0.45594000000E+02  0.51100000000E-03 0. -1.
         11   -1    0    0    0    0 -0.00000000000E+00 -0.00000000000E+00 -0.45593999997E+02  0.45594000000E+02  0.51100000000E-03 0.  1.
    9900012    2    1    2    0    0 -0.61695419642E+01  0.38505268385E+02 -0.11508534912E+02  0.50528864283E+02  0.30000013475E+02 0.  0.
        -12    1    1    2    0    0  0.61695419642E+01 -0.38505268385E+02  0.11508534912E+02  0.40659135717E+02  0.00000000000E+00 0.  1.
         11    1    3    3    0    0 -0.94126368446E+01  0.23510050265E+02  0.48310484040E+01  0.25780985721E+02  0.51100000000E-03 0. -1.
        -11    1    3    3    0    0  0.17180788998E+01 -0.93604929423E+00 -0.11755858889E+00  0.19600519560E+01  0.51100000000E-03 0.  1.
        -12    1    3    3    0    0  0.15250159806E+01  0.15931267414E+02 -0.16222024727E+02  0.22787826606E+02  0.00000000000E+00 0.  1.
</event>
<event>
 7    1  0.5839176E-013  0.5052888E+02  0.7816164E-02  0.1300439E+00
        -11   -1    0    0    0    0  0.00000000000E+00  0.00000000000E+00  0.45593999997E+02  0.45594000000E+02  0.51100000000E-03 0.  1.
         11   -1    0    0    0    0 -0.00000000000E+00 -0.00000000000E+00 -0.45593999997E+02  0.45594000000E+02  0.51100000000E-03 0. -1.
    9900012    2    1    2    0    0 -0.87596742957E+01 -0.24735800033E+02 -0.31057566849E+02  0.50528878568E+02  0.30000056895E+02 0.  0.
        -12    1    1    2    0    0  0.87596742957E+01  0.24735800033E+02  0.31057566849E+02  0.40659121432E+02  0.00000000000E+00 0.  1.
         11    1    3    3    0    0  0.10967050076E+01 -0.11755343905E+02 -0.17230135724E+02  0.20887040229E+02  0.51100000000E-03 0. -1.
        -11    1    3    3    0    0 -0.15140556351E+01 -0.16824395715E+02 -0.10404176520E+02  0.19839343360E+02  0.51100000000E-03 0.  1.
        -12    1    3    3    0    0 -0.83423236682E+01  0.38439395860E+01 -0.34232546048E+01  0.98024949790E+01  0.00000000000E+00 0.  1.
</event>
<event>
 7    1  0.5839176E-013  0.5052889E+02  0.7816164E-02  0.1300439E+00
        -11   -1    0    0    0    0  0.00000000000E+00  0.00000000000E+00  0.45593999997E+02  0.45594000000E+02  0.51100000000E-03 0.  1.
         11   -1    0    0    0    0 -0.00000000000E+00 -0.00000000000E+00 -0.45593999997E+02  0.45594000000E+02  0.51100000000E-03 0. -1.
    9900012    2    1    2    0    0 -0.19130706957E+00 -0.38478600662E+02 -0.13134850174E+02  0.50528885445E+02  0.30000077800E+02 0.  0.
        -12    1    1    2    0    0  0.19130706957E+00  0.38478600662E+02  0.13134850174E+02  0.40659114555E+02  0.00000000000E+00 0.  1.
         11    1    3    3    0    0  0.66876432178E+00  0.34136285123E+00 -0.12032613703E+01  0.14183132590E+01  0.51100000000E-03 0. -1.
        -11    1    3    3    0    0  0.17970556527E+01 -0.10691196309E+00  0.60720814698E+01  0.63333255738E+01  0.51100000000E-03 0.  1.
         12    1    3    3    0    0 -0.26571270440E+01 -0.38713051550E+02 -0.18003670273E+02  0.42777246612E+02  0.00000000000E+00 0. -1.
</event>
<event>
 7    1  0.5839176E-013  0.5052887E+02  0.7816164E-02  0.1300439E+00
        -11   -1    0    0    0    0  0.00000000000E+00  0.00000000000E+00  0.45593999997E+02  0.45594000000E+02  0.51100000000E-03 0.  1.
         11   -1    0    0    0    0 -0.00000000000E+00 -0.00000000000E+00 -0.45593999997E+02  0.45594000000E+02  0.51100000000E-03 0. -1.
    9900012    2    1    2    0    0 -0.31021207652E+02 -0.26277505115E+02  0.58517405895E+00  0.50528867841E+02  0.30000024289E+02 0.  0.
        -12    1    1    2    0    0  0.31021207652E+02  0.26277505115E+02 -0.58517405895E+00  0.40659132159E+02  0.00000000000E+00 0.  1.
         11    1    3    3    0    0 -0.20443736553E+01 -0.53086705794E+01 -0.16732906397E+01  0.59297005649E+01  0.51100000000E-03 0. -1.
        -11    1    3    3    0    0  0.16855815456E+01  0.42724502549E+01 -0.11595489662E+01  0.47370423678E+01  0.51100000000E-03 0.  1.
         12    1    3    3    0    0 -0.30662415542E+02 -0.25241284791E+02  0.34180136648E+01  0.39862124908E+02  0.00000000000E+00 0. -1.
</event>
<event>
 7    1  0.5839176E-013  0.5052885E+02  0.7816164E-02  0.1300439E+00
        -11   -1    0    0    0    0  0.00000000000E+00  0.00000000000E+00  0.45593999997E+02  0.45594000000E+02  0.51100000000E-03 0. -1.
         11   -1    0    0    0    0 -0.00000000000E+00 -0.00000000000E+00 -0.45593999997E+02  0.45594000000E+02  0.51100000000E-03 0.  1.
    9900012    2    1    2    0    0  0.39418944549E+02 -0.67103831146E+01  0.73677904310E+01  0.50528846458E+02  0.29999959294E+02 0.  0.
        -12    1    1    2    0    0 -0.39418944549E+02  0.67103831146E+01 -0.73677904310E+01  0.40659153542E+02  0.00000000000E+00 0.  1.
         11    1    3    3    0    0  0.20153093566E+02 -0.12646444441E+02  0.35035424040E+01  0.24049003033E+02  0.51100000000E-03 0. -1.
        -11    1    3    3    0    0  0.10760020487E+01 -0.44535320318E+01 -0.15619073789E+01  0.48405870396E+01  0.51100000000E-03 0.  1.
         12    1    3    3    0    0  0.18189848935E+02  0.10389593358E+02  0.54261554058E+01  0.21639256385E+02  0.00000000000E+00 0. -1.
</event>
<event>
 7    1  0.5839176E-013  0.5052886E+02  0.7816164E-02  0.1300439E+00
        -11   -1    0    0    0    0  0.00000000000E+00  0.00000000000E+00  0.45593999997E+02  0.45594000000E+02  0.51100000000E-03 0. -1.
         11   -1    0    0    0    0 -0.00000000000E+00 -0.00000000000E+00 -0.45593999997E+02  0.45594000000E+02  0.51100000000E-03 0.  1.
    9900012    2    1    2    0    0 -0.24063706737E+02 -0.26707248518E+02  0.18995435753E+02  0.50528859763E+02  0.29999999737E+02 0.  0.
        -12    1    1    2    0    0  0.24063706737E+02  0.26707248518E+02 -0.18995435753E+02  0.40659140237E+02  0.00000000000E+00 0.  1.
         11    1    3    3    0    0 -0.14064582645E+01 -0.54271419004E+01  0.13655863087E+02  0.14761930462E+02  0.51100000000E-03 0. -1.
        -11    1    3    3    0    0  0.25514388024E+01 -0.24521111717E+01  0.21528419722E+01  0.41421513709E+01  0.51100000000E-03 0.  1.
        -12    1    3    3    0    0 -0.25208687275E+02 -0.18827995446E+02  0.31867306941E+01  0.31624777931E+02  0.00000000000E+00 0.  1.
</event>
<event>
 7    1  0.5839176E-013  0.5052887E+02  0.7816164E-02  0.1300439E+00
        -11   -1    0    0    0    0  0.00000000000E+00  0.00000000000E+00  0.45593999997E+02  0.45594000000E+02  0.51100000000E-03 0.  1.
         11   -1    0    0    0    0 -0.00000000000E+00 -0.00000000000E+00 -0.45593999997E+02  0.45594000000E+02  0.51100000000E-03 0. -1.
    9900012    2    1    2    0    0  0.80615505958E+01  0.39464255621E+02  0.55451909032E+01  0.50528865578E+02  0.30000017412E+02 0.  0.
        -12    1    1    2    0    0 -0.80615505958E+01 -0.39464255621E+02 -0.55451909032E+01  0.40659134422E+02  0.00000000000E+00 0.  1.
         11    1    3    3    0    0 -0.29433871175E+01  0.19024987340E+02  0.48902216360E+01  0.19862727379E+02  0.51100000000E-03 0. -1.
        -11    1    3    3    0    0 -0.53677811134E+01  0.70988310872E+01 -0.26582910771E+01  0.92883253926E+01  0.51100000000E-03 0.  1.
         12    1    3    3    0    0  0.16372718827E+02  0.13340437194E+02  0.33132603443E+01  0.21377812807E+02  0.00000000000E+00 0. -1.
</event>
<event>
 7    1  0.5839176E-013  0.5052889E+02  0.7816164E-02  0.1300439E+00
        -11   -1    0    0    0    0  0.00000000000E+00  0.00000000000E+00  0.45593999997E+02  0.45594000000E+02  0.51100000000E-03 0.  1.
         11   -1    0    0    0    0 -0.00000000000E+00 -0.00000000000E+00 -0.45593999997E+02  0.45594000000E+02  0.51100000000E-03 0. -1.
    9900012    2    1    2    0    0 -0.27402822332E+02  0.99655046648E+01 -0.28336151332E+02  0.50528887524E+02  0.30000084117E+02 0.  0.
        -12    1    1    2    0    0  0.27402822332E+02 -0.99655046648E+01  0.28336151332E+02  0.40659112476E+02  0.00000000000E+00 0.  1.
         11    1    3    3    0    0 -0.15275188380E+01 -0.47894682493E+01  0.18220970380E+00  0.50304592781E+01  0.51100000000E-03 0. -1.
        -11    1    3    3    0    0 -0.14294207330E+02  0.99742504817E+01 -0.27971097068E+02  0.32957431746E+02  0.51100000000E-03 0.  1.
         12    1    3    3    0    0 -0.11581096165E+02  0.47807224324E+01 -0.54726396821E+00  0.12540996499E+02  0.00000000000E+00 0. -1.
</event>
<event>
 7    1  0.5839176E-013  0.5052886E+02  0.7816164E-02  0.1300439E+00
        -11   -1    0    0    0    0  0.00000000000E+00  0.00000000000E+00  0.45593999997E+02  0.45594000000E+02  0.51100000000E-03 0.  1.
         11   -1    0    0    0    0 -0.00000000000E+00 -0.00000000000E+00 -0.45593999997E+02  0.45594000000E+02  0.51100000000E-03 0. -1.
    9900012    2    1    2    0    0 -0.19139722602E+02  0.34300768400E+02 -0.10502086425E+02  0.50528861871E+02  0.30000006143E+02 0.  0.
        -12    1    1    2    0    0  0.19139722602E+02 -0.34300768400E+02  0.10502086425E+02  0.40659138129E+02  0.00000000000E+00 0.  1.
         11    1    3    3    0    0 -0.12562844699E+02  0.24070668696E+02 -0.44093218800E+00  0.27155415295E+02  0.51100000000E-03 0. -1.
        -11    1    3    3    0    0 -0.25263943958E+01 -0.42347409451E+01  0.57982280184E+00  0.49650673971E+01  0.51100000000E-03 0.  1.
         12    1    3    3    0    0 -0.40504835077E+01  0.14464840649E+02 -0.10640977039E+02  0.18408379179E+02  0.00000000000E+00 0. -1.
</event>
<event>
 7    1  0.5839176E-013  0.5052885E+02  0.7816164E-02  0.1300439E+00
        -11   -1    0    0    0    0  0.00000000000E+00  0.00000000000E+00  0.45593999997E+02  0.45594000000E+02  0.51100000000E-03 0. -1.
         11   -1    0    0    0    0 -0.00000000000E+00 -0.00000000000E+00 -0.45593999997E+02  0.45594000000E+02  0.51100000000E-03 0.  1.
    9900012    2    1    2    0    0 -0.66256629811E+01 -0.12122871016E+02  0.38240075363E+02  0.50528846352E+02  0.29999958972E+02 0.  0.
        -12    1    1    2    0    0  0.66256629811E+01  0.12122871016E+02 -0.38240075363E+02  0.40659153648E+02  0.00000000000E+00 0.  1.
         11    1    3    3    0    0 -0.51481430674E+01  0.67236147040E+01  0.21684497486E+02  0.23279342843E+02  0.51100000000E-03 0. -1.
        -11    1    3    3    0    0 -0.55385625017E+00  0.12622151733E+01  0.19108123900E+01  0.23560874646E+01  0.51100000000E-03 0.  1.
        -12    1    3    3    0    0 -0.92366366356E+00 -0.20108700894E+02  0.14644765487E+02  0.24893416044E+02  0.00000000000E+00 0.  1.
</event>
<event>
 7    1  0.5839176E-013  0.5052885E+02  0.7816164E-02  0.1300439E+00
        -11   -1    0    0    0    0  0.00000000000E+00  0.00000000000E+00  0.45593999997E+02  0.45594000000E+02  0.51100000000E-03 0. -1.
         11   -1    0    0    0    0 -0.00000000000E+00 -0.00000000000E+00 -0.45593999997E+02  0.45594000000E+02  0.51100000000E-03 0.  1.
    9900012    2    1    2    0    0 -0.24251704404E+02 -0.32230821347E+02  0.51181117269E+01  0.50528854917E+02  0.29999985006E+02 0.  0.
        -12    1    1    2    0    0  0.24251704404E+02  0.32230821347E+02 -0.51181117269E+01  0.40659145083E+02  0.00000000000E+00 0.  1.
         11    1    3    3    0    0 -0.69346033365E+00 -0.35380617253E+01  0.54242798150E+01  0.65131850718E+01  0.51100000000E-03 0. -1.
        -11    1    3    3    0    0 -0.22589991270E+01 -0.19708866704E+02  0.46461929936E+01  0.20374729775E+02  0.51100000000E-03 0.  1.
        -12    1    3    3    0    0 -0.21299244943E+02 -0.89838929178E+01 -0.49523610816E+01  0.23640940070E+02  0.00000000000E+00 0.  1.
</event>
<event>
 7    1  0.5839176E-013  0.5052889E+02  0.7816164E-02  0.1300439E+00
        -11   -1    0    0    0    0  0.00000000000E+00  0.00000000000E+00  0.45593999997E+02  0.45594000000E+02  0.51100000000E-03 0.  1.
         11   -1    0    0    0    0 -0.00000000000E+00 -0.00000000000E+00 -0.45593999997E+02  0.45594000000E+02  0.51100000000E-03 0. -1.
    9900012    2    1    2    0    0 -0.56811167796E+01 -0.16146163733E+02 -0.36880748465E+02  0.50528889109E+02  0.30000088935E+02 0.  0.
        -12    1    1    2    0    0  0.56811167796E+01  0.16146163733E+02  0.36880748465E+02  0.40659110891E+02  0.00000000000E+00 0.  1.
         11    1    3    3    0    0 -0.31235119213E+00  0.75262166625E+01 -0.10382887985E+02  0.12827543167E+02  0.51100000000E-03 0. -1.
        -11    1    3    3    0    0 -0.40136120345E+00 -0.22205527711E+00  0.10731492061E+01  0.11670684819E+01  0.51100000000E-03 0.  1.
         12    1    3    3    0    0 -0.49674043840E+01 -0.23450325118E+02 -0.27571009686E+02  0.36534277460E+02  0.00000000000E+00 0. -1.
</event>
<event>
 7    1  0.5839176E-013  0.5052886E+02  0.7816164E-02  0.1300439E+00
        -11   -1    0    0    0    0  0.00000000000E+00  0.00000000000E+00  0.45593999997E+02  0.45594000000E+02  0.51100000000E-03 0. -1.
         11   -1    0    0    0    0 -0.00000000000E+00 -0.00000000000E+00 -0.45593999997E+02  0.45594000000E+02  0.51100000000E-03 0.  1.
    9900012    2    1    2    0    0  0.38801909977E+02 -0.47215799489E+00  0.12138969331E+02  0.50528859239E+02  0.29999998142E+02 0.  0.
        -12    1    1    2    0    0 -0.38801909977E+02  0.47215799489E+00 -0.12138969331E+02  0.40659140761E+02  0.00000000000E+00 0.  1.
         11    1    3    3    0    0  0.17666687285E+02  0.31797122318E+01  0.16809893031E+02  0.24592578423E+02  0.51100000000E-03 0. -1.
        -11    1    3    3    0    0 -0.71542820106E+00 -0.35219469830E+01 -0.11047387438E-01  0.35938934831E+01  0.51100000000E-03 0.  1.
        -12    1    3    3    0    0  0.21850650893E+02 -0.12992324370E+00 -0.46598763122E+01  0.22342387333E+02  0.00000000000E+00 0.  1.
</event>
<event>
 7    1  0.5839176E-013  0.5052885E+02  0.7816164E-02  0.1300439E+00
        -11   -1    0    0    0    0  0.00000000000E+00  0.00000000000E+00  0.45593999997E+02  0.45594000000E+02  0.51100000000E-03 0.  1.
         11   -1    0    0    0    0 -0.00000000000E+00 -0.00000000000E+00 -0.45593999997E+02  0.45594000000E+02  0.51100000000E-03 0. -1.
    9900012    2    1    2    0    0 -0.16126472275E+02  0.26732209825E+02  0.26047880413E+02  0.50528853131E+02  0.29999979576E+02 0.  0.
        -12    1    1    2    0    0  0.16126472275E+02 -0.26732209825E+02 -0.26047880413E+02  0.40659146869E+02  0.00000000000E+00 0.  1.
         11    1    3    3    0    0 -0.46240729374E+01  0.56675972074E+01 -0.16953930284E+01  0.75085329071E+01  0.51100000000E-03 0. -1.
        -11    1    3    3    0    0 -0.15460436879E+02  0.52089643036E+01  0.16360344231E+02  0.23104529453E+02  0.51100000000E-03 0.  1.
        -12    1    3    3    0    0  0.39580375413E+01  0.15855648314E+02  0.11382929210E+02  0.19915790771E+02  0.00000000000E+00 0.  1.
</event>
<event>
 7    1  0.5839176E-013  0.5052886E+02  0.7816164E-02  0.1300439E+00
        -11   -1    0    0    0    0  0.00000000000E+00  0.00000000000E+00  0.45593999997E+02  0.45594000000E+02  0.51100000000E-03 0.  1.
         11   -1    0    0    0    0 -0.00000000000E+00 -0.00000000000E+00 -0.45593999997E+02  0.45594000000E+02  0.51100000000E-03 0. -1.
    9900012    2    1    2    0    0 -0.23203477063E+02  0.97330957905E+01 -0.31937925857E+02  0.50528860689E+02  0.30000002550E+02 0.  0.
        -12    1    1    2    0    0  0.23203477063E+02 -0.97330957905E+01  0.31937925857E+02  0.40659139311E+02  0.00000000000E+00 0.  1.
         11    1    3    3    0    0 -0.18223070463E+02  0.51140178335E+01 -0.65068932718E+01  0.20014323266E+02  0.51100000000E-03 0. -1.
        -11    1    3    3    0    0 -0.93958378187E+01  0.13600926678E+01 -0.85943255296E+01  0.12806016240E+02  0.51100000000E-03 0.  1.
        -12    1    3    3    0    0  0.44154312191E+01  0.32589852891E+01 -0.16836707056E+02  0.17708521182E+02  0.00000000000E+00 0.  1.
</event>
<event>
 7    1  0.5839176E-013  0.5052884E+02  0.7816164E-02  0.1300439E+00
        -11   -1    0    0    0    0  0.00000000000E+00  0.00000000000E+00  0.45593999997E+02  0.45594000000E+02  0.51100000000E-03 0. -1.
         11   -1    0    0    0    0 -0.00000000000E+00 -0.00000000000E+00 -0.45593999997E+02  0.45594000000E+02  0.51100000000E-03 0.  1.
    9900012    2    1    2    0    0  0.21367784623E+01 -0.11708903268E+02  0.38878049489E+02  0.50528843959E+02  0.29999951698E+02 0.  0.
        -12    1    1    2    0    0 -0.21367784623E+01  0.11708903268E+02 -0.38878049489E+02  0.40659156041E+02  0.00000000000E+00 0.  1.
         11    1    3    3    0    0  0.21482676227E+01  0.72963599287E+00  0.29518760600E+02  0.29605821219E+02  0.51100000000E-03 0. -1.
        -11    1    3    3    0    0 -0.20832185506E+01  0.24389917728E+01  0.36358307541E+01  0.48484787234E+01  0.51100000000E-03 0.  1.
         12    1    3    3    0    0  0.20717293902E+01 -0.14877531033E+02  0.57234581348E+01  0.16074544016E+02  0.00000000000E+00 0. -1.
</event>
<event>
 7    1  0.5839176E-013  0.5052886E+02  0.7816164E-02  0.1300439E+00
        -11   -1    0    0    0    0  0.00000000000E+00  0.00000000000E+00  0.45593999997E+02  0.45594000000E+02  0.51100000000E-03 0.  1.
         11   -1    0    0    0    0 -0.00000000000E+00 -0.00000000000E+00 -0.45593999997E+02  0.45594000000E+02  0.51100000000E-03 0. -1.
    9900012    2    1    2    0    0  0.94434984148E+01 -0.39477473903E+02 -0.23484051119E+01  0.50528860626E+02  0.30000002359E+02 0.  0.
        -12    1    1    2    0    0 -0.94434984148E+01  0.39477473903E+02  0.23484051119E+01  0.40659139374E+02  0.00000000000E+00 0.  1.
         11    1    3    3    0    0 -0.10238590104E+01 -0.98980120701E+01 -0.11878518311E+02  0.15495745472E+02  0.51100000000E-03 0. -1.
        -11    1    3    3    0    0  0.20023499679E+00 -0.66006918180E+00 -0.21038215009E+01  0.22140123188E+01  0.51100000000E-03 0.  1.
        -12    1    3    3    0    0  0.10267122428E+02 -0.28919392651E+02  0.11633934700E+02  0.32819102835E+02  0.00000000000E+00 0.  1.
</event>
<event>
 7    1  0.5839176E-013  0.5052885E+02  0.7816164E-02  0.1300439E+00
        -11   -1    0    0    0    0  0.00000000000E+00  0.00000000000E+00  0.45593999997E+02  0.45594000000E+02  0.51100000000E-03 0.  1.
         11   -1    0    0    0    0 -0.00000000000E+00 -0.00000000000E+00 -0.45593999997E+02  0.45594000000E+02  0.51100000000E-03 0. -1.
    9900012    2    1    2    0    0 -0.25558243753E+01 -0.36797805313E+02  0.17104268302E+02  0.50528847178E+02  0.29999961481E+02 0.  0.
        -12    1    1    2    0    0  0.25558243753E+01  0.36797805313E+02 -0.17104268302E+02  0.40659152822E+02  0.00000000000E+00 0.  1.
         11    1    3    3    0    0  0.31013055428E+01  0.16337044312E+00 -0.97523908404E-01  0.31071364864E+01  0.51100000000E-03 0. -1.
        -11    1    3    3    0    0 -0.14334108150E+02 -0.27751796677E+02  0.96752306153E+01  0.32699219608E+02  0.51100000000E-03 0.  1.
         12    1    3    3    0    0  0.86769782318E+01 -0.92093790795E+01  0.75265615947E+01  0.14722491084E+02  0.00000000000E+00 0. -1.
</event>
<event>
 7    1  0.5839176E-013  0.5052886E+02  0.7816164E-02  0.1300439E+00
        -11   -1    0    0    0    0  0.00000000000E+00  0.00000000000E+00  0.45593999997E+02  0.45594000000E+02  0.51100000000E-03 0.  1.
         11   -1    0    0    0    0 -0.00000000000E+00 -0.00000000000E+00 -0.45593999997E+02  0.45594000000E+02  0.51100000000E-03 0. -1.
    9900012    2    1    2    0    0 -0.80551382317E+01  0.37516264063E+02 -0.13446578417E+02  0.50528858441E+02  0.29999995719E+02 0.  0.
        -12    1    1    2    0    0  0.80551382317E+01 -0.37516264063E+02  0.13446578417E+02  0.40659141559E+02  0.00000000000E+00 0.  1.
         11    1    3    3    0    0 -0.44481864589E+01  0.33923591108E+02 -0.19013395762E+00  0.34214507853E+02  0.51100000000E-03 0. -1.
        -11    1    3    3    0    0  0.10555817777E+01  0.13807940902E+01  0.34042953411E+00  0.17710837749E+01  0.51100000000E-03 0.  1.
        -12    1    3    3    0    0 -0.46625335505E+01  0.22118788648E+01 -0.13596873994E+02  0.14543266814E+02  0.00000000000E+00 0.  1.
</event>
<event>
 7    1  0.5839176E-013  0.5052886E+02  0.7816164E-02  0.1300439E+00
        -11   -1    0    0    0    0  0.00000000000E+00  0.00000000000E+00  0.45593999997E+02  0.45594000000E+02  0.51100000000E-03 0. -1.
         11   -1    0    0    0    0 -0.00000000000E+00 -0.00000000000E+00 -0.45593999997E+02  0.45594000000E+02  0.51100000000E-03 0.  1.
    9900012    2    1    2    0    0  0.34569930608E+02 -0.15755993351E+02  0.14485660068E+02  0.50528858637E+02  0.29999996314E+02 0.  0.
        -12    1    1    2    0    0 -0.34569930608E+02  0.15755993351E+02 -0.14485660068E+02  0.40659141363E+02  0.00000000000E+00 0.  1.
         11    1    3    3    0    0  0.74539392690E+01 -0.33794097008E+01  0.10465588545E+02  0.13285712793E+02  0.51100000000E-03 0. -1.
        -11    1    3    3    0    0  0.30310021213E+02 -0.77331929093E+01  0.23696779563E+01  0.31370607779E+02  0.51100000000E-03 0.  1.
        -12    1    3    3    0    0 -0.31940298740E+01 -0.46433907411E+01  0.16503935664E+01  0.58725380658E+01  0.00000000000E+00 0.  1.
</event>
<event>
 7    1  0.5839176E-013  0.5052883E+02  0.7816164E-02  0.1300439E+00
        -11   -1    0    0    0    0  0.00000000000E+00  0.00000000000E+00  0.45593999997E+02  0.45594000000E+02  0.51100000000E-03 0.  1.
         11   -1    0    0    0    0 -0.00000000000E+00 -0.00000000000E+00 -0.45593999997E+02  0.45594000000E+02  0.51100000000E-03 0. -1.
    9900012    2    1    2    0    0 -0.73486087765E+01 -0.39989568839E+02  0.95628244153E-02  0.50528834265E+02  0.29999922231E+02 0.  0.
        -12    1    1    2    0    0  0.73486087765E+01  0.39989568839E+02 -0.95628244153E-02  0.40659165735E+02  0.00000000000E+00 0.  1.
         11    1    3    3    0    0  0.52916139518E+00 -0.53397098869E+01 -0.78599111162E+00  0.54231260124E+01  0.51100000000E-03 0. -1.
        -11    1    3    3    0    0 -0.17691725813E+02 -0.15430396649E+02  0.14002405893E+01  0.23517120932E+02  0.51100000000E-03 0.  1.
        -12    1    3    3    0    0  0.98139556409E+01 -0.19219462302E+02 -0.60468665328E+00  0.21588587320E+02  0.00000000000E+00 0.  1.
</event>
<event>
 7    1  0.6250733E-013  0.5052886E+02  0.7816164E-02  0.1300439E+00
        -11   -1    0    0    0    0  0.00000000000E+00  0.00000000000E+00  0.45593999997E+02  0.45594000000E+02  0.51100000000E-03 0. -1.
         11   -1    0    0    0    0 -0.00000000000E+00 -0.00000000000E+00 -0.45593999997E+02  0.45594000000E+02  0.51100000000E-03 0.  1.
    9900012    2    1    2    0    0  0.17275936713E+02 -0.23354488023E+02  0.28447762627E+02  0.50528864512E+02  0.30000014171E+02 0.  0.
        -12    1    1    2    0    0 -0.17275936713E+02  0.23354488023E+02 -0.28447762627E+02  0.40659135488E+02  0.00000000000E+00 0.  1.
         11    1    3    3    0    0  0.18476622381E+02 -0.79337677523E+01  0.15852975540E+02  0.25605606399E+02  0.51100000000E-03 0. -1.
        -11    1    3    3    0    0  0.46337938358E+01 -0.33358740282E+01 -0.10273636027E+01  0.58013426961E+01  0.51100000000E-03 0.  1.
        -12    1    3    3    0    0 -0.58344795038E+01 -0.12084846243E+02  0.13622150690E+02  0.19121915417E+02  0.00000000000E+00 0.  1.
</event>
<event>
 7    1  0.5839176E-013  0.5052885E+02  0.7816164E-02  0.1300439E+00
        -11   -1    0    0    0    0  0.00000000000E+00  0.00000000000E+00  0.45593999997E+02  0.45594000000E+02  0.51100000000E-03 0. -1.
         11   -1    0    0    0    0 -0.00000000000E+00 -0.00000000000E+00 -0.45593999997E+02  0.45594000000E+02  0.51100000000E-03 0.  1.
    9900012    2    1    2    0    0  0.19339586370E+02  0.21895911932E+02  0.28279253434E+02  0.50528846848E+02  0.29999960479E+02 0.  0.
        -12    1    1    2    0    0 -0.19339586370E+02 -0.21895911932E+02 -0.28279253434E+02  0.40659153152E+02  0.00000000000E+00 0.  1.
         11    1    3    3    0    0  0.47619827545E+01  0.19293511435E+02  0.20906729886E+02  0.28844538790E+02  0.51100000000E-03 0. -1.
        -11    1    3    3    0    0  0.45249898683E+00 -0.44549049346E+01  0.65782000299E+00  0.45258878385E+01  0.51100000000E-03 0.  1.
        -12    1    3    3    0    0  0.14125104628E+02  0.70573054316E+01  0.67147035447E+01  0.17158420219E+02  0.00000000000E+00 0.  1.
</event>
<event>
 7    1  0.5839176E-013  0.5052886E+02  0.7816164E-02  0.1300439E+00
        -11   -1    0    0    0    0  0.00000000000E+00  0.00000000000E+00  0.45593999997E+02  0.45594000000E+02  0.51100000000E-03 0. -1.
         11   -1    0    0    0    0 -0.00000000000E+00 -0.00000000000E+00 -0.45593999997E+02  0.45594000000E+02  0.51100000000E-03 0.  1.
    9900012    2    1    2    0    0 -0.25232294671E+02 -0.95169259426E+01  0.30429017227E+02  0.50528860029E+02  0.30000000545E+02 0.  0.
        -12    1    1    2    0    0  0.25232294671E+02  0.95169259426E+01 -0.30429017227E+02  0.40659139971E+02  0.00000000000E+00 0.  1.
         11    1    3    3    0    0 -0.40693921028E+01 -0.71082250636E+01  0.18245893648E+02  0.19999986273E+02  0.51100000000E-03 0. -1.
        -11    1    3    3    0    0 -0.68020050148E+01  0.77530726445E+01  0.56676310559E+01  0.11768578916E+02  0.51100000000E-03 0.  1.
        -12    1    3    3    0    0 -0.14360897553E+02 -0.10161773524E+02  0.65154925227E+01  0.18760294840E+02  0.00000000000E+00 0.  1.
</event>
<event>
 7    1  0.5839176E-013  0.5052891E+02  0.7816164E-02  0.1300439E+00
        -11   -1    0    0    0    0  0.00000000000E+00  0.00000000000E+00  0.45593999997E+02  0.45594000000E+02  0.51100000000E-03 0.  1.
         11   -1    0    0    0    0 -0.00000000000E+00 -0.00000000000E+00 -0.45593999997E+02  0.45594000000E+02  0.51100000000E-03 0. -1.
    9900012    2    1    2    0    0  0.98640758162E+01 -0.30537016040E+02 -0.24967028355E+02  0.50528906980E+02  0.30000143256E+02 0.  0.
        -12    1    1    2    0    0 -0.98640758162E+01  0.30537016040E+02  0.24967028355E+02  0.40659093020E+02  0.00000000000E+00 0.  1.
         11    1    3    3    0    0  0.52798977557E+01 -0.73230926652E+00 -0.74441186915E+01  0.91557905463E+01  0.51100000000E-03 0. -1.
        -11    1    3    3    0    0  0.12168959232E+02 -0.85224342775E+01 -0.61560941741E+01  0.16081447402E+02  0.51100000000E-03 0.  1.
        -12    1    3    3    0    0 -0.75847811719E+01 -0.21282272496E+02 -0.11366815489E+02  0.25291669031E+02  0.00000000000E+00 0.  1.
</event>
<event>
 7    1  0.5839176E-013  0.5052885E+02  0.7816164E-02  0.1300439E+00
        -11   -1    0    0    0    0  0.00000000000E+00  0.00000000000E+00  0.45593999997E+02  0.45594000000E+02  0.51100000000E-03 0.  1.
         11   -1    0    0    0    0 -0.00000000000E+00 -0.00000000000E+00 -0.45593999997E+02  0.45594000000E+02  0.51100000000E-03 0. -1.
    9900012    2    1    2    0    0 -0.21111193239E+02 -0.31900747695E+02 -0.13777759237E+02  0.50528845643E+02  0.29999956815E+02 0.  0.
        -12    1    1    2    0    0  0.21111193239E+02  0.31900747695E+02  0.13777759237E+02  0.40659154357E+02  0.00000000000E+00 0.  1.
         11    1    3    3    0    0 -0.16092340348E+02 -0.91914938425E+01 -0.24211818368E+01  0.18689812698E+02  0.51100000000E-03 0. -1.
        -11    1    3    3    0    0 -0.93412445570E+01 -0.23351651205E+02 -0.11011288534E+02  0.27455544782E+02  0.51100000000E-03 0.  1.
        -12    1    3    3    0    0  0.43223916658E+01  0.64239735236E+00 -0.34528886612E+00  0.43834881626E+01  0.00000000000E+00 0.  1.
</event>
<event>
 7    1  0.5839176E-013  0.5052883E+02  0.7816164E-02  0.1300439E+00
        -11   -1    0    0    0    0  0.00000000000E+00  0.00000000000E+00  0.45593999997E+02  0.45594000000E+02  0.51100000000E-03 0.  1.
         11   -1    0    0    0    0 -0.00000000000E+00 -0.00000000000E+00 -0.45593999997E+02  0.45594000000E+02  0.51100000000E-03 0. -1.
    9900012    2    1    2    0    0  0.26798358435E+02  0.28877883669E+01 -0.30441364739E+02  0.50528831002E+02  0.29999912313E+02 0.  0.
        -12    1    1    2    0    0 -0.26798358435E+02 -0.28877883669E+01  0.30441364739E+02  0.40659168998E+02  0.00000000000E+00 0.  1.
         11    1    3    3    0    0  0.82437423450E+00 -0.57860463119E+01 -0.76086208172E+01  0.95942188740E+01  0.51100000000E-03 0. -1.
        -11    1    3    3    0    0  0.27306076477E+01 -0.30668417042E+01  0.23316559563E+01  0.47221135018E+01  0.51100000000E-03 0.  1.
         12    1    3    3    0    0  0.23243376553E+02  0.11740676383E+02 -0.25164399878E+02  0.36212498626E+02  0.00000000000E+00 0. -1.
</event>
<event>
 7    1  0.5839176E-013  0.5052883E+02  0.7816164E-02  0.1300439E+00
        -11   -1    0    0    0    0  0.00000000000E+00  0.00000000000E+00  0.45593999997E+02  0.45594000000E+02  0.51100000000E-03 0.  1.
         11   -1    0    0    0    0 -0.00000000000E+00 -0.00000000000E+00 -0.45593999997E+02  0.45594000000E+02  0.51100000000E-03 0. -1.
    9900012    2    1    2    0    0 -0.38472619420E+02  0.21492031893E+01 -0.12977157659E+02  0.50528829567E+02  0.29999907952E+02 0.  0.
        -12    1    1    2    0    0  0.38472619420E+02 -0.21492031893E+01  0.12977157659E+02  0.40659170433E+02  0.00000000000E+00 0.  1.
         11    1    3    3    0    0 -0.31084222427E+02 -0.94974156219E+01 -0.93127447644E+01  0.33810604885E+02  0.51100000000E-03 0. -1.
        -11    1    3    3    0    0 -0.77056491679E+01  0.50522928129E+01 -0.98502761822E-01  0.92147921746E+01  0.51100000000E-03 0.  1.
        -12    1    3    3    0    0  0.31725217493E+00  0.65943259984E+01 -0.35659101325E+01  0.75034325071E+01  0.00000000000E+00 0.  1.
</event>
<event>
 7    1  0.5839176E-013  0.5052883E+02  0.7816164E-02  0.1300439E+00
        -11   -1    0    0    0    0  0.00000000000E+00  0.00000000000E+00  0.45593999997E+02  0.45594000000E+02  0.51100000000E-03 0.  1.
         11   -1    0    0    0    0 -0.00000000000E+00 -0.00000000000E+00 -0.45593999997E+02  0.45594000000E+02  0.51100000000E-03 0. -1.
    9900012    2    1    2    0    0 -0.13038005177E+02 -0.18168193074E+02 -0.33957255683E+02  0.50528830898E+02  0.29999911997E+02 0.  0.
        -12    1    1    2    0    0  0.13038005177E+02  0.18168193074E+02  0.33957255683E+02  0.40659169102E+02  0.00000000000E+00 0.  1.
         11    1    3    3    0    0 -0.71071659051E+01 -0.98062508536E+01 -0.31096951088E+01  0.12503782105E+02  0.51100000000E-03 0. -1.
        -11    1    3    3    0    0  0.17697496647E+01 -0.12231591515E+00  0.23612994863E+01  0.29534235361E+01  0.51100000000E-03 0.  1.
        -12    1    3    3    0    0 -0.77005889363E+01 -0.82396263056E+01 -0.33208860060E+02  0.35071625256E+02  0.00000000000E+00 0.  1.
</event>
<event>
 7    1  0.5839176E-013  0.5052886E+02  0.7816164E-02  0.1300439E+00
        -11   -1    0    0    0    0  0.00000000000E+00  0.00000000000E+00  0.45593999997E+02  0.45594000000E+02  0.51100000000E-03 0.  1.
         11   -1    0    0    0    0 -0.00000000000E+00 -0.00000000000E+00 -0.45593999997E+02  0.45594000000E+02  0.51100000000E-03 0. -1.
    9900012    2    1    2    0    0  0.38133677811E+02 -0.88664305040E+01 -0.10971541577E+02  0.50528859603E+02  0.29999999248E+02 0.  0.
        -12    1    1    2    0    0 -0.38133677811E+02  0.88664305040E+01  0.10971541577E+02  0.40659140397E+02  0.00000000000E+00 0.  1.
         11    1    3    3    0    0  0.20315744877E+02  0.66796220022E+01 -0.15997784791E+01  0.21445422156E+02  0.51100000000E-03 0. -1.
        -11    1    3    3    0    0  0.93015985567E+00  0.70524354762E+00  0.25381870289E+01  0.27937357558E+01  0.51100000000E-03 0.  1.
         12    1    3    3    0    0  0.16887773078E+02 -0.16251296054E+02 -0.11909950126E+02  0.26289701691E+02  0.00000000000E+00 0. -1.
</event>
<event>
 7    1  0.5839176E-013  0.5052886E+02  0.7816164E-02  0.1300439E+00
        -11   -1    0    0    0    0  0.00000000000E+00  0.00000000000E+00  0.45593999997E+02  0.45594000000E+02  0.51100000000E-03 0.  1.
         11   -1    0    0    0    0 -0.00000000000E+00 -0.00000000000E+00 -0.45593999997E+02  0.45594000000E+02  0.51100000000E-03 0. -1.
    9900012    2    1    2    0    0 -0.19622198796E+02 -0.29225848115E+02  0.20346616588E+02  0.50528859697E+02  0.29999999535E+02 0.  0.
        -12    1    1    2    0    0  0.19622198796E+02  0.29225848115E+02 -0.20346616588E+02  0.40659140303E+02  0.00000000000E+00 0.  1.
         11    1    3    3    0    0 -0.95838384336E+01 -0.51571283314E+01 -0.21389098442E+01  0.11091477238E+02  0.51100000000E-03 0.  1.
        -11    1    3    3    0    0 -0.66818504505E+01  0.40235895508E+00  0.11368971617E+01  0.67898124855E+01  0.51100000000E-03 0. -1.
         12    1    3    3    0    0 -0.33565099116E+01 -0.24471078739E+02  0.21348629270E+02  0.32647569973E+02  0.00000000000E+00 0. -1.
</event>
<event>
 7    1  0.5839176E-013  0.5052884E+02  0.7816164E-02  0.1300439E+00
        -11   -1    0    0    0    0  0.00000000000E+00  0.00000000000E+00  0.45593999997E+02  0.45594000000E+02  0.51100000000E-03 0.  1.
         11   -1    0    0    0    0 -0.00000000000E+00 -0.00000000000E+00 -0.45593999997E+02  0.45594000000E+02  0.51100000000E-03 0. -1.
    9900012    2    1    2    0    0 -0.12206931262E+02 -0.55823037569E+01 -0.38379624985E+02  0.50528844818E+02  0.29999954310E+02 0.  0.
        -12    1    1    2    0    0  0.12206931262E+02  0.55823037569E+01  0.38379624985E+02  0.40659155182E+02  0.00000000000E+00 0.  1.
         11    1    3    3    0    0 -0.87030924539E+01  0.16168593566E+01 -0.36609670125E+01  0.95791822286E+01  0.51100000000E-03 0.  1.
        -11    1    3    3    0    0 -0.68798085522E+01 -0.21185097779E+01 -0.34062048878E+02  0.34814408273E+02  0.51100000000E-03 0. -1.
         12    1    3    3    0    0  0.33759697442E+01 -0.50806533356E+01 -0.65660909516E+00  0.61352543170E+01  0.00000000000E+00 0. -1.
</event>
<event>
 7    1  0.5839176E-013  0.5052885E+02  0.7816164E-02  0.1300439E+00
        -11   -1    0    0    0    0  0.00000000000E+00  0.00000000000E+00  0.45593999997E+02  0.45594000000E+02  0.51100000000E-03 0.  1.
         11   -1    0    0    0    0 -0.00000000000E+00 -0.00000000000E+00 -0.45593999997E+02  0.45594000000E+02  0.51100000000E-03 0. -1.
    9900012    2    1    2    0    0  0.19478572944E+02 -0.28672316033E+02 -0.21252053296E+02  0.50528852445E+02  0.29999977491E+02 0.  0.
        -12    1    1    2    0    0 -0.19478572944E+02  0.28672316033E+02  0.21252053296E+02  0.40659147555E+02  0.00000000000E+00 0.  1.
         11    1    3    3    0    0  0.44943506826E+00 -0.39833157971E+01  0.38665245039E+01  0.55694531707E+01  0.51100000000E-03 0. -1.
        -11    1    3    3    0    0  0.19081050297E+02 -0.12931257278E+02 -0.84266296571E+01  0.24542045206E+02  0.51100000000E-03 0.  1.
         12    1    3    3    0    0 -0.51912421346E-01 -0.11757742958E+02 -0.16691948143E+02  0.20417354068E+02  0.00000000000E+00 0. -1.
</event>
<event>
 7    1  0.5839176E-013  0.5052886E+02  0.7816164E-02  0.1300439E+00
        -11   -1    0    0    0    0  0.00000000000E+00  0.00000000000E+00  0.45593999997E+02  0.45594000000E+02  0.51100000000E-03 0.  1.
         11   -1    0    0    0    0 -0.00000000000E+00 -0.00000000000E+00 -0.45593999997E+02  0.45594000000E+02  0.51100000000E-03 0. -1.
    9900012    2    1    2    0    0  0.13104258899E+02 -0.27237082414E+02 -0.27195314667E+02  0.50528863271E+02  0.30000010397E+02 0.  0.
        -12    1    1    2    0    0 -0.13104258899E+02  0.27237082414E+02  0.27195314667E+02  0.40659136729E+02  0.00000000000E+00 0.  1.
         11    1    3    3    0    0  0.78485425503E+01 -0.62325001897E+01  0.99089662842E-01  0.10022649241E+02  0.51100000000E-03 0. -1.
        -11    1    3    3    0    0  0.67690725076E+01 -0.14242304013E+02 -0.40923066440E+01  0.16291425356E+02  0.51100000000E-03 0.  1.
         12    1    3    3    0    0 -0.15133561590E+01 -0.67622782118E+01 -0.23202097686E+02  0.24214788674E+02  0.00000000000E+00 0. -1.
</event>
<event>
 7    1  0.5839176E-013  0.5052885E+02  0.7816164E-02  0.1300439E+00
        -11   -1    0    0    0    0  0.00000000000E+00  0.00000000000E+00  0.45593999997E+02  0.45594000000E+02  0.51100000000E-03 0.  1.
         11   -1    0    0    0    0 -0.00000000000E+00 -0.00000000000E+00 -0.45593999997E+02  0.45594000000E+02  0.51100000000E-03 0. -1.
    9900012    2    1    2    0    0 -0.28998359237E+01  0.21400503310E+02 -0.34449608348E+02  0.50528854588E+02  0.29999984007E+02 0.  0.
        -12    1    1    2    0    0  0.28998359237E+01 -0.21400503310E+02  0.34449608348E+02  0.40659145412E+02  0.00000000000E+00 0.  1.
         11    1    3    3    0    0 -0.29537251155E+01 -0.34132036595E+00 -0.91455267024E+00  0.31108517319E+01  0.51100000000E-03 0.  1.
        -11    1    3    3    0    0 -0.63858476613E+01 -0.29912129000E+01 -0.12350846729E+02  0.14222159476E+02  0.51100000000E-03 0. -1.
         12    1    3    3    0    0  0.64397368531E+01  0.24733036576E+02 -0.21184208948E+02  0.33195843381E+02  0.00000000000E+00 0. -1.
</event>
<event>
 7    1  0.5839176E-013  0.5052887E+02  0.7816164E-02  0.1300439E+00
        -11   -1    0    0    0    0  0.00000000000E+00  0.00000000000E+00  0.45593999997E+02  0.45594000000E+02  0.51100000000E-03 0. -1.
         11   -1    0    0    0    0 -0.00000000000E+00 -0.00000000000E+00 -0.45593999997E+02  0.45594000000E+02  0.51100000000E-03 0.  1.
    9900012    2    1    2    0    0  0.39390070264E+02 -0.84527628628E+01  0.54898372810E+01  0.50528866355E+02  0.30000019771E+02 0.  0.
        -12    1    1    2    0    0 -0.39390070264E+02  0.84527628628E+01 -0.54898372810E+01  0.40659133645E+02  0.00000000000E+00 0.  1.
         11    1    3    3    0    0  0.13507682586E+02 -0.98298981169E+01  0.21654280056E+01  0.16845577002E+02  0.51100000000E-03 0. -1.
        -11    1    3    3    0    0  0.26840358695E+02 -0.25401824895E+00  0.85141457770E+01  0.28159546493E+02  0.51100000000E-03 0.  1.
        -12    1    3    3    0    0 -0.95797101632E+00  0.16311535031E+01 -0.51897365016E+01  0.55237428592E+01  0.00000000000E+00 0.  1.
</event>
<event>
 7    1  0.5839176E-013  0.5052886E+02  0.7816164E-02  0.1300439E+00
        -11   -1    0    0    0    0  0.00000000000E+00  0.00000000000E+00  0.45593999997E+02  0.45594000000E+02  0.51100000000E-03 0.  1.
         11   -1    0    0    0    0 -0.00000000000E+00 -0.00000000000E+00 -0.45593999997E+02  0.45594000000E+02  0.51100000000E-03 0. -1.
    9900012    2    1    2    0    0  0.29563143602E+02 -0.12776433519E+02  0.24818319217E+02  0.50528859799E+02  0.29999999846E+02 0.  0.
        -12    1    1    2    0    0 -0.29563143602E+02  0.12776433519E+02 -0.24818319217E+02  0.40659140201E+02  0.00000000000E+00 0.  1.
         11    1    3    3    0    0  0.32432019380E+01 -0.54241185845E+01  0.10987234643E+02  0.12675123139E+02  0.51100000000E-03 0. -1.
        -11    1    3    3    0    0  0.15423195367E+01 -0.42482423236E+01  0.11991315481E+02  0.12814755543E+02  0.51100000000E-03 0.  1.
         12    1    3    3    0    0  0.24777622128E+02 -0.31040726109E+01  0.18397690924E+01  0.25038981117E+02  0.00000000000E+00 0. -1.
</event>
<event>
 7    1  0.5839176E-013  0.5052885E+02  0.7816164E-02  0.1300439E+00
        -11   -1    0    0    0    0  0.00000000000E+00  0.00000000000E+00  0.45593999997E+02  0.45594000000E+02  0.51100000000E-03 0. -1.
         11   -1    0    0    0    0 -0.00000000000E+00 -0.00000000000E+00 -0.45593999997E+02  0.45594000000E+02  0.51100000000E-03 0.  1.
    9900012    2    1    2    0    0  0.33609690133E+02  0.19028590976E+02  0.12707008481E+02  0.50528848386E+02  0.29999965155E+02 0.  0.
        -12    1    1    2    0    0 -0.33609690133E+02 -0.19028590976E+02 -0.12707008481E+02  0.40659151614E+02  0.00000000000E+00 0.  1.
         11    1    3    3    0    0  0.85649199089E+01  0.11699861480E+02  0.15609255632E+02  0.21304775834E+02  0.51100000000E-03 0. -1.
        -11    1    3    3    0    0 -0.14127409029E+01 -0.46308286065E+00 -0.33389871517E+00  0.15237359376E+01  0.51100000000E-03 0.  1.
        -12    1    3    3    0    0  0.26457511127E+02  0.77918123572E+01 -0.25683484362E+01  0.27700336614E+02  0.00000000000E+00 0.  1.
</event>
<event>
 7    1  0.5839176E-013  0.5052886E+02  0.7816164E-02  0.1300439E+00
        -11   -1    0    0    0    0  0.00000000000E+00  0.00000000000E+00  0.45593999997E+02  0.45594000000E+02  0.51100000000E-03 0. -1.
         11   -1    0    0    0    0 -0.00000000000E+00 -0.00000000000E+00 -0.45593999997E+02  0.45594000000E+02  0.51100000000E-03 0.  1.
    9900012    2    1    2    0    0  0.39661668615E+02  0.19922699645E+01 -0.87263038025E+01  0.50528862343E+02  0.30000007579E+02 0.  0.
        -12    1    1    2    0    0 -0.39661668615E+02 -0.19922699645E+01  0.87263038025E+01  0.40659137657E+02  0.00000000000E+00 0.  1.
         11    1    3    3    0    0  0.22003587989E+02  0.76728401170E+01 -0.10552284394E+01  0.23326891503E+02  0.51100000000E-03 0. -1.
        -11    1    3    3    0    0 -0.10471422100E+00  0.51963359108E+01 -0.73561696621E+00  0.52491908469E+01  0.51100000000E-03 0.  1.
        -12    1    3    3    0    0  0.17762794846E+02 -0.10876906063E+02 -0.69354583969E+01  0.21952779993E+02  0.00000000000E+00 0.  1.
</event>
<event>
 7    1  0.5839176E-013  0.5052900E+02  0.7816164E-02  0.1300438E+00
        -11   -1    0    0    0    0  0.00000000000E+00  0.00000000000E+00  0.45593999997E+02  0.45594000000E+02  0.51100000000E-03 0. -1.
         11   -1    0    0    0    0 -0.00000000000E+00 -0.00000000000E+00 -0.45593999997E+02  0.45594000000E+02  0.51100000000E-03 0.  1.
    9900012    2    1    2    0    0  0.32044296018E+02 -0.58624074325E+01  0.24330005440E+02  0.50529004773E+02  0.30000440505E+02 0.  0.
        -12    1    1    2    0    0 -0.32044296018E+02  0.58624074325E+01 -0.24330005440E+02  0.40658995227E+02  0.00000000000E+00 0.  1.
         11    1    3    3    0    0  0.92864058529E+01 -0.33782044796E+01  0.73896848950E+01  0.12339248044E+02  0.51100000000E-03 0. -1.
        -11    1    3    3    0    0  0.12726080353E+02 -0.93396161689E+01  0.20174476591E+02  0.25616226445E+02  0.51100000000E-03 0.  1.
        -12    1    3    3    0    0  0.10031809812E+02  0.68554132160E+01 -0.32341560463E+01  0.12573530284E+02  0.00000000000E+00 0.  1.
</event>
<event>
 7    1  0.6589668E-013  0.5052886E+02  0.7816164E-02  0.1300439E+00
        -11   -1    0    0    0    0  0.00000000000E+00  0.00000000000E+00  0.45593999997E+02  0.45594000000E+02  0.51100000000E-03 0.  1.
         11   -1    0    0    0    0 -0.00000000000E+00 -0.00000000000E+00 -0.45593999997E+02  0.45594000000E+02  0.51100000000E-03 0. -1.
    9900012    2    1    2    0    0 -0.50801734086E+01 -0.36504586937E+02  0.17168944981E+02  0.50528859563E+02  0.29999999129E+02 0.  0.
        -12    1    1    2    0    0  0.50801734086E+01  0.36504586937E+02 -0.17168944981E+02  0.40659140437E+02  0.00000000000E+00 0.  1.
         11    1    3    3    0    0 -0.10043596501E+02 -0.28384681126E+02  0.77658215546E+01  0.31094564444E+02  0.51100000000E-03 0. -1.
        -11    1    3    3    0    0 -0.28560469428E+01  0.21626777324E+01  0.22850753180E+00  0.35897625363E+01  0.51100000000E-03 0.  1.
        -12    1    3    3    0    0  0.78194700350E+01 -0.10282583543E+02  0.91746158949E+01  0.15844532583E+02  0.00000000000E+00 0.  1.
</event>
<event>
 7    1  0.5839176E-013  0.5052885E+02  0.7816164E-02  0.1300439E+00
        -11   -1    0    0    0    0  0.00000000000E+00  0.00000000000E+00  0.45593999997E+02  0.45594000000E+02  0.51100000000E-03 0.  1.
         11   -1    0    0    0    0 -0.00000000000E+00 -0.00000000000E+00 -0.45593999997E+02  0.45594000000E+02  0.51100000000E-03 0. -1.
    9900012    2    1    2    0    0  0.36486442590E+02 -0.16780588269E+02 -0.63496285916E+01  0.50528850737E+02  0.29999972299E+02 0.  0.
        -12    1    1    2    0    0 -0.36486442590E+02  0.16780588269E+02  0.63496285916E+01  0.40659149263E+02  0.00000000000E+00 0.  1.
         11    1    3    3    0    0  0.29935018750E+01  0.27590487866E+01  0.10335541787E+01  0.42001950174E+01  0.51100000000E-03 0. -1.
        -11    1    3    3    0    0  0.98702726199E+01  0.54767499811E+01 -0.97577429040E+00  0.11330013578E+02  0.51100000000E-03 0.  1.
         12    1    3    3    0    0  0.23622668096E+02 -0.25016387037E+02 -0.64074084800E+01  0.34998642142E+02  0.00000000000E+00 0. -1.
</event>
<event>
 7    1  0.5839176E-013  0.5052885E+02  0.7816164E-02  0.1300439E+00
        -11   -1    0    0    0    0  0.00000000000E+00  0.00000000000E+00  0.45593999997E+02  0.45594000000E+02  0.51100000000E-03 0.  1.
         11   -1    0    0    0    0 -0.00000000000E+00 -0.00000000000E+00 -0.45593999997E+02  0.45594000000E+02  0.51100000000E-03 0. -1.
    9900012    2    1    2    0    0  0.19288679303E+02 -0.17895181834E+02 -0.30998000862E+02  0.50528846792E+02  0.29999960310E+02 0.  0.
        -12    1    1    2    0    0 -0.19288679303E+02  0.17895181834E+02  0.30998000862E+02  0.40659153208E+02  0.00000000000E+00 0.  1.
         11    1    3    3    0    0  0.35934033834E+01 -0.15361436476E+02 -0.52609398866E+01  0.16630206470E+02  0.51100000000E-03 0. -1.
        -11    1    3    3    0    0  0.35780695246E+01 -0.43607499033E+01 -0.28236998408E+00  0.56478716621E+01  0.51100000000E-03 0.  1.
        -12    1    3    3    0    0  0.12117206395E+02  0.18270045452E+01 -0.25454690991E+02  0.28250768660E+02  0.00000000000E+00 0.  1.
</event>
<event>
 7    1  0.5839176E-013  0.5052895E+02  0.7816164E-02  0.1300438E+00
        -11   -1    0    0    0    0  0.00000000000E+00  0.00000000000E+00  0.45593999997E+02  0.45594000000E+02  0.51100000000E-03 0.  1.
         11   -1    0    0    0    0 -0.00000000000E+00 -0.00000000000E+00 -0.45593999997E+02  0.45594000000E+02  0.51100000000E-03 0. -1.
    9900012    2    1    2    0    0  0.12861630335E+02  0.38318567145E+02 -0.44073158193E+01  0.50528947433E+02  0.30000266216E+02 0.  0.
        -12    1    1    2    0    0 -0.12861630335E+02 -0.38318567145E+02  0.44073158193E+01  0.40659052567E+02  0.00000000000E+00 0.  1.
         11    1    3    3    0    0  0.12111811362E+02  0.13321358350E+02  0.68847007244E+01  0.19275727407E+02  0.51100000000E-03 0.  1.
        -11    1    3    3    0    0  0.71154937658E+01  0.19281287988E+02 -0.72767483491E+01  0.21802508681E+02  0.51100000000E-03 0. -1.
        -12    1    3    3    0    0 -0.63656747926E+01  0.57159208073E+01 -0.40152681946E+01  0.94507113444E+01  0.00000000000E+00 0.  1.
</event>
<event>
 7    1  0.5839176E-013  0.5052887E+02  0.7816164E-02  0.1300439E+00
        -11   -1    0    0    0    0  0.00000000000E+00  0.00000000000E+00  0.45593999997E+02  0.45594000000E+02  0.51100000000E-03 0.  1.
         11   -1    0    0    0    0 -0.00000000000E+00 -0.00000000000E+00 -0.45593999997E+02  0.45594000000E+02  0.51100000000E-03 0. -1.
    9900012    2    1    2    0    0  0.27632381487E+02 -0.13093827497E+02 -0.26798656710E+02  0.50528870316E+02  0.30000031814E+02 0.  0.
        -12    1    1    2    0    0 -0.27632381487E+02  0.13093827497E+02  0.26798656710E+02  0.40659129684E+02  0.00000000000E+00 0.  1.
         11    1    3    3    0    0  0.81431930528E+01  0.19378199783E+01 -0.13467452822E+01  0.84782346323E+01  0.51100000000E-03 0. -1.
        -11    1    3    3    0    0  0.10235105076E+02 -0.36642840842E+01  0.18835060853E+01  0.11033220256E+02  0.51100000000E-03 0.  1.
         12    1    3    3    0    0  0.92540833579E+01 -0.11367363391E+02 -0.27335417513E+02  0.31017415429E+02  0.00000000000E+00 0. -1.
</event>
<event>
 7    1  0.5839176E-013  0.5052885E+02  0.7816164E-02  0.1300439E+00
        -11   -1    0    0    0    0  0.00000000000E+00  0.00000000000E+00  0.45593999997E+02  0.45594000000E+02  0.51100000000E-03 0.  1.
         11   -1    0    0    0    0 -0.00000000000E+00 -0.00000000000E+00 -0.45593999997E+02  0.45594000000E+02  0.51100000000E-03 0. -1.
    9900012    2    1    2    0    0  0.11244506527E+02 -0.12371927549E+02 -0.37062954553E+02  0.50528854430E+02  0.29999983525E+02 0.  0.
        -12    1    1    2    0    0 -0.11244506527E+02  0.12371927549E+02  0.37062954553E+02  0.40659145570E+02  0.00000000000E+00 0.  1.
         11    1    3    3    0    0  0.48315972926E+01 -0.21082367354E+01 -0.17570582513E+02  0.18344327860E+02  0.51100000000E-03 0. -1.
        -11    1    3    3    0    0  0.26509189901E+01  0.61273073056E+01 -0.32312168941E+00  0.66839864001E+01  0.51100000000E-03 0.  1.
        -12    1    3    3    0    0  0.37619902444E+01 -0.16390998119E+02 -0.19169250350E+02  0.25500540169E+02  0.00000000000E+00 0.  1.
</event>
<event>
 7    1  0.5839176E-013  0.5052885E+02  0.7816164E-02  0.1300439E+00
        -11   -1    0    0    0    0  0.00000000000E+00  0.00000000000E+00  0.45593999997E+02  0.45594000000E+02  0.51100000000E-03 0.  1.
         11   -1    0    0    0    0 -0.00000000000E+00 -0.00000000000E+00 -0.45593999997E+02  0.45594000000E+02  0.51100000000E-03 0. -1.
    9900012    2    1    2    0    0  0.32126546956E+02  0.22972699531E+02 -0.96595290160E+01  0.50528850428E+02  0.29999971362E+02 0.  0.
        -12    1    1    2    0    0 -0.32126546956E+02 -0.22972699531E+02  0.96595290160E+01  0.40659149572E+02  0.00000000000E+00 0.  1.
         11    1    3    3    0    0  0.17108148688E+01  0.10388669485E+01 -0.84213755332E+01  0.86559631575E+01  0.51100000000E-03 0. -1.
        -11    1    3    3    0    0  0.47830726132E+01 -0.33376668337E+01 -0.68981226346E+00  0.58731290413E+01  0.51100000000E-03 0.  1.
        -12    1    3    3    0    0  0.25632659474E+02  0.25271499417E+02 -0.54834121939E+00  0.35999758229E+02  0.00000000000E+00 0.  1.
</event>
<event>
 7    1  0.5839176E-013  0.5052886E+02  0.7816164E-02  0.1300439E+00
        -11   -1    0    0    0    0  0.00000000000E+00  0.00000000000E+00  0.45593999997E+02  0.45594000000E+02  0.51100000000E-03 0. -1.
         11   -1    0    0    0    0 -0.00000000000E+00 -0.00000000000E+00 -0.45593999997E+02  0.45594000000E+02  0.51100000000E-03 0.  1.
    9900012    2    1    2    0    0  0.38234768976E+02  0.76246724066E+01  0.11538309491E+02  0.50528858668E+02  0.29999996406E+02 0.  0.
        -12    1    1    2    0    0 -0.38234768976E+02 -0.76246724066E+01 -0.11538309491E+02  0.40659141332E+02  0.00000000000E+00 0.  1.
         11    1    3    3    0    0  0.80584372475E+01 -0.45101205399E+00 -0.26526057818E+01  0.84957719154E+01  0.51100000000E-03 0. -1.
        -11    1    3    3    0    0  0.47368344766E+01 -0.33204790070E+01 -0.54384711845E+01  0.79397827918E+01  0.51100000000E-03 0.  1.
         12    1    3    3    0    0  0.25439497252E+02  0.11396163468E+02  0.19629386458E+02  0.34093303960E+02  0.00000000000E+00 0. -1.
</event>
<event>
 7    1  0.5839176E-013  0.5052886E+02  0.7816164E-02  0.1300439E+00
        -11   -1    0    0    0    0  0.00000000000E+00  0.00000000000E+00  0.45593999997E+02  0.45594000000E+02  0.51100000000E-03 0.  1.
         11   -1    0    0    0    0 -0.00000000000E+00 -0.00000000000E+00 -0.45593999997E+02  0.45594000000E+02  0.51100000000E-03 0. -1.
    9900012    2    1    2    0    0  0.10698801912E+02  0.22746103823E+00 -0.39225628162E+02  0.50528855819E+02  0.29999987746E+02 0.  0.
        -12    1    1    2    0    0 -0.10698801912E+02 -0.22746103823E+00  0.39225628162E+02  0.40659144181E+02  0.00000000000E+00 0.  1.
         11    1    3    3    0    0 -0.59523428000E+01  0.23755971272E+01 -0.77849746399E+01  0.10083634113E+02  0.51100000000E-03 0. -1.
        -11    1    3    3    0    0 -0.41900149435E+01 -0.17525579688E+01 -0.46445178515E+01  0.64960935180E+01  0.51100000000E-03 0.  1.
        -12    1    3    3    0    0  0.20841159656E+02 -0.39557812015E+00 -0.26796135670E+02  0.33949128188E+02  0.00000000000E+00 0.  1.
</event>
<event>
 7    1  0.5839176E-013  0.5052886E+02  0.7816164E-02  0.1300439E+00
        -11   -1    0    0    0    0  0.00000000000E+00  0.00000000000E+00  0.45593999997E+02  0.45594000000E+02  0.51100000000E-03 0. -1.
         11   -1    0    0    0    0 -0.00000000000E+00 -0.00000000000E+00 -0.45593999997E+02  0.45594000000E+02  0.51100000000E-03 0.  1.
    9900012    2    1    2    0    0 -0.93865403581E+01 -0.33322341192E+02  0.21323234513E+02  0.50528857209E+02  0.29999991972E+02 0.  0.
        -12    1    1    2    0    0  0.93865403581E+01  0.33322341192E+02 -0.21323234513E+02  0.40659142791E+02  0.00000000000E+00 0.  1.
         11    1    3    3    0    0 -0.10672206551E+02 -0.20082337302E+02  0.12655772142E+02  0.26026233553E+02  0.51100000000E-03 0. -1.
        -11    1    3    3    0    0 -0.86946580079E+01 -0.65088769073E+01  0.36094133862E+01  0.11445104706E+02  0.51100000000E-03 0.  1.
         12    1    3    3    0    0  0.99803242006E+01 -0.67311269820E+01  0.50580489846E+01  0.13057518950E+02  0.00000000000E+00 0. -1.
</event>
<event>
 7    1  0.5839176E-013  0.5052886E+02  0.7816164E-02  0.1300439E+00
        -11   -1    0    0    0    0  0.00000000000E+00  0.00000000000E+00  0.45593999997E+02  0.45594000000E+02  0.51100000000E-03 0.  1.
         11   -1    0    0    0    0 -0.00000000000E+00 -0.00000000000E+00 -0.45593999997E+02  0.45594000000E+02  0.51100000000E-03 0. -1.
    9900012    2    1    2    0    0 -0.43658591089E+01  0.31434369251E+02 -0.25416250195E+02  0.50528855027E+02  0.29999985341E+02 0.  0.
        -12    1    1    2    0    0  0.43658591089E+01 -0.31434369251E+02  0.25416250195E+02  0.40659144973E+02  0.00000000000E+00 0.  1.
         11    1    3    3    0    0 -0.11128915535E+02  0.92888897426E+01 -0.12830732500E+02  0.19358820480E+02  0.51100000000E-03 0. -1.
        -11    1    3    3    0    0 -0.50535487255E+01  0.74735602993E+01 -0.72961287486E+01  0.11602842464E+02  0.51100000000E-03 0.  1.
        -12    1    3    3    0    0  0.11816605152E+02  0.14671919209E+02 -0.52893889464E+01  0.19567192083E+02  0.00000000000E+00 0.  1.
</event>
<event>
 7    1  0.5839176E-013  0.5052886E+02  0.7816164E-02  0.1300439E+00
        -11   -1    0    0    0    0  0.00000000000E+00  0.00000000000E+00  0.45593999997E+02  0.45594000000E+02  0.51100000000E-03 0.  1.
         11   -1    0    0    0    0 -0.00000000000E+00 -0.00000000000E+00 -0.45593999997E+02  0.45594000000E+02  0.51100000000E-03 0. -1.
    9900012    2    1    2    0    0  0.29830953945E+02  0.31633352823E+01 -0.27445820869E+02  0.50528860971E+02  0.30000003408E+02 0.  0.
        -12    1    1    2    0    0 -0.29830953945E+02 -0.31633352823E+01  0.27445820869E+02  0.40659139029E+02  0.00000000000E+00 0.  1.
         11    1    3    3    0    0  0.14926023619E+01 -0.20470138722E+01 -0.16039245109E+01  0.29984498831E+01  0.51100000000E-03 0. -1.
        -11    1    3    3    0    0  0.32578101945E+02  0.35946159908E+01 -0.15539134548E+02  0.36272836851E+02  0.51100000000E-03 0.  1.
        -12    1    3    3    0    0 -0.42397503615E+01  0.16157331637E+01 -0.10302761810E+02  0.11257574237E+02  0.00000000000E+00 0.  1.
</event>
<event>
 7    1  0.5839176E-013  0.5052887E+02  0.7816164E-02  0.1300439E+00
        -11   -1    0    0    0    0  0.00000000000E+00  0.00000000000E+00  0.45593999997E+02  0.45594000000E+02  0.51100000000E-03 0. -1.
         11   -1    0    0    0    0 -0.00000000000E+00 -0.00000000000E+00 -0.45593999997E+02  0.45594000000E+02  0.51100000000E-03 0.  1.
    9900012    2    1    2    0    0  0.21887313880E+02 -0.21640712119E+02  0.26566706932E+02  0.50528870065E+02  0.30000031048E+02 0.  0.
        -12    1    1    2    0    0 -0.21887313880E+02  0.21640712119E+02 -0.26566706932E+02  0.40659129935E+02  0.00000000000E+00 0.  1.
         11    1    3    3    0    0  0.12242791262E+02 -0.95987717061E+01  0.12254571413E+02  0.19803961142E+02  0.51100000000E-03 0. -1.
        -11    1    3    3    0    0  0.11303919577E+02 -0.16146089778E+02  0.48790158565E+01  0.20304669633E+02  0.51100000000E-03 0.  1.
         12    1    3    3    0    0 -0.16593969587E+01  0.41041493653E+01  0.94331196623E+01  0.10420239289E+02  0.00000000000E+00 0. -1.
</event>
<event>
 7    1  0.5839176E-013  0.5052886E+02  0.7816164E-02  0.1300439E+00
        -11   -1    0    0    0    0  0.00000000000E+00  0.00000000000E+00  0.45593999997E+02  0.45594000000E+02  0.51100000000E-03 0. -1.
         11   -1    0    0    0    0 -0.00000000000E+00 -0.00000000000E+00 -0.45593999997E+02  0.45594000000E+02  0.51100000000E-03 0.  1.
    9900012    2    1    2    0    0  0.34175933374E+02 -0.20103806342E+02  0.90004739522E+01  0.50528856099E+02  0.29999988597E+02 0.  0.
        -12    1    1    2    0    0 -0.34175933374E+02  0.20103806342E+02 -0.90004739522E+01  0.40659143901E+02  0.00000000000E+00 0.  1.
         11    1    3    3    0    0  0.39816030949E+01 -0.87132905741E+01  0.96591385661E+01  0.13604174136E+02  0.51100000000E-03 0. -1.
        -11    1    3    3    0    0  0.10966265601E+02  0.45897483631E+01  0.47207737034E+00  0.11897379063E+02  0.51100000000E-03 0.  1.
        -12    1    3    3    0    0  0.19228064679E+02 -0.15980264131E+02 -0.11307419842E+01  0.25027302899E+02  0.00000000000E+00 0.  1.
</event>
<event>
 7    1  0.5839176E-013  0.5052890E+02  0.7816164E-02  0.1300439E+00
        -11   -1    0    0    0    0  0.00000000000E+00  0.00000000000E+00  0.45593999997E+02  0.45594000000E+02  0.51100000000E-03 0. -1.
         11   -1    0    0    0    0 -0.00000000000E+00 -0.00000000000E+00 -0.45593999997E+02  0.45594000000E+02  0.51100000000E-03 0.  1.
    9900012    2    1    2    0    0  0.29781106325E+02  0.27164285780E+02  0.53244368035E+01  0.50528900856E+02  0.30000124642E+02 0.  0.
        -12    1    1    2    0    0 -0.29781106325E+02 -0.27164285780E+02 -0.53244368035E+01  0.40659099144E+02  0.00000000000E+00 0.  1.
         11    1    3    3    0    0  0.38902114679E+01 -0.36184917582E+01  0.60200385291E+01  0.80292024524E+01  0.51100000000E-03 0. -1.
        -11    1    3    3    0    0  0.68737855579E+00  0.16097993021E+01  0.33054713210E+01  0.37403320691E+01  0.51100000000E-03 0.  1.
         12    1    3    3    0    0  0.25203516302E+02  0.29172978236E+02 -0.40010730466E+01  0.38759366335E+02  0.00000000000E+00 0. -1.
</event>
<event>
 7    1  0.5839176E-013  0.5052886E+02  0.7816164E-02  0.1300439E+00
        -11   -1    0    0    0    0  0.00000000000E+00  0.00000000000E+00  0.45593999997E+02  0.45594000000E+02  0.51100000000E-03 0. -1.
         11   -1    0    0    0    0 -0.00000000000E+00 -0.00000000000E+00 -0.45593999997E+02  0.45594000000E+02  0.51100000000E-03 0.  1.
    9900012    2    1    2    0    0 -0.25902073999E+02 -0.83428305617E+01  0.30210022006E+02  0.50528859714E+02  0.29999999585E+02 0.  0.
        -12    1    1    2    0    0  0.25902073999E+02  0.83428305617E+01 -0.30210022006E+02  0.40659140286E+02  0.00000000000E+00 0.  1.
         11    1    3    3    0    0 -0.57645311970E+01  0.38809221484E+00  0.23849675721E+02  0.24539508303E+02  0.51100000000E-03 0. -1.
        -11    1    3    3    0    0  0.15737410249E+01 -0.16723242640E+01  0.11684379962E+01  0.25765435897E+01  0.51100000000E-03 0.  1.
         12    1    3    3    0    0 -0.21711283827E+02 -0.70585985126E+01  0.51919082884E+01  0.23412807821E+02  0.00000000000E+00 0. -1.
</event>
<event>
 7    1  0.5839176E-013  0.5052886E+02  0.7816164E-02  0.1300439E+00
        -11   -1    0    0    0    0  0.00000000000E+00  0.00000000000E+00  0.45593999997E+02  0.45594000000E+02  0.51100000000E-03 0.  1.
         11   -1    0    0    0    0 -0.00000000000E+00 -0.00000000000E+00 -0.45593999997E+02  0.45594000000E+02  0.51100000000E-03 0. -1.
    9900012    2    1    2    0    0 -0.16004441338E+01 -0.43141509173E+01 -0.40397928297E+02  0.50528856745E+02  0.29999990561E+02 0.  0.
        -12    1    1    2    0    0  0.16004441338E+01  0.43141509173E+01  0.40397928297E+02  0.40659143255E+02  0.00000000000E+00 0.  1.
         11    1    3    3    0    0 -0.24367530043E+01 -0.15331718135E+02 -0.14483746932E+02  0.21231539549E+02  0.51100000000E-03 0. -1.
        -11    1    3    3    0    0  0.61914985781E+00 -0.21157135231E+00  0.34314192694E+00  0.73882042926E+00  0.51100000000E-03 0.  1.
         12    1    3    3    0    0  0.21715901270E+00  0.11229138570E+02 -0.26257323292E+02  0.28558496766E+02  0.00000000000E+00 0. -1.
</event>
<event>
 7    1  0.5839176E-013  0.5052897E+02  0.7816164E-02  0.1300438E+00
        -11   -1    0    0    0    0  0.00000000000E+00  0.00000000000E+00  0.45593999997E+02  0.45594000000E+02  0.51100000000E-03 0.  1.
         11   -1    0    0    0    0 -0.00000000000E+00 -0.00000000000E+00 -0.45593999997E+02  0.45594000000E+02  0.51100000000E-03 0. -1.
    9900012    2    1    2    0    0 -0.17493119534E+02 -0.18729595601E+02 -0.31565006135E+02  0.50528971547E+02  0.30000339513E+02 0.  0.
        -12    1    1    2    0    0  0.17493119534E+02  0.18729595601E+02  0.31565006135E+02  0.40659028453E+02  0.00000000000E+00 0.  1.
         11    1    3    3    0    0 -0.11728237251E+02 -0.61295225208E+01 -0.25729992623E+02  0.28933632955E+02  0.51100000000E-03 0. -1.
        -11    1    3    3    0    0 -0.87966785796E+01 -0.17372504345E+01 -0.50481056657E+01  0.10289944809E+02  0.51100000000E-03 0.  1.
         12    1    3    3    0    0  0.30317962966E+01 -0.10862822646E+02 -0.78690784608E+00  0.11305393783E+02  0.00000000000E+00 0. -1.
</event>
<event>
 7    1  0.5839176E-013  0.5052885E+02  0.7816164E-02  0.1300439E+00
        -11   -1    0    0    0    0  0.00000000000E+00  0.00000000000E+00  0.45593999997E+02  0.45594000000E+02  0.51100000000E-03 0.  1.
         11   -1    0    0    0    0 -0.00000000000E+00 -0.00000000000E+00 -0.45593999997E+02  0.45594000000E+02  0.51100000000E-03 0. -1.
    9900012    2    1    2    0    0 -0.30798236977E+01 -0.26367427787E+02 -0.30796746880E+02  0.50528853668E+02  0.29999981208E+02 0.  0.
        -12    1    1    2    0    0  0.30798236977E+01  0.26367427787E+02  0.30796746880E+02  0.40659146332E+02  0.00000000000E+00 0.  1.
         11    1    3    3    0    0  0.12558524441E+01  0.37776835600E+01 -0.49172673522E+01  0.63267350913E+01  0.51100000000E-03 0. -1.
        -11    1    3    3    0    0 -0.57199088775E+01 -0.47644917466E+00 -0.19538968795E+01  0.60631736459E+01  0.51100000000E-03 0.  1.
         12    1    3    3    0    0  0.13842327357E+01 -0.29668662172E+02 -0.23925582648E+02  0.38138944930E+02  0.00000000000E+00 0. -1.
</event>
<event>
 7    1  0.5839176E-013  0.5052886E+02  0.7816164E-02  0.1300439E+00
        -11   -1    0    0    0    0  0.00000000000E+00  0.00000000000E+00  0.45593999997E+02  0.45594000000E+02  0.51100000000E-03 0. -1.
         11   -1    0    0    0    0 -0.00000000000E+00 -0.00000000000E+00 -0.45593999997E+02  0.45594000000E+02  0.51100000000E-03 0.  1.
    9900012    2    1    2    0    0 -0.18029296295E+01 -0.39164159862E+02 -0.10774229483E+02  0.50528855962E+02  0.29999988181E+02 0.  0.
        -12    1    1    2    0    0  0.18029296295E+01  0.39164159862E+02  0.10774229483E+02  0.40659144038E+02  0.00000000000E+00 0.  1.
         11    1    3    3    0    0 -0.52224709030E+01 -0.10524305157E+02  0.25708784612E+01  0.12026829079E+02  0.51100000000E-03 0. -1.
        -11    1    3    3    0    0 -0.77791690097E+01 -0.16270228422E+02 -0.12207340822E+02  0.21777395933E+02  0.51100000000E-03 0.  1.
        -12    1    3    3    0    0  0.11198710283E+02 -0.12369626283E+02 -0.11377671223E+01  0.16724630950E+02  0.00000000000E+00 0.  1.
</event>
<event>
 7    1  0.5839176E-013  0.5052886E+02  0.7816164E-02  0.1300439E+00
        -11   -1    0    0    0    0  0.00000000000E+00  0.00000000000E+00  0.45593999997E+02  0.45594000000E+02  0.51100000000E-03 0.  1.
         11   -1    0    0    0    0 -0.00000000000E+00 -0.00000000000E+00 -0.45593999997E+02  0.45594000000E+02  0.51100000000E-03 0. -1.
    9900012    2    1    2    0    0  0.16005644036E+02 -0.17790856017E+02 -0.32870506584E+02  0.50528863242E+02  0.30000010310E+02 0.  0.
        -12    1    1    2    0    0 -0.16005644036E+02  0.17790856017E+02  0.32870506584E+02  0.40659136758E+02  0.00000000000E+00 0.  1.
         11    1    3    3    0    0 -0.19111117056E+01 -0.74206344313E+01 -0.10842216496E+02  0.13276739890E+02  0.51100000000E-03 0. -1.
        -11    1    3    3    0    0  0.18192481391E+02 -0.91387212125E+01 -0.60706444963E+01  0.21244654137E+02  0.51100000000E-03 0.  1.
         12    1    3    3    0    0 -0.27572564913E+00 -0.12315003734E+01 -0.15957645592E+02  0.16007469214E+02  0.00000000000E+00 0. -1.
</event>
<event>
 7    1  0.5839176E-013  0.5052886E+02  0.7816164E-02  0.1300439E+00
        -11   -1    0    0    0    0  0.00000000000E+00  0.00000000000E+00  0.45593999997E+02  0.45594000000E+02  0.51100000000E-03 0.  1.
         11   -1    0    0    0    0 -0.00000000000E+00 -0.00000000000E+00 -0.45593999997E+02  0.45594000000E+02  0.51100000000E-03 0. -1.
    9900012    2    1    2    0    0  0.13420213399E+01 -0.22525017860E+02 -0.33822895731E+02  0.50528859250E+02  0.29999998178E+02 0.  0.
        -12    1    1    2    0    0 -0.13420213399E+01  0.22525017860E+02  0.33822895731E+02  0.40659140750E+02  0.00000000000E+00 0.  1.
         11    1    3    3    0    0 -0.43914540945E+01 -0.73032967058E+01 -0.17635524079E+02  0.19586595458E+02  0.51100000000E-03 0. -1.
        -11    1    3    3    0    0 -0.28968748679E+01  0.42031172627E+01 -0.34722623852E+01  0.61737091814E+01  0.51100000000E-03 0.  1.
        -12    1    3    3    0    0  0.86303503023E+01 -0.19424838417E+02 -0.12715109267E+02  0.24768554611E+02  0.00000000000E+00 0.  1.
</event>
<event>
 7    1  0.5839176E-013  0.5052886E+02  0.7816164E-02  0.1300439E+00
        -11   -1    0    0    0    0  0.00000000000E+00  0.00000000000E+00  0.45593999997E+02  0.45594000000E+02  0.51100000000E-03 0.  1.
         11   -1    0    0    0    0 -0.00000000000E+00 -0.00000000000E+00 -0.45593999997E+02  0.45594000000E+02  0.51100000000E-03 0. -1.
    9900012    2    1    2    0    0  0.25901501430E+02  0.61165574382E+01 -0.30738660455E+02  0.50528864522E+02  0.30000014202E+02 0.  0.
        -12    1    1    2    0    0 -0.25901501430E+02 -0.61165574382E+01  0.30738660455E+02  0.40659135478E+02  0.00000000000E+00 0.  1.
         11    1    3    3    0    0  0.23654718932E+01 -0.72473908106E+01 -0.68520884397E+01  0.10250426678E+02  0.51100000000E-03 0. -1.
        -11    1    3    3    0    0  0.13116741302E+02 -0.25908660043E+01 -0.10211845348E+02  0.16823889999E+02  0.51100000000E-03 0.  1.
        -12    1    3    3    0    0  0.10419288235E+02  0.15954814253E+02 -0.13674726668E+02  0.23454547845E+02  0.00000000000E+00 0.  1.
</event>
<event>
 7    1  0.5839176E-013  0.5052886E+02  0.7816164E-02  0.1300439E+00
        -11   -1    0    0    0    0  0.00000000000E+00  0.00000000000E+00  0.45593999997E+02  0.45594000000E+02  0.51100000000E-03 0.  1.
         11   -1    0    0    0    0 -0.00000000000E+00 -0.00000000000E+00 -0.45593999997E+02  0.45594000000E+02  0.51100000000E-03 0. -1.
    9900012    2    1    2    0    0  0.38575444356E+02 -0.11092308064E+02  0.64854821097E+01  0.50528859777E+02  0.29999999779E+02 0.  0.
        -12    1    1    2    0    0 -0.38575444356E+02  0.11092308064E+02 -0.64854821097E+01  0.40659140223E+02  0.00000000000E+00 0.  1.
         11    1    3    3    0    0  0.17799438965E+02 -0.12597950875E+02  0.79406900922E+01  0.23207390054E+02  0.51100000000E-03 0. -1.
        -11    1    3    3    0    0 -0.18654135212E+01 -0.18070637833E+01 -0.34881704671E+01  0.43488596885E+01  0.51100000000E-03 0.  1.
         12    1    3    3    0    0  0.22641418912E+02  0.33127065943E+01  0.20329624846E+01  0.22972610035E+02  0.00000000000E+00 0. -1.
</event>
<event>
 7    1  0.5839176E-013  0.5052885E+02  0.7816164E-02  0.1300439E+00
        -11   -1    0    0    0    0  0.00000000000E+00  0.00000000000E+00  0.45593999997E+02  0.45594000000E+02  0.51100000000E-03 0.  1.
         11   -1    0    0    0    0 -0.00000000000E+00 -0.00000000000E+00 -0.45593999997E+02  0.45594000000E+02  0.51100000000E-03 0. -1.
    9900012    2    1    2    0    0 -0.34940390059E+01  0.39787094172E+02 -0.76121933810E+01  0.50528847780E+02  0.29999963311E+02 0.  0.
        -12    1    1    2    0    0  0.34940390059E+01 -0.39787094172E+02  0.76121933810E+01  0.40659152220E+02  0.00000000000E+00 0.  1.
         11    1    3    3    0    0 -0.14389807044E+01  0.28160192590E+01 -0.28131506734E+01  0.42325461494E+01  0.51100000000E-03 0. -1.
        -11    1    3    3    0    0  0.76590741969E+01  0.33799413180E+02 -0.80383853743E+01  0.35576359967E+02  0.51100000000E-03 0.  1.
        -12    1    3    3    0    0 -0.97141324984E+01  0.31716617328E+01  0.32393426666E+01  0.10719941663E+02  0.00000000000E+00 0.  1.
</event>
<event>
 7    1  0.5839176E-013  0.5052886E+02  0.7816164E-02  0.1300439E+00
        -11   -1    0    0    0    0  0.00000000000E+00  0.00000000000E+00  0.45593999997E+02  0.45594000000E+02  0.51100000000E-03 0. -1.
         11   -1    0    0    0    0 -0.00000000000E+00 -0.00000000000E+00 -0.45593999997E+02  0.45594000000E+02  0.51100000000E-03 0.  1.
    9900012    2    1    2    0    0  0.88208847136E+01 -0.22953193377E+02  0.32380681442E+02  0.50528860512E+02  0.30000002011E+02 0.  0.
        -12    1    1    2    0    0 -0.88208847136E+01  0.22953193377E+02 -0.32380681442E+02  0.40659139488E+02  0.00000000000E+00 0.  1.
         11    1    3    3    0    0 -0.16997537318E+01 -0.73065250569E+01  0.14681056988E+02  0.16486597760E+02  0.51100000000E-03 0. -1.
        -11    1    3    3    0    0 -0.55149608916E+01 -0.42916198945E+01  0.11467159140E+02  0.13428646021E+02  0.51100000000E-03 0.  1.
         12    1    3    3    0    0  0.16035599337E+02 -0.11355048425E+02  0.62324653136E+01  0.20613616731E+02  0.00000000000E+00 0. -1.
</event>
<event>
 7    1  0.5839176E-013  0.5052886E+02  0.7816164E-02  0.1300439E+00
        -11   -1    0    0    0    0  0.00000000000E+00  0.00000000000E+00  0.45593999997E+02  0.45594000000E+02  0.51100000000E-03 0. -1.
         11   -1    0    0    0    0 -0.00000000000E+00 -0.00000000000E+00 -0.45593999997E+02  0.45594000000E+02  0.51100000000E-03 0.  1.
    9900012    2    1    2    0    0 -0.21387226738E+02 -0.27211336262E+02  0.21337655460E+02  0.50528857987E+02  0.29999994338E+02 0.  0.
        -12    1    1    2    0    0  0.21387226738E+02  0.27211336262E+02 -0.21337655460E+02  0.40659142013E+02  0.00000000000E+00 0.  1.
         11    1    3    3    0    0  0.44486587241E+01 -0.65713983951E+01  0.81252807164E+01  0.11357553799E+02  0.51100000000E-03 0. -1.
        -11    1    3    3    0    0  0.20783435237E+00 -0.76906583327E+01  0.39400397632E+01  0.86436875409E+01  0.51100000000E-03 0.  1.
        -12    1    3    3    0    0 -0.26043719814E+02 -0.12949279534E+02  0.92723349802E+01  0.30527616648E+02  0.00000000000E+00 0.  1.
</event>
<event>
 7    1  0.5839176E-013  0.5052884E+02  0.7816164E-02  0.1300439E+00
        -11   -1    0    0    0    0  0.00000000000E+00  0.00000000000E+00  0.45593999997E+02  0.45594000000E+02  0.51100000000E-03 0.  1.
         11   -1    0    0    0    0 -0.00000000000E+00 -0.00000000000E+00 -0.45593999997E+02  0.45594000000E+02  0.51100000000E-03 0. -1.
    9900012    2    1    2    0    0 -0.38164911597E+02  0.10804083823E+02 -0.89374816935E+01  0.50528840103E+02  0.29999939977E+02 0.  0.
        -12    1    1    2    0    0  0.38164911597E+02 -0.10804083823E+02  0.89374816935E+01  0.40659159897E+02  0.00000000000E+00 0.  1.
         11    1    3    3    0    0 -0.73405159138E+01 -0.37341482496E+01 -0.13665685618E+01  0.83483259954E+01  0.51100000000E-03 0. -1.
        -11    1    3    3    0    0 -0.35334533492E-01 -0.93246894729E+00 -0.76664523469E+01  0.77230329998E+01  0.51100000000E-03 0.  1.
         12    1    3    3    0    0 -0.30789061150E+02  0.15470701020E+02  0.95539215217E-01  0.34457481108E+02  0.00000000000E+00 0. -1.
</event>
<event>
 7    1  0.5839176E-013  0.5052896E+02  0.7816164E-02  0.1300438E+00
        -11   -1    0    0    0    0  0.00000000000E+00  0.00000000000E+00  0.45593999997E+02  0.45594000000E+02  0.51100000000E-03 0. -1.
         11   -1    0    0    0    0 -0.00000000000E+00 -0.00000000000E+00 -0.45593999997E+02  0.45594000000E+02  0.51100000000E-03 0.  1.
    9900012    2    1    2    0    0 -0.21616936485E+02  0.34057568612E+02  0.50938576297E+01  0.50528962772E+02  0.30000312840E+02 0.  0.
        -12    1    1    2    0    0  0.21616936485E+02 -0.34057568612E+02 -0.50938576297E+01  0.40659037228E+02  0.00000000000E+00 0.  1.
         11    1    3    3    0    0 -0.13921030398E+02  0.22310061715E+02 -0.27384600561E+01  0.26439234195E+02  0.51100000000E-03 0. -1.
        -11    1    3    3    0    0 -0.22358152070E+01  0.11275072307E+02 -0.30612246786E+01  0.11895260483E+02  0.51100000000E-03 0.  1.
        -12    1    3    3    0    0 -0.54600908798E+01  0.47243459060E+00  0.10893542364E+02  0.12194468094E+02  0.00000000000E+00 0.  1.
</event>
<event>
 7    1  0.5839176E-013  0.5052886E+02  0.7816164E-02  0.1300439E+00
        -11   -1    0    0    0    0  0.00000000000E+00  0.00000000000E+00  0.45593999997E+02  0.45594000000E+02  0.51100000000E-03 0. -1.
         11   -1    0    0    0    0 -0.00000000000E+00 -0.00000000000E+00 -0.45593999997E+02  0.45594000000E+02  0.51100000000E-03 0.  1.
    9900012    2    1    2    0    0  0.26471775084E+02  0.30859959341E+02  0.27074879880E+00  0.50528864845E+02  0.30000015184E+02 0.  0.
        -12    1    1    2    0    0 -0.26471775084E+02 -0.30859959341E+02 -0.27074879880E+00  0.40659135155E+02  0.00000000000E+00 0.  1.
         11    1    3    3    0    0  0.14326632022E+02  0.13887208374E+02  0.10360885143E+02  0.22482323784E+02  0.51100000000E-03 0. -1.
        -11    1    3    3    0    0  0.16464219886E+01  0.14053194018E+02 -0.16140510323E+01  0.14241071886E+02  0.51100000000E-03 0.  1.
        -12    1    3    3    0    0  0.10498721073E+02  0.29195569494E+01 -0.84760853117E+01  0.13805469176E+02  0.00000000000E+00 0.  1.
</event>
<event>
 7    1  0.5839176E-013  0.5052884E+02  0.7816164E-02  0.1300439E+00
        -11   -1    0    0    0    0  0.00000000000E+00  0.00000000000E+00  0.45593999997E+02  0.45594000000E+02  0.51100000000E-03 0. -1.
         11   -1    0    0    0    0 -0.00000000000E+00 -0.00000000000E+00 -0.45593999997E+02  0.45594000000E+02  0.51100000000E-03 0.  1.
    9900012    2    1    2    0    0 -0.37857936918E+01 -0.28663559103E+02 -0.28587325906E+02  0.50528842892E+02  0.29999948454E+02 0.  0.
        -12    1    1    2    0    0  0.37857936918E+01  0.28663559103E+02  0.28587325906E+02  0.40659157108E+02  0.00000000000E+00 0.  1.
         11    1    3    3    0    0 -0.74619505493E+01 -0.41905913821E+01 -0.12738156744E+02  0.15346087437E+02  0.51100000000E-03 0. -1.
        -11    1    3    3    0    0 -0.64055213830E+01 -0.89960326217E+01 -0.12012680527E+02  0.16317591759E+02  0.51100000000E-03 0.  1.
         12    1    3    3    0    0  0.10081678240E+02 -0.15476935099E+02 -0.38364886346E+01  0.18865163695E+02  0.00000000000E+00 0. -1.
</event>
<event>
 7    1  0.5839176E-013  0.5052885E+02  0.7816164E-02  0.1300439E+00
        -11   -1    0    0    0    0  0.00000000000E+00  0.00000000000E+00  0.45593999997E+02  0.45594000000E+02  0.51100000000E-03 0.  1.
         11   -1    0    0    0    0 -0.00000000000E+00 -0.00000000000E+00 -0.45593999997E+02  0.45594000000E+02  0.51100000000E-03 0. -1.
    9900012    2    1    2    0    0 -0.36401681776E+02  0.99595578254E+01  0.15129161960E+02  0.50528846420E+02  0.29999959178E+02 0.  0.
        -12    1    1    2    0    0  0.36401681776E+02 -0.99595578254E+01 -0.15129161960E+02  0.40659153580E+02  0.00000000000E+00 0.  1.
         11    1    3    3    0    0 -0.35660458672E+01  0.63519974835E+01  0.13706655350E+01  0.74123734005E+01  0.51100000000E-03 0. -1.
        -11    1    3    3    0    0 -0.36531386745E+02  0.37759244829E+01  0.10528690647E+02  0.38205407342E+02  0.51100000000E-03 0.  1.
         12    1    3    3    0    0  0.36957508356E+01 -0.16836414106E+00  0.32298057779E+01  0.49110656772E+01  0.00000000000E+00 0. -1.
</event>
<event>
 7    1  0.5839176E-013  0.5052886E+02  0.7816164E-02  0.1300439E+00
        -11   -1    0    0    0    0  0.00000000000E+00  0.00000000000E+00  0.45593999997E+02  0.45594000000E+02  0.51100000000E-03 0. -1.
         11   -1    0    0    0    0 -0.00000000000E+00 -0.00000000000E+00 -0.45593999997E+02  0.45594000000E+02  0.51100000000E-03 0.  1.
    9900012    2    1    2    0    0 -0.14705914969E+02 -0.84339354025E+01  0.36956332825E+02  0.50528859117E+02  0.29999997772E+02 0.  0.
        -12    1    1    2    0    0  0.14705914969E+02  0.84339354025E+01 -0.36956332825E+02  0.40659140883E+02  0.00000000000E+00 0.  1.
         11    1    3    3    0    0 -0.42162304046E+01  0.61349074929E+01 -0.50884323957E+00  0.74614080759E+01  0.51100000000E-03 0. -1.
        -11    1    3    3    0    0  0.22975326020E+01 -0.92781180309E+00  0.33810921854E+01  0.41918105189E+01  0.51100000000E-03 0.  1.
         12    1    3    3    0    0 -0.12787217166E+02 -0.13641031092E+02  0.34084083879E+02  0.38875640522E+02  0.00000000000E+00 0. -1.
</event>
<event>
 7    1  0.5839176E-013  0.5052886E+02  0.7816164E-02  0.1300439E+00
        -11   -1    0    0    0    0  0.00000000000E+00  0.00000000000E+00  0.45593999997E+02  0.45594000000E+02  0.51100000000E-03 0.  1.
         11   -1    0    0    0    0 -0.00000000000E+00 -0.00000000000E+00 -0.45593999997E+02  0.45594000000E+02  0.51100000000E-03 0. -1.
    9900012    2    1    2    0    0  0.20184171817E+02 -0.11709383799E+02 -0.33296478944E+02  0.50528856244E+02  0.29999989040E+02 0.  0.
        -12    1    1    2    0    0 -0.20184171817E+02  0.11709383799E+02  0.33296478944E+02  0.40659143756E+02  0.00000000000E+00 0.  1.
         11    1    3    3    0    0  0.64196911051E+01  0.55092222818E+01 -0.36075786902E+01  0.91966618021E+01  0.51100000000E-03 0. -1.
        -11    1    3    3    0    0 -0.30354451755E+00  0.35672339006E+01 -0.27628244626E+01  0.45222224898E+01  0.51100000000E-03 0.  1.
         12    1    3    3    0    0  0.14068025229E+02 -0.20785839982E+02 -0.26926075792E+02  0.36809971952E+02  0.00000000000E+00 0. -1.
</event>
<event>
 7    1  0.5839176E-013  0.5052893E+02  0.7816164E-02  0.1300439E+00
        -11   -1    0    0    0    0  0.00000000000E+00  0.00000000000E+00  0.45593999997E+02  0.45594000000E+02  0.51100000000E-03 0. -1.
         11   -1    0    0    0    0 -0.00000000000E+00 -0.00000000000E+00 -0.45593999997E+02  0.45594000000E+02  0.51100000000E-03 0.  1.
    9900012    2    1    2    0    0  0.31945424832E+02  0.24971162121E+02 -0.30150609950E+01  0.50528933383E+02  0.30000223509E+02 0.  0.
        -12    1    1    2    0    0 -0.31945424832E+02 -0.24971162121E+02  0.30150609950E+01  0.40659066617E+02  0.00000000000E+00 0.  1.
         11    1    3    3    0    0  0.11663977613E+01  0.76171184834E+01  0.14786851604E+01  0.78464952553E+01  0.51100000000E-03 0. -1.
        -11    1    3    3    0    0 -0.33160044668E+01  0.77326529760E+00 -0.33134762318E+01  0.47510998563E+01  0.51100000000E-03 0.  1.
        -12    1    3    3    0    0  0.34095031538E+02  0.16580778340E+02 -0.11802699236E+01  0.37931338271E+02  0.00000000000E+00 0.  1.
</event>
<event>
 7    1  0.5839176E-013  0.5052886E+02  0.7816164E-02  0.1300439E+00
        -11   -1    0    0    0    0  0.00000000000E+00  0.00000000000E+00  0.45593999997E+02  0.45594000000E+02  0.51100000000E-03 0. -1.
         11   -1    0    0    0    0 -0.00000000000E+00 -0.00000000000E+00 -0.45593999997E+02  0.45594000000E+02  0.51100000000E-03 0.  1.
    9900012    2    1    2    0    0 -0.16615127495E+02  0.23383559738E+02  0.28815145756E+02  0.50528856470E+02  0.29999989725E+02 0.  0.
        -12    1    1    2    0    0  0.16615127495E+02 -0.23383559738E+02 -0.28815145756E+02  0.40659143530E+02  0.00000000000E+00 0.  1.
         11    1    3    3    0    0 -0.12165697097E+01  0.78363289216E+01  0.16295489563E+02  0.18122667386E+02  0.51100000000E-03 0. -1.
        -11    1    3    3    0    0  0.29025970070E+01  0.37097662493E+00  0.75775896129E+01  0.81229648309E+01  0.51100000000E-03 0.  1.
         12    1    3    3    0    0 -0.18301154792E+02  0.15176254192E+02  0.49420665796E+01  0.24283224253E+02  0.00000000000E+00 0. -1.
</event>
<event>
 7    1  0.5839176E-013  0.5052886E+02  0.7816164E-02  0.1300439E+00
        -11   -1    0    0    0    0  0.00000000000E+00  0.00000000000E+00  0.45593999997E+02  0.45594000000E+02  0.51100000000E-03 0. -1.
         11   -1    0    0    0    0 -0.00000000000E+00 -0.00000000000E+00 -0.45593999997E+02  0.45594000000E+02  0.51100000000E-03 0.  1.
    9900012    2    1    2    0    0  0.55099069300E+01 -0.40092730041E+02 -0.39216760516E+01  0.50528860565E+02  0.30000002174E+02 0.  0.
        -12    1    1    2    0    0 -0.55099069300E+01  0.40092730041E+02  0.39216760516E+01  0.40659139435E+02  0.00000000000E+00 0.  1.
         11    1    3    3    0    0  0.95208371034E+01 -0.11089622966E+02  0.19859066457E+01  0.14750250918E+02  0.51100000000E-03 0.  1.
        -11    1    3    3    0    0  0.74494031473E+01 -0.15202459896E+02 -0.56187999165E+01  0.17837581308E+02  0.51100000000E-03 0. -1.
         12    1    3    3    0    0 -0.11460333321E+02 -0.13800647179E+02 -0.28878278079E+00  0.17941028340E+02  0.00000000000E+00 0. -1.
</event>
<event>
 7    1  0.5839176E-013  0.5052887E+02  0.7816164E-02  0.1300439E+00
        -11   -1    0    0    0    0  0.00000000000E+00  0.00000000000E+00  0.45593999997E+02  0.45594000000E+02  0.51100000000E-03 0.  1.
         11   -1    0    0    0    0 -0.00000000000E+00 -0.00000000000E+00 -0.45593999997E+02  0.45594000000E+02  0.51100000000E-03 0. -1.
    9900012    2    1    2    0    0 -0.37246949755E+01  0.36390087604E+02 -0.17749742177E+02  0.50528866022E+02  0.30000018762E+02 0.  0.
        -12    1    1    2    0    0  0.37246949755E+01 -0.36390087604E+02  0.17749742177E+02  0.40659133978E+02  0.00000000000E+00 0.  1.
         11    1    3    3    0    0 -0.74298541434E+01  0.19025123832E+02  0.10134633038E+01  0.20449576464E+02  0.51100000000E-03 0. -1.
        -11    1    3    3    0    0 -0.52444239480E+01  0.25015556429E+01 -0.25945618382E+01  0.63634514671E+01  0.51100000000E-03 0.  1.
        -12    1    3    3    0    0  0.89495831159E+01  0.14863408129E+02 -0.16168643642E+02  0.23715838092E+02  0.00000000000E+00 0.  1.
</event>
<event>
 7    1  0.5839176E-013  0.5052886E+02  0.7816164E-02  0.1300439E+00
        -11   -1    0    0    0    0  0.00000000000E+00  0.00000000000E+00  0.45593999997E+02  0.45594000000E+02  0.51100000000E-03 0.  1.
         11   -1    0    0    0    0 -0.00000000000E+00 -0.00000000000E+00 -0.45593999997E+02  0.45594000000E+02  0.51100000000E-03 0. -1.
    9900012    2    1    2    0    0  0.14561775423E+02 -0.18016865871E+02 -0.33414260947E+02  0.50528860881E+02  0.30000003134E+02 0.  0.
        -12    1    1    2    0    0 -0.14561775423E+02  0.18016865871E+02  0.33414260947E+02  0.40659139119E+02  0.00000000000E+00 0.  1.
         11    1    3    3    0    0 -0.59521113280E+01 -0.19503277599E+01 -0.10222561330E+02  0.11988835141E+02  0.51100000000E-03 0. -1.
        -11    1    3    3    0    0  0.27872710028E+00  0.82286611724E-01  0.22343955427E+01  0.22532162758E+01  0.51100000000E-03 0.  1.
         12    1    3    3    0    0  0.20235159651E+02 -0.16148824723E+02 -0.25426095159E+02  0.36286809464E+02  0.00000000000E+00 0. -1.
</event>
<event>
 7    1  0.5839176E-013  0.5052887E+02  0.7816164E-02  0.1300439E+00
        -11   -1    0    0    0    0  0.00000000000E+00  0.00000000000E+00  0.45593999997E+02  0.45594000000E+02  0.51100000000E-03 0. -1.
         11   -1    0    0    0    0 -0.00000000000E+00 -0.00000000000E+00 -0.45593999997E+02  0.45594000000E+02  0.51100000000E-03 0.  1.
    9900012    2    1    2    0    0  0.34362743770E+02 -0.10903027417E+01  0.21706636695E+02  0.50528868233E+02  0.30000025480E+02 0.  0.
        -12    1    1    2    0    0 -0.34362743770E+02  0.10903027417E+01 -0.21706636695E+02  0.40659131767E+02  0.00000000000E+00 0.  1.
         11    1    3    3    0    0 -0.36276577461E+01  0.32656181469E+01  0.18545587696E+01  0.52214510526E+01  0.51100000000E-03 0. -1.
        -11    1    3    3    0    0  0.48866523635E+01  0.12689997608E+01 -0.17926474268E+01  0.53575476454E+01  0.51100000000E-03 0.  1.
         12    1    3    3    0    0  0.33103749153E+02 -0.56249206494E+01  0.21644725352E+02  0.39949869535E+02  0.00000000000E+00 0. -1.
</event>
<event>
 7    1  0.5839176E-013  0.5052886E+02  0.7816164E-02  0.1300439E+00
        -11   -1    0    0    0    0  0.00000000000E+00  0.00000000000E+00  0.45593999997E+02  0.45594000000E+02  0.51100000000E-03 0. -1.
         11   -1    0    0    0    0 -0.00000000000E+00 -0.00000000000E+00 -0.45593999997E+02  0.45594000000E+02  0.51100000000E-03 0.  1.
    9900012    2    1    2    0    0  0.14369231757E+01  0.25612540611E+02  0.31545190295E+02  0.50528855696E+02  0.29999987374E+02 0.  0.
        -12    1    1    2    0    0 -0.14369231757E+01 -0.25612540611E+02 -0.31545190295E+02  0.40659144304E+02  0.00000000000E+00 0.  1.
         11    1    3    3    0    0  0.53167880077E+01  0.32663076284E+01  0.52879982151E+01  0.81792374721E+01  0.51100000000E-03 0. -1.
        -11    1    3    3    0    0  0.58369093735E+01  0.22764823798E+02  0.18495894123E+02  0.29906601499E+02  0.51100000000E-03 0.  1.
        -12    1    3    3    0    0 -0.97167742055E+01 -0.41859081513E+00  0.77612979573E+01  0.12443016725E+02  0.00000000000E+00 0.  1.
</event>
<event>
 7    1  0.5839176E-013  0.5052884E+02  0.7816164E-02  0.1300439E+00
        -11   -1    0    0    0    0  0.00000000000E+00  0.00000000000E+00  0.45593999997E+02  0.45594000000E+02  0.51100000000E-03 0.  1.
         11   -1    0    0    0    0 -0.00000000000E+00 -0.00000000000E+00 -0.45593999997E+02  0.45594000000E+02  0.51100000000E-03 0. -1.
    9900012    2    1    2    0    0 -0.34281829302E+02 -0.12861463060E+02 -0.17677844431E+02  0.50528840687E+02  0.29999941751E+02 0.  0.
        -12    1    1    2    0    0  0.34281829302E+02  0.12861463060E+02  0.17677844431E+02  0.40659159313E+02  0.00000000000E+00 0.  1.
         11    1    3    3    0    0 -0.18216850305E+02 -0.70397884055E+00 -0.19073563375E+01  0.18329954438E+02  0.51100000000E-03 0. -1.
        -11    1    3    3    0    0 -0.18103110735E+02 -0.50572014842E+01 -0.55692934441E+01  0.19603952022E+02  0.51100000000E-03 0.  1.
        -12    1    3    3    0    0  0.20381317383E+01 -0.71002827352E+01 -0.10201194649E+02  0.12594934226E+02  0.00000000000E+00 0.  1.
</event>
<event>
 7    1  0.5839176E-013  0.5052884E+02  0.7816164E-02  0.1300439E+00
        -11   -1    0    0    0    0  0.00000000000E+00  0.00000000000E+00  0.45593999997E+02  0.45594000000E+02  0.51100000000E-03 0.  1.
         11   -1    0    0    0    0 -0.00000000000E+00 -0.00000000000E+00 -0.45593999997E+02  0.45594000000E+02  0.51100000000E-03 0. -1.
    9900012    2    1    2    0    0 -0.14641392082E+02 -0.26754952573E+02 -0.26888087550E+02  0.50528842343E+02  0.29999946786E+02 0.  0.
        -12    1    1    2    0    0  0.14641392082E+02  0.26754952573E+02  0.26888087550E+02  0.40659157657E+02  0.00000000000E+00 0.  1.
         11    1    3    3    0    0 -0.48622462631E+01 -0.16995252485E+02 -0.17431907636E+02  0.24826426441E+02  0.51100000000E-03 0. -1.
        -11    1    3    3    0    0  0.31289773686E+01  0.27759341825E+01 -0.61036424859E+01  0.73993757720E+01  0.51100000000E-03 0.  1.
        -12    1    3    3    0    0 -0.12908123188E+02 -0.12535634270E+02 -0.33525374283E+01  0.18303040130E+02  0.00000000000E+00 0.  1.
</event>
<event>
 7    1  0.5839176E-013  0.5052886E+02  0.7816164E-02  0.1300439E+00
        -11   -1    0    0    0    0  0.00000000000E+00  0.00000000000E+00  0.45593999997E+02  0.45594000000E+02  0.51100000000E-03 0.  1.
         11   -1    0    0    0    0 -0.00000000000E+00 -0.00000000000E+00 -0.45593999997E+02  0.45594000000E+02  0.51100000000E-03 0. -1.
    9900012    2    1    2    0    0  0.50809080447E+01 -0.11123628755E+02 -0.38776477544E+02  0.50528856453E+02  0.29999989676E+02 0.  0.
        -12    1    1    2    0    0 -0.50809080447E+01  0.11123628755E+02  0.38776477544E+02  0.40659143547E+02  0.00000000000E+00 0.  1.
         11    1    3    3    0    0  0.19875127582E+01 -0.18622942139E+01  0.11558273212E+01  0.29587638907E+01  0.51100000000E-03 0.  1.
        -11    1    3    3    0    0 -0.86886563011E+01  0.22453453620E+01 -0.10235694738E+02  0.13612632778E+02  0.51100000000E-03 0. -1.
        -12    1    3    3    0    0  0.11782051588E+02 -0.11506679903E+02 -0.29696610127E+02  0.33957459785E+02  0.00000000000E+00 0.  1.
</event>
<event>
 7    1  0.5839176E-013  0.5052886E+02  0.7816164E-02  0.1300439E+00
        -11   -1    0    0    0    0  0.00000000000E+00  0.00000000000E+00  0.45593999997E+02  0.45594000000E+02  0.51100000000E-03 0.  1.
         11   -1    0    0    0    0 -0.00000000000E+00 -0.00000000000E+00 -0.45593999997E+02  0.45594000000E+02  0.51100000000E-03 0. -1.
    9900012    2    1    2    0    0 -0.19139167478E+02  0.38278920396E+01 -0.35667989785E+02  0.50528856078E+02  0.29999988534E+02 0.  0.
        -12    1    1    2    0    0  0.19139167478E+02 -0.38278920396E+01  0.35667989785E+02  0.40659143922E+02  0.00000000000E+00 0.  1.
         11    1    3    3    0    0 -0.54935700865E+01  0.10139204261E+02 -0.62560270951E+01  0.13119476004E+02  0.51100000000E-03 0. -1.
        -11    1    3    3    0    0 -0.48876201051E+01  0.46272883075E+01 -0.27133581636E+01  0.72569236015E+01  0.51100000000E-03 0.  1.
        -12    1    3    3    0    0 -0.87579772864E+01 -0.10938600529E+02 -0.26698604526E+02  0.30152456472E+02  0.00000000000E+00 0.  1.
</event>
<event>
 7    1  0.5839176E-013  0.5052885E+02  0.7816164E-02  0.1300439E+00
        -11   -1    0    0    0    0  0.00000000000E+00  0.00000000000E+00  0.45593999997E+02  0.45594000000E+02  0.51100000000E-03 0. -1.
         11   -1    0    0    0    0 -0.00000000000E+00 -0.00000000000E+00 -0.45593999997E+02  0.45594000000E+02  0.51100000000E-03 0.  1.
    9900012    2    1    2    0    0  0.17148150774E+02  0.10784023701E+01  0.36850297181E+02  0.50528850612E+02  0.29999971920E+02 0.  0.
        -12    1    1    2    0    0 -0.17148150774E+02 -0.10784023701E+01 -0.36850297181E+02  0.40659149388E+02  0.00000000000E+00 0.  1.
         11    1    3    3    0    0  0.39703570696E+01 -0.94696422460E+00 -0.86280498134E+00  0.41719191267E+01  0.51100000000E-03 0. -1.
        -11    1    3    3    0    0  0.11550404942E+01 -0.81173228760E+01  0.39318701747E+01  0.90931101692E+01  0.51100000000E-03 0.  1.
         12    1    3    3    0    0  0.12022753210E+02  0.10142689471E+02  0.33781231988E+02  0.37263821316E+02  0.00000000000E+00 0. -1.
</event>
<event>
 7    1  0.5839176E-013  0.5052885E+02  0.7816164E-02  0.1300439E+00
        -11   -1    0    0    0    0  0.00000000000E+00  0.00000000000E+00  0.45593999997E+02  0.45594000000E+02  0.51100000000E-03 0.  1.
         11   -1    0    0    0    0 -0.00000000000E+00 -0.00000000000E+00 -0.45593999997E+02  0.45594000000E+02  0.51100000000E-03 0. -1.
    9900012    2    1    2    0    0 -0.29707387918E+02  0.15181680927E+02  0.23241210760E+02  0.50528853301E+02  0.29999980095E+02 0.  0.
        -12    1    1    2    0    0  0.29707387918E+02 -0.15181680927E+02 -0.23241210760E+02  0.40659146699E+02  0.00000000000E+00 0.  1.
         11    1    3    3    0    0 -0.32487242078E+01  0.15035416232E+01  0.10883481944E+01  0.37415703180E+01  0.51100000000E-03 0. -1.
        -11    1    3    3    0    0 -0.21914873117E+02 -0.45607001759E+01  0.11155144965E+02  0.25009976196E+02  0.51100000000E-03 0.  1.
         12    1    3    3    0    0 -0.45437905928E+01  0.18238839479E+02  0.10997717601E+02  0.21777306788E+02  0.00000000000E+00 0. -1.
</event>
<event>
 7    1  0.5839176E-013  0.5052886E+02  0.7816164E-02  0.1300439E+00
        -11   -1    0    0    0    0  0.00000000000E+00  0.00000000000E+00  0.45593999997E+02  0.45594000000E+02  0.51100000000E-03 0.  1.
         11   -1    0    0    0    0 -0.00000000000E+00 -0.00000000000E+00 -0.45593999997E+02  0.45594000000E+02  0.51100000000E-03 0. -1.
    9900012    2    1    2    0    0 -0.40548923047E+02  0.27314668425E+01 -0.12203843276E+01  0.50528863151E+02  0.30000010033E+02 0.  0.
        -12    1    1    2    0    0  0.40548923047E+02 -0.27314668425E+01  0.12203843276E+01  0.40659136849E+02  0.00000000000E+00 0.  1.
         11    1    3    3    0    0 -0.17652927396E+02  0.19383490378E+01  0.52845932794E+01  0.18528625665E+02  0.51100000000E-03 0. -1.
        -11    1    3    3    0    0 -0.10986337598E+02 -0.88184532476E+01  0.24044624699E+01  0.14291471986E+02  0.51100000000E-03 0.  1.
        -12    1    3    3    0    0 -0.11909658053E+02  0.96115710522E+01 -0.89094400768E+01  0.17708765500E+02  0.00000000000E+00 0.  1.
</event>
<event>
 7    1  0.5839176E-013  0.5052886E+02  0.7816164E-02  0.1300439E+00
        -11   -1    0    0    0    0  0.00000000000E+00  0.00000000000E+00  0.45593999997E+02  0.45594000000E+02  0.51100000000E-03 0.  1.
         11   -1    0    0    0    0 -0.00000000000E+00 -0.00000000000E+00 -0.45593999997E+02  0.45594000000E+02  0.51100000000E-03 0. -1.
    9900012    2    1    2    0    0 -0.47745942780E-01 -0.32246385269E+02 -0.24765583842E+02  0.50528858523E+02  0.29999995966E+02 0.  0.
        -12    1    1    2    0    0  0.47745942780E-01  0.32246385269E+02  0.24765583842E+02  0.40659141477E+02  0.00000000000E+00 0.  1.
         11    1    3    3    0    0 -0.10028738508E+02 -0.17689790129E+02 -0.45124046187E+01  0.20829451903E+02  0.51100000000E-03 0. -1.
        -11    1    3    3    0    0 -0.17627486771E+01 -0.70812747343E+01 -0.40816596180E+01  0.83613204854E+01  0.51100000000E-03 0.  1.
        -12    1    3    3    0    0  0.11743741242E+02 -0.74753204059E+01 -0.16171519605E+02  0.21338086135E+02  0.00000000000E+00 0.  1.
</event>
<event>
 7    1  0.5839176E-013  0.5052895E+02  0.7816164E-02  0.1300438E+00
        -11   -1    0    0    0    0  0.00000000000E+00  0.00000000000E+00  0.45593999997E+02  0.45594000000E+02  0.51100000000E-03 0.  1.
         11   -1    0    0    0    0 -0.00000000000E+00 -0.00000000000E+00 -0.45593999997E+02  0.45594000000E+02  0.51100000000E-03 0. -1.
    9900012    2    1    2    0    0 -0.33755003070E+02 -0.20851330659E+02 -0.88870958062E+01  0.50528945727E+02  0.30000261031E+02 0.  0.
        -12    1    1    2    0    0  0.33755003070E+02  0.20851330659E+02  0.88870958062E+01  0.40659054273E+02  0.00000000000E+00 0.  1.
         11    1    3    3    0    0 -0.12050235210E+02  0.33366293488E+01 -0.56059491952E+01  0.13702843890E+02  0.51100000000E-03 0. -1.
        -11    1    3    3    0    0 -0.17345132307E+02 -0.97169711403E+01  0.36254539886E+01  0.20209331008E+02  0.51100000000E-03 0.  1.
        -12    1    3    3    0    0 -0.43596355522E+01 -0.14470988868E+02 -0.69066005996E+01  0.16616770829E+02  0.00000000000E+00 0.  1.
</event>
<event>
 7    1  0.5839176E-013  0.5052887E+02  0.7816164E-02  0.1300439E+00
        -11   -1    0    0    0    0  0.00000000000E+00  0.00000000000E+00  0.45593999997E+02  0.45594000000E+02  0.51100000000E-03 0. -1.
         11   -1    0    0    0    0 -0.00000000000E+00 -0.00000000000E+00 -0.45593999997E+02  0.45594000000E+02  0.51100000000E-03 0.  1.
    9900012    2    1    2    0    0  0.33092578640E+02 -0.10389174782E+00  0.23622766889E+02  0.50528872242E+02  0.30000037668E+02 0.  0.
        -12    1    1    2    0    0 -0.33092578640E+02  0.10389174782E+00 -0.23622766889E+02  0.40659127758E+02  0.00000000000E+00 0.  1.
         11    1    3    3    0    0  0.10274915697E+02 -0.10891719297E+02  0.60230968984E+01  0.16139428068E+02  0.51100000000E-03 0. -1.
        -11    1    3    3    0    0  0.30717054650E+01 -0.27276420386E+01  0.72197258526E+01  0.83066146656E+01  0.51100000000E-03 0.  1.
        -12    1    3    3    0    0  0.19745957477E+02  0.13515469588E+02  0.10379944138E+02  0.26082829509E+02  0.00000000000E+00 0.  1.
</event>
<event>
 7    1  0.5839176E-013  0.5052886E+02  0.7816164E-02  0.1300439E+00
        -11   -1    0    0    0    0  0.00000000000E+00  0.00000000000E+00  0.45593999997E+02  0.45594000000E+02  0.51100000000E-03 0. -1.
         11   -1    0    0    0    0 -0.00000000000E+00 -0.00000000000E+00 -0.45593999997E+02  0.45594000000E+02  0.51100000000E-03 0.  1.
    9900012    2    1    2    0    0  0.39223908457E+02 -0.21374123745E+01 -0.10492015312E+02  0.50528856974E+02  0.29999991259E+02 0.  0.
        -12    1    1    2    0    0 -0.39223908457E+02  0.21374123745E+01  0.10492015312E+02  0.40659143026E+02  0.00000000000E+00 0.  1.
         11    1    3    3    0    0  0.33170281223E+02 -0.48781509676E+01 -0.16389752800E+02  0.37318734040E+02  0.51100000000E-03 0.  1.
        -11    1    3    3    0    0  0.20558243250E+01 -0.34626972220E+01  0.38021454141E+01  0.55383206586E+01  0.51100000000E-03 0. -1.
        -12    1    3    3    0    0  0.39978029090E+01  0.62034358151E+01  0.20955920740E+01  0.76718022753E+01  0.00000000000E+00 0.  1.
</event>
<event>
 7    1  0.5839176E-013  0.5052886E+02  0.7816164E-02  0.1300439E+00
        -11   -1    0    0    0    0  0.00000000000E+00  0.00000000000E+00  0.45593999997E+02  0.45594000000E+02  0.51100000000E-03 0.  1.
         11   -1    0    0    0    0 -0.00000000000E+00 -0.00000000000E+00 -0.45593999997E+02  0.45594000000E+02  0.51100000000E-03 0. -1.
    9900012    2    1    2    0    0 -0.28915831373E+02 -0.12611832629E+02 -0.25651165479E+02  0.50528856912E+02  0.29999991070E+02 0.  0.
        -12    1    1    2    0    0  0.28915831373E+02  0.12611832629E+02  0.25651165479E+02  0.40659143088E+02  0.00000000000E+00 0.  1.
         11    1    3    3    0    0 -0.14390751265E+02 -0.13100389632E+01 -0.18669165498E+02  0.23608211807E+02  0.51100000000E-03 0. -1.
        -11    1    3    3    0    0 -0.16036426351E+02 -0.12051452950E+02 -0.10774042583E+02  0.22770254328E+02  0.51100000000E-03 0.  1.
        -12    1    3    3    0    0  0.15113462430E+01  0.74965928350E+00  0.37920426027E+01  0.41503907778E+01  0.00000000000E+00 0.  1.
</event>
<event>
 7    1  0.5839176E-013  0.5052887E+02  0.7816164E-02  0.1300439E+00
        -11   -1    0    0    0    0  0.00000000000E+00  0.00000000000E+00  0.45593999997E+02  0.45594000000E+02  0.51100000000E-03 0.  1.
         11   -1    0    0    0    0 -0.00000000000E+00 -0.00000000000E+00 -0.45593999997E+02  0.45594000000E+02  0.51100000000E-03 0. -1.
    9900012    2    1    2    0    0 -0.37089414751E+02  0.57779830216E+01  0.15625471816E+02  0.50528866416E+02  0.30000019957E+02 0.  0.
        -12    1    1    2    0    0  0.37089414751E+02 -0.57779830216E+01 -0.15625471816E+02  0.40659133584E+02  0.00000000000E+00 0.  1.
         11    1    3    3    0    0 -0.71709408469E+01  0.69578511707E+01  0.27968506395E+01  0.10375763071E+02  0.51100000000E-03 0. -1.
        -11    1    3    3    0    0  0.25632558360E+01  0.43219731478E+01  0.83710934344E+00  0.50941618236E+01  0.51100000000E-03 0.  1.
         12    1    3    3    0    0 -0.32481729740E+02 -0.55018412969E+01  0.11991511833E+02  0.35058941521E+02  0.00000000000E+00 0. -1.
</event>
<event>
 7    1  0.6731945E-013  0.5052886E+02  0.7816164E-02  0.1300439E+00
        -11   -1    0    0    0    0  0.00000000000E+00  0.00000000000E+00  0.45593999997E+02  0.45594000000E+02  0.51100000000E-03 0. -1.
         11   -1    0    0    0    0 -0.00000000000E+00 -0.00000000000E+00 -0.45593999997E+02  0.45594000000E+02  0.51100000000E-03 0.  1.
    9900012    2    1    2    0    0 -0.33810859423E+02 -0.18447128856E+02  0.13026687037E+02  0.50528863842E+02  0.30000012134E+02 0.  0.
        -12    1    1    2    0    0  0.33810859423E+02  0.18447128856E+02 -0.13026687037E+02  0.40659136158E+02  0.00000000000E+00 0.  1.
         11    1    3    3    0    0 -0.17044319704E+02 -0.17725405169E+02  0.85104688684E+01  0.26021662191E+02  0.51100000000E-03 0. -1.
        -11    1    3    3    0    0 -0.16951760317E+02 -0.65800210947E+01  0.27881332125E+01  0.18396536156E+02  0.51100000000E-03 0.  1.
        -12    1    3    3    0    0  0.18522059855E+00  0.58582974069E+01  0.17280849565E+01  0.61106654953E+01  0.00000000000E+00 0.  1.
</event>
<event>
 7    1  0.5839176E-013  0.5052886E+02  0.7816164E-02  0.1300439E+00
        -11   -1    0    0    0    0  0.00000000000E+00  0.00000000000E+00  0.45593999997E+02  0.45594000000E+02  0.51100000000E-03 0.  1.
         11   -1    0    0    0    0 -0.00000000000E+00 -0.00000000000E+00 -0.45593999997E+02  0.45594000000E+02  0.51100000000E-03 0. -1.
    9900012    2    1    2    0    0  0.23843986573E+02 -0.11431134134E+02 -0.30886230335E+02  0.50528858991E+02  0.29999997389E+02 0.  0.
        -12    1    1    2    0    0 -0.23843986573E+02  0.11431134134E+02  0.30886230335E+02  0.40659141009E+02  0.00000000000E+00 0.  1.
         11    1    3    3    0    0 -0.30699787368E+01  0.19251900391E+01 -0.13293902236E+02  0.13778931854E+02  0.51100000000E-03 0. -1.
        -11    1    3    3    0    0  0.65743186311E+01 -0.14820929690E+01 -0.98948893652E+01  0.11971929704E+02  0.51100000000E-03 0.  1.
        -12    1    3    3    0    0  0.20339646679E+02 -0.11874231204E+02 -0.76974387343E+01  0.24777997432E+02  0.00000000000E+00 0.  1.
</event>
<event>
 7    1  0.5839176E-013  0.5052887E+02  0.7816164E-02  0.1300439E+00
        -11   -1    0    0    0    0  0.00000000000E+00  0.00000000000E+00  0.45593999997E+02  0.45594000000E+02  0.51100000000E-03 0. -1.
         11   -1    0    0    0    0 -0.00000000000E+00 -0.00000000000E+00 -0.45593999997E+02  0.45594000000E+02  0.51100000000E-03 0.  1.
    9900012    2    1    2    0    0  0.13852493150E+02 -0.10385562574E+02  0.36788767414E+02  0.50528869608E+02  0.30000029660E+02 0.  0.
        -12    1    1    2    0    0 -0.13852493150E+02  0.10385562574E+02 -0.36788767414E+02  0.40659130392E+02  0.00000000000E+00 0.  1.
         11    1    3    3    0    0 -0.28573708277E+01  0.73310738574E+00  0.64216294003E+01  0.70667771226E+01  0.51100000000E-03 0. -1.
        -11    1    3    3    0    0 -0.29415034887E+01  0.76436411806E+00  0.16191963269E+02  0.16474719118E+02  0.51100000000E-03 0.  1.
        -12    1    3    3    0    0  0.19651367466E+02 -0.11883034078E+02  0.14175174745E+02  0.26987373367E+02  0.00000000000E+00 0.  1.
</event>
<event>
 7    1  0.5839176E-013  0.5052881E+02  0.7816164E-02  0.1300439E+00
        -11   -1    0    0    0    0  0.00000000000E+00  0.00000000000E+00  0.45593999997E+02  0.45594000000E+02  0.51100000000E-03 0. -1.
         11   -1    0    0    0    0 -0.00000000000E+00 -0.00000000000E+00 -0.45593999997E+02  0.45594000000E+02  0.51100000000E-03 0.  1.
    9900012    2    1    2    0    0 -0.13658161624E+02 -0.38282518169E+02  0.10359122911E+01  0.50528810502E+02  0.29999850003E+02 0.  0.
        -12    1    1    2    0    0  0.13658161624E+02  0.38282518169E+02 -0.10359122911E+01  0.40659189498E+02  0.00000000000E+00 0.  1.
         11    1    3    3    0    0 -0.10569444011E+02 -0.28865055625E+02  0.82358752531E+01  0.31823485421E+02  0.51100000000E-03 0. -1.
        -11    1    3    3    0    0 -0.29050382015E+01 -0.28627518851E+01  0.40091591221E+01  0.57190866784E+01  0.51100000000E-03 0.  1.
        -12    1    3    3    0    0 -0.18367941148E+00 -0.65547106594E+01 -0.11209122084E+02  0.12986238403E+02  0.00000000000E+00 0.  1.
</event>
<event>
 7    1  0.5839176E-013  0.5052884E+02  0.7816164E-02  0.1300439E+00
        -11   -1    0    0    0    0  0.00000000000E+00  0.00000000000E+00  0.45593999997E+02  0.45594000000E+02  0.51100000000E-03 0. -1.
         11   -1    0    0    0    0 -0.00000000000E+00 -0.00000000000E+00 -0.45593999997E+02  0.45594000000E+02  0.51100000000E-03 0.  1.
    9900012    2    1    2    0    0 -0.57626686167E+01  0.15596209826E+02 -0.37104138423E+02  0.50528841147E+02  0.29999943149E+02 0.  0.
        -12    1    1    2    0    0  0.57626686167E+01 -0.15596209826E+02  0.37104138423E+02  0.40659158853E+02  0.00000000000E+00 0.  1.
         11    1    3    3    0    0  0.83008569357E+01  0.48823281015E+01 -0.81491488175E+01  0.12615465916E+02  0.51100000000E-03 0. -1.
        -11    1    3    3    0    0  0.13802794754E+01 -0.28894775169E+01 -0.76409543283E+01  0.82848316253E+01  0.51100000000E-03 0.  1.
         12    1    3    3    0    0 -0.15443805028E+02  0.13603359241E+02 -0.21314035278E+02  0.29628543606E+02  0.00000000000E+00 0. -1.
</event>
<event>
 7    1  0.5839176E-013  0.5052886E+02  0.7816164E-02  0.1300439E+00
        -11   -1    0    0    0    0  0.00000000000E+00  0.00000000000E+00  0.45593999997E+02  0.45594000000E+02  0.51100000000E-03 0. -1.
         11   -1    0    0    0    0 -0.00000000000E+00 -0.00000000000E+00 -0.45593999997E+02  0.45594000000E+02  0.51100000000E-03 0.  1.
    9900012    2    1    2    0    0  0.75742264382E+01  0.55833150310E+00  0.39943526516E+02  0.50528856493E+02  0.29999989796E+02 0.  0.
        -12    1    1    2    0    0 -0.75742264382E+01 -0.55833150310E+00 -0.39943526516E+02  0.40659143507E+02  0.00000000000E+00 0.  1.
         11    1    3    3    0    0  0.13083218497E+01  0.45949842071E+01 -0.13133789112E+01  0.49548511937E+01  0.51100000000E-03 0. -1.
        -11    1    3    3    0    0  0.13762590472E+01 -0.54209410564E+01  0.19246381874E+01  0.59148054335E+01  0.51100000000E-03 0.  1.
         12    1    3    3    0    0  0.48896455413E+01  0.13842883525E+01  0.39332267240E+02  0.39659199866E+02  0.00000000000E+00 0. -1.
</event>
<event>
 7    1  0.5839176E-013  0.5052886E+02  0.7816164E-02  0.1300439E+00
        -11   -1    0    0    0    0  0.00000000000E+00  0.00000000000E+00  0.45593999997E+02  0.45594000000E+02  0.51100000000E-03 0. -1.
         11   -1    0    0    0    0 -0.00000000000E+00 -0.00000000000E+00 -0.45593999997E+02  0.45594000000E+02  0.51100000000E-03 0.  1.
    9900012    2    1    2    0    0  0.88289590340E+01  0.34137551939E+02  0.20244579121E+02  0.50528856455E+02  0.29999989680E+02 0.  0.
        -12    1    1    2    0    0 -0.88289590340E+01 -0.34137551939E+02 -0.20244579121E+02  0.40659143545E+02  0.00000000000E+00 0.  1.
         11    1    3    3    0    0  0.11572972577E+02  0.61599890215E+01  0.11230876239E+02  0.17263016549E+02  0.51100000000E-03 0. -1.
        -11    1    3    3    0    0 -0.64983777986E+01  0.44714699591E+01  0.43540575890E+01  0.90100374781E+01  0.51100000000E-03 0.  1.
         12    1    3    3    0    0  0.37543642552E+01  0.23506092959E+02  0.46596452931E+01  0.24255802427E+02  0.00000000000E+00 0. -1.
</event>
<event>
 7    1  0.5839176E-013  0.5052886E+02  0.7816164E-02  0.1300439E+00
        -11   -1    0    0    0    0  0.00000000000E+00  0.00000000000E+00  0.45593999997E+02  0.45594000000E+02  0.51100000000E-03 0.  1.
         11   -1    0    0    0    0 -0.00000000000E+00 -0.00000000000E+00 -0.45593999997E+02  0.45594000000E+02  0.51100000000E-03 0. -1.
    9900012    2    1    2    0    0 -0.11187894867E+02  0.12506336824E+02 -0.37034961445E+02  0.50528858082E+02  0.29999994625E+02 0.  0.
        -12    1    1    2    0    0  0.11187894867E+02 -0.12506336824E+02  0.37034961445E+02  0.40659141918E+02  0.00000000000E+00 0.  1.
         11    1    3    3    0    0  0.47905816080E+01 -0.14959207993E+01 -0.16239768393E+02  0.16997574206E+02  0.51100000000E-03 0. -1.
        -11    1    3    3    0    0  0.22695450544E+01 -0.45120647847E+00 -0.46741007536E+01  0.52155191645E+01  0.51100000000E-03 0.  1.
        -12    1    3    3    0    0 -0.18248021529E+02  0.14453464102E+02 -0.16121092298E+02  0.28315764711E+02  0.00000000000E+00 0.  1.
</event>
<event>
 7    1  0.5839176E-013  0.5052886E+02  0.7816164E-02  0.1300439E+00
        -11   -1    0    0    0    0  0.00000000000E+00  0.00000000000E+00  0.45593999997E+02  0.45594000000E+02  0.51100000000E-03 0.  1.
         11   -1    0    0    0    0 -0.00000000000E+00 -0.00000000000E+00 -0.45593999997E+02  0.45594000000E+02  0.51100000000E-03 0. -1.
    9900012    2    1    2    0    0  0.54920575418E+01  0.30476820594E+02 -0.26347037530E+02  0.50528859870E+02  0.30000000060E+02 0.  0.
        -12    1    1    2    0    0 -0.54920575418E+01 -0.30476820594E+02  0.26347037530E+02  0.40659140130E+02  0.00000000000E+00 0.  1.
         11    1    3    3    0    0  0.14541582540E+01  0.65576885554E+00 -0.31966140759E+01  0.35725272331E+01  0.51100000000E-03 0. -1.
        -11    1    3    3    0    0 -0.45461897308E+01 -0.33244032280E+01 -0.11903299212E-01  0.56320191620E+01  0.51100000000E-03 0.  1.
         12    1    3    3    0    0  0.85840890187E+01  0.33145454966E+02 -0.23138520155E+02  0.41324313475E+02  0.00000000000E+00 0. -1.
</event>
<event>
 7    1  0.5839176E-013  0.5052886E+02  0.7816164E-02  0.1300439E+00
        -11   -1    0    0    0    0  0.00000000000E+00  0.00000000000E+00  0.45593999997E+02  0.45594000000E+02  0.51100000000E-03 0. -1.
         11   -1    0    0    0    0 -0.00000000000E+00 -0.00000000000E+00 -0.45593999997E+02  0.45594000000E+02  0.51100000000E-03 0.  1.
    9900012    2    1    2    0    0  0.10044294288E+02  0.38816185894E+02  0.67514362663E+01  0.50528855558E+02  0.29999986954E+02 0.  0.
        -12    1    1    2    0    0 -0.10044294288E+02 -0.38816185894E+02 -0.67514362663E+01  0.40659144442E+02  0.00000000000E+00 0.  1.
         11    1    3    3    0    0 -0.71666529560E+00  0.10475392084E+02  0.77338739588E+01  0.13040715284E+02  0.51100000000E-03 0. -1.
        -11    1    3    3    0    0  0.11047881589E+02  0.31971759708E+02 -0.68427016290E+00  0.33833671576E+02  0.51100000000E-03 0.  1.
        -12    1    3    3    0    0 -0.28692200562E+00 -0.36309658975E+01 -0.29816752959E+00  0.36544686976E+01  0.00000000000E+00 0.  1.
</event>
<event>
 7    1  0.5839176E-013  0.5052885E+02  0.7816164E-02  0.1300439E+00
        -11   -1    0    0    0    0  0.00000000000E+00  0.00000000000E+00  0.45593999997E+02  0.45594000000E+02  0.51100000000E-03 0.  1.
         11   -1    0    0    0    0 -0.00000000000E+00 -0.00000000000E+00 -0.45593999997E+02  0.45594000000E+02  0.51100000000E-03 0. -1.
    9900012    2    1    2    0    0 -0.19365321564E+02  0.23993080947E+01 -0.35670638917E+02  0.50528845565E+02  0.29999956581E+02 0.  0.
        -12    1    1    2    0    0  0.19365321564E+02 -0.23993080947E+01  0.35670638917E+02  0.40659154435E+02  0.00000000000E+00 0.  1.
         11    1    3    3    0    0  0.28855059409E+01 -0.29196086245E+01 -0.13717155573E+02  0.14318191796E+02  0.51100000000E-03 0. -1.
        -11    1    3    3    0    0 -0.54818430264E+01 -0.44317073442E+01 -0.18236118107E+00  0.70515167739E+01  0.51100000000E-03 0.  1.
         12    1    3    3    0    0 -0.16768984478E+02  0.97506240634E+01 -0.21771122163E+02  0.29159136995E+02  0.00000000000E+00 0. -1.
</event>
<event>
 7    1  0.5839176E-013  0.5052890E+02  0.7816164E-02  0.1300439E+00
        -11   -1    0    0    0    0  0.00000000000E+00  0.00000000000E+00  0.45593999997E+02  0.45594000000E+02  0.51100000000E-03 0.  1.
         11   -1    0    0    0    0 -0.00000000000E+00 -0.00000000000E+00 -0.45593999997E+02  0.45594000000E+02  0.51100000000E-03 0. -1.
    9900012    2    1    2    0    0 -0.70815986792E+01 -0.20593494527E+02 -0.34335428929E+02  0.50528896020E+02  0.30000109942E+02 0.  0.
        -12    1    1    2    0    0  0.70815986792E+01  0.20593494527E+02  0.34335428929E+02  0.40659103980E+02  0.00000000000E+00 0.  1.
         11    1    3    3    0    0  0.28007040708E+01 -0.20456065944E+01 -0.28739858796E+01  0.45042474098E+01  0.51100000000E-03 0. -1.
        -11    1    3    3    0    0  0.31960363812E+01 -0.12834114243E+01  0.34920293509E+01  0.49046980215E+01  0.51100000000E-03 0.  1.
         12    1    3    3    0    0 -0.13078339131E+02 -0.17264476508E+02 -0.34953472401E+02  0.41119950589E+02  0.00000000000E+00 0. -1.
</event>
<event>
 7    1  0.5839176E-013  0.5052876E+02  0.7816164E-02  0.1300439E+00
        -11   -1    0    0    0    0  0.00000000000E+00  0.00000000000E+00  0.45593999997E+02  0.45594000000E+02  0.51100000000E-03 0.  1.
         11   -1    0    0    0    0 -0.00000000000E+00 -0.00000000000E+00 -0.45593999997E+02  0.45594000000E+02  0.51100000000E-03 0. -1.
    9900012    2    1    2    0    0  0.40457180863E+02  0.23262139124E+00 -0.40418162152E+01  0.50528759053E+02  0.29999693615E+02 0.  0.
        -12    1    1    2    0    0 -0.40457180863E+02 -0.23262139124E+00  0.40418162152E+01  0.40659240947E+02  0.00000000000E+00 0.  1.
         11    1    3    3    0    0  0.12830913354E+02 -0.50371777050E+01  0.29275963765E+01  0.14091710952E+02  0.51100000000E-03 0. -1.
        -11    1    3    3    0    0  0.68061809142E+01 -0.32825429003E+00  0.77593949617E+01  0.10326667417E+02  0.51100000000E-03 0.  1.
         12    1    3    3    0    0  0.20820086594E+02  0.55980533862E+01 -0.14728807553E+02  0.26110380684E+02  0.00000000000E+00 0. -1.
</event>
<event>
 7    1  0.5839176E-013  0.5052884E+02  0.7816164E-02  0.1300439E+00
        -11   -1    0    0    0    0  0.00000000000E+00  0.00000000000E+00  0.45593999997E+02  0.45594000000E+02  0.51100000000E-03 0.  1.
         11   -1    0    0    0    0 -0.00000000000E+00 -0.00000000000E+00 -0.45593999997E+02  0.45594000000E+02  0.51100000000E-03 0. -1.
    9900012    2    1    2    0    0  0.29688764783E+02  0.20168348717E+01 -0.27706987357E+02  0.50528837126E+02  0.29999930927E+02 0.  0.
        -12    1    1    2    0    0 -0.29688764783E+02 -0.20168348717E+01  0.27706987357E+02  0.40659162874E+02  0.00000000000E+00 0.  1.
         11    1    3    3    0    0  0.10359345740E+02  0.49744889864E+01 -0.16344644233E+02  0.19980214719E+02  0.51100000000E-03 0. -1.
        -11    1    3    3    0    0  0.98617720495E+01 -0.22495563669E+01 -0.16798175327E+02  0.19608512090E+02  0.51100000000E-03 0.  1.
        -12    1    3    3    0    0  0.94676469935E+01 -0.70809774787E+00  0.54358322029E+01  0.10940110317E+02  0.00000000000E+00 0.  1.
</event>
<event>
 7    1  0.5839176E-013  0.5052885E+02  0.7816164E-02  0.1300439E+00
        -11   -1    0    0    0    0  0.00000000000E+00  0.00000000000E+00  0.45593999997E+02  0.45594000000E+02  0.51100000000E-03 0.  1.
         11   -1    0    0    0    0 -0.00000000000E+00 -0.00000000000E+00 -0.45593999997E+02  0.45594000000E+02  0.51100000000E-03 0. -1.
    9900012    2    1    2    0    0 -0.20079439218E+02  0.28014409926E+02 -0.21567917456E+02  0.50528854581E+02  0.29999983986E+02 0.  0.
        -12    1    1    2    0    0  0.20079439218E+02 -0.28014409926E+02  0.21567917456E+02  0.40659145419E+02  0.00000000000E+00 0.  1.
         11    1    3    3    0    0  0.53110924066E+00  0.58363726586E+01  0.13053299794E+01  0.60040993872E+01  0.51100000000E-03 0. -1.
        -11    1    3    3    0    0 -0.32101214775E+01  0.20455342486E+02 -0.12886733418E+02  0.24388395080E+02  0.51100000000E-03 0.  1.
         12    1    3    3    0    0 -0.17400426981E+02  0.17226947807E+01 -0.99865140175E+01  0.20136360114E+02  0.00000000000E+00 0. -1.
</event>
<event>
 7    1  0.5839176E-013  0.5052886E+02  0.7816164E-02  0.1300439E+00
        -11   -1    0    0    0    0  0.00000000000E+00  0.00000000000E+00  0.45593999997E+02  0.45594000000E+02  0.51100000000E-03 0.  1.
         11   -1    0    0    0    0 -0.00000000000E+00 -0.00000000000E+00 -0.45593999997E+02  0.45594000000E+02  0.51100000000E-03 0. -1.
    9900012    2    1    2    0    0 -0.36639253856E+02 -0.17202497252E+02 -0.38477047728E+01  0.50528859984E+02  0.30000000407E+02 0.  0.
        -12    1    1    2    0    0  0.36639253856E+02  0.17202497252E+02  0.38477047728E+01  0.40659140016E+02  0.00000000000E+00 0.  1.
         11    1    3    3    0    0 -0.13503537878E+02 -0.10723356093E+02 -0.45471759729E+01  0.17832910887E+02  0.51100000000E-03 0.  1.
        -11    1    3    3    0    0 -0.21632467747E+02  0.37926584919E+01  0.26870156229E+01  0.22126182962E+02  0.51100000000E-03 0. -1.
         12    1    3    3    0    0 -0.15032482314E+01 -0.10271799651E+02 -0.19875444227E+01  0.10569766135E+02  0.00000000000E+00 0. -1.
</event>
<event>
 7    1  0.5839176E-013  0.5052882E+02  0.7816164E-02  0.1300439E+00
        -11   -1    0    0    0    0  0.00000000000E+00  0.00000000000E+00  0.45593999997E+02  0.45594000000E+02  0.51100000000E-03 0. -1.
         11   -1    0    0    0    0 -0.00000000000E+00 -0.00000000000E+00 -0.45593999997E+02  0.45594000000E+02  0.51100000000E-03 0.  1.
    9900012    2    1    2    0    0  0.15416924764E+02  0.31391279439E+02 -0.20738247136E+02  0.50528820369E+02  0.29999879994E+02 0.  0.
        -12    1    1    2    0    0 -0.15416924764E+02 -0.31391279439E+02  0.20738247136E+02  0.40659179631E+02  0.00000000000E+00 0.  1.
         11    1    3    3    0    0  0.48019040876E+01  0.12747172791E+02 -0.92363490975E+01  0.16457789704E+02  0.51100000000E-03 0. -1.
        -11    1    3    3    0    0 -0.55626872770E+01  0.13239992629E+02 -0.86864146497E+01  0.16783762817E+02  0.51100000000E-03 0.  1.
         12    1    3    3    0    0  0.16177707953E+02  0.54041140184E+01 -0.28154833893E+01  0.17287267848E+02  0.00000000000E+00 0. -1.
</event>
<event>
 7    1  0.5839176E-013  0.5052886E+02  0.7816164E-02  0.1300439E+00
        -11   -1    0    0    0    0  0.00000000000E+00  0.00000000000E+00  0.45593999997E+02  0.45594000000E+02  0.51100000000E-03 0. -1.
         11   -1    0    0    0    0 -0.00000000000E+00 -0.00000000000E+00 -0.45593999997E+02  0.45594000000E+02  0.51100000000E-03 0.  1.
    9900012    2    1    2    0    0  0.17018301169E+02  0.36678993335E+02  0.42655179992E+01  0.50528858708E+02  0.29999996530E+02 0.  0.
        -12    1    1    2    0    0 -0.17018301169E+02 -0.36678993335E+02 -0.42655179992E+01  0.40659141292E+02  0.00000000000E+00 0.  1.
         11    1    3    3    0    0  0.93948465995E+01  0.10990710887E+02 -0.25876098941E+01  0.14688587190E+02  0.51100000000E-03 0. -1.
        -11    1    3    3    0    0  0.91202000415E+01  0.62504808300E+01 -0.59116805706E+01  0.12537724149E+02  0.51100000000E-03 0.  1.
         12    1    3    3    0    0 -0.14967454717E+01  0.19437801618E+02  0.12764808464E+02  0.23302547369E+02  0.00000000000E+00 0. -1.
</event>
<event>
 7    1  0.5839176E-013  0.5052889E+02  0.7816164E-02  0.1300439E+00
        -11   -1    0    0    0    0  0.00000000000E+00  0.00000000000E+00  0.45593999997E+02  0.45594000000E+02  0.51100000000E-03 0. -1.
         11   -1    0    0    0    0 -0.00000000000E+00 -0.00000000000E+00 -0.45593999997E+02  0.45594000000E+02  0.51100000000E-03 0.  1.
    9900012    2    1    2    0    0 -0.11677558927E+02  0.34598535501E+02  0.17881255845E+02  0.50528888452E+02  0.30000086937E+02 0.  0.
        -12    1    1    2    0    0  0.11677558927E+02 -0.34598535501E+02 -0.17881255845E+02  0.40659111548E+02  0.00000000000E+00 0.  1.
         11    1    3    3    0    0 -0.73685006495E+01  0.10757896742E+02 -0.17720635612E+01  0.13159306732E+02  0.51100000000E-03 0. -1.
        -11    1    3    3    0    0  0.12373939837E+01  0.24526530769E+01 -0.40956295868E+01  0.49316156541E+01  0.51100000000E-03 0.  1.
         12    1    3    3    0    0 -0.55464522612E+01  0.21387985682E+02  0.23748948993E+02  0.32437966066E+02  0.00000000000E+00 0. -1.
</event>
<event>
 7    1  0.5839176E-013  0.5052888E+02  0.7816164E-02  0.1300439E+00
        -11   -1    0    0    0    0  0.00000000000E+00  0.00000000000E+00  0.45593999997E+02  0.45594000000E+02  0.51100000000E-03 0. -1.
         11   -1    0    0    0    0 -0.00000000000E+00 -0.00000000000E+00 -0.45593999997E+02  0.45594000000E+02  0.51100000000E-03 0.  1.
    9900012    2    1    2    0    0  0.16973758402E+02 -0.35052852999E+02 -0.11677043907E+02  0.50528876398E+02  0.30000050300E+02 0.  0.
        -12    1    1    2    0    0 -0.16973758402E+02  0.35052852999E+02  0.11677043907E+02  0.40659123602E+02  0.00000000000E+00 0.  1.
         11    1    3    3    0    0  0.94066256772E+01 -0.26131503703E+02  0.49109179364E+01  0.28203850936E+02  0.51100000000E-03 0. -1.
        -11    1    3    3    0    0  0.21920754894E+01 -0.35167307386E+01 -0.82838986015E-01  0.41448103211E+01  0.51100000000E-03 0.  1.
        -12    1    3    3    0    0  0.53750572352E+01 -0.54046185576E+01 -0.16505122857E+02  0.18180215141E+02  0.00000000000E+00 0.  1.
</event>
<event>
 7    1  0.5839176E-013  0.5052886E+02  0.7816164E-02  0.1300439E+00
        -11   -1    0    0    0    0  0.00000000000E+00  0.00000000000E+00  0.45593999997E+02  0.45594000000E+02  0.51100000000E-03 0. -1.
         11   -1    0    0    0    0 -0.00000000000E+00 -0.00000000000E+00 -0.45593999997E+02  0.45594000000E+02  0.51100000000E-03 0.  1.
    9900012    2    1    2    0    0 -0.25070599321E+02  0.22838512165E+00  0.32009042614E+02  0.50528856881E+02  0.29999990977E+02 0.  0.
        -12    1    1    2    0    0  0.25070599321E+02 -0.22838512165E+00 -0.32009042614E+02  0.40659143119E+02  0.00000000000E+00 0.  1.
         11    1    3    3    0    0 -0.21202797412E+02  0.24636480039E+01  0.16793286907E+02  0.27159577776E+02  0.51100000000E-03 0. -1.
        -11    1    3    3    0    0 -0.17267501682E+01 -0.64749697607E+01 -0.72087705623E+00  0.67399231105E+01  0.51100000000E-03 0.  1.
         12    1    3    3    0    0 -0.21410517412E+01  0.42397068784E+01  0.15936632764E+02  0.16629355995E+02  0.00000000000E+00 0. -1.
</event>
<event>
 7    1  0.5839176E-013  0.5052885E+02  0.7816164E-02  0.1300439E+00
        -11   -1    0    0    0    0  0.00000000000E+00  0.00000000000E+00  0.45593999997E+02  0.45594000000E+02  0.51100000000E-03 0.  1.
         11   -1    0    0    0    0 -0.00000000000E+00 -0.00000000000E+00 -0.45593999997E+02  0.45594000000E+02  0.51100000000E-03 0. -1.
    9900012    2    1    2    0    0 -0.33490192393E+01 -0.23379240527E+02 -0.33096244857E+02  0.50528852922E+02  0.29999978941E+02 0.  0.
        -12    1    1    2    0    0  0.33490192393E+01  0.23379240527E+02  0.33096244857E+02  0.40659147078E+02  0.00000000000E+00 0.  1.
         11    1    3    3    0    0 -0.13439722303E+02 -0.16315289060E+02 -0.23038745565E+02  0.31266573048E+02  0.51100000000E-03 0. -1.
        -11    1    3    3    0    0 -0.10366899623E+01 -0.30172650511E+01  0.69836150649E+00  0.32659337901E+01  0.51100000000E-03 0.  1.
         12    1    3    3    0    0  0.11127393026E+02 -0.40466864153E+01 -0.10755860799E+02  0.15996346083E+02  0.00000000000E+00 0. -1.
</event>
<event>
 7    1  0.5839176E-013  0.5052886E+02  0.7816164E-02  0.1300439E+00
        -11   -1    0    0    0    0  0.00000000000E+00  0.00000000000E+00  0.45593999997E+02  0.45594000000E+02  0.51100000000E-03 0.  1.
         11   -1    0    0    0    0 -0.00000000000E+00 -0.00000000000E+00 -0.45593999997E+02  0.45594000000E+02  0.51100000000E-03 0. -1.
    9900012    2    1    2    0    0  0.25579688277E+02 -0.26532721095E+02 -0.17171496414E+02  0.50528855516E+02  0.29999986828E+02 0.  0.
        -12    1    1    2    0    0 -0.25579688277E+02  0.26532721095E+02  0.17171496414E+02  0.40659144484E+02  0.00000000000E+00 0.  1.
         11    1    3    3    0    0 -0.11680420417E+01  0.28437510280E+01 -0.23532762920E+01  0.38715825819E+01  0.51100000000E-03 0. -1.
        -11    1    3    3    0    0 -0.58378259981E+00  0.89117762172E+00  0.22177485141E+01  0.24603675356E+01  0.51100000000E-03 0.  1.
         12    1    3    3    0    0  0.27331512919E+02 -0.30267649744E+02 -0.17035968636E+02  0.44196905399E+02  0.00000000000E+00 0. -1.
</event>
<event>
 7    1  0.5839176E-013  0.5052886E+02  0.7816164E-02  0.1300439E+00
        -11   -1    0    0    0    0  0.00000000000E+00  0.00000000000E+00  0.45593999997E+02  0.45594000000E+02  0.51100000000E-03 0. -1.
         11   -1    0    0    0    0 -0.00000000000E+00 -0.00000000000E+00 -0.45593999997E+02  0.45594000000E+02  0.51100000000E-03 0.  1.
    9900012    2    1    2    0    0 -0.36002715951E+02  0.98247116755E+01  0.16138307824E+02  0.50528862100E+02  0.30000006840E+02 0.  0.
        -12    1    1    2    0    0  0.36002715951E+02 -0.98247116755E+01 -0.16138307824E+02  0.40659137900E+02  0.00000000000E+00 0.  1.
         11    1    3    3    0    0 -0.14894680546E+02  0.94036133451E+01  0.35401149001E+01  0.17966965973E+02  0.51100000000E-03 0. -1.
        -11    1    3    3    0    0 -0.16318685764E+02  0.98371733044E+01  0.10620317415E+02  0.21814229896E+02  0.51100000000E-03 0.  1.
        -12    1    3    3    0    0 -0.47893496408E+01 -0.94160749739E+01  0.19778755091E+01  0.10747666232E+02  0.00000000000E+00 0.  1.
</event>
<event>
 7    1  0.5839176E-013  0.5052886E+02  0.7816164E-02  0.1300439E+00
        -11   -1    0    0    0    0  0.00000000000E+00  0.00000000000E+00  0.45593999997E+02  0.45594000000E+02  0.51100000000E-03 0.  1.
         11   -1    0    0    0    0 -0.00000000000E+00 -0.00000000000E+00 -0.45593999997E+02  0.45594000000E+02  0.51100000000E-03 0. -1.
    9900012    2    1    2    0    0  0.27134673350E+02  0.19395176426E+01 -0.30217766684E+02  0.50528860193E+02  0.30000001043E+02 0.  0.
        -12    1    1    2    0    0 -0.27134673350E+02 -0.19395176426E+01  0.30217766684E+02  0.40659139807E+02  0.00000000000E+00 0.  1.
         11    1    3    3    0    0  0.72042250891E+01 -0.81185050768E+01 -0.57354371039E+01  0.12276246285E+02  0.51100000000E-03 0. -1.
        -11    1    3    3    0    0  0.69342337579E+00  0.10015632010E+02 -0.10031823734E+02  0.14192646273E+02  0.51100000000E-03 0.  1.
         12    1    3    3    0    0  0.19237024885E+02  0.42390709028E-01 -0.14450505846E+02  0.24059967635E+02  0.00000000000E+00 0. -1.
</event>
<event>
 7    1  0.5839176E-013  0.5052886E+02  0.7816164E-02  0.1300439E+00
        -11   -1    0    0    0    0  0.00000000000E+00  0.00000000000E+00  0.45593999997E+02  0.45594000000E+02  0.51100000000E-03 0.  1.
         11   -1    0    0    0    0 -0.00000000000E+00 -0.00000000000E+00 -0.45593999997E+02  0.45594000000E+02  0.51100000000E-03 0. -1.
    9900012    2    1    2    0    0 -0.97496806931E+00 -0.37524683504E+02 -0.15624134457E+02  0.50528855735E+02  0.29999987493E+02 0.  0.
        -12    1    1    2    0    0  0.97496806931E+00  0.37524683504E+02  0.15624134457E+02  0.40659144265E+02  0.00000000000E+00 0.  1.
         11    1    3    3    0    0  0.68450435420E+01 -0.27254872861E+01 -0.32006178785E+00  0.73746418115E+01  0.51100000000E-03 0. -1.
        -11    1    3    3    0    0 -0.64071202322E+00  0.37405558995E+00  0.28369598179E+01  0.29323660669E+01  0.51100000000E-03 0.  1.
         12    1    3    3    0    0 -0.71792995881E+01 -0.35173251808E+02 -0.18141032487E+02  0.40221847857E+02  0.00000000000E+00 0. -1.
</event>
<event>
 7    1  0.5839176E-013  0.5052886E+02  0.7816164E-02  0.1300439E+00
        -11   -1    0    0    0    0  0.00000000000E+00  0.00000000000E+00  0.45593999997E+02  0.45594000000E+02  0.51100000000E-03 0.  1.
         11   -1    0    0    0    0 -0.00000000000E+00 -0.00000000000E+00 -0.45593999997E+02  0.45594000000E+02  0.51100000000E-03 0. -1.
    9900012    2    1    2    0    0 -0.76938696211E+01 -0.13357678695E+01 -0.39902197748E+02  0.50528864610E+02  0.30000014469E+02 0.  0.
        -12    1    1    2    0    0  0.76938696211E+01  0.13357678695E+01  0.39902197748E+02  0.40659135390E+02  0.00000000000E+00 0.  1.
         11    1    3    3    0    0 -0.56136627577E+00  0.14397616254E+01  0.97568110864E+00  0.18275665570E+01  0.51100000000E-03 0. -1.
        -11    1    3    3    0    0  0.72181923625E+01  0.38532869637E+01 -0.52440040953E+01  0.97185235822E+01  0.51100000000E-03 0.  1.
         12    1    3    3    0    0 -0.14350695708E+02 -0.66288164586E+01 -0.35633874761E+02  0.38982774471E+02  0.00000000000E+00 0. -1.
</event>
<event>
 7    1  0.5839176E-013  0.5052885E+02  0.7816164E-02  0.1300439E+00
        -11   -1    0    0    0    0  0.00000000000E+00  0.00000000000E+00  0.45593999997E+02  0.45594000000E+02  0.51100000000E-03 0.  1.
         11   -1    0    0    0    0 -0.00000000000E+00 -0.00000000000E+00 -0.45593999997E+02  0.45594000000E+02  0.51100000000E-03 0. -1.
    9900012    2    1    2    0    0 -0.27405610681E+02 -0.17403875755E+01 -0.29984493939E+02  0.50528851921E+02  0.29999975900E+02 0.  0.
        -12    1    1    2    0    0  0.27405610681E+02  0.17403875755E+01  0.29984493939E+02  0.40659148079E+02  0.00000000000E+00 0.  1.
         11    1    3    3    0    0 -0.31869897263E+01  0.18700157566E+01  0.33166313428E+01  0.49652699998E+01  0.51100000000E-03 0. -1.
        -11    1    3    3    0    0 -0.29837515281E+01  0.14911963578E+00  0.24152873182E+01  0.38416953208E+01  0.51100000000E-03 0.  1.
         12    1    3    3    0    0 -0.21234869427E+02 -0.37595229679E+01 -0.35716412600E+02  0.41721886601E+02  0.00000000000E+00 0. -1.
</event>
<event>
 7    1  0.5839176E-013  0.5052886E+02  0.7816164E-02  0.1300439E+00
        -11   -1    0    0    0    0  0.00000000000E+00  0.00000000000E+00  0.45593999997E+02  0.45594000000E+02  0.51100000000E-03 0.  1.
         11   -1    0    0    0    0 -0.00000000000E+00 -0.00000000000E+00 -0.45593999997E+02  0.45594000000E+02  0.51100000000E-03 0. -1.
    9900012    2    1    2    0    0  0.42451847353E+00 -0.39496726283E+02 -0.96433559943E+01  0.50528856898E+02  0.29999991026E+02 0.  0.
        -12    1    1    2    0    0 -0.42451847353E+00  0.39496726283E+02  0.96433559943E+01  0.40659143102E+02  0.00000000000E+00 0.  1.
         11    1    3    3    0    0 -0.33084127496E+01 -0.13760726822E+02  0.29346478891E+01  0.14453904527E+02  0.51100000000E-03 0. -1.
        -11    1    3    3    0    0 -0.90205114560E+01 -0.10158166551E+02 -0.37599094213E+01  0.14095917626E+02  0.51100000000E-03 0.  1.
        -12    1    3    3    0    0  0.12753442679E+02 -0.15577832910E+02 -0.88180944622E+01  0.21979034744E+02  0.00000000000E+00 0.  1.
</event>
<event>
 7    1  0.5839176E-013  0.5052886E+02  0.7816164E-02  0.1300439E+00
        -11   -1    0    0    0    0  0.00000000000E+00  0.00000000000E+00  0.45593999997E+02  0.45594000000E+02  0.51100000000E-03 0.  1.
         11   -1    0    0    0    0 -0.00000000000E+00 -0.00000000000E+00 -0.45593999997E+02  0.45594000000E+02  0.51100000000E-03 0. -1.
    9900012    2    1    2    0    0 -0.26646355306E+02  0.20314261689E+02 -0.23031891918E+02  0.50528861736E+02  0.30000005732E+02 0.  0.
        -12    1    1    2    0    0  0.26646355306E+02 -0.20314261689E+02  0.23031891918E+02  0.40659138264E+02  0.00000000000E+00 0.  1.
         11    1    3    3    0    0 -0.13455315811E+02 -0.38344650899E+01 -0.14989228782E+02  0.20504283110E+02  0.51100000000E-03 0. -1.
        -11    1    3    3    0    0 -0.18435013801E+01 -0.36123424034E+00 -0.92059799495E+00  0.20920058423E+01  0.51100000000E-03 0.  1.
        -12    1    3    3    0    0 -0.11347538115E+02  0.24509961019E+02 -0.71220651409E+01  0.27932572784E+02  0.00000000000E+00 0.  1.
</event>
<event>
 7    1  0.5839176E-013  0.5052885E+02  0.7816164E-02  0.1300439E+00
        -11   -1    0    0    0    0  0.00000000000E+00  0.00000000000E+00  0.45593999997E+02  0.45594000000E+02  0.51100000000E-03 0. -1.
         11   -1    0    0    0    0 -0.00000000000E+00 -0.00000000000E+00 -0.45593999997E+02  0.45594000000E+02  0.51100000000E-03 0.  1.
    9900012    2    1    2    0    0 -0.30215648325E+01 -0.21591892618E+02  0.34319477274E+02  0.50528853412E+02  0.29999980432E+02 0.  0.
        -12    1    1    2    0    0  0.30215648325E+01  0.21591892618E+02 -0.34319477274E+02  0.40659146588E+02  0.00000000000E+00 0.  1.
         11    1    3    3    0    0  0.11457818537E+01  0.31319432402E+01  0.67293999059E+01  0.75104399253E+01  0.51100000000E-03 0. -1.
        -11    1    3    3    0    0 -0.35768459758E+01  0.54979714674E-01 -0.22507942895E+01  0.42264553823E+01  0.51100000000E-03 0.  1.
         12    1    3    3    0    0 -0.59050071038E+00 -0.24778815573E+02  0.29840871658E+02  0.38791958105E+02  0.00000000000E+00 0. -1.
</event>
<event>
 7    1  0.5839176E-013  0.5052886E+02  0.7816164E-02  0.1300439E+00
        -11   -1    0    0    0    0  0.00000000000E+00  0.00000000000E+00  0.45593999997E+02  0.45594000000E+02  0.51100000000E-03 0. -1.
         11   -1    0    0    0    0 -0.00000000000E+00 -0.00000000000E+00 -0.45593999997E+02  0.45594000000E+02  0.51100000000E-03 0.  1.
    9900012    2    1    2    0    0  0.13513674689E+02  0.20271723483E+02  0.32551556208E+02  0.50528856033E+02  0.29999988397E+02 0.  0.
        -12    1    1    2    0    0 -0.13513674689E+02 -0.20271723483E+02 -0.32551556208E+02  0.40659143967E+02  0.00000000000E+00 0.  1.
         11    1    3    3    0    0 -0.84094059639E+00  0.57634435814E+01  0.21870802168E+02  0.22633083103E+02  0.51100000000E-03 0. -1.
        -11    1    3    3    0    0 -0.31757588424E+01  0.54251329768E+00  0.23355687040E+01  0.39792771122E+01  0.51100000000E-03 0.  1.
        -12    1    3    3    0    0  0.17530374128E+02  0.13965766604E+02  0.83451853357E+01  0.23916495817E+02  0.00000000000E+00 0.  1.
</event>
<event>
 7    1  0.5839176E-013  0.5052885E+02  0.7816164E-02  0.1300439E+00
        -11   -1    0    0    0    0  0.00000000000E+00  0.00000000000E+00  0.45593999997E+02  0.45594000000E+02  0.51100000000E-03 0.  1.
         11   -1    0    0    0    0 -0.00000000000E+00 -0.00000000000E+00 -0.45593999997E+02  0.45594000000E+02  0.51100000000E-03 0. -1.
    9900012    2    1    2    0    0  0.33545492482E+02  0.20619997699E+02  0.10133223577E+02  0.50528848619E+02  0.29999965863E+02 0.  0.
        -12    1    1    2    0    0 -0.33545492482E+02 -0.20619997699E+02 -0.10133223577E+02  0.40659151381E+02  0.00000000000E+00 0.  1.
         11    1    3    3    0    0  0.30157692778E+00  0.83343841972E+01 -0.14586264736E+01  0.84664337263E+01  0.51100000000E-03 0. -1.
        -11    1    3    3    0    0  0.11432275286E+01  0.71917799663E+01 -0.69510007743E+00  0.73151782374E+01  0.51100000000E-03 0.  1.
         12    1    3    3    0    0  0.32100688025E+02  0.50938335355E+01  0.12286950128E+02  0.34747236656E+02  0.00000000000E+00 0. -1.
</event>
<event>
 7    1  0.5839176E-013  0.5052885E+02  0.7816164E-02  0.1300439E+00
        -11   -1    0    0    0    0  0.00000000000E+00  0.00000000000E+00  0.45593999997E+02  0.45594000000E+02  0.51100000000E-03 0.  1.
         11   -1    0    0    0    0 -0.00000000000E+00 -0.00000000000E+00 -0.45593999997E+02  0.45594000000E+02  0.51100000000E-03 0. -1.
    9900012    2    1    2    0    0  0.16242116932E+02  0.17938563265E+02 -0.32673654255E+02  0.50528854697E+02  0.29999984336E+02 0.  0.
        -12    1    1    2    0    0 -0.16242116932E+02 -0.17938563265E+02  0.32673654255E+02  0.40659145303E+02  0.00000000000E+00 0.  1.
         11    1    3    3    0    0  0.15836025487E+02  0.14456621888E+02 -0.35570042398E+02  0.41533137807E+02  0.51100000000E-03 0. -1.
        -11    1    3    3    0    0  0.20360007084E+01 -0.79794833698E+00 -0.14964318183E+01  0.26497790250E+01  0.51100000000E-03 0.  1.
        -12    1    3    3    0    0 -0.16299092638E+01  0.42798897142E+01  0.43928199614E+01  0.63459378651E+01  0.00000000000E+00 0.  1.
</event>
<event>
 7    1  0.5839176E-013  0.5052885E+02  0.7816164E-02  0.1300439E+00
        -11   -1    0    0    0    0  0.00000000000E+00  0.00000000000E+00  0.45593999997E+02  0.45594000000E+02  0.51100000000E-03 0.  1.
         11   -1    0    0    0    0 -0.00000000000E+00 -0.00000000000E+00 -0.45593999997E+02  0.45594000000E+02  0.51100000000E-03 0. -1.
    9900012    2    1    2    0    0 -0.17917964097E+02  0.22001994123E+02 -0.29120870025E+02  0.50528852766E+02  0.29999978466E+02 0.  0.
        -12    1    1    2    0    0  0.17917964097E+02 -0.22001994123E+02  0.29120870025E+02  0.40659147234E+02  0.00000000000E+00 0.  1.
         11    1    3    3    0    0 -0.11422370244E+02  0.67357382607E+01 -0.88674401361E+01  0.15952185015E+02  0.51100000000E-03 0. -1.
        -11    1    3    3    0    0 -0.11191054205E+02  0.13486839759E+02 -0.45732769021E+01  0.18112134132E+02  0.51100000000E-03 0.  1.
        -12    1    3    3    0    0  0.46954603528E+01  0.17794161035E+01 -0.15680152987E+02  0.16464533619E+02  0.00000000000E+00 0.  1.
</event>
<event>
 7    1  0.5839176E-013  0.5052886E+02  0.7816164E-02  0.1300439E+00
        -11   -1    0    0    0    0  0.00000000000E+00  0.00000000000E+00  0.45593999997E+02  0.45594000000E+02  0.51100000000E-03 0.  1.
         11   -1    0    0    0    0 -0.00000000000E+00 -0.00000000000E+00 -0.45593999997E+02  0.45594000000E+02  0.51100000000E-03 0. -1.
    9900012    2    1    2    0    0 -0.22871630565E+02  0.87121390066E+01 -0.32467721389E+02  0.50528858556E+02  0.29999996067E+02 0.  0.
        -12    1    1    2    0    0  0.22871630565E+02 -0.87121390066E+01  0.32467721389E+02  0.40659141444E+02  0.00000000000E+00 0.  1.
         11    1    3    3    0    0 -0.95455681418E+01 -0.30649713455E+01 -0.11648426715E+01  0.10093006450E+02  0.51100000000E-03 0. -1.
        -11    1    3    3    0    0 -0.59018585124E+01 -0.46793169479E+01 -0.97665476410E+01  0.12333425886E+02  0.51100000000E-03 0.  1.
        -12    1    3    3    0    0 -0.74242039111E+01  0.16456427300E+02 -0.21536331076E+02  0.28102426220E+02  0.00000000000E+00 0.  1.
</event>
<event>
 7    1  0.5839176E-013  0.5052886E+02  0.7816164E-02  0.1300439E+00
        -11   -1    0    0    0    0  0.00000000000E+00  0.00000000000E+00  0.45593999997E+02  0.45594000000E+02  0.51100000000E-03 0.  1.
         11   -1    0    0    0    0 -0.00000000000E+00 -0.00000000000E+00 -0.45593999997E+02  0.45594000000E+02  0.51100000000E-03 0. -1.
    9900012    2    1    2    0    0  0.16864767457E+02 -0.34364388430E+02 -0.13705261080E+02  0.50528858902E+02  0.29999997118E+02 0.  0.
        -12    1    1    2    0    0 -0.16864767457E+02  0.34364388430E+02  0.13705261080E+02  0.40659141098E+02  0.00000000000E+00 0.  1.
         11    1    3    3    0    0  0.49151456658E+01 -0.69350573801E+01 -0.18646694103E+01  0.87023370454E+01  0.51100000000E-03 0. -1.
        -11    1    3    3    0    0  0.84209217749E+01 -0.15355335096E+02  0.72582678430E+01  0.18957338732E+02  0.51100000000E-03 0.  1.
        -12    1    3    3    0    0  0.35287000165E+01 -0.12073995954E+02 -0.19098859512E+02  0.22869183124E+02  0.00000000000E+00 0.  1.
</event>
<event>
 7    1  0.5839176E-013  0.5052887E+02  0.7816164E-02  0.1300439E+00
        -11   -1    0    0    0    0  0.00000000000E+00  0.00000000000E+00  0.45593999997E+02  0.45594000000E+02  0.51100000000E-03 0.  1.
         11   -1    0    0    0    0 -0.00000000000E+00 -0.00000000000E+00 -0.45593999997E+02  0.45594000000E+02  0.51100000000E-03 0. -1.
    9900012    2    1    2    0    0  0.25847530568E+02 -0.59204126623E+01 -0.30822377380E+02  0.50528867325E+02  0.30000022720E+02 0.  0.
        -12    1    1    2    0    0 -0.25847530568E+02  0.59204126623E+01  0.30822377380E+02  0.40659132675E+02  0.00000000000E+00 0.  1.
         11    1    3    3    0    0  0.43866353163E+00  0.78792291439E+00  0.27990681907E+01  0.29407535106E+01  0.51100000000E-03 0.  1.
        -11    1    3    3    0    0  0.40542612158E+01 -0.85496174790E+01 -0.24772390748E+01  0.97810892409E+01  0.51100000000E-03 0. -1.
         12    1    3    3    0    0  0.21354605821E+02  0.18412819023E+01 -0.31144206496E+02  0.37807024573E+02  0.00000000000E+00 0. -1.
</event>
<event>
 7    1  0.5839176E-013  0.5052886E+02  0.7816164E-02  0.1300439E+00
        -11   -1    0    0    0    0  0.00000000000E+00  0.00000000000E+00  0.45593999997E+02  0.45594000000E+02  0.51100000000E-03 0.  1.
         11   -1    0    0    0    0 -0.00000000000E+00 -0.00000000000E+00 -0.45593999997E+02  0.45594000000E+02  0.51100000000E-03 0. -1.
    9900012    2    1    2    0    0  0.73201670689E+01  0.13114421790E+02 -0.37783500149E+02  0.50528858490E+02  0.29999995867E+02 0.  0.
        -12    1    1    2    0    0 -0.73201670689E+01 -0.13114421790E+02  0.37783500149E+02  0.40659141510E+02  0.00000000000E+00 0.  1.
         11    1    3    3    0    0 -0.19648861947E+01 -0.91128241564E+00  0.16455806169E+01  0.27201377221E+01  0.51100000000E-03 0. -1.
        -11    1    3    3    0    0  0.93897236633E+01  0.11005168589E+02 -0.85956836128E+01  0.16827549530E+02  0.51100000000E-03 0.  1.
         12    1    3    3    0    0 -0.10467039970E+00  0.30205356171E+01 -0.30833397153E+02  0.30981171238E+02  0.00000000000E+00 0. -1.
</event>
<event>
 7    1  0.5839176E-013  0.5052885E+02  0.7816164E-02  0.1300439E+00
        -11   -1    0    0    0    0  0.00000000000E+00  0.00000000000E+00  0.45593999997E+02  0.45594000000E+02  0.51100000000E-03 0.  1.
         11   -1    0    0    0    0 -0.00000000000E+00 -0.00000000000E+00 -0.45593999997E+02  0.45594000000E+02  0.51100000000E-03 0. -1.
    9900012    2    1    2    0    0  0.60948909826E+01 -0.39945187068E+02 -0.45167108136E+01  0.50528851675E+02  0.29999975151E+02 0.  0.
        -12    1    1    2    0    0 -0.60948909826E+01  0.39945187068E+02  0.45167108136E+01  0.40659148325E+02  0.00000000000E+00 0.  1.
         11    1    3    3    0    0 -0.14414599184E+01 -0.16754512635E+02 -0.18366577733E+01  0.16916406603E+02  0.51100000000E-03 0.  1.
        -11    1    3    3    0    0  0.13211573987E+02 -0.21255124813E+02 -0.72700951032E+01  0.26061087873E+02  0.51100000000E-03 0. -1.
        -12    1    3    3    0    0 -0.56752230861E+01 -0.19355496195E+01  0.45900420628E+01  0.75513571988E+01  0.00000000000E+00 0.  1.
</event>
<event>
 7    1  0.5839176E-013  0.5052886E+02  0.7816164E-02  0.1300439E+00
        -11   -1    0    0    0    0  0.00000000000E+00  0.00000000000E+00  0.45593999997E+02  0.45594000000E+02  0.51100000000E-03 0. -1.
         11   -1    0    0    0    0 -0.00000000000E+00 -0.00000000000E+00 -0.45593999997E+02  0.45594000000E+02  0.51100000000E-03 0.  1.
    9900012    2    1    2    0    0 -0.15689273246E+02 -0.37469106635E+02  0.17545717953E+01  0.50528858726E+02  0.29999996583E+02 0.  0.
        -12    1    1    2    0    0  0.15689273246E+02  0.37469106635E+02 -0.17545717953E+01  0.40659141274E+02  0.00000000000E+00 0.  1.
         11    1    3    3    0    0  0.24672412716E+01 -0.57201484658E+00  0.24318718958E-01  0.25327992692E+01  0.51100000000E-03 0. -1.
        -11    1    3    3    0    0  0.52091814444E+01 -0.14247974573E+01  0.11194798008E+01  0.55153290383E+01  0.51100000000E-03 0.  1.
         12    1    3    3    0    0 -0.23365695962E+02 -0.35472294331E+02  0.61077327552E+00  0.42480730418E+02  0.00000000000E+00 0. -1.
</event>
<event>
 7    1  0.5839176E-013  0.5052886E+02  0.7816164E-02  0.1300439E+00
        -11   -1    0    0    0    0  0.00000000000E+00  0.00000000000E+00  0.45593999997E+02  0.45594000000E+02  0.51100000000E-03 0. -1.
         11   -1    0    0    0    0 -0.00000000000E+00 -0.00000000000E+00 -0.45593999997E+02  0.45594000000E+02  0.51100000000E-03 0.  1.
    9900012    2    1    2    0    0  0.37050100352E+02 -0.47136333378E+01  0.16069761053E+02  0.50528862089E+02  0.30000006806E+02 0.  0.
        -12    1    1    2    0    0 -0.37050100352E+02  0.47136333378E+01 -0.16069761053E+02  0.40659137911E+02  0.00000000000E+00 0.  1.
         11    1    3    3    0    0  0.12347204040E+02  0.22603800883E+00  0.19609694185E+02  0.23174223764E+02  0.51100000000E-03 0. -1.
        -11    1    3    3    0    0  0.50599267554E+01  0.20144672916E+01 -0.35791261997E+01  0.65169841072E+01  0.51100000000E-03 0.  1.
        -12    1    3    3    0    0  0.19642969557E+02 -0.69541386382E+01  0.39193068217E-01  0.20837654218E+02  0.00000000000E+00 0.  1.
</event>
<event>
 7    1  0.5839176E-013  0.5052885E+02  0.7816164E-02  0.1300439E+00
        -11   -1    0    0    0    0  0.00000000000E+00  0.00000000000E+00  0.45593999997E+02  0.45594000000E+02  0.51100000000E-03 0. -1.
         11   -1    0    0    0    0 -0.00000000000E+00 -0.00000000000E+00 -0.45593999997E+02  0.45594000000E+02  0.51100000000E-03 0.  1.
    9900012    2    1    2    0    0 -0.37411992965E+02 -0.14524884347E+02 -0.65220574331E+01  0.50528847081E+02  0.29999961189E+02 0.  0.
        -12    1    1    2    0    0  0.37411992965E+02  0.14524884347E+02  0.65220574331E+01  0.40659152919E+02  0.00000000000E+00 0.  1.
         11    1    3    3    0    0 -0.27009232476E+02 -0.15688759248E+02 -0.29818502160E+01  0.31377177003E+02  0.51100000000E-03 0. -1.
        -11    1    3    3    0    0 -0.52519204404E+00 -0.25846414281E+01  0.49428528940E+01  0.56024988164E+01  0.51100000000E-03 0.  1.
        -12    1    3    3    0    0 -0.98775684449E+01  0.37485163290E+01 -0.84830601111E+01  0.13549171262E+02  0.00000000000E+00 0.  1.
</event>
<event>
 7    1  0.5839176E-013  0.5052886E+02  0.7816164E-02  0.1300439E+00
        -11   -1    0    0    0    0  0.00000000000E+00  0.00000000000E+00  0.45593999997E+02  0.45594000000E+02  0.51100000000E-03 0. -1.
         11   -1    0    0    0    0 -0.00000000000E+00 -0.00000000000E+00 -0.45593999997E+02  0.45594000000E+02  0.51100000000E-03 0.  1.
    9900012    2    1    2    0    0  0.56363931660E+01  0.40219982856E+02 -0.19365070064E+01  0.50528855786E+02  0.29999987647E+02 0.  0.
        -12    1    1    2    0    0 -0.56363931660E+01 -0.40219982856E+02  0.19365070064E+01  0.40659144214E+02  0.00000000000E+00 0.  1.
         11    1    3    3    0    0  0.84716228557E+00 -0.23253711669E-01 -0.29073136018E+01  0.30283159203E+01  0.51100000000E-03 0. -1.
        -11    1    3    3    0    0 -0.65154809198E+01  0.92811624213E+00  0.16239020509E-01  0.65812730792E+01  0.51100000000E-03 0.  1.
         12    1    3    3    0    0  0.11304711800E+02  0.39315120325E+02  0.95456757485E+00  0.40919266786E+02  0.00000000000E+00 0. -1.
</event>
<event>
 7    1  0.5839176E-013  0.5052887E+02  0.7816164E-02  0.1300439E+00
        -11   -1    0    0    0    0  0.00000000000E+00  0.00000000000E+00  0.45593999997E+02  0.45594000000E+02  0.51100000000E-03 0.  1.
         11   -1    0    0    0    0 -0.00000000000E+00 -0.00000000000E+00 -0.45593999997E+02  0.45594000000E+02  0.51100000000E-03 0. -1.
    9900012    2    1    2    0    0  0.38517793513E+02 -0.10740036970E+02  0.73618200623E+01  0.50528865653E+02  0.30000017639E+02 0.  0.
        -12    1    1    2    0    0 -0.38517793513E+02  0.10740036970E+02 -0.73618200623E+01  0.40659134347E+02  0.00000000000E+00 0.  1.
         11    1    3    3    0    0 -0.11066175196E-01 -0.54530725527E+01 -0.29229941345E+01  0.61870847495E+01  0.51100000000E-03 0. -1.
        -11    1    3    3    0    0  0.15170280525E+02  0.59748469566E+01  0.84015412335E+01  0.18341812962E+02  0.51100000000E-03 0.  1.
         12    1    3    3    0    0  0.23358579163E+02 -0.11261811374E+02  0.18832729633E+01  0.25999967942E+02  0.00000000000E+00 0. -1.
</event>
<event>
 7    1  0.5839176E-013  0.5052886E+02  0.7816164E-02  0.1300439E+00
        -11   -1    0    0    0    0  0.00000000000E+00  0.00000000000E+00  0.45593999997E+02  0.45594000000E+02  0.51100000000E-03 0.  1.
         11   -1    0    0    0    0 -0.00000000000E+00 -0.00000000000E+00 -0.45593999997E+02  0.45594000000E+02  0.51100000000E-03 0. -1.
    9900012    2    1    2    0    0  0.23554312713E+02 -0.42195913610E+01 -0.32871803018E+02  0.50528855490E+02  0.29999986747E+02 0.  0.
        -12    1    1    2    0    0 -0.23554312713E+02  0.42195913610E+01  0.32871803018E+02  0.40659144510E+02  0.00000000000E+00 0.  1.
         11    1    3    3    0    0 -0.63166571569E+00  0.64309739625E+01 -0.49603680671E+00  0.64809320671E+01  0.51100000000E-03 0.  1.
        -11    1    3    3    0    0  0.40521727090E+01 -0.31124015783E+00  0.54171570814E+00  0.41000524715E+01  0.51100000000E-03 0. -1.
         12    1    3    3    0    0  0.20133805720E+02 -0.10339325166E+02 -0.32917481919E+02  0.39947870951E+02  0.00000000000E+00 0. -1.
</event>
<event>
 7    1  0.5839176E-013  0.5052887E+02  0.7816164E-02  0.1300439E+00
        -11   -1    0    0    0    0  0.00000000000E+00  0.00000000000E+00  0.45593999997E+02  0.45594000000E+02  0.51100000000E-03 0. -1.
         11   -1    0    0    0    0 -0.00000000000E+00 -0.00000000000E+00 -0.45593999997E+02  0.45594000000E+02  0.51100000000E-03 0.  1.
    9900012    2    1    2    0    0  0.37972321394E+02  0.13381090224E+02  0.56757759299E+01  0.50528865724E+02  0.30000017855E+02 0.  0.
        -12    1    1    2    0    0 -0.37972321394E+02 -0.13381090224E+02 -0.56757759299E+01  0.40659134276E+02  0.00000000000E+00 0.  1.
         11    1    3    3    0    0  0.23938191220E+02  0.65293722852E+01  0.26927353179E+01  0.24958375850E+02  0.51100000000E-03 0. -1.
        -11    1    3    3    0    0  0.15703808564E+02 -0.46473580706E+00  0.68373400044E+01  0.17134024670E+02  0.51100000000E-03 0.  1.
        -12    1    3    3    0    0 -0.16696783898E+01  0.73164537455E+01 -0.38542993923E+01  0.84364652041E+01  0.00000000000E+00 0.  1.
</event>
<event>
 7    1  0.5839176E-013  0.5052887E+02  0.7816164E-02  0.1300439E+00
        -11   -1    0    0    0    0  0.00000000000E+00  0.00000000000E+00  0.45593999997E+02  0.45594000000E+02  0.51100000000E-03 0.  1.
         11   -1    0    0    0    0 -0.00000000000E+00 -0.00000000000E+00 -0.45593999997E+02  0.45594000000E+02  0.51100000000E-03 0. -1.
    9900012    2    1    2    0    0 -0.63696442630E+01 -0.36998681866E+02 -0.15610578786E+02  0.50528868210E+02  0.30000025411E+02 0.  0.
        -12    1    1    2    0    0  0.63696442630E+01  0.36998681866E+02  0.15610578786E+02  0.40659131790E+02  0.00000000000E+00 0.  1.
         11    1    3    3    0    0 -0.11589686880E+02 -0.21998603850E+02 -0.55814015535E+01  0.25483552674E+02  0.51100000000E-03 0.  1.
        -11    1    3    3    0    0 -0.15109322114E+00 -0.17066225813E+02 -0.63240172620E+01  0.18200881496E+02  0.51100000000E-03 0. -1.
         12    1    3    3    0    0  0.53711358383E+01  0.20661477968E+01 -0.37051599707E+01  0.68444340395E+01  0.00000000000E+00 0. -1.
</event>
<event>
 7    1  0.5839176E-013  0.5052885E+02  0.7816164E-02  0.1300439E+00
        -11   -1    0    0    0    0  0.00000000000E+00  0.00000000000E+00  0.45593999997E+02  0.45594000000E+02  0.51100000000E-03 0.  1.
         11   -1    0    0    0    0 -0.00000000000E+00 -0.00000000000E+00 -0.45593999997E+02  0.45594000000E+02  0.51100000000E-03 0. -1.
    9900012    2    1    2    0    0 -0.34684566425E+02 -0.63883508952E+01 -0.20232058878E+02  0.50528851193E+02  0.29999973687E+02 0.  0.
        -12    1    1    2    0    0  0.34684566425E+02  0.63883508952E+01  0.20232058878E+02  0.40659148807E+02  0.00000000000E+00 0.  1.
         11    1    3    3    0    0 -0.17744723262E+02  0.20392887716E+01 -0.18906073037E+02  0.26009104181E+02  0.51100000000E-03 0. -1.
        -11    1    3    3    0    0 -0.49970720404E+01 -0.99779056692E+01 -0.45523234743E+01  0.12052094415E+02  0.51100000000E-03 0.  1.
        -12    1    3    3    0    0 -0.11942771122E+02  0.15502660025E+01  0.32263376332E+01  0.12467652597E+02  0.00000000000E+00 0.  1.
</event>
<event>
 7    1  0.5839176E-013  0.5052889E+02  0.7816164E-02  0.1300439E+00
        -11   -1    0    0    0    0  0.00000000000E+00  0.00000000000E+00  0.45593999997E+02  0.45594000000E+02  0.51100000000E-03 0. -1.
         11   -1    0    0    0    0 -0.00000000000E+00 -0.00000000000E+00 -0.45593999997E+02  0.45594000000E+02  0.51100000000E-03 0.  1.
    9900012    2    1    2    0    0  0.24878304344E+02 -0.31485804509E+02 -0.65480687825E+01  0.50528891335E+02  0.30000095703E+02 0.  0.
        -12    1    1    2    0    0 -0.24878304344E+02  0.31485804509E+02  0.65480687825E+01  0.40659108665E+02  0.00000000000E+00 0.  1.
         11    1    3    3    0    0  0.62247015320E+00 -0.73016788715E+01 -0.40571954696E+01  0.83763248966E+01  0.51100000000E-03 0. -1.
        -11    1    3    3    0    0  0.32616376696E+01 -0.16916619622E+02 -0.83953017955E+01  0.19164847827E+02  0.51100000000E-03 0.  1.
        -12    1    3    3    0    0  0.20994196522E+02 -0.72675060150E+01  0.59044284826E+01  0.22987718612E+02  0.00000000000E+00 0.  1.
</event>
<event>
 7    1  0.5839176E-013  0.5052886E+02  0.7816164E-02  0.1300439E+00
        -11   -1    0    0    0    0  0.00000000000E+00  0.00000000000E+00  0.45593999997E+02  0.45594000000E+02  0.51100000000E-03 0.  1.
         11   -1    0    0    0    0 -0.00000000000E+00 -0.00000000000E+00 -0.45593999997E+02  0.45594000000E+02  0.51100000000E-03 0. -1.
    9900012    2    1    2    0    0 -0.12922400410E+02  0.23800835227E+02 -0.30326510172E+02  0.50528863154E+02  0.30000010042E+02 0.  0.
        -12    1    1    2    0    0  0.12922400410E+02 -0.23800835227E+02  0.30326510172E+02  0.40659136846E+02  0.00000000000E+00 0.  1.
         11    1    3    3    0    0  0.40617676434E+01  0.80724943272E+01 -0.90202592794E+01  0.12768249637E+02  0.51100000000E-03 0. -1.
        -11    1    3    3    0    0 -0.42017352552E+01  0.10419091466E+02 -0.21115482046E+02  0.23918102525E+02  0.51100000000E-03 0.  1.
        -12    1    3    3    0    0 -0.12782432799E+02  0.53092494339E+01 -0.19076884647E+00  0.13842510992E+02  0.00000000000E+00 0.  1.
</event>
<event>
 7    1  0.5839176E-013  0.5052885E+02  0.7816164E-02  0.1300439E+00
        -11   -1    0    0    0    0  0.00000000000E+00  0.00000000000E+00  0.45593999997E+02  0.45594000000E+02  0.51100000000E-03 0. -1.
         11   -1    0    0    0    0 -0.00000000000E+00 -0.00000000000E+00 -0.45593999997E+02  0.45594000000E+02  0.51100000000E-03 0.  1.
    9900012    2    1    2    0    0 -0.33624040252E+02  0.18776317645E+02  0.13039943156E+02  0.50528852140E+02  0.29999976566E+02 0.  0.
        -12    1    1    2    0    0  0.33624040252E+02 -0.18776317645E+02 -0.13039943156E+02  0.40659147860E+02  0.00000000000E+00 0.  1.
         11    1    3    3    0    0 -0.21059694613E+02 -0.11272822160E+00  0.89009076035E+01  0.22863718010E+02  0.51100000000E-03 0. -1.
        -11    1    3    3    0    0 -0.38504737609E+01  0.10546419071E+02  0.92660511788E+01  0.14557225289E+02  0.51100000000E-03 0.  1.
        -12    1    3    3    0    0 -0.87138718781E+01  0.83426267958E+01 -0.51270156261E+01  0.13107908841E+02  0.00000000000E+00 0.  1.
</event>
<event>
 7    1  0.5839176E-013  0.5052888E+02  0.7816164E-02  0.1300439E+00
        -11   -1    0    0    0    0  0.00000000000E+00  0.00000000000E+00  0.45593999997E+02  0.45594000000E+02  0.51100000000E-03 0. -1.
         11   -1    0    0    0    0 -0.00000000000E+00 -0.00000000000E+00 -0.45593999997E+02  0.45594000000E+02  0.51100000000E-03 0.  1.
    9900012    2    1    2    0    0  0.18316401899E+02 -0.63024104289E+01  0.35748474099E+02  0.50528876102E+02  0.30000049399E+02 0.  0.
        -12    1    1    2    0    0 -0.18316401899E+02  0.63024104289E+01 -0.35748474099E+02  0.40659123898E+02  0.00000000000E+00 0.  1.
         11    1    3    3    0    0  0.43119369038E+01  0.12839756656E+01  0.22200378832E+01  0.50169673944E+01  0.51100000000E-03 0.  1.
        -11    1    3    3    0    0  0.11907423830E+02  0.50624030713E+01  0.29269113726E+02  0.32001495054E+02  0.51100000000E-03 0. -1.
         12    1    3    3    0    0  0.20970411650E+01 -0.12648789166E+02  0.42593224902E+01  0.13510413653E+02  0.00000000000E+00 0. -1.
</event>
<event>
 7    1  0.5839176E-013  0.5052885E+02  0.7816164E-02  0.1300439E+00
        -11   -1    0    0    0    0  0.00000000000E+00  0.00000000000E+00  0.45593999997E+02  0.45594000000E+02  0.51100000000E-03 0.  1.
         11   -1    0    0    0    0 -0.00000000000E+00 -0.00000000000E+00 -0.45593999997E+02  0.45594000000E+02  0.51100000000E-03 0. -1.
    9900012    2    1    2    0    0 -0.18110486473E+02 -0.32700598034E+02 -0.15995235390E+02  0.50528851125E+02  0.29999973479E+02 0.  0.
        -12    1    1    2    0    0  0.18110486473E+02  0.32700598034E+02  0.15995235390E+02  0.40659148875E+02  0.00000000000E+00 0.  1.
         11    1    3    3    0    0 -0.69905804791E+01 -0.14910680781E+02 -0.29720649591E+00  0.16470730061E+02  0.51100000000E-03 0. -1.
        -11    1    3    3    0    0 -0.13440704520E+02 -0.18257908628E+02 -0.19282268320E+02  0.29762554281E+02  0.51100000000E-03 0.  1.
        -12    1    3    3    0    0  0.23207985260E+01  0.46799137529E+00  0.35842394258E+01  0.42955667830E+01  0.00000000000E+00 0.  1.
</event>
<event>
 7    1  0.5839176E-013  0.5052885E+02  0.7816164E-02  0.1300439E+00
        -11   -1    0    0    0    0  0.00000000000E+00  0.00000000000E+00  0.45593999997E+02  0.45594000000E+02  0.51100000000E-03 0. -1.
         11   -1    0    0    0    0 -0.00000000000E+00 -0.00000000000E+00 -0.45593999997E+02  0.45594000000E+02  0.51100000000E-03 0.  1.
    9900012    2    1    2    0    0 -0.19085975415E+02 -0.35893314509E+02 -0.74940694229E+00  0.50528854722E+02  0.29999984412E+02 0.  0.
        -12    1    1    2    0    0  0.19085975415E+02  0.35893314509E+02  0.74940694229E+00  0.40659145278E+02  0.00000000000E+00 0.  1.
         11    1    3    3    0    0  0.37508529512E+00 -0.11494774514E+01  0.68686186454E+01  0.69742318392E+01  0.51100000000E-03 0. -1.
        -11    1    3    3    0    0  0.26451882524E+01 -0.26625303144E+01  0.41142297502E+00  0.37756267945E+01  0.51100000000E-03 0.  1.
        -12    1    3    3    0    0 -0.22106248963E+02 -0.32081306743E+02 -0.80294485627E+01  0.39778996088E+02  0.00000000000E+00 0.  1.
</event>
<event>
 7    1  0.5839176E-013  0.5052885E+02  0.7816164E-02  0.1300439E+00
        -11   -1    0    0    0    0  0.00000000000E+00  0.00000000000E+00  0.45593999997E+02  0.45594000000E+02  0.51100000000E-03 0.  1.
         11   -1    0    0    0    0 -0.00000000000E+00 -0.00000000000E+00 -0.45593999997E+02  0.45594000000E+02  0.51100000000E-03 0. -1.
    9900012    2    1    2    0    0  0.27878453351E+02  0.26983951359E+02 -0.12158301181E+02  0.50528854906E+02  0.29999984971E+02 0.  0.
        -12    1    1    2    0    0 -0.27878453351E+02 -0.26983951359E+02  0.12158301181E+02  0.40659145094E+02  0.00000000000E+00 0.  1.
         11    1    3    3    0    0 -0.30881830714E+01  0.78222593639E+01  0.19166558073E+01  0.86254383067E+01  0.51100000000E-03 0. -1.
        -11    1    3    3    0    0  0.13989298798E+01 -0.20790020183E+01  0.71771913046E+00  0.26066022351E+01  0.51100000000E-03 0.  1.
         12    1    3    3    0    0  0.29567706543E+02  0.21240694014E+02 -0.14792676119E+02  0.39296814364E+02  0.00000000000E+00 0. -1.
</event>
<event>
 7    1  0.5839176E-013  0.5052886E+02  0.7816164E-02  0.1300439E+00
        -11   -1    0    0    0    0  0.00000000000E+00  0.00000000000E+00  0.45593999997E+02  0.45594000000E+02  0.51100000000E-03 0. -1.
         11   -1    0    0    0    0 -0.00000000000E+00 -0.00000000000E+00 -0.45593999997E+02  0.45594000000E+02  0.51100000000E-03 0.  1.
    9900012    2    1    2    0    0  0.38727926843E+02 -0.11966006130E+02 -0.31824709564E+01  0.50528859064E+02  0.29999997610E+02 0.  0.
        -12    1    1    2    0    0 -0.38727926843E+02  0.11966006130E+02  0.31824709564E+01  0.40659140936E+02  0.00000000000E+00 0.  1.
         11    1    3    3    0    0  0.93310007757E+01  0.52676596940E+01 -0.20178739207E+01  0.10903560407E+02  0.51100000000E-03 0. -1.
        -11    1    3    3    0    0  0.11791146846E+02  0.29324378066E+01  0.30455759395E+01  0.12526207267E+02  0.51100000000E-03 0.  1.
         12    1    3    3    0    0  0.17605779222E+02 -0.20166103631E+02 -0.42101729752E+01  0.27099091390E+02  0.00000000000E+00 0. -1.
</event>
<event>
 7    1  0.5839176E-013  0.5052886E+02  0.7816164E-02  0.1300439E+00
        -11   -1    0    0    0    0  0.00000000000E+00  0.00000000000E+00  0.45593999997E+02  0.45594000000E+02  0.51100000000E-03 0. -1.
         11   -1    0    0    0    0 -0.00000000000E+00 -0.00000000000E+00 -0.45593999997E+02  0.45594000000E+02  0.51100000000E-03 0.  1.
    9900012    2    1    2    0    0 -0.66605996627E+00 -0.15271267463E+02  0.37676395113E+02  0.50528855955E+02  0.29999988160E+02 0.  0.
        -12    1    1    2    0    0  0.66605996627E+00  0.15271267463E+02 -0.37676395113E+02  0.40659144045E+02  0.00000000000E+00 0.  1.
         11    1    3    3    0    0 -0.20198502047E+01 -0.62778428507E+01  0.11646084782E+02  0.13383661558E+02  0.51100000000E-03 0. -1.
        -11    1    3    3    0    0  0.13288229599E+01 -0.17721018856E+02  0.17356380385E+02  0.24840374797E+02  0.51100000000E-03 0.  1.
        -12    1    3    3    0    0  0.24967278584E-01  0.87275942437E+01  0.86739299467E+01  0.12304819599E+02  0.00000000000E+00 0.  1.
</event>
<event>
 7    1  0.5839176E-013  0.5052886E+02  0.7816164E-02  0.1300439E+00
        -11   -1    0    0    0    0  0.00000000000E+00  0.00000000000E+00  0.45593999997E+02  0.45594000000E+02  0.51100000000E-03 0. -1.
         11   -1    0    0    0    0 -0.00000000000E+00 -0.00000000000E+00 -0.45593999997E+02  0.45594000000E+02  0.51100000000E-03 0.  1.
    9900012    2    1    2    0    0 -0.39688510248E+02  0.70514355145E+01  0.53164870679E+01  0.50528860520E+02  0.30000002035E+02 0.  0.
        -12    1    1    2    0    0  0.39688510248E+02 -0.70514355145E+01 -0.53164870679E+01  0.40659139480E+02  0.00000000000E+00 0.  1.
         11    1    3    3    0    0 -0.49570766830E+01 -0.20636016989E+01  0.26032892750E+01  0.59672587109E+01  0.51100000000E-03 0. -1.
        -11    1    3    3    0    0 -0.13199676409E+02 -0.83748324721E+01  0.57489154640E+01  0.16655909027E+02  0.51100000000E-03 0.  1.
         12    1    3    3    0    0 -0.21531757157E+02  0.17489869685E+02 -0.30357176710E+01  0.27905692782E+02  0.00000000000E+00 0. -1.
</event>
<event>
 7    1  0.5839176E-013  0.5052885E+02  0.7816164E-02  0.1300439E+00
        -11   -1    0    0    0    0  0.00000000000E+00  0.00000000000E+00  0.45593999997E+02  0.45594000000E+02  0.51100000000E-03 0.  1.
         11   -1    0    0    0    0 -0.00000000000E+00 -0.00000000000E+00 -0.45593999997E+02  0.45594000000E+02  0.51100000000E-03 0. -1.
    9900012    2    1    2    0    0  0.15726109996E+02  0.16749901505E+02 -0.33545447125E+02  0.50528846555E+02  0.29999959588E+02 0.  0.
        -12    1    1    2    0    0 -0.15726109996E+02 -0.16749901505E+02  0.33545447125E+02  0.40659153445E+02  0.00000000000E+00 0.  1.
         11    1    3    3    0    0  0.14529257790E+02  0.11652620115E+02 -0.81790358474E+01  0.20341571108E+02  0.51100000000E-03 0. -1.
        -11    1    3    3    0    0  0.11810183596E+01  0.54868534098E+01 -0.86030876743E+00  0.56780715162E+01  0.51100000000E-03 0.  1.
        -12    1    3    3    0    0  0.15833846784E-01 -0.38957202073E+00 -0.24506102511E+02  0.24509203931E+02  0.00000000000E+00 0.  1.
</event>
<event>
 7    1  0.5839176E-013  0.5052888E+02  0.7816164E-02  0.1300439E+00
        -11   -1    0    0    0    0  0.00000000000E+00  0.00000000000E+00  0.45593999997E+02  0.45594000000E+02  0.51100000000E-03 0.  1.
         11   -1    0    0    0    0 -0.00000000000E+00 -0.00000000000E+00 -0.45593999997E+02  0.45594000000E+02  0.51100000000E-03 0. -1.
    9900012    2    1    2    0    0  0.16463099422E+02 -0.36379177095E+02 -0.76606914691E+01  0.50528876024E+02  0.30000049163E+02 0.  0.
        -12    1    1    2    0    0 -0.16463099422E+02  0.36379177095E+02  0.76606914691E+01  0.40659123976E+02  0.00000000000E+00 0.  1.
         11    1    3    3    0    0 -0.72575458649E+01 -0.67648266813E+01 -0.17091311269E+01  0.10067570783E+02  0.51100000000E-03 0. -1.
        -11    1    3    3    0    0  0.11154403361E+02 -0.52861366511E+01  0.40875642449E+00  0.12350345627E+02  0.51100000000E-03 0.  1.
         12    1    3    3    0    0  0.12566241926E+02 -0.24328213763E+02 -0.63603167667E+01  0.28110959614E+02  0.00000000000E+00 0. -1.
</event>
<event>
 7    1  0.5839176E-013  0.5052891E+02  0.7816164E-02  0.1300439E+00
        -11   -1    0    0    0    0  0.00000000000E+00  0.00000000000E+00  0.45593999997E+02  0.45594000000E+02  0.51100000000E-03 0.  1.
         11   -1    0    0    0    0 -0.00000000000E+00 -0.00000000000E+00 -0.45593999997E+02  0.45594000000E+02  0.51100000000E-03 0. -1.
    9900012    2    1    2    0    0  0.38767510663E+02  0.17276981670E+01 -0.12134953119E+02  0.50528906169E+02  0.30000140790E+02 0.  0.
        -12    1    1    2    0    0 -0.38767510663E+02 -0.17276981670E+01  0.12134953119E+02  0.40659093831E+02  0.00000000000E+00 0.  1.
         11    1    3    3    0    0  0.16723201733E+02  0.67859018387E+01  0.84339874420E+00  0.18067242780E+02  0.51100000000E-03 0. -1.
        -11    1    3    3    0    0  0.14148376024E+01  0.42543633816E+01 -0.81747622545E+01  0.93235246233E+01  0.51100000000E-03 0.  1.
         12    1    3    3    0    0  0.20629471328E+02 -0.93125670532E+01 -0.48035896084E+01  0.23138138766E+02  0.00000000000E+00 0. -1.
</event>
<event>
 7    1  0.5839176E-013  0.5052887E+02  0.7816164E-02  0.1300439E+00
        -11   -1    0    0    0    0  0.00000000000E+00  0.00000000000E+00  0.45593999997E+02  0.45594000000E+02  0.51100000000E-03 0. -1.
         11   -1    0    0    0    0 -0.00000000000E+00 -0.00000000000E+00 -0.45593999997E+02  0.45594000000E+02  0.51100000000E-03 0.  1.
    9900012    2    1    2    0    0  0.11090462060E+02  0.13652456462E+02  0.36657567195E+02  0.50528866354E+02  0.30000019770E+02 0.  0.
        -12    1    1    2    0    0 -0.11090462060E+02 -0.13652456462E+02 -0.36657567195E+02  0.40659133646E+02  0.00000000000E+00 0.  1.
         11    1    3    3    0    0 -0.17456802383E+01  0.82502624989E+01  0.27247538619E+02  0.28522668035E+02  0.51100000000E-03 0. -1.
        -11    1    3    3    0    0  0.83892981573E+00  0.64129722552E+01 -0.39406566200E+00  0.64796068082E+01  0.51100000000E-03 0.  1.
        -12    1    3    3    0    0  0.11997212483E+02 -0.10107782921E+01  0.98040942385E+01  0.15526591511E+02  0.00000000000E+00 0.  1.
</event>
<event>
 7    1  0.5839176E-013  0.5052888E+02  0.7816164E-02  0.1300439E+00
        -11   -1    0    0    0    0  0.00000000000E+00  0.00000000000E+00  0.45593999997E+02  0.45594000000E+02  0.51100000000E-03 0.  1.
         11   -1    0    0    0    0 -0.00000000000E+00 -0.00000000000E+00 -0.45593999997E+02  0.45594000000E+02  0.51100000000E-03 0. -1.
    9900012    2    1    2    0    0 -0.98114782014E+01  0.21135979205E+02 -0.33319201088E+02  0.50528881925E+02  0.30000067099E+02 0.  0.
        -12    1    1    2    0    0  0.98114782014E+01 -0.21135979205E+02  0.33319201088E+02  0.40659118075E+02  0.00000000000E+00 0.  1.
         11    1    3    3    0    0  0.70408211711E+00 -0.71311465344E+00  0.12244576320E+01  0.15822644818E+01  0.51100000000E-03 0. -1.
        -11    1    3    3    0    0 -0.57972548827E+01 -0.43402845106E+01 -0.12253406957E+02  0.14233489246E+02  0.51100000000E-03 0.  1.
         12    1    3    3    0    0 -0.47183054358E+01  0.26189378369E+02 -0.22290251763E+02  0.34713128197E+02  0.00000000000E+00 0. -1.
</event>
<event>
 7    1  0.5839176E-013  0.5052886E+02  0.7816164E-02  0.1300439E+00
        -11   -1    0    0    0    0  0.00000000000E+00  0.00000000000E+00  0.45593999997E+02  0.45594000000E+02  0.51100000000E-03 0.  1.
         11   -1    0    0    0    0 -0.00000000000E+00 -0.00000000000E+00 -0.45593999997E+02  0.45594000000E+02  0.51100000000E-03 0. -1.
    9900012    2    1    2    0    0 -0.46201720186E+01  0.84101748125E+00 -0.40387033651E+02  0.50528858506E+02  0.29999995915E+02 0.  0.
        -12    1    1    2    0    0  0.46201720186E+01 -0.84101748125E+00  0.40387033651E+02  0.40659141494E+02  0.00000000000E+00 0.  1.
         11    1    3    3    0    0  0.29955934008E+01  0.43280562873E+01 -0.18338923081E+01  0.55739404650E+01  0.51100000000E-03 0. -1.
        -11    1    3    3    0    0 -0.34073797124E+01  0.55775731409E+01 -0.16758759812E+01  0.67474527943E+01  0.51100000000E-03 0.  1.
        -12    1    3    3    0    0 -0.42083857070E+01 -0.90646119469E+01 -0.36877265362E+02  0.38207465247E+02  0.00000000000E+00 0.  1.
</event>
<event>
 7    1  0.5839176E-013  0.5052887E+02  0.7816164E-02  0.1300439E+00
        -11   -1    0    0    0    0  0.00000000000E+00  0.00000000000E+00  0.45593999997E+02  0.45594000000E+02  0.51100000000E-03 0. -1.
         11   -1    0    0    0    0 -0.00000000000E+00 -0.00000000000E+00 -0.45593999997E+02  0.45594000000E+02  0.51100000000E-03 0.  1.
    9900012    2    1    2    0    0  0.55928131680E+01 -0.15853216220E+02  0.37021087398E+02  0.50528868974E+02  0.30000027735E+02 0.  0.
        -12    1    1    2    0    0 -0.55928131680E+01  0.15853216220E+02 -0.37021087398E+02  0.40659131026E+02  0.00000000000E+00 0.  1.
         11    1    3    3    0    0 -0.29201668047E+01 -0.43293431789E+01  0.22059879230E+02  0.22669557967E+02  0.51100000000E-03 0.  1.
        -11    1    3    3    0    0 -0.49763768371E+01 -0.36156659571E+01  0.94584930340E+01  0.11282750439E+02  0.51100000000E-03 0. -1.
        -12    1    3    3    0    0  0.13489356810E+02 -0.79082070842E+01  0.55027151341E+01  0.16576560568E+02  0.00000000000E+00 0.  1.
</event>
<event>
 7    1  0.5839176E-013  0.5052885E+02  0.7816164E-02  0.1300439E+00
        -11   -1    0    0    0    0  0.00000000000E+00  0.00000000000E+00  0.45593999997E+02  0.45594000000E+02  0.51100000000E-03 0.  1.
         11   -1    0    0    0    0 -0.00000000000E+00 -0.00000000000E+00 -0.45593999997E+02  0.45594000000E+02  0.51100000000E-03 0. -1.
    9900012    2    1    2    0    0  0.24452333991E+02  0.32448074023E+02 -0.15401665436E+01  0.50528852710E+02  0.29999978296E+02 0.  0.
        -12    1    1    2    0    0 -0.24452333991E+02 -0.32448074023E+02  0.15401665436E+01  0.40659147290E+02  0.00000000000E+00 0.  1.
         11    1    3    3    0    0  0.16566676669E+02  0.74706854755E+01 -0.37252213981E+01  0.18551096788E+02  0.51100000000E-03 0. -1.
        -11    1    3    3    0    0  0.10039919834E+02  0.85703653856E+01 -0.47588532210E+01  0.14032028982E+02  0.51100000000E-03 0.  1.
        -12    1    3    3    0    0 -0.21542625122E+01  0.16407023162E+02  0.69439080754E+01  0.17945726939E+02  0.00000000000E+00 0.  1.
</event>
<event>
 7    1  0.5839176E-013  0.5052886E+02  0.7816164E-02  0.1300439E+00
        -11   -1    0    0    0    0  0.00000000000E+00  0.00000000000E+00  0.45593999997E+02  0.45594000000E+02  0.51100000000E-03 0.  1.
         11   -1    0    0    0    0 -0.00000000000E+00 -0.00000000000E+00 -0.45593999997E+02  0.45594000000E+02  0.51100000000E-03 0. -1.
    9900012    2    1    2    0    0  0.10719751980E+02 -0.35777013732E+02  0.16070407054E+02  0.50528858630E+02  0.29999996290E+02 0.  0.
        -12    1    1    2    0    0 -0.10719751980E+02  0.35777013732E+02 -0.16070407054E+02  0.40659141370E+02  0.00000000000E+00 0.  1.
         11    1    3    3    0    0 -0.22268744626E+01 -0.12464305499E+02 -0.15525089013E+01  0.12756495036E+02  0.51100000000E-03 0. -1.
        -11    1    3    3    0    0  0.14757532995E+01 -0.20506415065E+02  0.15561328777E+02  0.25784605101E+02  0.51100000000E-03 0.  1.
         12    1    3    3    0    0  0.11470873143E+02 -0.28062931681E+01  0.20615871783E+01  0.11987758493E+02  0.00000000000E+00 0. -1.
</event>
<event>
 7    1  0.5839176E-013  0.5052882E+02  0.7816164E-02  0.1300439E+00
        -11   -1    0    0    0    0  0.00000000000E+00  0.00000000000E+00  0.45593999997E+02  0.45594000000E+02  0.51100000000E-03 0. -1.
         11   -1    0    0    0    0 -0.00000000000E+00 -0.00000000000E+00 -0.45593999997E+02  0.45594000000E+02  0.51100000000E-03 0.  1.
    9900012    2    1    2    0    0 -0.84262048505E+01  0.29841266028E+02  0.26299553325E+02  0.50528824019E+02  0.29999891088E+02 0.  0.
        -12    1    1    2    0    0  0.84262048505E+01 -0.29841266028E+02 -0.26299553325E+02  0.40659175981E+02  0.00000000000E+00 0.  1.
         11    1    3    3    0    0  0.95588161804E+00  0.46545365132E+01  0.14221532298E+02  0.14994345634E+02  0.51100000000E-03 0. -1.
        -11    1    3    3    0    0  0.40656100276E+01  0.52671964418E+01  0.91636382162E+01  0.11324522457E+02  0.51100000000E-03 0.  1.
         12    1    3    3    0    0 -0.13447696496E+02  0.19919533073E+02  0.29143828111E+01  0.24209955929E+02  0.00000000000E+00 0. -1.
</event>
<event>
 7    1  0.5839176E-013  0.5052886E+02  0.7816164E-02  0.1300439E+00
        -11   -1    0    0    0    0  0.00000000000E+00  0.00000000000E+00  0.45593999997E+02  0.45594000000E+02  0.51100000000E-03 0.  1.
         11   -1    0    0    0    0 -0.00000000000E+00 -0.00000000000E+00 -0.45593999997E+02  0.45594000000E+02  0.51100000000E-03 0. -1.
    9900012    2    1    2    0    0  0.24795655308E+02  0.21384156796E+02 -0.24105158481E+02  0.50528863888E+02  0.30000012273E+02 0.  0.
        -12    1    1    2    0    0 -0.24795655308E+02 -0.21384156796E+02  0.24105158481E+02  0.40659136112E+02  0.00000000000E+00 0.  1.
         11    1    3    3    0    0  0.44650485536E+01  0.12720136401E+02 -0.19071758670E+02  0.23355310053E+02  0.51100000000E-03 0. -1.
        -11    1    3    3    0    0  0.36026444050E+01 -0.48048300644E+00 -0.71214100043E+01  0.79952730622E+01  0.51100000000E-03 0.  1.
        -12    1    3    3    0    0  0.16727962349E+02  0.91445034012E+01  0.20880101938E+01  0.19178280772E+02  0.00000000000E+00 0.  1.
</event>
<event>
 7    1  0.5839176E-013  0.5052885E+02  0.7816164E-02  0.1300439E+00
        -11   -1    0    0    0    0  0.00000000000E+00  0.00000000000E+00  0.45593999997E+02  0.45594000000E+02  0.51100000000E-03 0. -1.
         11   -1    0    0    0    0 -0.00000000000E+00 -0.00000000000E+00 -0.45593999997E+02  0.45594000000E+02  0.51100000000E-03 0.  1.
    9900012    2    1    2    0    0  0.10524469626E+02 -0.38572428401E+02  0.73871173921E+01  0.50528853464E+02  0.29999980591E+02 0.  0.
        -12    1    1    2    0    0 -0.10524469626E+02  0.38572428401E+02 -0.73871173921E+01  0.40659146536E+02  0.00000000000E+00 0.  1.
         11    1    3    3    0    0  0.90009557648E+01 -0.24272537557E+02  0.13004766889E+02  0.28970627302E+02  0.51100000000E-03 0. -1.
        -11    1    3    3    0    0  0.37509874818E+01  0.20095115497E+01 -0.20125080305E+01  0.47072531896E+01  0.51100000000E-03 0.  1.
        -12    1    3    3    0    0 -0.22274736209E+01 -0.16309402393E+02 -0.36051414664E+01  0.16850972973E+02  0.00000000000E+00 0.  1.
</event>
<event>
 7    1  0.5839176E-013  0.5052886E+02  0.7816164E-02  0.1300439E+00
        -11   -1    0    0    0    0  0.00000000000E+00  0.00000000000E+00  0.45593999997E+02  0.45594000000E+02  0.51100000000E-03 0.  1.
         11   -1    0    0    0    0 -0.00000000000E+00 -0.00000000000E+00 -0.45593999997E+02  0.45594000000E+02  0.51100000000E-03 0. -1.
    9900012    2    1    2    0    0 -0.27029424769E+02  0.29065507840E+02 -0.88188720912E+01  0.50528855220E+02  0.29999985926E+02 0.  0.
        -12    1    1    2    0    0  0.27029424769E+02 -0.29065507840E+02  0.88188720912E+01  0.40659144780E+02  0.00000000000E+00 0.  1.
         11    1    3    3    0    0  0.76550712865E+00  0.19799388634E+02 -0.23199519867E+01  0.19949535556E+02  0.51100000000E-03 0.  1.
        -11    1    3    3    0    0 -0.47234049757E+01  0.38815217752E+01 -0.22213898657E+01  0.65047166774E+01  0.51100000000E-03 0. -1.
        -12    1    3    3    0    0 -0.23071526922E+02  0.53845974305E+01 -0.42775302388E+01  0.24074602986E+02  0.00000000000E+00 0.  1.
</event>
<event>
 7    1  0.5839176E-013  0.5052890E+02  0.7816164E-02  0.1300439E+00
        -11   -1    0    0    0    0  0.00000000000E+00  0.00000000000E+00  0.45593999997E+02  0.45594000000E+02  0.51100000000E-03 0.  1.
         11   -1    0    0    0    0 -0.00000000000E+00 -0.00000000000E+00 -0.45593999997E+02  0.45594000000E+02  0.51100000000E-03 0. -1.
    9900012    2    1    2    0    0  0.39912621554E+02 -0.52659047374E+01  0.56934792307E+01  0.50528895020E+02  0.30000106902E+02 0.  0.
        -12    1    1    2    0    0 -0.39912621554E+02  0.52659047374E+01 -0.56934792307E+01  0.40659104980E+02  0.00000000000E+00 0.  1.
         11    1    3    3    0    0  0.88713073163E+01 -0.18290643329E+01  0.37244995802E+01  0.97937463322E+01  0.51100000000E-03 0. -1.
        -11    1    3    3    0    0  0.25705797034E+02  0.11930611982E+01  0.12058315689E+02  0.28418556855E+02  0.51100000000E-03 0.  1.
        -12    1    3    3    0    0  0.53355172038E+01 -0.46299016027E+01 -0.10089336039E+02  0.12316591833E+02  0.00000000000E+00 0.  1.
</event>
<event>
 7    1  0.5839176E-013  0.5052886E+02  0.7816164E-02  0.1300439E+00
        -11   -1    0    0    0    0  0.00000000000E+00  0.00000000000E+00  0.45593999997E+02  0.45594000000E+02  0.51100000000E-03 0.  1.
         11   -1    0    0    0    0 -0.00000000000E+00 -0.00000000000E+00 -0.45593999997E+02  0.45594000000E+02  0.51100000000E-03 0. -1.
    9900012    2    1    2    0    0  0.14176886633E+01  0.36508199956E+02 -0.17841158481E+02  0.50528862760E+02  0.30000008845E+02 0.  0.
        -12    1    1    2    0    0 -0.14176886633E+01 -0.36508199956E+02  0.17841158481E+02  0.40659137240E+02  0.00000000000E+00 0.  1.
         11    1    3    3    0    0  0.85867600786E+01  0.28065145520E+02 -0.18486873165E+02  0.34686442905E+02  0.51100000000E-03 0. -1.
        -11    1    3    3    0    0  0.10298331036E+01  0.55245928977E+01  0.35741994778E+01  0.66600739541E+01  0.51100000000E-03 0.  1.
        -12    1    3    3    0    0 -0.81989045189E+01  0.29184615380E+01 -0.29284847932E+01  0.91823459008E+01  0.00000000000E+00 0.  1.
</event>
<event>
 7    1  0.5839176E-013  0.5052886E+02  0.7816164E-02  0.1300439E+00
        -11   -1    0    0    0    0  0.00000000000E+00  0.00000000000E+00  0.45593999997E+02  0.45594000000E+02  0.51100000000E-03 0.  1.
         11   -1    0    0    0    0 -0.00000000000E+00 -0.00000000000E+00 -0.45593999997E+02  0.45594000000E+02  0.51100000000E-03 0. -1.
    9900012    2    1    2    0    0 -0.13692919933E+02 -0.12423401870E+01 -0.38263907105E+02  0.50528855243E+02  0.29999985996E+02 0.  0.
        -12    1    1    2    0    0  0.13692919933E+02  0.12423401870E+01  0.38263907105E+02  0.40659144757E+02  0.00000000000E+00 0.  1.
         11    1    3    3    0    0 -0.90743095779E+01 -0.26370143924E+00 -0.13056096152E+02  0.15902021247E+02  0.51100000000E-03 0.  1.
        -11    1    3    3    0    0 -0.90764755206E+01 -0.81266608716E+01 -0.22823804394E+02  0.25871820038E+02  0.51100000000E-03 0. -1.
        -12    1    3    3    0    0  0.44578651658E+01  0.71480221239E+01 -0.23840065591E+01  0.87550139574E+01  0.00000000000E+00 0.  1.
</event>
<event>
 7    1  0.5839176E-013  0.5052886E+02  0.7816164E-02  0.1300439E+00
        -11   -1    0    0    0    0  0.00000000000E+00  0.00000000000E+00  0.45593999997E+02  0.45594000000E+02  0.51100000000E-03 0. -1.
         11   -1    0    0    0    0 -0.00000000000E+00 -0.00000000000E+00 -0.45593999997E+02  0.45594000000E+02  0.51100000000E-03 0.  1.
    9900012    2    1    2    0    0  0.26073225144E+02 -0.27668743209E+02  0.14415028350E+02  0.50528862497E+02  0.30000008046E+02 0.  0.
        -12    1    1    2    0    0 -0.26073225144E+02  0.27668743209E+02 -0.14415028350E+02  0.40659137503E+02  0.00000000000E+00 0.  1.
         11    1    3    3    0    0  0.68917464404E+01 -0.13009839431E+02  0.13291372778E+02  0.19834633387E+02  0.51100000000E-03 0. -1.
        -11    1    3    3    0    0  0.66307947582E+01 -0.10002642409E+02 -0.80635959568E+01  0.14458280475E+02  0.51100000000E-03 0.  1.
         12    1    3    3    0    0  0.12550683945E+02 -0.46562613695E+01  0.91872515289E+01  0.16235948635E+02  0.00000000000E+00 0. -1.
</event>
<event>
 7    1  0.5839176E-013  0.5052887E+02  0.7816164E-02  0.1300439E+00
        -11   -1    0    0    0    0  0.00000000000E+00  0.00000000000E+00  0.45593999997E+02  0.45594000000E+02  0.51100000000E-03 0. -1.
         11   -1    0    0    0    0 -0.00000000000E+00 -0.00000000000E+00 -0.45593999997E+02  0.45594000000E+02  0.51100000000E-03 0.  1.
    9900012    2    1    2    0    0 -0.33327686968E+02  0.52762533591E+01  0.22684607143E+02  0.50528868561E+02  0.30000026477E+02 0.  0.
        -12    1    1    2    0    0  0.33327686968E+02 -0.52762533591E+01 -0.22684607143E+02  0.40659131439E+02  0.00000000000E+00 0.  1.
         11    1    3    3    0    0 -0.10837508788E+02 -0.55484196950E+01  0.43466574388E+01  0.12927876430E+02  0.51100000000E-03 0. -1.
        -11    1    3    3    0    0  0.16658270648E+01 -0.40737116311E+01  0.18147499425E+01  0.47606117125E+01  0.51100000000E-03 0.  1.
         12    1    3    3    0    0 -0.24156005245E+02  0.14898384685E+02  0.16523199762E+02  0.32840380418E+02  0.00000000000E+00 0. -1.
</event>
<event>
 7    1  0.5839176E-013  0.5052887E+02  0.7816164E-02  0.1300439E+00
        -11   -1    0    0    0    0  0.00000000000E+00  0.00000000000E+00  0.45593999997E+02  0.45594000000E+02  0.51100000000E-03 0.  1.
         11   -1    0    0    0    0 -0.00000000000E+00 -0.00000000000E+00 -0.45593999997E+02  0.45594000000E+02  0.51100000000E-03 0. -1.
    9900012    2    1    2    0    0  0.36695294467E+02  0.20109892526E+01 -0.17394724739E+02  0.50528866186E+02  0.30000019258E+02 0.  0.
        -12    1    1    2    0    0 -0.36695294467E+02 -0.20109892526E+01  0.17394724739E+02  0.40659133814E+02  0.00000000000E+00 0.  1.
         11    1    3    3    0    0 -0.14621165961E+00 -0.29254949767E+00  0.23109278632E+01  0.23339560638E+01  0.51100000000E-03 0.  1.
        -11    1    3    3    0    0  0.16772051555E+02 -0.91073325700E+01 -0.21791051765E+01  0.19209209238E+02  0.51100000000E-03 0. -1.
         12    1    3    3    0    0  0.20069454571E+02  0.11410871320E+02 -0.17526547425E+02  0.28985700884E+02  0.00000000000E+00 0. -1.
</event>
<event>
 7    1  0.5839176E-013  0.5052886E+02  0.7816164E-02  0.1300439E+00
        -11   -1    0    0    0    0  0.00000000000E+00  0.00000000000E+00  0.45593999997E+02  0.45594000000E+02  0.51100000000E-03 0.  1.
         11   -1    0    0    0    0 -0.00000000000E+00 -0.00000000000E+00 -0.45593999997E+02  0.45594000000E+02  0.51100000000E-03 0. -1.
    9900012    2    1    2    0    0  0.28054079411E+02 -0.50138617907E+01 -0.28999920210E+02  0.50528861374E+02  0.30000004632E+02 0.  0.
        -12    1    1    2    0    0 -0.28054079411E+02  0.50138617907E+01  0.28999920210E+02  0.40659138626E+02  0.00000000000E+00 0.  1.
         11    1    3    3    0    0  0.76269429051E+01  0.86727942092E+01  0.38920974338E+00  0.11555911992E+02  0.51100000000E-03 0.  1.
        -11    1    3    3    0    0  0.61547676673E+01 -0.57722829515E+01 -0.56117562185E+01  0.10133717167E+02  0.51100000000E-03 0. -1.
        -12    1    3    3    0    0  0.14272368838E+02 -0.79143730484E+01 -0.23777373735E+02  0.28839232215E+02  0.00000000000E+00 0.  1.
</event>
<event>
 7    1  0.5839176E-013  0.5052886E+02  0.7816164E-02  0.1300439E+00
        -11   -1    0    0    0    0  0.00000000000E+00  0.00000000000E+00  0.45593999997E+02  0.45594000000E+02  0.51100000000E-03 0.  1.
         11   -1    0    0    0    0 -0.00000000000E+00 -0.00000000000E+00 -0.45593999997E+02  0.45594000000E+02  0.51100000000E-03 0. -1.
    9900012    2    1    2    0    0 -0.20704818142E+02  0.95387578797E+01 -0.33667321791E+02  0.50528856467E+02  0.29999989718E+02 0.  0.
        -12    1    1    2    0    0  0.20704818142E+02 -0.95387578797E+01  0.33667321791E+02  0.40659143533E+02  0.00000000000E+00 0.  1.
         11    1    3    3    0    0 -0.94127347667E+01  0.47567999411E+01 -0.36593177695E+01  0.11163213169E+02  0.51100000000E-03 0. -1.
        -11    1    3    3    0    0 -0.15013441945E+02 -0.22823358101E+01 -0.11007756455E+02  0.18755884363E+02  0.51100000000E-03 0.  1.
         12    1    3    3    0    0  0.37213585696E+01  0.70642937488E+01 -0.19000247567E+02  0.20609758935E+02  0.00000000000E+00 0. -1.
</event>
<event>
 7    1  0.5839176E-013  0.5052885E+02  0.7816164E-02  0.1300439E+00
        -11   -1    0    0    0    0  0.00000000000E+00  0.00000000000E+00  0.45593999997E+02  0.45594000000E+02  0.51100000000E-03 0.  1.
         11   -1    0    0    0    0 -0.00000000000E+00 -0.00000000000E+00 -0.45593999997E+02  0.45594000000E+02  0.51100000000E-03 0. -1.
    9900012    2    1    2    0    0 -0.34460313475E+01  0.40470881305E+02  0.18435645007E+01  0.50528854709E+02  0.29999984375E+02 0.  0.
        -12    1    1    2    0    0  0.34460313475E+01 -0.40470881305E+02 -0.18435645007E+01  0.40659145291E+02  0.00000000000E+00 0.  1.
         11    1    3    3    0    0 -0.84927115896E+01  0.47312712350E+01 -0.20734983683E+01  0.99403457379E+01  0.51100000000E-03 0. -1.
        -11    1    3    3    0    0 -0.31995740184E+01  0.53450566461E+01 -0.48531407196E+01  0.78968271828E+01  0.51100000000E-03 0.  1.
        -12    1    3    3    0    0  0.82462542606E+01  0.30394553424E+02  0.87702035886E+01  0.32691681789E+02  0.00000000000E+00 0.  1.
</event>
<event>
 7    1  0.5839176E-013  0.5052888E+02  0.7816164E-02  0.1300439E+00
        -11   -1    0    0    0    0  0.00000000000E+00  0.00000000000E+00  0.45593999997E+02  0.45594000000E+02  0.51100000000E-03 0.  1.
         11   -1    0    0    0    0 -0.00000000000E+00 -0.00000000000E+00 -0.45593999997E+02  0.45594000000E+02  0.51100000000E-03 0. -1.
    9900012    2    1    2    0    0  0.28974745009E+02 -0.11333451277E+02 -0.26175966315E+02  0.50528878284E+02  0.30000056033E+02 0.  0.
        -12    1    1    2    0    0 -0.28974745009E+02  0.11333451277E+02  0.26175966315E+02  0.40659121716E+02  0.00000000000E+00 0.  1.
         11    1    3    3    0    0  0.13700627677E+02 -0.43069734431E+01 -0.13502517590E+02  0.19712310887E+02  0.51100000000E-03 0. -1.
        -11    1    3    3    0    0  0.20629429143E+02 -0.27630107038E+01 -0.11772565057E+02  0.23912357960E+02  0.51100000000E-03 0.  1.
        -12    1    3    3    0    0 -0.53553118115E+01 -0.42634671299E+01 -0.90088366731E+00  0.69042094369E+01  0.00000000000E+00 0.  1.
</event>
<event>
 7    1  0.5839176E-013  0.5052886E+02  0.7816164E-02  0.1300439E+00
        -11   -1    0    0    0    0  0.00000000000E+00  0.00000000000E+00  0.45593999997E+02  0.45594000000E+02  0.51100000000E-03 0.  1.
         11   -1    0    0    0    0 -0.00000000000E+00 -0.00000000000E+00 -0.45593999997E+02  0.45594000000E+02  0.51100000000E-03 0. -1.
    9900012    2    1    2    0    0 -0.17522574742E+02 -0.30035911804E+02 -0.21070567148E+02  0.50528862977E+02  0.30000009506E+02 0.  0.
        -12    1    1    2    0    0  0.17522574742E+02  0.30035911804E+02  0.21070567148E+02  0.40659137023E+02  0.00000000000E+00 0.  1.
         11    1    3    3    0    0 -0.11583394450E+02 -0.22560841460E+02 -0.10774673544E+02  0.27554676275E+02  0.51100000000E-03 0. -1.
        -11    1    3    3    0    0 -0.53392229813E+01 -0.12909187877E+02 -0.37871857054E+01  0.14474018430E+02  0.51100000000E-03 0.  1.
        -12    1    3    3    0    0 -0.59995731036E+00  0.54341175333E+01 -0.65087078991E+01  0.85001682722E+01  0.00000000000E+00 0.  1.
</event>
<event>
 7    1  0.5839176E-013  0.5052884E+02  0.7816164E-02  0.1300439E+00
        -11   -1    0    0    0    0  0.00000000000E+00  0.00000000000E+00  0.45593999997E+02  0.45594000000E+02  0.51100000000E-03 0. -1.
         11   -1    0    0    0    0 -0.00000000000E+00 -0.00000000000E+00 -0.45593999997E+02  0.45594000000E+02  0.51100000000E-03 0.  1.
    9900012    2    1    2    0    0  0.19310796891E+01 -0.38050221517E+02  0.14199252668E+02  0.50528841098E+02  0.29999943002E+02 0.  0.
        -12    1    1    2    0    0 -0.19310796891E+01  0.38050221517E+02 -0.14199252668E+02  0.40659158902E+02  0.00000000000E+00 0.  1.
         11    1    3    3    0    0  0.42682052654E+01 -0.23445753450E+02  0.14832034287E+02  0.28069737661E+02  0.51100000000E-03 0. -1.
        -11    1    3    3    0    0 -0.23089079364E+01 -0.95413677030E+01  0.78572200861E+01  0.12573967602E+02  0.51100000000E-03 0.  1.
        -12    1    3    3    0    0 -0.28217639960E-01 -0.50631003639E+01 -0.84900017051E+01  0.98851358353E+01  0.00000000000E+00 0.  1.
</event>
<event>
 7    1  0.5839176E-013  0.5052886E+02  0.7816164E-02  0.1300439E+00
        -11   -1    0    0    0    0  0.00000000000E+00  0.00000000000E+00  0.45593999997E+02  0.45594000000E+02  0.51100000000E-03 0.  1.
         11   -1    0    0    0    0 -0.00000000000E+00 -0.00000000000E+00 -0.45593999997E+02  0.45594000000E+02  0.51100000000E-03 0. -1.
    9900012    2    1    2    0    0 -0.36441611018E+02 -0.54143210391E+01 -0.17200584142E+02  0.50528856124E+02  0.29999988675E+02 0.  0.
        -12    1    1    2    0    0  0.36441611018E+02  0.54143210391E+01  0.17200584142E+02  0.40659143876E+02  0.00000000000E+00 0.  1.
         11    1    3    3    0    0  0.38739129895E+01 -0.47556809320E+01 -0.39758170756E+01  0.73096391605E+01  0.51100000000E-03 0.  1.
        -11    1    3    3    0    0 -0.21025269839E+02  0.57027479654E+00 -0.26867637350E+01  0.21203912016E+02  0.51100000000E-03 0. -1.
        -12    1    3    3    0    0 -0.19290254168E+02 -0.12289149036E+01 -0.10538003332E+02  0.22015304948E+02  0.00000000000E+00 0.  1.
</event>
<event>
 7    1  0.5839176E-013  0.5052886E+02  0.7816164E-02  0.1300439E+00
        -11   -1    0    0    0    0  0.00000000000E+00  0.00000000000E+00  0.45593999997E+02  0.45594000000E+02  0.51100000000E-03 0. -1.
         11   -1    0    0    0    0 -0.00000000000E+00 -0.00000000000E+00 -0.45593999997E+02  0.45594000000E+02  0.51100000000E-03 0.  1.
    9900012    2    1    2    0    0  0.36097455408E+02  0.18618702381E+02  0.18663605993E+01  0.50528859980E+02  0.30000000396E+02 0.  0.
        -12    1    1    2    0    0 -0.36097455408E+02 -0.18618702381E+02 -0.18663605993E+01  0.40659140020E+02  0.00000000000E+00 0.  1.
         11    1    3    3    0    0 -0.41976791485E+01  0.23045943912E+01  0.10921366471E+01  0.49116624740E+01  0.51100000000E-03 0. -1.
        -11    1    3    3    0    0  0.13109181246E+02  0.91000880856E+01 -0.53505625776E+01  0.16831243456E+02  0.51100000000E-03 0.  1.
        -12    1    3    3    0    0  0.27185953310E+02  0.72140199039E+01  0.61247865298E+01  0.28785954051E+02  0.00000000000E+00 0.  1.
</event>
<event>
 7    1  0.5839176E-013  0.5052886E+02  0.7816164E-02  0.1300439E+00
        -11   -1    0    0    0    0  0.00000000000E+00  0.00000000000E+00  0.45593999997E+02  0.45594000000E+02  0.51100000000E-03 0.  1.
         11   -1    0    0    0    0 -0.00000000000E+00 -0.00000000000E+00 -0.45593999997E+02  0.45594000000E+02  0.51100000000E-03 0. -1.
    9900012    2    1    2    0    0  0.25380546957E+01  0.22027974590E+02 -0.34080668703E+02  0.50528863690E+02  0.30000011673E+02 0.  0.
        -12    1    1    2    0    0 -0.25380546957E+01 -0.22027974590E+02  0.34080668703E+02  0.40659136310E+02  0.00000000000E+00 0.  1.
         11    1    3    3    0    0  0.85954349609E+00  0.57598591796E+01 -0.90078726649E+01  0.10726442234E+02  0.51100000000E-03 0. -1.
        -11    1    3    3    0    0 -0.11323689389E+02  0.13360813681E+02 -0.15607973321E+02  0.23459456836E+02  0.51100000000E-03 0.  1.
         12    1    3    3    0    0  0.13002200589E+02  0.29073017298E+01 -0.94648227179E+01  0.16342964620E+02  0.00000000000E+00 0. -1.
</event>
<event>
 7    1  0.5839176E-013  0.5052886E+02  0.7816164E-02  0.1300439E+00
        -11   -1    0    0    0    0  0.00000000000E+00  0.00000000000E+00  0.45593999997E+02  0.45594000000E+02  0.51100000000E-03 0. -1.
         11   -1    0    0    0    0 -0.00000000000E+00 -0.00000000000E+00 -0.45593999997E+02  0.45594000000E+02  0.51100000000E-03 0.  1.
    9900012    2    1    2    0    0  0.26641559936E+02 -0.27737588350E+02  0.13191632806E+02  0.50528859584E+02  0.29999999192E+02 0.  0.
        -12    1    1    2    0    0 -0.26641559936E+02  0.27737588350E+02 -0.13191632806E+02  0.40659140416E+02  0.00000000000E+00 0.  1.
         11    1    3    3    0    0  0.83957065121E+01 -0.16202003897E+02  0.15473547326E+02  0.23925373251E+02  0.51100000000E-03 0. -1.
        -11    1    3    3    0    0  0.38830119378E+01  0.33204481162E+01  0.20246741362E+01  0.54956767572E+01  0.51100000000E-03 0.  1.
         12    1    3    3    0    0  0.14362841486E+02 -0.14856032569E+02 -0.43065886555E+01  0.21107809576E+02  0.00000000000E+00 0. -1.
</event>
<event>
 7    1  0.5839176E-013  0.5052886E+02  0.7816164E-02  0.1300439E+00
        -11   -1    0    0    0    0  0.00000000000E+00  0.00000000000E+00  0.45593999997E+02  0.45594000000E+02  0.51100000000E-03 0.  1.
         11   -1    0    0    0    0 -0.00000000000E+00 -0.00000000000E+00 -0.45593999997E+02  0.45594000000E+02  0.51100000000E-03 0. -1.
    9900012    2    1    2    0    0  0.17401008188E+02  0.23009240872E+02 -0.28652140111E+02  0.50528863457E+02  0.30000010964E+02 0.  0.
        -12    1    1    2    0    0 -0.17401008188E+02 -0.23009240872E+02  0.28652140111E+02  0.40659136543E+02  0.00000000000E+00 0.  1.
         11    1    3    3    0    0 -0.48333948516E+01 -0.80369277550E+00 -0.34805923608E+01  0.60101706558E+01  0.51100000000E-03 0. -1.
        -11    1    3    3    0    0  0.50165778456E+01  0.16123432411E+02 -0.68359666775E+01  0.18217068004E+02  0.51100000000E-03 0.  1.
        -12    1    3    3    0    0  0.17217825194E+02  0.76895012364E+01 -0.18335581073E+02  0.26301624797E+02  0.00000000000E+00 0.  1.
</event>
<event>
 7    1  0.5839176E-013  0.5052887E+02  0.7816164E-02  0.1300439E+00
        -11   -1    0    0    0    0  0.00000000000E+00  0.00000000000E+00  0.45593999997E+02  0.45594000000E+02  0.51100000000E-03 0. -1.
         11   -1    0    0    0    0 -0.00000000000E+00 -0.00000000000E+00 -0.45593999997E+02  0.45594000000E+02  0.51100000000E-03 0.  1.
    9900012    2    1    2    0    0  0.36248194261E+02 -0.17406544248E+02  0.60204486846E+01  0.50528866066E+02  0.30000018896E+02 0.  0.
        -12    1    1    2    0    0 -0.36248194261E+02  0.17406544248E+02 -0.60204486846E+01  0.40659133934E+02  0.00000000000E+00 0.  1.
         11    1    3    3    0    0  0.11525713231E+02 -0.15658349733E+02  0.23997033947E+01  0.19590420070E+02  0.51100000000E-03 0.  1.
        -11    1    3    3    0    0  0.16113482506E+02 -0.65749613863E+01  0.91114761587E+01  0.19644170478E+02  0.51100000000E-03 0. -1.
         12    1    3    3    0    0  0.86089985244E+01  0.48267668722E+01 -0.54907308688E+01  0.11294275519E+02  0.00000000000E+00 0. -1.
</event>
<event>
 7    1  0.5839176E-013  0.5052885E+02  0.7816164E-02  0.1300439E+00
        -11   -1    0    0    0    0  0.00000000000E+00  0.00000000000E+00  0.45593999997E+02  0.45594000000E+02  0.51100000000E-03 0. -1.
         11   -1    0    0    0    0 -0.00000000000E+00 -0.00000000000E+00 -0.45593999997E+02  0.45594000000E+02  0.51100000000E-03 0.  1.
    9900012    2    1    2    0    0  0.26521200170E+01  0.38931249700E+02  0.11423228154E+02  0.50528854838E+02  0.29999984767E+02 0.  0.
        -12    1    1    2    0    0 -0.26521200170E+01 -0.38931249700E+02 -0.11423228154E+02  0.40659145162E+02  0.00000000000E+00 0.  1.
         11    1    3    3    0    0  0.10434411089E+00  0.46765453856E+01 -0.49039681651E+01  0.67771578455E+01  0.51100000000E-03 0. -1.
        -11    1    3    3    0    0  0.40266888614E+01  0.67266778958E+01 -0.46457576093E+01  0.91129294261E+01  0.51100000000E-03 0.  1.
         12    1    3    3    0    0 -0.14789129553E+01  0.27528026419E+02  0.20972953929E+02  0.34638767567E+02  0.00000000000E+00 0. -1.
</event>
<event>
 7    1  0.5839176E-013  0.5052886E+02  0.7816164E-02  0.1300439E+00
        -11   -1    0    0    0    0  0.00000000000E+00  0.00000000000E+00  0.45593999997E+02  0.45594000000E+02  0.51100000000E-03 0.  1.
         11   -1    0    0    0    0 -0.00000000000E+00 -0.00000000000E+00 -0.45593999997E+02  0.45594000000E+02  0.51100000000E-03 0. -1.
    9900012    2    1    2    0    0  0.30017257304E+02  0.14984634170E+02 -0.22969333826E+02  0.50528864573E+02  0.30000014356E+02 0.  0.
        -12    1    1    2    0    0 -0.30017257304E+02 -0.14984634170E+02  0.22969333826E+02  0.40659135427E+02  0.00000000000E+00 0.  1.
         11    1    3    3    0    0 -0.36905393633E+01  0.76822398949E+01 -0.40443548090E+01  0.94336470507E+01  0.51100000000E-03 0. -1.
        -11    1    3    3    0    0  0.18083062269E+02 -0.93974960081E+00 -0.13595985695E+02  0.22643566363E+02  0.51100000000E-03 0.  1.
        -12    1    3    3    0    0  0.15624734398E+02  0.82421438759E+01 -0.53289933218E+01  0.18451651159E+02  0.00000000000E+00 0.  1.
</event>
<event>
 7    1  0.5839176E-013  0.5052880E+02  0.7816164E-02  0.1300439E+00
        -11   -1    0    0    0    0  0.00000000000E+00  0.00000000000E+00  0.45593999997E+02  0.45594000000E+02  0.51100000000E-03 0. -1.
         11   -1    0    0    0    0 -0.00000000000E+00 -0.00000000000E+00 -0.45593999997E+02  0.45594000000E+02  0.51100000000E-03 0.  1.
    9900012    2    1    2    0    0 -0.37094556364E+02  0.11916533327E+02  0.11625873123E+02  0.50528796807E+02  0.29999808375E+02 0.  0.
        -12    1    1    2    0    0  0.37094556364E+02 -0.11916533327E+02 -0.11625873123E+02  0.40659203193E+02  0.00000000000E+00 0.  1.
         11    1    3    3    0    0 -0.24719736074E+02  0.68060349181E+01  0.10391220408E+02  0.27665229525E+02  0.51100000000E-03 0.  1.
        -11    1    3    3    0    0 -0.34043972053E+01 -0.36996713711E+01  0.73317071220E+01  0.88899616518E+01  0.51100000000E-03 0. -1.
        -12    1    3    3    0    0 -0.89704230852E+01  0.88101697795E+01 -0.60970544067E+01  0.13973605630E+02  0.00000000000E+00 0.  1.
</event>
<event>
 7    1  0.5839176E-013  0.5052886E+02  0.7816164E-02  0.1300439E+00
        -11   -1    0    0    0    0  0.00000000000E+00  0.00000000000E+00  0.45593999997E+02  0.45594000000E+02  0.51100000000E-03 0. -1.
         11   -1    0    0    0    0 -0.00000000000E+00 -0.00000000000E+00 -0.45593999997E+02  0.45594000000E+02  0.51100000000E-03 0.  1.
    9900012    2    1    2    0    0 -0.19059605323E+02  0.18320910149E+02  0.30890791716E+02  0.50528864291E+02  0.30000013500E+02 0.  0.
        -12    1    1    2    0    0  0.19059605323E+02 -0.18320910149E+02 -0.30890791716E+02  0.40659135709E+02  0.00000000000E+00 0.  1.
         11    1    3    3    0    0 -0.71372073272E+01  0.40093135364E+01 -0.43853895950E+01  0.92868706045E+01  0.51100000000E-03 0.  1.
        -11    1    3    3    0    0 -0.58539424899E+01  0.26453651573E+01  0.47054037807E+01  0.79628779026E+01  0.51100000000E-03 0. -1.
         12    1    3    3    0    0 -0.60684555055E+01  0.11666231456E+02  0.30570777530E+02  0.33279115784E+02  0.00000000000E+00 0. -1.
</event>
<event>
 7    1  0.5839176E-013  0.5052886E+02  0.7816164E-02  0.1300439E+00
        -11   -1    0    0    0    0  0.00000000000E+00  0.00000000000E+00  0.45593999997E+02  0.45594000000E+02  0.51100000000E-03 0.  1.
         11   -1    0    0    0    0 -0.00000000000E+00 -0.00000000000E+00 -0.45593999997E+02  0.45594000000E+02  0.51100000000E-03 0. -1.
    9900012    2    1    2    0    0 -0.22018314701E+02 -0.32502408262E+02 -0.10580781413E+02  0.50528860063E+02  0.30000000647E+02 0.  0.
        -12    1    1    2    0    0  0.22018314701E+02  0.32502408262E+02  0.10580781413E+02  0.40659139937E+02  0.00000000000E+00 0.  1.
         11    1    3    3    0    0 -0.26086347516E+01 -0.34842085026E+01  0.70189958262E+01  0.82589942987E+01  0.51100000000E-03 0. -1.
        -11    1    3    3    0    0 -0.64326481088E+01 -0.57599893428E+00 -0.13558261071E+00  0.64598079979E+01  0.51100000000E-03 0.  1.
         12    1    3    3    0    0 -0.12977031841E+02 -0.28442200826E+02 -0.17464194628E+02  0.35810057766E+02  0.00000000000E+00 0. -1.
</event>
<event>
 7    1  0.5839176E-013  0.5052885E+02  0.7816164E-02  0.1300439E+00
        -11   -1    0    0    0    0  0.00000000000E+00  0.00000000000E+00  0.45593999997E+02  0.45594000000E+02  0.51100000000E-03 0.  1.
         11   -1    0    0    0    0 -0.00000000000E+00 -0.00000000000E+00 -0.45593999997E+02  0.45594000000E+02  0.51100000000E-03 0. -1.
    9900012    2    1    2    0    0  0.44211051585E+01 -0.16973082607E+02 -0.36681526726E+02  0.50528854571E+02  0.29999983956E+02 0.  0.
        -12    1    1    2    0    0 -0.44211051585E+01  0.16973082607E+02  0.36681526726E+02  0.40659145429E+02  0.00000000000E+00 0.  1.
         11    1    3    3    0    0  0.51708965075E+01 -0.57506540254E+01 -0.10167481135E+02  0.12774422308E+02  0.51100000000E-03 0. -1.
        -11    1    3    3    0    0  0.87602859759E+01 -0.19548701568E+01 -0.10512103370E+01  0.90370997086E+01  0.51100000000E-03 0.  1.
        -12    1    3    3    0    0 -0.95100773249E+01 -0.92675584244E+01 -0.25462835254E+02  0.28717332555E+02  0.00000000000E+00 0.  1.
</event>
<event>
 7    1  0.5839176E-013  0.5052886E+02  0.7816164E-02  0.1300439E+00
        -11   -1    0    0    0    0  0.00000000000E+00  0.00000000000E+00  0.45593999997E+02  0.45594000000E+02  0.51100000000E-03 0.  1.
         11   -1    0    0    0    0 -0.00000000000E+00 -0.00000000000E+00 -0.45593999997E+02  0.45594000000E+02  0.51100000000E-03 0. -1.
    9900012    2    1    2    0    0  0.15940428374E+02  0.24928009491E+02 -0.27886610018E+02  0.50528856720E+02  0.29999990487E+02 0.  0.
        -12    1    1    2    0    0 -0.15940428374E+02 -0.24928009491E+02  0.27886610018E+02  0.40659143280E+02  0.00000000000E+00 0.  1.
         11    1    3    3    0    0  0.10264928497E+02  0.96109534635E+00 -0.88218063055E+01  0.13568961938E+02  0.51100000000E-03 0. -1.
        -11    1    3    3    0    0  0.26486325435E+01 -0.24357367471E+01  0.91342345040E+00  0.37124669039E+01  0.51100000000E-03 0.  1.
        -12    1    3    3    0    0  0.30268673328E+01  0.26402650892E+02 -0.19978227163E+02  0.33247427879E+02  0.00000000000E+00 0.  1.
</event>
<event>
 7    1  0.5839176E-013  0.5052886E+02  0.7816164E-02  0.1300439E+00
        -11   -1    0    0    0    0  0.00000000000E+00  0.00000000000E+00  0.45593999997E+02  0.45594000000E+02  0.51100000000E-03 0. -1.
         11   -1    0    0    0    0 -0.00000000000E+00 -0.00000000000E+00 -0.45593999997E+02  0.45594000000E+02  0.51100000000E-03 0.  1.
    9900012    2    1    2    0    0 -0.60260185415E+01  0.39109622043E+02  0.93429130472E+01  0.50528862527E+02  0.30000008138E+02 0.  0.
        -12    1    1    2    0    0  0.60260185415E+01 -0.39109622043E+02 -0.93429130472E+01  0.40659137473E+02  0.00000000000E+00 0.  1.
         11    1    3    3    0    0 -0.92524723276E+01  0.15845215446E+02  0.86022366398E+00  0.18368970622E+02  0.51100000000E-03 0. -1.
        -11    1    3    3    0    0 -0.49347456346E+01  0.21609072802E+02  0.34565721248E+01  0.22433270670E+02  0.51100000000E-03 0.  1.
        -12    1    3    3    0    0  0.81611994207E+01  0.16553337953E+01  0.50261172584E+01  0.97266212353E+01  0.00000000000E+00 0.  1.
</event>
<event>
 7    1  0.5839176E-013  0.5052886E+02  0.7816164E-02  0.1300439E+00
        -11   -1    0    0    0    0  0.00000000000E+00  0.00000000000E+00  0.45593999997E+02  0.45594000000E+02  0.51100000000E-03 0.  1.
         11   -1    0    0    0    0 -0.00000000000E+00 -0.00000000000E+00 -0.45593999997E+02  0.45594000000E+02  0.51100000000E-03 0. -1.
    9900012    2    1    2    0    0 -0.10180331064E+02 -0.89158460384E+01 -0.38341027670E+02  0.50528857683E+02  0.29999993413E+02 0.  0.
        -12    1    1    2    0    0  0.10180331064E+02  0.89158460384E+01  0.38341027670E+02  0.40659142317E+02  0.00000000000E+00 0.  1.
         11    1    3    3    0    0 -0.10806524977E+02 -0.91821494662E+01 -0.17913292923E+02  0.22846857869E+02  0.51100000000E-03 0. -1.
        -11    1    3    3    0    0 -0.70464068698E+01  0.58410637252E+01 -0.10992492182E+02  0.14304012019E+02  0.51100000000E-03 0.  1.
        -12    1    3    3    0    0  0.76726007832E+01 -0.55747602974E+01 -0.94352425657E+01  0.13377987794E+02  0.00000000000E+00 0.  1.
</event>
<event>
 7    1  0.5839176E-013  0.5052887E+02  0.7816164E-02  0.1300439E+00
        -11   -1    0    0    0    0  0.00000000000E+00  0.00000000000E+00  0.45593999997E+02  0.45594000000E+02  0.51100000000E-03 0. -1.
         11   -1    0    0    0    0 -0.00000000000E+00 -0.00000000000E+00 -0.45593999997E+02  0.45594000000E+02  0.51100000000E-03 0.  1.
    9900012    2    1    2    0    0 -0.17612555656E+02  0.23998057529E+02  0.27695779652E+02  0.50528867048E+02  0.30000021880E+02 0.  0.
        -12    1    1    2    0    0  0.17612555656E+02 -0.23998057529E+02 -0.27695779652E+02  0.40659132952E+02  0.00000000000E+00 0.  1.
         11    1    3    3    0    0 -0.43715425253E+01  0.94885773593E+00  0.49547926024E+01  0.66753790190E+01  0.51100000000E-03 0. -1.
        -11    1    3    3    0    0 -0.10224297877E+02 -0.56337306894E+00  0.16203048279E+02  0.19167483666E+02  0.51100000000E-03 0.  1.
        -12    1    3    3    0    0 -0.30167152533E+01  0.23612572862E+02  0.65379387705E+01  0.24686004364E+02  0.00000000000E+00 0.  1.
</event>
<event>
 7    1  0.5839176E-013  0.5052886E+02  0.7816164E-02  0.1300439E+00
        -11   -1    0    0    0    0  0.00000000000E+00  0.00000000000E+00  0.45593999997E+02  0.45594000000E+02  0.51100000000E-03 0. -1.
         11   -1    0    0    0    0 -0.00000000000E+00 -0.00000000000E+00 -0.45593999997E+02  0.45594000000E+02  0.51100000000E-03 0.  1.
    9900012    2    1    2    0    0 -0.39693544506E+02  0.58813122405E+01  0.65573235545E+01  0.50528858331E+02  0.29999995382E+02 0.  0.
        -12    1    1    2    0    0  0.39693544506E+02 -0.58813122405E+01 -0.65573235545E+01  0.40659141669E+02  0.00000000000E+00 0.  1.
         11    1    3    3    0    0 -0.16339412242E+02 -0.73728192549E+01  0.68257564059E+01  0.19181392206E+02  0.51100000000E-03 0. -1.
        -11    1    3    3    0    0 -0.67199227344E+00  0.73540180258E+01  0.23862897175E+01  0.77606400262E+01  0.51100000000E-03 0.  1.
         12    1    3    3    0    0 -0.22682139990E+02  0.59001134696E+01 -0.26547225688E+01  0.23586826099E+02  0.00000000000E+00 0. -1.
</event>
<event>
 7    1  0.5839176E-013  0.5052886E+02  0.7816164E-02  0.1300439E+00
        -11   -1    0    0    0    0  0.00000000000E+00  0.00000000000E+00  0.45593999997E+02  0.45594000000E+02  0.51100000000E-03 0.  1.
         11   -1    0    0    0    0 -0.00000000000E+00 -0.00000000000E+00 -0.45593999997E+02  0.45594000000E+02  0.51100000000E-03 0. -1.
    9900012    2    1    2    0    0  0.40486381175E+02 -0.33072462135E+01  0.17552280209E+01  0.50528858795E+02  0.29999996792E+02 0.  0.
        -12    1    1    2    0    0 -0.40486381175E+02  0.33072462135E+01 -0.17552280209E+01  0.40659141205E+02  0.00000000000E+00 0.  1.
         11    1    3    3    0    0  0.25995212104E+01  0.31544210688E+01  0.86045836736E+01  0.95261085056E+01  0.51100000000E-03 0. -1.
        -11    1    3    3    0    0  0.19630700815E+01  0.27136733910E+01 -0.52235951987E+00  0.33897680078E+01  0.51100000000E-03 0.  1.
         12    1    3    3    0    0  0.35923789883E+02 -0.91753406733E+01 -0.63269961329E+01  0.37612982281E+02  0.00000000000E+00 0. -1.
</event>
<event>
 7    1  0.5839176E-013  0.5052887E+02  0.7816164E-02  0.1300439E+00
        -11   -1    0    0    0    0  0.00000000000E+00  0.00000000000E+00  0.45593999997E+02  0.45594000000E+02  0.51100000000E-03 0.  1.
         11   -1    0    0    0    0 -0.00000000000E+00 -0.00000000000E+00 -0.45593999997E+02  0.45594000000E+02  0.51100000000E-03 0. -1.
    9900012    2    1    2    0    0 -0.14836255235E+02 -0.55398681627E+01 -0.37448101363E+02  0.50528869361E+02  0.30000028909E+02 0.  0.
        -12    1    1    2    0    0  0.14836255235E+02  0.55398681627E+01  0.37448101363E+02  0.40659130639E+02  0.00000000000E+00 0.  1.
         11    1    3    3    0    0 -0.34620852766E+01 -0.45292281476E+01 -0.50870597802E+01  0.76405575414E+01  0.51100000000E-03 0. -1.
        -11    1    3    3    0    0 -0.18097231401E+02 -0.58724844887E+01 -0.26926155333E+02  0.32969890806E+02  0.51100000000E-03 0.  1.
        -12    1    3    3    0    0  0.67230614432E+01  0.48618444735E+01 -0.54348862498E+01  0.99184210136E+01  0.00000000000E+00 0.  1.
</event>
<event>
 7    1  0.5839176E-013  0.5052886E+02  0.7816164E-02  0.1300439E+00
        -11   -1    0    0    0    0  0.00000000000E+00  0.00000000000E+00  0.45593999997E+02  0.45594000000E+02  0.51100000000E-03 0.  1.
         11   -1    0    0    0    0 -0.00000000000E+00 -0.00000000000E+00 -0.45593999997E+02  0.45594000000E+02  0.51100000000E-03 0. -1.
    9900012    2    1    2    0    0  0.28111055742E+02  0.21104169722E+02 -0.20433991257E+02  0.50528862856E+02  0.30000009137E+02 0.  0.
        -12    1    1    2    0    0 -0.28111055742E+02 -0.21104169722E+02  0.20433991257E+02  0.40659137144E+02  0.00000000000E+00 0.  1.
         11    1    3    3    0    0  0.26251744953E+02  0.71114139723E+01 -0.15191371850E+02  0.31152914802E+02  0.51100000000E-03 0. -1.
        -11    1    3    3    0    0  0.17856831216E+01  0.14404087415E+02 -0.80095276062E+01  0.16577663623E+02  0.51100000000E-03 0.  1.
        -12    1    3    3    0    0  0.73627667861E-01 -0.41133166542E+00  0.27669081987E+01  0.27982844303E+01  0.00000000000E+00 0.  1.
</event>
<event>
 7    1  0.5839176E-013  0.5052882E+02  0.7816164E-02  0.1300439E+00
        -11   -1    0    0    0    0  0.00000000000E+00  0.00000000000E+00  0.45593999997E+02  0.45594000000E+02  0.51100000000E-03 0. -1.
         11   -1    0    0    0    0 -0.00000000000E+00 -0.00000000000E+00 -0.45593999997E+02  0.45594000000E+02  0.51100000000E-03 0.  1.
    9900012    2    1    2    0    0 -0.36966796136E+02  0.14906731390E+02 -0.80258496134E+01  0.50528819987E+02  0.29999878833E+02 0.  0.
        -12    1    1    2    0    0  0.36966796136E+02 -0.14906731390E+02  0.80258496134E+01  0.40659180013E+02  0.00000000000E+00 0.  1.
         11    1    3    3    0    0 -0.65106466258E+01  0.15134016607E+02  0.16617636579E+01  0.16558636322E+02  0.51100000000E-03 0. -1.
        -11    1    3    3    0    0 -0.95990519448E+01  0.49516227914E+01 -0.12118733987E+01  0.10868716755E+02  0.51100000000E-03 0.  1.
        -12    1    3    3    0    0 -0.20857097565E+02 -0.51789080080E+01 -0.84757398726E+01  0.23101466910E+02  0.00000000000E+00 0.  1.
</event>
<event>
 7    1  0.5839176E-013  0.5052886E+02  0.7816164E-02  0.1300439E+00
        -11   -1    0    0    0    0  0.00000000000E+00  0.00000000000E+00  0.45593999997E+02  0.45594000000E+02  0.51100000000E-03 0. -1.
         11   -1    0    0    0    0 -0.00000000000E+00 -0.00000000000E+00 -0.45593999997E+02  0.45594000000E+02  0.51100000000E-03 0.  1.
    9900012    2    1    2    0    0  0.15580528642E+02  0.54898932376E+00 -0.37551449991E+02  0.50528860087E+02  0.30000000721E+02 0.  0.
        -12    1    1    2    0    0 -0.15580528642E+02 -0.54898932376E+00  0.37551449991E+02  0.40659139913E+02  0.00000000000E+00 0.  1.
         11    1    3    3    0    0  0.17486966787E+01  0.22682783338E+01  0.26950331261E+01  0.39327128659E+01  0.51100000000E-03 0. -1.
        -11    1    3    3    0    0  0.91299041951E+01  0.61898960060E+01 -0.96826285299E+01  0.14677304204E+02  0.51100000000E-03 0.  1.
        -12    1    3    3    0    0  0.47019277680E+01 -0.79091850160E+01 -0.30563854587E+02  0.31918843018E+02  0.00000000000E+00 0.  1.
</event>
<event>
 7    1  0.5839176E-013  0.5052887E+02  0.7816164E-02  0.1300439E+00
        -11   -1    0    0    0    0  0.00000000000E+00  0.00000000000E+00  0.45593999997E+02  0.45594000000E+02  0.51100000000E-03 0.  1.
         11   -1    0    0    0    0 -0.00000000000E+00 -0.00000000000E+00 -0.45593999997E+02  0.45594000000E+02  0.51100000000E-03 0. -1.
    9900012    2    1    2    0    0  0.37255603991E+02 -0.39108839006E+01 -0.15807913881E+02  0.50528865936E+02  0.30000018498E+02 0.  0.
        -12    1    1    2    0    0 -0.37255603991E+02  0.39108839006E+01  0.15807913881E+02  0.40659134064E+02  0.00000000000E+00 0.  1.
         11    1    3    3    0    0  0.24319719479E+01 -0.45674500416E+01 -0.47145863012E+01  0.70002436879E+01  0.51100000000E-03 0. -1.
        -11    1    3    3    0    0  0.22475221527E+02 -0.10854238837E+02 -0.89336789274E+01  0.26509634152E+02  0.51100000000E-03 0.  1.
         12    1    3    3    0    0  0.12348410516E+02  0.11510804978E+02 -0.21596486523E+01  0.17018988096E+02  0.00000000000E+00 0. -1.
</event>
<event>
 7    1  0.5839176E-013  0.5052885E+02  0.7816164E-02  0.1300439E+00
        -11   -1    0    0    0    0  0.00000000000E+00  0.00000000000E+00  0.45593999997E+02  0.45594000000E+02  0.51100000000E-03 0.  1.
         11   -1    0    0    0    0 -0.00000000000E+00 -0.00000000000E+00 -0.45593999997E+02  0.45594000000E+02  0.51100000000E-03 0. -1.
    9900012    2    1    2    0    0 -0.23049235817E+02  0.33486725183E+02  0.73367314842E+00  0.50528852057E+02  0.29999976311E+02 0.  0.
        -12    1    1    2    0    0  0.23049235817E+02 -0.33486725183E+02 -0.73367314842E+00  0.40659147943E+02  0.00000000000E+00 0.  1.
         11    1    3    3    0    0 -0.65827556547E+01  0.11436957640E+02 -0.68931882007E+01  0.14888005773E+02  0.51100000000E-03 0. -1.
        -11    1    3    3    0    0 -0.16837624821E+02  0.15927510941E+02 -0.30002333785E+01  0.23370764108E+02  0.51100000000E-03 0.  1.
        -12    1    3    3    0    0  0.37114465902E+00  0.61222566018E+01  0.10627094728E+02  0.12270082176E+02  0.00000000000E+00 0.  1.
</event>
<event>
 7    1  0.5839176E-013  0.5052887E+02  0.7816164E-02  0.1300439E+00
        -11   -1    0    0    0    0  0.00000000000E+00  0.00000000000E+00  0.45593999997E+02  0.45594000000E+02  0.51100000000E-03 0.  1.
         11   -1    0    0    0    0 -0.00000000000E+00 -0.00000000000E+00 -0.45593999997E+02  0.45594000000E+02  0.51100000000E-03 0. -1.
    9900012    2    1    2    0    0  0.29123459301E+02  0.20237633445E+02 -0.19885359072E+02  0.50528865792E+02  0.30000018062E+02 0.  0.
        -12    1    1    2    0    0 -0.29123459301E+02 -0.20237633445E+02  0.19885359072E+02  0.40659134208E+02  0.00000000000E+00 0.  1.
         11    1    3    3    0    0  0.14670671249E+02 -0.27528482686E+01 -0.47924880653E+01  0.15677203533E+02  0.51100000000E-03 0. -1.
        -11    1    3    3    0    0  0.16184912410E+02  0.14225157361E+02 -0.66289651304E+01  0.22544393330E+02  0.51100000000E-03 0.  1.
         12    1    3    3    0    0 -0.17321243587E+01  0.87653243528E+01 -0.84639058765E+01  0.12307268929E+02  0.00000000000E+00 0. -1.
</event>
<event>
 7    1  0.5839176E-013  0.5052887E+02  0.7816164E-02  0.1300439E+00
        -11   -1    0    0    0    0  0.00000000000E+00  0.00000000000E+00  0.45593999997E+02  0.45594000000E+02  0.51100000000E-03 0.  1.
         11   -1    0    0    0    0 -0.00000000000E+00 -0.00000000000E+00 -0.45593999997E+02  0.45594000000E+02  0.51100000000E-03 0. -1.
    9900012    2    1    2    0    0  0.55623240258E+01 -0.38745501727E+02 -0.11000527817E+02  0.50528868616E+02  0.30000026646E+02 0.  0.
        -12    1    1    2    0    0 -0.55623240258E+01  0.38745501727E+02  0.11000527817E+02  0.40659131384E+02  0.00000000000E+00 0.  1.
         11    1    3    3    0    0 -0.93994626168E+01 -0.26071716344E+02 -0.16091305648E+01  0.27761008484E+02  0.51100000000E-03 0. -1.
        -11    1    3    3    0    0 -0.25871244337E+00 -0.15727176168E+01 -0.19356683825E+01  0.25074260066E+01  0.51100000000E-03 0.  1.
        -12    1    3    3    0    0  0.15220499086E+02 -0.11101067766E+02 -0.74557288699E+01  0.20260434125E+02  0.00000000000E+00 0.  1.
</event>
<event>
 7    1  0.5839176E-013  0.5052885E+02  0.7816164E-02  0.1300439E+00
        -11   -1    0    0    0    0  0.00000000000E+00  0.00000000000E+00  0.45593999997E+02  0.45594000000E+02  0.51100000000E-03 0. -1.
         11   -1    0    0    0    0 -0.00000000000E+00 -0.00000000000E+00 -0.45593999997E+02  0.45594000000E+02  0.51100000000E-03 0.  1.
    9900012    2    1    2    0    0 -0.25924574298E+02  0.28489425861E+02  0.13016726826E+02  0.50528854464E+02  0.29999983629E+02 0.  0.
        -12    1    1    2    0    0  0.25924574298E+02 -0.28489425861E+02 -0.13016726826E+02  0.40659145536E+02  0.00000000000E+00 0.  1.
         11    1    3    3    0    0 -0.16103271681E+01  0.38020882376E+01 -0.80805762781E+00  0.42073728080E+01  0.51100000000E-03 0. -1.
        -11    1    3    3    0    0 -0.10674789582E+02  0.18901809975E+02  0.20693595523E+02  0.29990906103E+02  0.51100000000E-03 0.  1.
        -12    1    3    3    0    0 -0.13639457548E+02  0.57855276484E+01 -0.68688110691E+01  0.16330575553E+02  0.00000000000E+00 0.  1.
</event>
<event>
 7    1  0.5839176E-013  0.5052886E+02  0.7816164E-02  0.1300439E+00
        -11   -1    0    0    0    0  0.00000000000E+00  0.00000000000E+00  0.45593999997E+02  0.45594000000E+02  0.51100000000E-03 0. -1.
         11   -1    0    0    0    0 -0.00000000000E+00 -0.00000000000E+00 -0.45593999997E+02  0.45594000000E+02  0.51100000000E-03 0.  1.
    9900012    2    1    2    0    0 -0.16111354694E+02  0.13223316380E+02  0.34910371832E+02  0.50528857023E+02  0.29999991408E+02 0.  0.
        -12    1    1    2    0    0  0.16111354694E+02 -0.13223316380E+02 -0.34910371832E+02  0.40659142977E+02  0.00000000000E+00 0.  1.
         11    1    3    3    0    0 -0.31977645576E+01  0.67483688934E+01  0.16514598638E+02  0.18124517906E+02  0.51100000000E-03 0. -1.
        -11    1    3    3    0    0 -0.14026760384E+02 -0.16158569096E+01  0.22325377815E+01  0.14294937063E+02  0.51100000000E-03 0.  1.
         12    1    3    3    0    0  0.11131702478E+01  0.80908043963E+01  0.16163235413E+02  0.18109402055E+02  0.00000000000E+00 0. -1.
</event>
<event>
 7    1  0.5839176E-013  0.5052886E+02  0.7816164E-02  0.1300439E+00
        -11   -1    0    0    0    0  0.00000000000E+00  0.00000000000E+00  0.45593999997E+02  0.45594000000E+02  0.51100000000E-03 0.  1.
         11   -1    0    0    0    0 -0.00000000000E+00 -0.00000000000E+00 -0.45593999997E+02  0.45594000000E+02  0.51100000000E-03 0. -1.
    9900012    2    1    2    0    0 -0.28591833005E+01  0.21768768781E+02 -0.34221506181E+02  0.50528859469E+02  0.29999998842E+02 0.  0.
        -12    1    1    2    0    0  0.28591833005E+01 -0.21768768781E+02  0.34221506181E+02  0.40659140531E+02  0.00000000000E+00 0.  1.
         11    1    3    3    0    0 -0.30369599761E+01 -0.56658030829E+00 -0.58521487162E+01  0.66175360974E+01  0.51100000000E-03 0. -1.
        -11    1    3    3    0    0  0.47697573733E+01 -0.31140844109E+01 -0.12059874792E+02  0.13337491795E+02  0.51100000000E-03 0.  1.
        -12    1    3    3    0    0 -0.45919806977E+01  0.25449433500E+02 -0.16309482673E+02  0.30573831576E+02  0.00000000000E+00 0.  1.
</event>
<event>
 7    1  0.5839176E-013  0.5052886E+02  0.7816164E-02  0.1300439E+00
        -11   -1    0    0    0    0  0.00000000000E+00  0.00000000000E+00  0.45593999997E+02  0.45594000000E+02  0.51100000000E-03 0. -1.
         11   -1    0    0    0    0 -0.00000000000E+00 -0.00000000000E+00 -0.45593999997E+02  0.45594000000E+02  0.51100000000E-03 0.  1.
    9900012    2    1    2    0    0  0.32134829840E+01  0.40167756944E+02  0.54213263593E+01  0.50528856498E+02  0.29999989811E+02 0.  0.
        -12    1    1    2    0    0 -0.32134829840E+01 -0.40167756944E+02 -0.54213263593E+01  0.40659143502E+02  0.00000000000E+00 0.  1.
         11    1    3    3    0    0  0.12669516292E+02  0.11980442170E+02  0.13049476308E+01  0.17485723498E+02  0.51100000000E-03 0. -1.
        -11    1    3    3    0    0  0.31213069985E+01  0.19321328111E+01  0.59082835745E+00  0.37181679612E+01  0.51100000000E-03 0.  1.
         12    1    3    3    0    0 -0.12577340307E+02  0.26255181963E+02  0.35255503711E+01  0.29324965039E+02  0.00000000000E+00 0. -1.
</event>
<event>
 7    1  0.5839176E-013  0.5052886E+02  0.7816164E-02  0.1300439E+00
        -11   -1    0    0    0    0  0.00000000000E+00  0.00000000000E+00  0.45593999997E+02  0.45594000000E+02  0.51100000000E-03 0. -1.
         11   -1    0    0    0    0 -0.00000000000E+00 -0.00000000000E+00 -0.45593999997E+02  0.45594000000E+02  0.51100000000E-03 0.  1.
    9900012    2    1    2    0    0  0.22542381600E+02 -0.18132245034E+02  0.28569711804E+02  0.50528859444E+02  0.29999998767E+02 0.  0.
        -12    1    1    2    0    0 -0.22542381600E+02  0.18132245034E+02 -0.28569711804E+02  0.40659140556E+02  0.00000000000E+00 0.  1.
         11    1    3    3    0    0  0.41111194867E+00  0.34394620776E+01  0.92379429774E+01  0.98660277282E+01  0.51100000000E-03 0. -1.
        -11    1    3    3    0    0 -0.27130145117E+01 -0.53277088867E+01  0.44818784571E+01  0.74720923769E+01  0.51100000000E-03 0.  1.
         12    1    3    3    0    0  0.24844284163E+02 -0.16243998225E+02  0.14849890369E+02  0.33190739339E+02  0.00000000000E+00 0. -1.
</event>
<event>
 7    1  0.5839176E-013  0.5052889E+02  0.7816164E-02  0.1300439E+00
        -11   -1    0    0    0    0  0.00000000000E+00  0.00000000000E+00  0.45593999997E+02  0.45594000000E+02  0.51100000000E-03 0. -1.
         11   -1    0    0    0    0 -0.00000000000E+00 -0.00000000000E+00 -0.45593999997E+02  0.45594000000E+02  0.51100000000E-03 0.  1.
    9900012    2    1    2    0    0 -0.15869641306E+02 -0.11845143983E+01 -0.37415433260E+02  0.50528889882E+02  0.30000091286E+02 0.  0.
        -12    1    1    2    0    0  0.15869641306E+02  0.11845143983E+01  0.37415433260E+02  0.40659110118E+02  0.00000000000E+00 0.  1.
         11    1    3    3    0    0 -0.11447914357E+02 -0.30864889382E+00 -0.11987244607E+02  0.16578420938E+02  0.51100000000E-03 0. -1.
        -11    1    3    3    0    0 -0.16192124752E+01  0.24992712797E+01 -0.28461540507E+02  0.28616909237E+02  0.51100000000E-03 0.  1.
         12    1    3    3    0    0 -0.28025144735E+01 -0.33751367842E+01  0.30333518537E+01  0.53335597076E+01  0.00000000000E+00 0. -1.
</event>
<event>
 7    1  0.5839176E-013  0.5052885E+02  0.7816164E-02  0.1300439E+00
        -11   -1    0    0    0    0  0.00000000000E+00  0.00000000000E+00  0.45593999997E+02  0.45594000000E+02  0.51100000000E-03 0. -1.
         11   -1    0    0    0    0 -0.00000000000E+00 -0.00000000000E+00 -0.45593999997E+02  0.45594000000E+02  0.51100000000E-03 0.  1.
    9900012    2    1    2    0    0 -0.30846927223E+02 -0.26059382678E+02  0.47478357694E+01  0.50528852331E+02  0.29999977146E+02 0.  0.
        -12    1    1    2    0    0  0.30846927223E+02  0.26059382678E+02 -0.47478357694E+01  0.40659147669E+02  0.00000000000E+00 0.  1.
         11    1    3    3    0    0 -0.99315744388E+01 -0.73473166708E+00 -0.30761744850E+01  0.10422996267E+02  0.51100000000E-03 0. -1.
        -11    1    3    3    0    0 -0.16926743476E+02 -0.12968616359E+02 -0.49510793272E+01  0.21890930582E+02  0.51100000000E-03 0.  1.
         12    1    3    3    0    0 -0.39886093084E+01 -0.12356034651E+02  0.12775089582E+02  0.18214925483E+02  0.00000000000E+00 0. -1.
</event>
<event>
 7    1  0.5839176E-013  0.5052890E+02  0.7816164E-02  0.1300439E+00
        -11   -1    0    0    0    0  0.00000000000E+00  0.00000000000E+00  0.45593999997E+02  0.45594000000E+02  0.51100000000E-03 0.  1.
         11   -1    0    0    0    0 -0.00000000000E+00 -0.00000000000E+00 -0.45593999997E+02  0.45594000000E+02  0.51100000000E-03 0. -1.
    9900012    2    1    2    0    0  0.34132197607E+02 -0.42413376273E+01 -0.21683318938E+02  0.50528902882E+02  0.30000130799E+02 0.  0.
        -12    1    1    2    0    0 -0.34132197607E+02  0.42413376273E+01  0.21683318938E+02  0.40659097118E+02  0.00000000000E+00 0.  1.
         11    1    3    3    0    0 -0.27064421488E+01  0.29790960343E+01 -0.18080161356E+01  0.44123423365E+01  0.51100000000E-03 0. -1.
        -11    1    3    3    0    0  0.43416244240E+01  0.36239947428E+01 -0.81237057386E+01  0.98983653057E+01  0.51100000000E-03 0.  1.
         12    1    3    3    0    0  0.32497015331E+02 -0.10844428404E+02 -0.11751597063E+02  0.36218195240E+02  0.00000000000E+00 0. -1.
</event>
<event>
 7    1  0.5839176E-013  0.5052886E+02  0.7816164E-02  0.1300439E+00
        -11   -1    0    0    0    0  0.00000000000E+00  0.00000000000E+00  0.45593999997E+02  0.45594000000E+02  0.51100000000E-03 0.  1.
         11   -1    0    0    0    0 -0.00000000000E+00 -0.00000000000E+00 -0.45593999997E+02  0.45594000000E+02  0.51100000000E-03 0. -1.
    9900012    2    1    2    0    0  0.35507339144E+02 -0.14665519863E+02 -0.13316044729E+02  0.50528860152E+02  0.30000000919E+02 0.  0.
        -12    1    1    2    0    0 -0.35507339144E+02  0.14665519863E+02  0.13316044729E+02  0.40659139848E+02  0.00000000000E+00 0.  1.
         11    1    3    3    0    0  0.37644495223E+01 -0.50779214905E+01  0.44355561189E+00  0.63366480660E+01  0.51100000000E-03 0. -1.
        -11    1    3    3    0    0  0.32205985387E+02 -0.11214587833E+02 -0.40568780035E+01  0.34343132274E+02  0.51100000000E-03 0.  1.
         12    1    3    3    0    0 -0.46309576516E+00  0.16269894613E+01 -0.97027223369E+01  0.98490798119E+01  0.00000000000E+00 0. -1.
</event>
<event>
 7    1  0.5839176E-013  0.5052885E+02  0.7816164E-02  0.1300439E+00
        -11   -1    0    0    0    0  0.00000000000E+00  0.00000000000E+00  0.45593999997E+02  0.45594000000E+02  0.51100000000E-03 0.  1.
         11   -1    0    0    0    0 -0.00000000000E+00 -0.00000000000E+00 -0.45593999997E+02  0.45594000000E+02  0.51100000000E-03 0. -1.
    9900012    2    1    2    0    0  0.70897755825E+01 -0.39499681465E+02 -0.65327338360E+01  0.50528851398E+02  0.29999974310E+02 0.  0.
        -12    1    1    2    0    0 -0.70897755825E+01  0.39499681465E+02  0.65327338360E+01  0.40659148602E+02  0.00000000000E+00 0.  1.
         11    1    3    3    0    0  0.75078326225E+01 -0.85754009664E+01  0.19416860802E+01  0.11561799061E+02  0.51100000000E-03 0. -1.
        -11    1    3    3    0    0  0.70619916494E+01 -0.16087763869E+02 -0.12871192812E+02  0.21779703327E+02  0.51100000000E-03 0.  1.
        -12    1    3    3    0    0 -0.74800486893E+01 -0.14836516630E+02  0.43967728960E+01  0.17187349010E+02  0.00000000000E+00 0.  1.
</event>
<event>
 7    1  0.5839176E-013  0.5052888E+02  0.7816164E-02  0.1300439E+00
        -11   -1    0    0    0    0  0.00000000000E+00  0.00000000000E+00  0.45593999997E+02  0.45594000000E+02  0.51100000000E-03 0. -1.
         11   -1    0    0    0    0 -0.00000000000E+00 -0.00000000000E+00 -0.45593999997E+02  0.45594000000E+02  0.51100000000E-03 0.  1.
    9900012    2    1    2    0    0 -0.40307964757E+02 -0.60520901344E+00 -0.52977485802E+01  0.50528875061E+02  0.30000046234E+02 0.  0.
        -12    1    1    2    0    0  0.40307964757E+02  0.60520901344E+00  0.52977485802E+01  0.40659124939E+02  0.00000000000E+00 0.  1.
         11    1    3    3    0    0 -0.20395650268E+02  0.35758819371E+01  0.67826953246E+01  0.21789319347E+02  0.51100000000E-03 0. -1.
        -11    1    3    3    0    0 -0.11122128188E+02  0.29992342433E+01  0.83004645719E+00  0.11549290838E+02  0.51100000000E-03 0.  1.
        -12    1    3    3    0    0 -0.87901863004E+01 -0.71803251938E+01 -0.12910490362E+02  0.17190264875E+02  0.00000000000E+00 0.  1.
</event>
<event>
 7    1  0.5839176E-013  0.5052885E+02  0.7816164E-02  0.1300439E+00
        -11   -1    0    0    0    0  0.00000000000E+00  0.00000000000E+00  0.45593999997E+02  0.45594000000E+02  0.51100000000E-03 0.  1.
         11   -1    0    0    0    0 -0.00000000000E+00 -0.00000000000E+00 -0.45593999997E+02  0.45594000000E+02  0.51100000000E-03 0. -1.
    9900012    2    1    2    0    0  0.18394034231E+02 -0.28047880523E+02  0.22981343770E+02  0.50528852707E+02  0.29999978288E+02 0.  0.
        -12    1    1    2    0    0 -0.18394034231E+02  0.28047880523E+02 -0.22981343770E+02  0.40659147293E+02  0.00000000000E+00 0.  1.
         11    1    3    3    0    0 -0.35987663724E+00  0.13106212666E+01  0.88678875813E+01  0.89714363239E+01  0.51100000000E-03 0. -1.
        -11    1    3    3    0    0  0.14977702231E+01 -0.15634934599E+02  0.64197730228E+00  0.15719625653E+02  0.51100000000E-03 0.  1.
         12    1    3    3    0    0  0.17256140645E+02 -0.13723567190E+02  0.13471478887E+02  0.25837790730E+02  0.00000000000E+00 0. -1.
</event>
<event>
 7    1  0.5839176E-013  0.5052886E+02  0.7816164E-02  0.1300439E+00
        -11   -1    0    0    0    0  0.00000000000E+00  0.00000000000E+00  0.45593999997E+02  0.45594000000E+02  0.51100000000E-03 0. -1.
         11   -1    0    0    0    0 -0.00000000000E+00 -0.00000000000E+00 -0.45593999997E+02  0.45594000000E+02  0.51100000000E-03 0.  1.
    9900012    2    1    2    0    0  0.39875788719E+02  0.68622613038E+01 -0.39996123922E+01  0.50528855205E+02  0.29999985881E+02 0.  0.
        -12    1    1    2    0    0 -0.39875788719E+02 -0.68622613038E+01  0.39996123922E+01  0.40659144795E+02  0.00000000000E+00 0.  1.
         11    1    3    3    0    0  0.60823404879E+01 -0.46936238694E-01 -0.66561426004E+01  0.90167235402E+01  0.51100000000E-03 0. -1.
        -11    1    3    3    0    0  0.14660509976E+02  0.64036381738E+01 -0.97201174850E+01  0.18719450281E+02  0.51100000000E-03 0.  1.
         12    1    3    3    0    0  0.19132938255E+02  0.50555936872E+00  0.12376647693E+02  0.22792681384E+02  0.00000000000E+00 0. -1.
</event>
<event>
 7    1  0.5839176E-013  0.5052878E+02  0.7816164E-02  0.1300439E+00
        -11   -1    0    0    0    0  0.00000000000E+00  0.00000000000E+00  0.45593999997E+02  0.45594000000E+02  0.51100000000E-03 0.  1.
         11   -1    0    0    0    0 -0.00000000000E+00 -0.00000000000E+00 -0.45593999997E+02  0.45594000000E+02  0.51100000000E-03 0. -1.
    9900012    2    1    2    0    0  0.30386963161E+02  0.88422315787E+01 -0.25526840981E+02  0.50528779645E+02  0.29999756208E+02 0.  0.
        -12    1    1    2    0    0 -0.30386963161E+02 -0.88422315787E+01  0.25526840981E+02  0.40659220355E+02  0.00000000000E+00 0.  1.
         11    1    3    3    0    0  0.65300361002E+01  0.66496802746E+01 -0.59861519391E+01  0.11076715873E+02  0.51100000000E-03 0. -1.
        -11    1    3    3    0    0  0.16699510952E+02  0.68698192859E+01  0.71096120383E-01  0.18057495341E+02  0.51100000000E-03 0.  1.
         12    1    3    3    0    0  0.71574161084E+01 -0.46772679817E+01 -0.19611785162E+02  0.21394568432E+02  0.00000000000E+00 0. -1.
</event>
<event>
 7    1  0.5839176E-013  0.5052886E+02  0.7816164E-02  0.1300439E+00
        -11   -1    0    0    0    0  0.00000000000E+00  0.00000000000E+00  0.45593999997E+02  0.45594000000E+02  0.51100000000E-03 0.  1.
         11   -1    0    0    0    0 -0.00000000000E+00 -0.00000000000E+00 -0.45593999997E+02  0.45594000000E+02  0.51100000000E-03 0. -1.
    9900012    2    1    2    0    0 -0.34414489320E+02  0.21284204711E+02 -0.39738073670E+01  0.50528860925E+02  0.30000003267E+02 0.  0.
        -12    1    1    2    0    0  0.34414489320E+02 -0.21284204711E+02  0.39738073670E+01  0.40659139075E+02  0.00000000000E+00 0.  1.
         11    1    3    3    0    0 -0.14308384470E+02  0.17398475357E+02 -0.12295635705E+01  0.22559890021E+02  0.51100000000E-03 0. -1.
        -11    1    3    3    0    0 -0.41215965503E+01  0.73954841950E+01 -0.70827167737E+01  0.11038370430E+02  0.51100000000E-03 0.  1.
        -12    1    3    3    0    0 -0.15984508300E+02 -0.35097548413E+01  0.43384729772E+01  0.16930600474E+02  0.00000000000E+00 0.  1.
</event>
<event>
 7    1  0.5839176E-013  0.5052885E+02  0.7816164E-02  0.1300439E+00
        -11   -1    0    0    0    0  0.00000000000E+00  0.00000000000E+00  0.45593999997E+02  0.45594000000E+02  0.51100000000E-03 0.  1.
         11   -1    0    0    0    0 -0.00000000000E+00 -0.00000000000E+00 -0.45593999997E+02  0.45594000000E+02  0.51100000000E-03 0. -1.
    9900012    2    1    2    0    0 -0.16528904003E+02  0.51760647699E+01  0.36785458956E+02  0.50528852141E+02  0.29999976567E+02 0.  0.
        -12    1    1    2    0    0  0.16528904003E+02 -0.51760647699E+01 -0.36785458956E+02  0.40659147859E+02  0.00000000000E+00 0.  1.
         11    1    3    3    0    0 -0.90430564058E+01 -0.42224909093E+01  0.30844897057E+01  0.10446069866E+02  0.51100000000E-03 0. -1.
        -11    1    3    3    0    0 -0.84262945899E+01 -0.16659249463E+01  0.23437055174E+02  0.24961436296E+02  0.51100000000E-03 0.  1.
        -12    1    3    3    0    0  0.94044699268E+00  0.11064480626E+02  0.10263914076E+02  0.15121345979E+02  0.00000000000E+00 0.  1.
</event>
<event>
 7    1  0.5839176E-013  0.5052886E+02  0.7816164E-02  0.1300439E+00
        -11   -1    0    0    0    0  0.00000000000E+00  0.00000000000E+00  0.45593999997E+02  0.45594000000E+02  0.51100000000E-03 0.  1.
         11   -1    0    0    0    0 -0.00000000000E+00 -0.00000000000E+00 -0.45593999997E+02  0.45594000000E+02  0.51100000000E-03 0. -1.
    9900012    2    1    2    0    0  0.14569640483E+02  0.33984280105E+02 -0.16910361155E+02  0.50528855488E+02  0.29999986740E+02 0.  0.
        -12    1    1    2    0    0 -0.14569640483E+02 -0.33984280105E+02  0.16910361155E+02  0.40659144512E+02  0.00000000000E+00 0.  1.
         11    1    3    3    0    0  0.10866095389E+02  0.23727597819E+02 -0.20977532093E+02  0.33483246262E+02  0.51100000000E-03 0. -1.
        -11    1    3    3    0    0  0.39606533663E+01  0.20335359974E+01 -0.36563442387E+01  0.57611541546E+01  0.51100000000E-03 0.  1.
        -12    1    3    3    0    0 -0.25710827247E+00  0.82231462894E+01  0.77235151771E+01  0.11284455071E+02  0.00000000000E+00 0.  1.
</event>
<event>
 7    1  0.5839176E-013  0.5052887E+02  0.7816164E-02  0.1300439E+00
        -11   -1    0    0    0    0  0.00000000000E+00  0.00000000000E+00  0.45593999997E+02  0.45594000000E+02  0.51100000000E-03 0. -1.
         11   -1    0    0    0    0 -0.00000000000E+00 -0.00000000000E+00 -0.45593999997E+02  0.45594000000E+02  0.51100000000E-03 0.  1.
    9900012    2    1    2    0    0  0.42582848501E+01 -0.25601013087E+02  0.31298885753E+02  0.50528866827E+02  0.30000021208E+02 0.  0.
        -12    1    1    2    0    0 -0.42582848501E+01  0.25601013087E+02 -0.31298885753E+02  0.40659133173E+02  0.00000000000E+00 0.  1.
         11    1    3    3    0    0 -0.15701808975E+01 -0.28654094161E+01  0.92313376792E+00  0.33953225748E+01  0.51100000000E-03 0. -1.
        -11    1    3    3    0    0 -0.72235703180E+01 -0.14435282207E+02  0.41182627309E+01  0.16658854364E+02  0.51100000000E-03 0.  1.
         12    1    3    3    0    0  0.13052036066E+02 -0.83003214648E+01  0.26257489254E+02  0.30474689889E+02  0.00000000000E+00 0. -1.
</event>
<event>
 7    1  0.5839176E-013  0.5052886E+02  0.7816164E-02  0.1300439E+00
        -11   -1    0    0    0    0  0.00000000000E+00  0.00000000000E+00  0.45593999997E+02  0.45594000000E+02  0.51100000000E-03 0.  1.
         11   -1    0    0    0    0 -0.00000000000E+00 -0.00000000000E+00 -0.45593999997E+02  0.45594000000E+02  0.51100000000E-03 0. -1.
    9900012    2    1    2    0    0 -0.33851072683E+02 -0.20626684298E+02 -0.90449270513E+01  0.50528856720E+02  0.29999990485E+02 0.  0.
        -12    1    1    2    0    0  0.33851072683E+02  0.20626684298E+02  0.90449270513E+01  0.40659143280E+02  0.00000000000E+00 0.  1.
         11    1    3    3    0    0 -0.15870870982E+02 -0.16967132160E+02  0.40662543666E+01  0.23586066741E+02  0.51100000000E-03 0. -1.
        -11    1    3    3    0    0  0.42206923891E+00  0.36886772416E+01 -0.23523603993E+01  0.43952340034E+01  0.51100000000E-03 0.  1.
        -12    1    3    3    0    0 -0.18402270940E+02 -0.73482293793E+01 -0.10758821019E+02  0.22547555975E+02  0.00000000000E+00 0.  1.
</event>
<event>
 7    1  0.5839176E-013  0.5052885E+02  0.7816164E-02  0.1300439E+00
        -11   -1    0    0    0    0  0.00000000000E+00  0.00000000000E+00  0.45593999997E+02  0.45594000000E+02  0.51100000000E-03 0.  1.
         11   -1    0    0    0    0 -0.00000000000E+00 -0.00000000000E+00 -0.45593999997E+02  0.45594000000E+02  0.51100000000E-03 0. -1.
    9900012    2    1    2    0    0 -0.26914146343E+02  0.80078496273E+01 -0.29405261472E+02  0.50528851814E+02  0.29999975573E+02 0.  0.
        -12    1    1    2    0    0  0.26914146343E+02 -0.80078496273E+01  0.29405261472E+02  0.40659148186E+02  0.00000000000E+00 0.  1.
         11    1    3    3    0    0 -0.37490653653E+01 -0.27176334839E+01 -0.95439714292E+01  0.10607941071E+02  0.51100000000E-03 0. -1.
        -11    1    3    3    0    0 -0.10853135852E+02 -0.66712925892E+01 -0.39966287563E+01  0.13351769332E+02  0.51100000000E-03 0.  1.
         12    1    3    3    0    0 -0.12311945126E+02  0.17396775700E+02 -0.15864661286E+02  0.26569141410E+02  0.00000000000E+00 0. -1.
</event>
<event>
 7    1  0.5839176E-013  0.5052887E+02  0.7816164E-02  0.1300439E+00
        -11   -1    0    0    0    0  0.00000000000E+00  0.00000000000E+00  0.45593999997E+02  0.45594000000E+02  0.51100000000E-03 0.  1.
         11   -1    0    0    0    0 -0.00000000000E+00 -0.00000000000E+00 -0.45593999997E+02  0.45594000000E+02  0.51100000000E-03 0. -1.
    9900012    2    1    2    0    0  0.20676290590E+02 -0.34640722622E+02 -0.50671950482E+01  0.50528866684E+02  0.30000020771E+02 0.  0.
        -12    1    1    2    0    0 -0.20676290590E+02  0.34640722622E+02  0.50671950482E+01  0.40659133316E+02  0.00000000000E+00 0.  1.
         11    1    3    3    0    0 -0.41938765625E+01 -0.41033623695E+01 -0.64310049433E+01  0.87054010935E+01  0.51100000000E-03 0. -1.
        -11    1    3    3    0    0 -0.10361834664E+01 -0.33224409927E+01  0.24130969452E+01  0.42350120961E+01  0.51100000000E-03 0.  1.
         12    1    3    3    0    0  0.25906350619E+02 -0.27214919260E+02 -0.10492870501E+01  0.37588453494E+02  0.00000000000E+00 0. -1.
</event>
<event>
 7    1  0.5839176E-013  0.5052885E+02  0.7816164E-02  0.1300439E+00
        -11   -1    0    0    0    0  0.00000000000E+00  0.00000000000E+00  0.45593999997E+02  0.45594000000E+02  0.51100000000E-03 0.  1.
         11   -1    0    0    0    0 -0.00000000000E+00 -0.00000000000E+00 -0.45593999997E+02  0.45594000000E+02  0.51100000000E-03 0. -1.
    9900012    2    1    2    0    0  0.26303276149E+02  0.64678355825E+01 -0.30322786664E+02  0.50528848209E+02  0.29999964616E+02 0.  0.
        -12    1    1    2    0    0 -0.26303276149E+02 -0.64678355825E+01  0.30322786664E+02  0.40659151791E+02  0.00000000000E+00 0.  1.
         11    1    3    3    0    0  0.11243831915E+02  0.57344209682E-01  0.30072977732E+01  0.11639196048E+02  0.51100000000E-03 0. -1.
        -11    1    3    3    0    0  0.22166191444E+00  0.26165925716E+01 -0.51410651600E+00  0.26758169707E+01  0.51100000000E-03 0.  1.
         12    1    3    3    0    0  0.14837782320E+02  0.37938988013E+01 -0.32815977921E+02  0.36213835191E+02  0.00000000000E+00 0. -1.
</event>
<event>
 7    1  0.5839176E-013  0.5052886E+02  0.7816164E-02  0.1300439E+00
        -11   -1    0    0    0    0  0.00000000000E+00  0.00000000000E+00  0.45593999997E+02  0.45594000000E+02  0.51100000000E-03 0.  1.
         11   -1    0    0    0    0 -0.00000000000E+00 -0.00000000000E+00 -0.45593999997E+02  0.45594000000E+02  0.51100000000E-03 0. -1.
    9900012    2    1    2    0    0  0.12565319729E+02 -0.26641253005E+01 -0.38576949515E+02  0.50528857641E+02  0.29999993284E+02 0.  0.
        -12    1    1    2    0    0 -0.12565319729E+02  0.26641253005E+01  0.38576949515E+02  0.40659142359E+02  0.00000000000E+00 0.  1.
         11    1    3    3    0    0 -0.39932875417E+01 -0.27929958890E+00  0.14112848618E+01  0.42445351775E+01  0.51100000000E-03 0. -1.
        -11    1    3    3    0    0 -0.29239009589E+01 -0.22848785471E+00 -0.20396162911E+01  0.35723155506E+01  0.51100000000E-03 0.  1.
         12    1    3    3    0    0  0.19482508230E+02 -0.21563378568E+01 -0.37948618086E+02  0.42712006912E+02  0.00000000000E+00 0. -1.
</event>
<event>
 7    1  0.5839176E-013  0.5052886E+02  0.7816164E-02  0.1300439E+00
        -11   -1    0    0    0    0  0.00000000000E+00  0.00000000000E+00  0.45593999997E+02  0.45594000000E+02  0.51100000000E-03 0.  1.
         11   -1    0    0    0    0 -0.00000000000E+00 -0.00000000000E+00 -0.45593999997E+02  0.45594000000E+02  0.51100000000E-03 0. -1.
    9900012    2    1    2    0    0 -0.28163645660E+02  0.74488269191E+01 -0.28363528044E+02  0.50528859792E+02  0.29999999823E+02 0.  0.
        -12    1    1    2    0    0  0.28163645660E+02 -0.74488269191E+01  0.28363528044E+02  0.40659140208E+02  0.00000000000E+00 0.  1.
         11    1    3    3    0    0  0.54082583957E+00  0.90203447056E+01 -0.87965014876E+01  0.12611009075E+02  0.51100000000E-03 0. -1.
        -11    1    3    3    0    0 -0.11006658448E+02  0.50770206652E+01 -0.23486454840E+01  0.12346611069E+02  0.51100000000E-03 0.  1.
        -12    1    3    3    0    0 -0.17697813052E+02 -0.66485384517E+01 -0.17218381073E+02  0.25571239648E+02  0.00000000000E+00 0.  1.
</event>
<event>
 7    1  0.5839176E-013  0.5052887E+02  0.7816164E-02  0.1300439E+00
        -11   -1    0    0    0    0  0.00000000000E+00  0.00000000000E+00  0.45593999997E+02  0.45594000000E+02  0.51100000000E-03 0. -1.
         11   -1    0    0    0    0 -0.00000000000E+00 -0.00000000000E+00 -0.45593999997E+02  0.45594000000E+02  0.51100000000E-03 0.  1.
    9900012    2    1    2    0    0  0.11044772445E+02  0.35517803252E+02  0.16421440820E+02  0.50528867387E+02  0.30000022909E+02 0.  0.
        -12    1    1    2    0    0 -0.11044772445E+02 -0.35517803252E+02 -0.16421440820E+02  0.40659132613E+02  0.00000000000E+00 0.  1.
         11    1    3    3    0    0  0.45197911654E+01 -0.68745365403E+00 -0.32845588172E+01  0.56293366919E+01  0.51100000000E-03 0. -1.
        -11    1    3    3    0    0  0.78358098126E+01  0.60180086713E+01  0.27694920821E+01  0.10260917622E+02  0.51100000000E-03 0.  1.
         12    1    3    3    0    0 -0.13108285326E+01  0.30187248235E+02  0.16936507555E+02  0.34638613073E+02  0.00000000000E+00 0. -1.
</event>
<event>
 7    1  0.5839176E-013  0.5052886E+02  0.7816164E-02  0.1300439E+00
        -11   -1    0    0    0    0  0.00000000000E+00  0.00000000000E+00  0.45593999997E+02  0.45594000000E+02  0.51100000000E-03 0.  1.
         11   -1    0    0    0    0 -0.00000000000E+00 -0.00000000000E+00 -0.45593999997E+02  0.45594000000E+02  0.51100000000E-03 0. -1.
    9900012    2    1    2    0    0  0.13990848487E+02  0.23016860417E+01 -0.38106750377E+02  0.50528855588E+02  0.29999987044E+02 0.  0.
        -12    1    1    2    0    0 -0.13990848487E+02 -0.23016860417E+01  0.38106750377E+02  0.40659144412E+02  0.00000000000E+00 0.  1.
         11    1    3    3    0    0  0.30719436347E+01 -0.72954438661E+00 -0.11851282398E+02  0.12264663364E+02  0.51100000000E-03 0. -1.
        -11    1    3    3    0    0  0.15238062991E+02 -0.58799280834E+01 -0.22205070199E+02  0.27565145760E+02  0.51100000000E-03 0.  1.
        -12    1    3    3    0    0 -0.43191581386E+01  0.89111585117E+01 -0.40503977810E+01  0.10699046464E+02  0.00000000000E+00 0.  1.
</event>
<event>
 7    1  0.5839176E-013  0.5052886E+02  0.7816164E-02  0.1300439E+00
        -11   -1    0    0    0    0  0.00000000000E+00  0.00000000000E+00  0.45593999997E+02  0.45594000000E+02  0.51100000000E-03 0.  1.
         11   -1    0    0    0    0 -0.00000000000E+00 -0.00000000000E+00 -0.45593999997E+02  0.45594000000E+02  0.51100000000E-03 0. -1.
    9900012    2    1    2    0    0  0.25057093422E+02 -0.14942881236E+01 -0.31985538486E+02  0.50528862036E+02  0.30000006645E+02 0.  0.
        -12    1    1    2    0    0 -0.25057093422E+02  0.14942881236E+01  0.31985538486E+02  0.40659137964E+02  0.00000000000E+00 0.  1.
         11    1    3    3    0    0  0.15251346125E+02 -0.18947970169E+01 -0.38164537760E+01  0.15835376031E+02  0.51100000000E-03 0. -1.
        -11    1    3    3    0    0  0.12608561602E+02  0.35954190514E+01 -0.11336393912E+02  0.17332532735E+02  0.51100000000E-03 0.  1.
         12    1    3    3    0    0 -0.28028143054E+01 -0.31949101581E+01 -0.16832690798E+02  0.17360953270E+02  0.00000000000E+00 0. -1.
</event>
<event>
 7    1  0.5839176E-013  0.5052884E+02  0.7816164E-02  0.1300439E+00
        -11   -1    0    0    0    0  0.00000000000E+00  0.00000000000E+00  0.45593999997E+02  0.45594000000E+02  0.51100000000E-03 0.  1.
         11   -1    0    0    0    0 -0.00000000000E+00 -0.00000000000E+00 -0.45593999997E+02  0.45594000000E+02  0.51100000000E-03 0. -1.
    9900012    2    1    2    0    0  0.92086089305E+01  0.13314305513E+02 -0.37297431135E+02  0.50528836469E+02  0.29999928932E+02 0.  0.
        -12    1    1    2    0    0 -0.92086089305E+01 -0.13314305513E+02  0.37297431135E+02  0.40659163531E+02  0.00000000000E+00 0.  1.
         11    1    3    3    0    0  0.67142670329E+01  0.10121523313E+02 -0.32416992315E+02  0.34617741217E+02  0.51100000000E-03 0. -1.
        -11    1    3    3    0    0  0.15928447940E+01  0.90320354412E+01 -0.36787308111E+01  0.98816941559E+01  0.51100000000E-03 0.  1.
        -12    1    3    3    0    0  0.90149710355E+00 -0.58392532406E+01 -0.12017080087E+01  0.60294010958E+01  0.00000000000E+00 0.  1.
</event>
<event>
 7    1  0.5839176E-013  0.5052886E+02  0.7816164E-02  0.1300439E+00
        -11   -1    0    0    0    0  0.00000000000E+00  0.00000000000E+00  0.45593999997E+02  0.45594000000E+02  0.51100000000E-03 0.  1.
         11   -1    0    0    0    0 -0.00000000000E+00 -0.00000000000E+00 -0.45593999997E+02  0.45594000000E+02  0.51100000000E-03 0. -1.
    9900012    2    1    2    0    0  0.12151374277E+02  0.82550786515E+01 -0.37912572975E+02  0.50528863144E+02  0.30000010011E+02 0.  0.
        -12    1    1    2    0    0 -0.12151374277E+02 -0.82550786515E+01  0.37912572975E+02  0.40659136856E+02  0.00000000000E+00 0.  1.
         11    1    3    3    0    0  0.13491664157E+02 -0.19611095800E+01 -0.23715580187E+02  0.27355067106E+02  0.51100000000E-03 0. -1.
        -11    1    3    3    0    0  0.39598649973E+01 -0.23632101312E+01 -0.28321678491E+01  0.54116973222E+01  0.51100000000E-03 0.  1.
        -12    1    3    3    0    0 -0.53001548774E+01  0.12579398363E+02 -0.11364824938E+02  0.17762098715E+02  0.00000000000E+00 0.  1.
</event>
<event>
 7    1  0.5839176E-013  0.5052886E+02  0.7816164E-02  0.1300439E+00
        -11   -1    0    0    0    0  0.00000000000E+00  0.00000000000E+00  0.45593999997E+02  0.45594000000E+02  0.51100000000E-03 0.  1.
         11   -1    0    0    0    0 -0.00000000000E+00 -0.00000000000E+00 -0.45593999997E+02  0.45594000000E+02  0.51100000000E-03 0. -1.
    9900012    2    1    2    0    0  0.26991552200E+02 -0.27140843838E+02 -0.13711181969E+02  0.50528858280E+02  0.29999995229E+02 0.  0.
        -12    1    1    2    0    0 -0.26991552200E+02  0.27140843838E+02  0.13711181969E+02  0.40659141720E+02  0.00000000000E+00 0.  1.
         11    1    3    3    0    0  0.95087370159E+01 -0.96983221394E+01  0.18887907726E+01  0.13712806525E+02  0.51100000000E-03 0. -1.
        -11    1    3    3    0    0  0.23512818569E+01 -0.79353575409E+01  0.49018712964E+01  0.96190835395E+01  0.51100000000E-03 0.  1.
         12    1    3    3    0    0  0.15131533327E+02 -0.95071641578E+01 -0.20501844038E+02  0.27196968215E+02  0.00000000000E+00 0. -1.
</event>
<event>
 7    1  0.5839176E-013  0.5052881E+02  0.7816164E-02  0.1300439E+00
        -11   -1    0    0    0    0  0.00000000000E+00  0.00000000000E+00  0.45593999997E+02  0.45594000000E+02  0.51100000000E-03 0.  1.
         11   -1    0    0    0    0 -0.00000000000E+00 -0.00000000000E+00 -0.45593999997E+02  0.45594000000E+02  0.51100000000E-03 0. -1.
    9900012    2    1    2    0    0  0.24601857018E+02  0.26775096212E+02 -0.18193760814E+02  0.50528805733E+02  0.29999835505E+02 0.  0.
        -12    1    1    2    0    0 -0.24601857018E+02 -0.26775096212E+02  0.18193760814E+02  0.40659194267E+02  0.00000000000E+00 0.  1.
         11    1    3    3    0    0  0.43828393937E+01  0.16886334889E+00  0.42245590246E+01  0.60897204529E+01  0.51100000000E-03 0. -1.
        -11    1    3    3    0    0 -0.21270672921E+01  0.29192258416E+01  0.16249868043E+01  0.39606662514E+01  0.51100000000E-03 0.  1.
        -12    1    3    3    0    0  0.22346084917E+02  0.23687007021E+02 -0.24043306643E+02  0.40478419029E+02  0.00000000000E+00 0.  1.
</event>
<event>
 7    1  0.5839176E-013  0.5052886E+02  0.7816164E-02  0.1300439E+00
        -11   -1    0    0    0    0  0.00000000000E+00  0.00000000000E+00  0.45593999997E+02  0.45594000000E+02  0.51100000000E-03 0. -1.
         11   -1    0    0    0    0 -0.00000000000E+00 -0.00000000000E+00 -0.45593999997E+02  0.45594000000E+02  0.51100000000E-03 0.  1.
    9900012    2    1    2    0    0 -0.18031895601E+02 -0.26743638841E+02  0.24754685314E+02  0.50528856841E+02  0.29999990854E+02 0.  0.
        -12    1    1    2    0    0  0.18031895601E+02  0.26743638841E+02 -0.24754685314E+02  0.40659143159E+02  0.00000000000E+00 0.  1.
         11    1    3    3    0    0  0.11837058432E+01 -0.39940541574E+01 -0.21575761408E+01  0.46913498271E+01  0.51100000000E-03 0.  1.
        -11    1    3    3    0    0 -0.23924001994E+01 -0.18744286818E+02  0.89679152005E+01  0.20916389993E+02  0.51100000000E-03 0. -1.
         12    1    3    3    0    0 -0.16823201245E+02 -0.40052978662E+01  0.17944346254E+02  0.24921117022E+02  0.00000000000E+00 0. -1.
</event>
<event>
 7    1  0.5839176E-013  0.5052886E+02  0.7816164E-02  0.1300439E+00
        -11   -1    0    0    0    0  0.00000000000E+00  0.00000000000E+00  0.45593999997E+02  0.45594000000E+02  0.51100000000E-03 0.  1.
         11   -1    0    0    0    0 -0.00000000000E+00 -0.00000000000E+00 -0.45593999997E+02  0.45594000000E+02  0.51100000000E-03 0. -1.
    9900012    2    1    2    0    0  0.21625471116E+02  0.22433249203E+02 -0.26119998740E+02  0.50528855826E+02  0.29999987769E+02 0.  0.
        -12    1    1    2    0    0 -0.21625471116E+02 -0.22433249203E+02  0.26119998740E+02  0.40659144174E+02  0.00000000000E+00 0.  1.
         11    1    3    3    0    0  0.44728746985E+01  0.69540914362E+01 -0.91533651078E+01  0.12334913410E+02  0.51100000000E-03 0. -1.
        -11    1    3    3    0    0  0.53836950146E+01  0.20242812136E+02 -0.71090109348E+01  0.22119983090E+02  0.51100000000E-03 0.  1.
         12    1    3    3    0    0  0.11768901403E+02 -0.47636543691E+01 -0.98576226976E+01  0.16073959326E+02  0.00000000000E+00 0. -1.
</event>
<event>
 7    1  0.5839176E-013  0.5052886E+02  0.7816164E-02  0.1300439E+00
        -11   -1    0    0    0    0  0.00000000000E+00  0.00000000000E+00  0.45593999997E+02  0.45594000000E+02  0.51100000000E-03 0. -1.
         11   -1    0    0    0    0 -0.00000000000E+00 -0.00000000000E+00 -0.45593999997E+02  0.45594000000E+02  0.51100000000E-03 0.  1.
    9900012    2    1    2    0    0  0.85469463598E+01  0.37121861015E+02 -0.14215580655E+02  0.50528860921E+02  0.30000003254E+02 0.  0.
        -12    1    1    2    0    0 -0.85469463598E+01 -0.37121861015E+02  0.14215580655E+02  0.40659139079E+02  0.00000000000E+00 0.  1.
         11    1    3    3    0    0  0.89893840335E+01  0.97859565245E+01 -0.10089354080E+02  0.16684394997E+02  0.51100000000E-03 0. -1.
        -11    1    3    3    0    0  0.77660352263E+01  0.39669465960E+01 -0.22424967715E+01  0.90042634604E+01  0.51100000000E-03 0.  1.
        -12    1    3    3    0    0 -0.82084729000E+01  0.23368957895E+02 -0.18837298032E+01  0.24840202463E+02  0.00000000000E+00 0.  1.
</event>
<event>
 7    1  0.5839176E-013  0.5052886E+02  0.7816164E-02  0.1300439E+00
        -11   -1    0    0    0    0  0.00000000000E+00  0.00000000000E+00  0.45593999997E+02  0.45594000000E+02  0.51100000000E-03 0.  1.
         11   -1    0    0    0    0 -0.00000000000E+00 -0.00000000000E+00 -0.45593999997E+02  0.45594000000E+02  0.51100000000E-03 0. -1.
    9900012    2    1    2    0    0 -0.25662552752E+02 -0.24881496485E+02 -0.19378082649E+02  0.50528861196E+02  0.30000004092E+02 0.  0.
        -12    1    1    2    0    0  0.25662552752E+02  0.24881496485E+02  0.19378082649E+02  0.40659138804E+02  0.00000000000E+00 0.  1.
         11    1    3    3    0    0  0.56786801700E+01 -0.10310387510E+02 -0.59190744916E+01  0.13175239739E+02  0.51100000000E-03 0. -1.
        -11    1    3    3    0    0 -0.75850789619E+01 -0.42680752128E+01 -0.53640424653E+01  0.10223641265E+02  0.51100000000E-03 0.  1.
        -12    1    3    3    0    0 -0.23756153960E+02 -0.10303033763E+02 -0.80949656919E+01  0.27129980193E+02  0.00000000000E+00 0.  1.
</event>
<event>
 7    1  0.5839176E-013  0.5052884E+02  0.7816164E-02  0.1300439E+00
        -11   -1    0    0    0    0  0.00000000000E+00  0.00000000000E+00  0.45593999997E+02  0.45594000000E+02  0.51100000000E-03 0. -1.
         11   -1    0    0    0    0 -0.00000000000E+00 -0.00000000000E+00 -0.45593999997E+02  0.45594000000E+02  0.51100000000E-03 0.  1.
    9900012    2    1    2    0    0 -0.17063754128E+02 -0.36861879684E+02  0.17881871518E+01  0.50528837539E+02  0.29999932183E+02 0.  0.
        -12    1    1    2    0    0  0.17063754128E+02  0.36861879684E+02 -0.17881871518E+01  0.40659162461E+02  0.00000000000E+00 0.  1.
         11    1    3    3    0    0 -0.12420702202E+02 -0.22420289897E+02  0.78463494113E+01  0.26805007771E+02  0.51100000000E-03 0. -1.
        -11    1    3    3    0    0 -0.10975146063E+02 -0.71193168357E+01 -0.49204986323E+01  0.13976759652E+02  0.51100000000E-03 0.  1.
         12    1    3    3    0    0  0.63320941366E+01 -0.73222729514E+01 -0.11376636272E+01  0.97470701166E+01  0.00000000000E+00 0. -1.
</event>
<event>
 7    1  0.5839176E-013  0.5052886E+02  0.7816164E-02  0.1300439E+00
        -11   -1    0    0    0    0  0.00000000000E+00  0.00000000000E+00  0.45593999997E+02  0.45594000000E+02  0.51100000000E-03 0. -1.
         11   -1    0    0    0    0 -0.00000000000E+00 -0.00000000000E+00 -0.45593999997E+02  0.45594000000E+02  0.51100000000E-03 0.  1.
    9900012    2    1    2    0    0  0.37309136465E+02  0.30456506188E+01 -0.15871936842E+02  0.50528855511E+02  0.29999986812E+02 0.  0.
        -12    1    1    2    0    0 -0.37309136465E+02 -0.30456506188E+01  0.15871936842E+02  0.40659144489E+02  0.00000000000E+00 0.  1.
         11    1    3    3    0    0  0.24019065279E+02  0.78054743813E+01 -0.44833218865E+01  0.25650362622E+02  0.51100000000E-03 0. -1.
        -11    1    3    3    0    0  0.16725535350E+02 -0.84488247674E+00 -0.73555556673E+01  0.18291023989E+02  0.51100000000E-03 0.  1.
        -12    1    3    3    0    0 -0.34354641646E+01 -0.39149412858E+01 -0.40330592877E+01  0.65874689005E+01  0.00000000000E+00 0.  1.
</event>
<event>
 7    1  0.5839176E-013  0.5052886E+02  0.7816164E-02  0.1300439E+00
        -11   -1    0    0    0    0  0.00000000000E+00  0.00000000000E+00  0.45593999997E+02  0.45594000000E+02  0.51100000000E-03 0.  1.
         11   -1    0    0    0    0 -0.00000000000E+00 -0.00000000000E+00 -0.45593999997E+02  0.45594000000E+02  0.51100000000E-03 0. -1.
    9900012    2    1    2    0    0  0.14978343599E+02  0.22281616040E+02 -0.30534314815E+02  0.50528861156E+02  0.30000003971E+02 0.  0.
        -12    1    1    2    0    0 -0.14978343599E+02 -0.22281616040E+02  0.30534314815E+02  0.40659138844E+02  0.00000000000E+00 0.  1.
         11    1    3    3    0    0 -0.15339715429E+01  0.24021287663E+01 -0.21721851667E+02  0.21908038055E+02  0.51100000000E-03 0. -1.
        -11    1    3    3    0    0  0.36422633943E+01  0.46251077937E+01  0.16123980846E+01  0.61038948698E+01  0.51100000000E-03 0.  1.
        -12    1    3    3    0    0  0.12870051747E+02  0.15254379479E+02 -0.10424861232E+02  0.22516928232E+02  0.00000000000E+00 0.  1.
</event>
<event>
 7    1  0.5839176E-013  0.5052885E+02  0.7816164E-02  0.1300439E+00
        -11   -1    0    0    0    0  0.00000000000E+00  0.00000000000E+00  0.45593999997E+02  0.45594000000E+02  0.51100000000E-03 0.  1.
         11   -1    0    0    0    0 -0.00000000000E+00 -0.00000000000E+00 -0.45593999997E+02  0.45594000000E+02  0.51100000000E-03 0. -1.
    9900012    2    1    2    0    0  0.37997976110E+02 -0.18305776424E+01 -0.14351626501E+02  0.50528851138E+02  0.29999973519E+02 0.  0.
        -12    1    1    2    0    0 -0.37997976110E+02  0.18305776424E+01  0.14351626501E+02  0.40659148862E+02  0.00000000000E+00 0.  1.
         11    1    3    3    0    0  0.11143775047E+02  0.28675422990E+01 -0.14530250791E+02  0.18534689354E+02  0.51100000000E-03 0. -1.
        -11    1    3    3    0    0  0.12234341099E+02  0.98995166988E+00 -0.76487101620E+01  0.14462429735E+02  0.51100000000E-03 0.  1.
        -12    1    3    3    0    0  0.14619859964E+02 -0.56880716112E+01  0.78273344521E+01  0.17531732050E+02  0.00000000000E+00 0.  1.
</event>
<event>
 7    1  0.5839176E-013  0.5052886E+02  0.7816164E-02  0.1300439E+00
        -11   -1    0    0    0    0  0.00000000000E+00  0.00000000000E+00  0.45593999997E+02  0.45594000000E+02  0.51100000000E-03 0. -1.
         11   -1    0    0    0    0 -0.00000000000E+00 -0.00000000000E+00 -0.45593999997E+02  0.45594000000E+02  0.51100000000E-03 0.  1.
    9900012    2    1    2    0    0  0.37979818445E+02  0.13425717600E+02  0.55180878705E+01  0.50528858396E+02  0.29999995580E+02 0.  0.
        -12    1    1    2    0    0 -0.37979818445E+02 -0.13425717600E+02 -0.55180878705E+01  0.40659141604E+02  0.00000000000E+00 0.  1.
         11    1    3    3    0    0  0.10833008431E+02  0.67417996375E+01  0.31333040140E+01  0.13138627338E+02  0.51100000000E-03 0. -1.
        -11    1    3    3    0    0  0.12965128858E+02  0.61008273047E+00  0.13228700579E+02  0.18532816476E+02  0.51100000000E-03 0.  1.
         12    1    3    3    0    0  0.14181681156E+02  0.60738352325E+01 -0.10843916722E+02  0.18857414582E+02  0.00000000000E+00 0. -1.
</event>
<event>
 7    1  0.5839176E-013  0.5052886E+02  0.7816164E-02  0.1300439E+00
        -11   -1    0    0    0    0  0.00000000000E+00  0.00000000000E+00  0.45593999997E+02  0.45594000000E+02  0.51100000000E-03 0. -1.
         11   -1    0    0    0    0 -0.00000000000E+00 -0.00000000000E+00 -0.45593999997E+02  0.45594000000E+02  0.51100000000E-03 0.  1.
    9900012    2    1    2    0    0 -0.23378140593E+02 -0.14523583572E+00  0.33265707945E+02  0.50528857411E+02  0.29999992586E+02 0.  0.
        -12    1    1    2    0    0  0.23378140593E+02  0.14523583572E+00 -0.33265707945E+02  0.40659142589E+02  0.00000000000E+00 0.  1.
         11    1    3    3    0    0 -0.84140821531E+01  0.18477292935E+01  0.52352967047E+01  0.10080635589E+02  0.51100000000E-03 0. -1.
        -11    1    3    3    0    0 -0.92128391510E+01  0.17994006850E+01 -0.20338877665E+01  0.96047356942E+01  0.51100000000E-03 0.  1.
         12    1    3    3    0    0 -0.57512192889E+01 -0.37923658142E+01  0.30064299006E+02  0.30843486128E+02  0.00000000000E+00 0. -1.
</event>
<event>
 7    1  0.5839176E-013  0.5052886E+02  0.7816164E-02  0.1300439E+00
        -11   -1    0    0    0    0  0.00000000000E+00  0.00000000000E+00  0.45593999997E+02  0.45594000000E+02  0.51100000000E-03 0.  1.
         11   -1    0    0    0    0 -0.00000000000E+00 -0.00000000000E+00 -0.45593999997E+02  0.45594000000E+02  0.51100000000E-03 0. -1.
    9900012    2    1    2    0    0  0.85578804680E+01 -0.25990180453E+02 -0.30073885465E+02  0.50528863449E+02  0.30000010941E+02 0.  0.
        -12    1    1    2    0    0 -0.85578804680E+01  0.25990180453E+02  0.30073885465E+02  0.40659136551E+02  0.00000000000E+00 0.  1.
         11    1    3    3    0    0  0.94903985341E+01 -0.22224427087E+02 -0.21910584578E+02  0.32620032809E+02  0.51100000000E-03 0. -1.
        -11    1    3    3    0    0 -0.20764214162E+01 -0.87253056333E+01 -0.90510682533E+01  0.12742225908E+02  0.51100000000E-03 0.  1.
         12    1    3    3    0    0  0.11439033501E+01  0.49595522672E+01  0.88776736645E+00  0.51666047325E+01  0.00000000000E+00 0. -1.
</event>
<event>
 7    1  0.5839176E-013  0.5052885E+02  0.7816164E-02  0.1300439E+00
        -11   -1    0    0    0    0  0.00000000000E+00  0.00000000000E+00  0.45593999997E+02  0.45594000000E+02  0.51100000000E-03 0.  1.
         11   -1    0    0    0    0 -0.00000000000E+00 -0.00000000000E+00 -0.45593999997E+02  0.45594000000E+02  0.51100000000E-03 0. -1.
    9900012    2    1    2    0    0 -0.15749428933E+02 -0.14714697955E+01 -0.37456058900E+02  0.50528854861E+02  0.29999984836E+02 0.  0.
        -12    1    1    2    0    0  0.15749428933E+02  0.14714697955E+01  0.37456058900E+02  0.40659145139E+02  0.00000000000E+00 0.  1.
         11    1    3    3    0    0  0.17978469550E+01  0.15910413466E+00 -0.85326042719E+01  0.87214049167E+01  0.51100000000E-03 0. -1.
        -11    1    3    3    0    0 -0.10990582022E+02  0.41954259856E+00 -0.32322694745E+02  0.34142722578E+02  0.51100000000E-03 0.  1.
        -12    1    3    3    0    0 -0.65566938655E+01 -0.20501165287E+01  0.33992401171E+01  0.76647273664E+01  0.00000000000E+00 0.  1.
</event>
<event>
 7    1  0.5839176E-013  0.5052886E+02  0.7816164E-02  0.1300439E+00
        -11   -1    0    0    0    0  0.00000000000E+00  0.00000000000E+00  0.45593999997E+02  0.45594000000E+02  0.51100000000E-03 0.  1.
         11   -1    0    0    0    0 -0.00000000000E+00 -0.00000000000E+00 -0.45593999997E+02  0.45594000000E+02  0.51100000000E-03 0. -1.
    9900012    2    1    2    0    0 -0.10723162424E+02  0.27413475707E+01 -0.39123705080E+02  0.50528862060E+02  0.30000006717E+02 0.  0.
        -12    1    1    2    0    0  0.10723162424E+02 -0.27413475707E+01  0.39123705080E+02  0.40659137940E+02  0.00000000000E+00 0.  1.
         11    1    3    3    0    0 -0.86464113302E+01  0.59134195372E+01 -0.88325915464E+01  0.13701957276E+02  0.51100000000E-03 0. -1.
        -11    1    3    3    0    0 -0.58178903442E+01  0.17103365112E+01 -0.15142394687E+00  0.60659730062E+01  0.51100000000E-03 0.  1.
         12    1    3    3    0    0  0.37411392506E+01 -0.48824084777E+01 -0.30139689587E+02  0.30760931777E+02  0.00000000000E+00 0. -1.
</event>
<event>
 7    1  0.5839176E-013  0.5052886E+02  0.7816164E-02  0.1300439E+00
        -11   -1    0    0    0    0  0.00000000000E+00  0.00000000000E+00  0.45593999997E+02  0.45594000000E+02  0.51100000000E-03 0. -1.
         11   -1    0    0    0    0 -0.00000000000E+00 -0.00000000000E+00 -0.45593999997E+02  0.45594000000E+02  0.51100000000E-03 0.  1.
    9900012    2    1    2    0    0 -0.21337427946E+02 -0.34495018347E+02  0.28237386353E+01  0.50528860535E+02  0.30000002083E+02 0.  0.
        -12    1    1    2    0    0  0.21337427946E+02  0.34495018347E+02 -0.28237386353E+01  0.40659139465E+02  0.00000000000E+00 0.  1.
         11    1    3    3    0    0 -0.16647281869E+02 -0.14804426568E+02  0.43469680527E+01  0.22697999276E+02  0.51100000000E-03 0. -1.
        -11    1    3    3    0    0 -0.11774721637E+02 -0.14756694211E+02 -0.28618750005E+01  0.19094355774E+02  0.51100000000E-03 0.  1.
        -12    1    3    3    0    0  0.70845755600E+01 -0.49338975682E+01  0.13386455830E+01  0.87365054842E+01  0.00000000000E+00 0.  1.
</event>
<event>
 7    1  0.5839176E-013  0.5052886E+02  0.7816164E-02  0.1300439E+00
        -11   -1    0    0    0    0  0.00000000000E+00  0.00000000000E+00  0.45593999997E+02  0.45594000000E+02  0.51100000000E-03 0. -1.
         11   -1    0    0    0    0 -0.00000000000E+00 -0.00000000000E+00 -0.45593999997E+02  0.45594000000E+02  0.51100000000E-03 0.  1.
    9900012    2    1    2    0    0 -0.35871895260E+02  0.18545695669E+02  0.47359979001E+01  0.50528863591E+02  0.30000011371E+02 0.  0.
        -12    1    1    2    0    0  0.35871895260E+02 -0.18545695669E+02 -0.47359979001E+01  0.40659136409E+02  0.00000000000E+00 0.  1.
         11    1    3    3    0    0 -0.16335872126E+02  0.53885661265E+01  0.34270560277E+01  0.17539728512E+02  0.51100000000E-03 0. -1.
        -11    1    3    3    0    0 -0.17655614054E+02  0.52997281030E+01  0.10124580301E+02  0.21031285080E+02  0.51100000000E-03 0.  1.
        -12    1    3    3    0    0 -0.18804090804E+01  0.78574014392E+01 -0.88156384283E+01  0.11957849998E+02  0.00000000000E+00 0.  1.
</event>
<event>
 7    1  0.5839176E-013  0.5052886E+02  0.7816164E-02  0.1300439E+00
        -11   -1    0    0    0    0  0.00000000000E+00  0.00000000000E+00  0.45593999997E+02  0.45594000000E+02  0.51100000000E-03 0. -1.
         11   -1    0    0    0    0 -0.00000000000E+00 -0.00000000000E+00 -0.45593999997E+02  0.45594000000E+02  0.51100000000E-03 0.  1.
    9900012    2    1    2    0    0 -0.37604787960E+02  0.89744001369E+01  0.12589899547E+02  0.50528861963E+02  0.30000006421E+02 0.  0.
        -12    1    1    2    0    0  0.37604787960E+02 -0.89744001369E+01 -0.12589899547E+02  0.40659138037E+02  0.00000000000E+00 0.  1.
         11    1    3    3    0    0 -0.52485797752E+01  0.73786256988E+01 -0.63137631016E+01  0.11038809339E+02  0.51100000000E-03 0.  1.
        -11    1    3    3    0    0 -0.15673664955E+01  0.27178015090E+01 -0.35402754275E+00  0.31572802434E+01  0.51100000000E-03 0. -1.
         12    1    3    3    0    0 -0.30788841690E+02 -0.11220270708E+01  0.19257690191E+02  0.36332772380E+02  0.00000000000E+00 0. -1.
</event>
<event>
 7    1  0.5839176E-013  0.5052882E+02  0.7816164E-02  0.1300439E+00
        -11   -1    0    0    0    0  0.00000000000E+00  0.00000000000E+00  0.45593999997E+02  0.45594000000E+02  0.51100000000E-03 0. -1.
         11   -1    0    0    0    0 -0.00000000000E+00 -0.00000000000E+00 -0.45593999997E+02  0.45594000000E+02  0.51100000000E-03 0.  1.
    9900012    2    1    2    0    0  0.34503154491E+02 -0.19901781894E+02  0.81621359878E+01  0.50528818303E+02  0.29999873714E+02 0.  0.
        -12    1    1    2    0    0 -0.34503154491E+02  0.19901781894E+02 -0.81621359878E+01  0.40659181697E+02  0.00000000000E+00 0.  1.
         11    1    3    3    0    0  0.10269447589E+02 -0.14179670490E+02  0.12930833616E+02  0.21765363936E+02  0.51100000000E-03 0. -1.
        -11    1    3    3    0    0  0.62176927582E+00  0.15487423980E+01 -0.36715577278E+01  0.40330554741E+01  0.51100000000E-03 0.  1.
        -12    1    3    3    0    0  0.23611937626E+02 -0.72708538022E+01 -0.10971399000E+01  0.24730398893E+02  0.00000000000E+00 0.  1.
</event>
<event>
 7    1  0.5839176E-013  0.5052886E+02  0.7816164E-02  0.1300439E+00
        -11   -1    0    0    0    0  0.00000000000E+00  0.00000000000E+00  0.45593999997E+02  0.45594000000E+02  0.51100000000E-03 0.  1.
         11   -1    0    0    0    0 -0.00000000000E+00 -0.00000000000E+00 -0.45593999997E+02  0.45594000000E+02  0.51100000000E-03 0. -1.
    9900012    2    1    2    0    0  0.29456621844E+02  0.19067456157E+02 -0.20540327676E+02  0.50528861841E+02  0.30000006052E+02 0.  0.
        -12    1    1    2    0    0 -0.29456621844E+02 -0.19067456157E+02  0.20540327676E+02  0.40659138159E+02  0.00000000000E+00 0.  1.
         11    1    3    3    0    0  0.55000675814E+01  0.43010628365E+01 -0.84491087978E+01  0.10960717343E+02  0.51100000000E-03 0.  1.
        -11    1    3    3    0    0  0.20614002094E+02  0.18190534488E+02 -0.17309759800E+02  0.32487850219E+02  0.51100000000E-03 0. -1.
        -12    1    3    3    0    0  0.33425521688E+01 -0.34241411666E+01  0.52185409217E+01  0.70802942793E+01  0.00000000000E+00 0.  1.
</event>
<event>
 7    1  0.5839176E-013  0.5052886E+02  0.7816164E-02  0.1300439E+00
        -11   -1    0    0    0    0  0.00000000000E+00  0.00000000000E+00  0.45593999997E+02  0.45594000000E+02  0.51100000000E-03 0.  1.
         11   -1    0    0    0    0 -0.00000000000E+00 -0.00000000000E+00 -0.45593999997E+02  0.45594000000E+02  0.51100000000E-03 0. -1.
    9900012    2    1    2    0    0 -0.41326798134E+01 -0.28314060210E+01 -0.40349344529E+02  0.50528861957E+02  0.30000006403E+02 0.  0.
        -12    1    1    2    0    0  0.41326798134E+01  0.28314060210E+01  0.40349344529E+02  0.40659138043E+02  0.00000000000E+00 0.  1.
         11    1    3    3    0    0  0.19959128392E+01 -0.35858719993E+01 -0.52686317912E+01  0.66783701058E+01  0.51100000000E-03 0.  1.
        -11    1    3    3    0    0 -0.76187989078E+00 -0.10008737033E+02 -0.28336112632E+02  0.30061446361E+02  0.51100000000E-03 0. -1.
        -12    1    3    3    0    0 -0.53667127618E+01  0.10763203011E+02 -0.67446001064E+01  0.13789045490E+02  0.00000000000E+00 0.  1.
</event>
<event>
 7    1  0.5839176E-013  0.5052887E+02  0.7816164E-02  0.1300439E+00
        -11   -1    0    0    0    0  0.00000000000E+00  0.00000000000E+00  0.45593999997E+02  0.45594000000E+02  0.51100000000E-03 0.  1.
         11   -1    0    0    0    0 -0.00000000000E+00 -0.00000000000E+00 -0.45593999997E+02  0.45594000000E+02  0.51100000000E-03 0. -1.
    9900012    2    1    2    0    0  0.18663391376E+02  0.34224558970E+02  0.11555188751E+02  0.50528868167E+02  0.30000025281E+02 0.  0.
        -12    1    1    2    0    0 -0.18663391376E+02 -0.34224558970E+02 -0.11555188751E+02  0.40659131833E+02  0.00000000000E+00 0.  1.
         11    1    3    3    0    0  0.65336546816E+01  0.58219623039E+01  0.22263867119E+01  0.90299881849E+01  0.51100000000E-03 0. -1.
        -11    1    3    3    0    0  0.20225176325E+02  0.17376425381E+02  0.48248010171E+01  0.27097539030E+02  0.51100000000E-03 0.  1.
        -12    1    3    3    0    0 -0.80954396302E+01  0.11026171285E+02  0.45040010219E+01  0.14401340952E+02  0.00000000000E+00 0.  1.
</event>
<event>
 7    1  0.5839176E-013  0.5052887E+02  0.7816164E-02  0.1300439E+00
        -11   -1    0    0    0    0  0.00000000000E+00  0.00000000000E+00  0.45593999997E+02  0.45594000000E+02  0.51100000000E-03 0. -1.
         11   -1    0    0    0    0 -0.00000000000E+00 -0.00000000000E+00 -0.45593999997E+02  0.45594000000E+02  0.51100000000E-03 0.  1.
    9900012    2    1    2    0    0  0.40203455651E+02  0.12768677132E+01  0.59343806765E+01  0.50528866814E+02  0.30000021167E+02 0.  0.
        -12    1    1    2    0    0 -0.40203455651E+02 -0.12768677132E+01 -0.59343806765E+01  0.40659133186E+02  0.00000000000E+00 0.  1.
         11    1    3    3    0    0  0.28934044141E+02  0.52758545185E+01  0.95897845856E+01  0.30935053256E+02  0.51100000000E-03 0. -1.
        -11    1    3    3    0    0  0.74398449554E+01  0.37904188745E+01  0.27669312898E+01  0.87962763274E+01  0.51100000000E-03 0.  1.
        -12    1    3    3    0    0  0.38295665544E+01 -0.77894056798E+01 -0.64223351989E+01  0.10797537231E+02  0.00000000000E+00 0.  1.
</event>
<event>
 7    1  0.5839176E-013  0.5052886E+02  0.7816164E-02  0.1300439E+00
        -11   -1    0    0    0    0  0.00000000000E+00  0.00000000000E+00  0.45593999997E+02  0.45594000000E+02  0.51100000000E-03 0.  1.
         11   -1    0    0    0    0 -0.00000000000E+00 -0.00000000000E+00 -0.45593999997E+02  0.45594000000E+02  0.51100000000E-03 0. -1.
    9900012    2    1    2    0    0 -0.39927533652E+02  0.50799270513E+01 -0.57577579806E+01  0.50528863520E+02  0.30000011155E+02 0.  0.
        -12    1    1    2    0    0  0.39927533652E+02 -0.50799270513E+01  0.57577579806E+01  0.40659136480E+02  0.00000000000E+00 0.  1.
         11    1    3    3    0    0 -0.16615556346E+02 -0.48203227418E+01 -0.74882179251E+01  0.18851674514E+02  0.51100000000E-03 0. -1.
        -11    1    3    3    0    0 -0.36448116128E+01 -0.51242743309E+01 -0.21072522502E+01  0.66319945279E+01  0.51100000000E-03 0.  1.
         12    1    3    3    0    0 -0.19667165693E+02  0.15024524124E+02  0.38377121947E+01  0.25045194478E+02  0.00000000000E+00 0. -1.
</event>
<event>
 7    1  0.5839176E-013  0.5052890E+02  0.7816164E-02  0.1300439E+00
        -11   -1    0    0    0    0  0.00000000000E+00  0.00000000000E+00  0.45593999997E+02  0.45594000000E+02  0.51100000000E-03 0.  1.
         11   -1    0    0    0    0 -0.00000000000E+00 -0.00000000000E+00 -0.45593999997E+02  0.45594000000E+02  0.51100000000E-03 0. -1.
    9900012    2    1    2    0    0 -0.27381962346E+02 -0.30041854530E+02  0.93688375671E+00  0.50528897247E+02  0.30000113671E+02 0.  0.
        -12    1    1    2    0    0  0.27381962346E+02  0.30041854530E+02 -0.93688375671E+00  0.40659102753E+02  0.00000000000E+00 0.  1.
         11    1    3    3    0    0 -0.49779780055E+01 -0.85201078857E+01 -0.57619252270E+01  0.11426823093E+02  0.51100000000E-03 0. -1.
        -11    1    3    3    0    0  0.23817538777E+01  0.59549321631E+00 -0.35694350292E+01  0.43322315720E+01  0.51100000000E-03 0.  1.
         12    1    3    3    0    0 -0.24785738218E+02 -0.22117239861E+02  0.10268244013E+02  0.34769842582E+02  0.00000000000E+00 0. -1.
</event>
<event>
 7    1  0.5839176E-013  0.5052886E+02  0.7816164E-02  0.1300439E+00
        -11   -1    0    0    0    0  0.00000000000E+00  0.00000000000E+00  0.45593999997E+02  0.45594000000E+02  0.51100000000E-03 0.  1.
         11   -1    0    0    0    0 -0.00000000000E+00 -0.00000000000E+00 -0.45593999997E+02  0.45594000000E+02  0.51100000000E-03 0. -1.
    9900012    2    1    2    0    0  0.21836750569E+02  0.18290192403E+02 -0.29013637899E+02  0.50528855915E+02  0.29999988039E+02 0.  0.
        -12    1    1    2    0    0 -0.21836750569E+02 -0.18290192403E+02  0.29013637899E+02  0.40659144085E+02  0.00000000000E+00 0.  1.
         11    1    3    3    0    0 -0.10266530223E+01  0.16484139968E+01  0.21076573217E+01  0.28659212794E+01  0.51100000000E-03 0. -1.
        -11    1    3    3    0    0  0.28345329706E+01  0.20421573796E+01  0.35911791744E+01  0.50101449129E+01  0.51100000000E-03 0.  1.
         12    1    3    3    0    0  0.20028870621E+02  0.14599621027E+02 -0.34712474396E+02  0.42652789723E+02  0.00000000000E+00 0. -1.
</event>
<event>
 7    1  0.5839176E-013  0.5052887E+02  0.7816164E-02  0.1300439E+00
        -11   -1    0    0    0    0  0.00000000000E+00  0.00000000000E+00  0.45593999997E+02  0.45594000000E+02  0.51100000000E-03 0. -1.
         11   -1    0    0    0    0 -0.00000000000E+00 -0.00000000000E+00 -0.45593999997E+02  0.45594000000E+02  0.51100000000E-03 0.  1.
    9900012    2    1    2    0    0 -0.29031842958E+02  0.10494451521E+02  0.26460985138E+02  0.50528866305E+02  0.30000019622E+02 0.  0.
        -12    1    1    2    0    0  0.29031842958E+02 -0.10494451521E+02 -0.26460985138E+02  0.40659133695E+02  0.00000000000E+00 0.  1.
         11    1    3    3    0    0 -0.10229980638E+02  0.95028176512E+01  0.56285370850E+01  0.15054450410E+02  0.51100000000E-03 0.  1.
        -11    1    3    3    0    0 -0.17960204274E+02  0.39436461875E+01  0.46006001639E+01  0.18954862303E+02  0.51100000000E-03 0. -1.
        -12    1    3    3    0    0 -0.84165804707E+00 -0.29520123174E+01  0.16231847890E+02  0.16519553593E+02  0.00000000000E+00 0.  1.
</event>
<event>
 7    1  0.5839176E-013  0.5052886E+02  0.7816164E-02  0.1300439E+00
        -11   -1    0    0    0    0  0.00000000000E+00  0.00000000000E+00  0.45593999997E+02  0.45594000000E+02  0.51100000000E-03 0.  1.
         11   -1    0    0    0    0 -0.00000000000E+00 -0.00000000000E+00 -0.45593999997E+02  0.45594000000E+02  0.51100000000E-03 0. -1.
    9900012    2    1    2    0    0 -0.30233497001E+02  0.21573337376E+02 -0.16543656870E+02  0.50528858235E+02  0.29999995090E+02 0.  0.
        -12    1    1    2    0    0  0.30233497001E+02 -0.21573337376E+02  0.16543656870E+02  0.40659141765E+02  0.00000000000E+00 0.  1.
         11    1    3    3    0    0 -0.17755518987E+02  0.40820053497E+01 -0.30251349173E+01  0.18468152688E+02  0.51100000000E-03 0. -1.
        -11    1    3    3    0    0 -0.17510637158E+02  0.11830804486E+02 -0.12110115036E+02  0.24356626099E+02  0.51100000000E-03 0.  1.
        -12    1    3    3    0    0  0.50326591441E+01  0.56605275411E+01 -0.14084069165E+01  0.77040794483E+01  0.00000000000E+00 0.  1.
</event>
<event>
 7    1  0.5839176E-013  0.5052883E+02  0.7816164E-02  0.1300439E+00
        -11   -1    0    0    0    0  0.00000000000E+00  0.00000000000E+00  0.45593999997E+02  0.45594000000E+02  0.51100000000E-03 0. -1.
         11   -1    0    0    0    0 -0.00000000000E+00 -0.00000000000E+00 -0.45593999997E+02  0.45594000000E+02  0.51100000000E-03 0.  1.
    9900012    2    1    2    0    0  0.57814507555E+01 -0.93402447627E+01  0.39147193312E+02  0.50528830194E+02  0.29999909859E+02 0.  0.
        -12    1    1    2    0    0 -0.57814507555E+01  0.93402447627E+01 -0.39147193312E+02  0.40659169806E+02  0.00000000000E+00 0.  1.
         11    1    3    3    0    0  0.91859669004E+01 -0.16246570162E+02  0.19275871983E+02  0.26830808242E+02  0.51100000000E-03 0. -1.
        -11    1    3    3    0    0  0.25300029391E+01 -0.25100924577E+00  0.11404245201E+01  0.27864832425E+01  0.51100000000E-03 0.  1.
         12    1    3    3    0    0 -0.59345190840E+01  0.71573346448E+01  0.18730896809E+02  0.20911538710E+02  0.00000000000E+00 0. -1.
</event>
<event>
 7    1  0.5839176E-013  0.5052887E+02  0.7816164E-02  0.1300439E+00
        -11   -1    0    0    0    0  0.00000000000E+00  0.00000000000E+00  0.45593999997E+02  0.45594000000E+02  0.51100000000E-03 0.  1.
         11   -1    0    0    0    0 -0.00000000000E+00 -0.00000000000E+00 -0.45593999997E+02  0.45594000000E+02  0.51100000000E-03 0. -1.
    9900012    2    1    2    0    0  0.10461574078E+02 -0.38675633450E+02 -0.69221367149E+01  0.50528866566E+02  0.30000020414E+02 0.  0.
        -12    1    1    2    0    0 -0.10461574078E+02  0.38675633450E+02  0.69221367149E+01  0.40659133434E+02  0.00000000000E+00 0.  1.
         11    1    3    3    0    0 -0.69621775831E-02 -0.16765904022E+02 -0.42042494178E+01  0.17285002157E+02  0.51100000000E-03 0. -1.
        -11    1    3    3    0    0 -0.65997461735E+01 -0.26733355789E+01 -0.24344411807E+01  0.75252825060E+01  0.51100000000E-03 0.  1.
         12    1    3    3    0    0  0.17068282429E+02 -0.19236393849E+02 -0.28344611646E+00  0.25718581903E+02  0.00000000000E+00 0. -1.
</event>
<event>
 7    1  0.5839176E-013  0.5052886E+02  0.7816164E-02  0.1300439E+00
        -11   -1    0    0    0    0  0.00000000000E+00  0.00000000000E+00  0.45593999997E+02  0.45594000000E+02  0.51100000000E-03 0. -1.
         11   -1    0    0    0    0 -0.00000000000E+00 -0.00000000000E+00 -0.45593999997E+02  0.45594000000E+02  0.51100000000E-03 0.  1.
    9900012    2    1    2    0    0 -0.18513196571E+02 -0.27916365614E+02  0.23045686878E+02  0.50528860805E+02  0.30000002903E+02 0.  0.
        -12    1    1    2    0    0  0.18513196571E+02  0.27916365614E+02 -0.23045686878E+02  0.40659139195E+02  0.00000000000E+00 0.  1.
         11    1    3    3    0    0  0.51639525930E+00  0.43799174713E+01  0.15126172188E+01  0.46624405874E+01  0.51100000000E-03 0. -1.
        -11    1    3    3    0    0 -0.74859355312E+01 -0.15354192156E+01  0.39968699679E+01  0.86239035678E+01  0.51100000000E-03 0.  1.
         12    1    3    3    0    0 -0.11543656299E+02 -0.30760863870E+02  0.17536199692E+02  0.37242516650E+02  0.00000000000E+00 0. -1.
</event>
<event>
 7    1  0.5839176E-013  0.5052886E+02  0.7816164E-02  0.1300439E+00
        -11   -1    0    0    0    0  0.00000000000E+00  0.00000000000E+00  0.45593999997E+02  0.45594000000E+02  0.51100000000E-03 0. -1.
         11   -1    0    0    0    0 -0.00000000000E+00 -0.00000000000E+00 -0.45593999997E+02  0.45594000000E+02  0.51100000000E-03 0.  1.
    9900012    2    1    2    0    0 -0.25919453666E+02 -0.25209831034E+02  0.18596016973E+02  0.50528861957E+02  0.30000006406E+02 0.  0.
        -12    1    1    2    0    0  0.25919453666E+02  0.25209831034E+02 -0.18596016973E+02  0.40659138043E+02  0.00000000000E+00 0.  1.
         11    1    3    3    0    0 -0.93224029204E+01 -0.12493187902E+02  0.78259286534E+00  0.15607670935E+02  0.51100000000E-03 0. -1.
        -11    1    3    3    0    0 -0.11520335292E+02 -0.77514403572E+01 -0.18563067312E+01  0.14008883889E+02  0.51100000000E-03 0.  1.
        -12    1    3    3    0    0 -0.50767154528E+01 -0.49652027749E+01  0.19669730839E+02  0.20912307134E+02  0.00000000000E+00 0.  1.
</event>
<event>
 7    1  0.5839176E-013  0.5052886E+02  0.7816164E-02  0.1300439E+00
        -11   -1    0    0    0    0  0.00000000000E+00  0.00000000000E+00  0.45593999997E+02  0.45594000000E+02  0.51100000000E-03 0.  1.
         11   -1    0    0    0    0 -0.00000000000E+00 -0.00000000000E+00 -0.45593999997E+02  0.45594000000E+02  0.51100000000E-03 0. -1.
    9900012    2    1    2    0    0  0.23668315634E+02  0.13388841147E+02 -0.30227724638E+02  0.50528861187E+02  0.30000004064E+02 0.  0.
        -12    1    1    2    0    0 -0.23668315634E+02 -0.13388841147E+02  0.30227724638E+02  0.40659138813E+02  0.00000000000E+00 0.  1.
         11    1    3    3    0    0  0.10276558893E+02  0.17685123888E+02 -0.71826740716E+01  0.21678608735E+02  0.51100000000E-03 0. -1.
        -11    1    3    3    0    0  0.42806439272E+01  0.19941483269E+01 -0.13254596064E+02  0.14070709188E+02  0.51100000000E-03 0.  1.
        -12    1    3    3    0    0  0.91111128138E+01 -0.62904310677E+01 -0.97904545029E+01  0.14779543264E+02  0.00000000000E+00 0.  1.
</event>
<event>
 7    1  0.5839176E-013  0.5052887E+02  0.7816164E-02  0.1300439E+00
        -11   -1    0    0    0    0  0.00000000000E+00  0.00000000000E+00  0.45593999997E+02  0.45594000000E+02  0.51100000000E-03 0.  1.
         11   -1    0    0    0    0 -0.00000000000E+00 -0.00000000000E+00 -0.45593999997E+02  0.45594000000E+02  0.51100000000E-03 0. -1.
    9900012    2    1    2    0    0  0.17438642312E+02  0.14353637282E+02 -0.33808746821E+02  0.50528874204E+02  0.30000043630E+02 0.  0.
        -12    1    1    2    0    0 -0.17438642312E+02 -0.14353637282E+02  0.33808746821E+02  0.40659125796E+02  0.00000000000E+00 0.  1.
         11    1    3    3    0    0  0.14783386459E+02  0.70844648126E+01 -0.10825257859E+02  0.19644957746E+02  0.51100000000E-03 0. -1.
        -11    1    3    3    0    0  0.91856737423E+01  0.42206189354E+01 -0.45385737671E+01  0.11081014322E+02  0.51100000000E-03 0.  1.
        -12    1    3    3    0    0 -0.65304178890E+01  0.30485535337E+01 -0.18444915195E+02  0.19802902136E+02  0.00000000000E+00 0.  1.
</event>
<event>
 7    1  0.5839176E-013  0.5052886E+02  0.7816164E-02  0.1300439E+00
        -11   -1    0    0    0    0  0.00000000000E+00  0.00000000000E+00  0.45593999997E+02  0.45594000000E+02  0.51100000000E-03 0.  1.
         11   -1    0    0    0    0 -0.00000000000E+00 -0.00000000000E+00 -0.45593999997E+02  0.45594000000E+02  0.51100000000E-03 0. -1.
    9900012    2    1    2    0    0 -0.13515579686E+02 -0.15414371558E+02 -0.35112565071E+02  0.50528856248E+02  0.29999989051E+02 0.  0.
        -12    1    1    2    0    0  0.13515579686E+02  0.15414371558E+02  0.35112565071E+02  0.40659143752E+02  0.00000000000E+00 0.  1.
         11    1    3    3    0    0 -0.14254180244E+02 -0.11767743006E+02 -0.22650222310E+02  0.29235150091E+02  0.51100000000E-03 0. -1.
        -11    1    3    3    0    0 -0.73321485301E+00 -0.68904195602E+01  0.13239482083E+01  0.70546668848E+01  0.51100000000E-03 0.  1.
         12    1    3    3    0    0  0.14718154111E+01  0.32437910075E+01 -0.13786290969E+02  0.14239039272E+02  0.00000000000E+00 0. -1.
</event>
<event>
 7    1  0.5839176E-013  0.5052886E+02  0.7816164E-02  0.1300439E+00
        -11   -1    0    0    0    0  0.00000000000E+00  0.00000000000E+00  0.45593999997E+02  0.45594000000E+02  0.51100000000E-03 0.  1.
         11   -1    0    0    0    0 -0.00000000000E+00 -0.00000000000E+00 -0.45593999997E+02  0.45594000000E+02  0.51100000000E-03 0. -1.
    9900012    2    1    2    0    0 -0.25366068851E+02 -0.17946853451E+02 -0.26222871730E+02  0.50528855893E+02  0.29999987972E+02 0.  0.
        -12    1    1    2    0    0  0.25366068851E+02  0.17946853451E+02  0.26222871730E+02  0.40659144107E+02  0.00000000000E+00 0.  1.
         11    1    3    3    0    0 -0.15250801919E+02 -0.49633903316E+01 -0.14767017325E+02  0.21801078039E+02  0.51100000000E-03 0. -1.
        -11    1    3    3    0    0 -0.91592643756E+01  0.30803689714E+01 -0.72908701209E+01  0.12105270930E+02  0.51100000000E-03 0.  1.
         12    1    3    3    0    0 -0.95600255687E+00 -0.16063832091E+02 -0.41649842844E+01  0.16622506924E+02  0.00000000000E+00 0. -1.
</event>
<event>
 7    1  0.5839176E-013  0.5052882E+02  0.7816164E-02  0.1300439E+00
        -11   -1    0    0    0    0  0.00000000000E+00  0.00000000000E+00  0.45593999997E+02  0.45594000000E+02  0.51100000000E-03 0.  1.
         11   -1    0    0    0    0 -0.00000000000E+00 -0.00000000000E+00 -0.45593999997E+02  0.45594000000E+02  0.51100000000E-03 0. -1.
    9900012    2    1    2    0    0  0.33759966606E+02 -0.22617371824E+02  0.13740215302E+01  0.50528821594E+02  0.29999883718E+02 0.  0.
        -12    1    1    2    0    0 -0.33759966606E+02  0.22617371824E+02 -0.13740215302E+01  0.40659178406E+02  0.00000000000E+00 0.  1.
         11    1    3    3    0    0  0.20424732632E+02 -0.22009543468E+02  0.23594867960E+01  0.30119045220E+02  0.51100000000E-03 0. -1.
        -11    1    3    3    0    0  0.68893645605E+01 -0.57423387995E+01  0.49592160391E+01  0.10248493690E+02  0.51100000000E-03 0.  1.
        -12    1    3    3    0    0  0.64458694132E+01  0.51345104428E+01 -0.59446813049E+01  0.10161282685E+02  0.00000000000E+00 0.  1.
</event>
<event>
 7    1  0.5839176E-013  0.5052882E+02  0.7816164E-02  0.1300439E+00
        -11   -1    0    0    0    0  0.00000000000E+00  0.00000000000E+00  0.45593999997E+02  0.45594000000E+02  0.51100000000E-03 0. -1.
         11   -1    0    0    0    0 -0.00000000000E+00 -0.00000000000E+00 -0.45593999997E+02  0.45594000000E+02  0.51100000000E-03 0.  1.
    9900012    2    1    2    0    0  0.11175425107E+02 -0.20511241590E+02  0.33280135246E+02  0.50528824407E+02  0.29999892267E+02 0.  0.
        -12    1    1    2    0    0 -0.11175425107E+02  0.20511241590E+02 -0.33280135246E+02  0.40659175593E+02  0.00000000000E+00 0.  1.
         11    1    3    3    0    0 -0.50193126496E+01 -0.11158783813E+02  0.28228535689E+02  0.30766250715E+02  0.51100000000E-03 0. -1.
        -11    1    3    3    0    0  0.68985322740E+00 -0.16575460276E+01  0.54307295463E+00  0.18757091470E+01  0.51100000000E-03 0.  1.
         12    1    3    3    0    0  0.15504884530E+02 -0.76949117493E+01  0.45085266025E+01  0.17886864544E+02  0.00000000000E+00 0. -1.
</event>
<event>
 7    1  0.5839176E-013  0.5052886E+02  0.7816164E-02  0.1300439E+00
        -11   -1    0    0    0    0  0.00000000000E+00  0.00000000000E+00  0.45593999997E+02  0.45594000000E+02  0.51100000000E-03 0.  1.
         11   -1    0    0    0    0 -0.00000000000E+00 -0.00000000000E+00 -0.45593999997E+02  0.45594000000E+02  0.51100000000E-03 0. -1.
    9900012    2    1    2    0    0 -0.88852682414E+01  0.23047862854E+01 -0.39609414352E+02  0.50528859123E+02  0.29999997791E+02 0.  0.
        -12    1    1    2    0    0  0.88852682414E+01 -0.23047862854E+01  0.39609414352E+02  0.40659140877E+02  0.00000000000E+00 0.  1.
         11    1    3    3    0    0 -0.50242071847E+01  0.10956097158E+02 -0.27385490042E+02  0.29920624791E+02  0.51100000000E-03 0. -1.
        -11    1    3    3    0    0 -0.19770229763E+01  0.35540258603E+01 -0.43846891894E+01  0.59804029307E+01  0.51100000000E-03 0.  1.
        -12    1    3    3    0    0 -0.18840380803E+01 -0.12205336733E+02 -0.78392351204E+01  0.14627831402E+02  0.00000000000E+00 0.  1.
</event>
<event>
 7    1  0.5839176E-013  0.5052886E+02  0.7816164E-02  0.1300439E+00
        -11   -1    0    0    0    0  0.00000000000E+00  0.00000000000E+00  0.45593999997E+02  0.45594000000E+02  0.51100000000E-03 0. -1.
         11   -1    0    0    0    0 -0.00000000000E+00 -0.00000000000E+00 -0.45593999997E+02  0.45594000000E+02  0.51100000000E-03 0.  1.
    9900012    2    1    2    0    0  0.29538780320E+02  0.93764637519E+01  0.26319344111E+02  0.50528862163E+02  0.30000007029E+02 0.  0.
        -12    1    1    2    0    0 -0.29538780320E+02 -0.93764637519E+01 -0.26319344111E+02  0.40659137837E+02  0.00000000000E+00 0.  1.
         11    1    3    3    0    0  0.79463050422E+01 -0.55973568629E+01  0.11161475656E+02  0.14800429276E+02  0.51100000000E-03 0. -1.
        -11    1    3    3    0    0 -0.99402404353E+00  0.16899127642E+00  0.76249881519E+01  0.76913644062E+01  0.51100000000E-03 0.  1.
         12    1    3    3    0    0  0.22586499321E+02  0.14804829338E+02  0.75328803030E+01  0.28037068481E+02  0.00000000000E+00 0. -1.
</event>
<event>
 7    1  0.5839176E-013  0.5052886E+02  0.7816164E-02  0.1300439E+00
        -11   -1    0    0    0    0  0.00000000000E+00  0.00000000000E+00  0.45593999997E+02  0.45594000000E+02  0.51100000000E-03 0. -1.
         11   -1    0    0    0    0 -0.00000000000E+00 -0.00000000000E+00 -0.45593999997E+02  0.45594000000E+02  0.51100000000E-03 0.  1.
    9900012    2    1    2    0    0  0.14130777595E+02 -0.15614250506E+02  0.34780481881E+02  0.50528860631E+02  0.30000002375E+02 0.  0.
        -12    1    1    2    0    0 -0.14130777595E+02  0.15614250506E+02 -0.34780481881E+02  0.40659139369E+02  0.00000000000E+00 0.  1.
         11    1    3    3    0    0 -0.24037012266E+00 -0.12982429315E-01  0.11927579244E+02  0.11930008098E+02  0.51100000000E-03 0. -1.
        -11    1    3    3    0    0 -0.30483485568E+01 -0.13150420281E+02  0.93037790840E+01  0.16394703047E+02  0.51100000000E-03 0.  1.
        -12    1    3    3    0    0  0.17419496274E+02 -0.24508477964E+01  0.13549123554E+02  0.22204149487E+02  0.00000000000E+00 0.  1.
</event>
<event>
 7    1  0.5839176E-013  0.5052885E+02  0.7816164E-02  0.1300439E+00
        -11   -1    0    0    0    0  0.00000000000E+00  0.00000000000E+00  0.45593999997E+02  0.45594000000E+02  0.51100000000E-03 0.  1.
         11   -1    0    0    0    0 -0.00000000000E+00 -0.00000000000E+00 -0.45593999997E+02  0.45594000000E+02  0.51100000000E-03 0. -1.
    9900012    2    1    2    0    0 -0.31872484865E+02  0.23903324341E+02  0.81204788973E+01  0.50528851171E+02  0.29999973618E+02 0.  0.
        -12    1    1    2    0    0  0.31872484865E+02 -0.23903324341E+02 -0.81204788973E+01  0.40659148829E+02  0.00000000000E+00 0.  1.
         11    1    3    3    0    0  0.23711848524E+01  0.16462554045E+01  0.89008514379E+00  0.30207492921E+01  0.51100000000E-03 0. -1.
        -11    1    3    3    0    0 -0.53227629042E+01  0.67691012231E+01  0.11562038938E+02  0.14416424001E+02  0.51100000000E-03 0.  1.
        -12    1    3    3    0    0 -0.28920906813E+02  0.15487967714E+02 -0.43316451843E+01  0.33091677878E+02  0.00000000000E+00 0.  1.
</event>
<event>
 7    1  0.5839176E-013  0.5052886E+02  0.7816164E-02  0.1300439E+00
        -11   -1    0    0    0    0  0.00000000000E+00  0.00000000000E+00  0.45593999997E+02  0.45594000000E+02  0.51100000000E-03 0.  1.
         11   -1    0    0    0    0 -0.00000000000E+00 -0.00000000000E+00 -0.45593999997E+02  0.45594000000E+02  0.51100000000E-03 0. -1.
    9900012    2    1    2    0    0 -0.29929441953E+02  0.18246415758E+02 -0.20602488908E+02  0.50528859173E+02  0.29999997941E+02 0.  0.
        -12    1    1    2    0    0  0.29929441953E+02 -0.18246415758E+02  0.20602488908E+02  0.40659140827E+02  0.00000000000E+00 0.  1.
         11    1    3    3    0    0 -0.78170540354E+01  0.15193761539E+02 -0.39313534089E+01  0.17533176078E+02  0.51100000000E-03 0. -1.
        -11    1    3    3    0    0 -0.13435671266E+01  0.68488102076E+01 -0.65920058645E+01  0.96003080920E+01  0.51100000000E-03 0.  1.
        -12    1    3    3    0    0 -0.20768820791E+02 -0.37961559881E+01 -0.10079129634E+02  0.23395375003E+02  0.00000000000E+00 0.  1.
</event>
<event>
 7    1  0.5839176E-013  0.5052900E+02  0.7816164E-02  0.1300438E+00
        -11   -1    0    0    0    0  0.00000000000E+00  0.00000000000E+00  0.45593999997E+02  0.45594000000E+02  0.51100000000E-03 0. -1.
         11   -1    0    0    0    0 -0.00000000000E+00 -0.00000000000E+00 -0.45593999997E+02  0.45594000000E+02  0.51100000000E-03 0.  1.
    9900012    2    1    2    0    0 -0.10195945690E+02  0.29750408721E+02  0.25770327160E+02  0.50529004814E+02  0.30000440630E+02 0.  0.
        -12    1    1    2    0    0  0.10195945690E+02 -0.29750408721E+02 -0.25770327160E+02  0.40658995186E+02  0.00000000000E+00 0.  1.
         11    1    3    3    0    0 -0.34571415510E+01  0.43788901620E+01  0.19635735215E+02  0.20412951880E+02  0.51100000000E-03 0. -1.
        -11    1    3    3    0    0 -0.16881734438E+01 -0.14128023022E+01  0.80238333180E+00  0.23430235154E+01  0.51100000000E-03 0.  1.
         12    1    3    3    0    0 -0.50506306955E+01  0.26784320861E+02  0.53322086130E+01  0.27773029419E+02  0.00000000000E+00 0. -1.
</event>
<event>
 7    1  0.5839176E-013  0.5052883E+02  0.7816164E-02  0.1300439E+00
        -11   -1    0    0    0    0  0.00000000000E+00  0.00000000000E+00  0.45593999997E+02  0.45594000000E+02  0.51100000000E-03 0.  1.
         11   -1    0    0    0    0 -0.00000000000E+00 -0.00000000000E+00 -0.45593999997E+02  0.45594000000E+02  0.51100000000E-03 0. -1.
    9900012    2    1    2    0    0  0.22292364710E+02 -0.31414270622E+02 -0.13013908830E+02  0.50528834415E+02  0.29999922687E+02 0.  0.
        -12    1    1    2    0    0 -0.22292364710E+02  0.31414270622E+02  0.13013908830E+02  0.40659165585E+02  0.00000000000E+00 0.  1.
         11    1    3    3    0    0  0.16066984681E+00 -0.11873531248E+02  0.93394042014E+00  0.11911288933E+02  0.51100000000E-03 0. -1.
        -11    1    3    3    0    0 -0.38008733254E+01 -0.36663646717E+01 -0.40041529295E+01  0.66273757163E+01  0.51100000000E-03 0.  1.
        -12    1    3    3    0    0  0.25932568189E+02 -0.15874374703E+02 -0.99436963202E+01  0.31990169765E+02  0.00000000000E+00 0.  1.
</event>
<event>
 7    1  0.5839176E-013  0.5052886E+02  0.7816164E-02  0.1300439E+00
        -11   -1    0    0    0    0  0.00000000000E+00  0.00000000000E+00  0.45593999997E+02  0.45594000000E+02  0.51100000000E-03 0.  1.
         11   -1    0    0    0    0 -0.00000000000E+00 -0.00000000000E+00 -0.45593999997E+02  0.45594000000E+02  0.51100000000E-03 0. -1.
    9900012    2    1    2    0    0  0.28995592316E+02 -0.26963380668E+01 -0.28375179178E+02  0.50528863190E+02  0.30000010153E+02 0.  0.
        -12    1    1    2    0    0 -0.28995592316E+02  0.26963380668E+01  0.28375179178E+02  0.40659136810E+02  0.00000000000E+00 0.  1.
         11    1    3    3    0    0  0.17228302339E+02  0.78514712645E+01 -0.23440788700E+02  0.30131886394E+02  0.51100000000E-03 0. -1.
        -11    1    3    3    0    0  0.39186505017E+01  0.24392341647E+01 -0.12307296064E+01  0.47770682107E+01  0.51100000000E-03 0.  1.
        -12    1    3    3    0    0  0.78486394754E+01 -0.12987043496E+02 -0.37036608718E+01  0.15619908586E+02  0.00000000000E+00 0.  1.
</event>
<event>
 7    1  0.5839176E-013  0.5052886E+02  0.7816164E-02  0.1300439E+00
        -11   -1    0    0    0    0  0.00000000000E+00  0.00000000000E+00  0.45593999997E+02  0.45594000000E+02  0.51100000000E-03 0. -1.
         11   -1    0    0    0    0 -0.00000000000E+00 -0.00000000000E+00 -0.45593999997E+02  0.45594000000E+02  0.51100000000E-03 0.  1.
    9900012    2    1    2    0    0 -0.18284866231E+02 -0.32903134596E+02 -0.15369228185E+02  0.50528858662E+02  0.29999996390E+02 0.  0.
        -12    1    1    2    0    0  0.18284866231E+02  0.32903134596E+02  0.15369228185E+02  0.40659141338E+02  0.00000000000E+00 0.  1.
         11    1    3    3    0    0 -0.18538365210E+02 -0.18146089159E+02 -0.21119112558E+02  0.33450985814E+02  0.51100000000E-03 0. -1.
        -11    1    3    3    0    0  0.92555054540E+00 -0.23421896820E+01 -0.12480641573E+01  0.28107224552E+01  0.51100000000E-03 0.  1.
         12    1    3    3    0    0 -0.67205156613E+00 -0.12414855755E+02  0.69979485301E+01  0.14267150393E+02  0.00000000000E+00 0. -1.
</event>
<event>
 7    1  0.5839176E-013  0.5052885E+02  0.7816164E-02  0.1300439E+00
        -11   -1    0    0    0    0  0.00000000000E+00  0.00000000000E+00  0.45593999997E+02  0.45594000000E+02  0.51100000000E-03 0.  1.
         11   -1    0    0    0    0 -0.00000000000E+00 -0.00000000000E+00 -0.45593999997E+02  0.45594000000E+02  0.51100000000E-03 0. -1.
    9900012    2    1    2    0    0  0.31604515872E+02  0.24326564462E+02  0.79081805578E+01  0.50528849962E+02  0.29999969945E+02 0.  0.
        -12    1    1    2    0    0 -0.31604515872E+02 -0.24326564462E+02 -0.79081805578E+01  0.40659150038E+02  0.00000000000E+00 0.  1.
         11    1    3    3    0    0  0.39536043736E+01 -0.51950168119E+01  0.25963408911E+01  0.70256795758E+01  0.51100000000E-03 0. -1.
        -11    1    3    3    0    0 -0.18938399176E+01  0.11544267875E+01  0.34855437669E+00  0.22451773329E+01  0.51100000000E-03 0.  1.
         12    1    3    3    0    0  0.29544751416E+02  0.28367154487E+02  0.49632852900E+01  0.41257993053E+02  0.00000000000E+00 0. -1.
</event>
<event>
 7    1  0.5839176E-013  0.5052886E+02  0.7816164E-02  0.1300439E+00
        -11   -1    0    0    0    0  0.00000000000E+00  0.00000000000E+00  0.45593999997E+02  0.45594000000E+02  0.51100000000E-03 0. -1.
         11   -1    0    0    0    0 -0.00000000000E+00 -0.00000000000E+00 -0.45593999997E+02  0.45594000000E+02  0.51100000000E-03 0.  1.
    9900012    2    1    2    0    0  0.30766082696E+02 -0.86349658198E+00  0.26568179746E+02  0.50528860243E+02  0.30000001194E+02 0.  0.
        -12    1    1    2    0    0 -0.30766082696E+02  0.86349658198E+00 -0.26568179746E+02  0.40659139757E+02  0.00000000000E+00 0.  1.
         11    1    3    3    0    0  0.10692040945E+01  0.15581889620E+00 -0.29727869320E+01  0.31630585401E+01  0.51100000000E-03 0. -1.
        -11    1    3    3    0    0  0.19877121381E+02  0.92915709459E+01  0.12853531269E+02  0.25429245199E+02  0.51100000000E-03 0.  1.
         12    1    3    3    0    0  0.98197572200E+01 -0.10310886424E+02  0.16687435409E+02  0.21936556504E+02  0.00000000000E+00 0. -1.
</event>
<event>
 7    1  0.5839176E-013  0.5052885E+02  0.7816164E-02  0.1300439E+00
        -11   -1    0    0    0    0  0.00000000000E+00  0.00000000000E+00  0.45593999997E+02  0.45594000000E+02  0.51100000000E-03 0. -1.
         11   -1    0    0    0    0 -0.00000000000E+00 -0.00000000000E+00 -0.45593999997E+02  0.45594000000E+02  0.51100000000E-03 0.  1.
    9900012    2    1    2    0    0  0.22061703813E+02  0.78257600490E+01 -0.33244625421E+02  0.50528850786E+02  0.29999972448E+02 0.  0.
        -12    1    1    2    0    0 -0.22061703813E+02 -0.78257600490E+01  0.33244625421E+02  0.40659149214E+02  0.00000000000E+00 0.  1.
         11    1    3    3    0    0  0.16941615939E+02  0.10034343136E+02 -0.11810618087E+02  0.22960772911E+02  0.51100000000E-03 0. -1.
        -11    1    3    3    0    0  0.37996628074E+01  0.36224092566E+00 -0.23631289067E+02  0.23937553742E+02  0.51100000000E-03 0.  1.
         12    1    3    3    0    0  0.13204250660E+01 -0.25708240126E+01  0.21972817335E+01  0.36305241323E+01  0.00000000000E+00 0. -1.
</event>
<event>
 7    1  0.5839176E-013  0.5052876E+02  0.7816164E-02  0.1300439E+00
        -11   -1    0    0    0    0  0.00000000000E+00  0.00000000000E+00  0.45593999997E+02  0.45594000000E+02  0.51100000000E-03 0. -1.
         11   -1    0    0    0    0 -0.00000000000E+00 -0.00000000000E+00 -0.45593999997E+02  0.45594000000E+02  0.51100000000E-03 0.  1.
    9900012    2    1    2    0    0 -0.48652661522E+01  0.39446880639E+02  0.85701087449E+01  0.50528757867E+02  0.29999690012E+02 0.  0.
        -12    1    1    2    0    0  0.48652661522E+01 -0.39446880639E+02 -0.85701087449E+01  0.40659242133E+02  0.00000000000E+00 0.  1.
         11    1    3    3    0    0  0.79628863151E+01  0.16846921300E+02  0.14390843477E-01  0.18634015217E+02  0.51100000000E-03 0. -1.
        -11    1    3    3    0    0 -0.31002991273E+01  0.17194419154E+02  0.10802299978E+02  0.20541411583E+02  0.51100000000E-03 0.  1.
        -12    1    3    3    0    0 -0.97278533401E+01  0.54055401850E+01 -0.22465820767E+01  0.11353331067E+02  0.00000000000E+00 0.  1.
</event>
<event>
 7    1  0.5839176E-013  0.5052886E+02  0.7816164E-02  0.1300439E+00
        -11   -1    0    0    0    0  0.00000000000E+00  0.00000000000E+00  0.45593999997E+02  0.45594000000E+02  0.51100000000E-03 0. -1.
         11   -1    0    0    0    0 -0.00000000000E+00 -0.00000000000E+00 -0.45593999997E+02  0.45594000000E+02  0.51100000000E-03 0.  1.
    9900012    2    1    2    0    0  0.24095731514E+02 -0.20214341873E+02  0.25767062753E+02  0.50528863051E+02  0.30000009729E+02 0.  0.
        -12    1    1    2    0    0 -0.24095731514E+02  0.20214341873E+02 -0.25767062753E+02  0.40659136949E+02  0.00000000000E+00 0.  1.
         11    1    3    3    0    0 -0.61695495483E+00 -0.24019210987E+01  0.10818418541E+02  0.11099010694E+02  0.51100000000E-03 0. -1.
        -11    1    3    3    0    0  0.61803517048E+01 -0.10362500614E+02  0.15260052368E+02  0.19453723672E+02  0.51100000000E-03 0.  1.
        -12    1    3    3    0    0  0.18532334764E+02 -0.74499201602E+01 -0.31140815680E+00  0.19976128685E+02  0.00000000000E+00 0.  1.
</event>
<event>
 7    1  0.5839176E-013  0.5052887E+02  0.7816164E-02  0.1300439E+00
        -11   -1    0    0    0    0  0.00000000000E+00  0.00000000000E+00  0.45593999997E+02  0.45594000000E+02  0.51100000000E-03 0.  1.
         11   -1    0    0    0    0 -0.00000000000E+00 -0.00000000000E+00 -0.45593999997E+02  0.45594000000E+02  0.51100000000E-03 0. -1.
    9900012    2    1    2    0    0  0.31288749205E+00 -0.37324044970E+02 -0.16123984422E+02  0.50528866891E+02  0.30000021402E+02 0.  0.
        -12    1    1    2    0    0 -0.31288749205E+00  0.37324044970E+02  0.16123984422E+02  0.40659133109E+02  0.00000000000E+00 0.  1.
         11    1    3    3    0    0 -0.22893842968E+01 -0.36688609614E+01  0.55506448526E-01  0.43249164662E+01  0.51100000000E-03 0.  1.
        -11    1    3    3    0    0  0.10569259349E+02 -0.27745366386E+02 -0.31917748602E+01  0.29861380177E+02  0.51100000000E-03 0. -1.
         12    1    3    3    0    0 -0.79669875606E+01 -0.59098176231E+01 -0.12987716010E+02  0.16342570248E+02  0.00000000000E+00 0. -1.
</event>
<event>
 7    1  0.5839176E-013  0.5052886E+02  0.7816164E-02  0.1300439E+00
        -11   -1    0    0    0    0  0.00000000000E+00  0.00000000000E+00  0.45593999997E+02  0.45594000000E+02  0.51100000000E-03 0.  1.
         11   -1    0    0    0    0 -0.00000000000E+00 -0.00000000000E+00 -0.45593999997E+02  0.45594000000E+02  0.51100000000E-03 0. -1.
    9900012    2    1    2    0    0 -0.31732338713E+02 -0.25403484319E+02  0.94199529363E+00  0.50528859688E+02  0.29999999508E+02 0.  0.
        -12    1    1    2    0    0  0.31732338713E+02  0.25403484319E+02 -0.94199529363E+00  0.40659140312E+02  0.00000000000E+00 0.  1.
         11    1    3    3    0    0 -0.19563834525E+02 -0.12413328257E+02 -0.39195120537E+01  0.23498870500E+02  0.51100000000E-03 0. -1.
        -11    1    3    3    0    0 -0.15890959369E+02 -0.86763709858E+01 -0.18805626368E+01  0.18202706372E+02  0.51100000000E-03 0.  1.
        -12    1    3    3    0    0  0.37224551815E+01 -0.43137850761E+01  0.67420699840E+01  0.88272828170E+01  0.00000000000E+00 0.  1.
</event>
<event>
 7    1  0.5839176E-013  0.5052886E+02  0.7816164E-02  0.1300439E+00
        -11   -1    0    0    0    0  0.00000000000E+00  0.00000000000E+00  0.45593999997E+02  0.45594000000E+02  0.51100000000E-03 0.  1.
         11   -1    0    0    0    0 -0.00000000000E+00 -0.00000000000E+00 -0.45593999997E+02  0.45594000000E+02  0.51100000000E-03 0. -1.
    9900012    2    1    2    0    0 -0.22581402814E+02 -0.28061934915E+02  0.18861973412E+02  0.50528856069E+02  0.29999988507E+02 0.  0.
        -12    1    1    2    0    0  0.22581402814E+02  0.28061934915E+02 -0.18861973412E+02  0.40659143931E+02  0.00000000000E+00 0.  1.
         11    1    3    3    0    0 -0.32628039754E+01 -0.52581561459E+01 -0.38772872216E+01  0.73025647753E+01  0.51100000000E-03 0. -1.
        -11    1    3    3    0    0 -0.88059127335E+01  0.26269190300E+01  0.67300708695E+01  0.11390287829E+02  0.51100000000E-03 0.  1.
         12    1    3    3    0    0 -0.10512686105E+02 -0.25430697799E+02  0.16009189764E+02  0.31836003465E+02  0.00000000000E+00 0. -1.
</event>
<event>
 7    1  0.5839176E-013  0.5052886E+02  0.7816164E-02  0.1300439E+00
        -11   -1    0    0    0    0  0.00000000000E+00  0.00000000000E+00  0.45593999997E+02  0.45594000000E+02  0.51100000000E-03 0.  1.
         11   -1    0    0    0    0 -0.00000000000E+00 -0.00000000000E+00 -0.45593999997E+02  0.45594000000E+02  0.51100000000E-03 0. -1.
    9900012    2    1    2    0    0 -0.21156754469E+02 -0.33649602638E+02 -0.85593106546E+01  0.50528858147E+02  0.29999994823E+02 0.  0.
        -12    1    1    2    0    0  0.21156754469E+02  0.33649602638E+02  0.85593106546E+01  0.40659141853E+02  0.00000000000E+00 0.  1.
         11    1    3    3    0    0 -0.81975936653E+01 -0.99674483683E+01 -0.79473243125E+01  0.15156204435E+02  0.51100000000E-03 0. -1.
        -11    1    3    3    0    0 -0.45033664592E+01 -0.37026114959E+01 -0.10124896285E+02  0.11683456954E+02  0.51100000000E-03 0.  1.
        -12    1    3    3    0    0 -0.84557943443E+01 -0.19979542774E+02  0.95129099433E+01  0.23689196758E+02  0.00000000000E+00 0.  1.
</event>
<event>
 7    1  0.5839176E-013  0.5052888E+02  0.7816164E-02  0.1300439E+00
        -11   -1    0    0    0    0  0.00000000000E+00  0.00000000000E+00  0.45593999997E+02  0.45594000000E+02  0.51100000000E-03 0. -1.
         11   -1    0    0    0    0 -0.00000000000E+00 -0.00000000000E+00 -0.45593999997E+02  0.45594000000E+02  0.51100000000E-03 0.  1.
    9900012    2    1    2    0    0  0.32938797277E+02 -0.47751505014E-01  0.23836888659E+02  0.50528881623E+02  0.30000066181E+02 0.  0.
        -12    1    1    2    0    0 -0.32938797277E+02  0.47751505014E-01 -0.23836888659E+02  0.40659118377E+02  0.00000000000E+00 0.  1.
         11    1    3    3    0    0  0.11845696540E+02 -0.12655302040E+02  0.11298034073E+02  0.20691127819E+02  0.51100000000E-03 0. -1.
        -11    1    3    3    0    0  0.31264814752E+01 -0.10714222722E+01 -0.10686201412E+01  0.34734394147E+01  0.51100000000E-03 0.  1.
         12    1    3    3    0    0  0.17966619261E+02  0.13678972807E+02  0.13607474727E+02  0.26364314389E+02  0.00000000000E+00 0. -1.
</event>
<event>
 7    1  0.5839176E-013  0.5052886E+02  0.7816164E-02  0.1300439E+00
        -11   -1    0    0    0    0  0.00000000000E+00  0.00000000000E+00  0.45593999997E+02  0.45594000000E+02  0.51100000000E-03 0.  1.
         11   -1    0    0    0    0 -0.00000000000E+00 -0.00000000000E+00 -0.45593999997E+02  0.45594000000E+02  0.51100000000E-03 0. -1.
    9900012    2    1    2    0    0  0.34287875382E+01 -0.29983842569E+02 -0.27246625380E+02  0.50528855963E+02  0.29999988186E+02 0.  0.
        -12    1    1    2    0    0 -0.34287875382E+01  0.29983842569E+02  0.27246625380E+02  0.40659144037E+02  0.00000000000E+00 0.  1.
         11    1    3    3    0    0 -0.56375895871E+01 -0.11404692265E+02 -0.11274419308E+02  0.16998880934E+02  0.51100000000E-03 0. -1.
        -11    1    3    3    0    0 -0.40192435363E+01 -0.34051692946E+01 -0.11996768734E+02  0.13102364552E+02  0.51100000000E-03 0.  1.
        -12    1    3    3    0    0  0.13085620662E+02 -0.15173981009E+02 -0.39754373377E+01  0.20427610477E+02  0.00000000000E+00 0.  1.
</event>
<event>
 7    1  0.5839176E-013  0.5052886E+02  0.7816164E-02  0.1300439E+00
        -11   -1    0    0    0    0  0.00000000000E+00  0.00000000000E+00  0.45593999997E+02  0.45594000000E+02  0.51100000000E-03 0. -1.
         11   -1    0    0    0    0 -0.00000000000E+00 -0.00000000000E+00 -0.45593999997E+02  0.45594000000E+02  0.51100000000E-03 0.  1.
    9900012    2    1    2    0    0  0.16642197281E+02  0.31635425892E+02  0.19375313966E+02  0.50528859662E+02  0.29999999430E+02 0.  0.
        -12    1    1    2    0    0 -0.16642197281E+02 -0.31635425892E+02 -0.19375313966E+02  0.40659140338E+02  0.00000000000E+00 0.  1.
         11    1    3    3    0    0  0.55757448025E+01  0.13937924530E+02  0.21964065386E+01  0.15171646986E+02  0.51100000000E-03 0. -1.
        -11    1    3    3    0    0  0.40812263456E+01  0.19802020999E+02  0.44749287023E+01  0.20707521128E+02  0.51100000000E-03 0.  1.
        -12    1    3    3    0    0  0.69852261327E+01 -0.21045196368E+01  0.12703978725E+02  0.14649691548E+02  0.00000000000E+00 0.  1.
</event>
<event>
 7    1  0.5839176E-013  0.5052886E+02  0.7816164E-02  0.1300439E+00
        -11   -1    0    0    0    0  0.00000000000E+00  0.00000000000E+00  0.45593999997E+02  0.45594000000E+02  0.51100000000E-03 0.  1.
         11   -1    0    0    0    0 -0.00000000000E+00 -0.00000000000E+00 -0.45593999997E+02  0.45594000000E+02  0.51100000000E-03 0. -1.
    9900012    2    1    2    0    0  0.32924258125E+02 -0.13209525763E+02 -0.19866234217E+02  0.50528860733E+02  0.30000002685E+02 0.  0.
        -12    1    1    2    0    0 -0.32924258125E+02  0.13209525763E+02  0.19866234217E+02  0.40659139267E+02  0.00000000000E+00 0.  1.
         11    1    3    3    0    0  0.17316268344E+02 -0.12106799638E+01 -0.14603796332E+01  0.17419862349E+02  0.51100000000E-03 0. -1.
        -11    1    3    3    0    0  0.94512013321E+01 -0.98022792560E+00  0.14187949881E+01  0.96072385671E+01  0.51100000000E-03 0.  1.
        -12    1    3    3    0    0  0.61567884488E+01 -0.11018617874E+02 -0.19824649572E+02  0.23501759817E+02  0.00000000000E+00 0.  1.
</event>
<event>
 7    1  0.5839176E-013  0.5052886E+02  0.7816164E-02  0.1300439E+00
        -11   -1    0    0    0    0  0.00000000000E+00  0.00000000000E+00  0.45593999997E+02  0.45594000000E+02  0.51100000000E-03 0.  1.
         11   -1    0    0    0    0 -0.00000000000E+00 -0.00000000000E+00 -0.45593999997E+02  0.45594000000E+02  0.51100000000E-03 0. -1.
    9900012    2    1    2    0    0 -0.30052764116E+02 -0.15208979534E+02 -0.22774637267E+02  0.50528858444E+02  0.29999995725E+02 0.  0.
        -12    1    1    2    0    0  0.30052764116E+02  0.15208979534E+02  0.22774637267E+02  0.40659141556E+02  0.00000000000E+00 0.  1.
         11    1    3    3    0    0 -0.19366008696E+02  0.37033730811E+01 -0.18075864448E+02  0.26748722228E+02  0.51100000000E-03 0. -1.
        -11    1    3    3    0    0 -0.91592001467E+01 -0.91116079637E+01 -0.50082829658E+01  0.13856234898E+02  0.51100000000E-03 0.  1.
        -12    1    3    3    0    0 -0.15275552730E+01 -0.98007446519E+01  0.30951014749E+00  0.99239013183E+01  0.00000000000E+00 0.  1.
</event>
<event>
 7    1  0.5839176E-013  0.5052886E+02  0.7816164E-02  0.1300439E+00
        -11   -1    0    0    0    0  0.00000000000E+00  0.00000000000E+00  0.45593999997E+02  0.45594000000E+02  0.51100000000E-03 0.  1.
         11   -1    0    0    0    0 -0.00000000000E+00 -0.00000000000E+00 -0.45593999997E+02  0.45594000000E+02  0.51100000000E-03 0. -1.
    9900012    2    1    2    0    0  0.35682349231E+02  0.56290101850E+01 -0.18661464011E+02  0.50528855379E+02  0.29999986409E+02 0.  0.
        -12    1    1    2    0    0 -0.35682349231E+02 -0.56290101850E+01  0.18661464011E+02  0.40659144621E+02  0.00000000000E+00 0.  1.
         11    1    3    3    0    0  0.22598289177E+02  0.49463699474E+01 -0.32097875080E+01  0.23354913519E+02  0.51100000000E-03 0. -1.
        -11    1    3    3    0    0  0.32996009792E+00  0.64185252112E+01 -0.12799410626E+00  0.64282752201E+01  0.51100000000E-03 0.  1.
        -12    1    3    3    0    0  0.12754099956E+02 -0.57358849736E+01 -0.15323682397E+02  0.20745666639E+02  0.00000000000E+00 0.  1.
</event>
<event>
 7    1  0.5839176E-013  0.5052885E+02  0.7816164E-02  0.1300439E+00
        -11   -1    0    0    0    0  0.00000000000E+00  0.00000000000E+00  0.45593999997E+02  0.45594000000E+02  0.51100000000E-03 0.  1.
         11   -1    0    0    0    0 -0.00000000000E+00 -0.00000000000E+00 -0.45593999997E+02  0.45594000000E+02  0.51100000000E-03 0. -1.
    9900012    2    1    2    0    0 -0.10869621409E+02  0.13873925073E+02 -0.36640580754E+02  0.50528848207E+02  0.29999964611E+02 0.  0.
        -12    1    1    2    0    0  0.10869621409E+02 -0.13873925073E+02  0.36640580754E+02  0.40659151793E+02  0.00000000000E+00 0.  1.
         11    1    3    3    0    0 -0.65586899774E+01  0.10306602557E+02 -0.47197371588E+01  0.13096502953E+02  0.51100000000E-03 0. -1.
        -11    1    3    3    0    0  0.13061700182E+01 -0.40529411277E+01 -0.12816195840E+00  0.42601452616E+01  0.51100000000E-03 0.  1.
         12    1    3    3    0    0 -0.56171014499E+01  0.76202636437E+01 -0.31792681637E+02  0.33172199993E+02  0.00000000000E+00 0. -1.
</event>
<event>
 7    1  0.5839176E-013  0.5052886E+02  0.7816164E-02  0.1300439E+00
        -11   -1    0    0    0    0  0.00000000000E+00  0.00000000000E+00  0.45593999997E+02  0.45594000000E+02  0.51100000000E-03 0.  1.
         11   -1    0    0    0    0 -0.00000000000E+00 -0.00000000000E+00 -0.45593999997E+02  0.45594000000E+02  0.51100000000E-03 0. -1.
    9900012    2    1    2    0    0  0.11273877998E+02 -0.27793743578E+02 -0.27451287839E+02  0.50528859438E+02  0.29999998749E+02 0.  0.
        -12    1    1    2    0    0 -0.11273877998E+02  0.27793743578E+02  0.27451287839E+02  0.40659140562E+02  0.00000000000E+00 0.  1.
         11    1    3    3    0    0 -0.49621499016E+01 -0.57747759921E+01 -0.39273486944E+01  0.85670903715E+01  0.51100000000E-03 0. -1.
        -11    1    3    3    0    0 -0.17054185674E+01  0.31228188890E+01 -0.88513422331E+00  0.36665942178E+01  0.51100000000E-03 0.  1.
        -12    1    3    3    0    0  0.17941446467E+02 -0.25141786475E+02 -0.22638804921E+02  0.38295174849E+02  0.00000000000E+00 0.  1.
</event>
<event>
 7    1  0.5839176E-013  0.5052886E+02  0.7816164E-02  0.1300439E+00
        -11   -1    0    0    0    0  0.00000000000E+00  0.00000000000E+00  0.45593999997E+02  0.45594000000E+02  0.51100000000E-03 0.  1.
         11   -1    0    0    0    0 -0.00000000000E+00 -0.00000000000E+00 -0.45593999997E+02  0.45594000000E+02  0.51100000000E-03 0. -1.
    9900012    2    1    2    0    0 -0.35876652840E+02  0.80190751023E+01 -0.17370249388E+02  0.50528863901E+02  0.30000012314E+02 0.  0.
        -12    1    1    2    0    0  0.35876652840E+02 -0.80190751023E+01  0.17370249388E+02  0.40659136099E+02  0.00000000000E+00 0.  1.
         11    1    3    3    0    0 -0.44255458641E+01 -0.76788501089E+01 -0.99982747643E+01  0.13360976525E+02  0.51100000000E-03 0.  1.
        -11    1    3    3    0    0 -0.11319156263E+02  0.42696735814E+01 -0.70787783026E+01  0.14016508607E+02  0.51100000000E-03 0. -1.
        -12    1    3    3    0    0 -0.20131950713E+02  0.11428251630E+02 -0.29319632080E+00  0.23151378769E+02  0.00000000000E+00 0.  1.
</event>
<event>
 7    1  0.5839176E-013  0.5052882E+02  0.7816164E-02  0.1300439E+00
        -11   -1    0    0    0    0  0.00000000000E+00  0.00000000000E+00  0.45593999997E+02  0.45594000000E+02  0.51100000000E-03 0. -1.
         11   -1    0    0    0    0 -0.00000000000E+00 -0.00000000000E+00 -0.45593999997E+02  0.45594000000E+02  0.51100000000E-03 0.  1.
    9900012    2    1    2    0    0 -0.17214789369E+02 -0.22088928169E+02  0.29477094316E+02  0.50528821331E+02  0.29999882918E+02 0.  0.
        -12    1    1    2    0    0  0.17214789369E+02  0.22088928169E+02 -0.29477094316E+02  0.40659178669E+02  0.00000000000E+00 0.  1.
         11    1    3    3    0    0 -0.92690674555E+01 -0.10058951061E+02  0.85511428134E+01  0.16131340664E+02  0.51100000000E-03 0. -1.
        -11    1    3    3    0    0 -0.11082304181E+02 -0.43729429908E+01  0.22968505462E+02  0.25874550040E+02  0.51100000000E-03 0.  1.
        -12    1    3    3    0    0  0.31365822672E+01 -0.76570341177E+01 -0.20425539595E+01  0.85229306272E+01  0.00000000000E+00 0.  1.
</event>
<event>
 7    1  0.5839176E-013  0.5052887E+02  0.7816164E-02  0.1300439E+00
        -11   -1    0    0    0    0  0.00000000000E+00  0.00000000000E+00  0.45593999997E+02  0.45594000000E+02  0.51100000000E-03 0.  1.
         11   -1    0    0    0    0 -0.00000000000E+00 -0.00000000000E+00 -0.45593999997E+02  0.45594000000E+02  0.51100000000E-03 0. -1.
    9900012    2    1    2    0    0 -0.40476174229E+02 -0.27805874747E+00 -0.38427515816E+01  0.50528871424E+02  0.30000035179E+02 0.  0.
        -12    1    1    2    0    0  0.40476174229E+02  0.27805874747E+00  0.38427515816E+01  0.40659128576E+02  0.00000000000E+00 0.  1.
         11    1    3    3    0    0 -0.56115922973E+01 -0.77771398496E+01 -0.23396956394E+01  0.98715778018E+01  0.51100000000E-03 0. -1.
        -11    1    3    3    0    0 -0.37089510065E+01 -0.44502741192E+01  0.37166880303E+01  0.68829519452E+01  0.51100000000E-03 0.  1.
        -12    1    3    3    0    0 -0.31155630925E+02  0.11949355221E+02 -0.52197439724E+01  0.33774341677E+02  0.00000000000E+00 0.  1.
</event>
<event>
 7    1  0.5839176E-013  0.5052886E+02  0.7816164E-02  0.1300439E+00
        -11   -1    0    0    0    0  0.00000000000E+00  0.00000000000E+00  0.45593999997E+02  0.45594000000E+02  0.51100000000E-03 0.  1.
         11   -1    0    0    0    0 -0.00000000000E+00 -0.00000000000E+00 -0.45593999997E+02  0.45594000000E+02  0.51100000000E-03 0. -1.
    9900012    2    1    2    0    0  0.82051505546E+01 -0.34206805084E+02  0.20389594769E+02  0.50528860996E+02  0.30000003485E+02 0.  0.
        -12    1    1    2    0    0 -0.82051505546E+01  0.34206805084E+02 -0.20389594769E+02  0.40659139004E+02  0.00000000000E+00 0.  1.
         11    1    3    3    0    0 -0.37317194246E+01 -0.74035439462E+01  0.77462368376E+01  0.11346469858E+02  0.51100000000E-03 0. -1.
        -11    1    3    3    0    0 -0.27820414446E+01 -0.14320532894E+02  0.13483035845E+02  0.19864784742E+02  0.51100000000E-03 0.  1.
         12    1    3    3    0    0  0.14718911424E+02 -0.12482728244E+02 -0.83967791402E+00  0.19317606397E+02  0.00000000000E+00 0. -1.
</event>
<event>
 7    1  0.5839176E-013  0.5052886E+02  0.7816164E-02  0.1300439E+00
        -11   -1    0    0    0    0  0.00000000000E+00  0.00000000000E+00  0.45593999997E+02  0.45594000000E+02  0.51100000000E-03 0.  1.
         11   -1    0    0    0    0 -0.00000000000E+00 -0.00000000000E+00 -0.45593999997E+02  0.45594000000E+02  0.51100000000E-03 0. -1.
    9900012    2    1    2    0    0 -0.18772985532E+02 -0.17477567067E+02 -0.31547981944E+02  0.50528862023E+02  0.30000006604E+02 0.  0.
        -12    1    1    2    0    0  0.18772985532E+02  0.17477567067E+02  0.31547981944E+02  0.40659137977E+02  0.00000000000E+00 0.  1.
         11    1    3    3    0    0  0.11245361320E+01  0.22069029904E+01  0.16609202722E+01  0.29822237899E+01  0.51100000000E-03 0. -1.
        -11    1    3    3    0    0  0.23418980066E+01 -0.69586375426E+01 -0.29917799887E+01  0.79282955599E+01  0.51100000000E-03 0.  1.
         12    1    3    3    0    0 -0.22239419670E+02 -0.12725832514E+02 -0.30217122227E+02  0.39618342673E+02  0.00000000000E+00 0. -1.
</event>
<event>
 7    1  0.5839176E-013  0.5052886E+02  0.7816164E-02  0.1300439E+00
        -11   -1    0    0    0    0  0.00000000000E+00  0.00000000000E+00  0.45593999997E+02  0.45594000000E+02  0.51100000000E-03 0.  1.
         11   -1    0    0    0    0 -0.00000000000E+00 -0.00000000000E+00 -0.45593999997E+02  0.45594000000E+02  0.51100000000E-03 0. -1.
    9900012    2    1    2    0    0  0.17947949161E+02 -0.26552153630E+02  0.25020382244E+02  0.50528864875E+02  0.30000015273E+02 0.  0.
        -12    1    1    2    0    0 -0.17947949161E+02  0.26552153630E+02 -0.25020382244E+02  0.40659135125E+02  0.00000000000E+00 0.  1.
         11    1    3    3    0    0  0.11076942499E+02  0.13936891186E+01  0.57673608469E+01  0.12565964980E+02  0.51100000000E-03 0. -1.
        -11    1    3    3    0    0  0.72552459333E+01 -0.64438537759E+01  0.11629547293E+02  0.15146227766E+02  0.51100000000E-03 0.  1.
         12    1    3    3    0    0 -0.38423927115E+00 -0.21501988973E+02  0.76234741044E+01  0.22816672129E+02  0.00000000000E+00 0. -1.
</event>
<event>
 7    1  0.5839176E-013  0.5052886E+02  0.7816164E-02  0.1300439E+00
        -11   -1    0    0    0    0  0.00000000000E+00  0.00000000000E+00  0.45593999997E+02  0.45594000000E+02  0.51100000000E-03 0. -1.
         11   -1    0    0    0    0 -0.00000000000E+00 -0.00000000000E+00 -0.45593999997E+02  0.45594000000E+02  0.51100000000E-03 0.  1.
    9900012    2    1    2    0    0 -0.12638407833E+02  0.26508918202E+02  0.28119624345E+02  0.50528863633E+02  0.30000011500E+02 0.  0.
        -12    1    1    2    0    0  0.12638407833E+02 -0.26508918202E+02 -0.28119624345E+02  0.40659136367E+02  0.00000000000E+00 0.  1.
         11    1    3    3    0    0 -0.67686417656E+01  0.88992835794E+01  0.72690335804E+01  0.13336064226E+02  0.51100000000E-03 0. -1.
        -11    1    3    3    0    0 -0.11831461028E+02  0.20077520163E+02  0.11921942546E+02  0.26176764511E+02  0.51100000000E-03 0.  1.
         12    1    3    3    0    0  0.59616949599E+01 -0.24678855404E+01  0.89286482187E+01  0.11016034897E+02  0.00000000000E+00 0. -1.
</event>
<event>
 7    1  0.9723489E-013  0.5052886E+02  0.7816164E-02  0.1300439E+00
        -11   -1    0    0    0    0  0.00000000000E+00  0.00000000000E+00  0.45593999997E+02  0.45594000000E+02  0.51100000000E-03 0.  1.
         11   -1    0    0    0    0 -0.00000000000E+00 -0.00000000000E+00 -0.45593999997E+02  0.45594000000E+02  0.51100000000E-03 0. -1.
    9900012    2    1    2    0    0 -0.27831205217E+02 -0.29202945429E+02  0.50771452877E+01  0.50528863145E+02  0.30000010015E+02 0.  0.
        -12    1    1    2    0    0  0.27831205217E+02  0.29202945429E+02 -0.50771452877E+01  0.40659136855E+02  0.00000000000E+00 0.  1.
         11    1    3    3    0    0 -0.20915644928E+02 -0.19375628034E+02 -0.69630726470E+00  0.28519537313E+02  0.51100000000E-03 0. -1.
        -11    1    3    3    0    0 -0.48541103356E+01 -0.11964579964E+02 -0.25595941751E+01  0.13163019543E+02  0.51100000000E-03 0.  1.
        -12    1    3    3    0    0 -0.20614499530E+01  0.21372625701E+01  0.83330467275E+01  0.88463062893E+01  0.00000000000E+00 0.  1.
</event>
<event>
 7    1  0.5839176E-013  0.5052887E+02  0.7816164E-02  0.1300439E+00
        -11   -1    0    0    0    0  0.00000000000E+00  0.00000000000E+00  0.45593999997E+02  0.45594000000E+02  0.51100000000E-03 0.  1.
         11   -1    0    0    0    0 -0.00000000000E+00 -0.00000000000E+00 -0.45593999997E+02  0.45594000000E+02  0.51100000000E-03 0. -1.
    9900012    2    1    2    0    0  0.40632962622E+02 -0.26441221978E+00 -0.14344622713E+01  0.50528865144E+02  0.30000016091E+02 0.  0.
        -12    1    1    2    0    0 -0.40632962622E+02  0.26441221978E+00  0.14344622713E+01  0.40659134856E+02  0.00000000000E+00 0.  1.
         11    1    3    3    0    0  0.37628102006E+02  0.54769279603E-01  0.45577885417E+01  0.37903172650E+02  0.51100000000E-03 0. -1.
        -11    1    3    3    0    0  0.67164203961E+01  0.15906627223E+01 -0.32316978178E+01  0.76213110342E+01  0.51100000000E-03 0.  1.
        -12    1    3    3    0    0 -0.37115597806E+01 -0.19098442216E+01 -0.27605529952E+01  0.50043814598E+01  0.00000000000E+00 0.  1.
</event>
<event>
 7    1  0.5839176E-013  0.5052887E+02  0.7816164E-02  0.1300439E+00
        -11   -1    0    0    0    0  0.00000000000E+00  0.00000000000E+00  0.45593999997E+02  0.45594000000E+02  0.51100000000E-03 0.  1.
         11   -1    0    0    0    0 -0.00000000000E+00 -0.00000000000E+00 -0.45593999997E+02  0.45594000000E+02  0.51100000000E-03 0. -1.
    9900012    2    1    2    0    0  0.36936245178E+02 -0.12899161794E+01 -0.16947422649E+02  0.50528865405E+02  0.30000016885E+02 0.  0.
        -12    1    1    2    0    0 -0.36936245178E+02  0.12899161794E+01  0.16947422649E+02  0.40659134595E+02  0.00000000000E+00 0.  1.
         11    1    3    3    0    0  0.11395525089E+02 -0.75503550997E+01 -0.11188253982E+02  0.17664735538E+02  0.51100000000E-03 0. -1.
        -11    1    3    3    0    0  0.13640980408E+02  0.84371675778E+01 -0.11237525468E+02  0.19584282528E+02  0.51100000000E-03 0.  1.
         12    1    3    3    0    0  0.11899739681E+02 -0.21767286576E+01  0.54783568012E+01  0.13279847340E+02  0.00000000000E+00 0. -1.
</event>
<event>
 7    1  0.5839176E-013  0.5052886E+02  0.7816164E-02  0.1300439E+00
        -11   -1    0    0    0    0  0.00000000000E+00  0.00000000000E+00  0.45593999997E+02  0.45594000000E+02  0.51100000000E-03 0.  1.
         11   -1    0    0    0    0 -0.00000000000E+00 -0.00000000000E+00 -0.45593999997E+02  0.45594000000E+02  0.51100000000E-03 0. -1.
    9900012    2    1    2    0    0 -0.31249043447E+02 -0.31210142068E+00 -0.26010876080E+02  0.50528858370E+02  0.29999995501E+02 0.  0.
        -12    1    1    2    0    0  0.31249043447E+02  0.31210142068E+00  0.26010876080E+02  0.40659141630E+02  0.00000000000E+00 0.  1.
         11    1    3    3    0    0 -0.14347000523E+02  0.10903406719E+01 -0.15116981882E+02  0.20869796556E+02  0.51100000000E-03 0. -1.
        -11    1    3    3    0    0  0.41909698738E+01 -0.46283852595E+01 -0.26717387227E+01  0.67914922261E+01  0.51100000000E-03 0.  1.
         12    1    3    3    0    0 -0.21093012798E+02  0.32259431670E+01 -0.82221554748E+01  0.22867569588E+02  0.00000000000E+00 0. -1.
</event>
<event>
 7    1  0.5839176E-013  0.5052882E+02  0.7816164E-02  0.1300439E+00
        -11   -1    0    0    0    0  0.00000000000E+00  0.00000000000E+00  0.45593999997E+02  0.45594000000E+02  0.51100000000E-03 0.  1.
         11   -1    0    0    0    0 -0.00000000000E+00 -0.00000000000E+00 -0.45593999997E+02  0.45594000000E+02  0.51100000000E-03 0. -1.
    9900012    2    1    2    0    0 -0.39990998274E+02 -0.71933701071E+01 -0.14645038666E+01  0.50528815453E+02  0.29999865050E+02 0.  0.
        -12    1    1    2    0    0  0.39990998274E+02  0.71933701071E+01  0.14645038666E+01  0.40659184547E+02  0.00000000000E+00 0.  1.
         11    1    3    3    0    0 -0.15967870828E+01  0.25795304451E+01  0.57469645123E+01  0.64985619695E+01  0.51100000000E-03 0. -1.
        -11    1    3    3    0    0  0.13736353214E+01  0.14619011600E+01 -0.10008302571E+01  0.22418051794E+01  0.51100000000E-03 0.  1.
         12    1    3    3    0    0 -0.39767846513E+02 -0.11234801712E+02 -0.62106381218E+01  0.41788448304E+02  0.00000000000E+00 0. -1.
</event>
<event>
 7    1  0.5839176E-013  0.5052886E+02  0.7816164E-02  0.1300439E+00
        -11   -1    0    0    0    0  0.00000000000E+00  0.00000000000E+00  0.45593999997E+02  0.45594000000E+02  0.51100000000E-03 0.  1.
         11   -1    0    0    0    0 -0.00000000000E+00 -0.00000000000E+00 -0.45593999997E+02  0.45594000000E+02  0.51100000000E-03 0. -1.
    9900012    2    1    2    0    0  0.89298934927E+00 -0.22755049287E+02 -0.33683464473E+02  0.50528862319E+02  0.30000007506E+02 0.  0.
        -12    1    1    2    0    0 -0.89298934927E+00  0.22755049287E+02  0.33683464473E+02  0.40659137681E+02  0.00000000000E+00 0.  1.
         11    1    3    3    0    0 -0.58342865911E+01 -0.96258079237E+01 -0.15829542058E+02  0.19423426068E+02  0.51100000000E-03 0. -1.
        -11    1    3    3    0    0 -0.49941209463E+01 -0.12550987071E+02 -0.11611728994E+02  0.17812938303E+02  0.51100000000E-03 0.  1.
        -12    1    3    3    0    0  0.11721396887E+02 -0.57825429210E+00 -0.62421934209E+01  0.13292497948E+02  0.00000000000E+00 0.  1.
</event>
<event>
 7    1  0.5839176E-013  0.5052886E+02  0.7816164E-02  0.1300439E+00
        -11   -1    0    0    0    0  0.00000000000E+00  0.00000000000E+00  0.45593999997E+02  0.45594000000E+02  0.51100000000E-03 0. -1.
         11   -1    0    0    0    0 -0.00000000000E+00 -0.00000000000E+00 -0.45593999997E+02  0.45594000000E+02  0.51100000000E-03 0.  1.
    9900012    2    1    2    0    0  0.22057189689E+02  0.34137999390E+02 -0.11149720845E+01  0.50528858567E+02  0.29999996101E+02 0.  0.
        -12    1    1    2    0    0 -0.22057189689E+02 -0.34137999390E+02  0.11149720845E+01  0.40659141433E+02  0.00000000000E+00 0.  1.
         11    1    3    3    0    0 -0.42300821167E+01  0.19015910076E+01 -0.24376142908E+01  0.52394280953E+01  0.51100000000E-03 0. -1.
        -11    1    3    3    0    0  0.14129758309E+02  0.11262029395E+02 -0.73991414870E+01  0.19525129217E+02  0.51100000000E-03 0.  1.
         12    1    3    3    0    0  0.12157513497E+02  0.20974378987E+02  0.87217836933E+01  0.25764301255E+02  0.00000000000E+00 0. -1.
</event>
<event>
 7    1  0.5839176E-013  0.5052886E+02  0.7816164E-02  0.1300439E+00
        -11   -1    0    0    0    0  0.00000000000E+00  0.00000000000E+00  0.45593999997E+02  0.45594000000E+02  0.51100000000E-03 0.  1.
         11   -1    0    0    0    0 -0.00000000000E+00 -0.00000000000E+00 -0.45593999997E+02  0.45594000000E+02  0.51100000000E-03 0. -1.
    9900012    2    1    2    0    0 -0.13353266726E+02 -0.36468023179E+02 -0.12039067662E+02  0.50528860843E+02  0.30000003017E+02 0.  0.
        -12    1    1    2    0    0  0.13353266726E+02  0.36468023179E+02  0.12039067662E+02  0.40659139157E+02  0.00000000000E+00 0.  1.
         11    1    3    3    0    0  0.43197202726E+01 -0.13019970955E+02 -0.38945835460E+01  0.14259993273E+02  0.51100000000E-03 0. -1.
        -11    1    3    3    0    0 -0.98535117512E+01 -0.19278297550E+01  0.34335764552E+01  0.10611204876E+02  0.51100000000E-03 0.  1.
         12    1    3    3    0    0 -0.78194752478E+01 -0.21520222469E+02 -0.11578060571E+02  0.25657662693E+02  0.00000000000E+00 0. -1.
</event>
<event>
 7    1  0.5839176E-013  0.5052884E+02  0.7816164E-02  0.1300439E+00
        -11   -1    0    0    0    0  0.00000000000E+00  0.00000000000E+00  0.45593999997E+02  0.45594000000E+02  0.51100000000E-03 0.  1.
         11   -1    0    0    0    0 -0.00000000000E+00 -0.00000000000E+00 -0.45593999997E+02  0.45594000000E+02  0.51100000000E-03 0. -1.
    9900012    2    1    2    0    0 -0.13242512962E+02 -0.31753613546E+02 -0.21668212175E+02  0.50528836929E+02  0.29999930329E+02 0.  0.
        -12    1    1    2    0    0  0.13242512962E+02  0.31753613546E+02  0.21668212175E+02  0.40659163071E+02  0.00000000000E+00 0.  1.
         11    1    3    3    0    0 -0.15541681389E+01 -0.23453279781E+01  0.18934387717E+01  0.33913290274E+01  0.51100000000E-03 0. -1.
        -11    1    3    3    0    0 -0.13823130841E+02 -0.58375377173E+01 -0.20308583703E+01  0.15142000490E+02  0.51100000000E-03 0.  1.
         12    1    3    3    0    0  0.21347860177E+01 -0.23570747850E+02 -0.21530792576E+02  0.31995507412E+02  0.00000000000E+00 0. -1.
</event>
<event>
 7    1  0.5839176E-013  0.5052887E+02  0.7816164E-02  0.1300439E+00
        -11   -1    0    0    0    0  0.00000000000E+00  0.00000000000E+00  0.45593999997E+02  0.45594000000E+02  0.51100000000E-03 0.  1.
         11   -1    0    0    0    0 -0.00000000000E+00 -0.00000000000E+00 -0.45593999997E+02  0.45594000000E+02  0.51100000000E-03 0. -1.
    9900012    2    1    2    0    0 -0.19510029970E+02 -0.35627125089E+02 -0.17977530019E+01  0.50528865388E+02  0.30000016833E+02 0.  0.
        -12    1    1    2    0    0  0.19510029970E+02  0.35627125089E+02  0.17977530019E+01  0.40659134612E+02  0.00000000000E+00 0.  1.
         11    1    3    3    0    0  0.46395751902E+01 -0.78852366910E+01 -0.48164203301E+01  0.10339270800E+02  0.51100000000E-03 0. -1.
        -11    1    3    3    0    0 -0.40196531465E+00 -0.62725949000E+01 -0.39534514959E+01  0.74254159402E+01  0.51100000000E-03 0.  1.
        -12    1    3    3    0    0 -0.23747639845E+02 -0.21469293498E+02  0.69721188241E+01  0.32764178648E+02  0.00000000000E+00 0.  1.
</event>
<event>
 7    1  0.6008033E-013  0.5052884E+02  0.7816164E-02  0.1300439E+00
        -11   -1    0    0    0    0  0.00000000000E+00  0.00000000000E+00  0.45593999997E+02  0.45594000000E+02  0.51100000000E-03 0.  1.
         11   -1    0    0    0    0 -0.00000000000E+00 -0.00000000000E+00 -0.45593999997E+02  0.45594000000E+02  0.51100000000E-03 0. -1.
    9900012    2    1    2    0    0 -0.13589275608E+02 -0.15951231321E+02 -0.34843324317E+02  0.50528838158E+02  0.29999934065E+02 0.  0.
        -12    1    1    2    0    0  0.13589275608E+02  0.15951231321E+02  0.34843324317E+02  0.40659161842E+02  0.00000000000E+00 0.  1.
         11    1    3    3    0    0 -0.88721890013E+01 -0.62817393774E+01 -0.21720618694E+02  0.24289118222E+02  0.51100000000E-03 0. -1.
        -11    1    3    3    0    0  0.15497077077E+01 -0.75296452754E+01 -0.16935383839E+02  0.18598504724E+02  0.51100000000E-03 0.  1.
        -12    1    3    3    0    0 -0.62667943143E+01 -0.21398466681E+01  0.38126782155E+01  0.76412152120E+01  0.00000000000E+00 0.  1.
</event>
<event>
 7    1  0.5839176E-013  0.5052885E+02  0.7816164E-02  0.1300439E+00
        -11   -1    0    0    0    0  0.00000000000E+00  0.00000000000E+00  0.45593999997E+02  0.45594000000E+02  0.51100000000E-03 0. -1.
         11   -1    0    0    0    0 -0.00000000000E+00 -0.00000000000E+00 -0.45593999997E+02  0.45594000000E+02  0.51100000000E-03 0.  1.
    9900012    2    1    2    0    0 -0.14942800611E+02 -0.49802525286E+01  0.37484345327E+02  0.50528851584E+02  0.29999974874E+02 0.  0.
        -12    1    1    2    0    0  0.14942800611E+02  0.49802525286E+01 -0.37484345327E+02  0.40659148416E+02  0.00000000000E+00 0.  1.
         11    1    3    3    0    0  0.25752590122E+01  0.21569696607E+01  0.34220621721E+01  0.47953088397E+01  0.51100000000E-03 0. -1.
        -11    1    3    3    0    0 -0.77066056667E+01  0.70297749877E+01  0.41783539728E+01  0.11236910139E+02  0.51100000000E-03 0.  1.
         12    1    3    3    0    0 -0.98114539563E+01 -0.14166997177E+02  0.29883929182E+02  0.34496632605E+02  0.00000000000E+00 0. -1.
</event>
<event>
 7    1  0.5839176E-013  0.5052886E+02  0.7816164E-02  0.1300439E+00
        -11   -1    0    0    0    0  0.00000000000E+00  0.00000000000E+00  0.45593999997E+02  0.45594000000E+02  0.51100000000E-03 0.  1.
         11   -1    0    0    0    0 -0.00000000000E+00 -0.00000000000E+00 -0.45593999997E+02  0.45594000000E+02  0.51100000000E-03 0. -1.
    9900012    2    1    2    0    0 -0.16860776420E+02  0.36828777898E+02  0.35384615325E+01  0.50528863598E+02  0.30000011393E+02 0.  0.
        -12    1    1    2    0    0  0.16860776420E+02 -0.36828777898E+02 -0.35384615325E+01  0.40659136402E+02  0.00000000000E+00 0.  1.
         11    1    3    3    0    0 -0.67028213908E+01  0.21376460853E+02  0.81518368101E+01  0.23839742801E+02  0.51100000000E-03 0. -1.
        -11    1    3    3    0    0 -0.67533576233E+01 -0.24241823139E+01  0.17941808777E+01  0.73961871503E+01  0.51100000000E-03 0.  1.
         12    1    3    3    0    0 -0.34045974058E+01  0.17876499359E+02 -0.64075561553E+01  0.19292933647E+02  0.00000000000E+00 0. -1.
</event>
<event>
 7    1  0.5839176E-013  0.5052891E+02  0.7816164E-02  0.1300439E+00
        -11   -1    0    0    0    0  0.00000000000E+00  0.00000000000E+00  0.45593999997E+02  0.45594000000E+02  0.51100000000E-03 0.  1.
         11   -1    0    0    0    0 -0.00000000000E+00 -0.00000000000E+00 -0.45593999997E+02  0.45594000000E+02  0.51100000000E-03 0. -1.
    9900012    2    1    2    0    0 -0.31188075496E+02  0.20829030192E+02 -0.15704037253E+02  0.50528913218E+02  0.30000162218E+02 0.  0.
        -12    1    1    2    0    0  0.31188075496E+02 -0.20829030192E+02  0.15704037253E+02  0.40659086782E+02  0.00000000000E+00 0.  1.
         11    1    3    3    0    0 -0.57876098253E+01  0.17740140978E+01 -0.22993861850E+01  0.64753942426E+01  0.51100000000E-03 0. -1.
        -11    1    3    3    0    0 -0.44025338046E+01 -0.64532112666E+01 -0.68082136485E+01  0.10362336266E+02  0.51100000000E-03 0.  1.
         12    1    3    3    0    0 -0.20997931866E+02  0.25508227361E+02 -0.65964374194E+01  0.33691182709E+02  0.00000000000E+00 0. -1.
</event>
<event>
 7    1  0.5839176E-013  0.5052887E+02  0.7816164E-02  0.1300439E+00
        -11   -1    0    0    0    0  0.00000000000E+00  0.00000000000E+00  0.45593999997E+02  0.45594000000E+02  0.51100000000E-03 0. -1.
         11   -1    0    0    0    0 -0.00000000000E+00 -0.00000000000E+00 -0.45593999997E+02  0.45594000000E+02  0.51100000000E-03 0.  1.
    9900012    2    1    2    0    0 -0.53684609531E+01  0.23826740410E+01  0.40232669700E+02  0.50528865482E+02  0.30000017118E+02 0.  0.
        -12    1    1    2    0    0  0.53684609531E+01 -0.23826740410E+01 -0.40232669700E+02  0.40659134518E+02  0.00000000000E+00 0.  1.
         11    1    3    3    0    0 -0.63629187304E+01  0.76635585660E+00  0.27421818789E+02  0.28160791574E+02  0.51100000000E-03 0. -1.
        -11    1    3    3    0    0 -0.80708627924E+00 -0.62010539194E+00 -0.46054599634E+01  0.47165857031E+01  0.51100000000E-03 0.  1.
         12    1    3    3    0    0  0.18015440566E+01  0.22364235764E+01  0.17416310874E+02  0.17651488205E+02  0.00000000000E+00 0. -1.
</event>
<event>
 7    1  0.5839176E-013  0.5052886E+02  0.7816164E-02  0.1300439E+00
        -11   -1    0    0    0    0  0.00000000000E+00  0.00000000000E+00  0.45593999997E+02  0.45594000000E+02  0.51100000000E-03 0.  1.
         11   -1    0    0    0    0 -0.00000000000E+00 -0.00000000000E+00 -0.45593999997E+02  0.45594000000E+02  0.51100000000E-03 0. -1.
    9900012    2    1    2    0    0 -0.13537493748E+02  0.23715985898E+02 -0.30123972233E+02  0.50528862931E+02  0.30000009366E+02 0.  0.
        -12    1    1    2    0    0  0.13537493748E+02 -0.23715985898E+02  0.30123972233E+02  0.40659137069E+02  0.00000000000E+00 0.  1.
         11    1    3    3    0    0 -0.89891466373E+00  0.13788805090E+01  0.14699304778E+01  0.22068200881E+01  0.51100000000E-03 0. -1.
        -11    1    3    3    0    0 -0.82313443886E+01 -0.31537412425E+01 -0.20442082889E+01  0.90487514088E+01  0.51100000000E-03 0.  1.
         12    1    3    3    0    0 -0.44072346956E+01  0.25490846632E+02 -0.29549694422E+02  0.39273291434E+02  0.00000000000E+00 0. -1.
</event>
<event>
 7    1  0.5839176E-013  0.5052886E+02  0.7816164E-02  0.1300439E+00
        -11   -1    0    0    0    0  0.00000000000E+00  0.00000000000E+00  0.45593999997E+02  0.45594000000E+02  0.51100000000E-03 0.  1.
         11   -1    0    0    0    0 -0.00000000000E+00 -0.00000000000E+00 -0.45593999997E+02  0.45594000000E+02  0.51100000000E-03 0. -1.
    9900012    2    1    2    0    0 -0.33293440439E+01  0.62922471107E+01 -0.40031101963E+02  0.50528855520E+02  0.29999986838E+02 0.  0.
        -12    1    1    2    0    0  0.33293440439E+01 -0.62922471107E+01  0.40031101963E+02  0.40659144480E+02  0.00000000000E+00 0.  1.
         11    1    3    3    0    0  0.11541621626E+01  0.18049714591E+01 -0.29243697173E+02  0.29322070814E+02  0.51100000000E-03 0. -1.
        -11    1    3    3    0    0 -0.37434785517E+00 -0.64487879948E+01 -0.27175060201E+01  0.70079841715E+01  0.51100000000E-03 0.  1.
        -12    1    3    3    0    0 -0.41091583513E+01  0.10936063646E+02 -0.80698987706E+01  0.14198800534E+02  0.00000000000E+00 0.  1.
</event>
<event>
 7    1  0.5839176E-013  0.5052884E+02  0.7816164E-02  0.1300439E+00
        -11   -1    0    0    0    0  0.00000000000E+00  0.00000000000E+00  0.45593999997E+02  0.45594000000E+02  0.51100000000E-03 0.  1.
         11   -1    0    0    0    0 -0.00000000000E+00 -0.00000000000E+00 -0.45593999997E+02  0.45594000000E+02  0.51100000000E-03 0. -1.
    9900012    2    1    2    0    0  0.36601390368E+02 -0.83643529042E+01 -0.15605874171E+02  0.50528837625E+02  0.29999932446E+02 0.  0.
        -12    1    1    2    0    0 -0.36601390368E+02  0.83643529042E+01  0.15605874171E+02  0.40659162375E+02  0.00000000000E+00 0.  1.
         11    1    3    3    0    0  0.30495137180E+02  0.11779707551E+01 -0.10930684397E+02  0.32416367291E+02  0.51100000000E-03 0. -1.
        -11    1    3    3    0    0  0.78625669927E+01 -0.80080492196E+00 -0.47020447622E+01  0.91962206065E+01  0.51100000000E-03 0.  1.
        -12    1    3    3    0    0 -0.17563138045E+01 -0.87415187373E+01  0.26854988396E-01  0.89162497276E+01  0.00000000000E+00 0.  1.
</event>
<event>
 7    1  0.5839176E-013  0.5052886E+02  0.7816164E-02  0.1300439E+00
        -11   -1    0    0    0    0  0.00000000000E+00  0.00000000000E+00  0.45593999997E+02  0.45594000000E+02  0.51100000000E-03 0.  1.
         11   -1    0    0    0    0 -0.00000000000E+00 -0.00000000000E+00 -0.45593999997E+02  0.45594000000E+02  0.51100000000E-03 0. -1.
    9900012    2    1    2    0    0  0.27422479788E+02 -0.29272960940E+02 -0.66533411228E+01  0.50528860953E+02  0.30000003353E+02 0.  0.
        -12    1    1    2    0    0 -0.27422479788E+02  0.29272960940E+02  0.66533411228E+01  0.40659139047E+02  0.00000000000E+00 0.  1.
         11    1    3    3    0    0  0.70284951528E+01 -0.18469151886E+02  0.16760047505E+01  0.19832254226E+02  0.51100000000E-03 0. -1.
        -11    1    3    3    0    0 -0.35477826104E+01 -0.16246955373E+01 -0.12144166438E+01  0.40867107906E+01  0.51100000000E-03 0.  1.
         12    1    3    3    0    0  0.23941767246E+02 -0.91791135168E+01 -0.71149292295E+01  0.26609895937E+02  0.00000000000E+00 0. -1.
</event>
<event>
 7    1  0.5839176E-013  0.5052887E+02  0.7816164E-02  0.1300439E+00
        -11   -1    0    0    0    0  0.00000000000E+00  0.00000000000E+00  0.45593999997E+02  0.45594000000E+02  0.51100000000E-03 0. -1.
         11   -1    0    0    0    0 -0.00000000000E+00 -0.00000000000E+00 -0.45593999997E+02  0.45594000000E+02  0.51100000000E-03 0.  1.
    9900012    2    1    2    0    0  0.32489406461E+01  0.40502602170E+02 -0.14656227448E+01  0.50528874974E+02  0.30000045971E+02 0.  0.
        -12    1    1    2    0    0 -0.32489406461E+01 -0.40502602170E+02  0.14656227448E+01  0.40659125026E+02  0.00000000000E+00 0.  1.
         11    1    3    3    0    0  0.93077270078E+01  0.18989521343E+02  0.85880492502E-01  0.21148122343E+02  0.51100000000E-03 0. -1.
        -11    1    3    3    0    0 -0.27136754398E+01  0.17135471554E+02 -0.94460232624E+01  0.19753880011E+02  0.51100000000E-03 0.  1.
        -12    1    3    3    0    0 -0.33451109219E+01  0.43776092730E+01  0.78945200251E+01  0.96268726206E+01  0.00000000000E+00 0.  1.
</event>
<event>
 7    1  0.5839176E-013  0.5052885E+02  0.7816164E-02  0.1300439E+00
        -11   -1    0    0    0    0  0.00000000000E+00  0.00000000000E+00  0.45593999997E+02  0.45594000000E+02  0.51100000000E-03 0. -1.
         11   -1    0    0    0    0 -0.00000000000E+00 -0.00000000000E+00 -0.45593999997E+02  0.45594000000E+02  0.51100000000E-03 0.  1.
    9900012    2    1    2    0    0 -0.13364698731E+02 -0.38397332809E+02  0.44241992442E+00  0.50528854972E+02  0.29999985172E+02 0.  0.
        -12    1    1    2    0    0  0.13364698731E+02  0.38397332809E+02 -0.44241992442E+00  0.40659145028E+02  0.00000000000E+00 0.  1.
         11    1    3    3    0    0  0.51708483188E+01 -0.36564980177E+01 -0.56575122216E+00  0.63582800187E+01  0.51100000000E-03 0. -1.
        -11    1    3    3    0    0 -0.14347156350E+02 -0.67490910560E+01  0.27329655390E+00  0.15857673747E+02  0.51100000000E-03 0.  1.
         12    1    3    3    0    0 -0.41883907002E+01 -0.27991743736E+02  0.73487459268E+00  0.28312901206E+02  0.00000000000E+00 0. -1.
</event>
<event>
 7    1  0.5839176E-013  0.5052886E+02  0.7816164E-02  0.1300439E+00
        -11   -1    0    0    0    0  0.00000000000E+00  0.00000000000E+00  0.45593999997E+02  0.45594000000E+02  0.51100000000E-03 0. -1.
         11   -1    0    0    0    0 -0.00000000000E+00 -0.00000000000E+00 -0.45593999997E+02  0.45594000000E+02  0.51100000000E-03 0.  1.
    9900012    2    1    2    0    0  0.13620633529E+02 -0.36395517098E+02  0.11958693659E+02  0.50528859864E+02  0.30000000041E+02 0.  0.
        -12    1    1    2    0    0 -0.13620633529E+02  0.36395517098E+02 -0.11958693659E+02  0.40659140136E+02  0.00000000000E+00 0.  1.
         11    1    3    3    0    0  0.10538936031E+02 -0.13255987399E+02 -0.56199923866E+01  0.17843057173E+02  0.51100000000E-03 0. -1.
        -11    1    3    3    0    0  0.57436460261E+00 -0.22185051631E+02  0.94408506307E+01  0.24117132323E+02  0.51100000000E-03 0.  1.
         12    1    3    3    0    0  0.25073328952E+01 -0.95447806821E+00  0.81378354151E+01  0.85686703679E+01  0.00000000000E+00 0. -1.
</event>
<event>
 7    1  0.5839176E-013  0.5052887E+02  0.7816164E-02  0.1300439E+00
        -11   -1    0    0    0    0  0.00000000000E+00  0.00000000000E+00  0.45593999997E+02  0.45594000000E+02  0.51100000000E-03 0.  1.
         11   -1    0    0    0    0 -0.00000000000E+00 -0.00000000000E+00 -0.45593999997E+02  0.45594000000E+02  0.51100000000E-03 0. -1.
    9900012    2    1    2    0    0  0.33485001166E+02  0.12758482449E+02  0.19213039837E+02  0.50528867235E+02  0.30000022446E+02 0.  0.
        -12    1    1    2    0    0 -0.33485001166E+02 -0.12758482449E+02 -0.19213039837E+02  0.40659132765E+02  0.00000000000E+00 0.  1.
         11    1    3    3    0    0  0.23678055987E+01  0.71291461972E+01  0.72438700756E+01  0.10435750226E+02  0.51100000000E-03 0. -1.
        -11    1    3    3    0    0  0.31924522822E+01  0.77258444136E+01 -0.22913869164E+01  0.86678069740E+01  0.51100000000E-03 0.  1.
        -12    1    3    3    0    0  0.27924743285E+02 -0.20965081616E+01  0.14260556678E+02  0.31425310034E+02  0.00000000000E+00 0.  1.
</event>
<event>
 7    1  0.5839176E-013  0.5052885E+02  0.7816164E-02  0.1300439E+00
        -11   -1    0    0    0    0  0.00000000000E+00  0.00000000000E+00  0.45593999997E+02  0.45594000000E+02  0.51100000000E-03 0.  1.
         11   -1    0    0    0    0 -0.00000000000E+00 -0.00000000000E+00 -0.45593999997E+02  0.45594000000E+02  0.51100000000E-03 0. -1.
    9900012    2    1    2    0    0  0.29705453289E+01  0.38034688720E+02  0.14060767623E+02  0.50528845167E+02  0.29999955369E+02 0.  0.
        -12    1    1    2    0    0 -0.29705453289E+01 -0.38034688720E+02 -0.14060767623E+02  0.40659154833E+02  0.00000000000E+00 0.  1.
         11    1    3    3    0    0 -0.40674004342E+01  0.11184425185E+02  0.29036644329E+01  0.12250158383E+02  0.51100000000E-03 0. -1.
        -11    1    3    3    0    0 -0.62443314780E+01  0.23578336796E+00 -0.63670282165E+00  0.62811352595E+01  0.51100000000E-03 0.  1.
        -12    1    3    3    0    0  0.13282277241E+02  0.26614480168E+02  0.11793806012E+02  0.31997551524E+02  0.00000000000E+00 0.  1.
</event>
<event>
 7    1  0.5839176E-013  0.5052886E+02  0.7816164E-02  0.1300439E+00
        -11   -1    0    0    0    0  0.00000000000E+00  0.00000000000E+00  0.45593999997E+02  0.45594000000E+02  0.51100000000E-03 0.  1.
         11   -1    0    0    0    0 -0.00000000000E+00 -0.00000000000E+00 -0.45593999997E+02  0.45594000000E+02  0.51100000000E-03 0. -1.
    9900012    2    1    2    0    0  0.84376166161E+01  0.11228080235E+02 -0.38156294558E+02  0.50528856203E+02  0.29999988913E+02 0.  0.
        -12    1    1    2    0    0 -0.84376166161E+01 -0.11228080235E+02  0.38156294558E+02  0.40659143797E+02  0.00000000000E+00 0.  1.
         11    1    3    3    0    0  0.63390290402E+01  0.47915211661E+01 -0.27866694166E+02  0.28977484505E+02  0.51100000000E-03 0. -1.
        -11    1    3    3    0    0  0.58473404025E+01  0.16341466915E+01 -0.13399781899E+02  0.14711083590E+02  0.51100000000E-03 0.  1.
        -12    1    3    3    0    0 -0.37487528267E+01  0.48024123773E+01  0.31101815061E+01  0.68402881078E+01  0.00000000000E+00 0.  1.
</event>
<event>
 7    1  0.5839176E-013  0.5052884E+02  0.7816164E-02  0.1300439E+00
        -11   -1    0    0    0    0  0.00000000000E+00  0.00000000000E+00  0.45593999997E+02  0.45594000000E+02  0.51100000000E-03 0.  1.
         11   -1    0    0    0    0 -0.00000000000E+00 -0.00000000000E+00 -0.45593999997E+02  0.45594000000E+02  0.51100000000E-03 0. -1.
    9900012    2    1    2    0    0 -0.26160333797E+01  0.25428935262E+02 -0.31617919948E+02  0.50528840625E+02  0.29999941564E+02 0.  0.
        -12    1    1    2    0    0  0.26160333797E+01 -0.25428935262E+02  0.31617919948E+02  0.40659159375E+02  0.00000000000E+00 0.  1.
         11    1    3    3    0    0 -0.33029120863E+01  0.14136342938E+02 -0.94182276129E+01  0.17304578340E+02  0.51100000000E-03 0. -1.
        -11    1    3    3    0    0 -0.94349343543E+01  0.23202745430E-01 -0.68535361894E+01  0.11661452877E+02  0.51100000000E-03 0.  1.
         12    1    3    3    0    0  0.10121813061E+02  0.11269389579E+02 -0.15346156146E+02  0.21562809408E+02  0.00000000000E+00 0. -1.
</event>
<event>
 7    1  0.5839176E-013  0.5052886E+02  0.7816164E-02  0.1300439E+00
        -11   -1    0    0    0    0  0.00000000000E+00  0.00000000000E+00  0.45593999997E+02  0.45594000000E+02  0.51100000000E-03 0.  1.
         11   -1    0    0    0    0 -0.00000000000E+00 -0.00000000000E+00 -0.45593999997E+02  0.45594000000E+02  0.51100000000E-03 0. -1.
    9900012    2    1    2    0    0  0.29955282315E+02 -0.17600370090E+02 -0.21120451981E+02  0.50528862555E+02  0.30000008224E+02 0.  0.
        -12    1    1    2    0    0 -0.29955282315E+02  0.17600370090E+02  0.21120451981E+02  0.40659137445E+02  0.00000000000E+00 0.  1.
         11    1    3    3    0    0  0.10894948945E+02 -0.71524772080E+01 -0.40875125500E+01  0.13658901927E+02  0.51100000000E-03 0. -1.
        -11    1    3    3    0    0  0.89483664305E+01 -0.15414933508E+02 -0.17872835194E+01  0.17913341940E+02  0.51100000000E-03 0.  1.
         12    1    3    3    0    0  0.10111966939E+02  0.49670406255E+01 -0.15245655911E+02  0.18956618689E+02  0.00000000000E+00 0. -1.
</event>
<event>
 7    1  0.5839176E-013  0.5052886E+02  0.7816164E-02  0.1300439E+00
        -11   -1    0    0    0    0  0.00000000000E+00  0.00000000000E+00  0.45593999997E+02  0.45594000000E+02  0.51100000000E-03 0.  1.
         11   -1    0    0    0    0 -0.00000000000E+00 -0.00000000000E+00 -0.45593999997E+02  0.45594000000E+02  0.51100000000E-03 0. -1.
    9900012    2    1    2    0    0 -0.57689003451E+01  0.35492423345E+02 -0.18978232385E+02  0.50528860430E+02  0.30000001764E+02 0.  0.
        -12    1    1    2    0    0  0.57689003451E+01 -0.35492423345E+02  0.18978232385E+02  0.40659139570E+02  0.00000000000E+00 0.  1.
         11    1    3    3    0    0 -0.91417189235E+01  0.10656449870E+02 -0.79251440808E+01  0.16122619442E+02  0.51100000000E-03 0. -1.
        -11    1    3    3    0    0  0.46977388313E+01  0.18194906654E+02 -0.17040227242E+02  0.25367158354E+02  0.51100000000E-03 0.  1.
         12    1    3    3    0    0 -0.13249202529E+01  0.66410668214E+01  0.59871389377E+01  0.90390826339E+01  0.00000000000E+00 0. -1.
</event>
<event>
 7    1  0.5839176E-013  0.5052886E+02  0.7816164E-02  0.1300439E+00
        -11   -1    0    0    0    0  0.00000000000E+00  0.00000000000E+00  0.45593999997E+02  0.45594000000E+02  0.51100000000E-03 0.  1.
         11   -1    0    0    0    0 -0.00000000000E+00 -0.00000000000E+00 -0.45593999997E+02  0.45594000000E+02  0.51100000000E-03 0. -1.
    9900012    2    1    2    0    0  0.29659049822E+02  0.70710203122E+01 -0.26898091006E+02  0.50528857555E+02  0.29999993023E+02 0.  0.
        -12    1    1    2    0    0 -0.29659049822E+02 -0.70710203122E+01  0.26898091006E+02  0.40659142445E+02  0.00000000000E+00 0.  1.
         11    1    3    3    0    0  0.11447669109E+02  0.73953115523E+00 -0.18850640771E+01  0.11625381766E+02  0.51100000000E-03 0. -1.
        -11    1    3    3    0    0  0.97194845681E+01 -0.75705491971E+01 -0.55213313769E+01  0.13500618351E+02  0.51100000000E-03 0.  1.
         12    1    3    3    0    0  0.84918961450E+01  0.13902038354E+02 -0.19491695552E+02  0.25402857438E+02  0.00000000000E+00 0. -1.
</event>
<event>
 7    1  0.5839176E-013  0.5052883E+02  0.7816164E-02  0.1300439E+00
        -11   -1    0    0    0    0  0.00000000000E+00  0.00000000000E+00  0.45593999997E+02  0.45594000000E+02  0.51100000000E-03 0.  1.
         11   -1    0    0    0    0 -0.00000000000E+00 -0.00000000000E+00 -0.45593999997E+02  0.45594000000E+02  0.51100000000E-03 0. -1.
    9900012    2    1    2    0    0 -0.18758014560E+02  0.11847525416E+02 -0.34072590892E+02  0.50528826142E+02  0.29999897540E+02 0.  0.
        -12    1    1    2    0    0  0.18758014560E+02 -0.11847525416E+02  0.34072590892E+02  0.40659173858E+02  0.00000000000E+00 0.  1.
         11    1    3    3    0    0 -0.34528861666E+01 -0.58434761684E+00  0.41209266142E+01  0.54079498368E+01  0.51100000000E-03 0.  1.
        -11    1    3    3    0    0 -0.93519708689E+01 -0.32796111694E+00 -0.20290015370E+02  0.22343939707E+02  0.51100000000E-03 0. -1.
        -12    1    3    3    0    0 -0.59531575248E+01  0.12759834150E+02 -0.17903502136E+02  0.22776936598E+02  0.00000000000E+00 0.  1.
</event>
<event>
 7    1  0.5839176E-013  0.5052886E+02  0.7816164E-02  0.1300439E+00
        -11   -1    0    0    0    0  0.00000000000E+00  0.00000000000E+00  0.45593999997E+02  0.45594000000E+02  0.51100000000E-03 0.  1.
         11   -1    0    0    0    0 -0.00000000000E+00 -0.00000000000E+00 -0.45593999997E+02  0.45594000000E+02  0.51100000000E-03 0. -1.
    9900012    2    1    2    0    0 -0.96382219912E+01  0.18925398913E+02 -0.34671305242E+02  0.50528862597E+02  0.30000008349E+02 0.  0.
        -12    1    1    2    0    0  0.96382219912E+01 -0.18925398913E+02  0.34671305242E+02  0.40659137403E+02  0.00000000000E+00 0.  1.
         11    1    3    3    0    0  0.72466789052E+01  0.74330156888E+01 -0.96069092211E+01  0.14144143043E+02  0.51100000000E-03 0. -1.
        -11    1    3    3    0    0  0.29551929485E+01  0.12224961814E+01 -0.68508500028E+01  0.75605428574E+01  0.51100000000E-03 0.  1.
        -12    1    3    3    0    0 -0.19840093845E+02  0.10269887043E+02 -0.18213546018E+02  0.28824176696E+02  0.00000000000E+00 0.  1.
</event>
<event>
 7    1  0.5839176E-013  0.5052886E+02  0.7816164E-02  0.1300439E+00
        -11   -1    0    0    0    0  0.00000000000E+00  0.00000000000E+00  0.45593999997E+02  0.45594000000E+02  0.51100000000E-03 0. -1.
         11   -1    0    0    0    0 -0.00000000000E+00 -0.00000000000E+00 -0.45593999997E+02  0.45594000000E+02  0.51100000000E-03 0.  1.
    9900012    2    1    2    0    0 -0.22880330813E+02  0.19476767138E+02  0.27391816625E+02  0.50528860631E+02  0.30000002373E+02 0.  0.
        -12    1    1    2    0    0  0.22880330813E+02 -0.19476767138E+02 -0.27391816625E+02  0.40659139369E+02  0.00000000000E+00 0.  1.
         11    1    3    3    0    0 -0.44241040484E+01  0.15932997043E+02  0.17231877149E+02  0.23882434586E+02  0.51100000000E-03 0. -1.
        -11    1    3    3    0    0  0.27874762902E+01  0.12611623277E+01  0.24926401711E+01  0.39463666541E+01  0.51100000000E-03 0.  1.
         12    1    3    3    0    0 -0.21243703055E+02  0.22826077669E+01  0.76672993043E+01  0.22700059390E+02  0.00000000000E+00 0. -1.
</event>
<event>
 7    1  0.5839176E-013  0.5052883E+02  0.7816164E-02  0.1300439E+00
        -11   -1    0    0    0    0  0.00000000000E+00  0.00000000000E+00  0.45593999997E+02  0.45594000000E+02  0.51100000000E-03 0.  1.
         11   -1    0    0    0    0 -0.00000000000E+00 -0.00000000000E+00 -0.45593999997E+02  0.45594000000E+02  0.51100000000E-03 0. -1.
    9900012    2    1    2    0    0  0.25753871028E+02 -0.14687979588E+02 -0.27823899806E+02  0.50528831074E+02  0.29999912533E+02 0.  0.
        -12    1    1    2    0    0 -0.25753871028E+02  0.14687979588E+02  0.27823899806E+02  0.40659168926E+02  0.00000000000E+00 0.  1.
         11    1    3    3    0    0  0.39731550667E+01 -0.55903290850E+01 -0.29032202049E+01  0.74475786859E+01  0.51100000000E-03 0.  1.
        -11    1    3    3    0    0  0.21918122477E+02 -0.11690728454E+02 -0.29037893809E+02  0.38213564370E+02  0.51100000000E-03 0. -1.
         12    1    3    3    0    0 -0.13740651590E+00  0.25930779512E+01  0.41172142080E+01  0.48676880186E+01  0.00000000000E+00 0. -1.
</event>
<event>
 7    1  0.5839176E-013  0.5052887E+02  0.7816164E-02  0.1300439E+00
        -11   -1    0    0    0    0  0.00000000000E+00  0.00000000000E+00  0.45593999997E+02  0.45594000000E+02  0.51100000000E-03 0. -1.
         11   -1    0    0    0    0 -0.00000000000E+00 -0.00000000000E+00 -0.45593999997E+02  0.45594000000E+02  0.51100000000E-03 0.  1.
    9900012    2    1    2    0    0 -0.19384489126E+02 -0.34132064343E+02  0.10602278047E+02  0.50528873906E+02  0.30000042724E+02 0.  0.
        -12    1    1    2    0    0  0.19384489126E+02  0.34132064343E+02 -0.10602278047E+02  0.40659126094E+02  0.00000000000E+00 0.  1.
         11    1    3    3    0    0 -0.23762011400E+01 -0.97652580905E+01  0.12470959624E+02  0.16016598629E+02  0.51100000000E-03 0. -1.
        -11    1    3    3    0    0 -0.15214708618E+02 -0.25841718239E+02  0.19408773101E+01  0.30050769788E+02  0.51100000000E-03 0.  1.
        -12    1    3    3    0    0 -0.17935793682E+01  0.14749119865E+01 -0.38095588870E+01  0.44615054893E+01  0.00000000000E+00 0.  1.
</event>
<event>
 7    1  0.5839176E-013  0.5052887E+02  0.7816164E-02  0.1300439E+00
        -11   -1    0    0    0    0  0.00000000000E+00  0.00000000000E+00  0.45593999997E+02  0.45594000000E+02  0.51100000000E-03 0.  1.
         11   -1    0    0    0    0 -0.00000000000E+00 -0.00000000000E+00 -0.45593999997E+02  0.45594000000E+02  0.51100000000E-03 0. -1.
    9900012    2    1    2    0    0 -0.29410533613E+02  0.27567691802E+02 -0.53110638441E+01  0.50528874114E+02  0.30000043356E+02 0.  0.
        -12    1    1    2    0    0  0.29410533613E+02 -0.27567691802E+02  0.53110638441E+01  0.40659125886E+02  0.00000000000E+00 0.  1.
         11    1    3    3    0    0 -0.12256972698E+01 -0.10181119067E+01  0.15552411950E+01  0.22265805819E+01  0.51100000000E-03 0. -1.
        -11    1    3    3    0    0 -0.90546564417E+01 -0.36006981827E+01  0.17023911128E+01  0.98919141951E+01  0.51100000000E-03 0.  1.
         12    1    3    3    0    0 -0.19130179901E+02  0.32186501891E+02 -0.85686961519E+01  0.38410379337E+02  0.00000000000E+00 0. -1.
</event>
<event>
 7    1  0.5839176E-013  0.5052885E+02  0.7816164E-02  0.1300439E+00
        -11   -1    0    0    0    0  0.00000000000E+00  0.00000000000E+00  0.45593999997E+02  0.45594000000E+02  0.51100000000E-03 0.  1.
         11   -1    0    0    0    0 -0.00000000000E+00 -0.00000000000E+00 -0.45593999997E+02  0.45594000000E+02  0.51100000000E-03 0. -1.
    9900012    2    1    2    0    0 -0.11576891093E+02 -0.20238202467E+02 -0.33310016182E+02  0.50528850667E+02  0.29999972086E+02 0.  0.
        -12    1    1    2    0    0  0.11576891093E+02  0.20238202467E+02  0.33310016182E+02  0.40659149333E+02  0.00000000000E+00 0.  1.
         11    1    3    3    0    0  0.41731472415E+01  0.98723214458E+00 -0.33862375242E+00  0.43016800803E+01  0.51100000000E-03 0.  1.
        -11    1    3    3    0    0 -0.76920333197E+01 -0.53492164574E+01 -0.73125836461E+00  0.93976716455E+01  0.51100000000E-03 0. -1.
        -12    1    3    3    0    0 -0.80580050152E+01 -0.15876218154E+02 -0.32240134065E+02  0.36829498941E+02  0.00000000000E+00 0.  1.
</event>
<event>
 7    1  0.5839176E-013  0.5052887E+02  0.7816164E-02  0.1300439E+00
        -11   -1    0    0    0    0  0.00000000000E+00  0.00000000000E+00  0.45593999997E+02  0.45594000000E+02  0.51100000000E-03 0.  1.
         11   -1    0    0    0    0 -0.00000000000E+00 -0.00000000000E+00 -0.45593999997E+02  0.45594000000E+02  0.51100000000E-03 0. -1.
    9900012    2    1    2    0    0 -0.48719863293E+01 -0.45898509808E+01 -0.40104389926E+02  0.50528867273E+02  0.30000022563E+02 0.  0.
        -12    1    1    2    0    0  0.48719863293E+01  0.45898509808E+01  0.40104389926E+02  0.40659132727E+02  0.00000000000E+00 0.  1.
         11    1    3    3    0    0  0.29396811001E+01 -0.19600716467E+01 -0.30599932372E+02  0.30803237935E+02  0.51100000000E-03 0. -1.
        -11    1    3    3    0    0  0.13691582670E+01 -0.42908032060E+01 -0.93683232933E+01  0.10394761570E+02  0.51100000000E-03 0.  1.
        -12    1    3    3    0    0 -0.91808256964E+01  0.16610238719E+01 -0.13613426048E+00  0.93308677682E+01  0.00000000000E+00 0.  1.
</event>
<event>
 7    1  0.5839176E-013  0.5052886E+02  0.7816164E-02  0.1300439E+00
        -11   -1    0    0    0    0  0.00000000000E+00  0.00000000000E+00  0.45593999997E+02  0.45594000000E+02  0.51100000000E-03 0. -1.
         11   -1    0    0    0    0 -0.00000000000E+00 -0.00000000000E+00 -0.45593999997E+02  0.45594000000E+02  0.51100000000E-03 0.  1.
    9900012    2    1    2    0    0 -0.38237053024E+02  0.12195574179E+02 -0.65085347748E+01  0.50528864760E+02  0.30000014924E+02 0.  0.
        -12    1    1    2    0    0  0.38237053024E+02 -0.12195574179E+02  0.65085347748E+01  0.40659135240E+02  0.00000000000E+00 0.  1.
         11    1    3    3    0    0 -0.12945619394E+02  0.57353773006E+00 -0.56441917842E+01  0.14134175186E+02  0.51100000000E-03 0. -1.
        -11    1    3    3    0    0 -0.24135625260E+02  0.63479433247E+01 -0.90857109898E+01  0.26558895602E+02  0.51100000000E-03 0.  1.
        -12    1    3    3    0    0 -0.11558083698E+01  0.52740931244E+01  0.82213679993E+01  0.98357939716E+01  0.00000000000E+00 0.  1.
</event>
<event>
 7    1  0.5839176E-013  0.5052886E+02  0.7816164E-02  0.1300439E+00
        -11   -1    0    0    0    0  0.00000000000E+00  0.00000000000E+00  0.45593999997E+02  0.45594000000E+02  0.51100000000E-03 0.  1.
         11   -1    0    0    0    0 -0.00000000000E+00 -0.00000000000E+00 -0.45593999997E+02  0.45594000000E+02  0.51100000000E-03 0. -1.
    9900012    2    1    2    0    0 -0.10398730973E+02  0.22005306880E+02 -0.32569901108E+02  0.50528860869E+02  0.30000003097E+02 0.  0.
        -12    1    1    2    0    0  0.10398730973E+02 -0.22005306880E+02  0.32569901108E+02  0.40659139131E+02  0.00000000000E+00 0.  1.
         11    1    3    3    0    0 -0.19712539448E+01 -0.37317041175E+01 -0.44976905148E+01  0.61677125390E+01  0.51100000000E-03 0. -1.
        -11    1    3    3    0    0  0.42402351759E+00 -0.28382722547E+01  0.59187785626E+00  0.29301714955E+01  0.51100000000E-03 0.  1.
         12    1    3    3    0    0 -0.88515005456E+01  0.28575283252E+02 -0.28664088449E+02  0.41430976834E+02  0.00000000000E+00 0. -1.
</event>
<event>
 7    1  0.5839176E-013  0.5052886E+02  0.7816164E-02  0.1300439E+00
        -11   -1    0    0    0    0  0.00000000000E+00  0.00000000000E+00  0.45593999997E+02  0.45594000000E+02  0.51100000000E-03 0. -1.
         11   -1    0    0    0    0 -0.00000000000E+00 -0.00000000000E+00 -0.45593999997E+02  0.45594000000E+02  0.51100000000E-03 0.  1.
    9900012    2    1    2    0    0 -0.50079356782E+01 -0.38604041397E+02  0.11739425055E+02  0.50528861636E+02  0.30000005428E+02 0.  0.
        -12    1    1    2    0    0  0.50079356782E+01  0.38604041397E+02 -0.11739425055E+02  0.40659138364E+02  0.00000000000E+00 0.  1.
         11    1    3    3    0    0  0.68294573569E+00 -0.23240598149E+01 -0.70856564192E+01  0.74882705649E+01  0.51100000000E-03 0. -1.
        -11    1    3    3    0    0  0.34980851042E+01 -0.55412538458E+01  0.22458024060E+01  0.69271727486E+01  0.51100000000E-03 0.  1.
         12    1    3    3    0    0 -0.91889665181E+01 -0.30738727736E+02  0.16579279068E+02  0.36113418322E+02  0.00000000000E+00 0. -1.
</event>
<event>
 7    1  0.5839176E-013  0.5052885E+02  0.7816164E-02  0.1300439E+00
        -11   -1    0    0    0    0  0.00000000000E+00  0.00000000000E+00  0.45593999997E+02  0.45594000000E+02  0.51100000000E-03 0.  1.
         11   -1    0    0    0    0 -0.00000000000E+00 -0.00000000000E+00 -0.45593999997E+02  0.45594000000E+02  0.51100000000E-03 0. -1.
    9900012    2    1    2    0    0 -0.16016740550E+00 -0.33470725003E+02 -0.23083575644E+02  0.50528849119E+02  0.29999967382E+02 0.  0.
        -12    1    1    2    0    0  0.16016740550E+00  0.33470725003E+02  0.23083575644E+02  0.40659150881E+02  0.00000000000E+00 0.  1.
         11    1    3    3    0    0 -0.24197382179E+01 -0.40467151142E+01 -0.69497308119E+01  0.83982018836E+01  0.51100000000E-03 0. -1.
        -11    1    3    3    0    0  0.54542411032E+01 -0.16726749505E+02 -0.21672206813E+02  0.27914466562E+02  0.51100000000E-03 0.  1.
        -12    1    3    3    0    0 -0.31946702909E+01 -0.12697260384E+02  0.55383619807E+01  0.14216180674E+02  0.00000000000E+00 0.  1.
</event>
<event>
 7    1  0.5839176E-013  0.5052887E+02  0.7816164E-02  0.1300439E+00
        -11   -1    0    0    0    0  0.00000000000E+00  0.00000000000E+00  0.45593999997E+02  0.45594000000E+02  0.51100000000E-03 0.  1.
         11   -1    0    0    0    0 -0.00000000000E+00 -0.00000000000E+00 -0.45593999997E+02  0.45594000000E+02  0.51100000000E-03 0. -1.
    9900012    2    1    2    0    0  0.13029311260E+02 -0.32762111933E+02 -0.20249590748E+02  0.50528869959E+02  0.30000030727E+02 0.  0.
        -12    1    1    2    0    0 -0.13029311260E+02  0.32762111933E+02  0.20249590748E+02  0.40659130041E+02  0.00000000000E+00 0.  1.
         11    1    3    3    0    0  0.24575092831E+01  0.56632530861E+00 -0.54333752897E+01  0.59901288410E+01  0.51100000000E-03 0. -1.
        -11    1    3    3    0    0  0.87224507875E+01 -0.73000824935E+00 -0.63333193199E+01  0.10803934175E+02  0.51100000000E-03 0.  1.
        -12    1    3    3    0    0  0.18493511897E+01 -0.32598428992E+02 -0.84828961384E+01  0.33734806943E+02  0.00000000000E+00 0.  1.
</event>
<event>
 7    1  0.5839176E-013  0.5052886E+02  0.7816164E-02  0.1300439E+00
        -11   -1    0    0    0    0  0.00000000000E+00  0.00000000000E+00  0.45593999997E+02  0.45594000000E+02  0.51100000000E-03 0. -1.
         11   -1    0    0    0    0 -0.00000000000E+00 -0.00000000000E+00 -0.45593999997E+02  0.45594000000E+02  0.51100000000E-03 0.  1.
    9900012    2    1    2    0    0 -0.35956198590E+01  0.39275431073E+02 -0.98832179903E+01  0.50528856305E+02  0.29999989225E+02 0.  0.
        -12    1    1    2    0    0  0.35956198590E+01 -0.39275431073E+02  0.98832179903E+01  0.40659143695E+02  0.00000000000E+00 0.  1.
         11    1    3    3    0    0  0.61649175925E+01  0.52561403846E+01  0.34000335992E+01  0.87859802755E+01  0.51100000000E-03 0. -1.
        -11    1    3    3    0    0 -0.20566936234E+01 -0.41316418323E+00  0.23506738175E+01  0.31506127912E+01  0.51100000000E-03 0.  1.
         12    1    3    3    0    0 -0.77038438281E+01  0.34432454872E+02 -0.15633925407E+02  0.38592263238E+02  0.00000000000E+00 0. -1.
</event>
<event>
 7    1  0.5839176E-013  0.5052887E+02  0.7816164E-02  0.1300439E+00
        -11   -1    0    0    0    0  0.00000000000E+00  0.00000000000E+00  0.45593999997E+02  0.45594000000E+02  0.51100000000E-03 0. -1.
         11   -1    0    0    0    0 -0.00000000000E+00 -0.00000000000E+00 -0.45593999997E+02  0.45594000000E+02  0.51100000000E-03 0.  1.
    9900012    2    1    2    0    0 -0.39364368156E+02  0.39469996964E+01  0.93825629329E+01  0.50528870962E+02  0.30000033776E+02 0.  0.
        -12    1    1    2    0    0  0.39364368156E+02 -0.39469996964E+01 -0.93825629329E+01  0.40659129038E+02  0.00000000000E+00 0.  1.
         11    1    3    3    0    0 -0.80484593873E+01  0.10709509698E+02  0.83018628352E+01  0.15760463930E+02  0.51100000000E-03 0. -1.
        -11    1    3    3    0    0 -0.61094570143E+01  0.18266316905E+01 -0.41793297647E+01  0.76242275599E+01  0.51100000000E-03 0.  1.
         12    1    3    3    0    0 -0.25206451755E+02 -0.85891416923E+01  0.52600298624E+01  0.27144179472E+02  0.00000000000E+00 0. -1.
</event>
<event>
 7    1  0.5839176E-013  0.5052886E+02  0.7816164E-02  0.1300439E+00
        -11   -1    0    0    0    0  0.00000000000E+00  0.00000000000E+00  0.45593999997E+02  0.45594000000E+02  0.51100000000E-03 0. -1.
         11   -1    0    0    0    0 -0.00000000000E+00 -0.00000000000E+00 -0.45593999997E+02  0.45594000000E+02  0.51100000000E-03 0.  1.
    9900012    2    1    2    0    0  0.30328858058E+02  0.10425306364E+02  0.24992784878E+02  0.50528856627E+02  0.29999990204E+02 0.  0.
        -12    1    1    2    0    0 -0.30328858058E+02 -0.10425306364E+02 -0.24992784878E+02  0.40659143373E+02  0.00000000000E+00 0.  1.
         11    1    3    3    0    0  0.20239235112E+02 -0.27409665807E+01  0.13224880565E+02  0.24331810494E+02  0.51100000000E-03 0. -1.
        -11    1    3    3    0    0  0.85410732164E+01  0.27411827295E+01 -0.16645864607E+01  0.91233142438E+01  0.51100000000E-03 0.  1.
        -12    1    3    3    0    0  0.15485497296E+01  0.10425090215E+02  0.13432490773E+02  0.17073731889E+02  0.00000000000E+00 0.  1.
</event>
<event>
 7    1  0.5839176E-013  0.5052886E+02  0.7816164E-02  0.1300439E+00
        -11   -1    0    0    0    0  0.00000000000E+00  0.00000000000E+00  0.45593999997E+02  0.45594000000E+02  0.51100000000E-03 0. -1.
         11   -1    0    0    0    0 -0.00000000000E+00 -0.00000000000E+00 -0.45593999997E+02  0.45594000000E+02  0.51100000000E-03 0.  1.
    9900012    2    1    2    0    0  0.15421190154E+02 -0.14104514649E+02  0.34877148755E+02  0.50528856569E+02  0.29999990028E+02 0.  0.
        -12    1    1    2    0    0 -0.15421190154E+02  0.14104514649E+02 -0.34877148755E+02  0.40659143431E+02  0.00000000000E+00 0.  1.
         11    1    3    3    0    0  0.60278626671E+01 -0.13225215470E+02  0.17969524306E+02  0.23111582737E+02  0.51100000000E-03 0. -1.
        -11    1    3    3    0    0  0.12566994542E+02  0.28858915813E+01  0.18220097133E+02  0.22321058708E+02  0.51100000000E-03 0.  1.
         12    1    3    3    0    0 -0.31736670558E+01 -0.37651907600E+01 -0.13124726843E+01  0.50962151238E+01  0.00000000000E+00 0. -1.
</event>
<event>
 7    1  0.5839176E-013  0.5052886E+02  0.7816164E-02  0.1300439E+00
        -11   -1    0    0    0    0  0.00000000000E+00  0.00000000000E+00  0.45593999997E+02  0.45594000000E+02  0.51100000000E-03 0.  1.
         11   -1    0    0    0    0 -0.00000000000E+00 -0.00000000000E+00 -0.45593999997E+02  0.45594000000E+02  0.51100000000E-03 0. -1.
    9900012    2    1    2    0    0  0.21156573936E+02 -0.17556416870E+02 -0.29955589385E+02  0.50528859215E+02  0.29999998069E+02 0.  0.
        -12    1    1    2    0    0 -0.21156573936E+02  0.17556416870E+02  0.29955589385E+02  0.40659140785E+02  0.00000000000E+00 0.  1.
         11    1    3    3    0    0  0.16681366751E+02 -0.36027296619E+01 -0.16207617313E+02  0.23535813496E+02  0.51100000000E-03 0. -1.
        -11    1    3    3    0    0 -0.50126743408E+01  0.13286299307E+01 -0.38754239080E+01  0.64738761393E+01  0.51100000000E-03 0.  1.
        -12    1    3    3    0    0  0.94878815253E+01 -0.15282317139E+02 -0.98725481636E+01  0.20519169579E+02  0.00000000000E+00 0.  1.
</event>
<event>
 7    1  0.5839176E-013  0.5052887E+02  0.7816164E-02  0.1300439E+00
        -11   -1    0    0    0    0  0.00000000000E+00  0.00000000000E+00  0.45593999997E+02  0.45594000000E+02  0.51100000000E-03 0.  1.
         11   -1    0    0    0    0 -0.00000000000E+00 -0.00000000000E+00 -0.45593999997E+02  0.45594000000E+02  0.51100000000E-03 0. -1.
    9900012    2    1    2    0    0 -0.30287172335E+02  0.21405407835E+02 -0.16663156321E+02  0.50528867309E+02  0.30000022672E+02 0.  0.
        -12    1    1    2    0    0  0.30287172335E+02 -0.21405407835E+02  0.16663156321E+02  0.40659132691E+02  0.00000000000E+00 0.  1.
         11    1    3    3    0    0 -0.43153660695E+01  0.30583887854E+01 -0.46325022052E+01  0.70310883382E+01  0.51100000000E-03 0.  1.
        -11    1    3    3    0    0 -0.27812741014E+02  0.57839990280E+01 -0.45760651666E+01  0.28774008760E+02  0.51100000000E-03 0. -1.
        -12    1    3    3    0    0  0.18409347482E+01  0.12563020022E+02 -0.74545889489E+01  0.14723770211E+02  0.00000000000E+00 0.  1.
</event>
<event>
 7    1  0.5839176E-013  0.5052889E+02  0.7816164E-02  0.1300439E+00
        -11   -1    0    0    0    0  0.00000000000E+00  0.00000000000E+00  0.45593999997E+02  0.45594000000E+02  0.51100000000E-03 0. -1.
         11   -1    0    0    0    0 -0.00000000000E+00 -0.00000000000E+00 -0.45593999997E+02  0.45594000000E+02  0.51100000000E-03 0.  1.
    9900012    2    1    2    0    0 -0.36861060841E+02  0.15165981174E+02  0.80261177649E+01  0.50528888381E+02  0.30000086721E+02 0.  0.
        -12    1    1    2    0    0  0.36861060841E+02 -0.15165981174E+02 -0.80261177649E+01  0.40659111619E+02  0.00000000000E+00 0.  1.
         11    1    3    3    0    0 -0.23368501284E+01 -0.26242046035E+01  0.69767634876E+01  0.78116929885E+01  0.51100000000E-03 0. -1.
        -11    1    3    3    0    0 -0.22321241259E+01 -0.31292708802E+01 -0.15701747722E+01  0.41521275789E+01  0.51100000000E-03 0.  1.
         12    1    3    3    0    0 -0.32292086587E+02  0.20919456658E+02  0.26195290494E+01  0.38565067813E+02  0.00000000000E+00 0. -1.
</event>
<event>
 7    1  0.5839176E-013  0.5052886E+02  0.7816164E-02  0.1300439E+00
        -11   -1    0    0    0    0  0.00000000000E+00  0.00000000000E+00  0.45593999997E+02  0.45594000000E+02  0.51100000000E-03 0.  1.
         11   -1    0    0    0    0 -0.00000000000E+00 -0.00000000000E+00 -0.45593999997E+02  0.45594000000E+02  0.51100000000E-03 0. -1.
    9900012    2    1    2    0    0 -0.57905249240E+01  0.40199425089E+02  0.19082546303E+01  0.50528863363E+02  0.30000010677E+02 0.  0.
        -12    1    1    2    0    0  0.57905249240E+01 -0.40199425089E+02 -0.19082546303E+01  0.40659136637E+02  0.00000000000E+00 0.  1.
         11    1    3    3    0    0 -0.73224123347E+01  0.16450244993E+02 -0.22291881148E+01  0.18143802321E+02  0.51100000000E-03 0. -1.
        -11    1    3    3    0    0 -0.53763057950E+01  0.21864416966E+02  0.84233172854E+01  0.24039751821E+02  0.51100000000E-03 0.  1.
        -12    1    3    3    0    0  0.69081932056E+01  0.18847631296E+01 -0.42858745403E+01  0.83453092211E+01  0.00000000000E+00 0.  1.
</event>
<event>
 7    1  0.5839176E-013  0.5052886E+02  0.7816164E-02  0.1300439E+00
        -11   -1    0    0    0    0  0.00000000000E+00  0.00000000000E+00  0.45593999997E+02  0.45594000000E+02  0.51100000000E-03 0.  1.
         11   -1    0    0    0    0 -0.00000000000E+00 -0.00000000000E+00 -0.45593999997E+02  0.45594000000E+02  0.51100000000E-03 0. -1.
    9900012    2    1    2    0    0  0.20633341021E+02  0.16329830839E+02 -0.30996252001E+02  0.50528858653E+02  0.29999996363E+02 0.  0.
        -12    1    1    2    0    0 -0.20633341021E+02 -0.16329830839E+02  0.30996252001E+02  0.40659141347E+02  0.00000000000E+00 0.  1.
         11    1    3    3    0    0  0.82691145859E+01  0.18995994270E+02 -0.17548709394E+02  0.27151118872E+02  0.51100000000E-03 0. -1.
        -11    1    3    3    0    0 -0.70396539288E+00 -0.40306219429E+01 -0.83233261950E+01  0.92746557742E+01  0.51100000000E-03 0.  1.
         12    1    3    3    0    0  0.13068191828E+02  0.13644585123E+01 -0.51242164126E+01  0.14103084007E+02  0.00000000000E+00 0. -1.
</event>
<event>
 7    1  0.5839176E-013  0.5052876E+02  0.7816164E-02  0.1300439E+00
        -11   -1    0    0    0    0  0.00000000000E+00  0.00000000000E+00  0.45593999997E+02  0.45594000000E+02  0.51100000000E-03 0.  1.
         11   -1    0    0    0    0 -0.00000000000E+00 -0.00000000000E+00 -0.45593999997E+02  0.45594000000E+02  0.51100000000E-03 0. -1.
    9900012    2    1    2    0    0  0.31814664523E+01 -0.28204776241E+02 -0.29112590702E+02  0.50528756660E+02  0.29999686343E+02 0.  0.
        -12    1    1    2    0    0 -0.31814664523E+01  0.28204776241E+02  0.29112590702E+02  0.40659243340E+02  0.00000000000E+00 0.  1.
         11    1    3    3    0    0 -0.13353465970E+01 -0.16639919793E+02 -0.15713198706E+01  0.16767203931E+02  0.51100000000E-03 0.  1.
        -11    1    3    3    0    0 -0.37390910811E+01 -0.87449132153E+01 -0.82541699871E+01  0.12593078722E+02  0.51100000000E-03 0. -1.
         12    1    3    3    0    0  0.82559041304E+01 -0.28199432325E+01 -0.19287100844E+02  0.21168474008E+02  0.00000000000E+00 0. -1.
</event>
<event>
 7    1  0.5839176E-013  0.5052886E+02  0.7816164E-02  0.1300439E+00
        -11   -1    0    0    0    0  0.00000000000E+00  0.00000000000E+00  0.45593999997E+02  0.45594000000E+02  0.51100000000E-03 0.  1.
         11   -1    0    0    0    0 -0.00000000000E+00 -0.00000000000E+00 -0.45593999997E+02  0.45594000000E+02  0.51100000000E-03 0. -1.
    9900012    2    1    2    0    0 -0.34919737734E+02 -0.20825352995E+02 -0.28635209879E+00  0.50528863164E+02  0.30000010072E+02 0.  0.
        -12    1    1    2    0    0  0.34919737734E+02  0.20825352995E+02  0.28635209879E+00  0.40659136836E+02  0.00000000000E+00 0.  1.
         11    1    3    3    0    0 -0.58344859457E+01  0.21606885097E+01  0.34343551057E+01  0.71066585918E+01  0.51100000000E-03 0. -1.
        -11    1    3    3    0    0 -0.41504441993E+01 -0.15391344979E+02  0.36108895602E+01  0.16344975099E+02  0.51100000000E-03 0.  1.
         12    1    3    3    0    0 -0.24934807589E+02 -0.75946965259E+01 -0.73315967647E+01  0.27077229473E+02  0.00000000000E+00 0. -1.
</event>
<event>
 7    1  0.5839176E-013  0.5052886E+02  0.7816164E-02  0.1300439E+00
        -11   -1    0    0    0    0  0.00000000000E+00  0.00000000000E+00  0.45593999997E+02  0.45594000000E+02  0.51100000000E-03 0.  1.
         11   -1    0    0    0    0 -0.00000000000E+00 -0.00000000000E+00 -0.45593999997E+02  0.45594000000E+02  0.51100000000E-03 0. -1.
    9900012    2    1    2    0    0 -0.58634600130E+01  0.43121617664E+01 -0.40002385919E+02  0.50528858572E+02  0.29999996117E+02 0.  0.
        -12    1    1    2    0    0  0.58634600130E+01 -0.43121617664E+01  0.40002385919E+02  0.40659141428E+02  0.00000000000E+00 0.  1.
         11    1    3    3    0    0 -0.66553546023E+01 -0.14775166715E+00 -0.94098358030E+00  0.67231708142E+01  0.51100000000E-03 0. -1.
        -11    1    3    3    0    0 -0.53630271848E+00  0.12070193272E+02 -0.22847018321E+02  0.25844988540E+02  0.51100000000E-03 0.  1.
        -12    1    3    3    0    0  0.13281973078E+01 -0.76102798388E+01 -0.16214384018E+02  0.17960699218E+02  0.00000000000E+00 0.  1.
</event>
<event>
 7    1  0.5839176E-013  0.5052888E+02  0.7816164E-02  0.1300439E+00
        -11   -1    0    0    0    0  0.00000000000E+00  0.00000000000E+00  0.45593999997E+02  0.45594000000E+02  0.51100000000E-03 0. -1.
         11   -1    0    0    0    0 -0.00000000000E+00 -0.00000000000E+00 -0.45593999997E+02  0.45594000000E+02  0.51100000000E-03 0.  1.
    9900012    2    1    2    0    0 -0.34008531311E+02  0.12621482589E+02 -0.18365249836E+02  0.50528875241E+02  0.30000046783E+02 0.  0.
        -12    1    1    2    0    0  0.34008531311E+02 -0.12621482589E+02  0.18365249836E+02  0.40659124759E+02  0.00000000000E+00 0.  1.
         11    1    3    3    0    0 -0.15263979509E+02  0.43462513667E+01 -0.10672296879E+02  0.19125294569E+02  0.51100000000E-03 0. -1.
        -11    1    3    3    0    0 -0.13247361501E+02  0.10217066138E+02 -0.14712512099E+02  0.22278667818E+02  0.51100000000E-03 0.  1.
         12    1    3    3    0    0 -0.54971902999E+01 -0.19418349163E+01  0.70195591429E+01  0.91249128541E+01  0.00000000000E+00 0. -1.
</event>
<event>
 7    1  0.5839176E-013  0.5052887E+02  0.7816164E-02  0.1300439E+00
        -11   -1    0    0    0    0  0.00000000000E+00  0.00000000000E+00  0.45593999997E+02  0.45594000000E+02  0.51100000000E-03 0.  1.
         11   -1    0    0    0    0 -0.00000000000E+00 -0.00000000000E+00 -0.45593999997E+02  0.45594000000E+02  0.51100000000E-03 0. -1.
    9900012    2    1    2    0    0  0.48683736790E+01 -0.10953755242E+02 -0.38852016052E+02  0.50528868584E+02  0.30000026548E+02 0.  0.
        -12    1    1    2    0    0 -0.48683736790E+01  0.10953755242E+02  0.38852016052E+02  0.40659131416E+02  0.00000000000E+00 0.  1.
         11    1    3    3    0    0 -0.73370074425E+01  0.40203394699E+01 -0.30178705360E+01  0.88939502190E+01  0.51100000000E-03 0. -1.
        -11    1    3    3    0    0  0.92119306885E+01 -0.44257710957E+01 -0.16537024683E+02  0.19440172387E+02  0.51100000000E-03 0.  1.
        -12    1    3    3    0    0  0.29934504330E+01 -0.10548323616E+02 -0.19297120833E+02  0.22194745978E+02  0.00000000000E+00 0.  1.
</event>
<event>
 7    1  0.5839176E-013  0.5052884E+02  0.7816164E-02  0.1300439E+00
        -11   -1    0    0    0    0  0.00000000000E+00  0.00000000000E+00  0.45593999997E+02  0.45594000000E+02  0.51100000000E-03 0. -1.
         11   -1    0    0    0    0 -0.00000000000E+00 -0.00000000000E+00 -0.45593999997E+02  0.45594000000E+02  0.51100000000E-03 0.  1.
    9900012    2    1    2    0    0  0.13621129326E+02 -0.21100722289E+02  0.31974857671E+02  0.50528841520E+02  0.29999944284E+02 0.  0.
        -12    1    1    2    0    0 -0.13621129326E+02  0.21100722289E+02 -0.31974857671E+02  0.40659158480E+02  0.00000000000E+00 0.  1.
         11    1    3    3    0    0  0.14282859667E+02 -0.18126956685E+02  0.11382043032E+02  0.25732033397E+02  0.51100000000E-03 0. -1.
        -11    1    3    3    0    0  0.44151073787E+01 -0.43539037936E+01  0.39735844066E+01  0.73647148422E+01  0.51100000000E-03 0.  1.
        -12    1    3    3    0    0 -0.50768377189E+01  0.13801381891E+01  0.16619230232E+02  0.17432093281E+02  0.00000000000E+00 0.  1.
</event>
<event>
 7    1  0.5839176E-013  0.5052886E+02  0.7816164E-02  0.1300439E+00
        -11   -1    0    0    0    0  0.00000000000E+00  0.00000000000E+00  0.45593999997E+02  0.45594000000E+02  0.51100000000E-03 0.  1.
         11   -1    0    0    0    0 -0.00000000000E+00 -0.00000000000E+00 -0.45593999997E+02  0.45594000000E+02  0.51100000000E-03 0. -1.
    9900012    2    1    2    0    0  0.10854927497E+02  0.33091678294E+02  0.20982772014E+02  0.50528863946E+02  0.30000012452E+02 0.  0.
        -12    1    1    2    0    0 -0.10854927497E+02 -0.33091678294E+02 -0.20982772014E+02  0.40659136054E+02  0.00000000000E+00 0.  1.
         11    1    3    3    0    0  0.12372602208E+00  0.21031135230E+02 -0.32026044053E+00  0.21033937440E+02  0.51100000000E-03 0. -1.
        -11    1    3    3    0    0  0.53593067774E+01  0.40208639508E+01  0.70081067849E+00  0.67365163040E+01  0.51100000000E-03 0.  1.
        -12    1    3    3    0    0  0.53718946970E+01  0.80396791126E+01  0.20602221776E+02  0.22758410203E+02  0.00000000000E+00 0.  1.
</event>
<event>
 7    1  0.5839176E-013  0.5052885E+02  0.7816164E-02  0.1300439E+00
        -11   -1    0    0    0    0  0.00000000000E+00  0.00000000000E+00  0.45593999997E+02  0.45594000000E+02  0.51100000000E-03 0.  1.
         11   -1    0    0    0    0 -0.00000000000E+00 -0.00000000000E+00 -0.45593999997E+02  0.45594000000E+02  0.51100000000E-03 0. -1.
    9900012    2    1    2    0    0  0.24677464131E+01  0.35974066721E+02 -0.18786778212E+02  0.50528852390E+02  0.29999977324E+02 0.  0.
        -12    1    1    2    0    0 -0.24677464131E+01 -0.35974066721E+02  0.18786778212E+02  0.40659147610E+02  0.00000000000E+00 0.  1.
         11    1    3    3    0    0 -0.64961970272E+01  0.25152567762E+02 -0.36882153442E+01  0.26238429326E+02  0.51100000000E-03 0. -1.
        -11    1    3    3    0    0 -0.52677348055E+00  0.58349358251E+00  0.20396692642E+01  0.21859108008E+01  0.51100000000E-03 0.  1.
         12    1    3    3    0    0  0.94907169208E+01  0.10238005376E+02 -0.17138232132E+02  0.22104512263E+02  0.00000000000E+00 0. -1.
</event>
<event>
 7    1  0.5839176E-013  0.5052886E+02  0.7816164E-02  0.1300439E+00
        -11   -1    0    0    0    0  0.00000000000E+00  0.00000000000E+00  0.45593999997E+02  0.45594000000E+02  0.51100000000E-03 0.  1.
         11   -1    0    0    0    0 -0.00000000000E+00 -0.00000000000E+00 -0.45593999997E+02  0.45594000000E+02  0.51100000000E-03 0. -1.
    9900012    2    1    2    0    0 -0.33021345941E+02 -0.13695070404E+02 -0.19370121003E+02  0.50528857992E+02  0.29999994353E+02 0.  0.
        -12    1    1    2    0    0  0.33021345941E+02  0.13695070404E+02  0.19370121003E+02  0.40659142008E+02  0.00000000000E+00 0.  1.
         11    1    3    3    0    0 -0.27667413408E+02 -0.10429710328E+01 -0.22795582781E+01  0.27780747640E+02  0.51100000000E-03 0. -1.
        -11    1    3    3    0    0 -0.10107387163E+01 -0.12596564416E+01  0.16103175758E+00  0.16230399229E+01  0.51100000000E-03 0.  1.
         12    1    3    3    0    0 -0.43431938172E+01 -0.11392442930E+02 -0.17251594483E+02  0.21125070429E+02  0.00000000000E+00 0. -1.
</event>
<event>
 7    1  0.5839176E-013  0.5052886E+02  0.7816164E-02  0.1300439E+00
        -11   -1    0    0    0    0  0.00000000000E+00  0.00000000000E+00  0.45593999997E+02  0.45594000000E+02  0.51100000000E-03 0.  1.
         11   -1    0    0    0    0 -0.00000000000E+00 -0.00000000000E+00 -0.45593999997E+02  0.45594000000E+02  0.51100000000E-03 0. -1.
    9900012    2    1    2    0    0  0.16054833432E+01 -0.97175286653E+01 -0.39448164058E+02  0.50528860958E+02  0.30000003367E+02 0.  0.
        -12    1    1    2    0    0 -0.16054833432E+01  0.97175286653E+01  0.39448164058E+02  0.40659139042E+02  0.00000000000E+00 0.  1.
         11    1    3    3    0    0 -0.26015954187E+00  0.66391140322E+01 -0.16856316690E+02  0.18118524518E+02  0.51100000000E-03 0. -1.
        -11    1    3    3    0    0 -0.29426667536E+01 -0.20188998222E+01  0.15759690935E+01  0.39011438015E+01  0.51100000000E-03 0.  1.
         12    1    3    3    0    0  0.48083096387E+01 -0.14337742875E+02 -0.24167816462E+02  0.28509192638E+02  0.00000000000E+00 0. -1.
</event>
<event>
 7    1  0.5839176E-013  0.5052886E+02  0.7816164E-02  0.1300439E+00
        -11   -1    0    0    0    0  0.00000000000E+00  0.00000000000E+00  0.45593999997E+02  0.45594000000E+02  0.51100000000E-03 0.  1.
         11   -1    0    0    0    0 -0.00000000000E+00 -0.00000000000E+00 -0.45593999997E+02  0.45594000000E+02  0.51100000000E-03 0. -1.
    9900012    2    1    2    0    0  0.82463671766E+01 -0.62134284520E+01 -0.39326281795E+02  0.50528859520E+02  0.29999998998E+02 0.  0.
        -12    1    1    2    0    0 -0.82463671766E+01  0.62134284520E+01  0.39326281795E+02  0.40659140480E+02  0.00000000000E+00 0.  1.
         11    1    3    3    0    0  0.54781437481E+01 -0.32514085673E+01 -0.23974608201E+02  0.24806522434E+02  0.51100000000E-03 0. -1.
        -11    1    3    3    0    0  0.79348610064E+01 -0.68507406051E+01 -0.16100559510E+02  0.19212565753E+02  0.51100000000E-03 0.  1.
        -12    1    3    3    0    0 -0.51666375778E+01  0.38887207204E+01  0.74888591604E+00  0.65097713337E+01  0.00000000000E+00 0.  1.
</event>
<event>
 7    1  0.5839176E-013  0.5052888E+02  0.7816164E-02  0.1300439E+00
        -11   -1    0    0    0    0  0.00000000000E+00  0.00000000000E+00  0.45593999997E+02  0.45594000000E+02  0.51100000000E-03 0. -1.
         11   -1    0    0    0    0 -0.00000000000E+00 -0.00000000000E+00 -0.45593999997E+02  0.45594000000E+02  0.51100000000E-03 0.  1.
    9900012    2    1    2    0    0 -0.27310403389E+02 -0.29406039721E+02  0.65261423029E+01  0.50528882465E+02  0.30000068741E+02 0.  0.
        -12    1    1    2    0    0  0.27310403389E+02  0.29406039721E+02 -0.65261423029E+01  0.40659117535E+02  0.00000000000E+00 0.  1.
         11    1    3    3    0    0 -0.82817127403E+00 -0.34668610359E+01 -0.53214338296E+01  0.64048927677E+01  0.51100000000E-03 0. -1.
        -11    1    3    3    0    0 -0.41542557571E+01 -0.10568010487E+02 -0.47832595771E+01  0.12321536390E+02  0.51100000000E-03 0.  1.
         12    1    3    3    0    0 -0.22327976358E+02 -0.15371168198E+02  0.16630835710E+02  0.31802453308E+02  0.00000000000E+00 0. -1.
</event>
<event>
 7    1  0.5839176E-013  0.5052886E+02  0.7816164E-02  0.1300439E+00
        -11   -1    0    0    0    0  0.00000000000E+00  0.00000000000E+00  0.45593999997E+02  0.45594000000E+02  0.51100000000E-03 0. -1.
         11   -1    0    0    0    0 -0.00000000000E+00 -0.00000000000E+00 -0.45593999997E+02  0.45594000000E+02  0.51100000000E-03 0.  1.
    9900012    2    1    2    0    0  0.12432056158E+02  0.14339244960E+01  0.38685312944E+02  0.50528860838E+02  0.30000003005E+02 0.  0.
        -12    1    1    2    0    0 -0.12432056158E+02 -0.14339244960E+01 -0.38685312944E+02  0.40659139162E+02  0.00000000000E+00 0.  1.
         11    1    3    3    0    0 -0.58607202620E+01 -0.27139244123E+01  0.10656158707E+02  0.12460623835E+02  0.51100000000E-03 0. -1.
        -11    1    3    3    0    0  0.82424645046E+01  0.45900172445E+00  0.25858812069E+02  0.27144558673E+02  0.51100000000E-03 0.  1.
        -12    1    3    3    0    0  0.10050311916E+02  0.36888471838E+01  0.21703421688E+01  0.10923678331E+02  0.00000000000E+00 0.  1.
</event>
<event>
 7    1  0.5839176E-013  0.5052886E+02  0.7816164E-02  0.1300439E+00
        -11   -1    0    0    0    0  0.00000000000E+00  0.00000000000E+00  0.45593999997E+02  0.45594000000E+02  0.51100000000E-03 0.  1.
         11   -1    0    0    0    0 -0.00000000000E+00 -0.00000000000E+00 -0.45593999997E+02  0.45594000000E+02  0.51100000000E-03 0. -1.
    9900012    2    1    2    0    0 -0.18693173993E+02 -0.29508678583E+02 -0.20807905568E+02  0.50528858350E+02  0.29999995439E+02 0.  0.
        -12    1    1    2    0    0  0.18693173993E+02  0.29508678583E+02  0.20807905568E+02  0.40659141650E+02  0.00000000000E+00 0.  1.
         11    1    3    3    0    0 -0.12458135948E+02 -0.58941501414E+01 -0.89711469580E+00  0.13811262514E+02  0.51100000000E-03 0.  1.
        -11    1    3    3    0    0 -0.62596259340E+01 -0.81099928937E+01 -0.18502254308E+02  0.21149191860E+02  0.51100000000E-03 0. -1.
         12    1    3    3    0    0  0.24587888885E-01 -0.15504535548E+02 -0.14085365637E+01  0.15568403976E+02  0.00000000000E+00 0. -1.
</event>
<event>
 7    1  0.5839176E-013  0.5052885E+02  0.7816164E-02  0.1300439E+00
        -11   -1    0    0    0    0  0.00000000000E+00  0.00000000000E+00  0.45593999997E+02  0.45594000000E+02  0.51100000000E-03 0.  1.
         11   -1    0    0    0    0 -0.00000000000E+00 -0.00000000000E+00 -0.45593999997E+02  0.45594000000E+02  0.51100000000E-03 0. -1.
    9900012    2    1    2    0    0 -0.38787580866E+02  0.76472160113E-01  0.12193613941E+02  0.50528849759E+02  0.29999969327E+02 0.  0.
        -12    1    1    2    0    0  0.38787580866E+02 -0.76472160113E-01 -0.12193613941E+02  0.40659150241E+02  0.00000000000E+00 0.  1.
         11    1    3    3    0    0 -0.30138459603E+02  0.10454207392E+02  0.78851130962E+01  0.32860191848E+02  0.51100000000E-03 0. -1.
        -11    1    3    3    0    0 -0.38289632689E+01  0.43719350982E+00  0.43719282417E+01  0.58280232233E+01  0.51100000000E-03 0.  1.
        -12    1    3    3    0    0 -0.48201579933E+01 -0.10814928742E+02 -0.63427397259E-01  0.11840634688E+02  0.00000000000E+00 0.  1.
</event>
<event>
 7    1  0.5839176E-013  0.5052887E+02  0.7816164E-02  0.1300439E+00
        -11   -1    0    0    0    0  0.00000000000E+00  0.00000000000E+00  0.45593999997E+02  0.45594000000E+02  0.51100000000E-03 0. -1.
         11   -1    0    0    0    0 -0.00000000000E+00 -0.00000000000E+00 -0.45593999997E+02  0.45594000000E+02  0.51100000000E-03 0.  1.
    9900012    2    1    2    0    0  0.37927603816E+02 -0.38899331537E+01  0.14125507782E+02  0.50528872105E+02  0.30000037249E+02 0.  0.
        -12    1    1    2    0    0 -0.37927603816E+02  0.38899331537E+01 -0.14125507782E+02  0.40659127895E+02  0.00000000000E+00 0.  1.
         11    1    3    3    0    0  0.23454498836E+02 -0.91891597813E+01  0.10839467938E+02  0.27423497927E+02  0.51100000000E-03 0.  1.
        -11    1    3    3    0    0  0.46188544269E+01  0.19029105276E+01  0.96689330359E+01  0.10883159055E+02  0.51100000000E-03 0. -1.
        -12    1    3    3    0    0  0.98542505526E+01  0.33963161001E+01 -0.63828931919E+01  0.12222215123E+02  0.00000000000E+00 0.  1.
</event>
<event>
 7    1  0.6177726E-013  0.5052886E+02  0.7816164E-02  0.1300439E+00
        -11   -1    0    0    0    0  0.00000000000E+00  0.00000000000E+00  0.45593999997E+02  0.45594000000E+02  0.51100000000E-03 0.  1.
         11   -1    0    0    0    0 -0.00000000000E+00 -0.00000000000E+00 -0.45593999997E+02  0.45594000000E+02  0.51100000000E-03 0. -1.
    9900012    2    1    2    0    0  0.36582098119E+02 -0.68467246042E+01 -0.16371879247E+02  0.50528856247E+02  0.29999989048E+02 0.  0.
        -12    1    1    2    0    0 -0.36582098119E+02  0.68467246042E+01  0.16371879247E+02  0.40659143753E+02  0.00000000000E+00 0.  1.
         11    1    3    3    0    0  0.15367607590E+02 -0.27624570505E+01 -0.84950402766E+01  0.17775270506E+02  0.51100000000E-03 0. -1.
        -11    1    3    3    0    0  0.11395580092E+02 -0.61044879245E+01 -0.15482686306E+02  0.20170215516E+02  0.51100000000E-03 0.  1.
        -12    1    3    3    0    0  0.98189104374E+01  0.20202203709E+01  0.76058473353E+01  0.12583370225E+02  0.00000000000E+00 0.  1.
</event>
<event>
 7    1  0.5839176E-013  0.5052887E+02  0.7816164E-02  0.1300439E+00
        -11   -1    0    0    0    0  0.00000000000E+00  0.00000000000E+00  0.45593999997E+02  0.45594000000E+02  0.51100000000E-03 0.  1.
         11   -1    0    0    0    0 -0.00000000000E+00 -0.00000000000E+00 -0.45593999997E+02  0.45594000000E+02  0.51100000000E-03 0. -1.
    9900012    2    1    2    0    0  0.18386938811E+02 -0.19608480646E+02 -0.30505624662E+02  0.50528866117E+02  0.30000019048E+02 0.  0.
        -12    1    1    2    0    0 -0.18386938811E+02  0.19608480646E+02  0.30505624662E+02  0.40659133883E+02  0.00000000000E+00 0.  1.
         11    1    3    3    0    0 -0.79598099038E+00 -0.92734430013E+01  0.19357734008E+01  0.95067107748E+01  0.51100000000E-03 0. -1.
        -11    1    3    3    0    0  0.28037703620E+01 -0.17180980361E+01  0.41239244173E+00  0.33140695363E+01  0.51100000000E-03 0.  1.
         12    1    3    3    0    0  0.16379149440E+02 -0.86169396089E+01 -0.32853790505E+02  0.37708085806E+02  0.00000000000E+00 0. -1.
</event>
<event>
 7    1  0.5839176E-013  0.5052886E+02  0.7816164E-02  0.1300439E+00
        -11   -1    0    0    0    0  0.00000000000E+00  0.00000000000E+00  0.45593999997E+02  0.45594000000E+02  0.51100000000E-03 0.  1.
         11   -1    0    0    0    0 -0.00000000000E+00 -0.00000000000E+00 -0.45593999997E+02  0.45594000000E+02  0.51100000000E-03 0. -1.
    9900012    2    1    2    0    0 -0.73417213395E+01 -0.14729154285E+02 -0.37179521055E+02  0.50528860264E+02  0.30000001259E+02 0.  0.
        -12    1    1    2    0    0  0.73417213395E+01  0.14729154285E+02  0.37179521055E+02  0.40659139736E+02  0.00000000000E+00 0.  1.
         11    1    3    3    0    0 -0.28857266615E+01 -0.60706019279E+01 -0.10604185045E+01  0.68047126169E+01  0.51100000000E-03 0.  1.
        -11    1    3    3    0    0 -0.79212151965E+01 -0.30159580256E+01 -0.16630017803E+01  0.86375475793E+01  0.51100000000E-03 0. -1.
         12    1    3    3    0    0  0.34652205185E+01 -0.56425943315E+01 -0.34456100770E+02  0.35086600068E+02  0.00000000000E+00 0. -1.
</event>
<event>
 7    1  0.5839176E-013  0.5052886E+02  0.7816164E-02  0.1300439E+00
        -11   -1    0    0    0    0  0.00000000000E+00  0.00000000000E+00  0.45593999997E+02  0.45594000000E+02  0.51100000000E-03 0.  1.
         11   -1    0    0    0    0 -0.00000000000E+00 -0.00000000000E+00 -0.45593999997E+02  0.45594000000E+02  0.51100000000E-03 0. -1.
    9900012    2    1    2    0    0 -0.10014526463E+02  0.32693112817E+02 -0.22000806531E+02  0.50528857683E+02  0.29999993412E+02 0.  0.
        -12    1    1    2    0    0  0.10014526463E+02 -0.32693112817E+02  0.22000806531E+02  0.40659142317E+02  0.00000000000E+00 0.  1.
         11    1    3    3    0    0  0.10154146999E+00  0.86811085741E+01 -0.89812665465E+01  0.12491401274E+02  0.51100000000E-03 0. -1.
        -11    1    3    3    0    0 -0.40830691378E+01  0.96665218888E+01 -0.18722765381E+02  0.21462875921E+02  0.51100000000E-03 0.  1.
        -12    1    3    3    0    0 -0.60329987951E+01  0.14345482354E+02  0.57032253963E+01  0.16574580488E+02  0.00000000000E+00 0.  1.
</event>
<event>
 7    1  0.5839176E-013  0.5052884E+02  0.7816164E-02  0.1300439E+00
        -11   -1    0    0    0    0  0.00000000000E+00  0.00000000000E+00  0.45593999997E+02  0.45594000000E+02  0.51100000000E-03 0. -1.
         11   -1    0    0    0    0 -0.00000000000E+00 -0.00000000000E+00 -0.45593999997E+02  0.45594000000E+02  0.51100000000E-03 0.  1.
    9900012    2    1    2    0    0 -0.33442436456E+02 -0.20264934464E+02  0.11140142172E+02  0.50528844911E+02  0.29999954592E+02 0.  0.
        -12    1    1    2    0    0  0.33442436456E+02  0.20264934464E+02 -0.11140142172E+02  0.40659155089E+02  0.00000000000E+00 0.  1.
         11    1    3    3    0    0 -0.12440615556E+02 -0.82510979490E+01  0.44871296360E+01  0.15587939742E+02  0.51100000000E-03 0. -1.
        -11    1    3    3    0    0 -0.18892760589E+02 -0.12345545872E+02 -0.49816092953E+01  0.23112017155E+02  0.51100000000E-03 0.  1.
         12    1    3    3    0    0 -0.21090603106E+01  0.33170935705E+00  0.11634621831E+02  0.11828888014E+02  0.00000000000E+00 0. -1.
</event>
<event>
 7    1  0.5839176E-013  0.5052886E+02  0.7816164E-02  0.1300439E+00
        -11   -1    0    0    0    0  0.00000000000E+00  0.00000000000E+00  0.45593999997E+02  0.45594000000E+02  0.51100000000E-03 0. -1.
         11   -1    0    0    0    0 -0.00000000000E+00 -0.00000000000E+00 -0.45593999997E+02  0.45594000000E+02  0.51100000000E-03 0.  1.
    9900012    2    1    2    0    0  0.37583870813E+02 -0.15474159129E+02  0.10811666937E+01  0.50528857517E+02  0.29999992909E+02 0.  0.
        -12    1    1    2    0    0 -0.37583870813E+02  0.15474159129E+02 -0.10811666937E+01  0.40659142483E+02  0.00000000000E+00 0.  1.
         11    1    3    3    0    0 -0.24795460692E+00 -0.36233419433E+01  0.47563083874E+01  0.59843594530E+01  0.51100000000E-03 0. -1.
        -11    1    3    3    0    0  0.58553701788E+01  0.23769663943E+01  0.54837786852E+01  0.83670280327E+01  0.51100000000E-03 0.  1.
         12    1    3    3    0    0  0.31976455241E+02 -0.14227783580E+02 -0.91589203789E+01  0.36177470031E+02  0.00000000000E+00 0. -1.
</event>
<event>
 7    1  0.5839176E-013  0.5052886E+02  0.7816164E-02  0.1300439E+00
        -11   -1    0    0    0    0  0.00000000000E+00  0.00000000000E+00  0.45593999997E+02  0.45594000000E+02  0.51100000000E-03 0.  1.
         11   -1    0    0    0    0 -0.00000000000E+00 -0.00000000000E+00 -0.45593999997E+02  0.45594000000E+02  0.51100000000E-03 0. -1.
    9900012    2    1    2    0    0 -0.28769361691E+02  0.10480324922E+02 -0.26751681121E+02  0.50528858034E+02  0.29999994481E+02 0.  0.
        -12    1    1    2    0    0  0.28769361691E+02 -0.10480324922E+02  0.26751681121E+02  0.40659141966E+02  0.00000000000E+00 0.  1.
         11    1    3    3    0    0 -0.72257200722E+01  0.12234055436E+02 -0.83076124324E+01  0.16459026932E+02  0.51100000000E-03 0. -1.
        -11    1    3    3    0    0 -0.15305696917E+02 -0.27173423661E+01 -0.10666576216E+01  0.15581593833E+02  0.51100000000E-03 0.  1.
         12    1    3    3    0    0 -0.62379447027E+01  0.96361185182E+00 -0.17377411067E+02  0.18488237269E+02  0.00000000000E+00 0. -1.
</event>
<event>
 7    1  0.5839176E-013  0.5052886E+02  0.7816164E-02  0.1300439E+00
        -11   -1    0    0    0    0  0.00000000000E+00  0.00000000000E+00  0.45593999997E+02  0.45594000000E+02  0.51100000000E-03 0.  1.
         11   -1    0    0    0    0 -0.00000000000E+00 -0.00000000000E+00 -0.45593999997E+02  0.45594000000E+02  0.51100000000E-03 0. -1.
    9900012    2    1    2    0    0 -0.16314028451E+02 -0.36296309236E+02  0.83424129713E+01  0.50528862741E+02  0.30000008788E+02 0.  0.
        -12    1    1    2    0    0  0.16314028451E+02  0.36296309236E+02 -0.83424129713E+01  0.40659137259E+02  0.00000000000E+00 0.  1.
         11    1    3    3    0    0 -0.17158053911E+02 -0.17063713766E+02  0.12396504638E+02  0.27189013756E+02  0.51100000000E-03 0. -1.
        -11    1    3    3    0    0 -0.49722170368E+01 -0.80045321811E+01  0.14766624059E+01  0.95381345043E+01  0.51100000000E-03 0.  1.
        -12    1    3    3    0    0  0.58162424974E+01 -0.11228063289E+02 -0.55307540730E+01  0.13801714481E+02  0.00000000000E+00 0.  1.
</event>
<event>
 7    1  0.5839176E-013  0.5052892E+02  0.7816164E-02  0.1300439E+00
        -11   -1    0    0    0    0  0.00000000000E+00  0.00000000000E+00  0.45593999997E+02  0.45594000000E+02  0.51100000000E-03 0. -1.
         11   -1    0    0    0    0 -0.00000000000E+00 -0.00000000000E+00 -0.45593999997E+02  0.45594000000E+02  0.51100000000E-03 0.  1.
    9900012    2    1    2    0    0  0.18193354021E+02  0.35095690617E+02  0.95108119008E+01  0.50528915241E+02  0.30000168366E+02 0.  0.
        -12    1    1    2    0    0 -0.18193354021E+02 -0.35095690617E+02 -0.95108119008E+01  0.40659084759E+02  0.00000000000E+00 0.  1.
         11    1    3    3    0    0  0.78726990544E+01  0.38230659940E+01 -0.63119786375E+01  0.10790565258E+02  0.51100000000E-03 0. -1.
        -11    1    3    3    0    0 -0.76913279405E+00 -0.15867825691E+01  0.95552979633E+00  0.20056125322E+01  0.51100000000E-03 0.  1.
         12    1    3    3    0    0  0.11089787761E+02  0.32859407192E+02  0.14867260742E+02  0.37732737451E+02  0.00000000000E+00 0. -1.
</event>
<event>
 7    1  0.5839176E-013  0.5052886E+02  0.7816164E-02  0.1300439E+00
        -11   -1    0    0    0    0  0.00000000000E+00  0.00000000000E+00  0.45593999997E+02  0.45594000000E+02  0.51100000000E-03 0.  1.
         11   -1    0    0    0    0 -0.00000000000E+00 -0.00000000000E+00 -0.45593999997E+02  0.45594000000E+02  0.51100000000E-03 0. -1.
    9900012    2    1    2    0    0 -0.23401470000E+02 -0.28803323222E+02 -0.16610391388E+02  0.50528864141E+02  0.30000013042E+02 0.  0.
        -12    1    1    2    0    0  0.23401470000E+02  0.28803323222E+02  0.16610391388E+02  0.40659135859E+02  0.00000000000E+00 0.  1.
         11    1    3    3    0    0 -0.15131845469E+02 -0.78105802367E+01  0.39507031345E+00  0.17033320045E+02  0.51100000000E-03 0. -1.
        -11    1    3    3    0    0 -0.64931742984E+01 -0.28986586278E+01  0.18034151024E+01  0.73359280669E+01  0.51100000000E-03 0.  1.
         12    1    3    3    0    0 -0.17764502321E+01 -0.18094084358E+02 -0.18808876803E+02  0.26159616029E+02  0.00000000000E+00 0. -1.
</event>
<event>
 7    1  0.5839176E-013  0.5052886E+02  0.7816164E-02  0.1300439E+00
        -11   -1    0    0    0    0  0.00000000000E+00  0.00000000000E+00  0.45593999997E+02  0.45594000000E+02  0.51100000000E-03 0. -1.
         11   -1    0    0    0    0 -0.00000000000E+00 -0.00000000000E+00 -0.45593999997E+02  0.45594000000E+02  0.51100000000E-03 0.  1.
    9900012    2    1    2    0    0 -0.36306043812E+02 -0.18051468668E+02  0.30301030124E+01  0.50528857576E+02  0.29999993089E+02 0.  0.
        -12    1    1    2    0    0  0.36306043812E+02  0.18051468668E+02 -0.30301030124E+01  0.40659142424E+02  0.00000000000E+00 0.  1.
         11    1    3    3    0    0 -0.19657733016E+02 -0.14438820234E+02  0.12224887667E+02  0.27282849481E+02  0.51100000000E-03 0. -1.
        -11    1    3    3    0    0 -0.17241183288E+01 -0.14011730001E+01  0.30790286279E+01  0.37968786313E+01  0.51100000000E-03 0.  1.
         12    1    3    3    0    0 -0.14924192468E+02 -0.22114754338E+01 -0.12273813283E+02  0.19449129464E+02  0.00000000000E+00 0. -1.
</event>
<event>
 7    1  0.5839176E-013  0.5052886E+02  0.7816164E-02  0.1300439E+00
        -11   -1    0    0    0    0  0.00000000000E+00  0.00000000000E+00  0.45593999997E+02  0.45594000000E+02  0.51100000000E-03 0.  1.
         11   -1    0    0    0    0 -0.00000000000E+00 -0.00000000000E+00 -0.45593999997E+02  0.45594000000E+02  0.51100000000E-03 0. -1.
    9900012    2    1    2    0    0  0.10849171696E+02 -0.30969307315E+02  0.24007562461E+02  0.50528861084E+02  0.30000003752E+02 0.  0.
        -12    1    1    2    0    0 -0.10849171696E+02  0.30969307315E+02 -0.24007562461E+02  0.40659138916E+02  0.00000000000E+00 0.  1.
         11    1    3    3    0    0  0.37553533139E+01 -0.70288547127E+01  0.54708864071E+01  0.96663372290E+01  0.51100000000E-03 0. -1.
        -11    1    3    3    0    0  0.87706853128E+01 -0.10875247934E+02  0.23037066312E+02  0.26942575285E+02  0.51100000000E-03 0.  1.
        -12    1    3    3    0    0 -0.16768669307E+01 -0.13065204668E+02 -0.45003902581E+01  0.13919948570E+02  0.00000000000E+00 0.  1.
</event>
<event>
 7    1  0.5839176E-013  0.5052886E+02  0.7816164E-02  0.1300439E+00
        -11   -1    0    0    0    0  0.00000000000E+00  0.00000000000E+00  0.45593999997E+02  0.45594000000E+02  0.51100000000E-03 0. -1.
         11   -1    0    0    0    0 -0.00000000000E+00 -0.00000000000E+00 -0.45593999997E+02  0.45594000000E+02  0.51100000000E-03 0.  1.
    9900012    2    1    2    0    0  0.39298048705E+02  0.21353646705E+01 -0.10211241093E+02  0.50528857622E+02  0.29999993227E+02 0.  0.
        -12    1    1    2    0    0 -0.39298048705E+02 -0.21353646705E+01  0.10211241093E+02  0.40659142378E+02  0.00000000000E+00 0.  1.
         11    1    3    3    0    0  0.47754326386E+01 -0.22835709363E+01 -0.14755561881E+01  0.54951541773E+01  0.51100000000E-03 0. -1.
        -11    1    3    3    0    0  0.27741732178E+02 -0.43007638154E+01 -0.15513135447E+02  0.32074252061E+02  0.51100000000E-03 0.  1.
         12    1    3    3    0    0  0.67808838887E+01  0.87196994223E+01  0.67774505413E+01  0.12959451384E+02  0.00000000000E+00 0. -1.
</event>
<event>
 7    1  0.5839176E-013  0.5052886E+02  0.7816164E-02  0.1300439E+00
        -11   -1    0    0    0    0  0.00000000000E+00  0.00000000000E+00  0.45593999997E+02  0.45594000000E+02  0.51100000000E-03 0.  1.
         11   -1    0    0    0    0 -0.00000000000E+00 -0.00000000000E+00 -0.45593999997E+02  0.45594000000E+02  0.51100000000E-03 0. -1.
    9900012    2    1    2    0    0 -0.16263389358E+02 -0.87575630004E+01 -0.36221167787E+02  0.50528859097E+02  0.29999997711E+02 0.  0.
        -12    1    1    2    0    0  0.16263389358E+02  0.87575630004E+01  0.36221167787E+02  0.40659140903E+02  0.00000000000E+00 0.  1.
         11    1    3    3    0    0 -0.12895017719E+02 -0.56230445414E+01 -0.21884968679E+02  0.26016378807E+02  0.51100000000E-03 0. -1.
        -11    1    3    3    0    0 -0.11468879696E+02 -0.17744917630E+01 -0.74201226785E+01  0.13774695762E+02  0.51100000000E-03 0.  1.
         12    1    3    3    0    0  0.81005080570E+01 -0.13600266961E+01 -0.69160764291E+01  0.10737784528E+02  0.00000000000E+00 0. -1.
</event>
<event>
 7    1  0.5839176E-013  0.5052885E+02  0.7816164E-02  0.1300439E+00
        -11   -1    0    0    0    0  0.00000000000E+00  0.00000000000E+00  0.45593999997E+02  0.45594000000E+02  0.51100000000E-03 0.  1.
         11   -1    0    0    0    0 -0.00000000000E+00 -0.00000000000E+00 -0.45593999997E+02  0.45594000000E+02  0.51100000000E-03 0. -1.
    9900012    2    1    2    0    0  0.15399073708E+02  0.10787827538E+02 -0.36050763358E+02  0.50528853024E+02  0.29999979253E+02 0.  0.
        -12    1    1    2    0    0 -0.15399073708E+02 -0.10787827538E+02  0.36050763358E+02  0.40659146976E+02  0.00000000000E+00 0.  1.
         11    1    3    3    0    0  0.98790707757E+01 -0.37383495516E-01  0.51548036875E+00  0.98925809165E+01  0.51100000000E-03 0. -1.
        -11    1    3    3    0    0  0.58455292170E+00 -0.24896539310E+01 -0.19354386557E+01  0.32071797370E+01  0.51100000000E-03 0.  1.
         12    1    3    3    0    0  0.49354500110E+01  0.13314864964E+02 -0.34630805071E+02  0.37429092371E+02  0.00000000000E+00 0. -1.
</event>
<event>
 7    1  0.5839176E-013  0.5052881E+02  0.7816164E-02  0.1300439E+00
        -11   -1    0    0    0    0  0.00000000000E+00  0.00000000000E+00  0.45593999997E+02  0.45594000000E+02  0.51100000000E-03 0.  1.
         11   -1    0    0    0    0 -0.00000000000E+00 -0.00000000000E+00 -0.45593999997E+02  0.45594000000E+02  0.51100000000E-03 0. -1.
    9900012    2    1    2    0    0  0.32210579845E+02 -0.19084559126E+02 -0.15856472739E+02  0.50528811878E+02  0.29999854184E+02 0.  0.
        -12    1    1    2    0    0 -0.32210579845E+02  0.19084559126E+02  0.15856472739E+02  0.40659188122E+02  0.00000000000E+00 0.  1.
         11    1    3    3    0    0 -0.47137316282E+01 -0.48553657191E+01 -0.38147670972E+01  0.77682874815E+01  0.51100000000E-03 0. -1.
        -11    1    3    3    0    0  0.79533153453E+01 -0.56051959078E+01 -0.72989058918E+01  0.12163366048E+02  0.51100000000E-03 0.  1.
        -12    1    3    3    0    0  0.28970996128E+02 -0.86239974991E+01 -0.47427997502E+01  0.30597158348E+02  0.00000000000E+00 0.  1.
</event>
<event>
 7    1  0.5839176E-013  0.5052888E+02  0.7816164E-02  0.1300439E+00
        -11   -1    0    0    0    0  0.00000000000E+00  0.00000000000E+00  0.45593999997E+02  0.45594000000E+02  0.51100000000E-03 0. -1.
         11   -1    0    0    0    0 -0.00000000000E+00 -0.00000000000E+00 -0.45593999997E+02  0.45594000000E+02  0.51100000000E-03 0.  1.
    9900012    2    1    2    0    0  0.73755764899E+01  0.22368646380E+02  0.33142241690E+02  0.50528884741E+02  0.30000075658E+02 0.  0.
        -12    1    1    2    0    0 -0.73755764899E+01 -0.22368646380E+02 -0.33142241690E+02  0.40659115259E+02  0.00000000000E+00 0.  1.
         11    1    3    3    0    0  0.58809556212E+00  0.64483875625E+01  0.55915026720E+01  0.85552592561E+01  0.51100000000E-03 0. -1.
        -11    1    3    3    0    0 -0.11055050503E+01  0.12699589483E+02 -0.39787242859E+00  0.12753823630E+02  0.51100000000E-03 0.  1.
        -12    1    3    3    0    0  0.78929859780E+01  0.32206693337E+01  0.27948611447E+02  0.29219801854E+02  0.00000000000E+00 0.  1.
</event>
<event>
 7    1  0.5839176E-013  0.5052885E+02  0.7816164E-02  0.1300439E+00
        -11   -1    0    0    0    0  0.00000000000E+00  0.00000000000E+00  0.45593999997E+02  0.45594000000E+02  0.51100000000E-03 0. -1.
         11   -1    0    0    0    0 -0.00000000000E+00 -0.00000000000E+00 -0.45593999997E+02  0.45594000000E+02  0.51100000000E-03 0.  1.
    9900012    2    1    2    0    0 -0.33333030722E+02 -0.84204436251E+01  0.21706494026E+02  0.50528847391E+02  0.29999962131E+02 0.  0.
        -12    1    1    2    0    0  0.33333030722E+02  0.84204436251E+01 -0.21706494026E+02  0.40659152609E+02  0.00000000000E+00 0.  1.
         11    1    3    3    0    0 -0.80679131537E+00 -0.29968767642E+01 -0.11015172890E+01  0.32932541909E+01  0.51100000000E-03 0. -1.
        -11    1    3    3    0    0 -0.34010412124E+01  0.52417006233E+01 -0.29578061619E+01  0.69131124904E+01  0.51100000000E-03 0.  1.
         12    1    3    3    0    0 -0.29125198194E+02 -0.10665267484E+02  0.25765817477E+02  0.40322480710E+02  0.00000000000E+00 0. -1.
</event>
<event>
 7    1  0.5839176E-013  0.5052886E+02  0.7816164E-02  0.1300439E+00
        -11   -1    0    0    0    0  0.00000000000E+00  0.00000000000E+00  0.45593999997E+02  0.45594000000E+02  0.51100000000E-03 0.  1.
         11   -1    0    0    0    0 -0.00000000000E+00 -0.00000000000E+00 -0.45593999997E+02  0.45594000000E+02  0.51100000000E-03 0. -1.
    9900012    2    1    2    0    0  0.28288339487E+02  0.11671933606E+02 -0.26771284505E+02  0.50528857620E+02  0.29999993221E+02 0.  0.
        -12    1    1    2    0    0 -0.28288339487E+02 -0.11671933606E+02  0.26771284505E+02  0.40659142380E+02  0.00000000000E+00 0.  1.
         11    1    3    3    0    0  0.20577953322E+01 -0.25574363365E+01 -0.81598441094E+01  0.87953429947E+01  0.51100000000E-03 0. -1.
        -11    1    3    3    0    0  0.12641664184E+02  0.37724802525E+01 -0.20610186558E+02  0.24470861669E+02  0.51100000000E-03 0.  1.
        -12    1    3    3    0    0  0.13588879971E+02  0.10456889690E+02  0.19987461628E+01  0.17262652956E+02  0.00000000000E+00 0.  1.
</event>
<event>
 7    1  0.5839176E-013  0.5052886E+02  0.7816164E-02  0.1300439E+00
        -11   -1    0    0    0    0  0.00000000000E+00  0.00000000000E+00  0.45593999997E+02  0.45594000000E+02  0.51100000000E-03 0. -1.
         11   -1    0    0    0    0 -0.00000000000E+00 -0.00000000000E+00 -0.45593999997E+02  0.45594000000E+02  0.51100000000E-03 0.  1.
    9900012    2    1    2    0    0 -0.28572622934E+02 -0.27728107012E+01  0.28793794910E+02  0.50528857290E+02  0.29999992220E+02 0.  0.
        -12    1    1    2    0    0  0.28572622934E+02  0.27728107012E+01 -0.28793794910E+02  0.40659142710E+02  0.00000000000E+00 0.  1.
         11    1    3    3    0    0 -0.49882945839E+01  0.11444652812E+01  0.18327850042E+02  0.19029003418E+02  0.51100000000E-03 0. -1.
        -11    1    3    3    0    0 -0.22216325308E+01 -0.74458338789E+01  0.47457681157E+01  0.91048563154E+01  0.51100000000E-03 0.  1.
         12    1    3    3    0    0 -0.21362695820E+02  0.35285578966E+01  0.57201767524E+01  0.22394997557E+02  0.00000000000E+00 0. -1.
</event>
<event>
 7    1  0.5839176E-013  0.5052885E+02  0.7816164E-02  0.1300439E+00
        -11   -1    0    0    0    0  0.00000000000E+00  0.00000000000E+00  0.45593999997E+02  0.45594000000E+02  0.51100000000E-03 0.  1.
         11   -1    0    0    0    0 -0.00000000000E+00 -0.00000000000E+00 -0.45593999997E+02  0.45594000000E+02  0.51100000000E-03 0. -1.
    9900012    2    1    2    0    0 -0.10860034798E+02  0.22949716688E+02 -0.31757465435E+02  0.50528850197E+02  0.29999970660E+02 0.  0.
        -12    1    1    2    0    0  0.10860034798E+02 -0.22949716688E+02  0.31757465435E+02  0.40659149803E+02  0.00000000000E+00 0.  1.
         11    1    3    3    0    0 -0.50941074123E+01 -0.20284945746E+00 -0.18646966622E+01  0.54284594623E+01  0.51100000000E-03 0. -1.
        -11    1    3    3    0    0  0.90404571731E+00 -0.27053908944E+01  0.20149911669E+01  0.34923671363E+01  0.51100000000E-03 0.  1.
        -12    1    3    3    0    0 -0.66699731026E+01  0.25857957040E+02 -0.31907759939E+02  0.41608023599E+02  0.00000000000E+00 0.  1.
</event>
<event>
 7    1  0.5839176E-013  0.5052886E+02  0.7816164E-02  0.1300439E+00
        -11   -1    0    0    0    0  0.00000000000E+00  0.00000000000E+00  0.45593999997E+02  0.45594000000E+02  0.51100000000E-03 0. -1.
         11   -1    0    0    0    0 -0.00000000000E+00 -0.00000000000E+00 -0.45593999997E+02  0.45594000000E+02  0.51100000000E-03 0.  1.
    9900012    2    1    2    0    0 -0.16866537626E+02 -0.33298939091E+02  0.16120366904E+02  0.50528860004E+02  0.30000000469E+02 0.  0.
        -12    1    1    2    0    0  0.16866537626E+02  0.33298939091E+02 -0.16120366904E+02  0.40659139996E+02  0.00000000000E+00 0.  1.
         11    1    3    3    0    0 -0.39953450613E+01 -0.31569325154E+01 -0.55499878795E+01  0.75320230210E+01  0.51100000000E-03 0. -1.
        -11    1    3    3    0    0 -0.65462511563E+01 -0.13460270799E+02  0.52266483394E-01  0.14967799645E+02  0.51100000000E-03 0.  1.
         12    1    3    3    0    0 -0.63249414088E+01 -0.16681735776E+02  0.21618088300E+02  0.28029037338E+02  0.00000000000E+00 0. -1.
</event>
<event>
 7    1  0.5839176E-013  0.5052886E+02  0.7816164E-02  0.1300439E+00
        -11   -1    0    0    0    0  0.00000000000E+00  0.00000000000E+00  0.45593999997E+02  0.45594000000E+02  0.51100000000E-03 0.  1.
         11   -1    0    0    0    0 -0.00000000000E+00 -0.00000000000E+00 -0.45593999997E+02  0.45594000000E+02  0.51100000000E-03 0. -1.
    9900012    2    1    2    0    0 -0.18908508090E+02  0.35541086992E+02  0.56977851636E+01  0.50528864513E+02  0.30000014175E+02 0.  0.
        -12    1    1    2    0    0  0.18908508090E+02 -0.35541086992E+02 -0.56977851636E+01  0.40659135487E+02  0.00000000000E+00 0.  1.
         11    1    3    3    0    0 -0.76819513814E+01  0.15033449715E+01 -0.19568540817E+01  0.80685625293E+01  0.51100000000E-03 0. -1.
        -11    1    3    3    0    0  0.30973268452E+01 -0.11710661273E+01 -0.10338791089E+01  0.34689675314E+01  0.51100000000E-03 0.  1.
         12    1    3    3    0    0 -0.14323883554E+02  0.35208808147E+02  0.86885183542E+01  0.38991334453E+02  0.00000000000E+00 0. -1.
</event>
<event>
 7    1  0.5839176E-013  0.5052886E+02  0.7816164E-02  0.1300439E+00
        -11   -1    0    0    0    0  0.00000000000E+00  0.00000000000E+00  0.45593999997E+02  0.45594000000E+02  0.51100000000E-03 0. -1.
         11   -1    0    0    0    0 -0.00000000000E+00 -0.00000000000E+00 -0.45593999997E+02  0.45594000000E+02  0.51100000000E-03 0.  1.
    9900012    2    1    2    0    0  0.40400201425E+02  0.43886257430E+01  0.13150986730E+01  0.50528858401E+02  0.29999995595E+02 0.  0.
        -12    1    1    2    0    0 -0.40400201425E+02 -0.43886257430E+01 -0.13150986730E+01  0.40659141599E+02  0.00000000000E+00 0.  1.
         11    1    3    3    0    0  0.10854762076E+02  0.21301676124E+01  0.57135285001E+01  0.12450216141E+02  0.51100000000E-03 0. -1.
        -11    1    3    3    0    0  0.76498992778E+01 -0.68400792638E+01  0.63262513266E+01  0.12055251943E+02  0.51100000000E-03 0.  1.
        -12    1    3    3    0    0  0.21895540071E+02  0.90985373943E+01 -0.10724681154E+02  0.26023390317E+02  0.00000000000E+00 0.  1.
</event>
<event>
 7    1  0.5839176E-013  0.5052885E+02  0.7816164E-02  0.1300439E+00
        -11   -1    0    0    0    0  0.00000000000E+00  0.00000000000E+00  0.45593999997E+02  0.45594000000E+02  0.51100000000E-03 0.  1.
         11   -1    0    0    0    0 -0.00000000000E+00 -0.00000000000E+00 -0.45593999997E+02  0.45594000000E+02  0.51100000000E-03 0. -1.
    9900012    2    1    2    0    0 -0.30795032361E+02  0.18615225384E+02 -0.18928967534E+02  0.50528850401E+02  0.29999971278E+02 0.  0.
        -12    1    1    2    0    0  0.30795032361E+02 -0.18615225384E+02  0.18928967534E+02  0.40659149599E+02  0.00000000000E+00 0.  1.
         11    1    3    3    0    0 -0.12961630260E+02  0.13344256484E+02 -0.56862352270E+01  0.19452668491E+02  0.51100000000E-03 0. -1.
        -11    1    3    3    0    0 -0.12107991349E+02 -0.52926081987E+01 -0.26080387079E-01  0.13214228563E+02  0.51100000000E-03 0.  1.
         12    1    3    3    0    0 -0.57254107521E+01  0.10563577099E+02 -0.13216651919E+02  0.17861953347E+02  0.00000000000E+00 0. -1.
</event>
<event>
 7    1  0.5839176E-013  0.5052885E+02  0.7816164E-02  0.1300439E+00
        -11   -1    0    0    0    0  0.00000000000E+00  0.00000000000E+00  0.45593999997E+02  0.45594000000E+02  0.51100000000E-03 0.  1.
         11   -1    0    0    0    0 -0.00000000000E+00 -0.00000000000E+00 -0.45593999997E+02  0.45594000000E+02  0.51100000000E-03 0. -1.
    9900012    2    1    2    0    0  0.33488067349E+02 -0.72545300639E+00 -0.23047551163E+02  0.50528849105E+02  0.29999967341E+02 0.  0.
        -12    1    1    2    0    0 -0.33488067349E+02  0.72545300639E+00  0.23047551163E+02  0.40659150895E+02  0.00000000000E+00 0.  1.
         11    1    3    3    0    0  0.25033833988E+01  0.79657313743E+01 -0.11851270444E+02  0.14497324449E+02  0.51100000000E-03 0. -1.
        -11    1    3    3    0    0 -0.10540910054E+01 -0.38405629202E+00 -0.63519071975E+00  0.12892147202E+01  0.51100000000E-03 0.  1.
        -12    1    3    3    0    0  0.32038774956E+02 -0.83071280886E+01 -0.10561089999E+02  0.34742309936E+02  0.00000000000E+00 0.  1.
</event>
<event>
 7    1  0.5839176E-013  0.5052886E+02  0.7816164E-02  0.1300439E+00
        -11   -1    0    0    0    0  0.00000000000E+00  0.00000000000E+00  0.45593999997E+02  0.45594000000E+02  0.51100000000E-03 0. -1.
         11   -1    0    0    0    0 -0.00000000000E+00 -0.00000000000E+00 -0.45593999997E+02  0.45594000000E+02  0.51100000000E-03 0.  1.
    9900012    2    1    2    0    0  0.36405091578E+02  0.98071974014E+01  0.15220174120E+02  0.50528861864E+02  0.30000006122E+02 0.  0.
        -12    1    1    2    0    0 -0.36405091578E+02 -0.98071974014E+01 -0.15220174120E+02  0.40659138136E+02  0.00000000000E+00 0.  1.
         11    1    3    3    0    0  0.18588836588E+02  0.41869515444E+01  0.13498373287E+02  0.23351263148E+02  0.51100000000E-03 0. -1.
        -11    1    3    3    0    0  0.21441540526E+02  0.53626472851E+01 -0.17242968118E+01  0.22169141747E+02  0.51100000000E-03 0.  1.
        -12    1    3    3    0    0 -0.36252855357E+01  0.25759857190E+00  0.34460976448E+01  0.50084569697E+01  0.00000000000E+00 0.  1.
</event>
<event>
 7    1  0.5839176E-013  0.5052886E+02  0.7816164E-02  0.1300439E+00
        -11   -1    0    0    0    0  0.00000000000E+00  0.00000000000E+00  0.45593999997E+02  0.45594000000E+02  0.51100000000E-03 0.  1.
         11   -1    0    0    0    0 -0.00000000000E+00 -0.00000000000E+00 -0.45593999997E+02  0.45594000000E+02  0.51100000000E-03 0. -1.
    9900012    2    1    2    0    0 -0.84959600991E+00  0.13755511489E+02 -0.38252181630E+02  0.50528864382E+02  0.30000013777E+02 0.  0.
        -12    1    1    2    0    0  0.84959600991E+00 -0.13755511489E+02  0.38252181630E+02  0.40659135618E+02  0.00000000000E+00 0.  1.
         11    1    3    3    0    0  0.37894150641E+01  0.77301015449E+01 -0.77676201390E+01  0.11595260209E+02  0.51100000000E-03 0.  1.
        -11    1    3    3    0    0  0.89251533811E+01  0.41506160498E+01 -0.17416073473E+02  0.20005139139E+02  0.51100000000E-03 0. -1.
        -12    1    3    3    0    0 -0.13564164455E+02  0.18747938946E+01 -0.13068488018E+02  0.18928465035E+02  0.00000000000E+00 0.  1.
</event>
<event>
 7    1  0.5839176E-013  0.5052886E+02  0.7816164E-02  0.1300439E+00
        -11   -1    0    0    0    0  0.00000000000E+00  0.00000000000E+00  0.45593999997E+02  0.45594000000E+02  0.51100000000E-03 0.  1.
         11   -1    0    0    0    0 -0.00000000000E+00 -0.00000000000E+00 -0.45593999997E+02  0.45594000000E+02  0.51100000000E-03 0. -1.
    9900012    2    1    2    0    0  0.77608609337E+01  0.22434304018E+02 -0.33009647089E+02  0.50528858837E+02  0.29999996920E+02 0.  0.
        -12    1    1    2    0    0 -0.77608609337E+01 -0.22434304018E+02  0.33009647089E+02  0.40659141163E+02  0.00000000000E+00 0.  1.
         11    1    3    3    0    0  0.37406181229E+01  0.83179825673E+01 -0.12072665050E+02  0.15130442809E+02  0.51100000000E-03 0.  1.
        -11    1    3    3    0    0  0.35236194557E+01  0.10504788770E+02 -0.26513770875E+02  0.28735805669E+02  0.51100000000E-03 0. -1.
        -12    1    3    3    0    0  0.49662335508E+00  0.36115326806E+01  0.55767888363E+01  0.66626103581E+01  0.00000000000E+00 0.  1.
</event>
<event>
 7    1  0.5839176E-013  0.5052886E+02  0.7816164E-02  0.1300439E+00
        -11   -1    0    0    0    0  0.00000000000E+00  0.00000000000E+00  0.45593999997E+02  0.45594000000E+02  0.51100000000E-03 0.  1.
         11   -1    0    0    0    0 -0.00000000000E+00 -0.00000000000E+00 -0.45593999997E+02  0.45594000000E+02  0.51100000000E-03 0. -1.
    9900012    2    1    2    0    0 -0.23468634901E+02 -0.31034774198E+02  0.11799631373E+02  0.50528864075E+02  0.30000012842E+02 0.  0.
        -12    1    1    2    0    0  0.23468634901E+02  0.31034774198E+02 -0.11799631373E+02  0.40659135925E+02  0.00000000000E+00 0.  1.
         11    1    3    3    0    0  0.25461962860E+00 -0.12260265372E+02 -0.20417807821E+01  0.12431725832E+02  0.51100000000E-03 0. -1.
        -11    1    3    3    0    0 -0.14434142117E+01 -0.19327788863E+01 -0.42029819466E+01  0.48460433670E+01  0.51100000000E-03 0.  1.
         12    1    3    3    0    0 -0.22279840318E+02 -0.16841729940E+02  0.18044394102E+02  0.33251094876E+02  0.00000000000E+00 0. -1.
</event>
<event>
 7    1  0.5839176E-013  0.5052885E+02  0.7816164E-02  0.1300439E+00
        -11   -1    0    0    0    0  0.00000000000E+00  0.00000000000E+00  0.45593999997E+02  0.45594000000E+02  0.51100000000E-03 0.  1.
         11   -1    0    0    0    0 -0.00000000000E+00 -0.00000000000E+00 -0.45593999997E+02  0.45594000000E+02  0.51100000000E-03 0. -1.
    9900012    2    1    2    0    0 -0.12009390467E+02 -0.36181214169E+02 -0.14137199202E+02  0.50528854418E+02  0.29999983490E+02 0.  0.
        -12    1    1    2    0    0  0.12009390467E+02  0.36181214169E+02  0.14137199202E+02  0.40659145582E+02  0.00000000000E+00 0.  1.
         11    1    3    3    0    0 -0.10974735859E+02 -0.13108333024E+02 -0.35232719522E+01  0.17455276204E+02  0.51100000000E-03 0. -1.
        -11    1    3    3    0    0 -0.95939690073E+01 -0.43591814000E+01 -0.18146684432E+01  0.10692975527E+02  0.51100000000E-03 0.  1.
        -12    1    3    3    0    0  0.85593143994E+01 -0.18713699746E+02 -0.87992588062E+01  0.22380602688E+02  0.00000000000E+00 0.  1.
</event>
<event>
 7    1  0.5839176E-013  0.5052887E+02  0.7816164E-02  0.1300439E+00
        -11   -1    0    0    0    0  0.00000000000E+00  0.00000000000E+00  0.45593999997E+02  0.45594000000E+02  0.51100000000E-03 0. -1.
         11   -1    0    0    0    0 -0.00000000000E+00 -0.00000000000E+00 -0.45593999997E+02  0.45594000000E+02  0.51100000000E-03 0.  1.
    9900012    2    1    2    0    0 -0.73498352637E+01  0.39983875033E+02  0.65893171504E+00  0.50528873938E+02  0.30000042823E+02 0.  0.
        -12    1    1    2    0    0  0.73498352637E+01 -0.39983875033E+02 -0.65893171504E+00  0.40659126062E+02  0.00000000000E+00 0.  1.
         11    1    3    3    0    0 -0.53561042140E+01  0.21680805130E+02 -0.34574206988E+01  0.22598648667E+02  0.51100000000E-03 0. -1.
        -11    1    3    3    0    0 -0.71042249855E+01  0.93076341504E+01 -0.62600358127E+01  0.13277428771E+02  0.51100000000E-03 0.  1.
         12    1    3    3    0    0  0.51104939358E+01  0.89954357532E+01  0.10376388227E+02  0.14652796501E+02  0.00000000000E+00 0. -1.
</event>
<event>
 7    1  0.5839176E-013  0.5052886E+02  0.7816164E-02  0.1300439E+00
        -11   -1    0    0    0    0  0.00000000000E+00  0.00000000000E+00  0.45593999997E+02  0.45594000000E+02  0.51100000000E-03 0.  1.
         11   -1    0    0    0    0 -0.00000000000E+00 -0.00000000000E+00 -0.45593999997E+02  0.45594000000E+02  0.51100000000E-03 0. -1.
    9900012    2    1    2    0    0 -0.36833810838E+02 -0.19447852524E+01 -0.17107134033E+02  0.50528857789E+02  0.29999993735E+02 0.  0.
        -12    1    1    2    0    0  0.36833810838E+02  0.19447852524E+01  0.17107134033E+02  0.40659142211E+02  0.00000000000E+00 0.  1.
         11    1    3    3    0    0 -0.21173671791E+01 -0.31737792977E+01  0.13238820649E-01  0.38152712000E+01  0.51100000000E-03 0.  1.
        -11    1    3    3    0    0 -0.42386408726E+01 -0.78201798010E+01 -0.11318870485E+02  0.14395767360E+02  0.51100000000E-03 0. -1.
         12    1    3    3    0    0 -0.30477802786E+02  0.90491738463E+01 -0.58015023686E+01  0.32317819229E+02  0.00000000000E+00 0. -1.
</event>
<event>
 7    1  0.5839176E-013  0.5052886E+02  0.7816164E-02  0.1300439E+00
        -11   -1    0    0    0    0  0.00000000000E+00  0.00000000000E+00  0.45593999997E+02  0.45594000000E+02  0.51100000000E-03 0.  1.
         11   -1    0    0    0    0 -0.00000000000E+00 -0.00000000000E+00 -0.45593999997E+02  0.45594000000E+02  0.51100000000E-03 0. -1.
    9900012    2    1    2    0    0 -0.85867253445E+01 -0.89312407321E+01 -0.38725536064E+02  0.50528855191E+02  0.29999985838E+02 0.  0.
        -12    1    1    2    0    0  0.85867253445E+01  0.89312407321E+01  0.38725536064E+02  0.40659144809E+02  0.00000000000E+00 0.  1.
         11    1    3    3    0    0  0.79578339773E+00  0.31413683709E+01 -0.40151279090E-01  0.32408453903E+01  0.51100000000E-03 0. -1.
        -11    1    3    3    0    0  0.59696387635E+01 -0.58822296829E+01 -0.23017027173E+02  0.24495321046E+02  0.51100000000E-03 0.  1.
         12    1    3    3    0    0 -0.15352147506E+02 -0.61903794200E+01 -0.15668357612E+02  0.22792688754E+02  0.00000000000E+00 0. -1.
</event>
<event>
 7    1  0.5839176E-013  0.5052888E+02  0.7816164E-02  0.1300439E+00
        -11   -1    0    0    0    0  0.00000000000E+00  0.00000000000E+00  0.45593999997E+02  0.45594000000E+02  0.51100000000E-03 0.  1.
         11   -1    0    0    0    0 -0.00000000000E+00 -0.00000000000E+00 -0.45593999997E+02  0.45594000000E+02  0.51100000000E-03 0. -1.
    9900012    2    1    2    0    0  0.98040837767E+01  0.36963768248E+02 -0.13810290757E+02  0.50528876146E+02  0.30000049532E+02 0.  0.
        -12    1    1    2    0    0 -0.98040837767E+01 -0.36963768248E+02  0.13810290757E+02  0.40659123854E+02  0.00000000000E+00 0.  1.
         11    1    3    3    0    0  0.89886934523E+01  0.20993580702E+02  0.76838849895E+00  0.22849889755E+02  0.51100000000E-03 0. -1.
        -11    1    3    3    0    0  0.84109383873E+01  0.10267614481E+02 -0.49825210459E+01  0.14177210865E+02  0.51100000000E-03 0.  1.
        -12    1    3    3    0    0 -0.75955480629E+01  0.57025730652E+01 -0.95961582102E+01  0.13501775525E+02  0.00000000000E+00 0.  1.
</event>
<event>
 7    1  0.5839176E-013  0.5052886E+02  0.7816164E-02  0.1300439E+00
        -11   -1    0    0    0    0  0.00000000000E+00  0.00000000000E+00  0.45593999997E+02  0.45594000000E+02  0.51100000000E-03 0.  1.
         11   -1    0    0    0    0 -0.00000000000E+00 -0.00000000000E+00 -0.45593999997E+02  0.45594000000E+02  0.51100000000E-03 0. -1.
    9900012    2    1    2    0    0  0.13628951941E+02  0.38265716991E+02  0.17754187124E+01  0.50528861551E+02  0.30000005171E+02 0.  0.
        -12    1    1    2    0    0 -0.13628951941E+02 -0.38265716991E+02 -0.17754187124E+01  0.40659138449E+02  0.00000000000E+00 0.  1.
         11    1    3    3    0    0 -0.51927930062E+01  0.12486987108E+01  0.14944577217E+01  0.55459671671E+01  0.51100000000E-03 0. -1.
        -11    1    3    3    0    0  0.14105053747E+01  0.72556419617E+01  0.66225068112E+01  0.99242864940E+01  0.51100000000E-03 0.  1.
         12    1    3    3    0    0  0.17411239572E+02  0.29761376318E+02 -0.63415458206E+01  0.35058607890E+02  0.00000000000E+00 0. -1.
</event>
<event>
 7    1  0.5839176E-013  0.5052886E+02  0.7816164E-02  0.1300439E+00
        -11   -1    0    0    0    0  0.00000000000E+00  0.00000000000E+00  0.45593999997E+02  0.45594000000E+02  0.51100000000E-03 0.  1.
         11   -1    0    0    0    0 -0.00000000000E+00 -0.00000000000E+00 -0.45593999997E+02  0.45594000000E+02  0.51100000000E-03 0. -1.
    9900012    2    1    2    0    0  0.19845535562E+02 -0.35363070691E+02 -0.29620892979E+01  0.50528855599E+02  0.29999987077E+02 0.  0.
        -12    1    1    2    0    0 -0.19845535562E+02  0.35363070691E+02  0.29620892979E+01  0.40659144401E+02  0.00000000000E+00 0.  1.
         11    1    3    3    0    0  0.20043848144E+01 -0.28958558277E+02  0.45653086902E+00  0.29031432563E+02  0.51100000000E-03 0. -1.
        -11    1    3    3    0    0  0.15785805943E+01 -0.44859195348E+01  0.63269851471E-01  0.47559850821E+01  0.51100000000E-03 0.  1.
        -12    1    3    3    0    0  0.16262570154E+02 -0.19185928789E+01 -0.34818900184E+01  0.16741437953E+02  0.00000000000E+00 0.  1.
</event>
<event>
 7    1  0.5839176E-013  0.5052886E+02  0.7816164E-02  0.1300439E+00
        -11   -1    0    0    0    0  0.00000000000E+00  0.00000000000E+00  0.45593999997E+02  0.45594000000E+02  0.51100000000E-03 0.  1.
         11   -1    0    0    0    0 -0.00000000000E+00 -0.00000000000E+00 -0.45593999997E+02  0.45594000000E+02  0.51100000000E-03 0. -1.
    9900012    2    1    2    0    0 -0.38170095202E+02  0.59774168289E+01 -0.12668081570E+02  0.50528856252E+02  0.29999989062E+02 0.  0.
        -12    1    1    2    0    0  0.38170095202E+02 -0.59774168289E+01  0.12668081570E+02  0.40659143748E+02  0.00000000000E+00 0.  1.
         11    1    3    3    0    0 -0.36214645335E+02  0.38602159761E+01 -0.93672502307E+01  0.37605148335E+02  0.51100000000E-03 0. -1.
        -11    1    3    3    0    0 -0.60550975639E+01 -0.87663491054E+00 -0.46340811038E+01  0.76751158436E+01  0.51100000000E-03 0.  1.
        -12    1    3    3    0    0  0.40996476968E+01  0.29938357633E+01  0.13332497649E+01  0.52485920732E+01  0.00000000000E+00 0.  1.
</event>
<event>
 7    1  0.5839176E-013  0.5052886E+02  0.7816164E-02  0.1300439E+00
        -11   -1    0    0    0    0  0.00000000000E+00  0.00000000000E+00  0.45593999997E+02  0.45594000000E+02  0.51100000000E-03 0. -1.
         11   -1    0    0    0    0 -0.00000000000E+00 -0.00000000000E+00 -0.45593999997E+02  0.45594000000E+02  0.51100000000E-03 0.  1.
    9900012    2    1    2    0    0 -0.29825167535E+02  0.27034033418E+02  0.57259032915E+01  0.50528861423E+02  0.30000004781E+02 0.  0.
        -12    1    1    2    0    0  0.29825167535E+02 -0.27034033418E+02 -0.57259032915E+01  0.40659138577E+02  0.00000000000E+00 0.  1.
         11    1    3    3    0    0 -0.43210632951E+01  0.13916586810E+02 -0.33266943831E+01  0.14946901760E+02  0.51100000000E-03 0. -1.
        -11    1    3    3    0    0 -0.19195207528E-01 -0.30159196677E+01  0.39838149610E+01  0.49966910854E+01  0.51100000000E-03 0.  1.
         12    1    3    3    0    0 -0.25484909032E+02  0.16133366275E+02  0.50687827136E+01  0.30585268577E+02  0.00000000000E+00 0. -1.
</event>
<event>
 7    1  0.5839176E-013  0.5052887E+02  0.7816164E-02  0.1300439E+00
        -11   -1    0    0    0    0  0.00000000000E+00  0.00000000000E+00  0.45593999997E+02  0.45594000000E+02  0.51100000000E-03 0.  1.
         11   -1    0    0    0    0 -0.00000000000E+00 -0.00000000000E+00 -0.45593999997E+02  0.45594000000E+02  0.51100000000E-03 0. -1.
    9900012    2    1    2    0    0 -0.23080406082E+02 -0.20418904142E+02 -0.26524104371E+02  0.50528869365E+02  0.30000028923E+02 0.  0.
        -12    1    1    2    0    0  0.23080406082E+02  0.20418904142E+02  0.26524104371E+02  0.40659130635E+02  0.00000000000E+00 0.  1.
         11    1    3    3    0    0 -0.45127838131E+01 -0.47165773409E+01 -0.93950653681E+01  0.11440217353E+02  0.51100000000E-03 0. -1.
        -11    1    3    3    0    0 -0.95142882506E+01 -0.10338129707E+02  0.47331191078E+01  0.14825687960E+02  0.51100000000E-03 0.  1.
         12    1    3    3    0    0 -0.90533340186E+01 -0.53641970948E+01 -0.21862158111E+02  0.24262964052E+02  0.00000000000E+00 0. -1.
</event>
<event>
 7    1  0.5839176E-013  0.5052886E+02  0.7816164E-02  0.1300439E+00
        -11   -1    0    0    0    0  0.00000000000E+00  0.00000000000E+00  0.45593999997E+02  0.45594000000E+02  0.51100000000E-03 0.  1.
         11   -1    0    0    0    0 -0.00000000000E+00 -0.00000000000E+00 -0.45593999997E+02  0.45594000000E+02  0.51100000000E-03 0. -1.
    9900012    2    1    2    0    0 -0.38391659855E+02  0.22744906782E+01 -0.13193678345E+02  0.50528855856E+02  0.29999987860E+02 0.  0.
        -12    1    1    2    0    0  0.38391659855E+02 -0.22744906782E+01  0.13193678345E+02  0.40659144144E+02  0.00000000000E+00 0.  1.
         11    1    3    3    0    0 -0.22245976044E+02  0.41721586290E+01 -0.97445423611E+01  0.24642371312E+02  0.51100000000E-03 0. -1.
        -11    1    3    3    0    0 -0.19550575073E+02  0.20025132514E+01  0.22631644108E-01  0.19652876570E+02  0.51100000000E-03 0.  1.
        -12    1    3    3    0    0  0.34048912625E+01 -0.39001812021E+01 -0.34717676276E+01  0.62336079745E+01  0.00000000000E+00 0.  1.
</event>
<event>
 7    1  0.5839176E-013  0.5052881E+02  0.7816164E-02  0.1300439E+00
        -11   -1    0    0    0    0  0.00000000000E+00  0.00000000000E+00  0.45593999997E+02  0.45594000000E+02  0.51100000000E-03 0. -1.
         11   -1    0    0    0    0 -0.00000000000E+00 -0.00000000000E+00 -0.45593999997E+02  0.45594000000E+02  0.51100000000E-03 0.  1.
    9900012    2    1    2    0    0 -0.35325180934E+02  0.11534374755E+02  0.16500280208E+02  0.50528813388E+02  0.29999858775E+02 0.  0.
        -12    1    1    2    0    0  0.35325180934E+02 -0.11534374755E+02 -0.16500280208E+02  0.40659186612E+02  0.00000000000E+00 0.  1.
         11    1    3    3    0    0 -0.25825438377E+01 -0.28550886207E+01  0.26427176434E+01  0.46695846185E+01  0.51100000000E-03 0. -1.
        -11    1    3    3    0    0 -0.70574076465E+00 -0.57176606543E+01  0.65951176673E+00  0.57986782473E+01  0.51100000000E-03 0.  1.
         12    1    3    3    0    0 -0.32036896331E+02  0.20107124030E+02  0.13198050797E+02  0.40060550523E+02  0.00000000000E+00 0. -1.
</event>
<event>
 7    1  0.5839176E-013  0.5052886E+02  0.7816164E-02  0.1300439E+00
        -11   -1    0    0    0    0  0.00000000000E+00  0.00000000000E+00  0.45593999997E+02  0.45594000000E+02  0.51100000000E-03 0.  1.
         11   -1    0    0    0    0 -0.00000000000E+00 -0.00000000000E+00 -0.45593999997E+02  0.45594000000E+02  0.51100000000E-03 0. -1.
    9900012    2    1    2    0    0  0.45916372905E+01 -0.17333625380E+02 -0.36491482469E+02  0.50528855953E+02  0.29999988155E+02 0.  0.
        -12    1    1    2    0    0 -0.45916372905E+01  0.17333625380E+02  0.36491482469E+02  0.40659144047E+02  0.00000000000E+00 0.  1.
         11    1    3    3    0    0  0.79405218126E+00 -0.74830907227E+00 -0.10455289143E+00  0.10960916487E+01  0.51100000000E-03 0. -1.
        -11    1    3    3    0    0  0.30973887110E+01  0.29727960022E+01  0.31449011305E+01  0.53218170092E+01  0.51100000000E-03 0.  1.
         12    1    3    3    0    0  0.70019639820E+00 -0.19558112310E+02 -0.39531830708E+02  0.44110947295E+02  0.00000000000E+00 0. -1.
</event>
<event>
 7    1  0.6845774E-013  0.5052886E+02  0.7816164E-02  0.1300439E+00
        -11   -1    0    0    0    0  0.00000000000E+00  0.00000000000E+00  0.45593999997E+02  0.45594000000E+02  0.51100000000E-03 0. -1.
         11   -1    0    0    0    0 -0.00000000000E+00 -0.00000000000E+00 -0.45593999997E+02  0.45594000000E+02  0.51100000000E-03 0.  1.
    9900012    2    1    2    0    0  0.21454627868E+02 -0.17783865999E+01  0.34492053675E+02  0.50528862250E+02  0.30000007296E+02 0.  0.
        -12    1    1    2    0    0 -0.21454627868E+02  0.17783865999E+01 -0.34492053675E+02  0.40659137750E+02  0.00000000000E+00 0.  1.
         11    1    3    3    0    0  0.99683810142E+01 -0.69119878145E+01  0.15816502400E+02  0.19932534812E+02  0.51100000000E-03 0. -1.
        -11    1    3    3    0    0  0.10802264662E+02 -0.49685975260E+01  0.35762059658E+01  0.12416325244E+02  0.51100000000E-03 0.  1.
        -12    1    3    3    0    0  0.68398219198E+00  0.10102198741E+02  0.15099345309E+02  0.18180002194E+02  0.00000000000E+00 0.  1.
</event>
<event>
 7    1  0.5839176E-013  0.5052886E+02  0.7816164E-02  0.1300439E+00
        -11   -1    0    0    0    0  0.00000000000E+00  0.00000000000E+00  0.45593999997E+02  0.45594000000E+02  0.51100000000E-03 0. -1.
         11   -1    0    0    0    0 -0.00000000000E+00 -0.00000000000E+00 -0.45593999997E+02  0.45594000000E+02  0.51100000000E-03 0.  1.
    9900012    2    1    2    0    0  0.35707274294E+02  0.34300446751E+01  0.19141342455E+02  0.50528860376E+02  0.30000001599E+02 0.  0.
        -12    1    1    2    0    0 -0.35707274294E+02 -0.34300446751E+01 -0.19141342455E+02  0.40659139624E+02  0.00000000000E+00 0.  1.
         11    1    3    3    0    0  0.17762497032E+01 -0.62209154521E+01  0.48881501170E+01  0.81085673147E+01  0.51100000000E-03 0. -1.
        -11    1    3    3    0    0 -0.13778155743E+01  0.32953507910E+00 -0.19977693247E+01  0.24490920075E+01  0.51100000000E-03 0.  1.
         12    1    3    3    0    0  0.35308840165E+02  0.93214250481E+01  0.16250961662E+02  0.39971201054E+02  0.00000000000E+00 0. -1.
</event>
<event>
 7    1  0.5839176E-013  0.5052887E+02  0.7816164E-02  0.1300439E+00
        -11   -1    0    0    0    0  0.00000000000E+00  0.00000000000E+00  0.45593999997E+02  0.45594000000E+02  0.51100000000E-03 0. -1.
         11   -1    0    0    0    0 -0.00000000000E+00 -0.00000000000E+00 -0.45593999997E+02  0.45594000000E+02  0.51100000000E-03 0.  1.
    9900012    2    1    2    0    0 -0.11361610878E+01  0.40641924988E+02 -0.32903358476E+00  0.50528865825E+02  0.30000018162E+02 0.  0.
        -12    1    1    2    0    0  0.11361610878E+01 -0.40641924988E+02  0.32903358476E+00  0.40659134175E+02  0.00000000000E+00 0.  1.
         11    1    3    3    0    0  0.13148229115E+02  0.20709246319E+02 -0.17319787803E+01  0.24591636031E+02  0.51100000000E-03 0. -1.
        -11    1    3    3    0    0 -0.43483554582E+00 -0.83244217292E+00  0.36606648074E-01  0.93988415827E+00  0.51100000000E-03 0.  1.
         12    1    3    3    0    0 -0.13849554657E+02  0.20765120842E+02  0.13663385474E+01  0.24997345635E+02  0.00000000000E+00 0. -1.
</event>
<event>
 7    1  0.5839176E-013  0.5052886E+02  0.7816164E-02  0.1300439E+00
        -11   -1    0    0    0    0  0.00000000000E+00  0.00000000000E+00  0.45593999997E+02  0.45594000000E+02  0.51100000000E-03 0.  1.
         11   -1    0    0    0    0 -0.00000000000E+00 -0.00000000000E+00 -0.45593999997E+02  0.45594000000E+02  0.51100000000E-03 0. -1.
    9900012    2    1    2    0    0  0.35737361736E+01  0.23240930825E+02 -0.33170062729E+02  0.50528861823E+02  0.30000005996E+02 0.  0.
        -12    1    1    2    0    0 -0.35737361736E+01 -0.23240930825E+02  0.33170062729E+02  0.40659138177E+02  0.00000000000E+00 0.  1.
         11    1    3    3    0    0  0.68483881557E+01 -0.14213907301E+01 -0.12303589990E+02  0.14152706414E+02  0.51100000000E-03 0. -1.
        -11    1    3    3    0    0  0.29777612875E+00 -0.21330345608E+01  0.11477174572E+00  0.21567753419E+01  0.51100000000E-03 0.  1.
        -12    1    3    3    0    0 -0.35724281108E+01  0.26795356116E+02 -0.20981244485E+02  0.34219380067E+02  0.00000000000E+00 0.  1.
</event>
<event>
 7    1  0.5839176E-013  0.5052885E+02  0.7816164E-02  0.1300439E+00
        -11   -1    0    0    0    0  0.00000000000E+00  0.00000000000E+00  0.45593999997E+02  0.45594000000E+02  0.51100000000E-03 0. -1.
         11   -1    0    0    0    0 -0.00000000000E+00 -0.00000000000E+00 -0.45593999997E+02  0.45594000000E+02  0.51100000000E-03 0.  1.
    9900012    2    1    2    0    0 -0.21140917908E+02  0.34730783785E+02  0.31043787247E-01  0.50528847082E+02  0.29999961190E+02 0.  0.
        -12    1    1    2    0    0  0.21140917908E+02 -0.34730783785E+02 -0.31043787247E-01  0.40659152918E+02  0.00000000000E+00 0.  1.
         11    1    3    3    0    0 -0.34503546144E+01  0.48200762656E+01 -0.49846707845E+01  0.77450000170E+01  0.51100000000E-03 0. -1.
        -11    1    3    3    0    0 -0.11865217494E+02  0.28106618450E+02 -0.51394447201E+01  0.30938314097E+02  0.51100000000E-03 0.  1.
         12    1    3    3    0    0 -0.58253457994E+01  0.18040890697E+01  0.10155159292E+02  0.11845532968E+02  0.00000000000E+00 0. -1.
</event>
<event>
 7    1  0.5839176E-013  0.5052886E+02  0.7816164E-02  0.1300439E+00
        -11   -1    0    0    0    0  0.00000000000E+00  0.00000000000E+00  0.45593999997E+02  0.45594000000E+02  0.51100000000E-03 0. -1.
         11   -1    0    0    0    0 -0.00000000000E+00 -0.00000000000E+00 -0.45593999997E+02  0.45594000000E+02  0.51100000000E-03 0.  1.
    9900012    2    1    2    0    0  0.63274097986E+01  0.31399035940E+02  0.25044560884E+02  0.50528860774E+02  0.30000002809E+02 0.  0.
        -12    1    1    2    0    0 -0.63274097986E+01 -0.31399035940E+02 -0.25044560884E+02  0.40659139226E+02  0.00000000000E+00 0.  1.
         11    1    3    3    0    0  0.65490624014E+00  0.23706976565E+02  0.86316220203E+01  0.25237958297E+02  0.51100000000E-03 0. -1.
        -11    1    3    3    0    0 -0.49779069344E+00  0.11805262804E+02  0.10487036216E+02  0.15798416196E+02  0.51100000000E-03 0.  1.
        -12    1    3    3    0    0  0.61702942519E+01 -0.41132034294E+01  0.59259026473E+01  0.94924862808E+01  0.00000000000E+00 0.  1.
</event>
<event>
 7    1  0.5839176E-013  0.5052891E+02  0.7816164E-02  0.1300439E+00
        -11   -1    0    0    0    0  0.00000000000E+00  0.00000000000E+00  0.45593999997E+02  0.45594000000E+02  0.51100000000E-03 0. -1.
         11   -1    0    0    0    0 -0.00000000000E+00 -0.00000000000E+00 -0.45593999997E+02  0.45594000000E+02  0.51100000000E-03 0.  1.
    9900012    2    1    2    0    0 -0.26879174153E+02  0.21874788966E+02  0.21264180504E+02  0.50528907930E+02  0.30000146143E+02 0.  0.
        -12    1    1    2    0    0  0.26879174153E+02 -0.21874788966E+02 -0.21264180504E+02  0.40659092070E+02  0.00000000000E+00 0.  1.
         11    1    3    3    0    0 -0.20439416039E+02  0.77545149504E+01  0.13678837683E+02  0.25787842693E+02  0.51100000000E-03 0. -1.
        -11    1    3    3    0    0 -0.60055385291E+01 -0.20345990490E+00 -0.31978106033E+01  0.68068995786E+01  0.51100000000E-03 0.  1.
        -12    1    3    3    0    0 -0.43421958466E+00  0.14323733921E+02  0.10783153424E+02  0.17934165658E+02  0.00000000000E+00 0.  1.
</event>
<event>
 7    1  0.5839176E-013  0.5052885E+02  0.7816164E-02  0.1300439E+00
        -11   -1    0    0    0    0  0.00000000000E+00  0.00000000000E+00  0.45593999997E+02  0.45594000000E+02  0.51100000000E-03 0.  1.
         11   -1    0    0    0    0 -0.00000000000E+00 -0.00000000000E+00 -0.45593999997E+02  0.45594000000E+02  0.51100000000E-03 0. -1.
    9900012    2    1    2    0    0  0.16420461645E+02  0.24860119828E+02 -0.27667835309E+02  0.50528853069E+02  0.29999979387E+02 0.  0.
        -12    1    1    2    0    0 -0.16420461645E+02 -0.24860119828E+02  0.27667835309E+02  0.40659146931E+02  0.00000000000E+00 0.  1.
         11    1    3    3    0    0  0.17430889928E+02  0.38235779603E+01 -0.16281103691E+02  0.24156365823E+02  0.51100000000E-03 0.  1.
        -11    1    3    3    0    0  0.26926529038E+01  0.11420570346E+02 -0.10964840436E+02  0.16059499766E+02  0.51100000000E-03 0. -1.
        -12    1    3    3    0    0 -0.37030811871E+01  0.96159715216E+01 -0.42189118207E+00  0.10312987480E+02  0.00000000000E+00 0.  1.
</event>
<event>
 7    1  0.5839176E-013  0.5052885E+02  0.7816164E-02  0.1300439E+00
        -11   -1    0    0    0    0  0.00000000000E+00  0.00000000000E+00  0.45593999997E+02  0.45594000000E+02  0.51100000000E-03 0.  1.
         11   -1    0    0    0    0 -0.00000000000E+00 -0.00000000000E+00 -0.45593999997E+02  0.45594000000E+02  0.51100000000E-03 0. -1.
    9900012    2    1    2    0    0  0.17342867474E+02  0.23337762375E+02 -0.28420766600E+02  0.50528853686E+02  0.29999981263E+02 0.  0.
        -12    1    1    2    0    0 -0.17342867474E+02 -0.23337762375E+02  0.28420766600E+02  0.40659146314E+02  0.00000000000E+00 0.  1.
         11    1    3    3    0    0 -0.11309245004E+01 -0.29119240442E-01 -0.43020958463E+01  0.44483555486E+01  0.51100000000E-03 0. -1.
        -11    1    3    3    0    0  0.15893323245E+00 -0.34955235378E+01 -0.10074628282E+02  0.10664993196E+02  0.51100000000E-03 0.  1.
        -12    1    3    3    0    0  0.18314858742E+02  0.26862405153E+02 -0.14044042472E+02  0.35415504942E+02  0.00000000000E+00 0.  1.
</event>
<event>
 7    1  0.5839176E-013  0.5052885E+02  0.7816164E-02  0.1300439E+00
        -11   -1    0    0    0    0  0.00000000000E+00  0.00000000000E+00  0.45593999997E+02  0.45594000000E+02  0.51100000000E-03 0.  1.
         11   -1    0    0    0    0 -0.00000000000E+00 -0.00000000000E+00 -0.45593999997E+02  0.45594000000E+02  0.51100000000E-03 0. -1.
    9900012    2    1    2    0    0  0.89742567373E+01 -0.11445301762E+02 -0.37968853949E+02  0.50528854822E+02  0.29999984716E+02 0.  0.
        -12    1    1    2    0    0 -0.89742567373E+01  0.11445301762E+02  0.37968853949E+02  0.40659145178E+02  0.00000000000E+00 0.  1.
         11    1    3    3    0    0  0.28053309721E+01 -0.14147480161E+01 -0.37558548313E+01  0.48967172256E+01  0.51100000000E-03 0. -1.
        -11    1    3    3    0    0 -0.14685796805E+01 -0.14744232863E+02 -0.59308250153E+01  0.15960069380E+02  0.51100000000E-03 0.  1.
        -12    1    3    3    0    0  0.76375054457E+01  0.47136791170E+01 -0.28282174103E+02  0.29672068216E+02  0.00000000000E+00 0.  1.
</event>
<event>
 7    1  0.5839176E-013  0.5052886E+02  0.7816164E-02  0.1300439E+00
        -11   -1    0    0    0    0  0.00000000000E+00  0.00000000000E+00  0.45593999997E+02  0.45594000000E+02  0.51100000000E-03 0. -1.
         11   -1    0    0    0    0 -0.00000000000E+00 -0.00000000000E+00 -0.45593999997E+02  0.45594000000E+02  0.51100000000E-03 0.  1.
    9900012    2    1    2    0    0 -0.33748139121E+02  0.21742077306E+02 -0.64428941607E+01  0.50528859516E+02  0.29999998985E+02 0.  0.
        -12    1    1    2    0    0  0.33748139121E+02 -0.21742077306E+02  0.64428941607E+01  0.40659140484E+02  0.00000000000E+00 0.  1.
         11    1    3    3    0    0 -0.30340979337E+02  0.68230203459E+01  0.47786252595E+01  0.31463691668E+02  0.51100000000E-03 0.  1.
        -11    1    3    3    0    0 -0.80291291442E+00  0.42742056200E+01 -0.22167249861E+01  0.48813289948E+01  0.51100000000E-03 0. -1.
        -12    1    3    3    0    0 -0.26042468698E+01  0.10644851341E+02 -0.90047944341E+01  0.14183838853E+02  0.00000000000E+00 0.  1.
</event>
<event>
 7    1  0.5839176E-013  0.5052886E+02  0.7816164E-02  0.1300439E+00
        -11   -1    0    0    0    0  0.00000000000E+00  0.00000000000E+00  0.45593999997E+02  0.45594000000E+02  0.51100000000E-03 0.  1.
         11   -1    0    0    0    0 -0.00000000000E+00 -0.00000000000E+00 -0.45593999997E+02  0.45594000000E+02  0.51100000000E-03 0. -1.
    9900012    2    1    2    0    0  0.13430929409E+02 -0.28507095894E+02 -0.25692831186E+02  0.50528856435E+02  0.29999989620E+02 0.  0.
        -12    1    1    2    0    0 -0.13430929409E+02  0.28507095894E+02  0.25692831186E+02  0.40659143565E+02  0.00000000000E+00 0.  1.
         11    1    3    3    0    0  0.18219012384E+01  0.27219142530E+01 -0.12663657150E+02  0.13080380499E+02  0.51100000000E-03 0. -1.
        -11    1    3    3    0    0  0.18784625165E+01  0.47196598534E+00 -0.50635141586E+00  0.20019403924E+01  0.51100000000E-03 0.  1.
         12    1    3    3    0    0  0.97305656535E+01 -0.31700976133E+02 -0.12522822620E+02  0.35446535544E+02  0.00000000000E+00 0. -1.
</event>
<event>
 7    1  0.5839176E-013  0.5052885E+02  0.7816164E-02  0.1300439E+00
        -11   -1    0    0    0    0  0.00000000000E+00  0.00000000000E+00  0.45593999997E+02  0.45594000000E+02  0.51100000000E-03 0. -1.
         11   -1    0    0    0    0 -0.00000000000E+00 -0.00000000000E+00 -0.45593999997E+02  0.45594000000E+02  0.51100000000E-03 0.  1.
    9900012    2    1    2    0    0  0.36622310746E+02 -0.38640548271E+01 -0.17234901514E+02  0.50528851038E+02  0.29999973216E+02 0.  0.
        -12    1    1    2    0    0 -0.36622310746E+02  0.38640548271E+01  0.17234901514E+02  0.40659148962E+02  0.00000000000E+00 0.  1.
         11    1    3    3    0    0 -0.92800968101E+00 -0.52717239981E+00 -0.56142590764E+01  0.57148069036E+01  0.51100000000E-03 0. -1.
        -11    1    3    3    0    0  0.76927468782E+01  0.81626615260E+01 -0.41366497788E+01  0.11954884750E+02  0.51100000000E-03 0.  1.
         12    1    3    3    0    0  0.29857573549E+02 -0.11499543953E+02 -0.74839926587E+01  0.32859159385E+02  0.00000000000E+00 0. -1.
</event>
<event>
 7    1  0.5839176E-013  0.5052887E+02  0.7816164E-02  0.1300439E+00
        -11   -1    0    0    0    0  0.00000000000E+00  0.00000000000E+00  0.45593999997E+02  0.45594000000E+02  0.51100000000E-03 0.  1.
         11   -1    0    0    0    0 -0.00000000000E+00 -0.00000000000E+00 -0.45593999997E+02  0.45594000000E+02  0.51100000000E-03 0. -1.
    9900012    2    1    2    0    0  0.31216877254E+02  0.67233165076E+01 -0.25168793215E+02  0.50528873568E+02  0.30000041696E+02 0.  0.
        -12    1    1    2    0    0 -0.31216877254E+02 -0.67233165076E+01  0.25168793215E+02  0.40659126432E+02  0.00000000000E+00 0.  1.
         11    1    3    3    0    0  0.18905936088E+02  0.35154576896E+00 -0.40059972958E+01  0.19328890770E+02  0.51100000000E-03 0. -1.
        -11    1    3    3    0    0  0.56476119499E+01  0.40911542741E+01  0.17826762734E+01  0.71979857591E+01  0.51100000000E-03 0.  1.
        -12    1    3    3    0    0  0.66633292156E+01  0.22806164645E+01 -0.22945472193E+02  0.24001997039E+02  0.00000000000E+00 0.  1.
</event>
<event>
 7    1  0.5839176E-013  0.5052886E+02  0.7816164E-02  0.1300439E+00
        -11   -1    0    0    0    0  0.00000000000E+00  0.00000000000E+00  0.45593999997E+02  0.45594000000E+02  0.51100000000E-03 0. -1.
         11   -1    0    0    0    0 -0.00000000000E+00 -0.00000000000E+00 -0.45593999997E+02  0.45594000000E+02  0.51100000000E-03 0.  1.
    9900012    2    1    2    0    0 -0.74959777999E+01 -0.16024090434E+02  0.36608802831E+02  0.50528860780E+02  0.30000002827E+02 0.  0.
        -12    1    1    2    0    0  0.74959777999E+01  0.16024090434E+02 -0.36608802831E+02  0.40659139220E+02  0.00000000000E+00 0.  1.
         11    1    3    3    0    0 -0.54127597514E+01 -0.82105678835E+01  0.16818987710E+02  0.19483062925E+02  0.51100000000E-03 0. -1.
        -11    1    3    3    0    0  0.21310517525E+01 -0.66459481939E+01  0.23988667550E+02  0.24983318036E+02  0.51100000000E-03 0.  1.
        -12    1    3    3    0    0 -0.42142698010E+01 -0.11675743570E+01 -0.41988524296E+01  0.60624798193E+01  0.00000000000E+00 0.  1.
</event>
<event>
 7    1  0.5839176E-013  0.5052880E+02  0.7816164E-02  0.1300439E+00
        -11   -1    0    0    0    0  0.00000000000E+00  0.00000000000E+00  0.45593999997E+02  0.45594000000E+02  0.51100000000E-03 0. -1.
         11   -1    0    0    0    0 -0.00000000000E+00 -0.00000000000E+00 -0.45593999997E+02  0.45594000000E+02  0.51100000000E-03 0.  1.
    9900012    2    1    2    0    0 -0.34098013344E+02 -0.21304319204E+02 -0.60515896130E+01  0.50528803406E+02  0.29999828434E+02 0.  0.
        -12    1    1    2    0    0  0.34098013344E+02  0.21304319204E+02  0.60515896130E+01  0.40659196594E+02  0.00000000000E+00 0.  1.
         11    1    3    3    0    0 -0.16893308900E+02 -0.15625329927E+02 -0.87126581542E+01  0.24605796742E+02  0.51100000000E-03 0. -1.
        -11    1    3    3    0    0 -0.11872642820E+02 -0.34973205361E+01 -0.73337908748E+01  0.14386639194E+02  0.51100000000E-03 0.  1.
        -12    1    3    3    0    0 -0.53320616249E+01 -0.21816687410E+01  0.99948594160E+01  0.11536367470E+02  0.00000000000E+00 0.  1.
</event>
<event>
 7    1  0.5839176E-013  0.5052885E+02  0.7816164E-02  0.1300439E+00
        -11   -1    0    0    0    0  0.00000000000E+00  0.00000000000E+00  0.45593999997E+02  0.45594000000E+02  0.51100000000E-03 0. -1.
         11   -1    0    0    0    0 -0.00000000000E+00 -0.00000000000E+00 -0.45593999997E+02  0.45594000000E+02  0.51100000000E-03 0.  1.
    9900012    2    1    2    0    0 -0.16343352935E+02  0.70598154117E+01  0.36554345511E+02  0.50528851527E+02  0.29999974702E+02 0.  0.
        -12    1    1    2    0    0  0.16343352935E+02 -0.70598154117E+01 -0.36554345511E+02  0.40659148473E+02  0.00000000000E+00 0.  1.
         11    1    3    3    0    0 -0.11759746609E+02  0.96542364408E+01  0.25104960137E+02  0.29355662917E+02  0.51100000000E-03 0. -1.
        -11    1    3    3    0    0 -0.11085758109E+02 -0.11710811030E+01  0.74546555083E+01  0.13410344992E+02  0.51100000000E-03 0.  1.
        -12    1    3    3    0    0  0.65021517823E+01 -0.14233399261E+01  0.39947298659E+01  0.77628436186E+01  0.00000000000E+00 0.  1.
</event>
<event>
 7    1  0.5839176E-013  0.5052882E+02  0.7816164E-02  0.1300439E+00
        -11   -1    0    0    0    0  0.00000000000E+00  0.00000000000E+00  0.45593999997E+02  0.45594000000E+02  0.51100000000E-03 0.  1.
         11   -1    0    0    0    0 -0.00000000000E+00 -0.00000000000E+00 -0.45593999997E+02  0.45594000000E+02  0.51100000000E-03 0. -1.
    9900012    2    1    2    0    0  0.31033943414E+02  0.53637045715E+01 -0.25715642215E+02  0.50528816227E+02  0.29999867403E+02 0.  0.
        -12    1    1    2    0    0 -0.31033943414E+02 -0.53637045715E+01  0.25715642215E+02  0.40659183773E+02  0.00000000000E+00 0.  1.
         11    1    3    3    0    0  0.12061329682E+02 -0.35463785383E+00 -0.65324722351E+01  0.13721320471E+02  0.51100000000E-03 0. -1.
        -11    1    3    3    0    0  0.30303583283E+01  0.12104161850E+02 -0.22295245229E+01  0.12675353468E+02  0.51100000000E-03 0.  1.
         12    1    3    3    0    0  0.15942255404E+02 -0.63858194247E+01 -0.16953645457E+02  0.24132142287E+02  0.00000000000E+00 0. -1.
</event>
<event>
 7    1  0.5839176E-013  0.5052885E+02  0.7816164E-02  0.1300439E+00
        -11   -1    0    0    0    0  0.00000000000E+00  0.00000000000E+00  0.45593999997E+02  0.45594000000E+02  0.51100000000E-03 0.  1.
         11   -1    0    0    0    0 -0.00000000000E+00 -0.00000000000E+00 -0.45593999997E+02  0.45594000000E+02  0.51100000000E-03 0. -1.
    9900012    2    1    2    0    0 -0.85415572604E+01  0.36611859662E+02 -0.15484828653E+02  0.50528851131E+02  0.29999973497E+02 0.  0.
        -12    1    1    2    0    0  0.85415572604E+01 -0.36611859662E+02  0.15484828653E+02  0.40659148869E+02  0.00000000000E+00 0.  1.
         11    1    3    3    0    0 -0.53386700775E+01  0.27703366533E+02 -0.95734793754E+01  0.29793110329E+02  0.51100000000E-03 0. -1.
        -11    1    3    3    0    0 -0.92922835007E+01  0.73169603994E+01 -0.77961928857E+01  0.14165629739E+02  0.51100000000E-03 0.  1.
        -12    1    3    3    0    0  0.60893963177E+01  0.15915327297E+01  0.18848436083E+01  0.65701110624E+01  0.00000000000E+00 0.  1.
</event>
<event>
 7    1  0.5839176E-013  0.5052884E+02  0.7816164E-02  0.1300439E+00
        -11   -1    0    0    0    0  0.00000000000E+00  0.00000000000E+00  0.45593999997E+02  0.45594000000E+02  0.51100000000E-03 0. -1.
         11   -1    0    0    0    0 -0.00000000000E+00 -0.00000000000E+00 -0.45593999997E+02  0.45594000000E+02  0.51100000000E-03 0.  1.
    9900012    2    1    2    0    0  0.50133423965E+01 -0.31021003834E+02  0.25801756623E+02  0.50528844504E+02  0.29999953353E+02 0.  0.
        -12    1    1    2    0    0 -0.50133423965E+01  0.31021003834E+02 -0.25801756623E+02  0.40659155496E+02  0.00000000000E+00 0.  1.
         11    1    3    3    0    0 -0.31994000104E+01 -0.17539522503E+02  0.70116686973E+01  0.19158144698E+02  0.51100000000E-03 0. -1.
        -11    1    3    3    0    0  0.59821316528E+01 -0.87287165810E+01 -0.12489210128E+01  0.10655336514E+02  0.51100000000E-03 0.  1.
        -12    1    3    3    0    0  0.22306107541E+01 -0.47527647496E+01  0.20039008938E+02  0.20715363292E+02  0.00000000000E+00 0.  1.
</event>
<event>
 7    1  0.5839176E-013  0.5052886E+02  0.7816164E-02  0.1300439E+00
        -11   -1    0    0    0    0  0.00000000000E+00  0.00000000000E+00  0.45593999997E+02  0.45594000000E+02  0.51100000000E-03 0. -1.
         11   -1    0    0    0    0 -0.00000000000E+00 -0.00000000000E+00 -0.45593999997E+02  0.45594000000E+02  0.51100000000E-03 0.  1.
    9900012    2    1    2    0    0 -0.26427148534E+02 -0.17943123345E+02  0.25155829342E+02  0.50528860746E+02  0.30000002725E+02 0.  0.
        -12    1    1    2    0    0  0.26427148534E+02  0.17943123345E+02 -0.25155829342E+02  0.40659139254E+02  0.00000000000E+00 0.  1.
         11    1    3    3    0    0 -0.11639308748E+02  0.30591586213E+01  0.18810099214E+02  0.22330512585E+02  0.51100000000E-03 0.  1.
        -11    1    3    3    0    0 -0.62893120007E+01 -0.22611372907E+01  0.67042821828E-01  0.66837625848E+01  0.51100000000E-03 0. -1.
        -12    1    3    3    0    0 -0.84985277849E+01 -0.18741144675E+02  0.62786873058E+01  0.21514585577E+02  0.00000000000E+00 0.  1.
</event>
<event>
 7    1  0.5839176E-013  0.5052886E+02  0.7816164E-02  0.1300439E+00
        -11   -1    0    0    0    0  0.00000000000E+00  0.00000000000E+00  0.45593999997E+02  0.45594000000E+02  0.51100000000E-03 0. -1.
         11   -1    0    0    0    0 -0.00000000000E+00 -0.00000000000E+00 -0.45593999997E+02  0.45594000000E+02  0.51100000000E-03 0.  1.
    9900012    2    1    2    0    0  0.11730520409E+02  0.22440091999E+02  0.31811991236E+02  0.50528860506E+02  0.30000001995E+02 0.  0.
        -12    1    1    2    0    0 -0.11730520409E+02 -0.22440091999E+02 -0.31811991236E+02  0.40659139494E+02  0.00000000000E+00 0.  1.
         11    1    3    3    0    0  0.98451073657E+01  0.96020868512E+01  0.24740554782E+02  0.28305852083E+02  0.51100000000E-03 0. -1.
        -11    1    3    3    0    0 -0.27437248427E+01 -0.32854694171E+01  0.11306243258E+01  0.44272617869E+01  0.51100000000E-03 0.  1.
         12    1    3    3    0    0  0.46291378855E+01  0.16123474565E+02  0.59408121276E+01  0.17795746637E+02  0.00000000000E+00 0. -1.
</event>
<event>
 7    1  0.5839176E-013  0.5052886E+02  0.7816164E-02  0.1300439E+00
        -11   -1    0    0    0    0  0.00000000000E+00  0.00000000000E+00  0.45593999997E+02  0.45594000000E+02  0.51100000000E-03 0. -1.
         11   -1    0    0    0    0 -0.00000000000E+00 -0.00000000000E+00 -0.45593999997E+02  0.45594000000E+02  0.51100000000E-03 0.  1.
    9900012    2    1    2    0    0 -0.12556366826E+02  0.20638787710E+02  0.32703879696E+02  0.50528860152E+02  0.30000000918E+02 0.  0.
        -12    1    1    2    0    0  0.12556366826E+02 -0.20638787710E+02 -0.32703879696E+02  0.40659139848E+02  0.00000000000E+00 0.  1.
         11    1    3    3    0    0  0.39583477501E+01  0.12938446177E+02  0.12594844079E+02  0.18485183364E+02  0.51100000000E-03 0. -1.
        -11    1    3    3    0    0 -0.38625116785E+01 -0.51280574160E+01  0.26210379238E+01  0.69343932242E+01  0.51100000000E-03 0.  1.
        -12    1    3    3    0    0 -0.12652202897E+02  0.12828398949E+02  0.17487997694E+02  0.25109283564E+02  0.00000000000E+00 0.  1.
</event>
<event>
 7    1  0.5839176E-013  0.5052886E+02  0.7816164E-02  0.1300439E+00
        -11   -1    0    0    0    0  0.00000000000E+00  0.00000000000E+00  0.45593999997E+02  0.45594000000E+02  0.51100000000E-03 0.  1.
         11   -1    0    0    0    0 -0.00000000000E+00 -0.00000000000E+00 -0.45593999997E+02  0.45594000000E+02  0.51100000000E-03 0. -1.
    9900012    2    1    2    0    0  0.37346930344E+02  0.11011172841E+02 -0.11710103174E+02  0.50528860194E+02  0.30000001044E+02 0.  0.
        -12    1    1    2    0    0 -0.37346930344E+02 -0.11011172841E+02  0.11710103174E+02  0.40659139806E+02  0.00000000000E+00 0.  1.
         11    1    3    3    0    0  0.21205688521E+02  0.19925994283E+02 -0.93026609528E+01  0.30549402202E+02  0.51100000000E-03 0.  1.
        -11    1    3    3    0    0  0.93652480937E+01 -0.56165480850E+01 -0.49990968333E+01  0.12010181250E+02  0.51100000000E-03 0. -1.
        -12    1    3    3    0    0  0.67759937291E+01 -0.32982733572E+01  0.25916546121E+01  0.79692767416E+01  0.00000000000E+00 0.  1.
</event>
<event>
 7    1  0.5839176E-013  0.5052887E+02  0.7816164E-02  0.1300439E+00
        -11   -1    0    0    0    0  0.00000000000E+00  0.00000000000E+00  0.45593999997E+02  0.45594000000E+02  0.51100000000E-03 0. -1.
         11   -1    0    0    0    0 -0.00000000000E+00 -0.00000000000E+00 -0.45593999997E+02  0.45594000000E+02  0.51100000000E-03 0.  1.
    9900012    2    1    2    0    0 -0.26362558278E+02 -0.28813250688E+02 -0.11312679018E+02  0.50528873095E+02  0.30000040259E+02 0.  0.
        -12    1    1    2    0    0  0.26362558278E+02  0.28813250688E+02  0.11312679018E+02  0.40659126905E+02  0.00000000000E+00 0.  1.
         11    1    3    3    0    0 -0.20924558984E+01 -0.62079851457E+01 -0.81773166074E+01  0.10477879481E+02  0.51100000000E-03 0. -1.
        -11    1    3    3    0    0  0.46984345131E-01 -0.64657332796E+01 -0.81858881492E+01  0.10431523351E+02  0.51100000000E-03 0.  1.
         12    1    3    3    0    0 -0.24317086724E+02 -0.16139532263E+02  0.50505257387E+01  0.29619470263E+02  0.00000000000E+00 0. -1.
</event>
<event>
 7    1  0.5839176E-013  0.5052884E+02  0.7816164E-02  0.1300439E+00
        -11   -1    0    0    0    0  0.00000000000E+00  0.00000000000E+00  0.45593999997E+02  0.45594000000E+02  0.51100000000E-03 0. -1.
         11   -1    0    0    0    0 -0.00000000000E+00 -0.00000000000E+00 -0.45593999997E+02  0.45594000000E+02  0.51100000000E-03 0.  1.
    9900012    2    1    2    0    0  0.35890260120E+02  0.90578571258E+01  0.16822945992E+02  0.50528842864E+02  0.29999948368E+02 0.  0.
        -12    1    1    2    0    0 -0.35890260120E+02 -0.90578571258E+01 -0.16822945992E+02  0.40659157136E+02  0.00000000000E+00 0.  1.
         11    1    3    3    0    0  0.18170339773E+02  0.38989947216E+01  0.10984596840E+02  0.21587606984E+02  0.51100000000E-03 0. -1.
        -11    1    3    3    0    0  0.20768734581E+02  0.39728260309E+01 -0.12004677973E+01  0.21179348573E+02  0.51100000000E-03 0.  1.
        -12    1    3    3    0    0 -0.30488142342E+01  0.11860363732E+01  0.70388169493E+01  0.77618873065E+01  0.00000000000E+00 0.  1.
</event>
<event>
 7    1  0.5839176E-013  0.5052886E+02  0.7816164E-02  0.1300439E+00
        -11   -1    0    0    0    0  0.00000000000E+00  0.00000000000E+00  0.45593999997E+02  0.45594000000E+02  0.51100000000E-03 0. -1.
         11   -1    0    0    0    0 -0.00000000000E+00 -0.00000000000E+00 -0.45593999997E+02  0.45594000000E+02  0.51100000000E-03 0.  1.
    9900012    2    1    2    0    0 -0.31785105189E+02  0.12826802429E+02 -0.21871116836E+02  0.50528861740E+02  0.30000005744E+02 0.  0.
        -12    1    1    2    0    0  0.31785105189E+02 -0.12826802429E+02  0.21871116836E+02  0.40659138260E+02  0.00000000000E+00 0.  1.
         11    1    3    3    0    0 -0.52866074670E+01  0.14399879766E+00 -0.45076354630E+01  0.69489374650E+01  0.51100000000E-03 0. -1.
        -11    1    3    3    0    0 -0.31456324369E+02  0.14056839729E+02 -0.17006464069E+02  0.38422843549E+02  0.51100000000E-03 0.  1.
         12    1    3    3    0    0  0.49578266470E+01 -0.13740360979E+01 -0.35701730400E+00  0.51570807261E+01  0.00000000000E+00 0. -1.
</event>
<event>
 7    1  0.5839176E-013  0.5052886E+02  0.7816164E-02  0.1300439E+00
        -11   -1    0    0    0    0  0.00000000000E+00  0.00000000000E+00  0.45593999997E+02  0.45594000000E+02  0.51100000000E-03 0.  1.
         11   -1    0    0    0    0 -0.00000000000E+00 -0.00000000000E+00 -0.45593999997E+02  0.45594000000E+02  0.51100000000E-03 0. -1.
    9900012    2    1    2    0    0 -0.11359074840E+02  0.29192936251E+02  0.25921221155E+02  0.50528858170E+02  0.29999994894E+02 0.  0.
        -12    1    1    2    0    0  0.11359074840E+02 -0.29192936251E+02 -0.25921221155E+02  0.40659141830E+02  0.00000000000E+00 0.  1.
         11    1    3    3    0    0 -0.10237640598E+02  0.71522629845E+01  0.48786152326E+01  0.13407648477E+02  0.51100000000E-03 0. -1.
        -11    1    3    3    0    0 -0.91854231485E+01  0.78955779118E+01  0.23619869636E+01  0.12340629305E+02  0.51100000000E-03 0.  1.
        -12    1    3    3    0    0  0.80639889068E+01  0.14145095355E+02  0.18680618959E+02  0.24780580388E+02  0.00000000000E+00 0.  1.
</event>
<event>
 7    1  0.5839176E-013  0.5052886E+02  0.7816164E-02  0.1300439E+00
        -11   -1    0    0    0    0  0.00000000000E+00  0.00000000000E+00  0.45593999997E+02  0.45594000000E+02  0.51100000000E-03 0.  1.
         11   -1    0    0    0    0 -0.00000000000E+00 -0.00000000000E+00 -0.45593999997E+02  0.45594000000E+02  0.51100000000E-03 0. -1.
    9900012    2    1    2    0    0  0.36463005107E+02 -0.28682217979E+01 -0.17759170906E+02  0.50528860942E+02  0.30000003318E+02 0.  0.
        -12    1    1    2    0    0 -0.36463005107E+02  0.28682217979E+01  0.17759170906E+02  0.40659139058E+02  0.00000000000E+00 0.  1.
         11    1    3    3    0    0  0.23776419608E+02 -0.11502450875E+02 -0.14118055710E+02  0.29949023403E+02  0.51100000000E-03 0. -1.
        -11    1    3    3    0    0 -0.42628998742E+00 -0.19515750761E+01 -0.31379533008E+01  0.37198279006E+01  0.51100000000E-03 0.  1.
        -12    1    3    3    0    0  0.13112875486E+02  0.10585804154E+02 -0.50316189595E+00  0.16860009638E+02  0.00000000000E+00 0.  1.
</event>
<event>
 7    1  0.5839176E-013  0.5052886E+02  0.7816164E-02  0.1300439E+00
        -11   -1    0    0    0    0  0.00000000000E+00  0.00000000000E+00  0.45593999997E+02  0.45594000000E+02  0.51100000000E-03 0.  1.
         11   -1    0    0    0    0 -0.00000000000E+00 -0.00000000000E+00 -0.45593999997E+02  0.45594000000E+02  0.51100000000E-03 0. -1.
    9900012    2    1    2    0    0  0.25654704859E+02 -0.85335799306E+01 -0.30367412697E+02  0.50528860539E+02  0.30000002093E+02 0.  0.
        -12    1    1    2    0    0 -0.25654704859E+02  0.85335799306E+01  0.30367412697E+02  0.40659139461E+02  0.00000000000E+00 0.  1.
         11    1    3    3    0    0  0.14573560483E+02 -0.10530779493E+02 -0.27474726945E+02  0.32835142802E+02  0.51100000000E-03 0. -1.
        -11    1    3    3    0    0  0.32602875306E+01 -0.43704908624E+01 -0.49915776901E+01  0.73923279999E+01  0.51100000000E-03 0.  1.
        -12    1    3    3    0    0  0.78208568456E+01  0.63676904246E+01  0.20988919379E+01  0.10301389737E+02  0.00000000000E+00 0.  1.
</event>
<event>
 7    1  0.5839176E-013  0.5052890E+02  0.7816164E-02  0.1300439E+00
        -11   -1    0    0    0    0  0.00000000000E+00  0.00000000000E+00  0.45593999997E+02  0.45594000000E+02  0.51100000000E-03 0.  1.
         11   -1    0    0    0    0 -0.00000000000E+00 -0.00000000000E+00 -0.45593999997E+02  0.45594000000E+02  0.51100000000E-03 0. -1.
    9900012    2    1    2    0    0  0.27988654464E+02  0.65253522909E+01 -0.28761391519E+02  0.50528897165E+02  0.30000113423E+02 0.  0.
        -12    1    1    2    0    0 -0.27988654464E+02 -0.65253522909E+01  0.28761391519E+02  0.40659102835E+02  0.00000000000E+00 0.  1.
         11    1    3    3    0    0 -0.15358999860E+00 -0.27218195915E+01 -0.11080731847E+02  0.11411157272E+02  0.51100000000E-03 0. -1.
        -11    1    3    3    0    0  0.26697420947E+02  0.32152596821E+01 -0.18805978894E+02  0.32813945548E+02  0.51100000000E-03 0.  1.
        -12    1    3    3    0    0  0.14448235157E+01  0.60319122003E+01  0.11253192214E+01  0.63037943442E+01  0.00000000000E+00 0.  1.
</event>
<event>
 7    1  0.7742613E-013  0.5052888E+02  0.7816164E-02  0.1300439E+00
        -11   -1    0    0    0    0  0.00000000000E+00  0.00000000000E+00  0.45593999997E+02  0.45594000000E+02  0.51100000000E-03 0.  1.
         11   -1    0    0    0    0 -0.00000000000E+00 -0.00000000000E+00 -0.45593999997E+02  0.45594000000E+02  0.51100000000E-03 0. -1.
    9900012    2    1    2    0    0 -0.16760088010E+02 -0.58097983546E+01 -0.36585649259E+02  0.50528880005E+02  0.30000061265E+02 0.  0.
        -12    1    1    2    0    0  0.16760088010E+02  0.58097983546E+01  0.36585649259E+02  0.40659119995E+02  0.00000000000E+00 0.  1.
         11    1    3    3    0    0 -0.35916059796E+01  0.13408358940E+01 -0.55108180068E+01  0.67131654064E+01  0.51100000000E-03 0. -1.
        -11    1    3    3    0    0 -0.19220446015E+01  0.43651541483E+01  0.33399017368E+01  0.58226943987E+01  0.51100000000E-03 0.  1.
        -12    1    3    3    0    0 -0.11246437429E+02 -0.11515788397E+02 -0.34414732989E+02  0.37993020200E+02  0.00000000000E+00 0.  1.
</event>
<event>
 7    1  0.5839176E-013  0.5052887E+02  0.7816164E-02  0.1300439E+00
        -11   -1    0    0    0    0  0.00000000000E+00  0.00000000000E+00  0.45593999997E+02  0.45594000000E+02  0.51100000000E-03 0.  1.
         11   -1    0    0    0    0 -0.00000000000E+00 -0.00000000000E+00 -0.45593999997E+02  0.45594000000E+02  0.51100000000E-03 0. -1.
    9900012    2    1    2    0    0  0.86336448929E+01 -0.67568121491E+01 -0.39153167643E+02  0.50528869770E+02  0.30000030153E+02 0.  0.
        -12    1    1    2    0    0 -0.86336448929E+01  0.67568121491E+01  0.39153167643E+02  0.40659130230E+02  0.00000000000E+00 0.  1.
         11    1    3    3    0    0 -0.37603676110E+01 -0.43632035921E+01 -0.93801824270E+01  0.11007530730E+02  0.51100000000E-03 0. -1.
        -11    1    3    3    0    0 -0.49963296767E+01  0.71580625129E+00 -0.16967324670E+02  0.17702140987E+02  0.51100000000E-03 0.  1.
         12    1    3    3    0    0  0.17390342181E+02 -0.31094148083E+01 -0.12805660547E+02  0.21819198052E+02  0.00000000000E+00 0. -1.
</event>
<event>
 7    1  0.5839176E-013  0.5052887E+02  0.7816164E-02  0.1300439E+00
        -11   -1    0    0    0    0  0.00000000000E+00  0.00000000000E+00  0.45593999997E+02  0.45594000000E+02  0.51100000000E-03 0.  1.
         11   -1    0    0    0    0 -0.00000000000E+00 -0.00000000000E+00 -0.45593999997E+02  0.45594000000E+02  0.51100000000E-03 0. -1.
    9900012    2    1    2    0    0 -0.25378725183E+02 -0.17822719386E+02 -0.26295167019E+02  0.50528870315E+02  0.30000031808E+02 0.  0.
        -12    1    1    2    0    0  0.25378725183E+02  0.17822719386E+02  0.26295167019E+02  0.40659129685E+02  0.00000000000E+00 0.  1.
         11    1    3    3    0    0 -0.27450691395E+02 -0.22984138474E+02 -0.21368478717E+02  0.41694399652E+02  0.51100000000E-03 0. -1.
        -11    1    3    3    0    0  0.12442936220E+01  0.33235573493E+00 -0.35031202673E+01  0.37323690628E+01  0.51100000000E-03 0.  1.
        -12    1    3    3    0    0  0.82767258950E+00  0.48290633529E+01 -0.14235680345E+01  0.51021015994E+01  0.00000000000E+00 0.  1.
</event>
<event>
 7    1  0.5839176E-013  0.5052886E+02  0.7816164E-02  0.1300439E+00
        -11   -1    0    0    0    0  0.00000000000E+00  0.00000000000E+00  0.45593999997E+02  0.45594000000E+02  0.51100000000E-03 0.  1.
         11   -1    0    0    0    0 -0.00000000000E+00 -0.00000000000E+00 -0.45593999997E+02  0.45594000000E+02  0.51100000000E-03 0. -1.
    9900012    2    1    2    0    0 -0.21063776281E+02 -0.10675864704E+02 -0.33098469698E+02  0.50528862593E+02  0.30000008336E+02 0.  0.
        -12    1    1    2    0    0  0.21063776281E+02  0.10675864704E+02  0.33098469698E+02  0.40659137407E+02  0.00000000000E+00 0.  1.
         11    1    3    3    0    0  0.21006863009E+01 -0.30712291463E+01 -0.71519199317E+01  0.80619656645E+01  0.51100000000E-03 0. -1.
        -11    1    3    3    0    0 -0.50940511999E+01 -0.13643346264E+02 -0.11503894532E+02  0.18558821207E+02  0.51100000000E-03 0.  1.
        -12    1    3    3    0    0 -0.18070411382E+02  0.60387107066E+01 -0.14442655234E+02  0.23908075721E+02  0.00000000000E+00 0.  1.
</event>
<event>
 7    1  0.5839176E-013  0.5052886E+02  0.7816164E-02  0.1300439E+00
        -11   -1    0    0    0    0  0.00000000000E+00  0.00000000000E+00  0.45593999997E+02  0.45594000000E+02  0.51100000000E-03 0. -1.
         11   -1    0    0    0    0 -0.00000000000E+00 -0.00000000000E+00 -0.45593999997E+02  0.45594000000E+02  0.51100000000E-03 0.  1.
    9900012    2    1    2    0    0  0.17397344123E+02 -0.12288059612E+01  0.36728570354E+02  0.50528862935E+02  0.30000009377E+02 0.  0.
        -12    1    1    2    0    0 -0.17397344123E+02  0.12288059612E+01 -0.36728570354E+02  0.40659137065E+02  0.00000000000E+00 0.  1.
         11    1    3    3    0    0  0.36212280514E+01  0.52593809021E+01  0.37607666149E+01  0.74106508396E+01  0.51100000000E-03 0. -1.
        -11    1    3    3    0    0 -0.65501751728E+00  0.48222751560E+01 -0.56574161103E+00  0.48993315320E+01  0.51100000000E-03 0.  1.
         12    1    3    3    0    0  0.14431133588E+02 -0.11310462019E+02  0.33533545350E+02  0.38218880563E+02  0.00000000000E+00 0. -1.
</event>
<event>
 7    1  0.5839176E-013  0.5052886E+02  0.7816164E-02  0.1300439E+00
        -11   -1    0    0    0    0  0.00000000000E+00  0.00000000000E+00  0.45593999997E+02  0.45594000000E+02  0.51100000000E-03 0. -1.
         11   -1    0    0    0    0 -0.00000000000E+00 -0.00000000000E+00 -0.45593999997E+02  0.45594000000E+02  0.51100000000E-03 0.  1.
    9900012    2    1    2    0    0 -0.38179860443E+02  0.93149174814E+01  0.10425758576E+02  0.50528857448E+02  0.29999992700E+02 0.  0.
        -12    1    1    2    0    0  0.38179860443E+02 -0.93149174814E+01 -0.10425758576E+02  0.40659142552E+02  0.00000000000E+00 0.  1.
         11    1    3    3    0    0 -0.18797153526E+02  0.19107021673E+01  0.10563618527E+02  0.21646565550E+02  0.51100000000E-03 0. -1.
        -11    1    3    3    0    0 -0.14724082288E+02 -0.31120312199E+01  0.55635619491E+01  0.16044829677E+02  0.51100000000E-03 0.  1.
        -12    1    3    3    0    0 -0.46586246285E+01  0.10516246534E+02 -0.57014219005E+01  0.12837462221E+02  0.00000000000E+00 0.  1.
</event>
<event>
 7    1  0.5839176E-013  0.5052887E+02  0.7816164E-02  0.1300439E+00
        -11   -1    0    0    0    0  0.00000000000E+00  0.00000000000E+00  0.45593999997E+02  0.45594000000E+02  0.51100000000E-03 0.  1.
         11   -1    0    0    0    0 -0.00000000000E+00 -0.00000000000E+00 -0.45593999997E+02  0.45594000000E+02  0.51100000000E-03 0. -1.
    9900012    2    1    2    0    0  0.42505879992E+01 -0.14864754832E+02 -0.37605009188E+02  0.50528866332E+02  0.30000019704E+02 0.  0.
        -12    1    1    2    0    0 -0.42505879992E+01  0.14864754832E+02  0.37605009188E+02  0.40659133668E+02  0.00000000000E+00 0.  1.
         11    1    3    3    0    0 -0.11234797434E+01  0.15957995741E+01 -0.24626266713E+00  0.19670863166E+01  0.51100000000E-03 0.  1.
        -11    1    3    3    0    0  0.90095091815E+01 -0.75713619667E+01 -0.20191088644E+01  0.11940417857E+02  0.51100000000E-03 0. -1.
         12    1    3    3    0    0 -0.36354414390E+01 -0.88891924399E+01 -0.35339637657E+02  0.36621362159E+02  0.00000000000E+00 0. -1.
</event>
<event>
 7    1  0.5839176E-013  0.5052888E+02  0.7816164E-02  0.1300439E+00
        -11   -1    0    0    0    0  0.00000000000E+00  0.00000000000E+00  0.45593999997E+02  0.45594000000E+02  0.51100000000E-03 0.  1.
         11   -1    0    0    0    0 -0.00000000000E+00 -0.00000000000E+00 -0.45593999997E+02  0.45594000000E+02  0.51100000000E-03 0. -1.
    9900012    2    1    2    0    0  0.99334550398E+01  0.25549973916E+02 -0.30028139209E+02  0.50528882443E+02  0.30000068675E+02 0.  0.
        -12    1    1    2    0    0 -0.99334550398E+01 -0.25549973916E+02  0.30028139209E+02  0.40659117557E+02  0.00000000000E+00 0.  1.
         11    1    3    3    0    0 -0.31943896025E+00  0.81834146072E+01 -0.94863797653E+01  0.12532426628E+02  0.51100000000E-03 0. -1.
        -11    1    3    3    0    0 -0.40392225910E+01  0.10191535206E+02 -0.18992706620E+02  0.21929560279E+02  0.51100000000E-03 0.  1.
        -12    1    3    3    0    0  0.14292116591E+02  0.71750241020E+01 -0.15490528233E+01  0.16066895536E+02  0.00000000000E+00 0.  1.
</event>
<event>
 7    1  0.5839176E-013  0.5052883E+02  0.7816164E-02  0.1300439E+00
        -11   -1    0    0    0    0  0.00000000000E+00  0.00000000000E+00  0.45593999997E+02  0.45594000000E+02  0.51100000000E-03 0.  1.
         11   -1    0    0    0    0 -0.00000000000E+00 -0.00000000000E+00 -0.45593999997E+02  0.45594000000E+02  0.51100000000E-03 0. -1.
    9900012    2    1    2    0    0 -0.11604460566E+01 -0.26689821011E+02 -0.30650853236E+02  0.50528831480E+02  0.29999913766E+02 0.  0.
        -12    1    1    2    0    0  0.11604460566E+01  0.26689821011E+02  0.30650853236E+02  0.40659168520E+02  0.00000000000E+00 0.  1.
         11    1    3    3    0    0  0.36786766982E+00 -0.35395177630E+01 -0.16701206449E+02  0.17076118111E+02  0.51100000000E-03 0. -1.
        -11    1    3    3    0    0 -0.70752529475E+01 -0.35512627127E+01 -0.99156647637E+01  0.12688226003E+02  0.51100000000E-03 0.  1.
        -12    1    3    3    0    0  0.55469392211E+01 -0.19599040535E+02 -0.40339820233E+01  0.20764487367E+02  0.00000000000E+00 0.  1.
</event>
<event>
 7    1  0.5839176E-013  0.5052886E+02  0.7816164E-02  0.1300439E+00
        -11   -1    0    0    0    0  0.00000000000E+00  0.00000000000E+00  0.45593999997E+02  0.45594000000E+02  0.51100000000E-03 0. -1.
         11   -1    0    0    0    0 -0.00000000000E+00 -0.00000000000E+00 -0.45593999997E+02  0.45594000000E+02  0.51100000000E-03 0.  1.
    9900012    2    1    2    0    0  0.17376065070E+02  0.23067100494E+02  0.28620740089E+02  0.50528861719E+02  0.30000005680E+02 0.  0.
        -12    1    1    2    0    0 -0.17376065070E+02 -0.23067100494E+02 -0.28620740089E+02  0.40659138281E+02  0.00000000000E+00 0.  1.
         11    1    3    3    0    0  0.64589013039E+01  0.16518236178E+02  0.14715269761E+02  0.23045795645E+02  0.51100000000E-03 0. -1.
        -11    1    3    3    0    0 -0.36165006618E+01  0.23032416869E+01  0.11343451928E+02  0.12126743223E+02  0.51100000000E-03 0.  1.
        -12    1    3    3    0    0  0.14533664428E+02  0.42456226288E+01  0.25620184006E+01  0.15356322851E+02  0.00000000000E+00 0.  1.
</event>
<event>
 7    1  0.5839176E-013  0.5052886E+02  0.7816164E-02  0.1300439E+00
        -11   -1    0    0    0    0  0.00000000000E+00  0.00000000000E+00  0.45593999997E+02  0.45594000000E+02  0.51100000000E-03 0. -1.
         11   -1    0    0    0    0 -0.00000000000E+00 -0.00000000000E+00 -0.45593999997E+02  0.45594000000E+02  0.51100000000E-03 0.  1.
    9900012    2    1    2    0    0 -0.24440269588E+02 -0.20205732599E+02 -0.25447345032E+02  0.50528858635E+02  0.29999996306E+02 0.  0.
        -12    1    1    2    0    0  0.24440269588E+02  0.20205732599E+02  0.25447345032E+02  0.40659141365E+02  0.00000000000E+00 0.  1.
         11    1    3    3    0    0 -0.44457688581E+01 -0.41108527005E+01  0.29918263284E+01  0.67538874513E+01  0.51100000000E-03 0. -1.
        -11    1    3    3    0    0 -0.15794841912E+01 -0.23006565898E+01 -0.18503619381E+02  0.18712875821E+02  0.51100000000E-03 0.  1.
         12    1    3    3    0    0 -0.18415016538E+02 -0.13794223308E+02 -0.99355519797E+01  0.25062095362E+02  0.00000000000E+00 0. -1.
</event>
<event>
 7    1  0.5839176E-013  0.5052885E+02  0.7816164E-02  0.1300439E+00
        -11   -1    0    0    0    0  0.00000000000E+00  0.00000000000E+00  0.45593999997E+02  0.45594000000E+02  0.51100000000E-03 0.  1.
         11   -1    0    0    0    0 -0.00000000000E+00 -0.00000000000E+00 -0.45593999997E+02  0.45594000000E+02  0.51100000000E-03 0. -1.
    9900012    2    1    2    0    0  0.25158454516E+02 -0.26276917496E+02 -0.18158799874E+02  0.50528852941E+02  0.29999978999E+02 0.  0.
        -12    1    1    2    0    0 -0.25158454516E+02  0.26276917496E+02  0.18158799874E+02  0.40659147059E+02  0.00000000000E+00 0.  1.
         11    1    3    3    0    0  0.12097206754E+02 -0.54530278052E+01 -0.16649504585E+02  0.21290465628E+02  0.51100000000E-03 0. -1.
        -11    1    3    3    0    0 -0.26060528125E+00 -0.13864884621E+01 -0.51988125812E+01  0.53868281840E+01  0.51100000000E-03 0.  1.
        -12    1    3    3    0    0  0.13321853043E+02 -0.19437401229E+02  0.36895172915E+01  0.23851559128E+02  0.00000000000E+00 0.  1.
</event>
<event>
 7    1  0.5839176E-013  0.5052885E+02  0.7816164E-02  0.1300439E+00
        -11   -1    0    0    0    0  0.00000000000E+00  0.00000000000E+00  0.45593999997E+02  0.45594000000E+02  0.51100000000E-03 0. -1.
         11   -1    0    0    0    0 -0.00000000000E+00 -0.00000000000E+00 -0.45593999997E+02  0.45594000000E+02  0.51100000000E-03 0.  1.
    9900012    2    1    2    0    0 -0.84798891878E+00 -0.20164697109E+02  0.35296345205E+02  0.50528854909E+02  0.29999984982E+02 0.  0.
        -12    1    1    2    0    0  0.84798891878E+00  0.20164697109E+02 -0.35296345205E+02  0.40659145091E+02  0.00000000000E+00 0.  1.
         11    1    3    3    0    0 -0.14094803307E+01  0.12672855704E+01  0.40721754601E+01  0.44916879631E+01  0.51100000000E-03 0.  1.
        -11    1    3    3    0    0 -0.20703457903E+01 -0.17402585112E+01 -0.44480898564E+01  0.52057982106E+01  0.51100000000E-03 0. -1.
         12    1    3    3    0    0  0.26318372022E+01 -0.19691724168E+02  0.35672259601E+02  0.40831368736E+02  0.00000000000E+00 0. -1.
</event>
<event>
 7    1  0.5839176E-013  0.5052885E+02  0.7816164E-02  0.1300439E+00
        -11   -1    0    0    0    0  0.00000000000E+00  0.00000000000E+00  0.45593999997E+02  0.45594000000E+02  0.51100000000E-03 0. -1.
         11   -1    0    0    0    0 -0.00000000000E+00 -0.00000000000E+00 -0.45593999997E+02  0.45594000000E+02  0.51100000000E-03 0.  1.
    9900012    2    1    2    0    0  0.11686493179E+01  0.26725099375E+01  0.40554388348E+02  0.50528850171E+02  0.29999970579E+02 0.  0.
        -12    1    1    2    0    0 -0.11686493179E+01 -0.26725099375E+01 -0.40554388348E+02  0.40659149829E+02  0.00000000000E+00 0.  1.
         11    1    3    3    0    0  0.44562576266E+01 -0.43908039974E+01  0.85513442588E+00  0.63141624089E+01  0.51100000000E-03 0. -1.
        -11    1    3    3    0    0  0.17666158115E+01  0.48568582710E+01  0.11780694898E+01  0.53007406722E+01  0.51100000000E-03 0.  1.
         12    1    3    3    0    0 -0.50542241203E+01  0.22064556639E+01  0.38521184432E+02  0.38913947090E+02  0.00000000000E+00 0. -1.
</event>
<event>
 7    1  0.5839176E-013  0.5052886E+02  0.7816164E-02  0.1300439E+00
        -11   -1    0    0    0    0  0.00000000000E+00  0.00000000000E+00  0.45593999997E+02  0.45594000000E+02  0.51100000000E-03 0.  1.
         11   -1    0    0    0    0 -0.00000000000E+00 -0.00000000000E+00 -0.45593999997E+02  0.45594000000E+02  0.51100000000E-03 0. -1.
    9900012    2    1    2    0    0  0.20945971313E+02  0.80656247160E+01 -0.33902468227E+02  0.50528863657E+02  0.30000011572E+02 0.  0.
        -12    1    1    2    0    0 -0.20945971313E+02 -0.80656247160E+01  0.33902468227E+02  0.40659136343E+02  0.00000000000E+00 0.  1.
         11    1    3    3    0    0  0.62216940640E+01  0.49327809230E+01 -0.19473860758E+01  0.81752136027E+01  0.51100000000E-03 0. -1.
        -11    1    3    3    0    0  0.84134272350E+01  0.75010282027E+01 -0.20212235005E+01  0.11451485783E+02  0.51100000000E-03 0.  1.
        -12    1    3    3    0    0  0.63108500135E+01 -0.43681844097E+01 -0.29933858651E+02  0.30902164271E+02  0.00000000000E+00 0.  1.
</event>
<event>
 7    1  0.5839176E-013  0.5052886E+02  0.7816164E-02  0.1300439E+00
        -11   -1    0    0    0    0  0.00000000000E+00  0.00000000000E+00  0.45593999997E+02  0.45594000000E+02  0.51100000000E-03 0. -1.
         11   -1    0    0    0    0 -0.00000000000E+00 -0.00000000000E+00 -0.45593999997E+02  0.45594000000E+02  0.51100000000E-03 0.  1.
    9900012    2    1    2    0    0 -0.33511978756E+02 -0.88970221075E+01  0.21235728954E+02  0.50528857034E+02  0.29999991441E+02 0.  0.
        -12    1    1    2    0    0  0.33511978756E+02  0.88970221075E+01 -0.21235728954E+02  0.40659142966E+02  0.00000000000E+00 0.  1.
         11    1    3    3    0    0 -0.13309643772E+02 -0.14845832120E+02  0.96187998942E+01  0.22137449274E+02  0.51100000000E-03 0. -1.
        -11    1    3    3    0    0 -0.15395969572E+02 -0.60914442135E+00  0.12980765725E+02  0.20147139128E+02  0.51100000000E-03 0.  1.
        -12    1    3    3    0    0 -0.48063654119E+01  0.65579544341E+01 -0.13638366653E+01  0.82442686323E+01  0.00000000000E+00 0.  1.
</event>
<event>
 7    1  0.5839176E-013  0.5052886E+02  0.7816164E-02  0.1300439E+00
        -11   -1    0    0    0    0  0.00000000000E+00  0.00000000000E+00  0.45593999997E+02  0.45594000000E+02  0.51100000000E-03 0. -1.
         11   -1    0    0    0    0 -0.00000000000E+00 -0.00000000000E+00 -0.45593999997E+02  0.45594000000E+02  0.51100000000E-03 0.  1.
    9900012    2    1    2    0    0  0.51105043717E+01  0.39569047775E+02  0.78319344084E+01  0.50528855969E+02  0.29999988204E+02 0.  0.
        -12    1    1    2    0    0 -0.51105043717E+01 -0.39569047775E+02 -0.78319344084E+01  0.40659144031E+02  0.00000000000E+00 0.  1.
         11    1    3    3    0    0 -0.44584390141E+01  0.84810482442E+01 -0.62597176448E+01  0.11445082919E+02  0.51100000000E-03 0. -1.
        -11    1    3    3    0    0 -0.15211928094E+01  0.22646497576E+00  0.47392619481E+01  0.49825613917E+01  0.51100000000E-03 0.  1.
         12    1    3    3    0    0  0.11090136195E+02  0.30861534555E+02  0.93523901051E+01  0.34101211659E+02  0.00000000000E+00 0. -1.
</event>
<event>
 7    1  0.5839176E-013  0.5052886E+02  0.7816164E-02  0.1300439E+00
        -11   -1    0    0    0    0  0.00000000000E+00  0.00000000000E+00  0.45593999997E+02  0.45594000000E+02  0.51100000000E-03 0.  1.
         11   -1    0    0    0    0 -0.00000000000E+00 -0.00000000000E+00 -0.45593999997E+02  0.45594000000E+02  0.51100000000E-03 0. -1.
    9900012    2    1    2    0    0 -0.19934138814E+02 -0.30820970569E+02 -0.17488954587E+02  0.50528860196E+02  0.30000001051E+02 0.  0.
        -12    1    1    2    0    0  0.19934138814E+02  0.30820970569E+02  0.17488954587E+02  0.40659139804E+02  0.00000000000E+00 0.  1.
         11    1    3    3    0    0 -0.53206652283E+01 -0.66490228335E+01  0.12087562040E+01  0.86011670681E+01  0.51100000000E-03 0. -1.
        -11    1    3    3    0    0 -0.26991259242E+01 -0.16176579203E+00  0.53006255246E+01  0.59504689008E+01  0.51100000000E-03 0.  1.
         12    1    3    3    0    0 -0.11914347661E+02 -0.24010181943E+02 -0.23998336316E+02  0.35977224227E+02  0.00000000000E+00 0. -1.
</event>
<event>
 7    1  0.5839176E-013  0.5052886E+02  0.7816164E-02  0.1300439E+00
        -11   -1    0    0    0    0  0.00000000000E+00  0.00000000000E+00  0.45593999997E+02  0.45594000000E+02  0.51100000000E-03 0.  1.
         11   -1    0    0    0    0 -0.00000000000E+00 -0.00000000000E+00 -0.45593999997E+02  0.45594000000E+02  0.51100000000E-03 0. -1.
    9900012    2    1    2    0    0  0.34804664251E+02 -0.12891639957E+02 -0.16601395470E+02  0.50528863683E+02  0.30000011652E+02 0.  0.
        -12    1    1    2    0    0 -0.34804664251E+02  0.12891639957E+02  0.16601395470E+02  0.40659136317E+02  0.00000000000E+00 0.  1.
         11    1    3    3    0    0  0.38646014305E+01 -0.10843413042E+02 -0.57663489193E+01  0.12874996339E+02  0.51100000000E-03 0. -1.
        -11    1    3    3    0    0  0.14311964748E+02 -0.10025721810E+02 -0.35903124699E+01  0.17839220180E+02  0.51100000000E-03 0.  1.
        -12    1    3    3    0    0  0.16628098073E+02  0.79774948946E+01 -0.72447340812E+01  0.19814647164E+02  0.00000000000E+00 0.  1.
</event>
<event>
 7    1  0.5839176E-013  0.5052885E+02  0.7816164E-02  0.1300439E+00
        -11   -1    0    0    0    0  0.00000000000E+00  0.00000000000E+00  0.45593999997E+02  0.45594000000E+02  0.51100000000E-03 0.  1.
         11   -1    0    0    0    0 -0.00000000000E+00 -0.00000000000E+00 -0.45593999997E+02  0.45594000000E+02  0.51100000000E-03 0. -1.
    9900012    2    1    2    0    0 -0.20846147567E+02 -0.27721463512E+02 -0.21216159639E+02  0.50528845589E+02  0.29999956651E+02 0.  0.
        -12    1    1    2    0    0  0.20846147567E+02  0.27721463512E+02  0.21216159639E+02  0.40659154411E+02  0.00000000000E+00 0.  1.
         11    1    3    3    0    0 -0.23038856933E+01 -0.19366962620E+00  0.20846033286E+01  0.31130320446E+01  0.51100000000E-03 0. -1.
        -11    1    3    3    0    0 -0.12020312034E+02 -0.15737324390E+01 -0.29674605687E+00  0.12126524385E+02  0.51100000000E-03 0.  1.
         12    1    3    3    0    0 -0.65219498393E+01 -0.25954061447E+02 -0.23004016910E+02  0.35289289159E+02  0.00000000000E+00 0. -1.
</event>
<event>
 7    1  0.5839176E-013  0.5052885E+02  0.7816164E-02  0.1300439E+00
        -11   -1    0    0    0    0  0.00000000000E+00  0.00000000000E+00  0.45593999997E+02  0.45594000000E+02  0.51100000000E-03 0.  1.
         11   -1    0    0    0    0 -0.00000000000E+00 -0.00000000000E+00 -0.45593999997E+02  0.45594000000E+02  0.51100000000E-03 0. -1.
    9900012    2    1    2    0    0  0.37140918539E+02 -0.16531554963E+02  0.65265974681E+00  0.50528854606E+02  0.29999984061E+02 0.  0.
        -12    1    1    2    0    0 -0.37140918539E+02  0.16531554963E+02 -0.65265974681E+00  0.40659145394E+02  0.00000000000E+00 0.  1.
         11    1    3    3    0    0  0.33311741534E+02 -0.10382717153E+02 -0.15652642327E+01  0.34927396008E+02  0.51100000000E-03 0. -1.
        -11    1    3    3    0    0  0.33744202660E+01  0.20924986296E+01  0.54451837875E+01  0.67390866879E+01  0.51100000000E-03 0.  1.
        -12    1    3    3    0    0  0.45475673867E+00 -0.82413364398E+01 -0.32272598080E+01  0.88623719102E+01  0.00000000000E+00 0.  1.
</event>
<event>
 7    1  0.5839176E-013  0.5052878E+02  0.7816164E-02  0.1300439E+00
        -11   -1    0    0    0    0  0.00000000000E+00  0.00000000000E+00  0.45593999997E+02  0.45594000000E+02  0.51100000000E-03 0.  1.
         11   -1    0    0    0    0 -0.00000000000E+00 -0.00000000000E+00 -0.45593999997E+02  0.45594000000E+02  0.51100000000E-03 0. -1.
    9900012    2    1    2    0    0  0.39752998202E+02  0.41395956675E+01 -0.74655773989E+01  0.50528782542E+02  0.29999765015E+02 0.  0.
        -12    1    1    2    0    0 -0.39752998202E+02 -0.41395956675E+01  0.74655773989E+01  0.40659217458E+02  0.00000000000E+00 0.  1.
         11    1    3    3    0    0  0.72855825653E+01 -0.30257223704E+01  0.75715904117E+01  0.10934518316E+02  0.51100000000E-03 0. -1.
        -11    1    3    3    0    0  0.11559110475E+02 -0.35744749202E+01 -0.82702538481E+00  0.12127401914E+02  0.51100000000E-03 0.  1.
         12    1    3    3    0    0  0.20908305162E+02  0.10739792958E+02 -0.14210142426E+02  0.27466862313E+02  0.00000000000E+00 0. -1.
</event>
<event>
 7    1  0.5839176E-013  0.5052886E+02  0.7816164E-02  0.1300439E+00
        -11   -1    0    0    0    0  0.00000000000E+00  0.00000000000E+00  0.45593999997E+02  0.45594000000E+02  0.51100000000E-03 0.  1.
         11   -1    0    0    0    0 -0.00000000000E+00 -0.00000000000E+00 -0.45593999997E+02  0.45594000000E+02  0.51100000000E-03 0. -1.
    9900012    2    1    2    0    0  0.13648311001E+02  0.22680794235E+02 -0.30862130623E+02  0.50528856786E+02  0.29999990687E+02 0.  0.
        -12    1    1    2    0    0 -0.13648311001E+02 -0.22680794235E+02  0.30862130623E+02  0.40659143214E+02  0.00000000000E+00 0.  1.
         11    1    3    3    0    0  0.10978789589E+01  0.68721644688E+01 -0.11113289305E+02  0.13112481921E+02  0.51100000000E-03 0. -1.
        -11    1    3    3    0    0  0.55057679902E+01  0.21766027389E+02 -0.12605472479E+02  0.25748230350E+02  0.51100000000E-03 0.  1.
         12    1    3    3    0    0  0.70446640516E+01 -0.59573976236E+01 -0.71433688394E+01  0.11668144515E+02  0.00000000000E+00 0. -1.
</event>
<event>
 7    1  0.5839176E-013  0.5052888E+02  0.7816164E-02  0.1300439E+00
        -11   -1    0    0    0    0  0.00000000000E+00  0.00000000000E+00  0.45593999997E+02  0.45594000000E+02  0.51100000000E-03 0.  1.
         11   -1    0    0    0    0 -0.00000000000E+00 -0.00000000000E+00 -0.45593999997E+02  0.45594000000E+02  0.51100000000E-03 0. -1.
    9900012    2    1    2    0    0  0.35871214927E+02 -0.19121568967E+02 -0.88638378356E+00  0.50528878806E+02  0.30000057617E+02 0.  0.
        -12    1    1    2    0    0 -0.35871214927E+02  0.19121568967E+02  0.88638378356E+00  0.40659121194E+02  0.00000000000E+00 0.  1.
         11    1    3    3    0    0  0.10517097704E+01  0.30695271047E+01 -0.18804884388E+01  0.37502436077E+01  0.51100000000E-03 0.  1.
        -11    1    3    3    0    0  0.31523760098E+02 -0.23245191119E+02  0.70567481111E+01  0.39798040844E+02  0.51100000000E-03 0. -1.
         12    1    3    3    0    0  0.32957450586E+01  0.10540950472E+01 -0.60626434558E+01  0.69805943537E+01  0.00000000000E+00 0. -1.
</event>
<event>
 7    1  0.5839176E-013  0.5052886E+02  0.7816164E-02  0.1300439E+00
        -11   -1    0    0    0    0  0.00000000000E+00  0.00000000000E+00  0.45593999997E+02  0.45594000000E+02  0.51100000000E-03 0.  1.
         11   -1    0    0    0    0 -0.00000000000E+00 -0.00000000000E+00 -0.45593999997E+02  0.45594000000E+02  0.51100000000E-03 0. -1.
    9900012    2    1    2    0    0  0.94332598766E+01 -0.34111146203E+02  0.20015209008E+02  0.50528864756E+02  0.30000014911E+02 0.  0.
        -12    1    1    2    0    0 -0.94332598766E+01  0.34111146203E+02 -0.20015209008E+02  0.40659135244E+02  0.00000000000E+00 0.  1.
         11    1    3    3    0    0  0.96375345840E+01 -0.31996465292E+02  0.18153821722E+02  0.38029161277E+02  0.51100000000E-03 0. -1.
        -11    1    3    3    0    0  0.51398118609E+01 -0.28665443377E+01  0.35155005205E+01  0.68551795437E+01  0.51100000000E-03 0.  1.
        -12    1    3    3    0    0 -0.53440865684E+01  0.75186342693E+00 -0.16541132342E+01  0.56445239352E+01  0.00000000000E+00 0.  1.
</event>
<event>
 7    1  0.5839176E-013  0.5052886E+02  0.7816164E-02  0.1300439E+00
        -11   -1    0    0    0    0  0.00000000000E+00  0.00000000000E+00  0.45593999997E+02  0.45594000000E+02  0.51100000000E-03 0. -1.
         11   -1    0    0    0    0 -0.00000000000E+00 -0.00000000000E+00 -0.45593999997E+02  0.45594000000E+02  0.51100000000E-03 0.  1.
    9900012    2    1    2    0    0 -0.35050407540E+02  0.17748400567E+02  0.10470381238E+02  0.50528859887E+02  0.30000000114E+02 0.  0.
        -12    1    1    2    0    0  0.35050407540E+02 -0.17748400567E+02 -0.10470381238E+02  0.40659140113E+02  0.00000000000E+00 0.  1.
         11    1    3    3    0    0 -0.49195668819E+01 -0.34860921553E+00  0.63475220286E+01  0.80383271179E+01  0.51100000000E-03 0. -1.
        -11    1    3    3    0    0 -0.84070875424E+01 -0.36440061050E+01  0.71291807446E+01  0.11609613249E+02  0.51100000000E-03 0.  1.
        -12    1    3    3    0    0 -0.21723753116E+02  0.21741015887E+02 -0.30063215349E+01  0.30880919521E+02  0.00000000000E+00 0.  1.
</event>
<event>
 7    1  0.5839176E-013  0.5052885E+02  0.7816164E-02  0.1300439E+00
        -11   -1    0    0    0    0  0.00000000000E+00  0.00000000000E+00  0.45593999997E+02  0.45594000000E+02  0.51100000000E-03 0.  1.
         11   -1    0    0    0    0 -0.00000000000E+00 -0.00000000000E+00 -0.45593999997E+02  0.45594000000E+02  0.51100000000E-03 0. -1.
    9900012    2    1    2    0    0  0.41950938757E+01 -0.36392673724E+02 -0.17639183713E+02  0.50528852008E+02  0.29999976163E+02 0.  0.
        -12    1    1    2    0    0 -0.41950938757E+01  0.36392673724E+02  0.17639183713E+02  0.40659147992E+02  0.00000000000E+00 0.  1.
         11    1    3    3    0    0  0.17301836005E+01 -0.77511917182E+00 -0.52655304263E+01  0.55964413651E+01  0.51100000000E-03 0. -1.
        -11    1    3    3    0    0  0.59417189595E+01 -0.17090760327E+01 -0.86655735299E+01  0.10645051899E+02  0.51100000000E-03 0.  1.
        -12    1    3    3    0    0 -0.34768086842E+01 -0.33908478519E+02 -0.37080797571E+01  0.34287358743E+02  0.00000000000E+00 0.  1.
</event>
<event>
 7    1  0.5904668E-013  0.5052886E+02  0.7816164E-02  0.1300439E+00
        -11   -1    0    0    0    0  0.00000000000E+00  0.00000000000E+00  0.45593999997E+02  0.45594000000E+02  0.51100000000E-03 0. -1.
         11   -1    0    0    0    0 -0.00000000000E+00 -0.00000000000E+00 -0.45593999997E+02  0.45594000000E+02  0.51100000000E-03 0.  1.
    9900012    2    1    2    0    0 -0.18733672501E+02 -0.20920246835E+02  0.29403378303E+02  0.50528857503E+02  0.29999992866E+02 0.  0.
        -12    1    1    2    0    0  0.18733672501E+02  0.20920246835E+02 -0.29403378303E+02  0.40659142497E+02  0.00000000000E+00 0.  1.
         11    1    3    3    0    0 -0.20210513891E+02 -0.16551629545E+02  0.27030219436E+02  0.37590611532E+02  0.51100000000E-03 0. -1.
        -11    1    3    3    0    0 -0.22099850222E+01  0.27249777596E+00 -0.37847332113E+01  0.43911837331E+01  0.51100000000E-03 0.  1.
        -12    1    3    3    0    0  0.36868264127E+01 -0.46411150655E+01  0.61578920782E+01  0.85470622377E+01  0.00000000000E+00 0.  1.
</event>
<event>
 7    1  0.5839176E-013  0.5052892E+02  0.7816164E-02  0.1300439E+00
        -11   -1    0    0    0    0  0.00000000000E+00  0.00000000000E+00  0.45593999997E+02  0.45594000000E+02  0.51100000000E-03 0.  1.
         11   -1    0    0    0    0 -0.00000000000E+00 -0.00000000000E+00 -0.45593999997E+02  0.45594000000E+02  0.51100000000E-03 0. -1.
    9900012    2    1    2    0    0 -0.23312644338E+02  0.30860755072E+02 -0.12541749218E+02  0.50528916598E+02  0.30000172490E+02 0.  0.
        -12    1    1    2    0    0  0.23312644338E+02 -0.30860755072E+02  0.12541749218E+02  0.40659083402E+02  0.00000000000E+00 0.  1.
         11    1    3    3    0    0 -0.13111170509E+02  0.48863708901E+01  0.32978983703E+01  0.14375519000E+02  0.51100000000E-03 0. -1.
        -11    1    3    3    0    0 -0.75004757450E+01  0.89021932613E+01  0.14199570133E+01  0.11726997034E+02  0.51100000000E-03 0.  1.
         12    1    3    3    0    0 -0.27009980844E+01  0.17072190921E+02 -0.17259604601E+02  0.24426400564E+02  0.00000000000E+00 0. -1.
</event>
<event>
 7    1  0.5839176E-013  0.5052886E+02  0.7816164E-02  0.1300439E+00
        -11   -1    0    0    0    0  0.00000000000E+00  0.00000000000E+00  0.45593999997E+02  0.45594000000E+02  0.51100000000E-03 0.  1.
         11   -1    0    0    0    0 -0.00000000000E+00 -0.00000000000E+00 -0.45593999997E+02  0.45594000000E+02  0.51100000000E-03 0. -1.
    9900012    2    1    2    0    0 -0.19615784223E+02  0.47737181899E+01 -0.35293030405E+02  0.50528863620E+02  0.30000011459E+02 0.  0.
        -12    1    1    2    0    0  0.19615784223E+02 -0.47737181899E+01  0.35293030405E+02  0.40659136380E+02  0.00000000000E+00 0.  1.
         11    1    3    3    0    0  0.39893843068E+01  0.27214932185E+01  0.79576112840E+00  0.48943792783E+01  0.51100000000E-03 0. -1.
        -11    1    3    3    0    0 -0.64075879515E+01  0.33550563473E+00 -0.23210256621E+02  0.24080817263E+02  0.51100000000E-03 0.  1.
        -12    1    3    3    0    0 -0.17197580579E+02  0.17167193366E+01 -0.12878534912E+02  0.21553667078E+02  0.00000000000E+00 0.  1.
</event>
<event>
 7    1  0.5839176E-013  0.5052886E+02  0.7816164E-02  0.1300439E+00
        -11   -1    0    0    0    0  0.00000000000E+00  0.00000000000E+00  0.45593999997E+02  0.45594000000E+02  0.51100000000E-03 0.  1.
         11   -1    0    0    0    0 -0.00000000000E+00 -0.00000000000E+00 -0.45593999997E+02  0.45594000000E+02  0.51100000000E-03 0. -1.
    9900012    2    1    2    0    0 -0.16272476899E+02  0.10227573273E+02 -0.35829717725E+02  0.50528862875E+02  0.30000009195E+02 0.  0.
        -12    1    1    2    0    0  0.16272476899E+02 -0.10227573273E+02  0.35829717725E+02  0.40659137125E+02  0.00000000000E+00 0.  1.
         11    1    3    3    0    0 -0.13117820201E+02  0.64554066315E+01 -0.17912287374E+02  0.23121408280E+02  0.51100000000E-03 0. -1.
        -11    1    3    3    0    0 -0.51856434247E+01  0.80641397110E+01 -0.20033127399E+02  0.22209174696E+02  0.51100000000E-03 0.  1.
        -12    1    3    3    0    0  0.20309867269E+01 -0.42919730692E+01  0.21156970487E+01  0.51982798995E+01  0.00000000000E+00 0.  1.
</event>
<event>
 7    1  0.5839176E-013  0.5052886E+02  0.7816164E-02  0.1300439E+00
        -11   -1    0    0    0    0  0.00000000000E+00  0.00000000000E+00  0.45593999997E+02  0.45594000000E+02  0.51100000000E-03 0.  1.
         11   -1    0    0    0    0 -0.00000000000E+00 -0.00000000000E+00 -0.45593999997E+02  0.45594000000E+02  0.51100000000E-03 0. -1.
    9900012    2    1    2    0    0 -0.12911938357E+02  0.16964763281E+02 -0.34621438337E+02  0.50528864030E+02  0.30000012706E+02 0.  0.
        -12    1    1    2    0    0  0.12911938357E+02 -0.16964763281E+02  0.34621438337E+02  0.40659135970E+02  0.00000000000E+00 0.  1.
         11    1    3    3    0    0  0.31928440811E+00 -0.16176719043E+01  0.26660060937E+01  0.31347079092E+01  0.51100000000E-03 0. -1.
        -11    1    3    3    0    0 -0.28494760439E+01 -0.33372704347E+01 -0.27071107863E+01  0.51560970462E+01  0.51100000000E-03 0.  1.
         12    1    3    3    0    0 -0.10381746721E+02  0.21919705620E+02 -0.34580333645E+02  0.42238059075E+02  0.00000000000E+00 0. -1.
</event>
<event>
 7    1  0.5839176E-013  0.5052886E+02  0.7816164E-02  0.1300439E+00
        -11   -1    0    0    0    0  0.00000000000E+00  0.00000000000E+00  0.45593999997E+02  0.45594000000E+02  0.51100000000E-03 0.  1.
         11   -1    0    0    0    0 -0.00000000000E+00 -0.00000000000E+00 -0.45593999997E+02  0.45594000000E+02  0.51100000000E-03 0. -1.
    9900012    2    1    2    0    0 -0.88857126189E+01 -0.14804864606E+02 -0.36810673751E+02  0.50528860723E+02  0.30000002655E+02 0.  0.
        -12    1    1    2    0    0  0.88857126189E+01  0.14804864606E+02  0.36810673751E+02  0.40659139277E+02  0.00000000000E+00 0.  1.
         11    1    3    3    0    0 -0.14613797386E+02 -0.28493155823E+01 -0.11489823432E+02  0.18806852903E+02  0.51100000000E-03 0. -1.
        -11    1    3    3    0    0 -0.20308174392E+01 -0.46050172543E+01 -0.96543315781E+00  0.51246916812E+01  0.51100000000E-03 0.  1.
        -12    1    3    3    0    0  0.77589022068E+01 -0.73505317693E+01 -0.24355417161E+02  0.26597316140E+02  0.00000000000E+00 0.  1.
</event>
<event>
 7    1  0.5839176E-013  0.5052886E+02  0.7816164E-02  0.1300439E+00
        -11   -1    0    0    0    0  0.00000000000E+00  0.00000000000E+00  0.45593999997E+02  0.45594000000E+02  0.51100000000E-03 0.  1.
         11   -1    0    0    0    0 -0.00000000000E+00 -0.00000000000E+00 -0.45593999997E+02  0.45594000000E+02  0.51100000000E-03 0. -1.
    9900012    2    1    2    0    0  0.16064086697E+02 -0.34389187883E+02 -0.14577190042E+02  0.50528860878E+02  0.30000003124E+02 0.  0.
        -12    1    1    2    0    0 -0.16064086697E+02  0.34389187883E+02  0.14577190042E+02  0.40659139122E+02  0.00000000000E+00 0.  1.
         11    1    3    3    0    0  0.58455098717E+01 -0.17907406547E+02  0.52349406045E+01  0.19551209638E+02  0.51100000000E-03 0. -1.
        -11    1    3    3    0    0 -0.55704295990E-01 -0.25305180019E+01  0.19251203085E+01  0.31800491804E+01  0.51100000000E-03 0.  1.
        -12    1    3    3    0    0  0.10274281121E+02 -0.13951263334E+02 -0.21737250955E+02  0.27797602059E+02  0.00000000000E+00 0.  1.
</event>
<event>
 7    1  0.5839176E-013  0.5052886E+02  0.7816164E-02  0.1300439E+00
        -11   -1    0    0    0    0  0.00000000000E+00  0.00000000000E+00  0.45593999997E+02  0.45594000000E+02  0.51100000000E-03 0.  1.
         11   -1    0    0    0    0 -0.00000000000E+00 -0.00000000000E+00 -0.45593999997E+02  0.45594000000E+02  0.51100000000E-03 0. -1.
    9900012    2    1    2    0    0 -0.20670332491E+02  0.61411878303E+00 -0.35007509539E+02  0.50528861897E+02  0.30000006222E+02 0.  0.
        -12    1    1    2    0    0  0.20670332491E+02 -0.61411878303E+00  0.35007509539E+02  0.40659138103E+02  0.00000000000E+00 0.  1.
         11    1    3    3    0    0 -0.13698509909E+02  0.23001282321E+01 -0.31282982603E+02  0.34228128264E+02  0.51100000000E-03 0. -1.
        -11    1    3    3    0    0 -0.21081291937E+01 -0.47642802809E+01 -0.77060270778E+01  0.93019045833E+01  0.51100000000E-03 0.  1.
         12    1    3    3    0    0 -0.48636933884E+01  0.30782708318E+01  0.39815001423E+01  0.69988290501E+01  0.00000000000E+00 0. -1.
</event>
<event>
 7    1  0.5839176E-013  0.5052886E+02  0.7816164E-02  0.1300439E+00
        -11   -1    0    0    0    0  0.00000000000E+00  0.00000000000E+00  0.45593999997E+02  0.45594000000E+02  0.51100000000E-03 0. -1.
         11   -1    0    0    0    0 -0.00000000000E+00 -0.00000000000E+00 -0.45593999997E+02  0.45594000000E+02  0.51100000000E-03 0.  1.
    9900012    2    1    2    0    0  0.16468320270E+02  0.36290043915E+02 -0.80618116171E+01  0.50528859989E+02  0.30000000424E+02 0.  0.
        -12    1    1    2    0    0 -0.16468320270E+02 -0.36290043915E+02  0.80618116171E+01  0.40659140011E+02  0.00000000000E+00 0.  1.
         11    1    3    3    0    0  0.95988346777E+01  0.25732190933E+02 -0.48555157348E+01  0.27890129270E+02  0.51100000000E-03 0. -1.
        -11    1    3    3    0    0  0.66386875261E+01  0.15674099539E+02 -0.96802330314E+00  0.17049534827E+02  0.51100000000E-03 0.  1.
        -12    1    3    3    0    0  0.23079806647E+00 -0.51162465576E+01 -0.22382725792E+01  0.55891958925E+01  0.00000000000E+00 0.  1.
</event>
<event>
 7    1  0.5839176E-013  0.5052886E+02  0.7816164E-02  0.1300439E+00
        -11   -1    0    0    0    0  0.00000000000E+00  0.00000000000E+00  0.45593999997E+02  0.45594000000E+02  0.51100000000E-03 0.  1.
         11   -1    0    0    0    0 -0.00000000000E+00 -0.00000000000E+00 -0.45593999997E+02  0.45594000000E+02  0.51100000000E-03 0. -1.
    9900012    2    1    2    0    0  0.37878242795E+02 -0.13295113394E+02 -0.64532505012E+01  0.50528858846E+02  0.29999996948E+02 0.  0.
        -12    1    1    2    0    0 -0.37878242795E+02  0.13295113394E+02  0.64532505012E+01  0.40659141154E+02  0.00000000000E+00 0.  1.
         11    1    3    3    0    0  0.14036052611E+01 -0.58997662838E+01 -0.46865200760E+01  0.76642560380E+01  0.51100000000E-03 0. -1.
        -11    1    3    3    0    0 -0.12209780384E+01  0.32378255000E+01  0.99540033056E+00  0.36007115155E+01  0.51100000000E-03 0.  1.
         12    1    3    3    0    0  0.37695615572E+02 -0.10633172610E+02 -0.27621307558E+01  0.39263891292E+02  0.00000000000E+00 0. -1.
</event>
<event>
 7    1  0.5839176E-013  0.5052886E+02  0.7816164E-02  0.1300439E+00
        -11   -1    0    0    0    0  0.00000000000E+00  0.00000000000E+00  0.45593999997E+02  0.45594000000E+02  0.51100000000E-03 0. -1.
         11   -1    0    0    0    0 -0.00000000000E+00 -0.00000000000E+00 -0.45593999997E+02  0.45594000000E+02  0.51100000000E-03 0.  1.
    9900012    2    1    2    0    0 -0.29587925877E+01  0.35401826094E+02 -0.19776798440E+02  0.50528862025E+02  0.30000006611E+02 0.  0.
        -12    1    1    2    0    0  0.29587925877E+01 -0.35401826094E+02  0.19776798440E+02  0.40659137975E+02  0.00000000000E+00 0.  1.
         11    1    3    3    0    0  0.72584020245E+01  0.43836121065E+01 -0.47684657743E+01  0.97282434772E+01  0.51100000000E-03 0. -1.
        -11    1    3    3    0    0 -0.98217227870E+00  0.18619542915E+02 -0.16976086008E+02  0.25215858842E+02  0.51100000000E-03 0.  1.
        -12    1    3    3    0    0 -0.92350223335E+01  0.12398671073E+02  0.19677533424E+01  0.15584759706E+02  0.00000000000E+00 0.  1.
</event>
<event>
 7    1  0.5839176E-013  0.5052886E+02  0.7816164E-02  0.1300439E+00
        -11   -1    0    0    0    0  0.00000000000E+00  0.00000000000E+00  0.45593999997E+02  0.45594000000E+02  0.51100000000E-03 0. -1.
         11   -1    0    0    0    0 -0.00000000000E+00 -0.00000000000E+00 -0.45593999997E+02  0.45594000000E+02  0.51100000000E-03 0.  1.
    9900012    2    1    2    0    0  0.14670111688E+02 -0.20177140486E+02  0.32106647037E+02  0.50528856390E+02  0.29999989482E+02 0.  0.
        -12    1    1    2    0    0 -0.14670111688E+02  0.20177140486E+02 -0.32106647037E+02  0.40659143610E+02  0.00000000000E+00 0.  1.
         11    1    3    3    0    0  0.16034146224E+02 -0.50560772127E+01  0.74920286368E+01  0.18406201544E+02  0.51100000000E-03 0. -1.
        -11    1    3    3    0    0  0.44910308792E+01 -0.35686040425E+01  0.20241750419E+01  0.60828922423E+01  0.51100000000E-03 0.  1.
        -12    1    3    3    0    0 -0.58550654150E+01 -0.11552459231E+02  0.22590443359E+02  0.26039762603E+02  0.00000000000E+00 0.  1.
</event>
<event>
 7    1  0.5839176E-013  0.5052885E+02  0.7816164E-02  0.1300439E+00
        -11   -1    0    0    0    0  0.00000000000E+00  0.00000000000E+00  0.45593999997E+02  0.45594000000E+02  0.51100000000E-03 0.  1.
         11   -1    0    0    0    0 -0.00000000000E+00 -0.00000000000E+00 -0.45593999997E+02  0.45594000000E+02  0.51100000000E-03 0. -1.
    9900012    2    1    2    0    0  0.32195580657E+02  0.12898369756E+02 -0.21218928918E+02  0.50528852191E+02  0.29999976718E+02 0.  0.
        -12    1    1    2    0    0 -0.32195580657E+02 -0.12898369756E+02  0.21218928918E+02  0.40659147809E+02  0.00000000000E+00 0.  1.
         11    1    3    3    0    0  0.18547956144E+02  0.15712987766E+02 -0.16452561825E+02  0.29353218776E+02  0.51100000000E-03 0. -1.
        -11    1    3    3    0    0  0.92083271768E+01 -0.45136378299E+01 -0.98476323012E+01  0.14217667814E+02  0.51100000000E-03 0.  1.
        -12    1    3    3    0    0  0.44392973361E+01  0.16990198198E+01  0.50812652085E+01  0.69579656010E+01  0.00000000000E+00 0.  1.
</event>
<event>
 7    1  0.5839176E-013  0.5052886E+02  0.7816164E-02  0.1300439E+00
        -11   -1    0    0    0    0  0.00000000000E+00  0.00000000000E+00  0.45593999997E+02  0.45594000000E+02  0.51100000000E-03 0.  1.
         11   -1    0    0    0    0 -0.00000000000E+00 -0.00000000000E+00 -0.45593999997E+02  0.45594000000E+02  0.51100000000E-03 0. -1.
    9900012    2    1    2    0    0 -0.15971592152E+02 -0.16524673063E+02 -0.33541153381E+02  0.50528861472E+02  0.30000004931E+02 0.  0.
        -12    1    1    2    0    0  0.15971592152E+02  0.16524673063E+02  0.33541153381E+02  0.40659138528E+02  0.00000000000E+00 0.  1.
         11    1    3    3    0    0 -0.15064259125E+01  0.10543793262E+00  0.15589311160E+01  0.21704153227E+01  0.51100000000E-03 0. -1.
        -11    1    3    3    0    0 -0.16153985613E+01  0.64135450484E+01 -0.47469499659E+01  0.81410445791E+01  0.51100000000E-03 0.  1.
         12    1    3    3    0    0 -0.12849767678E+02 -0.23043656044E+02 -0.30353134531E+02  0.40217401571E+02  0.00000000000E+00 0. -1.
</event>
<event>
 7    1  0.5839176E-013  0.5052885E+02  0.7816164E-02  0.1300439E+00
        -11   -1    0    0    0    0  0.00000000000E+00  0.00000000000E+00  0.45593999997E+02  0.45594000000E+02  0.51100000000E-03 0.  1.
         11   -1    0    0    0    0 -0.00000000000E+00 -0.00000000000E+00 -0.45593999997E+02  0.45594000000E+02  0.51100000000E-03 0. -1.
    9900012    2    1    2    0    0 -0.16476375927E+02 -0.73004995613E+01 -0.36447196477E+02  0.50528851108E+02  0.29999973429E+02 0.  0.
        -12    1    1    2    0    0  0.16476375927E+02  0.73004995613E+01  0.36447196477E+02  0.40659148892E+02  0.00000000000E+00 0.  1.
         11    1    3    3    0    0 -0.70722243368E+01 -0.11928589306E+02 -0.12057877177E+02  0.18376615635E+02  0.51100000000E-03 0. -1.
        -11    1    3    3    0    0  0.50914840859E+01 -0.13298633282E+01 -0.55946871168E+01  0.76806426075E+01  0.51100000000E-03 0.  1.
        -12    1    3    3    0    0 -0.14495635676E+02  0.59579530733E+01 -0.18794632184E+02  0.24471592866E+02  0.00000000000E+00 0.  1.
</event>
<event>
 7    1  0.5839176E-013  0.5052886E+02  0.7816164E-02  0.1300439E+00
        -11   -1    0    0    0    0  0.00000000000E+00  0.00000000000E+00  0.45593999997E+02  0.45594000000E+02  0.51100000000E-03 0.  1.
         11   -1    0    0    0    0 -0.00000000000E+00 -0.00000000000E+00 -0.45593999997E+02  0.45594000000E+02  0.51100000000E-03 0. -1.
    9900012    2    1    2    0    0 -0.85747926299E+01  0.40993617789E+01 -0.39532694511E+02  0.50528858704E+02  0.29999996516E+02 0.  0.
        -12    1    1    2    0    0  0.85747926299E+01 -0.40993617789E+01  0.39532694511E+02  0.40659141296E+02  0.00000000000E+00 0.  1.
         11    1    3    3    0    0 -0.85645200650E+01  0.13557498556E+02 -0.30239535005E+02  0.34228442101E+02  0.51100000000E-03 0. -1.
        -11    1    3    3    0    0 -0.26376423739E+01  0.62411386883E+00 -0.71156666819E+00  0.28023209663E+01  0.51100000000E-03 0.  1.
         12    1    3    3    0    0  0.26273698090E+01 -0.10082250645E+02 -0.85815928376E+01  0.13498095637E+02  0.00000000000E+00 0. -1.
</event>
<event>
 7    1  0.5839176E-013  0.5052886E+02  0.7816164E-02  0.1300439E+00
        -11   -1    0    0    0    0  0.00000000000E+00  0.00000000000E+00  0.45593999997E+02  0.45594000000E+02  0.51100000000E-03 0.  1.
         11   -1    0    0    0    0 -0.00000000000E+00 -0.00000000000E+00 -0.45593999997E+02  0.45594000000E+02  0.51100000000E-03 0. -1.
    9900012    2    1    2    0    0 -0.43177581503E+00  0.36165971121E+02 -0.18574232264E+02  0.50528855866E+02  0.29999987892E+02 0.  0.
        -12    1    1    2    0    0  0.43177581503E+00 -0.36165971121E+02  0.18574232264E+02  0.40659144134E+02  0.00000000000E+00 0.  1.
         11    1    3    3    0    0 -0.48979464406E+00  0.56854287133E+01  0.19770219199E+01  0.60392561115E+01  0.51100000000E-03 0. -1.
        -11    1    3    3    0    0 -0.29503140540E+01  0.49129097157E+01  0.54437658406E+01  0.79041521797E+01  0.51100000000E-03 0.  1.
         12    1    3    3    0    0  0.30083328830E+01  0.25567632692E+02 -0.25995020025E+02  0.36585447575E+02  0.00000000000E+00 0. -1.
</event>
<event>
 7    1  0.5839176E-013  0.5052887E+02  0.7816164E-02  0.1300439E+00
        -11   -1    0    0    0    0  0.00000000000E+00  0.00000000000E+00  0.45593999997E+02  0.45594000000E+02  0.51100000000E-03 0.  1.
         11   -1    0    0    0    0 -0.00000000000E+00 -0.00000000000E+00 -0.45593999997E+02  0.45594000000E+02  0.51100000000E-03 0. -1.
    9900012    2    1    2    0    0  0.11362758464E+02 -0.29198082648E+02 -0.25913787418E+02  0.50528872014E+02  0.30000036975E+02 0.  0.
        -12    1    1    2    0    0 -0.11362758464E+02  0.29198082648E+02  0.25913787418E+02  0.40659127986E+02  0.00000000000E+00 0.  1.
         11    1    3    3    0    0 -0.27306362341E+01 -0.25719078926E+02 -0.16286624525E+02  0.30564383418E+02  0.51100000000E-03 0.  1.
        -11    1    3    3    0    0 -0.10711128748E+01 -0.14741147556E+01 -0.24883659758E+01  0.30841956153E+01  0.51100000000E-03 0. -1.
        -12    1    3    3    0    0  0.15164507573E+02 -0.20048889663E+01 -0.71387969172E+01  0.16880292981E+02  0.00000000000E+00 0.  1.
</event>
<event>
 7    1  0.5839176E-013  0.5052888E+02  0.7816164E-02  0.1300439E+00
        -11   -1    0    0    0    0  0.00000000000E+00  0.00000000000E+00  0.45593999997E+02  0.45594000000E+02  0.51100000000E-03 0. -1.
         11   -1    0    0    0    0 -0.00000000000E+00 -0.00000000000E+00 -0.45593999997E+02  0.45594000000E+02  0.51100000000E-03 0.  1.
    9900012    2    1    2    0    0 -0.39014915204E+02 -0.32084344568E+01 -0.10986654136E+02  0.50528877664E+02  0.30000054146E+02 0.  0.
        -12    1    1    2    0    0  0.39014915204E+02  0.32084344568E+01  0.10986654136E+02  0.40659122336E+02  0.00000000000E+00 0.  1.
         11    1    3    3    0    0 -0.14228666560E+02  0.46302139195E+01 -0.14260432383E+02  0.20670117683E+02  0.51100000000E-03 0. -1.
        -11    1    3    3    0    0 -0.31545409491E+01  0.27830639829E+01 -0.27407215764E+01  0.50207697371E+01  0.51100000000E-03 0.  1.
         12    1    3    3    0    0 -0.21631707695E+02 -0.10621712359E+02  0.60144998226E+01  0.24837990244E+02  0.00000000000E+00 0. -1.
</event>
<event>
 7    1  0.5839176E-013  0.5052885E+02  0.7816164E-02  0.1300439E+00
        -11   -1    0    0    0    0  0.00000000000E+00  0.00000000000E+00  0.45593999997E+02  0.45594000000E+02  0.51100000000E-03 0. -1.
         11   -1    0    0    0    0 -0.00000000000E+00 -0.00000000000E+00 -0.45593999997E+02  0.45594000000E+02  0.51100000000E-03 0.  1.
    9900012    2    1    2    0    0 -0.34655175022E+02 -0.15690075761E+02  0.14352928322E+02  0.50528853617E+02  0.29999981055E+02 0.  0.
        -12    1    1    2    0    0  0.34655175022E+02  0.15690075761E+02 -0.14352928322E+02  0.40659146383E+02  0.00000000000E+00 0.  1.
         11    1    3    3    0    0 -0.22326248108E+01  0.49576790301E+01 -0.19539077462E+01  0.57776250011E+01  0.51100000000E-03 0. -1.
        -11    1    3    3    0    0  0.45468802716E+00  0.17525617323E+01  0.16463948899E+00  0.18180539734E+01  0.51100000000E-03 0.  1.
         12    1    3    3    0    0 -0.32877238238E+02 -0.22400316523E+02  0.16142196580E+02  0.42933174643E+02  0.00000000000E+00 0. -1.
</event>
<event>
 7    1  0.5839176E-013  0.5052887E+02  0.7816164E-02  0.1300439E+00
        -11   -1    0    0    0    0  0.00000000000E+00  0.00000000000E+00  0.45593999997E+02  0.45594000000E+02  0.51100000000E-03 0.  1.
         11   -1    0    0    0    0 -0.00000000000E+00 -0.00000000000E+00 -0.45593999997E+02  0.45594000000E+02  0.51100000000E-03 0. -1.
    9900012    2    1    2    0    0 -0.34433963904E+02  0.51797299914E+01 -0.20991356552E+02  0.50528874053E+02  0.30000043170E+02 0.  0.
        -12    1    1    2    0    0  0.34433963904E+02 -0.51797299914E+01  0.20991356552E+02  0.40659125947E+02  0.00000000000E+00 0.  1.
         11    1    3    3    0    0 -0.20908531630E+02 -0.48849670710E+01 -0.17879633636E+02  0.27941204294E+02  0.51100000000E-03 0. -1.
        -11    1    3    3    0    0 -0.11279967962E+02  0.39622465624E+01  0.43205939536E+01  0.12712380085E+02  0.51100000000E-03 0.  1.
        -12    1    3    3    0    0 -0.22454643119E+01  0.61024505000E+01 -0.74323168698E+01  0.98752896735E+01  0.00000000000E+00 0.  1.
</event>
<event>
 7    1  0.5839176E-013  0.5052884E+02  0.7816164E-02  0.1300439E+00
        -11   -1    0    0    0    0  0.00000000000E+00  0.00000000000E+00  0.45593999997E+02  0.45594000000E+02  0.51100000000E-03 0. -1.
         11   -1    0    0    0    0 -0.00000000000E+00 -0.00000000000E+00 -0.45593999997E+02  0.45594000000E+02  0.51100000000E-03 0.  1.
    9900012    2    1    2    0    0 -0.97791927661E+01 -0.20113310073E+02  0.33955694809E+02  0.50528842812E+02  0.29999948211E+02 0.  0.
        -12    1    1    2    0    0  0.97791927661E+01  0.20113310073E+02 -0.33955694809E+02  0.40659157188E+02  0.00000000000E+00 0.  1.
         11    1    3    3    0    0 -0.15723991380E+01 -0.92394096590E+01  0.20918496485E+02  0.22922099061E+02  0.51100000000E-03 0. -1.
        -11    1    3    3    0    0 -0.34622060602E+01 -0.87464090755E+01  0.18069020049E+02  0.20370960417E+02  0.51100000000E-03 0.  1.
        -12    1    3    3    0    0 -0.47445875679E+01 -0.21274913389E+01 -0.50318217250E+01  0.72357833341E+01  0.00000000000E+00 0.  1.
</event>
<event>
 7    1  0.5839176E-013  0.5052886E+02  0.7816164E-02  0.1300439E+00
        -11   -1    0    0    0    0  0.00000000000E+00  0.00000000000E+00  0.45593999997E+02  0.45594000000E+02  0.51100000000E-03 0.  1.
         11   -1    0    0    0    0 -0.00000000000E+00 -0.00000000000E+00 -0.45593999997E+02  0.45594000000E+02  0.51100000000E-03 0. -1.
    9900012    2    1    2    0    0 -0.19768649888E+02  0.10504938605E+02 -0.33941312329E+02  0.50528856673E+02  0.29999990344E+02 0.  0.
        -12    1    1    2    0    0  0.19768649888E+02 -0.10504938605E+02  0.33941312329E+02  0.40659143327E+02  0.00000000000E+00 0.  1.
         11    1    3    3    0    0 -0.99798223635E+01  0.45478633844E+01 -0.25455089208E+02  0.27717169455E+02  0.51100000000E-03 0. -1.
        -11    1    3    3    0    0  0.35130487529E+00  0.10169931754E+02 -0.45517620496E+01  0.11147621496E+02  0.51100000000E-03 0.  1.
         12    1    3    3    0    0 -0.10140132400E+02 -0.42128565331E+01 -0.39344610712E+01  0.11664065722E+02  0.00000000000E+00 0. -1.
</event>
<event>
 7    1  0.5839176E-013  0.5052886E+02  0.7816164E-02  0.1300439E+00
        -11   -1    0    0    0    0  0.00000000000E+00  0.00000000000E+00  0.45593999997E+02  0.45594000000E+02  0.51100000000E-03 0. -1.
         11   -1    0    0    0    0 -0.00000000000E+00 -0.00000000000E+00 -0.45593999997E+02  0.45594000000E+02  0.51100000000E-03 0.  1.
    9900012    2    1    2    0    0  0.13085935043E+02 -0.16753683906E+01  0.38459291086E+02  0.50528860486E+02  0.30000001934E+02 0.  0.
        -12    1    1    2    0    0 -0.13085935043E+02  0.16753683906E+01 -0.38459291086E+02  0.40659139514E+02  0.00000000000E+00 0.  1.
         11    1    3    3    0    0  0.57288681017E+01 -0.91009561750E+01  0.21626968760E+02  0.24153118039E+02  0.51100000000E-03 0.  1.
        -11    1    3    3    0    0  0.28927471020E+01 -0.49409914007E+00  0.17031290346E+02  0.17282273313E+02  0.51100000000E-03 0. -1.
        -12    1    3    3    0    0  0.44643198392E+01  0.79196869245E+01 -0.19896802032E+00  0.90934691335E+01  0.00000000000E+00 0.  1.
</event>
<event>
 7    1  0.5839176E-013  0.5052899E+02  0.7816164E-02  0.1300438E+00
        -11   -1    0    0    0    0  0.00000000000E+00  0.00000000000E+00  0.45593999997E+02  0.45594000000E+02  0.51100000000E-03 0.  1.
         11   -1    0    0    0    0 -0.00000000000E+00 -0.00000000000E+00 -0.45593999997E+02  0.45594000000E+02  0.51100000000E-03 0. -1.
    9900012    2    1    2    0    0 -0.10317569246E+02 -0.91950803277E+01 -0.38238117305E+02  0.50528986824E+02  0.30000385949E+02 0.  0.
        -12    1    1    2    0    0  0.10317569246E+02  0.91950803277E+01  0.38238117305E+02  0.40659013176E+02  0.00000000000E+00 0.  1.
         11    1    3    3    0    0 -0.34493693930E+00  0.63949576620E+01 -0.42380971520E+01  0.76795789417E+01  0.51100000000E-03 0. -1.
        -11    1    3    3    0    0  0.32072173842E-01  0.74919272019E+00  0.19630035422E+01  0.21013570673E+01  0.51100000000E-03 0.  1.
         12    1    3    3    0    0 -0.10004704480E+02 -0.16339230710E+02 -0.35963023695E+02  0.40748050815E+02  0.00000000000E+00 0. -1.
</event>
<event>
 7    1  0.5839176E-013  0.5052883E+02  0.7816164E-02  0.1300439E+00
        -11   -1    0    0    0    0  0.00000000000E+00  0.00000000000E+00  0.45593999997E+02  0.45594000000E+02  0.51100000000E-03 0.  1.
         11   -1    0    0    0    0 -0.00000000000E+00 -0.00000000000E+00 -0.45593999997E+02  0.45594000000E+02  0.51100000000E-03 0. -1.
    9900012    2    1    2    0    0  0.26100673466E+02  0.14501878001E+02 -0.27597441127E+02  0.50528826648E+02  0.29999899079E+02 0.  0.
        -12    1    1    2    0    0 -0.26100673466E+02 -0.14501878001E+02  0.27597441127E+02  0.40659173352E+02  0.00000000000E+00 0.  1.
         11    1    3    3    0    0  0.60172234027E+01 -0.55412070181E+01 -0.56750156421E+01  0.99557900487E+01  0.51100000000E-03 0. -1.
        -11    1    3    3    0    0  0.57355606219E+01 -0.25808078708E+01 -0.85968852759E+01  0.10651932295E+02  0.51100000000E-03 0.  1.
         12    1    3    3    0    0  0.14347889442E+02  0.22623892890E+02 -0.13325540209E+02  0.29921104304E+02  0.00000000000E+00 0. -1.
</event>
<event>
 7    1  0.5839176E-013  0.5052886E+02  0.7816164E-02  0.1300439E+00
        -11   -1    0    0    0    0  0.00000000000E+00  0.00000000000E+00  0.45593999997E+02  0.45594000000E+02  0.51100000000E-03 0.  1.
         11   -1    0    0    0    0 -0.00000000000E+00 -0.00000000000E+00 -0.45593999997E+02  0.45594000000E+02  0.51100000000E-03 0. -1.
    9900012    2    1    2    0    0  0.30969425105E+02 -0.25064442739E+02  0.81138345546E+01  0.50528857212E+02  0.29999991980E+02 0.  0.
        -12    1    1    2    0    0 -0.30969425105E+02  0.25064442739E+02 -0.81138345546E+01  0.40659142788E+02  0.00000000000E+00 0.  1.
         11    1    3    3    0    0  0.21719176873E+02 -0.28221450125E+02  0.74375173004E+01  0.36379795973E+02  0.51100000000E-03 0. -1.
        -11    1    3    3    0    0 -0.14036857239E+01 -0.45832325568E+00  0.23491963137E+01  0.27747283470E+01  0.51100000000E-03 0.  1.
        -12    1    3    3    0    0  0.10653933956E+02  0.36153306418E+01 -0.16728790595E+01  0.11374332892E+02  0.00000000000E+00 0.  1.
</event>
<event>
 7    1  0.5839176E-013  0.5052887E+02  0.7816164E-02  0.1300439E+00
        -11   -1    0    0    0    0  0.00000000000E+00  0.00000000000E+00  0.45593999997E+02  0.45594000000E+02  0.51100000000E-03 0.  1.
         11   -1    0    0    0    0 -0.00000000000E+00 -0.00000000000E+00 -0.45593999997E+02  0.45594000000E+02  0.51100000000E-03 0. -1.
    9900012    2    1    2    0    0 -0.26655833930E+01 -0.15928077217E+02 -0.37314289706E+02  0.50528865787E+02  0.30000018046E+02 0.  0.
        -12    1    1    2    0    0  0.26655833930E+01  0.15928077217E+02  0.37314289706E+02  0.40659134213E+02  0.00000000000E+00 0.  1.
         11    1    3    3    0    0 -0.93374057520E+01 -0.87729265953E+01 -0.19533408366E+02  0.23360338822E+02  0.51100000000E-03 0. -1.
        -11    1    3    3    0    0 -0.31575807333E+01 -0.94260158007E+01 -0.58121142846E+01  0.11515240453E+02  0.51100000000E-03 0.  1.
        -12    1    3    3    0    0  0.98294030923E+01  0.22708651786E+01 -0.11968767056E+02  0.15653286513E+02  0.00000000000E+00 0.  1.
</event>
<event>
 7    1  0.5839176E-013  0.5052885E+02  0.7816164E-02  0.1300439E+00
        -11   -1    0    0    0    0  0.00000000000E+00  0.00000000000E+00  0.45593999997E+02  0.45594000000E+02  0.51100000000E-03 0.  1.
         11   -1    0    0    0    0 -0.00000000000E+00 -0.00000000000E+00 -0.45593999997E+02  0.45594000000E+02  0.51100000000E-03 0. -1.
    9900012    2    1    2    0    0 -0.15926185321E+02  0.10415508625E+02 -0.35931046894E+02  0.50528851832E+02  0.29999975629E+02 0.  0.
        -12    1    1    2    0    0  0.15926185321E+02 -0.10415508625E+02  0.35931046894E+02  0.40659148168E+02  0.00000000000E+00 0.  1.
         11    1    3    3    0    0 -0.11653629587E+02  0.89749604469E+01 -0.41008675281E+01  0.15270039696E+02  0.51100000000E-03 0. -1.
        -11    1    3    3    0    0 -0.35097867458E+01 -0.77569694932E-01 -0.12990920532E+00  0.35130466437E+01  0.51100000000E-03 0.  1.
        -12    1    3    3    0    0 -0.76276898839E+00  0.15181178732E+01 -0.31700270161E+02  0.31745765492E+02  0.00000000000E+00 0.  1.
</event>
<event>
 7    1  0.5839176E-013  0.5052881E+02  0.7816164E-02  0.1300439E+00
        -11   -1    0    0    0    0  0.00000000000E+00  0.00000000000E+00  0.45593999997E+02  0.45594000000E+02  0.51100000000E-03 0.  1.
         11   -1    0    0    0    0 -0.00000000000E+00 -0.00000000000E+00 -0.45593999997E+02  0.45594000000E+02  0.51100000000E-03 0. -1.
    9900012    2    1    2    0    0  0.33856037959E+02  0.22475156431E+02 -0.13438908539E+01  0.50528806630E+02  0.29999838233E+02 0.  0.
        -12    1    1    2    0    0 -0.33856037959E+02 -0.22475156431E+02  0.13438908539E+01  0.40659193370E+02  0.00000000000E+00 0.  1.
         11    1    3    3    0    0  0.16519181628E+02  0.19779691006E+02 -0.18422598645E+01  0.25836281846E+02  0.51100000000E-03 0. -1.
        -11    1    3    3    0    0  0.48705783338E+01  0.84443299536E+01 -0.35587615362E+01  0.10377573204E+02  0.51100000000E-03 0.  1.
        -12    1    3    3    0    0  0.12466277997E+02 -0.57488645290E+01  0.40571305469E+01  0.14314951581E+02  0.00000000000E+00 0.  1.
</event>
<event>
 7    1  0.5839176E-013  0.5052885E+02  0.7816164E-02  0.1300439E+00
        -11   -1    0    0    0    0  0.00000000000E+00  0.00000000000E+00  0.45593999997E+02  0.45594000000E+02  0.51100000000E-03 0.  1.
         11   -1    0    0    0    0 -0.00000000000E+00 -0.00000000000E+00 -0.45593999997E+02  0.45594000000E+02  0.51100000000E-03 0. -1.
    9900012    2    1    2    0    0  0.28887236148E+02 -0.28100336264E+02 -0.53912152025E+01  0.50528849594E+02  0.29999968826E+02 0.  0.
        -12    1    1    2    0    0 -0.28887236148E+02  0.28100336264E+02  0.53912152025E+01  0.40659150406E+02  0.00000000000E+00 0.  1.
         11    1    3    3    0    0  0.11203627521E+02 -0.10201013589E+02 -0.35942608610E+01  0.15572432671E+02  0.51100000000E-03 0. -1.
        -11    1    3    3    0    0  0.99415316388E+01 -0.21417275911E+02 -0.74329529042E+01  0.24754445013E+02  0.51100000000E-03 0.  1.
        -12    1    3    3    0    0  0.77420769878E+01  0.35179532366E+01  0.56359985626E+01  0.10201971910E+02  0.00000000000E+00 0.  1.
</event>
<event>
 7    1  0.5839176E-013  0.5052888E+02  0.7816164E-02  0.1300439E+00
        -11   -1    0    0    0    0  0.00000000000E+00  0.00000000000E+00  0.45593999997E+02  0.45594000000E+02  0.51100000000E-03 0.  1.
         11   -1    0    0    0    0 -0.00000000000E+00 -0.00000000000E+00 -0.45593999997E+02  0.45594000000E+02  0.51100000000E-03 0. -1.
    9900012    2    1    2    0    0 -0.39506196900E+02  0.86680450919E+01  0.41580746309E+01  0.50528878221E+02  0.30000055840E+02 0.  0.
        -12    1    1    2    0    0  0.39506196900E+02 -0.86680450919E+01 -0.41580746309E+01  0.40659121779E+02  0.00000000000E+00 0.  1.
         11    1    3    3    0    0 -0.11566644794E+02  0.65782285511E+01 -0.86825440274E+00  0.13334700170E+02  0.51100000000E-03 0. -1.
        -11    1    3    3    0    0 -0.53293006103E+00 -0.49565918900E+01 -0.51068347250E+01  0.71366363774E+01  0.51100000000E-03 0.  1.
         12    1    3    3    0    0 -0.27406622045E+02  0.70464084308E+01  0.10133163759E+02  0.30057541673E+02  0.00000000000E+00 0. -1.
</event>
<event>
 7    1  0.5839176E-013  0.5052886E+02  0.7816164E-02  0.1300439E+00
        -11   -1    0    0    0    0  0.00000000000E+00  0.00000000000E+00  0.45593999997E+02  0.45594000000E+02  0.51100000000E-03 0. -1.
         11   -1    0    0    0    0 -0.00000000000E+00 -0.00000000000E+00 -0.45593999997E+02  0.45594000000E+02  0.51100000000E-03 0.  1.
    9900012    2    1    2    0    0  0.15144831115E+02 -0.88794070840E+01  0.36673642591E+02  0.50528857847E+02  0.29999993912E+02 0.  0.
        -12    1    1    2    0    0 -0.15144831115E+02  0.88794070840E+01 -0.36673642591E+02  0.40659142153E+02  0.00000000000E+00 0.  1.
         11    1    3    3    0    0 -0.11908677768E+01 -0.73075106160E+00 -0.12689038779E+01  0.18874004579E+01  0.51100000000E-03 0.  1.
        -11    1    3    3    0    0 -0.75094800496E+00 -0.12725020359E+02  0.15857296809E+02  0.20345612018E+02  0.51100000000E-03 0. -1.
         12    1    3    3    0    0  0.17086646897E+02  0.45763643362E+01  0.22085249660E+02  0.28295845371E+02  0.00000000000E+00 0. -1.
</event>
<event>
 7    1  0.5839176E-013  0.5052886E+02  0.7816164E-02  0.1300439E+00
        -11   -1    0    0    0    0  0.00000000000E+00  0.00000000000E+00  0.45593999997E+02  0.45594000000E+02  0.51100000000E-03 0. -1.
         11   -1    0    0    0    0 -0.00000000000E+00 -0.00000000000E+00 -0.45593999997E+02  0.45594000000E+02  0.51100000000E-03 0.  1.
    9900012    2    1    2    0    0 -0.39019829769E+02  0.10209190976E+02  0.51372284840E+01  0.50528858198E+02  0.29999994979E+02 0.  0.
        -12    1    1    2    0    0  0.39019829769E+02 -0.10209190976E+02 -0.51372284840E+01  0.40659141802E+02  0.00000000000E+00 0.  1.
         11    1    3    3    0    0 -0.19805688680E+02 -0.34743217150E+01 -0.64875250539E+01  0.21128752851E+02  0.51100000000E-03 0. -1.
        -11    1    3    3    0    0  0.18417049688E+01  0.24819301831E+01  0.70959221019E+00  0.31710212853E+01  0.51100000000E-03 0.  1.
        -12    1    3    3    0    0 -0.21055846058E+02  0.11201582508E+02  0.10915161328E+02  0.26229084062E+02  0.00000000000E+00 0.  1.
</event>
<event>
 7    1  0.7046105E-013  0.5052886E+02  0.7816164E-02  0.1300439E+00
        -11   -1    0    0    0    0  0.00000000000E+00  0.00000000000E+00  0.45593999997E+02  0.45594000000E+02  0.51100000000E-03 0. -1.
         11   -1    0    0    0    0 -0.00000000000E+00 -0.00000000000E+00 -0.45593999997E+02  0.45594000000E+02  0.51100000000E-03 0.  1.
    9900012    2    1    2    0    0 -0.22249417263E+02 -0.96322766575E+01  0.32639671249E+02  0.50528862511E+02  0.30000008087E+02 0.  0.
        -12    1    1    2    0    0  0.22249417263E+02  0.96322766575E+01 -0.32639671249E+02  0.40659137489E+02  0.00000000000E+00 0.  1.
         11    1    3    3    0    0 -0.44947456716E+01 -0.46478723002E+01  0.18304343934E+02  0.19412739701E+02  0.51100000000E-03 0. -1.
        -11    1    3    3    0    0 -0.20585253797E+02 -0.19714255946E+01  0.16494685556E+02  0.26452104729E+02  0.51100000000E-03 0.  1.
        -12    1    3    3    0    0  0.28305822052E+01 -0.30129787627E+01 -0.21593582411E+01  0.46640180808E+01  0.00000000000E+00 0.  1.
</event>
<event>
 7    1  0.5839176E-013  0.5052887E+02  0.7816164E-02  0.1300439E+00
        -11   -1    0    0    0    0  0.00000000000E+00  0.00000000000E+00  0.45593999997E+02  0.45594000000E+02  0.51100000000E-03 0.  1.
         11   -1    0    0    0    0 -0.00000000000E+00 -0.00000000000E+00 -0.45593999997E+02  0.45594000000E+02  0.51100000000E-03 0. -1.
    9900012    2    1    2    0    0 -0.31547554358E+02 -0.20637017905E+02 -0.15232545684E+02  0.50528866438E+02  0.30000020026E+02 0.  0.
        -12    1    1    2    0    0  0.31547554358E+02  0.20637017905E+02  0.15232545684E+02  0.40659133562E+02  0.00000000000E+00 0.  1.
         11    1    3    3    0    0  0.27096188777E+00 -0.26498846495E+00  0.17747170013E+01  0.18147341202E+01  0.51100000000E-03 0.  1.
        -11    1    3    3    0    0 -0.33751840072E+01 -0.70843267071E+01  0.59280012310E+01  0.98346708552E+01  0.51100000000E-03 0. -1.
         12    1    3    3    0    0 -0.28443332238E+02 -0.13287702733E+02 -0.22935263917E+02  0.38879461463E+02  0.00000000000E+00 0. -1.
</event>
<event>
 7    1  0.5839176E-013  0.5052881E+02  0.7816164E-02  0.1300439E+00
        -11   -1    0    0    0    0  0.00000000000E+00  0.00000000000E+00  0.45593999997E+02  0.45594000000E+02  0.51100000000E-03 0. -1.
         11   -1    0    0    0    0 -0.00000000000E+00 -0.00000000000E+00 -0.45593999997E+02  0.45594000000E+02  0.51100000000E-03 0.  1.
    9900012    2    1    2    0    0 -0.27603703939E+02  0.28588315629E+02  0.85972756872E+01  0.50528813942E+02  0.29999860457E+02 0.  0.
        -12    1    1    2    0    0  0.27603703939E+02 -0.28588315629E+02 -0.85972756872E+01  0.40659186058E+02  0.00000000000E+00 0.  1.
         11    1    3    3    0    0 -0.21388591105E+02  0.12759843418E+02 -0.43318440928E+01  0.25279444357E+02  0.51100000000E-03 0. -1.
        -11    1    3    3    0    0 -0.13308458030E+01 -0.87423168675E+00 -0.18338917824E+01  0.24287014893E+01  0.51100000000E-03 0.  1.
         12    1    3    3    0    0 -0.48842670312E+01  0.16702703898E+02  0.14763011562E+02  0.22820668096E+02  0.00000000000E+00 0. -1.
</event>
<event>
 7    1  0.5839176E-013  0.5052889E+02  0.7816164E-02  0.1300439E+00
        -11   -1    0    0    0    0  0.00000000000E+00  0.00000000000E+00  0.45593999997E+02  0.45594000000E+02  0.51100000000E-03 0. -1.
         11   -1    0    0    0    0 -0.00000000000E+00 -0.00000000000E+00 -0.45593999997E+02  0.45594000000E+02  0.51100000000E-03 0.  1.
    9900012    2    1    2    0    0 -0.30059352893E+02 -0.27310674956E+02 -0.19302545277E+01  0.50528886072E+02  0.30000079705E+02 0.  0.
        -12    1    1    2    0    0  0.30059352893E+02  0.27310674956E+02  0.19302545277E+01  0.40659113928E+02  0.00000000000E+00 0.  1.
         11    1    3    3    0    0 -0.45184366794E+01 -0.16203078040E+02  0.18105416030E+01  0.16918453509E+02  0.51100000000E-03 0. -1.
        -11    1    3    3    0    0  0.13527587878E+01 -0.58253167004E+01 -0.30094870099E+00  0.59878912298E+01  0.51100000000E-03 0.  1.
        -12    1    3    3    0    0 -0.26893675001E+02 -0.52822802153E+01 -0.34398474297E+01  0.27622541333E+02  0.00000000000E+00 0.  1.
</event>
<event>
 7    1  0.5839176E-013  0.5052885E+02  0.7816164E-02  0.1300439E+00
        -11   -1    0    0    0    0  0.00000000000E+00  0.00000000000E+00  0.45593999997E+02  0.45594000000E+02  0.51100000000E-03 0.  1.
         11   -1    0    0    0    0 -0.00000000000E+00 -0.00000000000E+00 -0.45593999997E+02  0.45594000000E+02  0.51100000000E-03 0. -1.
    9900012    2    1    2    0    0 -0.29621914431E+02  0.12120560882E+02 -0.25075900153E+02  0.50528848765E+02  0.29999966307E+02 0.  0.
        -12    1    1    2    0    0  0.29621914431E+02 -0.12120560882E+02  0.25075900153E+02  0.40659151235E+02  0.00000000000E+00 0.  1.
         11    1    3    3    0    0 -0.25543259709E+01 -0.37672172850E+01  0.31240896461E+01  0.55205474018E+01  0.51100000000E-03 0. -1.
        -11    1    3    3    0    0 -0.33502141289E+01  0.41651539618E+01  0.11779181108E+01  0.54735668052E+01  0.51100000000E-03 0.  1.
         12    1    3    3    0    0 -0.23717374331E+02  0.11722624205E+02 -0.29377907910E+02  0.39534734558E+02  0.00000000000E+00 0. -1.
</event>
<event>
 7    1  0.5839176E-013  0.5052886E+02  0.7816164E-02  0.1300439E+00
        -11   -1    0    0    0    0  0.00000000000E+00  0.00000000000E+00  0.45593999997E+02  0.45594000000E+02  0.51100000000E-03 0.  1.
         11   -1    0    0    0    0 -0.00000000000E+00 -0.00000000000E+00 -0.45593999997E+02  0.45594000000E+02  0.51100000000E-03 0. -1.
    9900012    2    1    2    0    0 -0.13929866152E+02  0.80077587212E+01 -0.37349700367E+02  0.50528862180E+02  0.30000007082E+02 0.  0.
        -12    1    1    2    0    0  0.13929866152E+02 -0.80077587212E+01  0.37349700367E+02  0.40659137820E+02  0.00000000000E+00 0.  1.
         11    1    3    3    0    0 -0.95367272342E+01  0.44748585719E+00 -0.79873926975E+01  0.12447805120E+02  0.51100000000E-03 0. -1.
        -11    1    3    3    0    0  0.26370014158E+01  0.11368736929E+02 -0.54746655802E+01  0.12890846338E+02  0.51100000000E-03 0.  1.
         12    1    3    3    0    0 -0.70301403339E+01 -0.38084640649E+01 -0.23887642089E+02  0.25190210722E+02  0.00000000000E+00 0. -1.
</event>
<event>
 7    1  0.5839176E-013  0.5052886E+02  0.7816164E-02  0.1300439E+00
        -11   -1    0    0    0    0  0.00000000000E+00  0.00000000000E+00  0.45593999997E+02  0.45594000000E+02  0.51100000000E-03 0.  1.
         11   -1    0    0    0    0 -0.00000000000E+00 -0.00000000000E+00 -0.45593999997E+02  0.45594000000E+02  0.51100000000E-03 0. -1.
    9900012    2    1    2    0    0 -0.29896139239E+02  0.18092860714E+02 -0.20785456478E+02  0.50528856487E+02  0.29999989777E+02 0.  0.
        -12    1    1    2    0    0  0.29896139239E+02 -0.18092860714E+02  0.20785456478E+02  0.40659143513E+02  0.00000000000E+00 0.  1.
         11    1    3    3    0    0 -0.17895030119E+02  0.16998376531E+01 -0.54820532819E+01  0.18792936425E+02  0.51100000000E-03 0. -1.
        -11    1    3    3    0    0 -0.64363854899E+01  0.27665337409E+01  0.35205102620E+01  0.78405841543E+01  0.51100000000E-03 0.  1.
         12    1    3    3    0    0 -0.55647236302E+01  0.13626489319E+02 -0.18823913458E+02  0.23895335908E+02  0.00000000000E+00 0. -1.
</event>
<event>
 7    1  0.5839176E-013  0.5052886E+02  0.7816164E-02  0.1300439E+00
        -11   -1    0    0    0    0  0.00000000000E+00  0.00000000000E+00  0.45593999997E+02  0.45594000000E+02  0.51100000000E-03 0.  1.
         11   -1    0    0    0    0 -0.00000000000E+00 -0.00000000000E+00 -0.45593999997E+02  0.45594000000E+02  0.51100000000E-03 0. -1.
    9900012    2    1    2    0    0 -0.30498453092E+02  0.11572819386E+02 -0.24270965230E+02  0.50528861510E+02  0.30000005047E+02 0.  0.
        -12    1    1    2    0    0  0.30498453092E+02 -0.11572819386E+02  0.24270965230E+02  0.40659138490E+02  0.00000000000E+00 0.  1.
         11    1    3    3    0    0 -0.14808248179E+02  0.56457649149E+01 -0.25837871955E+02  0.30310963413E+02  0.51100000000E-03 0. -1.
        -11    1    3    3    0    0 -0.39989988647E+01 -0.23020256761E+01 -0.26384264006E+01  0.53153182657E+01  0.51100000000E-03 0.  1.
         12    1    3    3    0    0 -0.11691206048E+02  0.82290801474E+01  0.42053331259E+01  0.14902579832E+02  0.00000000000E+00 0. -1.
</event>
<event>
 7    1  0.5839176E-013  0.5052887E+02  0.7816164E-02  0.1300439E+00
        -11   -1    0    0    0    0  0.00000000000E+00  0.00000000000E+00  0.45593999997E+02  0.45594000000E+02  0.51100000000E-03 0.  1.
         11   -1    0    0    0    0 -0.00000000000E+00 -0.00000000000E+00 -0.45593999997E+02  0.45594000000E+02  0.51100000000E-03 0. -1.
    9900012    2    1    2    0    0 -0.29589646959E+02  0.13903758668E+02 -0.24172367946E+02  0.50528867146E+02  0.30000022178E+02 0.  0.
        -12    1    1    2    0    0  0.29589646959E+02 -0.13903758668E+02  0.24172367946E+02  0.40659132854E+02  0.00000000000E+00 0.  1.
         11    1    3    3    0    0 -0.15793055808E+02  0.50593908082E+01 -0.13589784096E+02  0.21440622173E+02  0.51100000000E-03 0. -1.
        -11    1    3    3    0    0 -0.10542815191E+02  0.82559022750E+01 -0.17136245343E+02  0.21747684457E+02  0.51100000000E-03 0.  1.
        -12    1    3    3    0    0 -0.32537759602E+01  0.58846558449E+00  0.65536614927E+01  0.73405605170E+01  0.00000000000E+00 0.  1.
</event>
<event>
 7    1  0.5839176E-013  0.5052886E+02  0.7816164E-02  0.1300439E+00
        -11   -1    0    0    0    0  0.00000000000E+00  0.00000000000E+00  0.45593999997E+02  0.45594000000E+02  0.51100000000E-03 0.  1.
         11   -1    0    0    0    0 -0.00000000000E+00 -0.00000000000E+00 -0.45593999997E+02  0.45594000000E+02  0.51100000000E-03 0. -1.
    9900012    2    1    2    0    0 -0.94408675934E+01 -0.39515297727E+02  0.16052337198E+01  0.50528861904E+02  0.30000006244E+02 0.  0.
        -12    1    1    2    0    0  0.94408675934E+01  0.39515297727E+02 -0.16052337198E+01  0.40659138096E+02  0.00000000000E+00 0.  1.
         11    1    3    3    0    0  0.14330507447E+01 -0.34672315827E+01  0.16844554311E+01  0.41125077077E+01  0.51100000000E-03 0. -1.
        -11    1    3    3    0    0 -0.24506676017E+01 -0.99618958919E+01  0.12571064265E+02  0.16225806558E+02  0.51100000000E-03 0.  1.
         12    1    3    3    0    0 -0.84232507364E+01 -0.26086170253E+02 -0.12650285976E+02  0.30190547638E+02  0.00000000000E+00 0. -1.
</event>
<event>
 7    1  0.5839176E-013  0.5052885E+02  0.7816164E-02  0.1300439E+00
        -11   -1    0    0    0    0  0.00000000000E+00  0.00000000000E+00  0.45593999997E+02  0.45594000000E+02  0.51100000000E-03 0. -1.
         11   -1    0    0    0    0 -0.00000000000E+00 -0.00000000000E+00 -0.45593999997E+02  0.45594000000E+02  0.51100000000E-03 0.  1.
    9900012    2    1    2    0    0 -0.33194765451E+02  0.22916836980E+02 -0.51080818273E+01  0.50528851331E+02  0.29999974106E+02 0.  0.
        -12    1    1    2    0    0  0.33194765451E+02 -0.22916836980E+02  0.51080818273E+01  0.40659148669E+02  0.00000000000E+00 0.  1.
         11    1    3    3    0    0  0.32120834572E+00  0.85273416387E+00 -0.29887634990E+01  0.31245860317E+01  0.51100000000E-03 0. -1.
        -11    1    3    3    0    0 -0.75009633487E+01  0.15847450556E+01 -0.10736335556E+02  0.13192602832E+02  0.51100000000E-03 0.  1.
         12    1    3    3    0    0 -0.26015010448E+02  0.20479357760E+02  0.86170172275E+01  0.34211662468E+02  0.00000000000E+00 0. -1.
</event>
<event>
 7    1  0.5839176E-013  0.5052885E+02  0.7816164E-02  0.1300439E+00
        -11   -1    0    0    0    0  0.00000000000E+00  0.00000000000E+00  0.45593999997E+02  0.45594000000E+02  0.51100000000E-03 0. -1.
         11   -1    0    0    0    0 -0.00000000000E+00 -0.00000000000E+00 -0.45593999997E+02  0.45594000000E+02  0.51100000000E-03 0.  1.
    9900012    2    1    2    0    0 -0.62829872545E+01 -0.35389650723E+02  0.19006917472E+02  0.50528853195E+02  0.29999979771E+02 0.  0.
        -12    1    1    2    0    0  0.62829872545E+01  0.35389650723E+02 -0.19006917472E+02  0.40659146805E+02  0.00000000000E+00 0.  1.
         11    1    3    3    0    0 -0.27296964614E+00 -0.44683700772E+01  0.74729456076E+01  0.87112433033E+01  0.51100000000E-03 0. -1.
        -11    1    3    3    0    0 -0.94994531706E+01 -0.58329044754E+00  0.42486585628E+01  0.10422616664E+02  0.51100000000E-03 0.  1.
         12    1    3    3    0    0  0.34894355622E+01 -0.30337990199E+02  0.72853133016E+01  0.31394993227E+02  0.00000000000E+00 0. -1.
</event>
<event>
 7    1  0.5839176E-013  0.5052888E+02  0.7816164E-02  0.1300439E+00
        -11   -1    0    0    0    0  0.00000000000E+00  0.00000000000E+00  0.45593999997E+02  0.45594000000E+02  0.51100000000E-03 0.  1.
         11   -1    0    0    0    0 -0.00000000000E+00 -0.00000000000E+00 -0.45593999997E+02  0.45594000000E+02  0.51100000000E-03 0. -1.
    9900012    2    1    2    0    0 -0.32672103500E+02  0.22296445242E+02 -0.94109619672E+01  0.50528880202E+02  0.30000061863E+02 0.  0.
        -12    1    1    2    0    0  0.32672103500E+02 -0.22296445242E+02  0.94109619672E+01  0.40659119798E+02  0.00000000000E+00 0.  1.
         11    1    3    3    0    0  0.87119673279E+00 -0.22927791567E+01  0.69710969030E+00  0.25498592491E+01  0.51100000000E-03 0. -1.
        -11    1    3    3    0    0 -0.14147031565E+02 -0.66770135773E+00  0.11326712526E+01  0.14208000269E+02  0.51100000000E-03 0.  1.
         12    1    3    3    0    0 -0.19396268668E+02  0.25256925757E+02 -0.11240742910E+02  0.33771020685E+02  0.00000000000E+00 0. -1.
</event>
<event>
 7    1  0.5839176E-013  0.5052885E+02  0.7816164E-02  0.1300439E+00
        -11   -1    0    0    0    0  0.00000000000E+00  0.00000000000E+00  0.45593999997E+02  0.45594000000E+02  0.51100000000E-03 0.  1.
         11   -1    0    0    0    0 -0.00000000000E+00 -0.00000000000E+00 -0.45593999997E+02  0.45594000000E+02  0.51100000000E-03 0. -1.
    9900012    2    1    2    0    0  0.40962526482E+01 -0.40365313506E+02 -0.26511265443E+01  0.50528852295E+02  0.29999977034E+02 0.  0.
        -12    1    1    2    0    0 -0.40962526482E+01  0.40365313506E+02  0.26511265443E+01  0.40659147705E+02  0.00000000000E+00 0.  1.
         11    1    3    3    0    0  0.11336474529E+02 -0.57147859195E+01  0.52261864503E+01  0.13729073454E+02  0.51100000000E-03 0. -1.
        -11    1    3    3    0    0 -0.12957434917E+01 -0.15614819898E+01 -0.16362227865E+01  0.26066074635E+01  0.51100000000E-03 0.  1.
         12    1    3    3    0    0 -0.59444783887E+01 -0.33089045597E+02 -0.62410902082E+01  0.34193171377E+02  0.00000000000E+00 0. -1.
</event>
<event>
 7    1  0.5839176E-013  0.5052886E+02  0.7816164E-02  0.1300439E+00
        -11   -1    0    0    0    0  0.00000000000E+00  0.00000000000E+00  0.45593999997E+02  0.45594000000E+02  0.51100000000E-03 0.  1.
         11   -1    0    0    0    0 -0.00000000000E+00 -0.00000000000E+00 -0.45593999997E+02  0.45594000000E+02  0.51100000000E-03 0. -1.
    9900012    2    1    2    0    0  0.13669717760E+02  0.21102930546E+02 -0.31952631379E+02  0.50528861872E+02  0.30000006146E+02 0.  0.
        -12    1    1    2    0    0 -0.13669717760E+02 -0.21102930546E+02  0.31952631379E+02  0.40659138128E+02  0.00000000000E+00 0.  1.
         11    1    3    3    0    0  0.11932922601E+02  0.26313505451E+01 -0.10128894569E+02  0.15871772206E+02  0.51100000000E-03 0. -1.
        -11    1    3    3    0    0  0.36772999282E+01 -0.33665667693E+01 -0.44687934618E+01  0.66952536800E+01  0.51100000000E-03 0.  1.
         12    1    3    3    0    0 -0.19405047688E+01  0.21838146770E+02 -0.17354943348E+02  0.27961835986E+02  0.00000000000E+00 0. -1.
</event>
<event>
 7    1  0.5839176E-013  0.5052887E+02  0.7816164E-02  0.1300439E+00
        -11   -1    0    0    0    0  0.00000000000E+00  0.00000000000E+00  0.45593999997E+02  0.45594000000E+02  0.51100000000E-03 0.  1.
         11   -1    0    0    0    0 -0.00000000000E+00 -0.00000000000E+00 -0.45593999997E+02  0.45594000000E+02  0.51100000000E-03 0. -1.
    9900012    2    1    2    0    0  0.37204295655E+02  0.37679975940E+01 -0.15962693383E+02  0.50528868171E+02  0.30000025292E+02 0.  0.
        -12    1    1    2    0    0 -0.37204295655E+02 -0.37679975940E+01  0.15962693383E+02  0.40659131829E+02  0.00000000000E+00 0.  1.
         11    1    3    3    0    0 -0.17745123220E+01  0.14901269282E+01  0.93155579098E+00  0.24974324207E+01  0.51100000000E-03 0. -1.
        -11    1    3    3    0    0 -0.17503563388E+01  0.62691193775E+00 -0.53526622396E+01  0.56663709023E+01  0.51100000000E-03 0.  1.
         12    1    3    3    0    0  0.40729164316E+02  0.16509587280E+01 -0.11541586934E+02  0.42365064848E+02  0.00000000000E+00 0. -1.
</event>
<event>
 7    1  0.5839176E-013  0.5052886E+02  0.7816164E-02  0.1300439E+00
        -11   -1    0    0    0    0  0.00000000000E+00  0.00000000000E+00  0.45593999997E+02  0.45594000000E+02  0.51100000000E-03 0.  1.
         11   -1    0    0    0    0 -0.00000000000E+00 -0.00000000000E+00 -0.45593999997E+02  0.45594000000E+02  0.51100000000E-03 0. -1.
    9900012    2    1    2    0    0 -0.12878320013E+02 -0.22959540122E+01 -0.38497315822E+02  0.50528857650E+02  0.29999993313E+02 0.  0.
        -12    1    1    2    0    0  0.12878320013E+02  0.22959540122E+01  0.38497315822E+02  0.40659142350E+02  0.00000000000E+00 0.  1.
         11    1    3    3    0    0 -0.13855800964E+02 -0.10110328849E+02 -0.16284117837E+02  0.23651098574E+02  0.51100000000E-03 0. -1.
        -11    1    3    3    0    0 -0.23915112596E+01 -0.25992949114E+01 -0.24912209384E+01  0.43222496650E+01  0.51100000000E-03 0.  1.
        -12    1    3    3    0    0  0.33689922108E+01  0.10413669749E+02 -0.19721977047E+02  0.22555509411E+02  0.00000000000E+00 0.  1.
</event>
<event>
 7    1  0.5839176E-013  0.5052886E+02  0.7816164E-02  0.1300439E+00
        -11   -1    0    0    0    0  0.00000000000E+00  0.00000000000E+00  0.45593999997E+02  0.45594000000E+02  0.51100000000E-03 0.  1.
         11   -1    0    0    0    0 -0.00000000000E+00 -0.00000000000E+00 -0.45593999997E+02  0.45594000000E+02  0.51100000000E-03 0. -1.
    9900012    2    1    2    0    0 -0.88954205187E+01  0.31078809596E+02 -0.24660593131E+02  0.50528858769E+02  0.29999996713E+02 0.  0.
        -12    1    1    2    0    0  0.88954205187E+01 -0.31078809596E+02  0.24660593131E+02  0.40659141231E+02  0.00000000000E+00 0.  1.
         11    1    3    3    0    0  0.10274609664E+01 -0.33547725822E+01 -0.13396140093E+01  0.37556279196E+01  0.51100000000E-03 0. -1.
        -11    1    3    3    0    0 -0.66027830902E+01  0.39684484887E+01  0.83948009046E+00  0.77491970569E+01  0.51100000000E-03 0.  1.
         12    1    3    3    0    0 -0.33200983949E+01  0.30465133689E+02 -0.24160459212E+02  0.39024033792E+02  0.00000000000E+00 0. -1.
</event>
<event>
 7    1  0.6183401E-013  0.5052886E+02  0.7816164E-02  0.1300439E+00
        -11   -1    0    0    0    0  0.00000000000E+00  0.00000000000E+00  0.45593999997E+02  0.45594000000E+02  0.51100000000E-03 0.  1.
         11   -1    0    0    0    0 -0.00000000000E+00 -0.00000000000E+00 -0.45593999997E+02  0.45594000000E+02  0.51100000000E-03 0. -1.
    9900012    2    1    2    0    0 -0.21913825808E+02 -0.23621822032E+02 -0.24798372812E+02  0.50528861645E+02  0.30000005455E+02 0.  0.
        -12    1    1    2    0    0  0.21913825808E+02  0.23621822032E+02  0.24798372812E+02  0.40659138355E+02  0.00000000000E+00 0.  1.
         11    1    3    3    0    0 -0.12876617701E+02 -0.43344876434E+01 -0.13806564499E+02  0.19370500512E+02  0.51100000000E-03 0. -1.
        -11    1    3    3    0    0  0.63097810223E+00 -0.11311310089E+02 -0.14253511514E+02  0.18207318859E+02  0.51100000000E-03 0.  1.
        -12    1    3    3    0    0 -0.96681862090E+01 -0.79760242997E+01  0.32617032008E+01  0.12951042274E+02  0.00000000000E+00 0.  1.
</event>
<event>
 7    1  0.5839176E-013  0.5052886E+02  0.7816164E-02  0.1300439E+00
        -11   -1    0    0    0    0  0.00000000000E+00  0.00000000000E+00  0.45593999997E+02  0.45594000000E+02  0.51100000000E-03 0.  1.
         11   -1    0    0    0    0 -0.00000000000E+00 -0.00000000000E+00 -0.45593999997E+02  0.45594000000E+02  0.51100000000E-03 0. -1.
    9900012    2    1    2    0    0 -0.68744556372E+01  0.15149173816E+02 -0.37100006178E+02  0.50528855076E+02  0.29999985488E+02 0.  0.
        -12    1    1    2    0    0  0.68744556372E+01 -0.15149173816E+02  0.37100006178E+02  0.40659144924E+02  0.00000000000E+00 0.  1.
         11    1    3    3    0    0 -0.48766380005E+01 -0.29800331303E+01 -0.18895350889E+02  0.19740731524E+02  0.51100000000E-03 0. -1.
        -11    1    3    3    0    0  0.26982696517E+01 -0.15313362194E+01 -0.70465187716E+01  0.76992906680E+01  0.51100000000E-03 0.  1.
        -12    1    3    3    0    0 -0.46960872884E+01  0.19660543165E+02 -0.11158136517E+02  0.23088832883E+02  0.00000000000E+00 0.  1.
</event>
<event>
 7    1  0.5839176E-013  0.5052886E+02  0.7816164E-02  0.1300439E+00
        -11   -1    0    0    0    0  0.00000000000E+00  0.00000000000E+00  0.45593999997E+02  0.45594000000E+02  0.51100000000E-03 0.  1.
         11   -1    0    0    0    0 -0.00000000000E+00 -0.00000000000E+00 -0.45593999997E+02  0.45594000000E+02  0.51100000000E-03 0. -1.
    9900012    2    1    2    0    0  0.32831226514E+02  0.45562890978E+00 -0.23980589069E+02  0.50528859771E+02  0.29999999759E+02 0.  0.
        -12    1    1    2    0    0 -0.32831226514E+02 -0.45562890978E+00  0.23980589069E+02  0.40659140229E+02  0.00000000000E+00 0.  1.
         11    1    3    3    0    0  0.19327237058E+02 -0.79575368176E+01 -0.21272928894E+02  0.29822843401E+02  0.51100000000E-03 0. -1.
        -11    1    3    3    0    0 -0.21669145432E+01  0.34451858437E+01 -0.18622574376E+00  0.40742489398E+01  0.51100000000E-03 0.  1.
        -12    1    3    3    0    0  0.15670903998E+02  0.49679798837E+01 -0.25214344313E+01  0.16631767430E+02  0.00000000000E+00 0.  1.
</event>
<event>
 7    1  0.5839176E-013  0.5052890E+02  0.7816164E-02  0.1300439E+00
        -11   -1    0    0    0    0  0.00000000000E+00  0.00000000000E+00  0.45593999997E+02  0.45594000000E+02  0.51100000000E-03 0.  1.
         11   -1    0    0    0    0 -0.00000000000E+00 -0.00000000000E+00 -0.45593999997E+02  0.45594000000E+02  0.51100000000E-03 0. -1.
    9900012    2    1    2    0    0  0.37457545058E+02 -0.17287704951E+01 -0.15719611084E+02  0.50528898906E+02  0.30000118713E+02 0.  0.
        -12    1    1    2    0    0 -0.37457545058E+02  0.17287704951E+01  0.15719611084E+02  0.40659101094E+02  0.00000000000E+00 0.  1.
         11    1    3    3    0    0  0.40045693240E+01  0.90389549949E+01 -0.45948396385E+01  0.10901918842E+02  0.51100000000E-03 0. -1.
        -11    1    3    3    0    0 -0.10624508682E+01 -0.12625737773E+01  0.87671293544E+00  0.18685610032E+01  0.51100000000E-03 0.  1.
         12    1    3    3    0    0  0.34515426602E+02 -0.95051517127E+01 -0.12001484381E+02  0.37758419060E+02  0.00000000000E+00 0. -1.
</event>
<event>
 7    1  0.5839176E-013  0.5052886E+02  0.7816164E-02  0.1300439E+00
        -11   -1    0    0    0    0  0.00000000000E+00  0.00000000000E+00  0.45593999997E+02  0.45594000000E+02  0.51100000000E-03 0.  1.
         11   -1    0    0    0    0 -0.00000000000E+00 -0.00000000000E+00 -0.45593999997E+02  0.45594000000E+02  0.51100000000E-03 0. -1.
    9900012    2    1    2    0    0 -0.34682668765E+02  0.11126620418E+02 -0.18068660388E+02  0.50528859787E+02  0.29999999809E+02 0.  0.
        -12    1    1    2    0    0  0.34682668765E+02 -0.11126620418E+02  0.18068660388E+02  0.40659140213E+02  0.00000000000E+00 0.  1.
         11    1    3    3    0    0 -0.32378902215E+01  0.44276289966E-01 -0.11522244983E+02  0.11968626621E+02  0.51100000000E-03 0. -1.
        -11    1    3    3    0    0 -0.85723862902E+01 -0.20483352415E+01  0.45836849387E+01  0.99343672093E+01  0.51100000000E-03 0.  1.
        -12    1    3    3    0    0 -0.22872392254E+02  0.13130679370E+02 -0.11130100344E+02  0.28625865957E+02  0.00000000000E+00 0.  1.
</event>
<event>
 7    1  0.5839176E-013  0.5052886E+02  0.7816164E-02  0.1300439E+00
        -11   -1    0    0    0    0  0.00000000000E+00  0.00000000000E+00  0.45593999997E+02  0.45594000000E+02  0.51100000000E-03 0.  1.
         11   -1    0    0    0    0 -0.00000000000E+00 -0.00000000000E+00 -0.45593999997E+02  0.45594000000E+02  0.51100000000E-03 0. -1.
    9900012    2    1    2    0    0 -0.59876999502E+01 -0.16979150045E+01 -0.40179977456E+02  0.50528855217E+02  0.29999985919E+02 0.  0.
        -12    1    1    2    0    0  0.59876999502E+01  0.16979150045E+01  0.40179977456E+02  0.40659144783E+02  0.00000000000E+00 0.  1.
         11    1    3    3    0    0  0.67696101546E+00  0.23398338610E+01  0.14612717045E+01  0.28404953739E+01  0.51100000000E-03 0.  1.
        -11    1    3    3    0    0 -0.77800055933E+01 -0.29994596579E+01 -0.27685288891E+01  0.87857838433E+01  0.51100000000E-03 0. -1.
         12    1    3    3    0    0  0.11153446276E+01 -0.10382892076E+01 -0.38872720272E+02  0.38902576000E+02  0.00000000000E+00 0. -1.
</event>
<event>
 7    1  0.5839176E-013  0.5052886E+02  0.7816164E-02  0.1300439E+00
        -11   -1    0    0    0    0  0.00000000000E+00  0.00000000000E+00  0.45593999997E+02  0.45594000000E+02  0.51100000000E-03 0.  1.
         11   -1    0    0    0    0 -0.00000000000E+00 -0.00000000000E+00 -0.45593999997E+02  0.45594000000E+02  0.51100000000E-03 0. -1.
    9900012    2    1    2    0    0 -0.34988741342E+02  0.20136196051E+02 -0.48463510127E+01  0.50528861664E+02  0.30000005513E+02 0.  0.
        -12    1    1    2    0    0  0.34988741342E+02 -0.20136196051E+02  0.48463510127E+01  0.40659138336E+02  0.00000000000E+00 0.  1.
         11    1    3    3    0    0  0.80767457474E+00 -0.27125673807E+00 -0.84159999953E+00  0.11975847598E+01  0.51100000000E-03 0. -1.
        -11    1    3    3    0    0 -0.53890199771E+01  0.16644890718E+02 -0.63262020163E+01  0.18604159630E+02  0.51100000000E-03 0.  1.
        -12    1    3    3    0    0 -0.30407395940E+02  0.37625620710E+01  0.23214510032E+01  0.30727117274E+02  0.00000000000E+00 0.  1.
</event>
<event>
 7    1  0.5839176E-013  0.5052884E+02  0.7816164E-02  0.1300439E+00
        -11   -1    0    0    0    0  0.00000000000E+00  0.00000000000E+00  0.45593999997E+02  0.45594000000E+02  0.51100000000E-03 0. -1.
         11   -1    0    0    0    0 -0.00000000000E+00 -0.00000000000E+00 -0.45593999997E+02  0.45594000000E+02  0.51100000000E-03 0.  1.
    9900012    2    1    2    0    0  0.36306911641E+02 -0.79327425028E+01 -0.16493854914E+02  0.50528837608E+02  0.29999932392E+02 0.  0.
        -12    1    1    2    0    0 -0.36306911641E+02  0.79327425028E+01  0.16493854914E+02  0.40659162392E+02  0.00000000000E+00 0.  1.
         11    1    3    3    0    0  0.14325590942E+02 -0.67120620821E+01 -0.69757927685E+01  0.17289766286E+02  0.51100000000E-03 0. -1.
        -11    1    3    3    0    0  0.79554268137E+01 -0.11819089378E+02 -0.36726725759E+01  0.14712858785E+02  0.51100000000E-03 0.  1.
        -12    1    3    3    0    0  0.14025893885E+02  0.10598408958E+02 -0.58453895693E+01  0.18526212536E+02  0.00000000000E+00 0.  1.
</event>
<event>
 7    1  0.5839176E-013  0.5052886E+02  0.7816164E-02  0.1300439E+00
        -11   -1    0    0    0    0  0.00000000000E+00  0.00000000000E+00  0.45593999997E+02  0.45594000000E+02  0.51100000000E-03 0.  1.
         11   -1    0    0    0    0 -0.00000000000E+00 -0.00000000000E+00 -0.45593999997E+02  0.45594000000E+02  0.51100000000E-03 0. -1.
    9900012    2    1    2    0    0 -0.13047455541E+02  0.79320097843E+01 -0.37683058485E+02  0.50528858689E+02  0.29999996472E+02 0.  0.
        -12    1    1    2    0    0  0.13047455541E+02 -0.79320097843E+01  0.37683058485E+02  0.40659141311E+02  0.00000000000E+00 0.  1.
         11    1    3    3    0    0 -0.55145950646E+01  0.30618164247E+01 -0.34520079272E+02  0.35091613696E+02  0.51100000000E-03 0. -1.
        -11    1    3    3    0    0  0.29345279926E+01 -0.35040094637E+00 -0.22314100865E+01  0.37031644033E+01  0.51100000000E-03 0.  1.
         12    1    3    3    0    0 -0.10467388469E+02  0.52205943060E+01 -0.93156912668E+00  0.11734080590E+02  0.00000000000E+00 0. -1.
</event>
<event>
 7    1  0.5839176E-013  0.5052886E+02  0.7816164E-02  0.1300439E+00
        -11   -1    0    0    0    0  0.00000000000E+00  0.00000000000E+00  0.45593999997E+02  0.45594000000E+02  0.51100000000E-03 0.  1.
         11   -1    0    0    0    0 -0.00000000000E+00 -0.00000000000E+00 -0.45593999997E+02  0.45594000000E+02  0.51100000000E-03 0. -1.
    9900012    2    1    2    0    0 -0.21826455572E+02  0.31468652164E+02  0.13656333273E+02  0.50528859941E+02  0.30000000277E+02 0.  0.
        -12    1    1    2    0    0  0.21826455572E+02 -0.31468652164E+02 -0.13656333273E+02  0.40659140059E+02  0.00000000000E+00 0.  1.
         11    1    3    3    0    0 -0.13702582197E+02  0.22567771206E+02  0.17892132723E+02  0.31893470644E+02  0.51100000000E-03 0. -1.
        -11    1    3    3    0    0  0.54758379039E+00  0.77574017008E+01  0.18327872209E+01  0.79897583451E+01  0.51100000000E-03 0.  1.
        -12    1    3    3    0    0 -0.86714571651E+01  0.11434792575E+01 -0.60685866713E+01  0.10645630952E+02  0.00000000000E+00 0.  1.
</event>
<event>
 7    1  0.5839176E-013  0.5052885E+02  0.7816164E-02  0.1300439E+00
        -11   -1    0    0    0    0  0.00000000000E+00  0.00000000000E+00  0.45593999997E+02  0.45594000000E+02  0.51100000000E-03 0.  1.
         11   -1    0    0    0    0 -0.00000000000E+00 -0.00000000000E+00 -0.45593999997E+02  0.45594000000E+02  0.51100000000E-03 0. -1.
    9900012    2    1    2    0    0  0.20365279085E+02  0.35186456972E+02 -0.57870611323E+00  0.50528852847E+02  0.29999978713E+02 0.  0.
        -12    1    1    2    0    0 -0.20365279085E+02 -0.35186456972E+02  0.57870611323E+00  0.40659147153E+02  0.00000000000E+00 0.  1.
         11    1    3    3    0    0  0.16908385287E+02  0.97902072712E+01  0.92435830143E+00  0.19560063649E+02  0.51100000000E-03 0. -1.
        -11    1    3    3    0    0 -0.29157113075E+01  0.68166923019E+00 -0.43570567704E+01  0.52867749460E+01  0.51100000000E-03 0.  1.
        -12    1    3    3    0    0  0.63726051060E+01  0.24714580470E+02  0.28539923557E+01  0.25682014252E+02  0.00000000000E+00 0.  1.
</event>
<event>
 7    1  0.5839176E-013  0.5052887E+02  0.7816164E-02  0.1300439E+00
        -11   -1    0    0    0    0  0.00000000000E+00  0.00000000000E+00  0.45593999997E+02  0.45594000000E+02  0.51100000000E-03 0. -1.
         11   -1    0    0    0    0 -0.00000000000E+00 -0.00000000000E+00 -0.45593999997E+02  0.45594000000E+02  0.51100000000E-03 0.  1.
    9900012    2    1    2    0    0 -0.33751042523E+02  0.71108585686E+01  0.21528292479E+02  0.50528873619E+02  0.30000041853E+02 0.  0.
        -12    1    1    2    0    0  0.33751042523E+02 -0.71108585686E+01 -0.21528292479E+02  0.40659126381E+02  0.00000000000E+00 0.  1.
         11    1    3    3    0    0 -0.68423222204E+01  0.78850664570E+01 -0.34342747024E+01  0.10990263390E+02  0.51100000000E-03 0. -1.
        -11    1    3    3    0    0  0.11011314839E+01  0.21902456087E+01  0.14493185530E+01  0.28478396901E+01  0.51100000000E-03 0.  1.
         12    1    3    3    0    0 -0.28009851787E+02 -0.29644534972E+01  0.23513248628E+02  0.36690770539E+02  0.00000000000E+00 0. -1.
</event>
<event>
 7    1  0.5839176E-013  0.5052886E+02  0.7816164E-02  0.1300439E+00
        -11   -1    0    0    0    0  0.00000000000E+00  0.00000000000E+00  0.45593999997E+02  0.45594000000E+02  0.51100000000E-03 0.  1.
         11   -1    0    0    0    0 -0.00000000000E+00 -0.00000000000E+00 -0.45593999997E+02  0.45594000000E+02  0.51100000000E-03 0. -1.
    9900012    2    1    2    0    0 -0.30826611403E+02  0.22596847667E+01 -0.26415509800E+02  0.50528864448E+02  0.30000013977E+02 0.  0.
        -12    1    1    2    0    0  0.30826611403E+02 -0.22596847667E+01  0.26415509800E+02  0.40659135552E+02  0.00000000000E+00 0.  1.
         11    1    3    3    0    0 -0.15701389620E+01  0.47163187643E+01 -0.46995635701E+01  0.68406795757E+01  0.51100000000E-03 0. -1.
        -11    1    3    3    0    0 -0.27985371646E+02 -0.61940352607E+01 -0.25393258731E+02  0.38293141530E+02  0.51100000000E-03 0.  1.
         12    1    3    3    0    0 -0.12711007946E+01  0.37374012631E+01  0.36773125017E+01  0.53950433424E+01  0.00000000000E+00 0. -1.
</event>
<event>
 7    1  0.5839176E-013  0.5052886E+02  0.7816164E-02  0.1300439E+00
        -11   -1    0    0    0    0  0.00000000000E+00  0.00000000000E+00  0.45593999997E+02  0.45594000000E+02  0.51100000000E-03 0.  1.
         11   -1    0    0    0    0 -0.00000000000E+00 -0.00000000000E+00 -0.45593999997E+02  0.45594000000E+02  0.51100000000E-03 0. -1.
    9900012    2    1    2    0    0 -0.49462957188E+01  0.28682007373E+02 -0.28390878578E+02  0.50528863577E+02  0.30000011328E+02 0.  0.
        -12    1    1    2    0    0  0.49462957188E+01 -0.28682007373E+02  0.28390878578E+02  0.40659136423E+02  0.00000000000E+00 0.  1.
         11    1    3    3    0    0 -0.39621708012E+01  0.10088097190E+02 -0.13564067756E+02  0.17362385686E+02  0.51100000000E-03 0. -1.
        -11    1    3    3    0    0  0.55148795969E+00  0.23349069205E+02 -0.15633284995E+02  0.28104853169E+02  0.51100000000E-03 0.  1.
        -12    1    3    3    0    0 -0.15356128772E+01 -0.47551590217E+01  0.80647417237E+00  0.50616247215E+01  0.00000000000E+00 0.  1.
</event>
<event>
 7    1  0.5839176E-013  0.5052886E+02  0.7816164E-02  0.1300439E+00
        -11   -1    0    0    0    0  0.00000000000E+00  0.00000000000E+00  0.45593999997E+02  0.45594000000E+02  0.51100000000E-03 0.  1.
         11   -1    0    0    0    0 -0.00000000000E+00 -0.00000000000E+00 -0.45593999997E+02  0.45594000000E+02  0.51100000000E-03 0. -1.
    9900012    2    1    2    0    0  0.12704941193E+02 -0.37803901007E+02 -0.79129623873E+01  0.50528862825E+02  0.30000009043E+02 0.  0.
        -12    1    1    2    0    0 -0.12704941193E+02  0.37803901007E+02  0.79129623873E+01  0.40659137175E+02  0.00000000000E+00 0.  1.
         11    1    3    3    0    0  0.61981218901E+01 -0.19686082719E+02  0.75698811411E+01  0.21983213335E+02  0.51100000000E-03 0. -1.
        -11    1    3    3    0    0  0.25449429695E+01 -0.54385830613E+01  0.22298218671E+01  0.64052342856E+01  0.51100000000E-03 0.  1.
         12    1    3    3    0    0  0.39618763333E+01 -0.12679235227E+02 -0.17712665396E+02  0.22140415205E+02  0.00000000000E+00 0. -1.
</event>
<event>
 7    1  0.5839176E-013  0.5052887E+02  0.7816164E-02  0.1300439E+00
        -11   -1    0    0    0    0  0.00000000000E+00  0.00000000000E+00  0.45593999997E+02  0.45594000000E+02  0.51100000000E-03 0.  1.
         11   -1    0    0    0    0 -0.00000000000E+00 -0.00000000000E+00 -0.45593999997E+02  0.45594000000E+02  0.51100000000E-03 0. -1.
    9900012    2    1    2    0    0  0.13709175156E+02 -0.13837838187E+02 -0.35689460590E+02  0.50528870074E+02  0.30000031077E+02 0.  0.
        -12    1    1    2    0    0 -0.13709175156E+02  0.13837838187E+02  0.35689460590E+02  0.40659129926E+02  0.00000000000E+00 0.  1.
         11    1    3    3    0    0  0.16015530449E+02 -0.56243601690E+01 -0.29151301853E+02  0.33733203863E+02  0.51100000000E-03 0. -1.
        -11    1    3    3    0    0  0.35690038366E+01 -0.68194296653E+01 -0.74224739060E+01  0.10692779269E+02  0.51100000000E-03 0.  1.
        -12    1    3    3    0    0 -0.58753591294E+01 -0.13940483527E+01  0.88431516917E+00  0.61028869421E+01  0.00000000000E+00 0.  1.
</event>
<event>
 7    1  0.5839176E-013  0.5052889E+02  0.7816164E-02  0.1300439E+00
        -11   -1    0    0    0    0  0.00000000000E+00  0.00000000000E+00  0.45593999997E+02  0.45594000000E+02  0.51100000000E-03 0.  1.
         11   -1    0    0    0    0 -0.00000000000E+00 -0.00000000000E+00 -0.45593999997E+02  0.45594000000E+02  0.51100000000E-03 0. -1.
    9900012    2    1    2    0    0  0.78307037798E+01  0.10170804114E+02 -0.38579767226E+02  0.50528885189E+02  0.30000077019E+02 0.  0.
        -12    1    1    2    0    0 -0.78307037798E+01 -0.10170804114E+02  0.38579767226E+02  0.40659114811E+02  0.00000000000E+00 0.  1.
         11    1    3    3    0    0  0.10329078015E+02 -0.18608079586E+01 -0.11206981512E+02  0.15354116509E+02  0.51100000000E-03 0. -1.
        -11    1    3    3    0    0  0.29618236837E+01 -0.39298132758E+01 -0.88142693028E+01  0.10094908396E+02  0.51100000000E-03 0.  1.
         12    1    3    3    0    0 -0.54601979187E+01  0.15961425348E+02 -0.18558516411E+02  0.25079860284E+02  0.00000000000E+00 0. -1.
</event>
<event>
 7    1  0.5839176E-013  0.5052886E+02  0.7816164E-02  0.1300439E+00
        -11   -1    0    0    0    0  0.00000000000E+00  0.00000000000E+00  0.45593999997E+02  0.45594000000E+02  0.51100000000E-03 0.  1.
         11   -1    0    0    0    0 -0.00000000000E+00 -0.00000000000E+00 -0.45593999997E+02  0.45594000000E+02  0.51100000000E-03 0. -1.
    9900012    2    1    2    0    0  0.55718014192E+01  0.39961643854E+02 -0.50187473213E+01  0.50528858651E+02  0.29999996357E+02 0.  0.
        -12    1    1    2    0    0 -0.55718014192E+01 -0.39961643854E+02  0.50187473213E+01  0.40659141349E+02  0.00000000000E+00 0.  1.
         11    1    3    3    0    0 -0.73099072045E+00  0.10616676962E+02 -0.76400595925E+00  0.10669202524E+02  0.51100000000E-03 0. -1.
        -11    1    3    3    0    0  0.88516329642E+01  0.28065517590E+02 -0.11866836785E+02  0.31730844603E+02  0.51100000000E-03 0.  1.
        -12    1    3    3    0    0 -0.25488408245E+01  0.12794493024E+01  0.76120954226E+01  0.81288115238E+01  0.00000000000E+00 0.  1.
</event>
<event>
 7    1  0.5839176E-013  0.5052887E+02  0.7816164E-02  0.1300439E+00
        -11   -1    0    0    0    0  0.00000000000E+00  0.00000000000E+00  0.45593999997E+02  0.45594000000E+02  0.51100000000E-03 0. -1.
         11   -1    0    0    0    0 -0.00000000000E+00 -0.00000000000E+00 -0.45593999997E+02  0.45594000000E+02  0.51100000000E-03 0.  1.
    9900012    2    1    2    0    0  0.33235354390E+02  0.11915876951E+02  0.20164022276E+02  0.50528871882E+02  0.30000036573E+02 0.  0.
        -12    1    1    2    0    0 -0.33235354390E+02 -0.11915876951E+02 -0.20164022276E+02  0.40659128118E+02  0.00000000000E+00 0.  1.
         11    1    3    3    0    0 -0.18042710243E+01  0.24232779727E+01 -0.17640659320E+01  0.34985138181E+01  0.51100000000E-03 0. -1.
        -11    1    3    3    0    0  0.16709967472E+01  0.78006544842E+01  0.61917421752E+01  0.10098520284E+02  0.51100000000E-03 0.  1.
        -12    1    3    3    0    0  0.33368628667E+02  0.16919444939E+01  0.15736346033E+02  0.36931837780E+02  0.00000000000E+00 0.  1.
</event>
<event>
 7    1  0.5839176E-013  0.5052886E+02  0.7816164E-02  0.1300439E+00
        -11   -1    0    0    0    0  0.00000000000E+00  0.00000000000E+00  0.45593999997E+02  0.45594000000E+02  0.51100000000E-03 0.  1.
         11   -1    0    0    0    0 -0.00000000000E+00 -0.00000000000E+00 -0.45593999997E+02  0.45594000000E+02  0.51100000000E-03 0. -1.
    9900012    2    1    2    0    0  0.22113494542E+02 -0.16811489749E+02 -0.29690615777E+02  0.50528862114E+02  0.30000006882E+02 0.  0.
        -12    1    1    2    0    0 -0.22113494542E+02  0.16811489749E+02  0.29690615777E+02  0.40659137886E+02  0.00000000000E+00 0.  1.
         11    1    3    3    0    0 -0.45028328657E+01 -0.22893173289E+01 -0.33483148392E+01  0.60603374636E+01  0.51100000000E-03 0.  1.
        -11    1    3    3    0    0 -0.20315935098E+01 -0.45950319799E+01 -0.65743338704E+01  0.82742707948E+01  0.51100000000E-03 0. -1.
        -12    1    3    3    0    0  0.28647920918E+02 -0.99271404399E+01 -0.19767967067E+02  0.36194253856E+02  0.00000000000E+00 0.  1.
</event>
<event>
 7    1  0.5839176E-013  0.5052887E+02  0.7816164E-02  0.1300439E+00
        -11   -1    0    0    0    0  0.00000000000E+00  0.00000000000E+00  0.45593999997E+02  0.45594000000E+02  0.51100000000E-03 0.  1.
         11   -1    0    0    0    0 -0.00000000000E+00 -0.00000000000E+00 -0.45593999997E+02  0.45594000000E+02  0.51100000000E-03 0. -1.
    9900012    2    1    2    0    0  0.82677849759E+01  0.19999644326E+01 -0.39759388205E+02  0.50528867243E+02  0.30000022472E+02 0.  0.
        -12    1    1    2    0    0 -0.82677849759E+01 -0.19999644326E+01  0.39759388205E+02  0.40659132757E+02  0.00000000000E+00 0.  1.
         11    1    3    3    0    0  0.85961922337E+00 -0.20784826157E+01 -0.37984970939E+01  0.44144779563E+01  0.51100000000E-03 0. -1.
        -11    1    3    3    0    0 -0.99870780217E+01  0.38516082068E+01 -0.87866335335E+01  0.13848521304E+02  0.51100000000E-03 0.  1.
        -12    1    3    3    0    0  0.17395243774E+02  0.22683884151E+00 -0.27174257577E+02  0.32265867983E+02  0.00000000000E+00 0.  1.
</event>
<event>
 7    1  0.5839176E-013  0.5052886E+02  0.7816164E-02  0.1300439E+00
        -11   -1    0    0    0    0  0.00000000000E+00  0.00000000000E+00  0.45593999997E+02  0.45594000000E+02  0.51100000000E-03 0.  1.
         11   -1    0    0    0    0 -0.00000000000E+00 -0.00000000000E+00 -0.45593999997E+02  0.45594000000E+02  0.51100000000E-03 0. -1.
    9900012    2    1    2    0    0 -0.92953148094E+01  0.33499240585E+02 -0.21084675009E+02  0.50528861821E+02  0.30000005992E+02 0.  0.
        -12    1    1    2    0    0  0.92953148094E+01 -0.33499240585E+02  0.21084675009E+02  0.40659138179E+02  0.00000000000E+00 0.  1.
         11    1    3    3    0    0 -0.36168455952E+01  0.12911668001E+02 -0.10499945973E+01  0.13449729794E+02  0.51100000000E-03 0. -1.
        -11    1    3    3    0    0  0.43801744432E+01  0.15059073544E+02 -0.21523468028E+01  0.15830168072E+02  0.51100000000E-03 0.  1.
         12    1    3    3    0    0 -0.10058643657E+02  0.55284990402E+01 -0.17882333609E+02  0.21248963955E+02  0.00000000000E+00 0. -1.
</event>
<event>
 7    1  0.5839176E-013  0.5052886E+02  0.7816164E-02  0.1300439E+00
        -11   -1    0    0    0    0  0.00000000000E+00  0.00000000000E+00  0.45593999997E+02  0.45594000000E+02  0.51100000000E-03 0.  1.
         11   -1    0    0    0    0 -0.00000000000E+00 -0.00000000000E+00 -0.45593999997E+02  0.45594000000E+02  0.51100000000E-03 0. -1.
    9900012    2    1    2    0    0  0.35097336739E+02  0.94257088133E+01 -0.18234555302E+02  0.50528855397E+02  0.29999986464E+02 0.  0.
        -12    1    1    2    0    0 -0.35097336739E+02 -0.94257088133E+01  0.18234555302E+02  0.40659144603E+02  0.00000000000E+00 0.  1.
         11    1    3    3    0    0 -0.32960870270E+00 -0.22903887949E+00 -0.81130896361E+01  0.81230120282E+01  0.51100000000E-03 0. -1.
        -11    1    3    3    0    0  0.17832758274E+02 -0.47051741161E+01 -0.37762943274E+01  0.18825682729E+02  0.51100000000E-03 0.  1.
         12    1    3    3    0    0  0.17594187168E+02  0.14359921809E+02 -0.63451713389E+01  0.23580160639E+02  0.00000000000E+00 0. -1.
</event>
<event>
 7    1  0.5839176E-013  0.5052886E+02  0.7816164E-02  0.1300439E+00
        -11   -1    0    0    0    0  0.00000000000E+00  0.00000000000E+00  0.45593999997E+02  0.45594000000E+02  0.51100000000E-03 0.  1.
         11   -1    0    0    0    0 -0.00000000000E+00 -0.00000000000E+00 -0.45593999997E+02  0.45594000000E+02  0.51100000000E-03 0. -1.
    9900012    2    1    2    0    0  0.35057322253E+01 -0.11628530378E+02 -0.38802737364E+02  0.50528864444E+02  0.30000013964E+02 0.  0.
        -12    1    1    2    0    0 -0.35057322253E+01  0.11628530378E+02  0.38802737364E+02  0.40659135556E+02  0.00000000000E+00 0.  1.
         11    1    3    3    0    0 -0.98224515773E+01 -0.25115267696E+01 -0.16485704652E+02  0.19353727802E+02  0.51100000000E-03 0. -1.
        -11    1    3    3    0    0 -0.16760180315E+01  0.44583600277E+00 -0.84249771423E+01  0.86016304439E+01  0.51100000000E-03 0.  1.
        -12    1    3    3    0    0  0.15004201834E+02 -0.95628396110E+01 -0.13892055570E+02  0.22573506198E+02  0.00000000000E+00 0.  1.
</event>
<event>
 7    1  0.5839176E-013  0.5052887E+02  0.7816164E-02  0.1300439E+00
        -11   -1    0    0    0    0  0.00000000000E+00  0.00000000000E+00  0.45593999997E+02  0.45594000000E+02  0.51100000000E-03 0.  1.
         11   -1    0    0    0    0 -0.00000000000E+00 -0.00000000000E+00 -0.45593999997E+02  0.45594000000E+02  0.51100000000E-03 0. -1.
    9900012    2    1    2    0    0  0.15441000154E+02 -0.17631162280E+02 -0.33224731216E+02  0.50528866543E+02  0.30000020344E+02 0.  0.
        -12    1    1    2    0    0 -0.15441000154E+02  0.17631162280E+02  0.33224731216E+02  0.40659133457E+02  0.00000000000E+00 0.  1.
         11    1    3    3    0    0  0.24832119497E+01 -0.18232099576E+02 -0.18141951743E+02  0.25840011801E+02  0.51100000000E-03 0. -1.
        -11    1    3    3    0    0  0.44438566277E+01 -0.19932383782E+01 -0.15018244255E+02  0.15788239981E+02  0.51100000000E-03 0.  1.
        -12    1    3    3    0    0  0.85139315767E+01  0.25941756748E+01 -0.64535218294E-01  0.89006147607E+01  0.00000000000E+00 0.  1.
</event>
<event>
 7    1  0.5839176E-013  0.5052885E+02  0.7816164E-02  0.1300439E+00
        -11   -1    0    0    0    0  0.00000000000E+00  0.00000000000E+00  0.45593999997E+02  0.45594000000E+02  0.51100000000E-03 0.  1.
         11   -1    0    0    0    0 -0.00000000000E+00 -0.00000000000E+00 -0.45593999997E+02  0.45594000000E+02  0.51100000000E-03 0. -1.
    9900012    2    1    2    0    0  0.46991390602E+01  0.40386685542E+02  0.11482719234E-01  0.50528850859E+02  0.29999972672E+02 0.  0.
        -12    1    1    2    0    0 -0.46991390602E+01 -0.40386685542E+02 -0.11482719234E-01  0.40659149141E+02  0.00000000000E+00 0.  1.
         11    1    3    3    0    0  0.15182793543E+01  0.69868824945E+01 -0.23406396476E+01  0.75233166496E+01  0.51100000000E-03 0. -1.
        -11    1    3    3    0    0  0.13903866611E+02  0.18683225619E+02  0.67997237716E+01  0.24261423493E+02  0.51100000000E-03 0.  1.
        -12    1    3    3    0    0 -0.10723006905E+02  0.14716577429E+02 -0.44476014048E+01  0.18744110717E+02  0.00000000000E+00 0.  1.
</event>
<event>
 7    1  0.5839176E-013  0.5052886E+02  0.7816164E-02  0.1300439E+00
        -11   -1    0    0    0    0  0.00000000000E+00  0.00000000000E+00  0.45593999997E+02  0.45594000000E+02  0.51100000000E-03 0. -1.
         11   -1    0    0    0    0 -0.00000000000E+00 -0.00000000000E+00 -0.45593999997E+02  0.45594000000E+02  0.51100000000E-03 0.  1.
    9900012    2    1    2    0    0 -0.39491789532E+02  0.63865280971E+01 -0.72647449877E+01  0.50528859560E+02  0.29999999120E+02 0.  0.
        -12    1    1    2    0    0  0.39491789532E+02 -0.63865280971E+01  0.72647449877E+01  0.40659140440E+02  0.00000000000E+00 0.  1.
         11    1    3    3    0    0 -0.12164970503E+02  0.18840847888E+01 -0.11667553043E+01  0.12365176951E+02  0.51100000000E-03 0. -1.
        -11    1    3    3    0    0 -0.28610748773E+02 -0.41022047652E+01 -0.36990135950E+01  0.29139075674E+02  0.51100000000E-03 0.  1.
        -12    1    3    3    0    0  0.12839297449E+01  0.86046480735E+01 -0.23989760884E+01  0.90246069350E+01  0.00000000000E+00 0.  1.
</event>
<event>
 7    1  0.6443507E-013  0.5052886E+02  0.7816164E-02  0.1300439E+00
        -11   -1    0    0    0    0  0.00000000000E+00  0.00000000000E+00  0.45593999997E+02  0.45594000000E+02  0.51100000000E-03 0. -1.
         11   -1    0    0    0    0 -0.00000000000E+00 -0.00000000000E+00 -0.45593999997E+02  0.45594000000E+02  0.51100000000E-03 0.  1.
    9900012    2    1    2    0    0 -0.29849298103E+02 -0.23470810333E+02  0.14536384360E+02  0.50528855824E+02  0.29999987761E+02 0.  0.
        -12    1    1    2    0    0  0.29849298103E+02  0.23470810333E+02 -0.14536384360E+02  0.40659144176E+02  0.00000000000E+00 0.  1.
         11    1    3    3    0    0 -0.10338887869E+02 -0.20670769846E+02  0.14941699801E+02  0.27521404790E+02  0.51100000000E-03 0. -1.
        -11    1    3    3    0    0 -0.49005600772E+01  0.37483572252E+01  0.26387624564E+01  0.67103456334E+01  0.51100000000E-03 0.  1.
        -12    1    3    3    0    0 -0.14609850156E+02 -0.65483977120E+01 -0.30440778975E+01  0.16297105400E+02  0.00000000000E+00 0.  1.
</event>
<event>
 7    1  0.5839176E-013  0.5052887E+02  0.7816164E-02  0.1300439E+00
        -11   -1    0    0    0    0  0.00000000000E+00  0.00000000000E+00  0.45593999997E+02  0.45594000000E+02  0.51100000000E-03 0.  1.
         11   -1    0    0    0    0 -0.00000000000E+00 -0.00000000000E+00 -0.45593999997E+02  0.45594000000E+02  0.51100000000E-03 0. -1.
    9900012    2    1    2    0    0  0.13370037961E+02  0.35797319708E+00 -0.38396341978E+02  0.50528866497E+02  0.30000020206E+02 0.  0.
        -12    1    1    2    0    0 -0.13370037961E+02 -0.35797319708E+00  0.38396341978E+02  0.40659133503E+02  0.00000000000E+00 0.  1.
         11    1    3    3    0    0  0.73664993530E+01 -0.33679821201E+01 -0.66407131952E+01  0.10474143797E+02  0.51100000000E-03 0. -1.
        -11    1    3    3    0    0 -0.53776256345E+01 -0.63310003645E+01 -0.63513903993E+01  0.10456604771E+02  0.51100000000E-03 0.  1.
         12    1    3    3    0    0  0.11381164242E+02  0.10056955682E+02 -0.25404238384E+02  0.29598117929E+02  0.00000000000E+00 0. -1.
</event>
<event>
 7    1  0.5839176E-013  0.5052886E+02  0.7816164E-02  0.1300439E+00
        -11   -1    0    0    0    0  0.00000000000E+00  0.00000000000E+00  0.45593999997E+02  0.45594000000E+02  0.51100000000E-03 0. -1.
         11   -1    0    0    0    0 -0.00000000000E+00 -0.00000000000E+00 -0.45593999997E+02  0.45594000000E+02  0.51100000000E-03 0.  1.
    9900012    2    1    2    0    0  0.88280519645E+01 -0.16468245484E+02  0.36111330964E+02  0.50528857918E+02  0.29999994129E+02 0.  0.
        -12    1    1    2    0    0 -0.88280519645E+01  0.16468245484E+02 -0.36111330964E+02  0.40659142082E+02  0.00000000000E+00 0.  1.
         11    1    3    3    0    0  0.86222604208E+01 -0.47752373884E+01  0.13177681335E+02  0.16455927580E+02  0.51100000000E-03 0. -1.
        -11    1    3    3    0    0  0.29122113411E+01 -0.10368190236E+02 -0.17282682029E+00  0.10770803732E+02  0.51100000000E-03 0.  1.
         12    1    3    3    0    0 -0.27064197975E+01 -0.13248178592E+01  0.23106476449E+02  0.23302126606E+02  0.00000000000E+00 0. -1.
</event>
<event>
 7    1  0.5839176E-013  0.5052888E+02  0.7816164E-02  0.1300439E+00
        -11   -1    0    0    0    0  0.00000000000E+00  0.00000000000E+00  0.45593999997E+02  0.45594000000E+02  0.51100000000E-03 0.  1.
         11   -1    0    0    0    0 -0.00000000000E+00 -0.00000000000E+00 -0.45593999997E+02  0.45594000000E+02  0.51100000000E-03 0. -1.
    9900012    2    1    2    0    0 -0.24078928635E+01 -0.13746927195E+02 -0.38188851884E+02  0.50528876011E+02  0.30000049123E+02 0.  0.
        -12    1    1    2    0    0  0.24078928635E+01  0.13746927195E+02  0.38188851884E+02  0.40659123989E+02  0.00000000000E+00 0.  1.
         11    1    3    3    0    0 -0.37907143928E+00 -0.49195555936E+00  0.18583607592E+01  0.19593928654E+01  0.51100000000E-03 0. -1.
        -11    1    3    3    0    0 -0.33377654532E+01 -0.99281010870E+01 -0.23905493522E+01  0.10743490861E+02  0.51100000000E-03 0.  1.
         12    1    3    3    0    0  0.13089440289E+01 -0.33268705489E+01 -0.37656663291E+02  0.37825992285E+02  0.00000000000E+00 0. -1.
</event>
<event>
 7    1  0.5839176E-013  0.5052890E+02  0.7816164E-02  0.1300439E+00
        -11   -1    0    0    0    0  0.00000000000E+00  0.00000000000E+00  0.45593999997E+02  0.45594000000E+02  0.51100000000E-03 0. -1.
         11   -1    0    0    0    0 -0.00000000000E+00 -0.00000000000E+00 -0.45593999997E+02  0.45594000000E+02  0.51100000000E-03 0.  1.
    9900012    2    1    2    0    0  0.32016034189E+02 -0.38937268930E+01  0.24758334789E+02  0.50528896520E+02  0.30000111461E+02 0.  0.
        -12    1    1    2    0    0 -0.32016034189E+02  0.38937268930E+01 -0.24758334789E+02  0.40659103480E+02  0.00000000000E+00 0.  1.
         11    1    3    3    0    0  0.80920156794E+01  0.37763348487E+01 -0.48209944975E+01  0.10148074244E+02  0.51100000000E-03 0. -1.
        -11    1    3    3    0    0  0.79741687864E+01 -0.83191630066E+01  0.12118797291E+02  0.16723070561E+02  0.51100000000E-03 0.  1.
        -12    1    3    3    0    0  0.15949849723E+02  0.64910126493E+00  0.17460531995E+02  0.23657751715E+02  0.00000000000E+00 0.  1.
</event>
<event>
 7    1  0.5839176E-013  0.5052888E+02  0.7816164E-02  0.1300439E+00
        -11   -1    0    0    0    0  0.00000000000E+00  0.00000000000E+00  0.45593999997E+02  0.45594000000E+02  0.51100000000E-03 0. -1.
         11   -1    0    0    0    0 -0.00000000000E+00 -0.00000000000E+00 -0.45593999997E+02  0.45594000000E+02  0.51100000000E-03 0.  1.
    9900012    2    1    2    0    0  0.16204000257E+02 -0.98903042190E+01  0.35955204076E+02  0.50528875046E+02  0.30000046190E+02 0.  0.
        -12    1    1    2    0    0 -0.16204000257E+02  0.98903042190E+01 -0.35955204076E+02  0.40659124954E+02  0.00000000000E+00 0.  1.
         11    1    3    3    0    0  0.60562504971E+01 -0.46006620186E+01  0.11282564759E+02  0.13606635473E+02  0.51100000000E-03 0. -1.
        -11    1    3    3    0    0  0.11963325804E+02 -0.12456320482E+02  0.87366562272E+01  0.19354850723E+02  0.51100000000E-03 0.  1.
         12    1    3    3    0    0 -0.18155760438E+01  0.71666782812E+01  0.15935983090E+02  0.17567388850E+02  0.00000000000E+00 0. -1.
</event>
<event>
 7    1  0.5839176E-013  0.5052893E+02  0.7816164E-02  0.1300439E+00
        -11   -1    0    0    0    0  0.00000000000E+00  0.00000000000E+00  0.45593999997E+02  0.45594000000E+02  0.51100000000E-03 0.  1.
         11   -1    0    0    0    0 -0.00000000000E+00 -0.00000000000E+00 -0.45593999997E+02  0.45594000000E+02  0.51100000000E-03 0. -1.
    9900012    2    1    2    0    0 -0.14805123348E+02  0.33830538239E+02 -0.17013601761E+02  0.50528934101E+02  0.30000225693E+02 0.  0.
        -12    1    1    2    0    0  0.14805123348E+02 -0.33830538239E+02  0.17013601761E+02  0.40659065899E+02  0.00000000000E+00 0.  1.
         11    1    3    3    0    0 -0.43470423929E+01  0.32498683520E+01 -0.36269144440E+01  0.65278580343E+01  0.51100000000E-03 0. -1.
        -11    1    3    3    0    0 -0.12995786834E+02  0.23461998602E+02 -0.20394845652E+02  0.33694296005E+02  0.51100000000E-03 0.  1.
        -12    1    3    3    0    0  0.25377058796E+01  0.71186712854E+01  0.70081583349E+01  0.10306780062E+02  0.00000000000E+00 0.  1.
</event>
<event>
 7    1  0.5839176E-013  0.5052887E+02  0.7816164E-02  0.1300439E+00
        -11   -1    0    0    0    0  0.00000000000E+00  0.00000000000E+00  0.45593999997E+02  0.45594000000E+02  0.51100000000E-03 0.  1.
         11   -1    0    0    0    0 -0.00000000000E+00 -0.00000000000E+00 -0.45593999997E+02  0.45594000000E+02  0.51100000000E-03 0. -1.
    9900012    2    1    2    0    0  0.61642246661E+01 -0.40183416358E+02 -0.67810907476E+00  0.50528874974E+02  0.30000045972E+02 0.  0.
        -12    1    1    2    0    0 -0.61642246661E+01  0.40183416358E+02  0.67810907476E+00  0.40659125026E+02  0.00000000000E+00 0.  1.
         11    1    3    3    0    0  0.11285340879E+02 -0.10731683163E+02  0.17948200425E+01  0.15676393766E+02  0.51100000000E-03 0. -1.
        -11    1    3    3    0    0  0.65316307688E+01 -0.80390903402E+01 -0.91862258591E-01  0.10358456108E+02  0.51100000000E-03 0.  1.
        -12    1    3    3    0    0 -0.11652746982E+02 -0.21412642855E+02 -0.23810668587E+01  0.24494025101E+02  0.00000000000E+00 0.  1.
</event>
<event>
 7    1  0.5839176E-013  0.5052886E+02  0.7816164E-02  0.1300439E+00
        -11   -1    0    0    0    0  0.00000000000E+00  0.00000000000E+00  0.45593999997E+02  0.45594000000E+02  0.51100000000E-03 0.  1.
         11   -1    0    0    0    0 -0.00000000000E+00 -0.00000000000E+00 -0.45593999997E+02  0.45594000000E+02  0.51100000000E-03 0. -1.
    9900012    2    1    2    0    0  0.38121471303E+01 -0.38978746931E+02  0.10922008412E+02  0.50528862703E+02  0.30000008671E+02 0.  0.
        -12    1    1    2    0    0 -0.38121471303E+01  0.38978746931E+02 -0.10922008412E+02  0.40659137297E+02  0.00000000000E+00 0.  1.
         11    1    3    3    0    0 -0.50733666315E+01 -0.26997548424E+02  0.11695426190E+02  0.29856149516E+02  0.51100000000E-03 0. -1.
        -11    1    3    3    0    0  0.29511532998E+01 -0.11740118708E+02  0.43153840261E+01  0.12851545923E+02  0.51100000000E-03 0.  1.
        -12    1    3    3    0    0  0.59343604621E+01 -0.24107979903E+00 -0.50888018042E+01  0.78211672637E+01  0.00000000000E+00 0.  1.
</event>
<event>
 7    1  0.5839176E-013  0.5052886E+02  0.7816164E-02  0.1300439E+00
        -11   -1    0    0    0    0  0.00000000000E+00  0.00000000000E+00  0.45593999997E+02  0.45594000000E+02  0.51100000000E-03 0.  1.
         11   -1    0    0    0    0 -0.00000000000E+00 -0.00000000000E+00 -0.45593999997E+02  0.45594000000E+02  0.51100000000E-03 0. -1.
    9900012    2    1    2    0    0 -0.14904153064E+01 -0.14984560421E+02 -0.37767807401E+02  0.50528860010E+02  0.30000000488E+02 0.  0.
        -12    1    1    2    0    0  0.14904153064E+01  0.14984560421E+02  0.37767807401E+02  0.40659139990E+02  0.00000000000E+00 0.  1.
         11    1    3    3    0    0  0.75119226427E+01  0.83666509941E+00 -0.16393965545E+02  0.18052454039E+02  0.51100000000E-03 0. -1.
        -11    1    3    3    0    0  0.15421086250E+01  0.81175860041E+00  0.14952988209E+01  0.22962948115E+01  0.51100000000E-03 0.  1.
        -12    1    3    3    0    0 -0.10544446574E+02 -0.16632984121E+02 -0.22869140677E+02  0.30180111160E+02  0.00000000000E+00 0.  1.
</event>
<event>
 7    1  0.5839176E-013  0.5052885E+02  0.7816164E-02  0.1300439E+00
        -11   -1    0    0    0    0  0.00000000000E+00  0.00000000000E+00  0.45593999997E+02  0.45594000000E+02  0.51100000000E-03 0.  1.
         11   -1    0    0    0    0 -0.00000000000E+00 -0.00000000000E+00 -0.45593999997E+02  0.45594000000E+02  0.51100000000E-03 0. -1.
    9900012    2    1    2    0    0  0.30629666423E+02 -0.18194880713E+01 -0.26677314091E+02  0.50528854791E+02  0.29999984622E+02 0.  0.
        -12    1    1    2    0    0 -0.30629666423E+02  0.18194880713E+01  0.26677314091E+02  0.40659145209E+02  0.00000000000E+00 0.  1.
         11    1    3    3    0    0  0.43730626713E+01  0.18854485880E+00 -0.19216238473E+02  0.19708451172E+02  0.51100000000E-03 0. -1.
        -11    1    3    3    0    0  0.16683266200E+01  0.42136665825E+01 -0.13966320049E+01  0.47422442997E+01  0.51100000000E-03 0.  1.
        -12    1    3    3    0    0  0.24588277132E+02 -0.62216995127E+01 -0.60644436131E+01  0.26078159319E+02  0.00000000000E+00 0.  1.
</event>
<event>
 7    1  0.5839176E-013  0.5052874E+02  0.7816164E-02  0.1300439E+00
        -11   -1    0    0    0    0  0.00000000000E+00  0.00000000000E+00  0.45593999997E+02  0.45594000000E+02  0.51100000000E-03 0.  1.
         11   -1    0    0    0    0 -0.00000000000E+00 -0.00000000000E+00 -0.45593999997E+02  0.45594000000E+02  0.51100000000E-03 0. -1.
    9900012    2    1    2    0    0 -0.29033182233E+02 -0.23635993428E+02 -0.15861563199E+02  0.50528744682E+02  0.29999649935E+02 0.  0.
        -12    1    1    2    0    0  0.29033182233E+02  0.23635993428E+02  0.15861563199E+02  0.40659255318E+02  0.00000000000E+00 0.  1.
         11    1    3    3    0    0 -0.12869082874E+02 -0.76941115221E+01 -0.69579710679E+01  0.16529549533E+02  0.51100000000E-03 0. -1.
        -11    1    3    3    0    0 -0.15415419847E+02 -0.21913719433E+01 -0.12268639937E+02  0.19823138152E+02  0.51100000000E-03 0.  1.
        -12    1    3    3    0    0 -0.74867951167E+00 -0.13750509962E+02  0.33650478060E+01  0.14176056997E+02  0.00000000000E+00 0.  1.
</event>
<event>
 7    1  0.5839176E-013  0.5052886E+02  0.7816164E-02  0.1300439E+00
        -11   -1    0    0    0    0  0.00000000000E+00  0.00000000000E+00  0.45593999997E+02  0.45594000000E+02  0.51100000000E-03 0. -1.
         11   -1    0    0    0    0 -0.00000000000E+00 -0.00000000000E+00 -0.45593999997E+02  0.45594000000E+02  0.51100000000E-03 0.  1.
    9900012    2    1    2    0    0  0.32313940166E+02 -0.21793380486E+02 -0.11576842458E+02  0.50528862732E+02  0.30000008760E+02 0.  0.
        -12    1    1    2    0    0 -0.32313940166E+02  0.21793380486E+02  0.11576842458E+02  0.40659137268E+02  0.00000000000E+00 0.  1.
         11    1    3    3    0    0  0.95287386438E+01 -0.19971387626E+02 -0.28939640119E+01  0.22316545696E+02  0.51100000000E-03 0. -1.
        -11    1    3    3    0    0  0.77075676758E+01 -0.24469235825E+01 -0.10232744508E+02  0.13042357721E+02  0.51100000000E-03 0.  1.
         12    1    3    3    0    0  0.15077633847E+02  0.62493072162E+00  0.15498660613E+01  0.15169959315E+02  0.00000000000E+00 0. -1.
</event>
<event>
 7    1  0.5839176E-013  0.5052886E+02  0.7816164E-02  0.1300439E+00
        -11   -1    0    0    0    0  0.00000000000E+00  0.00000000000E+00  0.45593999997E+02  0.45594000000E+02  0.51100000000E-03 0.  1.
         11   -1    0    0    0    0 -0.00000000000E+00 -0.00000000000E+00 -0.45593999997E+02  0.45594000000E+02  0.51100000000E-03 0. -1.
    9900012    2    1    2    0    0 -0.10792267646E+01 -0.14465443329E+02 -0.37983569573E+02  0.50528864020E+02  0.30000012676E+02 0.  0.
        -12    1    1    2    0    0  0.10792267646E+01  0.14465443329E+02  0.37983569573E+02  0.40659135980E+02  0.00000000000E+00 0.  1.
         11    1    3    3    0    0  0.27934856280E+01 -0.24476549433E+01  0.87473390561E+00  0.38157222569E+01  0.51100000000E-03 0. -1.
        -11    1    3    3    0    0  0.28775142993E+01 -0.74738262712E+01 -0.10950522574E+01  0.80831495955E+01  0.51100000000E-03 0.  1.
         12    1    3    3    0    0 -0.67502266919E+01 -0.45439621140E+01 -0.37763251221E+02  0.38629992168E+02  0.00000000000E+00 0. -1.
</event>
<event>
 7    1  0.5839176E-013  0.5052887E+02  0.7816164E-02  0.1300439E+00
        -11   -1    0    0    0    0  0.00000000000E+00  0.00000000000E+00  0.45593999997E+02  0.45594000000E+02  0.51100000000E-03 0. -1.
         11   -1    0    0    0    0 -0.00000000000E+00 -0.00000000000E+00 -0.45593999997E+02  0.45594000000E+02  0.51100000000E-03 0.  1.
    9900012    2    1    2    0    0 -0.15534372824E+02 -0.31762288065E+02  0.20074990200E+02  0.50528869246E+02  0.30000028560E+02 0.  0.
        -12    1    1    2    0    0  0.15534372824E+02  0.31762288065E+02 -0.20074990200E+02  0.40659130754E+02  0.00000000000E+00 0.  1.
         11    1    3    3    0    0 -0.71949747036E+01 -0.70353253397E+01 -0.11320218396E+01  0.10126447419E+02  0.51100000000E-03 0.  1.
        -11    1    3    3    0    0 -0.15163561666E+02 -0.21108535654E+02  0.12751614955E+02  0.28950087462E+02  0.51100000000E-03 0. -1.
         12    1    3    3    0    0  0.68241635453E+01 -0.36184270715E+01  0.84553970840E+01  0.11452334365E+02  0.00000000000E+00 0. -1.
</event>
<event>
 7    1  0.5839176E-013  0.5052886E+02  0.7816164E-02  0.1300439E+00
        -11   -1    0    0    0    0  0.00000000000E+00  0.00000000000E+00  0.45593999997E+02  0.45594000000E+02  0.51100000000E-03 0.  1.
         11   -1    0    0    0    0 -0.00000000000E+00 -0.00000000000E+00 -0.45593999997E+02  0.45594000000E+02  0.51100000000E-03 0. -1.
    9900012    2    1    2    0    0 -0.13319118901E+02 -0.67779023799E+01 -0.37813055633E+02  0.50528855084E+02  0.29999985513E+02 0.  0.
        -12    1    1    2    0    0  0.13319118901E+02  0.67779023799E+01  0.37813055633E+02  0.40659144916E+02  0.00000000000E+00 0.  1.
         11    1    3    3    0    0 -0.17604950590E+01 -0.13798168832E+02 -0.15369360721E+02  0.20729352504E+02  0.51100000000E-03 0. -1.
        -11    1    3    3    0    0 -0.36537750459E+01 -0.23109077814E+01 -0.95794399260E-01  0.43242969010E+01  0.51100000000E-03 0.  1.
        -12    1    3    3    0    0 -0.79048487958E+01  0.93311742339E+01 -0.22347900513E+02  0.25475205679E+02  0.00000000000E+00 0.  1.
</event>
<event>
 7    1  0.5839176E-013  0.5052887E+02  0.7816164E-02  0.1300439E+00
        -11   -1    0    0    0    0  0.00000000000E+00  0.00000000000E+00  0.45593999997E+02  0.45594000000E+02  0.51100000000E-03 0. -1.
         11   -1    0    0    0    0 -0.00000000000E+00 -0.00000000000E+00 -0.45593999997E+02  0.45594000000E+02  0.51100000000E-03 0.  1.
    9900012    2    1    2    0    0 -0.20982010504E+02 -0.30056703326E+02  0.17593035547E+02  0.50528867208E+02  0.30000022364E+02 0.  0.
        -12    1    1    2    0    0  0.20982010504E+02  0.30056703326E+02 -0.17593035547E+02  0.40659132792E+02  0.00000000000E+00 0.  1.
         11    1    3    3    0    0 -0.51668593627E+00  0.28225376361E+00 -0.13204244359E+01  0.14457359703E+01  0.51100000000E-03 0. -1.
        -11    1    3    3    0    0  0.53768527115E+01 -0.13266010986E+02  0.56108272448E+01  0.15374621140E+02  0.51100000000E-03 0.  1.
         12    1    3    3    0    0 -0.25842177280E+02 -0.17072946104E+02  0.13302632739E+02  0.33708510098E+02  0.00000000000E+00 0. -1.
</event>
<event>
 7    1  0.5839176E-013  0.5052886E+02  0.7816164E-02  0.1300439E+00
        -11   -1    0    0    0    0  0.00000000000E+00  0.00000000000E+00  0.45593999997E+02  0.45594000000E+02  0.51100000000E-03 0. -1.
         11   -1    0    0    0    0 -0.00000000000E+00 -0.00000000000E+00 -0.45593999997E+02  0.45594000000E+02  0.51100000000E-03 0.  1.
    9900012    2    1    2    0    0 -0.14980831225E+02  0.32004045513E+02  0.20111718890E+02  0.50528862403E+02  0.30000007761E+02 0.  0.
        -12    1    1    2    0    0  0.14980831225E+02 -0.32004045513E+02 -0.20111718890E+02  0.40659137597E+02  0.00000000000E+00 0.  1.
         11    1    3    3    0    0  0.24835884818E+01  0.60949025577E+01  0.38299210468E+00  0.65926271052E+01  0.51100000000E-03 0. -1.
        -11    1    3    3    0    0 -0.91365066204E+01 -0.25497160324E+01  0.33411727340E+01  0.10056850430E+02  0.51100000000E-03 0.  1.
         12    1    3    3    0    0 -0.83279130864E+01  0.28458858988E+02  0.16387554051E+02  0.33879384868E+02  0.00000000000E+00 0. -1.
</event>
<event>
 7    1  0.5839176E-013  0.5052886E+02  0.7816164E-02  0.1300439E+00
        -11   -1    0    0    0    0  0.00000000000E+00  0.00000000000E+00  0.45593999997E+02  0.45594000000E+02  0.51100000000E-03 0. -1.
         11   -1    0    0    0    0 -0.00000000000E+00 -0.00000000000E+00 -0.45593999997E+02  0.45594000000E+02  0.51100000000E-03 0.  1.
    9900012    2    1    2    0    0 -0.17424445482E+02  0.22824778531E+02  0.28785135630E+02  0.50528857749E+02  0.29999993614E+02 0.  0.
        -12    1    1    2    0    0  0.17424445482E+02 -0.22824778531E+02 -0.28785135630E+02  0.40659142251E+02  0.00000000000E+00 0.  1.
         11    1    3    3    0    0 -0.13239994533E+02  0.22704420312E+02  0.29127226317E+02  0.39232428807E+02  0.51100000000E-03 0. -1.
        -11    1    3    3    0    0 -0.48350042422E+01  0.30145452397E+00  0.43772333061E+01  0.65290361103E+01  0.51100000000E-03 0.  1.
        -12    1    3    3    0    0  0.65055329327E+00 -0.18109630536E+00 -0.47193239929E+01  0.47673928314E+01  0.00000000000E+00 0.  1.
</event>
<event>
 7    1  0.5839176E-013  0.5052887E+02  0.7816164E-02  0.1300439E+00
        -11   -1    0    0    0    0  0.00000000000E+00  0.00000000000E+00  0.45593999997E+02  0.45594000000E+02  0.51100000000E-03 0. -1.
         11   -1    0    0    0    0 -0.00000000000E+00 -0.00000000000E+00 -0.45593999997E+02  0.45594000000E+02  0.51100000000E-03 0.  1.
    9900012    2    1    2    0    0 -0.24891358649E+02  0.18731197758E+02  0.26129045277E+02  0.50528874187E+02  0.30000043577E+02 0.  0.
        -12    1    1    2    0    0  0.24891358649E+02 -0.18731197758E+02 -0.26129045277E+02  0.40659125813E+02  0.00000000000E+00 0.  1.
         11    1    3    3    0    0  0.11950304220E+01 -0.95136354340E+00 -0.31762506419E+01  0.35244515464E+01  0.51100000000E-03 0. -1.
        -11    1    3    3    0    0 -0.33049435516E+01  0.86292081583E+01  0.14386175775E+01  0.93517648663E+01  0.51100000000E-03 0.  1.
         12    1    3    3    0    0 -0.22781445519E+02  0.11053353143E+02  0.27866678342E+02  0.37652657774E+02  0.00000000000E+00 0. -1.
</event>
<event>
 7    1  0.5839176E-013  0.5052886E+02  0.7816164E-02  0.1300439E+00
        -11   -1    0    0    0    0  0.00000000000E+00  0.00000000000E+00  0.45593999997E+02  0.45594000000E+02  0.51100000000E-03 0.  1.
         11   -1    0    0    0    0 -0.00000000000E+00 -0.00000000000E+00 -0.45593999997E+02  0.45594000000E+02  0.51100000000E-03 0. -1.
    9900012    2    1    2    0    0 -0.33103455180E+02  0.23151948062E+02  0.46167198265E+01  0.50528861472E+02  0.30000004929E+02 0.  0.
        -12    1    1    2    0    0  0.33103455180E+02 -0.23151948062E+02 -0.46167198265E+01  0.40659138528E+02  0.00000000000E+00 0.  1.
         11    1    3    3    0    0 -0.14680885424E+02  0.12159175281E+02  0.30576474210E+01  0.19306039168E+02  0.51100000000E-03 0. -1.
        -11    1    3    3    0    0 -0.19652709946E+02  0.16421578510E+02  0.15329433521E+01  0.25656327963E+02  0.51100000000E-03 0.  1.
        -12    1    3    3    0    0  0.12301401889E+01 -0.54288057286E+01  0.26129053334E-01  0.55664943412E+01  0.00000000000E+00 0.  1.
</event>
<event>
 7    1  0.5839176E-013  0.5052886E+02  0.7816164E-02  0.1300439E+00
        -11   -1    0    0    0    0  0.00000000000E+00  0.00000000000E+00  0.45593999997E+02  0.45594000000E+02  0.51100000000E-03 0. -1.
         11   -1    0    0    0    0 -0.00000000000E+00 -0.00000000000E+00 -0.45593999997E+02  0.45594000000E+02  0.51100000000E-03 0.  1.
    9900012    2    1    2    0    0  0.19615386679E+02 -0.33122700129E+02 -0.13087751254E+02  0.50528857224E+02  0.29999992018E+02 0.  0.
        -12    1    1    2    0    0 -0.19615386679E+02  0.33122700129E+02  0.13087751254E+02  0.40659142776E+02  0.00000000000E+00 0.  1.
         11    1    3    3    0    0  0.53429994690E+01 -0.56212865990E+01 -0.85010240857E+01  0.11507124624E+02  0.51100000000E-03 0.  1.
        -11    1    3    3    0    0  0.70234307205E+01 -0.11504478319E+02 -0.13713889523E+02  0.19228946060E+02  0.51100000000E-03 0. -1.
         12    1    3    3    0    0  0.72489564896E+01 -0.15996935211E+02  0.91271623548E+01  0.19792786539E+02  0.00000000000E+00 0. -1.
</event>
<event>
 7    1  0.5839176E-013  0.5052886E+02  0.7816164E-02  0.1300439E+00
        -11   -1    0    0    0    0  0.00000000000E+00  0.00000000000E+00  0.45593999997E+02  0.45594000000E+02  0.51100000000E-03 0. -1.
         11   -1    0    0    0    0 -0.00000000000E+00 -0.00000000000E+00 -0.45593999997E+02  0.45594000000E+02  0.51100000000E-03 0.  1.
    9900012    2    1    2    0    0 -0.26812318330E+02  0.28497212657E+02  0.11053255513E+02  0.50528855876E+02  0.29999987922E+02 0.  0.
        -12    1    1    2    0    0  0.26812318330E+02 -0.28497212657E+02 -0.11053255513E+02  0.40659144124E+02  0.00000000000E+00 0.  1.
         11    1    3    3    0    0  0.21338656464E+01  0.34185223880E+01 -0.18369859275E+01  0.44287916493E+01  0.51100000000E-03 0.  1.
        -11    1    3    3    0    0 -0.19624201245E+02  0.23963380591E+02  0.17570113987E+02  0.35609855232E+02  0.51100000000E-03 0. -1.
         12    1    3    3    0    0 -0.93219827311E+01  0.11153096782E+01 -0.46798725465E+01  0.10490208995E+02  0.00000000000E+00 0. -1.
</event>
<event>
 7    1  0.5839176E-013  0.5052886E+02  0.7816164E-02  0.1300439E+00
        -11   -1    0    0    0    0  0.00000000000E+00  0.00000000000E+00  0.45593999997E+02  0.45594000000E+02  0.51100000000E-03 0.  1.
         11   -1    0    0    0    0 -0.00000000000E+00 -0.00000000000E+00 -0.45593999997E+02  0.45594000000E+02  0.51100000000E-03 0. -1.
    9900012    2    1    2    0    0 -0.28116361419E+01  0.93523226554E+01 -0.39468904393E+02  0.50528860181E+02  0.30000001007E+02 0.  0.
        -12    1    1    2    0    0  0.28116361419E+01 -0.93523226554E+01  0.39468904393E+02  0.40659139819E+02  0.00000000000E+00 0.  1.
         11    1    3    3    0    0  0.42656900799E+01 -0.46328670446E+01 -0.99448843303E+01  0.11771163643E+02  0.51100000000E-03 0. -1.
        -11    1    3    3    0    0 -0.11124046837E+02  0.24387510088E+01 -0.77290606012E+01  0.13763368140E+02  0.51100000000E-03 0.  1.
        -12    1    3    3    0    0  0.40467206150E+01  0.11546438691E+02 -0.21794959461E+02  0.24994328399E+02  0.00000000000E+00 0.  1.
</event>
<event>
 7    1  0.5839176E-013  0.5052885E+02  0.7816164E-02  0.1300439E+00
        -11   -1    0    0    0    0  0.00000000000E+00  0.00000000000E+00  0.45593999997E+02  0.45594000000E+02  0.51100000000E-03 0.  1.
         11   -1    0    0    0    0 -0.00000000000E+00 -0.00000000000E+00 -0.45593999997E+02  0.45594000000E+02  0.51100000000E-03 0. -1.
    9900012    2    1    2    0    0 -0.27140185297E+02 -0.26212971043E+02 -0.15147831156E+02  0.50528852228E+02  0.29999976832E+02 0.  0.
        -12    1    1    2    0    0  0.27140185297E+02  0.26212971043E+02  0.15147831156E+02  0.40659147772E+02  0.00000000000E+00 0.  1.
         11    1    3    3    0    0 -0.65327045633E+01 -0.19550957437E+02 -0.88398637364E+01  0.22428984746E+02  0.51100000000E-03 0. -1.
        -11    1    3    3    0    0 -0.95532584373E+01 -0.11678914379E+02 -0.49750361916E+01  0.15887503681E+02  0.51100000000E-03 0.  1.
        -12    1    3    3    0    0 -0.11054222296E+02  0.50169007732E+01 -0.13329312280E+01  0.12212363801E+02  0.00000000000E+00 0.  1.
</event>
<event>
 7    1  0.5839176E-013  0.5052886E+02  0.7816164E-02  0.1300439E+00
        -11   -1    0    0    0    0  0.00000000000E+00  0.00000000000E+00  0.45593999997E+02  0.45594000000E+02  0.51100000000E-03 0. -1.
         11   -1    0    0    0    0 -0.00000000000E+00 -0.00000000000E+00 -0.45593999997E+02  0.45594000000E+02  0.51100000000E-03 0.  1.
    9900012    2    1    2    0    0  0.56357720648E+01  0.10382222050E+02  0.38905187356E+02  0.50528855091E+02  0.29999985536E+02 0.  0.
        -12    1    1    2    0    0 -0.56357720648E+01 -0.10382222050E+02 -0.38905187356E+02  0.40659144909E+02  0.00000000000E+00 0.  1.
         11    1    3    3    0    0 -0.21814022134E+01  0.32832554504E+01  0.63256371099E+01  0.74533191986E+01  0.51100000000E-03 0. -1.
        -11    1    3    3    0    0 -0.57830196539E+01  0.12116966733E+02  0.18575078770E+02  0.22919375007E+02  0.51100000000E-03 0.  1.
        -12    1    3    3    0    0  0.13600193932E+02 -0.50180001334E+01  0.14004471476E+02  0.20156160886E+02  0.00000000000E+00 0.  1.
</event>
<event>
 7    1  0.5839176E-013  0.5052886E+02  0.7816164E-02  0.1300439E+00
        -11   -1    0    0    0    0  0.00000000000E+00  0.00000000000E+00  0.45593999997E+02  0.45594000000E+02  0.51100000000E-03 0.  1.
         11   -1    0    0    0    0 -0.00000000000E+00 -0.00000000000E+00 -0.45593999997E+02  0.45594000000E+02  0.51100000000E-03 0. -1.
    9900012    2    1    2    0    0  0.28140620167E+02 -0.27436668183E+02 -0.10416361701E+02  0.50528857665E+02  0.29999993358E+02 0.  0.
        -12    1    1    2    0    0 -0.28140620167E+02  0.27436668183E+02  0.10416361701E+02  0.40659142335E+02  0.00000000000E+00 0.  1.
         11    1    3    3    0    0  0.79826150147E+00  0.20107754765E+01 -0.11414749698E+01  0.24460999181E+01  0.51100000000E-03 0. -1.
        -11    1    3    3    0    0 -0.47098578881E+01 -0.32148867672E+01 -0.34736447521E+00  0.57130482749E+01  0.51100000000E-03 0.  1.
        -12    1    3    3    0    0  0.32052216553E+02 -0.26232556892E+02 -0.89275222562E+01  0.42369709472E+02  0.00000000000E+00 0.  1.
</event>
<event>
 7    1  0.5839176E-013  0.5052886E+02  0.7816164E-02  0.1300439E+00
        -11   -1    0    0    0    0  0.00000000000E+00  0.00000000000E+00  0.45593999997E+02  0.45594000000E+02  0.51100000000E-03 0.  1.
         11   -1    0    0    0    0 -0.00000000000E+00 -0.00000000000E+00 -0.45593999997E+02  0.45594000000E+02  0.51100000000E-03 0. -1.
    9900012    2    1    2    0    0  0.31468071496E+02 -0.22239421978E+02  0.12974368592E+02  0.50528860143E+02  0.30000000891E+02 0.  0.
        -12    1    1    2    0    0 -0.31468071496E+02  0.22239421978E+02 -0.12974368592E+02  0.40659139857E+02  0.00000000000E+00 0.  1.
         11    1    3    3    0    0  0.17517830816E+02 -0.11254762505E+02  0.29657485777E+01  0.21031874392E+02  0.51100000000E-03 0. -1.
        -11    1    3    3    0    0  0.70848798613E+01 -0.15841280814E+02  0.11686571807E+02  0.20921703118E+02  0.51100000000E-03 0.  1.
        -12    1    3    3    0    0  0.68653608184E+01  0.48566213417E+01 -0.16779517936E+01  0.85752826335E+01  0.00000000000E+00 0.  1.
</event>
<event>
 7    1  0.5839176E-013  0.5052887E+02  0.7816164E-02  0.1300439E+00
        -11   -1    0    0    0    0  0.00000000000E+00  0.00000000000E+00  0.45593999997E+02  0.45594000000E+02  0.51100000000E-03 0.  1.
         11   -1    0    0    0    0 -0.00000000000E+00 -0.00000000000E+00 -0.45593999997E+02  0.45594000000E+02  0.51100000000E-03 0. -1.
    9900012    2    1    2    0    0 -0.32182605706E+02  0.11414081052E+02 -0.22071771454E+02  0.50528874931E+02  0.30000045841E+02 0.  0.
        -12    1    1    2    0    0  0.32182605706E+02 -0.11414081052E+02  0.22071771454E+02  0.40659125069E+02  0.00000000000E+00 0.  1.
         11    1    3    3    0    0  0.27472815394E+01  0.27317169468E+01 -0.18782383753E+01  0.43055328346E+01  0.51100000000E-03 0. -1.
        -11    1    3    3    0    0 -0.19519249522E+02  0.52913716409E+01  0.46358264058E+00  0.20229053979E+02  0.51100000000E-03 0.  1.
         12    1    3    3    0    0 -0.15410637723E+02  0.33909924638E+01 -0.20657115719E+02  0.25994288118E+02  0.00000000000E+00 0. -1.
</event>
<event>
 7    1  0.5839176E-013  0.5052886E+02  0.7816164E-02  0.1300439E+00
        -11   -1    0    0    0    0  0.00000000000E+00  0.00000000000E+00  0.45593999997E+02  0.45594000000E+02  0.51100000000E-03 0. -1.
         11   -1    0    0    0    0 -0.00000000000E+00 -0.00000000000E+00 -0.45593999997E+02  0.45594000000E+02  0.51100000000E-03 0.  1.
    9900012    2    1    2    0    0  0.37138368790E+02 -0.79050601870E+01  0.14540193949E+02  0.50528860154E+02  0.30000000924E+02 0.  0.
        -12    1    1    2    0    0 -0.37138368790E+02  0.79050601870E+01 -0.14540193949E+02  0.40659139846E+02  0.00000000000E+00 0.  1.
         11    1    3    3    0    0  0.28735775034E+02 -0.11620016911E+02  0.78884242316E+01  0.31984321110E+02  0.51100000000E-03 0. -1.
        -11    1    3    3    0    0  0.16584343017E+01 -0.30886715464E+01 -0.32404356977E+01  0.47739627174E+01  0.51100000000E-03 0.  1.
         12    1    3    3    0    0  0.67441594548E+01  0.68036282699E+01  0.98922054147E+01  0.13770576326E+02  0.00000000000E+00 0. -1.
</event>
<event>
 7    1  0.5839176E-013  0.5052886E+02  0.7816164E-02  0.1300439E+00
        -11   -1    0    0    0    0  0.00000000000E+00  0.00000000000E+00  0.45593999997E+02  0.45594000000E+02  0.51100000000E-03 0.  1.
         11   -1    0    0    0    0 -0.00000000000E+00 -0.00000000000E+00 -0.45593999997E+02  0.45594000000E+02  0.51100000000E-03 0. -1.
    9900012    2    1    2    0    0 -0.33187073584E+02 -0.21802683229E+02  0.87422339056E+01  0.50528862003E+02  0.30000006544E+02 0.  0.
        -12    1    1    2    0    0  0.33187073584E+02  0.21802683229E+02 -0.87422339056E+01  0.40659137997E+02  0.00000000000E+00 0.  1.
         11    1    3    3    0    0 -0.31610302150E+01 -0.63892166727E+00 -0.51559684793E+01  0.60814754902E+01  0.51100000000E-03 0. -1.
        -11    1    3    3    0    0 -0.12356946798E+02 -0.44795033793E+01  0.15220105454E+02  0.20109989930E+02  0.51100000000E-03 0.  1.
         12    1    3    3    0    0 -0.17669096570E+02 -0.16684258182E+02 -0.13219030690E+01  0.24337396582E+02  0.00000000000E+00 0. -1.
</event>
<event>
 7    1  0.5839176E-013  0.5052886E+02  0.7816164E-02  0.1300439E+00
        -11   -1    0    0    0    0  0.00000000000E+00  0.00000000000E+00  0.45593999997E+02  0.45594000000E+02  0.51100000000E-03 0.  1.
         11   -1    0    0    0    0 -0.00000000000E+00 -0.00000000000E+00 -0.45593999997E+02  0.45594000000E+02  0.51100000000E-03 0. -1.
    9900012    2    1    2    0    0  0.45800626465E+01  0.28132405118E+02 -0.28995798108E+02  0.50528862042E+02  0.30000006663E+02 0.  0.
        -12    1    1    2    0    0 -0.45800626465E+01 -0.28132405118E+02  0.28995798108E+02  0.40659137958E+02  0.00000000000E+00 0.  1.
         11    1    3    3    0    0  0.16145707900E+02  0.14252712211E+02 -0.18203852951E+02  0.28199360835E+02  0.51100000000E-03 0. -1.
        -11    1    3    3    0    0 -0.98227023297E+00 -0.32290238799E+00 -0.26324738660E+01  0.28282573573E+01  0.51100000000E-03 0.  1.
        -12    1    3    3    0    0 -0.10583375021E+02  0.14202595296E+02 -0.81594712905E+01  0.19501243850E+02  0.00000000000E+00 0.  1.
</event>
<event>
 7    1  0.5839176E-013  0.5052885E+02  0.7816164E-02  0.1300439E+00
        -11   -1    0    0    0    0  0.00000000000E+00  0.00000000000E+00  0.45593999997E+02  0.45594000000E+02  0.51100000000E-03 0.  1.
         11   -1    0    0    0    0 -0.00000000000E+00 -0.00000000000E+00 -0.45593999997E+02  0.45594000000E+02  0.51100000000E-03 0. -1.
    9900012    2    1    2    0    0 -0.13389641558E+02  0.21492732898E+02 -0.31811100041E+02  0.50528853989E+02  0.29999982186E+02 0.  0.
        -12    1    1    2    0    0  0.13389641558E+02 -0.21492732898E+02  0.31811100041E+02  0.40659146011E+02  0.00000000000E+00 0.  1.
         11    1    3    3    0    0 -0.11960952040E+02  0.73420178166E+01 -0.71736829331E+01  0.15761704426E+02  0.51100000000E-03 0. -1.
        -11    1    3    3    0    0 -0.19111274081E+00  0.45204710659E+00 -0.20355759502E+02  0.20361675173E+02  0.51100000000E-03 0.  1.
         12    1    3    3    0    0 -0.12375767774E+01  0.13698667975E+02 -0.42816576060E+01  0.14405474391E+02  0.00000000000E+00 0. -1.
</event>
<event>
 7    1  0.5839176E-013  0.5052883E+02  0.7816164E-02  0.1300439E+00
        -11   -1    0    0    0    0  0.00000000000E+00  0.00000000000E+00  0.45593999997E+02  0.45594000000E+02  0.51100000000E-03 0.  1.
         11   -1    0    0    0    0 -0.00000000000E+00 -0.00000000000E+00 -0.45593999997E+02  0.45594000000E+02  0.51100000000E-03 0. -1.
    9900012    2    1    2    0    0 -0.25783154301E+02 -0.31319770705E+02 -0.27329679204E+01  0.50528828878E+02  0.29999905857E+02 0.  0.
        -12    1    1    2    0    0  0.25783154301E+02  0.31319770705E+02  0.27329679204E+01  0.40659171122E+02  0.00000000000E+00 0.  1.
         11    1    3    3    0    0  0.24114391418E+01 -0.25405459174E+01 -0.41216785342E+01  0.54090337856E+01  0.51100000000E-03 0. -1.
        -11    1    3    3    0    0 -0.62840277104E+01 -0.20669236157E+02  0.23889401558E+01  0.21735072186E+02  0.51100000000E-03 0.  1.
         12    1    3    3    0    0 -0.21910565732E+02 -0.81099886301E+01 -0.10002295419E+01  0.23384722907E+02  0.00000000000E+00 0. -1.
</event>
<event>
 7    1  0.5839176E-013  0.5052887E+02  0.7816164E-02  0.1300439E+00
        -11   -1    0    0    0    0  0.00000000000E+00  0.00000000000E+00  0.45593999997E+02  0.45594000000E+02  0.51100000000E-03 0.  1.
         11   -1    0    0    0    0 -0.00000000000E+00 -0.00000000000E+00 -0.45593999997E+02  0.45594000000E+02  0.51100000000E-03 0. -1.
    9900012    2    1    2    0    0 -0.32855689737E+02  0.22288345020E+02  0.87691758524E+01  0.50528866746E+02  0.30000020962E+02 0.  0.
        -12    1    1    2    0    0  0.32855689737E+02 -0.22288345020E+02 -0.87691758524E+01  0.40659133254E+02  0.00000000000E+00 0.  1.
         11    1    3    3    0    0 -0.23712039664E+02  0.65350787582E+01 -0.36923106087E+01  0.24871695505E+02  0.51100000000E-03 0. -1.
        -11    1    3    3    0    0 -0.11367481106E+02  0.13930159787E+02  0.66443888149E+01  0.19168121487E+02  0.51100000000E-03 0.  1.
        -12    1    3    3    0    0  0.22238310328E+01  0.18231064750E+01  0.58170976462E+01  0.64890497538E+01  0.00000000000E+00 0.  1.
</event>
<event>
 7    1  0.5839176E-013  0.5052886E+02  0.7816164E-02  0.1300439E+00
        -11   -1    0    0    0    0  0.00000000000E+00  0.00000000000E+00  0.45593999997E+02  0.45594000000E+02  0.51100000000E-03 0.  1.
         11   -1    0    0    0    0 -0.00000000000E+00 -0.00000000000E+00 -0.45593999997E+02  0.45594000000E+02  0.51100000000E-03 0. -1.
    9900012    2    1    2    0    0 -0.30981375515E+02 -0.25559893871E+02  0.63255212258E+01  0.50528855613E+02  0.29999987123E+02 0.  0.
        -12    1    1    2    0    0  0.30981375515E+02  0.25559893871E+02 -0.63255212258E+01  0.40659144387E+02  0.00000000000E+00 0.  1.
         11    1    3    3    0    0 -0.16399350340E+01  0.16802291312E+01  0.22854775364E+01  0.32765781967E+01  0.51100000000E-03 0. -1.
        -11    1    3    3    0    0 -0.23212004493E+01 -0.69100625086E-01 -0.69994414767E+01  0.73746137302E+01  0.51100000000E-03 0.  1.
         12    1    3    3    0    0 -0.27020240032E+02 -0.27171022377E+02  0.11039485166E+02  0.39877663687E+02  0.00000000000E+00 0. -1.
</event>
<event>
 7    1  0.5839176E-013  0.5052886E+02  0.7816164E-02  0.1300439E+00
        -11   -1    0    0    0    0  0.00000000000E+00  0.00000000000E+00  0.45593999997E+02  0.45594000000E+02  0.51100000000E-03 0.  1.
         11   -1    0    0    0    0 -0.00000000000E+00 -0.00000000000E+00 -0.45593999997E+02  0.45594000000E+02  0.51100000000E-03 0. -1.
    9900012    2    1    2    0    0  0.35000238831E+02  0.16194620853E+02 -0.12879571130E+02  0.50528858158E+02  0.29999994858E+02 0.  0.
        -12    1    1    2    0    0 -0.35000238831E+02 -0.16194620853E+02  0.12879571130E+02  0.40659141842E+02  0.00000000000E+00 0.  1.
         11    1    3    3    0    0  0.12461450458E+02 -0.19085435272E+01  0.30637567036E+01  0.12973699985E+02  0.51100000000E-03 0. -1.
        -11    1    3    3    0    0  0.12257916890E+01  0.91724252491E+00 -0.92422663545E+01  0.93682115019E+01  0.51100000000E-03 0.  1.
         12    1    3    3    0    0  0.21312996685E+02  0.17185921855E+02 -0.67010614788E+01  0.28186946671E+02  0.00000000000E+00 0. -1.
</event>
<event>
 7    1  0.5839176E-013  0.5052886E+02  0.7816164E-02  0.1300439E+00
        -11   -1    0    0    0    0  0.00000000000E+00  0.00000000000E+00  0.45593999997E+02  0.45594000000E+02  0.51100000000E-03 0. -1.
         11   -1    0    0    0    0 -0.00000000000E+00 -0.00000000000E+00 -0.45593999997E+02  0.45594000000E+02  0.51100000000E-03 0.  1.
    9900012    2    1    2    0    0 -0.21688094573E+02  0.33936649260E+02  0.55764090550E+01  0.50528856537E+02  0.29999989929E+02 0.  0.
        -12    1    1    2    0    0  0.21688094573E+02 -0.33936649260E+02 -0.55764090550E+01  0.40659143463E+02  0.00000000000E+00 0.  1.
         11    1    3    3    0    0 -0.12317866169E+02  0.15336639236E+02 -0.18354775474E+01  0.19756297936E+02  0.51100000000E-03 0. -1.
        -11    1    3    3    0    0 -0.10263762428E+02  0.16981137098E+02 -0.31145691796E+01  0.20084929120E+02  0.51100000000E-03 0.  1.
         12    1    3    3    0    0  0.89353402391E+00  0.16188729255E+01  0.10526455782E+02  0.10687629481E+02  0.00000000000E+00 0. -1.
</event>
<event>
 7    1  0.5839176E-013  0.5052887E+02  0.7816164E-02  0.1300439E+00
        -11   -1    0    0    0    0  0.00000000000E+00  0.00000000000E+00  0.45593999997E+02  0.45594000000E+02  0.51100000000E-03 0. -1.
         11   -1    0    0    0    0 -0.00000000000E+00 -0.00000000000E+00 -0.45593999997E+02  0.45594000000E+02  0.51100000000E-03 0.  1.
    9900012    2    1    2    0    0 -0.37022978342E+01  0.21309884708E+02  0.34428862328E+02  0.50528871176E+02  0.30000034426E+02 0.  0.
        -12    1    1    2    0    0  0.37022978342E+01 -0.21309884708E+02 -0.34428862328E+02  0.40659128824E+02  0.00000000000E+00 0.  1.
         11    1    3    3    0    0 -0.37761659416E+01  0.79728636846E+01  0.12672180076E+02  0.15440535376E+02  0.51100000000E-03 0. -1.
        -11    1    3    3    0    0 -0.78325918511E+01  0.16398534828E+02  0.10474952849E+02  0.20975845086E+02  0.51100000000E-03 0.  1.
        -12    1    3    3    0    0  0.79064599585E+01 -0.30615138039E+01  0.11281729403E+02  0.14112490715E+02  0.00000000000E+00 0.  1.
</event>
<event>
 7    1  0.5896091E-013  0.5052886E+02  0.7816164E-02  0.1300439E+00
        -11   -1    0    0    0    0  0.00000000000E+00  0.00000000000E+00  0.45593999997E+02  0.45594000000E+02  0.51100000000E-03 0.  1.
         11   -1    0    0    0    0 -0.00000000000E+00 -0.00000000000E+00 -0.45593999997E+02  0.45594000000E+02  0.51100000000E-03 0. -1.
    9900012    2    1    2    0    0 -0.36512513216E+02 -0.11296399568E+02 -0.13870584493E+02  0.50528863527E+02  0.30000011177E+02 0.  0.
        -12    1    1    2    0    0  0.36512513216E+02  0.11296399568E+02  0.13870584493E+02  0.40659136473E+02  0.00000000000E+00 0.  1.
         11    1    3    3    0    0 -0.19024456880E+02 -0.13570829446E+02 -0.44672696451E+01  0.23791886637E+02  0.51100000000E-03 0. -1.
        -11    1    3    3    0    0 -0.11818783170E+02 -0.35850492420E+01 -0.12905869600E+02  0.17863305520E+02  0.51100000000E-03 0.  1.
        -12    1    3    3    0    0 -0.56692731666E+01  0.58594791200E+01  0.35025547525E+01  0.88736713704E+01  0.00000000000E+00 0.  1.
</event>
<event>
 7    1  0.5839176E-013  0.5052886E+02  0.7816164E-02  0.1300439E+00
        -11   -1    0    0    0    0  0.00000000000E+00  0.00000000000E+00  0.45593999997E+02  0.45594000000E+02  0.51100000000E-03 0.  1.
         11   -1    0    0    0    0 -0.00000000000E+00 -0.00000000000E+00 -0.45593999997E+02  0.45594000000E+02  0.51100000000E-03 0. -1.
    9900012    2    1    2    0    0  0.27705137464E+00  0.39456642970E+01 -0.40466286354E+02  0.50528863812E+02  0.30000012044E+02 0.  0.
        -12    1    1    2    0    0 -0.27705137464E+00 -0.39456642970E+01  0.40466286354E+02  0.40659136188E+02  0.00000000000E+00 0.  1.
         11    1    3    3    0    0  0.10564191994E+02 -0.44954511381E+01 -0.20004824229E+02  0.23065216802E+02  0.51100000000E-03 0. -1.
        -11    1    3    3    0    0  0.26355765512E+01 -0.10654924161E+00 -0.17290292743E+01  0.31539116967E+01  0.51100000000E-03 0.  1.
         12    1    3    3    0    0 -0.12922717171E+02  0.85476646767E+01 -0.18732432851E+02  0.24309735314E+02  0.00000000000E+00 0. -1.
</event>
<event>
 7    1  0.5839176E-013  0.5052886E+02  0.7816164E-02  0.1300439E+00
        -11   -1    0    0    0    0  0.00000000000E+00  0.00000000000E+00  0.45593999997E+02  0.45594000000E+02  0.51100000000E-03 0.  1.
         11   -1    0    0    0    0 -0.00000000000E+00 -0.00000000000E+00 -0.45593999997E+02  0.45594000000E+02  0.51100000000E-03 0. -1.
    9900012    2    1    2    0    0  0.21254606580E+02  0.26289695462E+02  0.22588917405E+02  0.50528861078E+02  0.30000003733E+02 0.  0.
        -12    1    1    2    0    0 -0.21254606580E+02 -0.26289695462E+02 -0.22588917405E+02  0.40659138922E+02  0.00000000000E+00 0.  1.
         11    1    3    3    0    0  0.97129404363E+01  0.85711051512E+01 -0.45537788650E+01  0.13731058140E+02  0.51100000000E-03 0.  1.
        -11    1    3    3    0    0 -0.14262847454E+01  0.32976343203E+01  0.19685578391E+00  0.35982541247E+01  0.51100000000E-03 0. -1.
         12    1    3    3    0    0  0.12967950889E+02  0.14420955990E+02  0.26945840486E+02  0.33199548813E+02  0.00000000000E+00 0. -1.
</event>
<event>
 7    1  0.5839176E-013  0.5052887E+02  0.7816164E-02  0.1300439E+00
        -11   -1    0    0    0    0  0.00000000000E+00  0.00000000000E+00  0.45593999997E+02  0.45594000000E+02  0.51100000000E-03 0. -1.
         11   -1    0    0    0    0 -0.00000000000E+00 -0.00000000000E+00 -0.45593999997E+02  0.45594000000E+02  0.51100000000E-03 0.  1.
    9900012    2    1    2    0    0 -0.22914090185E+02 -0.71800971400E+01  0.32810906549E+02  0.50528869260E+02  0.30000028603E+02 0.  0.
        -12    1    1    2    0    0  0.22914090185E+02  0.71800971400E+01 -0.32810906549E+02  0.40659130740E+02  0.00000000000E+00 0.  1.
         11    1    3    3    0    0  0.14705785108E+01  0.41911289750E+00 -0.11078927956E+01  0.18883017462E+01  0.51100000000E-03 0. -1.
        -11    1    3    3    0    0 -0.20326129178E+00  0.10885232025E+01  0.18790457753E+02  0.18823057688E+02  0.51100000000E-03 0.  1.
         12    1    3    3    0    0 -0.24181407404E+02 -0.86877332400E+01  0.15128341592E+02  0.29817509826E+02  0.00000000000E+00 0. -1.
</event>
<event>
 7    1  0.5839176E-013  0.5052886E+02  0.7816164E-02  0.1300439E+00
        -11   -1    0    0    0    0  0.00000000000E+00  0.00000000000E+00  0.45593999997E+02  0.45594000000E+02  0.51100000000E-03 0.  1.
         11   -1    0    0    0    0 -0.00000000000E+00 -0.00000000000E+00 -0.45593999997E+02  0.45594000000E+02  0.51100000000E-03 0. -1.
    9900012    2    1    2    0    0 -0.28873843735E+02 -0.25799621666E+01 -0.28509840234E+02  0.50528855309E+02  0.29999986199E+02 0.  0.
        -12    1    1    2    0    0  0.28873843735E+02  0.25799621666E+01  0.28509840234E+02  0.40659144691E+02  0.00000000000E+00 0.  1.
         11    1    3    3    0    0 -0.92655170252E+01 -0.20286464871E+01 -0.20779442623E+02  0.22841857374E+02  0.51100000000E-03 0. -1.
        -11    1    3    3    0    0 -0.18862275311E+02 -0.64422235752E+01 -0.85580093622E+01  0.21691638919E+02  0.51100000000E-03 0.  1.
        -12    1    3    3    0    0 -0.74605139841E+00  0.58909078958E+01  0.82761175080E+00  0.59953590164E+01  0.00000000000E+00 0.  1.
</event>
<event>
 7    1  0.5839176E-013  0.5052886E+02  0.7816164E-02  0.1300439E+00
        -11   -1    0    0    0    0  0.00000000000E+00  0.00000000000E+00  0.45593999997E+02  0.45594000000E+02  0.51100000000E-03 0.  1.
         11   -1    0    0    0    0 -0.00000000000E+00 -0.00000000000E+00 -0.45593999997E+02  0.45594000000E+02  0.51100000000E-03 0. -1.
    9900012    2    1    2    0    0  0.62546275433E+01  0.12317951455E+02 -0.38240204313E+02  0.50528861794E+02  0.30000005908E+02 0.  0.
        -12    1    1    2    0    0 -0.62546275433E+01 -0.12317951455E+02  0.38240204313E+02  0.40659138206E+02  0.00000000000E+00 0.  1.
         11    1    3    3    0    0 -0.60186827780E+01  0.27443446414E+01 -0.13473435705E+02  0.15009644895E+02  0.51100000000E-03 0.  1.
        -11    1    3    3    0    0 -0.35579297422E+01  0.80477684288E+01 -0.49039685943E+01  0.10073447720E+02  0.51100000000E-03 0. -1.
         12    1    3    3    0    0  0.15831240063E+02  0.15258383850E+01 -0.19862800014E+02  0.25445769179E+02  0.00000000000E+00 0. -1.
</event>
<event>
 7    1  0.5839176E-013  0.5052886E+02  0.7816164E-02  0.1300439E+00
        -11   -1    0    0    0    0  0.00000000000E+00  0.00000000000E+00  0.45593999997E+02  0.45594000000E+02  0.51100000000E-03 0.  1.
         11   -1    0    0    0    0 -0.00000000000E+00 -0.00000000000E+00 -0.45593999997E+02  0.45594000000E+02  0.51100000000E-03 0. -1.
    9900012    2    1    2    0    0  0.21699821390E+02 -0.21757084343E+01 -0.34315442521E+02  0.50528861409E+02  0.30000004739E+02 0.  0.
        -12    1    1    2    0    0 -0.21699821390E+02  0.21757084343E+01  0.34315442521E+02  0.40659138591E+02  0.00000000000E+00 0.  1.
         11    1    3    3    0    0  0.22053324405E+02 -0.83903605492E+01 -0.18264898152E+02  0.29838796427E+02  0.51100000000E-03 0. -1.
        -11    1    3    3    0    0  0.38150219403E+01 -0.68347707023E+00 -0.17024341879E+01  0.42331803335E+01  0.51100000000E-03 0.  1.
         12    1    3    3    0    0 -0.41685249552E+01  0.68981291851E+01 -0.14348110181E+02  0.16456884648E+02  0.00000000000E+00 0. -1.
</event>
<event>
 7    1  0.6546791E-013  0.5052883E+02  0.7816164E-02  0.1300439E+00
        -11   -1    0    0    0    0  0.00000000000E+00  0.00000000000E+00  0.45593999997E+02  0.45594000000E+02  0.51100000000E-03 0.  1.
         11   -1    0    0    0    0 -0.00000000000E+00 -0.00000000000E+00 -0.45593999997E+02  0.45594000000E+02  0.51100000000E-03 0. -1.
    9900012    2    1    2    0    0 -0.87363894900E+01  0.39397833901E+02  0.49652979054E+01  0.50528831284E+02  0.29999913170E+02 0.  0.
        -12    1    1    2    0    0  0.87363894900E+01 -0.39397833901E+02 -0.49652979054E+01  0.40659168716E+02  0.00000000000E+00 0.  1.
         11    1    3    3    0    0 -0.46361053190E+01  0.23248466779E+02  0.23096144667E+01  0.23818459214E+02  0.51100000000E-03 0. -1.
        -11    1    3    3    0    0  0.15174840993E+01  0.17432931112E+02 -0.39554324917E+01  0.17940325850E+02  0.51100000000E-03 0.  1.
        -12    1    3    3    0    0 -0.56177682703E+01 -0.12835639894E+01  0.66111159304E+01  0.87700462198E+01  0.00000000000E+00 0.  1.
</event>
<event>
 7    1  0.5839176E-013  0.5052886E+02  0.7816164E-02  0.1300439E+00
        -11   -1    0    0    0    0  0.00000000000E+00  0.00000000000E+00  0.45593999997E+02  0.45594000000E+02  0.51100000000E-03 0.  1.
         11   -1    0    0    0    0 -0.00000000000E+00 -0.00000000000E+00 -0.45593999997E+02  0.45594000000E+02  0.51100000000E-03 0. -1.
    9900012    2    1    2    0    0  0.78100330735E+01  0.93953586611E+01 -0.38780101765E+02  0.50528859897E+02  0.30000000143E+02 0.  0.
        -12    1    1    2    0    0 -0.78100330735E+01 -0.93953586611E+01  0.38780101765E+02  0.40659140103E+02  0.00000000000E+00 0.  1.
         11    1    3    3    0    0  0.30912140539E+01  0.51658274565E+01 -0.11090208273E+02  0.12618799366E+02  0.51100000000E-03 0. -1.
        -11    1    3    3    0    0  0.14524113288E+02  0.57939774593E+01 -0.19785082507E+02  0.25218436345E+02  0.51100000000E-03 0.  1.
        -12    1    3    3    0    0 -0.98052942684E+01 -0.15644462546E+01 -0.79048109853E+01  0.12691624186E+02  0.00000000000E+00 0.  1.
</event>
<event>
 7    1  0.5839176E-013  0.5052885E+02  0.7816164E-02  0.1300439E+00
        -11   -1    0    0    0    0  0.00000000000E+00  0.00000000000E+00  0.45593999997E+02  0.45594000000E+02  0.51100000000E-03 0. -1.
         11   -1    0    0    0    0 -0.00000000000E+00 -0.00000000000E+00 -0.45593999997E+02  0.45594000000E+02  0.51100000000E-03 0.  1.
    9900012    2    1    2    0    0  0.29559904351E+02  0.27333965868E+02  0.56773906957E+01  0.50528850962E+02  0.29999972985E+02 0.  0.
        -12    1    1    2    0    0 -0.29559904351E+02 -0.27333965868E+02 -0.56773906957E+01  0.40659149038E+02  0.00000000000E+00 0.  1.
         11    1    3    3    0    0 -0.32763652164E+01 -0.29690709302E+01  0.18609182633E+01  0.47971833677E+01  0.51100000000E-03 0. -1.
        -11    1    3    3    0    0  0.27997764688E+01  0.29547554334E+01 -0.22634570276E+01  0.46575278768E+01  0.51100000000E-03 0.  1.
        -12    1    3    3    0    0  0.30036493099E+02  0.27348281365E+02  0.60799294600E+01  0.41074139718E+02  0.00000000000E+00 0.  1.
</event>
<event>
 7    1  0.5839176E-013  0.5052885E+02  0.7816164E-02  0.1300439E+00
        -11   -1    0    0    0    0  0.00000000000E+00  0.00000000000E+00  0.45593999997E+02  0.45594000000E+02  0.51100000000E-03 0.  1.
         11   -1    0    0    0    0 -0.00000000000E+00 -0.00000000000E+00 -0.45593999997E+02  0.45594000000E+02  0.51100000000E-03 0. -1.
    9900012    2    1    2    0    0 -0.15248087587E+02  0.25631778139E+02 -0.27634657738E+02  0.50528849321E+02  0.29999967996E+02 0.  0.
        -12    1    1    2    0    0  0.15248087587E+02 -0.25631778139E+02  0.27634657738E+02  0.40659150679E+02  0.00000000000E+00 0.  1.
         11    1    3    3    0    0 -0.48832284809E+01  0.40151124815E+01 -0.11901625757E+02  0.13476488584E+02  0.51100000000E-03 0. -1.
        -11    1    3    3    0    0 -0.13709712315E+02  0.64519840271E+01 -0.15276586577E+02  0.21516468283E+02  0.51100000000E-03 0.  1.
         12    1    3    3    0    0  0.33448532086E+01  0.15164681631E+02 -0.45644540410E+00  0.15535892454E+02  0.00000000000E+00 0. -1.
</event>
<event>
 7    1  0.5839176E-013  0.5052887E+02  0.7816164E-02  0.1300439E+00
        -11   -1    0    0    0    0  0.00000000000E+00  0.00000000000E+00  0.45593999997E+02  0.45594000000E+02  0.51100000000E-03 0. -1.
         11   -1    0    0    0    0 -0.00000000000E+00 -0.00000000000E+00 -0.45593999997E+02  0.45594000000E+02  0.51100000000E-03 0.  1.
    9900012    2    1    2    0    0  0.34023665631E+02  0.22242131501E+02  0.91801037514E+00  0.50528868434E+02  0.30000026091E+02 0.  0.
        -12    1    1    2    0    0 -0.34023665631E+02 -0.22242131501E+02 -0.91801037514E+00  0.40659131566E+02  0.00000000000E+00 0.  1.
         11    1    3    3    0    0  0.23645136996E+02  0.12534162461E+02  0.11818726215E+02  0.29255427219E+02  0.51100000000E-03 0. -1.
        -11    1    3    3    0    0  0.89292906857E+01  0.50071019580E+00 -0.55723725844E+01  0.10537280452E+02  0.51100000000E-03 0.  1.
        -12    1    3    3    0    0  0.14492379492E+01  0.92072588444E+01 -0.53283432555E+01  0.10736160762E+02  0.00000000000E+00 0.  1.
</event>
<event>
 7    1  0.5839176E-013  0.5052886E+02  0.7816164E-02  0.1300439E+00
        -11   -1    0    0    0    0  0.00000000000E+00  0.00000000000E+00  0.45593999997E+02  0.45594000000E+02  0.51100000000E-03 0.  1.
         11   -1    0    0    0    0 -0.00000000000E+00 -0.00000000000E+00 -0.45593999997E+02  0.45594000000E+02  0.51100000000E-03 0. -1.
    9900012    2    1    2    0    0  0.17308271013E+01  0.18298387239E+02 -0.36267600808E+02  0.50528860728E+02  0.30000002668E+02 0.  0.
        -12    1    1    2    0    0 -0.17308271013E+01 -0.18298387239E+02  0.36267600808E+02  0.40659139272E+02  0.00000000000E+00 0.  1.
         11    1    3    3    0    0 -0.10244882548E+02  0.30560619227E+01 -0.33592946312E+01  0.11206337206E+02  0.51100000000E-03 0. -1.
        -11    1    3    3    0    0  0.28800851119E+01  0.36054807975E+01 -0.16998834348E+02  0.17614049832E+02  0.51100000000E-03 0.  1.
        -12    1    3    3    0    0  0.90956245370E+01  0.11636844519E+02 -0.15909471829E+02  0.21708473690E+02  0.00000000000E+00 0.  1.
</event>
<event>
 7    1  0.5839176E-013  0.5052885E+02  0.7816164E-02  0.1300439E+00
        -11   -1    0    0    0    0  0.00000000000E+00  0.00000000000E+00  0.45593999997E+02  0.45594000000E+02  0.51100000000E-03 0.  1.
         11   -1    0    0    0    0 -0.00000000000E+00 -0.00000000000E+00 -0.45593999997E+02  0.45594000000E+02  0.51100000000E-03 0. -1.
    9900012    2    1    2    0    0  0.16422071851E+02  0.29926916731E+02 -0.22087582301E+02  0.50528854894E+02  0.29999984936E+02 0.  0.
        -12    1    1    2    0    0 -0.16422071851E+02 -0.29926916731E+02  0.22087582301E+02  0.40659145106E+02  0.00000000000E+00 0.  1.
         11    1    3    3    0    0  0.16165957242E+02  0.61149759901E+01 -0.13734940997E+02  0.22076677951E+02  0.51100000000E-03 0. -1.
        -11    1    3    3    0    0 -0.28902704636E+00  0.52023360935E+01  0.35954010663E+01  0.63304617961E+01  0.51100000000E-03 0.  1.
        -12    1    3    3    0    0  0.54514165458E+00  0.18609604647E+02 -0.11948042370E+02  0.22121715146E+02  0.00000000000E+00 0.  1.
</event>
<event>
 7    1  0.5839176E-013  0.5052886E+02  0.7816164E-02  0.1300439E+00
        -11   -1    0    0    0    0  0.00000000000E+00  0.00000000000E+00  0.45593999997E+02  0.45594000000E+02  0.51100000000E-03 0. -1.
         11   -1    0    0    0    0 -0.00000000000E+00 -0.00000000000E+00 -0.45593999997E+02  0.45594000000E+02  0.51100000000E-03 0.  1.
    9900012    2    1    2    0    0  0.64681609141E+01 -0.15727288448E+02  0.36932111399E+02  0.50528861299E+02  0.30000004405E+02 0.  0.
        -12    1    1    2    0    0 -0.64681609141E+01  0.15727288448E+02 -0.36932111399E+02  0.40659138701E+02  0.00000000000E+00 0.  1.
         11    1    3    3    0    0  0.32944070375E+01  0.27006495834E+00  0.10917901853E+01  0.34811002399E+01  0.51100000000E-03 0. -1.
        -11    1    3    3    0    0  0.10852540714E+02  0.10713510230E+01  0.81020629185E+01  0.13585612123E+02  0.51100000000E-03 0.  1.
         12    1    3    3    0    0 -0.76787868372E+01 -0.17068704429E+02  0.27738258295E+02  0.33462148936E+02  0.00000000000E+00 0. -1.
</event>
<event>
 7    1  0.5839176E-013  0.5052880E+02  0.7816164E-02  0.1300439E+00
        -11   -1    0    0    0    0  0.00000000000E+00  0.00000000000E+00  0.45593999997E+02  0.45594000000E+02  0.51100000000E-03 0.  1.
         11   -1    0    0    0    0 -0.00000000000E+00 -0.00000000000E+00 -0.45593999997E+02  0.45594000000E+02  0.51100000000E-03 0. -1.
    9900012    2    1    2    0    0 -0.42146583188E+01  0.27966566420E+02 -0.29210923319E+02  0.50528803953E+02  0.29999830094E+02 0.  0.
        -12    1    1    2    0    0  0.42146583188E+01 -0.27966566420E+02  0.29210923319E+02  0.40659196047E+02  0.00000000000E+00 0.  1.
         11    1    3    3    0    0  0.30209559143E+01  0.73175323286E+01 -0.25217635438E+01  0.83085345066E+01  0.51100000000E-03 0. -1.
        -11    1    3    3    0    0  0.39122769652E+00 -0.22158799973E+01  0.31443283123E+01  0.38665209258E+01  0.51100000000E-03 0.  1.
         12    1    3    3    0    0 -0.76268419296E+01  0.22864914088E+02 -0.29833488088E+02  0.38353748520E+02  0.00000000000E+00 0. -1.
</event>
<event>
 7    1  0.5839176E-013  0.5052886E+02  0.7816164E-02  0.1300439E+00
        -11   -1    0    0    0    0  0.00000000000E+00  0.00000000000E+00  0.45593999997E+02  0.45594000000E+02  0.51100000000E-03 0.  1.
         11   -1    0    0    0    0 -0.00000000000E+00 -0.00000000000E+00 -0.45593999997E+02  0.45594000000E+02  0.51100000000E-03 0. -1.
    9900012    2    1    2    0    0  0.27002243134E+02 -0.61576373372E+00 -0.30391860423E+02  0.50528862291E+02  0.30000007420E+02 0.  0.
        -12    1    1    2    0    0 -0.27002243134E+02  0.61576373372E+00  0.30391860423E+02  0.40659137709E+02  0.00000000000E+00 0.  1.
         11    1    3    3    0    0  0.36806832880E+01 -0.40679536950E+01 -0.99477146701E+01  0.11360136625E+02  0.51100000000E-03 0. -1.
        -11    1    3    3    0    0  0.13608820369E+02 -0.31936834598E+01 -0.23196102307E+02  0.27082443915E+02  0.51100000000E-03 0.  1.
        -12    1    3    3    0    0  0.97127394774E+01  0.66458734211E+01  0.27519565544E+01  0.12086281751E+02  0.00000000000E+00 0.  1.
</event>
<event>
 7    1  0.5839176E-013  0.5052885E+02  0.7816164E-02  0.1300439E+00
        -11   -1    0    0    0    0  0.00000000000E+00  0.00000000000E+00  0.45593999997E+02  0.45594000000E+02  0.51100000000E-03 0.  1.
         11   -1    0    0    0    0 -0.00000000000E+00 -0.00000000000E+00 -0.45593999997E+02  0.45594000000E+02  0.51100000000E-03 0. -1.
    9900012    2    1    2    0    0 -0.38249405606E+02 -0.10415973925E+02 -0.90364095929E+01  0.50528852931E+02  0.29999978970E+02 0.  0.
        -12    1    1    2    0    0  0.38249405606E+02  0.10415973925E+02  0.90364095929E+01  0.40659147069E+02  0.00000000000E+00 0.  1.
         11    1    3    3    0    0 -0.26345968820E+01 -0.45027390536E+01  0.56777358901E+01  0.77105411493E+01  0.51100000000E-03 0. -1.
        -11    1    3    3    0    0 -0.13458695166E+02 -0.22962126304E+01  0.32867081723E+01  0.14043201874E+02  0.51100000000E-03 0.  1.
        -12    1    3    3    0    0 -0.22156113558E+02 -0.36170222408E+01 -0.18000853655E+02  0.28775109908E+02  0.00000000000E+00 0.  1.
</event>
<event>
 7    1  0.5839176E-013  0.5052886E+02  0.7816164E-02  0.1300439E+00
        -11   -1    0    0    0    0  0.00000000000E+00  0.00000000000E+00  0.45593999997E+02  0.45594000000E+02  0.51100000000E-03 0. -1.
         11   -1    0    0    0    0 -0.00000000000E+00 -0.00000000000E+00 -0.45593999997E+02  0.45594000000E+02  0.51100000000E-03 0.  1.
    9900012    2    1    2    0    0 -0.13138135250E+02  0.21422161769E+02  0.31963203935E+02  0.50528855660E+02  0.29999987263E+02 0.  0.
        -12    1    1    2    0    0  0.13138135250E+02 -0.21422161769E+02 -0.31963203935E+02  0.40659144340E+02  0.00000000000E+00 0.  1.
         11    1    3    3    0    0 -0.23672623374E+01  0.59787301332E+01  0.39080877696E+01  0.75247787512E+01  0.51100000000E-03 0. -1.
        -11    1    3    3    0    0 -0.54657853239E+01  0.20353937673E+02  0.28854080678E+02  0.35731156713E+02  0.51100000000E-03 0.  1.
        -12    1    3    3    0    0 -0.53050875888E+01 -0.49105060374E+01 -0.79896451300E+00  0.72729201949E+01  0.00000000000E+00 0.  1.
</event>
<event>
 7    1  0.5839176E-013  0.5052886E+02  0.7816164E-02  0.1300439E+00
        -11   -1    0    0    0    0  0.00000000000E+00  0.00000000000E+00  0.45593999997E+02  0.45594000000E+02  0.51100000000E-03 0.  1.
         11   -1    0    0    0    0 -0.00000000000E+00 -0.00000000000E+00 -0.45593999997E+02  0.45594000000E+02  0.51100000000E-03 0. -1.
    9900012    2    1    2    0    0  0.55615149542E+01  0.39878148478E+02 -0.56541018746E+01  0.50528855362E+02  0.29999986359E+02 0.  0.
        -12    1    1    2    0    0 -0.55615149542E+01 -0.39878148478E+02  0.56541018746E+01  0.40659144638E+02  0.00000000000E+00 0.  1.
         11    1    3    3    0    0  0.78346669445E+01  0.17007612960E+01 -0.27837539685E+01  0.84866884906E+01  0.51100000000E-03 0. -1.
        -11    1    3    3    0    0  0.20203033182E+01  0.54047466046E+01 -0.66151871912E+01  0.87780187511E+01  0.51100000000E-03 0.  1.
        -12    1    3    3    0    0 -0.42934553084E+01  0.32772640578E+02  0.37448392851E+01  0.33264148121E+02  0.00000000000E+00 0.  1.
</event>
<event>
 7    1  0.5839176E-013  0.5052886E+02  0.7816164E-02  0.1300439E+00
        -11   -1    0    0    0    0  0.00000000000E+00  0.00000000000E+00  0.45593999997E+02  0.45594000000E+02  0.51100000000E-03 0.  1.
         11   -1    0    0    0    0 -0.00000000000E+00 -0.00000000000E+00 -0.45593999997E+02  0.45594000000E+02  0.51100000000E-03 0. -1.
    9900012    2    1    2    0    0 -0.94293197376E+01  0.38174650184E+02  0.10341656423E+02  0.50528857794E+02  0.29999993750E+02 0.  0.
        -12    1    1    2    0    0  0.94293197376E+01 -0.38174650184E+02 -0.10341656423E+02  0.40659142206E+02  0.00000000000E+00 0.  1.
         11    1    3    3    0    0 -0.82106191264E+01  0.32995507113E+01  0.15408053749E+01  0.89819476061E+01  0.51100000000E-03 0. -1.
        -11    1    3    3    0    0 -0.33014312011E+01  0.26908762844E-01  0.55861266677E+01  0.64888352934E+01  0.51100000000E-03 0.  1.
         12    1    3    3    0    0  0.20827305898E+01  0.34848190710E+02  0.32147243801E+01  0.35058074894E+02  0.00000000000E+00 0. -1.
</event>
<event>
 7    1  0.5839176E-013  0.5052886E+02  0.7816164E-02  0.1300439E+00
        -11   -1    0    0    0    0  0.00000000000E+00  0.00000000000E+00  0.45593999997E+02  0.45594000000E+02  0.51100000000E-03 0. -1.
         11   -1    0    0    0    0 -0.00000000000E+00 -0.00000000000E+00 -0.45593999997E+02  0.45594000000E+02  0.51100000000E-03 0.  1.
    9900012    2    1    2    0    0 -0.23009343017E+02  0.24299779589E+02 -0.23092353588E+02  0.50528856522E+02  0.29999989883E+02 0.  0.
        -12    1    1    2    0    0  0.23009343017E+02 -0.24299779589E+02  0.23092353588E+02  0.40659143478E+02  0.00000000000E+00 0.  1.
         11    1    3    3    0    0 -0.14836835450E+02  0.21890060420E+01 -0.16293222229E+02  0.22144808071E+02  0.51100000000E-03 0.  1.
        -11    1    3    3    0    0  0.12732092069E+00  0.21812713847E+00  0.29944864095E+01  0.30051188302E+01  0.51100000000E-03 0. -1.
         12    1    3    3    0    0 -0.82998284877E+01  0.21892646408E+02 -0.97936177694E+01  0.25378929621E+02  0.00000000000E+00 0. -1.
</event>
<event>
 7    1  0.5839176E-013  0.5052886E+02  0.7816164E-02  0.1300439E+00
        -11   -1    0    0    0    0  0.00000000000E+00  0.00000000000E+00  0.45593999997E+02  0.45594000000E+02  0.51100000000E-03 0.  1.
         11   -1    0    0    0    0 -0.00000000000E+00 -0.00000000000E+00 -0.45593999997E+02  0.45594000000E+02  0.51100000000E-03 0. -1.
    9900012    2    1    2    0    0  0.24078220189E+02  0.32609256458E+02 -0.31687989443E+01  0.50528861040E+02  0.30000003617E+02 0.  0.
        -12    1    1    2    0    0 -0.24078220189E+02 -0.32609256458E+02  0.31687989443E+01  0.40659138960E+02  0.00000000000E+00 0.  1.
         11    1    3    3    0    0  0.46500789970E+01  0.22223133231E+02 -0.64214055614E+01  0.23595027758E+02  0.51100000000E-03 0. -1.
        -11    1    3    3    0    0  0.13327155416E+02  0.56505725138E+01 -0.52952689593E+01  0.15413692446E+02  0.51100000000E-03 0.  1.
        -12    1    3    3    0    0  0.61009857765E+01  0.47355507134E+01  0.85478755764E+01  0.11520140836E+02  0.00000000000E+00 0.  1.
</event>
<event>
 7    1  0.5839176E-013  0.5052887E+02  0.7816164E-02  0.1300439E+00
        -11   -1    0    0    0    0  0.00000000000E+00  0.00000000000E+00  0.45593999997E+02  0.45594000000E+02  0.51100000000E-03 0.  1.
         11   -1    0    0    0    0 -0.00000000000E+00 -0.00000000000E+00 -0.45593999997E+02  0.45594000000E+02  0.51100000000E-03 0. -1.
    9900012    2    1    2    0    0 -0.10239897959E+02 -0.24247502225E+02 -0.30989801711E+02  0.50528872065E+02  0.30000037129E+02 0.  0.
        -12    1    1    2    0    0  0.10239897959E+02  0.24247502225E+02  0.30989801711E+02  0.40659127935E+02  0.00000000000E+00 0.  1.
         11    1    3    3    0    0 -0.31854310114E+01 -0.15908154340E+02 -0.19719329306E+02  0.25535627930E+02  0.51100000000E-03 0. -1.
        -11    1    3    3    0    0 -0.89363377234E+01 -0.11767726249E+02 -0.19738623613E+01  0.14907503006E+02  0.51100000000E-03 0.  1.
         12    1    3    3    0    0  0.18818707756E+01  0.34283783650E+01 -0.92966100434E+01  0.10085741129E+02  0.00000000000E+00 0. -1.
</event>
<event>
 7    1  0.5839176E-013  0.5052886E+02  0.7816164E-02  0.1300439E+00
        -11   -1    0    0    0    0  0.00000000000E+00  0.00000000000E+00  0.45593999997E+02  0.45594000000E+02  0.51100000000E-03 0.  1.
         11   -1    0    0    0    0 -0.00000000000E+00 -0.00000000000E+00 -0.45593999997E+02  0.45594000000E+02  0.51100000000E-03 0. -1.
    9900012    2    1    2    0    0 -0.24296510859E+02 -0.26549900632E+02 -0.18919508276E+02  0.50528862566E+02  0.30000008256E+02 0.  0.
        -12    1    1    2    0    0  0.24296510859E+02  0.26549900632E+02  0.18919508276E+02  0.40659137434E+02  0.00000000000E+00 0.  1.
         11    1    3    3    0    0 -0.41191959667E+01 -0.72125157096E+01  0.38242408116E+01  0.91440131408E+01  0.51100000000E-03 0. -1.
        -11    1    3    3    0    0 -0.11908055222E+01  0.33222835470E+01 -0.71221071184E+01  0.79485845171E+01  0.51100000000E-03 0.  1.
         12    1    3    3    0    0 -0.18986509370E+02 -0.22659668469E+02 -0.15621641969E+02  0.33436264908E+02  0.00000000000E+00 0. -1.
</event>
<event>
 7    1  0.5839176E-013  0.5052885E+02  0.7816164E-02  0.1300439E+00
        -11   -1    0    0    0    0  0.00000000000E+00  0.00000000000E+00  0.45593999997E+02  0.45594000000E+02  0.51100000000E-03 0. -1.
         11   -1    0    0    0    0 -0.00000000000E+00 -0.00000000000E+00 -0.45593999997E+02  0.45594000000E+02  0.51100000000E-03 0.  1.
    9900012    2    1    2    0    0  0.54808940277E+01  0.40280177010E+02 -0.79592924442E+00  0.50528851427E+02  0.29999974398E+02 0.  0.
        -12    1    1    2    0    0 -0.54808940277E+01 -0.40280177010E+02  0.79592924442E+00  0.40659148573E+02  0.00000000000E+00 0.  1.
         11    1    3    3    0    0 -0.54180017292E+01  0.40436185454E+01  0.22619268960E+00  0.67643741080E+01  0.51100000000E-03 0. -1.
        -11    1    3    3    0    0  0.91676314516E+01  0.67654393044E+01  0.67415463956E+01  0.13238771978E+02  0.51100000000E-03 0.  1.
         12    1    3    3    0    0  0.17312643053E+01  0.29471119160E+02 -0.77636683296E+01  0.30525705341E+02  0.00000000000E+00 0. -1.
</event>
<event>
 7    1  0.5839176E-013  0.5052886E+02  0.7816164E-02  0.1300439E+00
        -11   -1    0    0    0    0  0.00000000000E+00  0.00000000000E+00  0.45593999997E+02  0.45594000000E+02  0.51100000000E-03 0.  1.
         11   -1    0    0    0    0 -0.00000000000E+00 -0.00000000000E+00 -0.45593999997E+02  0.45594000000E+02  0.51100000000E-03 0. -1.
    9900012    2    1    2    0    0 -0.32352635116E+02  0.24188892308E+02 -0.46228120788E+01  0.50528857097E+02  0.29999991633E+02 0.  0.
        -12    1    1    2    0    0  0.32352635116E+02 -0.24188892308E+02  0.46228120788E+01  0.40659142903E+02  0.00000000000E+00 0.  1.
         11    1    3    3    0    0 -0.66506409533E+01  0.12774093939E+02 -0.80203086480E+01  0.16484351735E+02  0.51100000000E-03 0. -1.
        -11    1    3    3    0    0 -0.10418028102E+02  0.13867748489E+02 -0.24094886011E+01  0.17511578834E+02  0.51100000000E-03 0.  1.
        -12    1    3    3    0    0 -0.15283966060E+02 -0.24529501193E+01  0.58069851702E+01  0.16532926528E+02  0.00000000000E+00 0.  1.
</event>
<event>
 7    1  0.5839176E-013  0.5052885E+02  0.7816164E-02  0.1300439E+00
        -11   -1    0    0    0    0  0.00000000000E+00  0.00000000000E+00  0.45593999997E+02  0.45594000000E+02  0.51100000000E-03 0.  1.
         11   -1    0    0    0    0 -0.00000000000E+00 -0.00000000000E+00 -0.45593999997E+02  0.45594000000E+02  0.51100000000E-03 0. -1.
    9900012    2    1    2    0    0 -0.25534691351E+02  0.30997217155E+02 -0.63497114308E+01  0.50528846430E+02  0.29999959209E+02 0.  0.
        -12    1    1    2    0    0  0.25534691351E+02 -0.30997217155E+02  0.63497114308E+01  0.40659153570E+02  0.00000000000E+00 0.  1.
         11    1    3    3    0    0 -0.12291787475E+02  0.29515054546E+02 -0.11223261175E+02  0.33884924020E+02  0.51100000000E-03 0. -1.
        -11    1    3    3    0    0 -0.96188662484E+00 -0.20724964651E+01 -0.10956877653E+01  0.25339691034E+01  0.51100000000E-03 0.  1.
        -12    1    3    3    0    0 -0.12281017252E+02  0.35546590738E+01  0.59692375094E+01  0.14109953307E+02  0.00000000000E+00 0.  1.
</event>
<event>
 7    1  0.5839176E-013  0.5052886E+02  0.7816164E-02  0.1300439E+00
        -11   -1    0    0    0    0  0.00000000000E+00  0.00000000000E+00  0.45593999997E+02  0.45594000000E+02  0.51100000000E-03 0.  1.
         11   -1    0    0    0    0 -0.00000000000E+00 -0.00000000000E+00 -0.45593999997E+02  0.45594000000E+02  0.51100000000E-03 0. -1.
    9900012    2    1    2    0    0 -0.76820905429E+01  0.24197525527E+01 -0.39853427392E+02  0.50528863359E+02  0.30000010665E+02 0.  0.
        -12    1    1    2    0    0  0.76820905429E+01 -0.24197525527E+01  0.39853427392E+02  0.40659136641E+02  0.00000000000E+00 0.  1.
         11    1    3    3    0    0  0.29917007347E+01  0.60811284091E+01 -0.17640706326E+02  0.18897748965E+02  0.51100000000E-03 0. -1.
        -11    1    3    3    0    0 -0.24565588261E+01 -0.81292672082E+01 -0.20409115985E+02  0.22105467246E+02  0.51100000000E-03 0.  1.
        -12    1    3    3    0    0 -0.82172324514E+01  0.44678913518E+01 -0.18036050814E+01  0.95256471477E+01  0.00000000000E+00 0.  1.
</event>
<event>
 7    1  0.5839176E-013  0.5052886E+02  0.7816164E-02  0.1300439E+00
        -11   -1    0    0    0    0  0.00000000000E+00  0.00000000000E+00  0.45593999997E+02  0.45594000000E+02  0.51100000000E-03 0.  1.
         11   -1    0    0    0    0 -0.00000000000E+00 -0.00000000000E+00 -0.45593999997E+02  0.45594000000E+02  0.51100000000E-03 0. -1.
    9900012    2    1    2    0    0  0.39069263300E+02  0.36910463100E+01 -0.10636482947E+02  0.50528856783E+02  0.29999990676E+02 0.  0.
        -12    1    1    2    0    0 -0.39069263300E+02 -0.36910463100E+01  0.10636482947E+02  0.40659143217E+02  0.00000000000E+00 0.  1.
         11    1    3    3    0    0  0.23133223209E+02  0.11479603490E+02 -0.20082082213E+01  0.25902899700E+02  0.51100000000E-03 0. -1.
        -11    1    3    3    0    0  0.19992510617E+01  0.15906785124E+01 -0.73466471136E+01  0.77782058992E+01  0.51100000000E-03 0.  1.
         12    1    3    3    0    0  0.13936789029E+02 -0.93792356920E+01 -0.12816276127E+01  0.16847751184E+02  0.00000000000E+00 0. -1.
</event>
<event>
 7    1  0.5839176E-013  0.5052886E+02  0.7816164E-02  0.1300439E+00
        -11   -1    0    0    0    0  0.00000000000E+00  0.00000000000E+00  0.45593999997E+02  0.45594000000E+02  0.51100000000E-03 0. -1.
         11   -1    0    0    0    0 -0.00000000000E+00 -0.00000000000E+00 -0.45593999997E+02  0.45594000000E+02  0.51100000000E-03 0.  1.
    9900012    2    1    2    0    0 -0.11765343214E+02 -0.38915843970E+02 -0.54704303451E+00  0.50528862418E+02  0.30000007805E+02 0.  0.
        -12    1    1    2    0    0  0.11765343214E+02  0.38915843970E+02  0.54704303451E+00  0.40659137582E+02  0.00000000000E+00 0.  1.
         11    1    3    3    0    0  0.17188896425E+01 -0.13306820497E+02  0.78004580377E+01  0.15520090181E+02  0.51100000000E-03 0. -1.
        -11    1    3    3    0    0  0.22896342651E+01 -0.10445893985E+01 -0.50344850673E+01  0.56284662416E+01  0.51100000000E-03 0.  1.
        -12    1    3    3    0    0 -0.15773867121E+02 -0.24564434074E+02 -0.33130160049E+01  0.29380305996E+02  0.00000000000E+00 0.  1.
</event>
<event>
 7    1  0.5839176E-013  0.5052886E+02  0.7816164E-02  0.1300439E+00
        -11   -1    0    0    0    0  0.00000000000E+00  0.00000000000E+00  0.45593999997E+02  0.45594000000E+02  0.51100000000E-03 0. -1.
         11   -1    0    0    0    0 -0.00000000000E+00 -0.00000000000E+00 -0.45593999997E+02  0.45594000000E+02  0.51100000000E-03 0.  1.
    9900012    2    1    2    0    0 -0.23020078671E+02 -0.32669933694E+02  0.74777673536E+01  0.50528860877E+02  0.30000003122E+02 0.  0.
        -12    1    1    2    0    0  0.23020078671E+02  0.32669933694E+02 -0.74777673536E+01  0.40659139123E+02  0.00000000000E+00 0.  1.
         11    1    3    3    0    0 -0.57088326724E+01 -0.76066668569E+01  0.61057645675E+01  0.11301880922E+02  0.51100000000E-03 0. -1.
        -11    1    3    3    0    0 -0.16688993463E+02 -0.15096513761E+02  0.11268596639E+02  0.25167608170E+02  0.51100000000E-03 0.  1.
        -12    1    3    3    0    0 -0.62225253587E+00 -0.99667530770E+01 -0.98965938526E+01  0.14059371785E+02  0.00000000000E+00 0.  1.
</event>
<event>
 7    1  0.5839176E-013  0.5052887E+02  0.7816164E-02  0.1300439E+00
        -11   -1    0    0    0    0  0.00000000000E+00  0.00000000000E+00  0.45593999997E+02  0.45594000000E+02  0.51100000000E-03 0. -1.
         11   -1    0    0    0    0 -0.00000000000E+00 -0.00000000000E+00 -0.45593999997E+02  0.45594000000E+02  0.51100000000E-03 0.  1.
    9900012    2    1    2    0    0 -0.11728673159E+02 -0.16724076860E+02  0.35155489964E+02  0.50528868240E+02  0.30000025502E+02 0.  0.
        -12    1    1    2    0    0  0.11728673159E+02  0.16724076860E+02 -0.35155489964E+02  0.40659131760E+02  0.00000000000E+00 0.  1.
         11    1    3    3    0    0  0.47402266822E+01 -0.96878434812E+01  0.24379177753E+02  0.26658363950E+02  0.51100000000E-03 0. -1.
        -11    1    3    3    0    0  0.57460052427E+00  0.11780751546E+00 -0.15474106580E+01  0.16548487480E+01  0.51100000000E-03 0.  1.
        -12    1    3    3    0    0 -0.17043500366E+02 -0.71540408943E+01  0.12323722869E+02  0.22215655542E+02  0.00000000000E+00 0.  1.
</event>
<event>
 7    1  0.5839176E-013  0.5052887E+02  0.7816164E-02  0.1300439E+00
        -11   -1    0    0    0    0  0.00000000000E+00  0.00000000000E+00  0.45593999997E+02  0.45594000000E+02  0.51100000000E-03 0.  1.
         11   -1    0    0    0    0 -0.00000000000E+00 -0.00000000000E+00 -0.45593999997E+02  0.45594000000E+02  0.51100000000E-03 0. -1.
    9900012    2    1    2    0    0  0.55355543315E+01  0.56072501838E+01 -0.39888361415E+02  0.50528868273E+02  0.30000025603E+02 0.  0.
        -12    1    1    2    0    0 -0.55355543315E+01 -0.56072501838E+01  0.39888361415E+02  0.40659131727E+02  0.00000000000E+00 0.  1.
         11    1    3    3    0    0 -0.19119336272E+01  0.29682302789E+01 -0.21816453335E+02  0.22100305825E+02  0.51100000000E-03 0.  1.
        -11    1    3    3    0    0 -0.18169945959E+01 -0.24359741011E+01 -0.17593775938E+02  0.17854310157E+02  0.51100000000E-03 0. -1.
        -12    1    3    3    0    0  0.92644825546E+01  0.50749940061E+01 -0.47813214282E+00  0.10574252291E+02  0.00000000000E+00 0.  1.
</event>
<event>
 7    1  0.5839176E-013  0.5052886E+02  0.7816164E-02  0.1300439E+00
        -11   -1    0    0    0    0  0.00000000000E+00  0.00000000000E+00  0.45593999997E+02  0.45594000000E+02  0.51100000000E-03 0.  1.
         11   -1    0    0    0    0 -0.00000000000E+00 -0.00000000000E+00 -0.45593999997E+02  0.45594000000E+02  0.51100000000E-03 0. -1.
    9900012    2    1    2    0    0 -0.85608494575E+01  0.13799217179E+02 -0.37275450905E+02  0.50528858613E+02  0.29999996241E+02 0.  0.
        -12    1    1    2    0    0  0.85608494575E+01 -0.13799217179E+02  0.37275450905E+02  0.40659141387E+02  0.00000000000E+00 0.  1.
         11    1    3    3    0    0 -0.10974477990E+02  0.65424351758E+00 -0.66089715471E+01  0.12827537055E+02  0.51100000000E-03 0. -1.
        -11    1    3    3    0    0 -0.47185954961E+01 -0.16244593532E+01 -0.11098086966E+02  0.12168465236E+02  0.51100000000E-03 0.  1.
        -12    1    3    3    0    0  0.71322240283E+01  0.14769433014E+02 -0.19568392391E+02  0.25532856322E+02  0.00000000000E+00 0.  1.
</event>
<event>
 7    1  0.5839176E-013  0.5052889E+02  0.7816164E-02  0.1300439E+00
        -11   -1    0    0    0    0  0.00000000000E+00  0.00000000000E+00  0.45593999997E+02  0.45594000000E+02  0.51100000000E-03 0.  1.
         11   -1    0    0    0    0 -0.00000000000E+00 -0.00000000000E+00 -0.45593999997E+02  0.45594000000E+02  0.51100000000E-03 0. -1.
    9900012    2    1    2    0    0 -0.35244333098E+02 -0.14732115703E+02 -0.13927139860E+02  0.50528886959E+02  0.30000082400E+02 0.  0.
        -12    1    1    2    0    0  0.35244333098E+02  0.14732115703E+02  0.13927139860E+02  0.40659113041E+02  0.00000000000E+00 0.  1.
         11    1    3    3    0    0 -0.16421916473E+02 -0.14105761114E+02 -0.39767211594E+01  0.22010591738E+02  0.51100000000E-03 0. -1.
        -11    1    3    3    0    0  0.38503560980E+01 -0.11627803451E+01 -0.19454302936E+01  0.44678853500E+01  0.51100000000E-03 0.  1.
         12    1    3    3    0    0 -0.22672772723E+02  0.53642575582E+00 -0.80049884073E+01  0.24050409871E+02  0.00000000000E+00 0. -1.
</event>
<event>
 7    1  0.5839176E-013  0.5052886E+02  0.7816164E-02  0.1300439E+00
        -11   -1    0    0    0    0  0.00000000000E+00  0.00000000000E+00  0.45593999997E+02  0.45594000000E+02  0.51100000000E-03 0. -1.
         11   -1    0    0    0    0 -0.00000000000E+00 -0.00000000000E+00 -0.45593999997E+02  0.45594000000E+02  0.51100000000E-03 0.  1.
    9900012    2    1    2    0    0 -0.38167771996E+02  0.10761682040E+02  0.89762415729E+01  0.50528861639E+02  0.30000005437E+02 0.  0.
        -12    1    1    2    0    0  0.38167771996E+02 -0.10761682040E+02 -0.89762415729E+01  0.40659138361E+02  0.00000000000E+00 0.  1.
         11    1    3    3    0    0 -0.45972788889E+01  0.10730156472E+01  0.11253223128E+02  0.12203334249E+02  0.51100000000E-03 0. -1.
        -11    1    3    3    0    0 -0.16944288906E+02  0.19310331567E+01 -0.83647516263E+01  0.18994917362E+02  0.51100000000E-03 0.  1.
         12    1    3    3    0    0 -0.16626204202E+02  0.77576332366E+01  0.60877700711E+01  0.19330610027E+02  0.00000000000E+00 0. -1.
</event>
<event>
 7    1  0.5839176E-013  0.5052886E+02  0.7816164E-02  0.1300439E+00
        -11   -1    0    0    0    0  0.00000000000E+00  0.00000000000E+00  0.45593999997E+02  0.45594000000E+02  0.51100000000E-03 0.  1.
         11   -1    0    0    0    0 -0.00000000000E+00 -0.00000000000E+00 -0.45593999997E+02  0.45594000000E+02  0.51100000000E-03 0. -1.
    9900012    2    1    2    0    0  0.38327812131E+02 -0.51700031522E+01 -0.12546544019E+02  0.50528857336E+02  0.29999992358E+02 0.  0.
        -12    1    1    2    0    0 -0.38327812131E+02  0.51700031522E+01  0.12546544019E+02  0.40659142664E+02  0.00000000000E+00 0.  1.
         11    1    3    3    0    0  0.30803618797E+01 -0.36343053150E+01 -0.28825188009E+01  0.55682779502E+01  0.51100000000E-03 0. -1.
        -11    1    3    3    0    0  0.56004530818E+00 -0.50855043354E+01  0.49818096005E+01  0.71410385974E+01  0.51100000000E-03 0.  1.
         12    1    3    3    0    0  0.34687404943E+02  0.35498064982E+01 -0.14645834819E+02  0.37819540788E+02  0.00000000000E+00 0. -1.
</event>
<event>
 7    1  0.5839176E-013  0.5052886E+02  0.7816164E-02  0.1300439E+00
        -11   -1    0    0    0    0  0.00000000000E+00  0.00000000000E+00  0.45593999997E+02  0.45594000000E+02  0.51100000000E-03 0.  1.
         11   -1    0    0    0    0 -0.00000000000E+00 -0.00000000000E+00 -0.45593999997E+02  0.45594000000E+02  0.51100000000E-03 0. -1.
    9900012    2    1    2    0    0 -0.13485510436E+02 -0.16926116469E+02 -0.34421111750E+02  0.50528863947E+02  0.30000012455E+02 0.  0.
        -12    1    1    2    0    0  0.13485510436E+02  0.16926116469E+02  0.34421111750E+02  0.40659136053E+02  0.00000000000E+00 0.  1.
         11    1    3    3    0    0 -0.24379142600E+01 -0.30091734655E+01 -0.26240557905E+02  0.26524807828E+02  0.51100000000E-03 0. -1.
        -11    1    3    3    0    0 -0.19824278896E+01 -0.12153444490E+02 -0.81538013936E+01  0.14768910276E+02  0.51100000000E-03 0.  1.
        -12    1    3    3    0    0 -0.90651682861E+01 -0.17634985129E+01 -0.26752451729E-01  0.92351458437E+01  0.00000000000E+00 0.  1.
</event>
<event>
 7    1  0.5839176E-013  0.5052886E+02  0.7816164E-02  0.1300439E+00
        -11   -1    0    0    0    0  0.00000000000E+00  0.00000000000E+00  0.45593999997E+02  0.45594000000E+02  0.51100000000E-03 0. -1.
         11   -1    0    0    0    0 -0.00000000000E+00 -0.00000000000E+00 -0.45593999997E+02  0.45594000000E+02  0.51100000000E-03 0.  1.
    9900012    2    1    2    0    0  0.25601956741E+02 -0.27818053967E+02  0.14961984152E+02  0.50528864677E+02  0.30000014672E+02 0.  0.
        -12    1    1    2    0    0 -0.25601956741E+02  0.27818053967E+02 -0.14961984152E+02  0.40659135323E+02  0.00000000000E+00 0.  1.
         11    1    3    3    0    0  0.26016630155E+01 -0.77205585122E+01  0.13324906307E+02  0.15618220210E+02  0.51100000000E-03 0. -1.
        -11    1    3    3    0    0  0.23658732885E+01 -0.11303746449E+02  0.42995604593E+01  0.12323078373E+02  0.51100000000E-03 0.  1.
        -12    1    3    3    0    0  0.20634420437E+02 -0.87937490056E+01 -0.26624826143E+01  0.22587566093E+02  0.00000000000E+00 0.  1.
</event>
<event>
 7    1  0.5839176E-013  0.5052886E+02  0.7816164E-02  0.1300439E+00
        -11   -1    0    0    0    0  0.00000000000E+00  0.00000000000E+00  0.45593999997E+02  0.45594000000E+02  0.51100000000E-03 0. -1.
         11   -1    0    0    0    0 -0.00000000000E+00 -0.00000000000E+00 -0.45593999997E+02  0.45594000000E+02  0.51100000000E-03 0.  1.
    9900012    2    1    2    0    0  0.53307606122E+01  0.38757211720E+02  0.11073712138E+02  0.50528861180E+02  0.30000004044E+02 0.  0.
        -12    1    1    2    0    0 -0.53307606122E+01 -0.38757211720E+02 -0.11073712138E+02  0.40659138820E+02  0.00000000000E+00 0.  1.
         11    1    3    3    0    0 -0.14345548384E+01  0.20008941539E+01  0.27129194287E+01  0.36635306860E+01  0.51100000000E-03 0. -1.
        -11    1    3    3    0    0  0.84064887729E+00  0.29027939901E+01 -0.81826325366E+01  0.87228652961E+01  0.51100000000E-03 0.  1.
        -12    1    3    3    0    0  0.59246665733E+01  0.33853523576E+02  0.16543425246E+02  0.38142465198E+02  0.00000000000E+00 0.  1.
</event>
<event>
 7    1  0.5839176E-013  0.5052886E+02  0.7816164E-02  0.1300439E+00
        -11   -1    0    0    0    0  0.00000000000E+00  0.00000000000E+00  0.45593999997E+02  0.45594000000E+02  0.51100000000E-03 0. -1.
         11   -1    0    0    0    0 -0.00000000000E+00 -0.00000000000E+00 -0.45593999997E+02  0.45594000000E+02  0.51100000000E-03 0.  1.
    9900012    2    1    2    0    0  0.14892427058E+01 -0.34553271880E+02 -0.21378006648E+02  0.50528860687E+02  0.30000002545E+02 0.  0.
        -12    1    1    2    0    0 -0.14892427058E+01  0.34553271880E+02  0.21378006648E+02  0.40659139313E+02  0.00000000000E+00 0.  1.
         11    1    3    3    0    0  0.24051946247E+01 -0.11240445170E+02 -0.37002055976E+01  0.12075764594E+02  0.51100000000E-03 0. -1.
        -11    1    3    3    0    0 -0.91566845868E+01 -0.22886820560E+02 -0.84138324692E+01  0.26046957693E+02  0.51100000000E-03 0.  1.
        -12    1    3    3    0    0  0.82407326679E+01 -0.42600614974E+00 -0.92639685808E+01  0.12406138400E+02  0.00000000000E+00 0.  1.
</event>
<event>
 7    1  0.6927552E-013  0.5052885E+02  0.7816164E-02  0.1300439E+00
        -11   -1    0    0    0    0  0.00000000000E+00  0.00000000000E+00  0.45593999997E+02  0.45594000000E+02  0.51100000000E-03 0. -1.
         11   -1    0    0    0    0 -0.00000000000E+00 -0.00000000000E+00 -0.45593999997E+02  0.45594000000E+02  0.51100000000E-03 0.  1.
    9900012    2    1    2    0    0  0.11722589666E+02 -0.34610735383E+02  0.17828192171E+02  0.50528849144E+02  0.29999967459E+02 0.  0.
        -12    1    1    2    0    0 -0.11722589666E+02  0.34610735383E+02 -0.17828192171E+02  0.40659150856E+02  0.00000000000E+00 0.  1.
         11    1    3    3    0    0  0.13333441059E+02 -0.32087781060E+02  0.15251738162E+02  0.37947619966E+02  0.51100000000E-03 0. -1.
        -11    1    3    3    0    0  0.38301846419E+01 -0.87603811326E+00 -0.27461010622E+01  0.47936237307E+01  0.51100000000E-03 0.  1.
        -12    1    3    3    0    0 -0.54410360352E+01 -0.16469162101E+01  0.53225550703E+01  0.77876054481E+01  0.00000000000E+00 0.  1.
</event>
<event>
 7    1  0.5839176E-013  0.5052886E+02  0.7816164E-02  0.1300439E+00
        -11   -1    0    0    0    0  0.00000000000E+00  0.00000000000E+00  0.45593999997E+02  0.45594000000E+02  0.51100000000E-03 0.  1.
         11   -1    0    0    0    0 -0.00000000000E+00 -0.00000000000E+00 -0.45593999997E+02  0.45594000000E+02  0.51100000000E-03 0. -1.
    9900012    2    1    2    0    0 -0.60823754458E+01 -0.41362736968E+01 -0.39988266253E+02  0.50528862170E+02  0.30000007051E+02 0.  0.
        -12    1    1    2    0    0  0.60823754458E+01  0.41362736968E+01  0.39988266253E+02  0.40659137830E+02  0.00000000000E+00 0.  1.
         11    1    3    3    0    0  0.50501117063E+01  0.12993190922E+01 -0.11442796518E+02  0.12574953310E+02  0.51100000000E-03 0. -1.
        -11    1    3    3    0    0  0.55229481712E+01 -0.60011794675E+01 -0.11662935104E+02  0.14231695858E+02  0.51100000000E-03 0.  1.
        -12    1    3    3    0    0 -0.16655435323E+02  0.56558667850E+00 -0.16882534632E+02  0.23722213002E+02  0.00000000000E+00 0.  1.
</event>
<event>
 7    1  0.5839176E-013  0.5052890E+02  0.7816164E-02  0.1300439E+00
        -11   -1    0    0    0    0  0.00000000000E+00  0.00000000000E+00  0.45593999997E+02  0.45594000000E+02  0.51100000000E-03 0.  1.
         11   -1    0    0    0    0 -0.00000000000E+00 -0.00000000000E+00 -0.45593999997E+02  0.45594000000E+02  0.51100000000E-03 0. -1.
    9900012    2    1    2    0    0  0.19211345333E+02 -0.87896131162E+01 -0.34739447737E+02  0.50528901175E+02  0.30000125610E+02 0.  0.
        -12    1    1    2    0    0 -0.19211345333E+02  0.87896131162E+01  0.34739447737E+02  0.40659098825E+02  0.00000000000E+00 0.  1.
         11    1    3    3    0    0  0.60902713589E+01  0.76036556491E-01 -0.66514918667E+01  0.90188431130E+01  0.51100000000E-03 0. -1.
        -11    1    3    3    0    0 -0.15585344618E+00  0.65860860192E+01 -0.17183132934E+02  0.18402741019E+02  0.51100000000E-03 0.  1.
        -12    1    3    3    0    0  0.13276927420E+02 -0.15451735692E+02 -0.10904822937E+02  0.23107317042E+02  0.00000000000E+00 0.  1.
</event>
<event>
 7    1  0.5839176E-013  0.5052887E+02  0.7816164E-02  0.1300439E+00
        -11   -1    0    0    0    0  0.00000000000E+00  0.00000000000E+00  0.45593999997E+02  0.45594000000E+02  0.51100000000E-03 0. -1.
         11   -1    0    0    0    0 -0.00000000000E+00 -0.00000000000E+00 -0.45593999997E+02  0.45594000000E+02  0.51100000000E-03 0.  1.
    9900012    2    1    2    0    0 -0.39828698552E+02  0.73854187046E+01 -0.35064757064E+01  0.50528868065E+02  0.30000024972E+02 0.  0.
        -12    1    1    2    0    0  0.39828698552E+02 -0.73854187046E+01  0.35064757064E+01  0.40659131935E+02  0.00000000000E+00 0.  1.
         11    1    3    3    0    0 -0.15053000654E+02 -0.28196491272E+01  0.92359724577E+01  0.17884251099E+02  0.51100000000E-03 0. -1.
        -11    1    3    3    0    0 -0.68789036356E+01 -0.12058851404E+01  0.14221810649E+01  0.71271364124E+01  0.51100000000E-03 0.  1.
        -12    1    3    3    0    0 -0.17896794263E+02  0.11410952972E+02 -0.14164629229E+02  0.25517480554E+02  0.00000000000E+00 0.  1.
</event>
<event>
 7    1  0.5839176E-013  0.5052884E+02  0.7816164E-02  0.1300439E+00
        -11   -1    0    0    0    0  0.00000000000E+00  0.00000000000E+00  0.45593999997E+02  0.45594000000E+02  0.51100000000E-03 0.  1.
         11   -1    0    0    0    0 -0.00000000000E+00 -0.00000000000E+00 -0.45593999997E+02  0.45594000000E+02  0.51100000000E-03 0. -1.
    9900012    2    1    2    0    0  0.14362203664E+02  0.37961030724E+02 -0.24195427969E+01  0.50528844388E+02  0.29999953003E+02 0.  0.
        -12    1    1    2    0    0 -0.14362203664E+02 -0.37961030724E+02  0.24195427969E+01  0.40659155612E+02  0.00000000000E+00 0.  1.
         11    1    3    3    0    0 -0.33813673246E+01  0.23439169758E+02  0.22170245942E+01  0.23785363614E+02  0.51100000000E-03 0. -1.
        -11    1    3    3    0    0  0.52401143694E+01  0.12139037538E+02 -0.74006619967E-01  0.13221970662E+02  0.51100000000E-03 0.  1.
        -12    1    3    3    0    0  0.12503456620E+02  0.23828234278E+01 -0.45625607712E+01  0.13521510112E+02  0.00000000000E+00 0.  1.
</event>
<event>
 7    1  0.5839176E-013  0.5052885E+02  0.7816164E-02  0.1300439E+00
        -11   -1    0    0    0    0  0.00000000000E+00  0.00000000000E+00  0.45593999997E+02  0.45594000000E+02  0.51100000000E-03 0.  1.
         11   -1    0    0    0    0 -0.00000000000E+00 -0.00000000000E+00 -0.45593999997E+02  0.45594000000E+02  0.51100000000E-03 0. -1.
    9900012    2    1    2    0    0 -0.21493300644E+02 -0.10662180440E+02 -0.32825640118E+02  0.50528847113E+02  0.29999961285E+02 0.  0.
        -12    1    1    2    0    0  0.21493300644E+02  0.10662180440E+02  0.32825640118E+02  0.40659152887E+02  0.00000000000E+00 0.  1.
         11    1    3    3    0    0 -0.58575198043E+01  0.56100747782E+01 -0.18737305798E+02  0.20417397143E+02  0.51100000000E-03 0. -1.
        -11    1    3    3    0    0 -0.20040065411E+01  0.26091359686E+01 -0.22626249886E+01  0.39928817688E+01  0.51100000000E-03 0.  1.
         12    1    3    3    0    0 -0.13631774299E+02 -0.18881391186E+02 -0.11825709332E+02  0.26118568201E+02  0.00000000000E+00 0. -1.
</event>
<event>
 7    1  0.5839176E-013  0.5052894E+02  0.7816164E-02  0.1300439E+00
        -11   -1    0    0    0    0  0.00000000000E+00  0.00000000000E+00  0.45593999997E+02  0.45594000000E+02  0.51100000000E-03 0.  1.
         11   -1    0    0    0    0 -0.00000000000E+00 -0.00000000000E+00 -0.45593999997E+02  0.45594000000E+02  0.51100000000E-03 0. -1.
    9900012    2    1    2    0    0  0.20967135928E+02  0.28971447941E+02 -0.19344081591E+02  0.50528941017E+02  0.30000246714E+02 0.  0.
        -12    1    1    2    0    0 -0.20967135928E+02 -0.28971447941E+02  0.19344081591E+02  0.40659058983E+02  0.00000000000E+00 0.  1.
         11    1    3    3    0    0  0.32654188896E+01 -0.40611638555E+01 -0.11229449491E+01  0.53307614845E+01  0.51100000000E-03 0. -1.
        -11    1    3    3    0    0  0.57213600266E+01  0.18367471560E+01  0.17618688228E+01  0.62619312260E+01  0.51100000000E-03 0.  1.
        -12    1    3    3    0    0  0.11980357012E+02  0.31195864640E+02 -0.19983005465E+02  0.38936248306E+02  0.00000000000E+00 0.  1.
</event>
<event>
 7    1  0.5839176E-013  0.5052886E+02  0.7816164E-02  0.1300439E+00
        -11   -1    0    0    0    0  0.00000000000E+00  0.00000000000E+00  0.45593999997E+02  0.45594000000E+02  0.51100000000E-03 0. -1.
         11   -1    0    0    0    0 -0.00000000000E+00 -0.00000000000E+00 -0.45593999997E+02  0.45594000000E+02  0.51100000000E-03 0.  1.
    9900012    2    1    2    0    0  0.11256675179E+02 -0.38246383415E+02  0.79791769911E+01  0.50528857782E+02  0.29999993715E+02 0.  0.
        -12    1    1    2    0    0 -0.11256675179E+02  0.38246383415E+02 -0.79791769911E+01  0.40659142218E+02  0.00000000000E+00 0.  1.
         11    1    3    3    0    0  0.41132768731E+01 -0.18539274795E+02  0.11206061108E+02  0.22049933387E+02  0.51100000000E-03 0. -1.
        -11    1    3    3    0    0 -0.12774827739E+01 -0.19832562246E+02 -0.22446634640E+01  0.20000025045E+02  0.51100000000E-03 0.  1.
        -12    1    3    3    0    0  0.84208810798E+01  0.12545362592E+00 -0.98222065269E+00  0.84788993497E+01  0.00000000000E+00 0.  1.
</event>
<event>
 7    1  0.5839176E-013  0.5052886E+02  0.7816164E-02  0.1300439E+00
        -11   -1    0    0    0    0  0.00000000000E+00  0.00000000000E+00  0.45593999997E+02  0.45594000000E+02  0.51100000000E-03 0. -1.
         11   -1    0    0    0    0 -0.00000000000E+00 -0.00000000000E+00 -0.45593999997E+02  0.45594000000E+02  0.51100000000E-03 0.  1.
    9900012    2    1    2    0    0 -0.34556245815E+02 -0.10371860580E+02  0.18747167789E+02  0.50528856910E+02  0.29999991063E+02 0.  0.
        -12    1    1    2    0    0  0.34556245815E+02  0.10371860580E+02 -0.18747167789E+02  0.40659143090E+02  0.00000000000E+00 0.  1.
         11    1    3    3    0    0 -0.15138056219E+02 -0.58387178524E+01  0.95314385732E+00  0.16252995284E+02  0.51100000000E-03 0. -1.
        -11    1    3    3    0    0 -0.22763645043E+01  0.58453713784E+01 -0.15091786562E+01  0.64519626770E+01  0.51100000000E-03 0.  1.
         12    1    3    3    0    0 -0.17141825092E+02 -0.10378514106E+02  0.19303202588E+02  0.27823898948E+02  0.00000000000E+00 0. -1.
</event>
<event>
 7    1  0.5839176E-013  0.5052885E+02  0.7816164E-02  0.1300439E+00
        -11   -1    0    0    0    0  0.00000000000E+00  0.00000000000E+00  0.45593999997E+02  0.45594000000E+02  0.51100000000E-03 0.  1.
         11   -1    0    0    0    0 -0.00000000000E+00 -0.00000000000E+00 -0.45593999997E+02  0.45594000000E+02  0.51100000000E-03 0. -1.
    9900012    2    1    2    0    0 -0.94718827306E+01  0.26674629963E+02 -0.29187572268E+02  0.50528845791E+02  0.29999957265E+02 0.  0.
        -12    1    1    2    0    0  0.94718827306E+01 -0.26674629963E+02  0.29187572268E+02  0.40659154209E+02  0.00000000000E+00 0.  1.
         11    1    3    3    0    0  0.42128604432E+01  0.22904923327E+01 -0.54661296090E+01  0.72713906101E+01  0.51100000000E-03 0. -1.
        -11    1    3    3    0    0 -0.43695384418E+00 -0.37469708557E+01 -0.70007399235E+01  0.79524259816E+01  0.51100000000E-03 0.  1.
        -12    1    3    3    0    0 -0.13247789330E+02  0.28131108486E+02 -0.16720702736E+02  0.35305029199E+02  0.00000000000E+00 0.  1.
</event>
<event>
 7    1  0.5839176E-013  0.5052886E+02  0.7816164E-02  0.1300439E+00
        -11   -1    0    0    0    0  0.00000000000E+00  0.00000000000E+00  0.45593999997E+02  0.45594000000E+02  0.51100000000E-03 0.  1.
         11   -1    0    0    0    0 -0.00000000000E+00 -0.00000000000E+00 -0.45593999997E+02  0.45594000000E+02  0.51100000000E-03 0. -1.
    9900012    2    1    2    0    0 -0.16270131847E+02  0.23646117805E+01 -0.37186789844E+02  0.50528856894E+02  0.29999991016E+02 0.  0.
        -12    1    1    2    0    0  0.16270131847E+02 -0.23646117805E+01  0.37186789844E+02  0.40659143106E+02  0.00000000000E+00 0.  1.
         11    1    3    3    0    0  0.25389257285E+01 -0.98524768650E+00 -0.15607518963E+02  0.15843342618E+02  0.51100000000E-03 0. -1.
        -11    1    3    3    0    0  0.37135984299E+01  0.12979249294E+01 -0.88886085816E+00  0.40330504965E+01  0.51100000000E-03 0.  1.
         12    1    3    3    0    0 -0.22522656005E+02  0.20519345376E+01 -0.20690410023E+02  0.30652463780E+02  0.00000000000E+00 0. -1.
</event>
<event>
 7    1  0.5839176E-013  0.5052885E+02  0.7816164E-02  0.1300439E+00
        -11   -1    0    0    0    0  0.00000000000E+00  0.00000000000E+00  0.45593999997E+02  0.45594000000E+02  0.51100000000E-03 0. -1.
         11   -1    0    0    0    0 -0.00000000000E+00 -0.00000000000E+00 -0.45593999997E+02  0.45594000000E+02  0.51100000000E-03 0.  1.
    9900012    2    1    2    0    0 -0.20612475426E+02  0.15875535487E+02  0.31245156466E+02  0.50528848844E+02  0.29999966546E+02 0.  0.
        -12    1    1    2    0    0  0.20612475426E+02 -0.15875535487E+02 -0.31245156466E+02  0.40659151156E+02  0.00000000000E+00 0.  1.
         11    1    3    3    0    0 -0.15475820967E+02  0.14979298833E+01  0.20343565068E+02  0.25604793857E+02  0.51100000000E-03 0. -1.
        -11    1    3    3    0    0 -0.69683645723E+01  0.53160198242E+01  0.12773772861E+02  0.15491528167E+02  0.51100000000E-03 0.  1.
        -12    1    3    3    0    0  0.18317101133E+01  0.90615857794E+01 -0.18721814634E+01  0.94325268199E+01  0.00000000000E+00 0.  1.
</event>
<event>
 7    1  0.5839176E-013  0.5052886E+02  0.7816164E-02  0.1300439E+00
        -11   -1    0    0    0    0  0.00000000000E+00  0.00000000000E+00  0.45593999997E+02  0.45594000000E+02  0.51100000000E-03 0.  1.
         11   -1    0    0    0    0 -0.00000000000E+00 -0.00000000000E+00 -0.45593999997E+02  0.45594000000E+02  0.51100000000E-03 0. -1.
    9900012    2    1    2    0    0 -0.23983014523E+01 -0.37380287573E+02 -0.15815423119E+02  0.50528863790E+02  0.30000011977E+02 0.  0.
        -12    1    1    2    0    0  0.23983014523E+01  0.37380287573E+02  0.15815423119E+02  0.40659136210E+02  0.00000000000E+00 0.  1.
         11    1    3    3    0    0 -0.12573449255E+02 -0.18914836148E+02 -0.87898063889E+01  0.24354123866E+02  0.51100000000E-03 0. -1.
        -11    1    3    3    0    0 -0.29485954432E+01 -0.23248071900E+01 -0.33859036220E+01  0.50560149482E+01  0.51100000000E-03 0.  1.
         12    1    3    3    0    0  0.13123743246E+02 -0.16140644235E+02 -0.36397131078E+01  0.21118724976E+02  0.00000000000E+00 0. -1.
</event>
<event>
 7    1  0.5839176E-013  0.5052886E+02  0.7816164E-02  0.1300439E+00
        -11   -1    0    0    0    0  0.00000000000E+00  0.00000000000E+00  0.45593999997E+02  0.45594000000E+02  0.51100000000E-03 0.  1.
         11   -1    0    0    0    0 -0.00000000000E+00 -0.00000000000E+00 -0.45593999997E+02  0.45594000000E+02  0.51100000000E-03 0. -1.
    9900012    2    1    2    0    0 -0.35613968300E+02  0.45791482297E+01  0.19074652789E+02  0.50528859385E+02  0.29999998586E+02 0.  0.
        -12    1    1    2    0    0  0.35613968300E+02 -0.45791482297E+01 -0.19074652789E+02  0.40659140615E+02  0.00000000000E+00 0.  1.
         11    1    3    3    0    0 -0.12419089521E+02  0.29478965707E+01  0.17342220286E+02  0.21533148479E+02  0.51100000000E-03 0. -1.
        -11    1    3    3    0    0 -0.62546935665E+01  0.40894168572E+00  0.86285020698E+01  0.10664870986E+02  0.51100000000E-03 0.  1.
         12    1    3    3    0    0 -0.16940185213E+02  0.12223099733E+01 -0.68960695667E+01  0.18330839920E+02  0.00000000000E+00 0. -1.
</event>
<event>
 7    1  0.5839176E-013  0.5052885E+02  0.7816164E-02  0.1300439E+00
        -11   -1    0    0    0    0  0.00000000000E+00  0.00000000000E+00  0.45593999997E+02  0.45594000000E+02  0.51100000000E-03 0. -1.
         11   -1    0    0    0    0 -0.00000000000E+00 -0.00000000000E+00 -0.45593999997E+02  0.45594000000E+02  0.51100000000E-03 0.  1.
    9900012    2    1    2    0    0  0.11191474954E+02 -0.38460263993E+02 -0.69803421994E+01  0.50528853486E+02  0.29999980655E+02 0.  0.
        -12    1    1    2    0    0 -0.11191474954E+02  0.38460263993E+02  0.69803421994E+01  0.40659146514E+02  0.00000000000E+00 0.  1.
         11    1    3    3    0    0  0.16084754333E+02 -0.21765755825E+02 -0.65203345853E+00  0.27071989149E+02  0.51100000000E-03 0. -1.
        -11    1    3    3    0    0 -0.16208557718E+01 -0.10204876870E+01  0.39777333294E+01  0.44148534804E+01  0.51100000000E-03 0.  1.
        -12    1    3    3    0    0 -0.32724236068E+01 -0.15674020481E+02 -0.10306042070E+02  0.19042010856E+02  0.00000000000E+00 0.  1.
</event>
<event>
 7    1  0.5839176E-013  0.5052886E+02  0.7816164E-02  0.1300439E+00
        -11   -1    0    0    0    0  0.00000000000E+00  0.00000000000E+00  0.45593999997E+02  0.45594000000E+02  0.51100000000E-03 0. -1.
         11   -1    0    0    0    0 -0.00000000000E+00 -0.00000000000E+00 -0.45593999997E+02  0.45594000000E+02  0.51100000000E-03 0.  1.
    9900012    2    1    2    0    0 -0.10651249932E+02  0.34592135348E+02  0.18522974574E+02  0.50528861542E+02  0.30000005142E+02 0.  0.
        -12    1    1    2    0    0  0.10651249932E+02 -0.34592135348E+02 -0.18522974574E+02  0.40659138458E+02  0.00000000000E+00 0.  1.
         11    1    3    3    0    0 -0.11360104464E+01  0.58808214895E+01  0.10226131754E+02  0.11851090753E+02  0.51100000000E-03 0. -1.
        -11    1    3    3    0    0  0.25100739662E+01  0.57508921987E+01  0.10953080630E+02  0.12623121957E+02  0.51100000000E-03 0.  1.
        -12    1    3    3    0    0 -0.12025313452E+02  0.22960421660E+02 -0.26562378097E+01  0.26054648832E+02  0.00000000000E+00 0.  1.
</event>
<event>
 7    1  0.5839176E-013  0.5052887E+02  0.7816164E-02  0.1300439E+00
        -11   -1    0    0    0    0  0.00000000000E+00  0.00000000000E+00  0.45593999997E+02  0.45594000000E+02  0.51100000000E-03 0. -1.
         11   -1    0    0    0    0 -0.00000000000E+00 -0.00000000000E+00 -0.45593999997E+02  0.45594000000E+02  0.51100000000E-03 0.  1.
    9900012    2    1    2    0    0  0.26751009765E+02  0.67241477271E+00  0.30612030118E+02  0.50528867533E+02  0.30000023353E+02 0.  0.
        -12    1    1    2    0    0 -0.26751009765E+02 -0.67241477271E+00 -0.30612030118E+02  0.40659132467E+02  0.00000000000E+00 0.  1.
         11    1    3    3    0    0  0.19019362102E+02 -0.11731070734E+01  0.31742894477E+02  0.37023285443E+02  0.51100000000E-03 0. -1.
        -11    1    3    3    0    0  0.51409056413E+01 -0.17699229017E+01  0.39742087662E+01  0.67346769388E+01  0.51100000000E-03 0.  1.
        -12    1    3    3    0    0  0.25907420217E+01  0.36154447479E+01 -0.51050731256E+01  0.67709051511E+01  0.00000000000E+00 0.  1.
</event>
<event>
 7    1  0.5839176E-013  0.5052886E+02  0.7816164E-02  0.1300439E+00
        -11   -1    0    0    0    0  0.00000000000E+00  0.00000000000E+00  0.45593999997E+02  0.45594000000E+02  0.51100000000E-03 0. -1.
         11   -1    0    0    0    0 -0.00000000000E+00 -0.00000000000E+00 -0.45593999997E+02  0.45594000000E+02  0.51100000000E-03 0.  1.
    9900012    2    1    2    0    0 -0.56720544963E+01 -0.32843552109E+02  0.23287214594E+02  0.50528862271E+02  0.30000007360E+02 0.  0.
        -12    1    1    2    0    0  0.56720544963E+01  0.32843552109E+02 -0.23287214594E+02  0.40659137729E+02  0.00000000000E+00 0.  1.
         11    1    3    3    0    0 -0.92575005710E+00  0.15176082730E+01  0.29647216200E+01  0.34568370780E+01  0.51100000000E-03 0. -1.
        -11    1    3    3    0    0  0.87471753737E+01 -0.49090916747E+01  0.55959006118E+01  0.11485920164E+02  0.51100000000E-03 0.  1.
         12    1    3    3    0    0 -0.13493479813E+02 -0.29452068707E+02  0.14726592362E+02  0.35586105029E+02  0.00000000000E+00 0. -1.
</event>
<event>
 7    1  0.5839176E-013  0.5052886E+02  0.7816164E-02  0.1300439E+00
        -11   -1    0    0    0    0  0.00000000000E+00  0.00000000000E+00  0.45593999997E+02  0.45594000000E+02  0.51100000000E-03 0.  1.
         11   -1    0    0    0    0 -0.00000000000E+00 -0.00000000000E+00 -0.45593999997E+02  0.45594000000E+02  0.51100000000E-03 0. -1.
    9900012    2    1    2    0    0 -0.71462718978E+01 -0.35660949451E+02 -0.18176723229E+02  0.50528858529E+02  0.29999995986E+02 0.  0.
        -12    1    1    2    0    0  0.71462718978E+01  0.35660949451E+02  0.18176723229E+02  0.40659141471E+02  0.00000000000E+00 0.  1.
         11    1    3    3    0    0  0.94126050941E+01 -0.96457487332E+01 -0.23544588809E+01  0.13681413676E+02  0.51100000000E-03 0.  1.
        -11    1    3    3    0    0 -0.15144311893E+01 -0.10806264112E+02 -0.96896743258E+01  0.14593102298E+02  0.51100000000E-03 0. -1.
        -12    1    3    3    0    0 -0.15044445803E+02 -0.15208936606E+02 -0.61325900220E+01  0.22254342556E+02  0.00000000000E+00 0.  1.
</event>
<event>
 7    1  0.5839176E-013  0.5052886E+02  0.7816164E-02  0.1300439E+00
        -11   -1    0    0    0    0  0.00000000000E+00  0.00000000000E+00  0.45593999997E+02  0.45594000000E+02  0.51100000000E-03 0.  1.
         11   -1    0    0    0    0 -0.00000000000E+00 -0.00000000000E+00 -0.45593999997E+02  0.45594000000E+02  0.51100000000E-03 0. -1.
    9900012    2    1    2    0    0  0.13781942619E+02  0.58464770192E+01 -0.37802677134E+02  0.50528860383E+02  0.30000001620E+02 0.  0.
        -12    1    1    2    0    0 -0.13781942619E+02 -0.58464770192E+01  0.37802677134E+02  0.40659139617E+02  0.00000000000E+00 0.  1.
         11    1    3    3    0    0 -0.13573569002E+01  0.54246008743E+01 -0.15288576366E+02  0.16279105625E+02  0.51100000000E-03 0. -1.
        -11    1    3    3    0    0 -0.32178684714E+00 -0.43750416614E+01  0.20412512908E+01  0.48385166536E+01  0.51100000000E-03 0.  1.
        -12    1    3    3    0    0  0.15461086366E+02  0.47969178064E+01 -0.24555352059E+02  0.29411238104E+02  0.00000000000E+00 0.  1.
</event>
<event>
 7    1  0.5839176E-013  0.5052886E+02  0.7816164E-02  0.1300439E+00
        -11   -1    0    0    0    0  0.00000000000E+00  0.00000000000E+00  0.45593999997E+02  0.45594000000E+02  0.51100000000E-03 0.  1.
         11   -1    0    0    0    0 -0.00000000000E+00 -0.00000000000E+00 -0.45593999997E+02  0.45594000000E+02  0.51100000000E-03 0. -1.
    9900012    2    1    2    0    0 -0.11719674633E+01  0.26423131036E+02 -0.30880577572E+02  0.50528862864E+02  0.30000009161E+02 0.  0.
        -12    1    1    2    0    0  0.11719674633E+01 -0.26423131036E+02  0.30880577572E+02  0.40659137136E+02  0.00000000000E+00 0.  1.
         11    1    3    3    0    0  0.61737849531E+01  0.14237314739E+02 -0.96531753887E+01  0.18275681847E+02  0.51100000000E-03 0. -1.
        -11    1    3    3    0    0  0.19479986164E+01 -0.31135508014E+01 -0.11087244916E+02  0.11679721627E+02  0.51100000000E-03 0.  1.
         12    1    3    3    0    0 -0.92937510327E+01  0.15299367098E+02 -0.10140157268E+02  0.20573459390E+02  0.00000000000E+00 0. -1.
</event>
<event>
 7    1  0.5839176E-013  0.5052887E+02  0.7816164E-02  0.1300439E+00
        -11   -1    0    0    0    0  0.00000000000E+00  0.00000000000E+00  0.45593999997E+02  0.45594000000E+02  0.51100000000E-03 0.  1.
         11   -1    0    0    0    0 -0.00000000000E+00 -0.00000000000E+00 -0.45593999997E+02  0.45594000000E+02  0.51100000000E-03 0. -1.
    9900012    2    1    2    0    0  0.26799435706E+02  0.48495470122E+01 -0.30190013877E+02  0.50528870665E+02  0.30000032872E+02 0.  0.
        -12    1    1    2    0    0 -0.26799435706E+02 -0.48495470122E+01  0.30190013877E+02  0.40659129335E+02  0.00000000000E+00 0.  1.
         11    1    3    3    0    0  0.14594954680E+02  0.89105106713E+01 -0.12022032388E+02  0.20903089856E+02  0.51100000000E-03 0. -1.
        -11    1    3    3    0    0  0.10266792246E+02  0.61550737029E+01 -0.53258327661E+01  0.13101772789E+02  0.51100000000E-03 0.  1.
        -12    1    3    3    0    0  0.19376887805E+01 -0.10216037362E+02 -0.12842148723E+02  0.16524008019E+02  0.00000000000E+00 0.  1.
</event>
<event>
 7    1  0.5839176E-013  0.5052886E+02  0.7816164E-02  0.1300439E+00
        -11   -1    0    0    0    0  0.00000000000E+00  0.00000000000E+00  0.45593999997E+02  0.45594000000E+02  0.51100000000E-03 0.  1.
         11   -1    0    0    0    0 -0.00000000000E+00 -0.00000000000E+00 -0.45593999997E+02  0.45594000000E+02  0.51100000000E-03 0. -1.
    9900012    2    1    2    0    0 -0.10415849532E+02 -0.77780965950E+01 -0.38525018909E+02  0.50528858469E+02  0.29999995803E+02 0.  0.
        -12    1    1    2    0    0  0.10415849532E+02  0.77780965950E+01  0.38525018909E+02  0.40659141531E+02  0.00000000000E+00 0.  1.
         11    1    3    3    0    0 -0.13253306649E+02 -0.21201527981E+01 -0.10948759500E+02  0.17321100423E+02  0.51100000000E-03 0. -1.
        -11    1    3    3    0    0 -0.63073959275E+01 -0.41575998092E+01 -0.19511228730E+02  0.20922641477E+02  0.51100000000E-03 0.  1.
        -12    1    3    3    0    0  0.91448530439E+01 -0.15003439877E+01 -0.80650306778E+01  0.12285116569E+02  0.00000000000E+00 0.  1.
</event>
<event>
 7    1  0.5839176E-013  0.5052887E+02  0.7816164E-02  0.1300439E+00
        -11   -1    0    0    0    0  0.00000000000E+00  0.00000000000E+00  0.45593999997E+02  0.45594000000E+02  0.51100000000E-03 0. -1.
         11   -1    0    0    0    0 -0.00000000000E+00 -0.00000000000E+00 -0.45593999997E+02  0.45594000000E+02  0.51100000000E-03 0.  1.
    9900012    2    1    2    0    0 -0.33787340871E+02 -0.21458713967E+02 -0.71487285241E+01  0.50528866613E+02  0.30000020558E+02 0.  0.
        -12    1    1    2    0    0  0.33787340871E+02  0.21458713967E+02  0.71487285241E+01  0.40659133387E+02  0.00000000000E+00 0.  1.
         11    1    3    3    0    0  0.82606151825E+00 -0.14436396746E+01 -0.50528126557E+01  0.53195290334E+01  0.51100000000E-03 0. -1.
        -11    1    3    3    0    0 -0.88582321391E+01 -0.75447863193E+01 -0.10194611305E+02  0.15470041278E+02  0.51100000000E-03 0.  1.
         12    1    3    3    0    0 -0.25755170250E+02 -0.12470287973E+02  0.80986954365E+01  0.29739296302E+02  0.00000000000E+00 0. -1.
</event>
<event>
 7    1  0.5839176E-013  0.5052886E+02  0.7816164E-02  0.1300439E+00
        -11   -1    0    0    0    0  0.00000000000E+00  0.00000000000E+00  0.45593999997E+02  0.45594000000E+02  0.51100000000E-03 0.  1.
         11   -1    0    0    0    0 -0.00000000000E+00 -0.00000000000E+00 -0.45593999997E+02  0.45594000000E+02  0.51100000000E-03 0. -1.
    9900012    2    1    2    0    0  0.22615788059E+02 -0.16307938335E+02 -0.29592956534E+02  0.50528858362E+02  0.29999995479E+02 0.  0.
        -12    1    1    2    0    0 -0.22615788059E+02  0.16307938335E+02  0.29592956534E+02  0.40659141638E+02  0.00000000000E+00 0.  1.
         11    1    3    3    0    0 -0.39999737351E+01 -0.38536858082E+01 -0.13737101191E+02  0.14817511045E+02  0.51100000000E-03 0. -1.
        -11    1    3    3    0    0  0.43679672808E+00 -0.46489352894E+01 -0.19859392369E+01  0.50741842320E+01  0.51100000000E-03 0.  1.
        -12    1    3    3    0    0  0.26178965066E+02 -0.78053172372E+01 -0.13869916107E+02  0.30637163085E+02  0.00000000000E+00 0.  1.
</event>
<event>
 7    1  0.5839176E-013  0.5052886E+02  0.7816164E-02  0.1300439E+00
        -11   -1    0    0    0    0  0.00000000000E+00  0.00000000000E+00  0.45593999997E+02  0.45594000000E+02  0.51100000000E-03 0.  1.
         11   -1    0    0    0    0 -0.00000000000E+00 -0.00000000000E+00 -0.45593999997E+02  0.45594000000E+02  0.51100000000E-03 0. -1.
    9900012    2    1    2    0    0  0.16416470388E+02 -0.11363172182E+02 -0.35419540711E+02  0.50528855319E+02  0.29999986229E+02 0.  0.
        -12    1    1    2    0    0 -0.16416470388E+02  0.11363172182E+02  0.35419540711E+02  0.40659144681E+02  0.00000000000E+00 0.  1.
         11    1    3    3    0    0 -0.26176737045E+00  0.57970600607E+01 -0.16524286767E+01  0.60336513237E+01  0.51100000000E-03 0. -1.
        -11    1    3    3    0    0 -0.16006915525E+01 -0.83264265826E+01 -0.76860953659E+01  0.11444110071E+02  0.51100000000E-03 0.  1.
         12    1    3    3    0    0  0.18278929311E+02 -0.88338056597E+01 -0.26081016668E+02  0.33051093925E+02  0.00000000000E+00 0. -1.
</event>
<event>
 7    1  0.5839176E-013  0.5052886E+02  0.7816164E-02  0.1300439E+00
        -11   -1    0    0    0    0  0.00000000000E+00  0.00000000000E+00  0.45593999997E+02  0.45594000000E+02  0.51100000000E-03 0.  1.
         11   -1    0    0    0    0 -0.00000000000E+00 -0.00000000000E+00 -0.45593999997E+02  0.45594000000E+02  0.51100000000E-03 0. -1.
    9900012    2    1    2    0    0 -0.16260179661E+02 -0.10056357470E+02 -0.35883730327E+02  0.50528857481E+02  0.29999992799E+02 0.  0.
        -12    1    1    2    0    0  0.16260179661E+02  0.10056357470E+02  0.35883730327E+02  0.40659142519E+02  0.00000000000E+00 0.  1.
         11    1    3    3    0    0  0.23215048151E+01 -0.17852159594E+00  0.19514138054E+00  0.23365219849E+01  0.51100000000E-03 0. -1.
        -11    1    3    3    0    0  0.51301270437E+01 -0.15110469481E+01 -0.13019322665E+02  0.14074950418E+02  0.51100000000E-03 0.  1.
         12    1    3    3    0    0 -0.23711811520E+02 -0.83667889257E+01 -0.23059549043E+02  0.34117385078E+02  0.00000000000E+00 0. -1.
</event>
<event>
 7    1  0.5839176E-013  0.5052886E+02  0.7816164E-02  0.1300439E+00
        -11   -1    0    0    0    0  0.00000000000E+00  0.00000000000E+00  0.45593999997E+02  0.45594000000E+02  0.51100000000E-03 0.  1.
         11   -1    0    0    0    0 -0.00000000000E+00 -0.00000000000E+00 -0.45593999997E+02  0.45594000000E+02  0.51100000000E-03 0. -1.
    9900012    2    1    2    0    0 -0.30821957477E+00  0.24398782354E+01 -0.40584694666E+02  0.50528862697E+02  0.30000008654E+02 0.  0.
        -12    1    1    2    0    0  0.30821957477E+00 -0.24398782354E+01  0.40584694666E+02  0.40659137303E+02  0.00000000000E+00 0.  1.
         11    1    3    3    0    0 -0.18450886272E+01  0.20388647270E+01 -0.41664141040E+00  0.27811709303E+01  0.51100000000E-03 0. -1.
        -11    1    3    3    0    0  0.30960177097E+01 -0.12456822545E+02 -0.18916050218E+02  0.22859893037E+02  0.51100000000E-03 0.  1.
         12    1    3    3    0    0 -0.15591486573E+01  0.12857836053E+02 -0.21252003037E+02  0.24887798730E+02  0.00000000000E+00 0. -1.
</event>
<event>
 7    1  0.5839176E-013  0.5052886E+02  0.7816164E-02  0.1300439E+00
        -11   -1    0    0    0    0  0.00000000000E+00  0.00000000000E+00  0.45593999997E+02  0.45594000000E+02  0.51100000000E-03 0. -1.
         11   -1    0    0    0    0 -0.00000000000E+00 -0.00000000000E+00 -0.45593999997E+02  0.45594000000E+02  0.51100000000E-03 0.  1.
    9900012    2    1    2    0    0 -0.23954094788E+02 -0.31246064678E+02  0.10151376412E+02  0.50528860092E+02  0.30000000737E+02 0.  0.
        -12    1    1    2    0    0  0.23954094788E+02  0.31246064678E+02 -0.10151376412E+02  0.40659139908E+02  0.00000000000E+00 0.  1.
         11    1    3    3    0    0 -0.87553517897E+01 -0.91833690739E+01  0.11781413112E+02  0.17314506857E+02  0.51100000000E-03 0.  1.
        -11    1    3    3    0    0 -0.27662560686E+01 -0.12483249412E+02  0.77291715947E+01  0.14940675430E+02  0.51100000000E-03 0. -1.
        -12    1    3    3    0    0 -0.12432486930E+02 -0.95794461920E+01 -0.93592082951E+01  0.18273677805E+02  0.00000000000E+00 0.  1.
</event>
<event>
 7    1  0.5839176E-013  0.5052886E+02  0.7816164E-02  0.1300439E+00
        -11   -1    0    0    0    0  0.00000000000E+00  0.00000000000E+00  0.45593999997E+02  0.45594000000E+02  0.51100000000E-03 0.  1.
         11   -1    0    0    0    0 -0.00000000000E+00 -0.00000000000E+00 -0.45593999997E+02  0.45594000000E+02  0.51100000000E-03 0. -1.
    9900012    2    1    2    0    0 -0.32796200982E+02 -0.15982107993E+02 -0.17948445500E+02  0.50528864856E+02  0.30000015218E+02 0.  0.
        -12    1    1    2    0    0  0.32796200982E+02  0.15982107993E+02  0.17948445500E+02  0.40659135144E+02  0.00000000000E+00 0.  1.
         11    1    3    3    0    0 -0.13088351680E+02 -0.81200130204E+01  0.13706470546E+01  0.15463448346E+02  0.51100000000E-03 0. -1.
        -11    1    3    3    0    0 -0.51070370115E+01  0.67864233455E+01 -0.68816938030E+01  0.10931380458E+02  0.51100000000E-03 0.  1.
         12    1    3    3    0    0 -0.14600812291E+02 -0.14648518318E+02 -0.12437398752E+02  0.24134036052E+02  0.00000000000E+00 0. -1.
</event>
<event>
 7    1  0.5839176E-013  0.5052886E+02  0.7816164E-02  0.1300439E+00
        -11   -1    0    0    0    0  0.00000000000E+00  0.00000000000E+00  0.45593999997E+02  0.45594000000E+02  0.51100000000E-03 0.  1.
         11   -1    0    0    0    0 -0.00000000000E+00 -0.00000000000E+00 -0.45593999997E+02  0.45594000000E+02  0.51100000000E-03 0. -1.
    9900012    2    1    2    0    0 -0.20947248563E+02  0.12712205866E+02 -0.32446544750E+02  0.50528859988E+02  0.30000000419E+02 0.  0.
        -12    1    1    2    0    0  0.20947248563E+02 -0.12712205866E+02  0.32446544750E+02  0.40659140012E+02  0.00000000000E+00 0.  1.
         11    1    3    3    0    0 -0.22219090491E+02  0.13780709286E+02 -0.22868498655E+02  0.34735632450E+02  0.51100000000E-03 0.  1.
        -11    1    3    3    0    0 -0.53694101653E+01  0.11922320252E+01 -0.35749122198E+01  0.65598765511E+01  0.51100000000E-03 0. -1.
        -12    1    3    3    0    0  0.66412520937E+01 -0.22607354457E+01 -0.60031338752E+01  0.92333509871E+01  0.00000000000E+00 0.  1.
</event>
<event>
 7    1  0.5839176E-013  0.5052887E+02  0.7816164E-02  0.1300439E+00
        -11   -1    0    0    0    0  0.00000000000E+00  0.00000000000E+00  0.45593999997E+02  0.45594000000E+02  0.51100000000E-03 0.  1.
         11   -1    0    0    0    0 -0.00000000000E+00 -0.00000000000E+00 -0.45593999997E+02  0.45594000000E+02  0.51100000000E-03 0. -1.
    9900012    2    1    2    0    0  0.15848028953E+02 -0.62198374218E+01 -0.36923146239E+02  0.50528866617E+02  0.30000020570E+02 0.  0.
        -12    1    1    2    0    0 -0.15848028953E+02  0.62198374218E+01  0.36923146239E+02  0.40659133383E+02  0.00000000000E+00 0.  1.
         11    1    3    3    0    0  0.12019865016E+02 -0.49053299291E+01  0.25682331706E+00  0.12984813253E+02  0.51100000000E-03 0.  1.
        -11    1    3    3    0    0 -0.25813282662E+00 -0.10666395728E+01 -0.94541744403E+01  0.95176555487E+01  0.51100000000E-03 0. -1.
        -12    1    3    3    0    0  0.40862967633E+01 -0.24786791991E+00 -0.27725795116E+02  0.28026397816E+02  0.00000000000E+00 0.  1.
</event>
<event>
 7    1  0.5839176E-013  0.5052890E+02  0.7816164E-02  0.1300439E+00
        -11   -1    0    0    0    0  0.00000000000E+00  0.00000000000E+00  0.45593999997E+02  0.45594000000E+02  0.51100000000E-03 0.  1.
         11   -1    0    0    0    0 -0.00000000000E+00 -0.00000000000E+00 -0.45593999997E+02  0.45594000000E+02  0.51100000000E-03 0. -1.
    9900012    2    1    2    0    0 -0.73818907866E+01 -0.32214180484E+02 -0.23683687135E+02  0.50528895581E+02  0.30000108607E+02 0.  0.
        -12    1    1    2    0    0  0.73818907866E+01  0.32214180484E+02  0.23683687135E+02  0.40659104419E+02  0.00000000000E+00 0.  1.
         11    1    3    3    0    0 -0.38758653921E+01  0.23338904732E+01 -0.60974211876E+00  0.45652122614E+01  0.51100000000E-03 0. -1.
        -11    1    3    3    0    0 -0.50909016046E+01  0.69103790097E-01 -0.26587967155E+01  0.57438014169E+01  0.51100000000E-03 0.  1.
         12    1    3    3    0    0  0.15848762101E+01 -0.34617174748E+02 -0.20415148301E+02  0.40219881903E+02  0.00000000000E+00 0. -1.
</event>
<event>
 7    1  0.5839176E-013  0.5052886E+02  0.7816164E-02  0.1300439E+00
        -11   -1    0    0    0    0  0.00000000000E+00  0.00000000000E+00  0.45593999997E+02  0.45594000000E+02  0.51100000000E-03 0.  1.
         11   -1    0    0    0    0 -0.00000000000E+00 -0.00000000000E+00 -0.45593999997E+02  0.45594000000E+02  0.51100000000E-03 0. -1.
    9900012    2    1    2    0    0 -0.47509247838E+01  0.26652753010E+02 -0.30335209907E+02  0.50528862166E+02  0.30000007039E+02 0.  0.
        -12    1    1    2    0    0  0.47509247838E+01 -0.26652753010E+02  0.30335209907E+02  0.40659137834E+02  0.00000000000E+00 0.  1.
         11    1    3    3    0    0  0.86725103677E+01  0.72055206784E+01 -0.15138872592E+02  0.18876372214E+02  0.51100000000E-03 0. -1.
        -11    1    3    3    0    0 -0.71131614455E+01  0.23553581178E+00 -0.65062052146E+01  0.96427822450E+01  0.51100000000E-03 0.  1.
        -12    1    3    3    0    0 -0.63102737059E+01  0.19211696520E+02 -0.86901320999E+01  0.22009707707E+02  0.00000000000E+00 0.  1.
</event>
<event>
 7    1  0.5839176E-013  0.5052885E+02  0.7816164E-02  0.1300439E+00
        -11   -1    0    0    0    0  0.00000000000E+00  0.00000000000E+00  0.45593999997E+02  0.45594000000E+02  0.51100000000E-03 0. -1.
         11   -1    0    0    0    0 -0.00000000000E+00 -0.00000000000E+00 -0.45593999997E+02  0.45594000000E+02  0.51100000000E-03 0.  1.
    9900012    2    1    2    0    0  0.31106072364E+02 -0.12707335039E+02  0.22893278464E+02  0.50528852192E+02  0.29999976722E+02 0.  0.
        -12    1    1    2    0    0 -0.31106072364E+02  0.12707335039E+02 -0.22893278464E+02  0.40659147808E+02  0.00000000000E+00 0.  1.
         11    1    3    3    0    0  0.19702120782E+02  0.22229348868E+01  0.94044107363E+01  0.21944428550E+02  0.51100000000E-03 0. -1.
        -11    1    3    3    0    0  0.91402902009E+01 -0.18958231698E+01 -0.47739103588E+00  0.93470290954E+01  0.51100000000E-03 0.  1.
         12    1    3    3    0    0  0.22636613804E+01 -0.13034446756E+02  0.13966258763E+02  0.19237394546E+02  0.00000000000E+00 0. -1.
</event>
<event>
 7    1  0.5839176E-013  0.5052884E+02  0.7816164E-02  0.1300439E+00
        -11   -1    0    0    0    0  0.00000000000E+00  0.00000000000E+00  0.45593999997E+02  0.45594000000E+02  0.51100000000E-03 0.  1.
         11   -1    0    0    0    0 -0.00000000000E+00 -0.00000000000E+00 -0.45593999997E+02  0.45594000000E+02  0.51100000000E-03 0. -1.
    9900012    2    1    2    0    0 -0.19091347045E+02 -0.35665570554E+02 -0.40810264536E+01  0.50528840739E+02  0.29999941909E+02 0.  0.
        -12    1    1    2    0    0  0.19091347045E+02  0.35665570554E+02  0.40810264536E+01  0.40659159261E+02  0.00000000000E+00 0.  1.
         11    1    3    3    0    0 -0.81227985190E+01 -0.40306085470E+00  0.82154246925E+00  0.81741816791E+01  0.51100000000E-03 0. -1.
        -11    1    3    3    0    0 -0.27841746716E+01  0.21922655994E+01  0.69037784269E+00  0.36103017723E+01  0.51100000000E-03 0.  1.
        -12    1    3    3    0    0 -0.81843738543E+01 -0.37454775299E+02 -0.55929467655E+01  0.38744357287E+02  0.00000000000E+00 0.  1.
</event>
<event>
 7    1  0.5839176E-013  0.5052886E+02  0.7816164E-02  0.1300439E+00
        -11   -1    0    0    0    0  0.00000000000E+00  0.00000000000E+00  0.45593999997E+02  0.45594000000E+02  0.51100000000E-03 0.  1.
         11   -1    0    0    0    0 -0.00000000000E+00 -0.00000000000E+00 -0.45593999997E+02  0.45594000000E+02  0.51100000000E-03 0. -1.
    9900012    2    1    2    0    0 -0.57752570163E+01  0.55305454431E+01 -0.39865083871E+02  0.50528862791E+02  0.30000008941E+02 0.  0.
        -12    1    1    2    0    0  0.57752570163E+01 -0.55305454431E+01  0.39865083871E+02  0.40659137209E+02  0.00000000000E+00 0.  1.
         11    1    3    3    0    0 -0.70731989298E+00  0.46922064844E+01 -0.21892433698E+02  0.22400798125E+02  0.51100000000E-03 0. -1.
        -11    1    3    3    0    0 -0.24125689530E+00  0.34896015164E+01 -0.21372069129E+02  0.21656427747E+02  0.51100000000E-03 0.  1.
        -12    1    3    3    0    0 -0.48266802280E+01 -0.26512625577E+01  0.33994189570E+01  0.64716369196E+01  0.00000000000E+00 0.  1.
</event>
<event>
 7    1  0.5839176E-013  0.5052886E+02  0.7816164E-02  0.1300439E+00
        -11   -1    0    0    0    0  0.00000000000E+00  0.00000000000E+00  0.45593999997E+02  0.45594000000E+02  0.51100000000E-03 0. -1.
         11   -1    0    0    0    0 -0.00000000000E+00 -0.00000000000E+00 -0.45593999997E+02  0.45594000000E+02  0.51100000000E-03 0.  1.
    9900012    2    1    2    0    0 -0.12225305546E+01 -0.29290354870E+02  0.28173503112E+02  0.50528858999E+02  0.29999997413E+02 0.  0.
        -12    1    1    2    0    0  0.12225305546E+01  0.29290354870E+02 -0.28173503112E+02  0.40659141001E+02  0.00000000000E+00 0.  1.
         11    1    3    3    0    0  0.19600877318E+00 -0.29640158901E+01  0.38528975780E+01  0.48650415870E+01  0.51100000000E-03 0. -1.
        -11    1    3    3    0    0 -0.10374079678E+02 -0.17137225659E+02  0.22822140388E+01  0.20162205575E+02  0.51100000000E-03 0.  1.
        -12    1    3    3    0    0  0.89555403504E+01 -0.91891133209E+01  0.22038391495E+02  0.25501611837E+02  0.00000000000E+00 0.  1.
</event>
<event>
 7    1  0.5839176E-013  0.5052886E+02  0.7816164E-02  0.1300439E+00
        -11   -1    0    0    0    0  0.00000000000E+00  0.00000000000E+00  0.45593999997E+02  0.45594000000E+02  0.51100000000E-03 0.  1.
         11   -1    0    0    0    0 -0.00000000000E+00 -0.00000000000E+00 -0.45593999997E+02  0.45594000000E+02  0.51100000000E-03 0. -1.
    9900012    2    1    2    0    0  0.27313566278E+02 -0.29514993291E+02  0.59999968869E+01  0.50528859645E+02  0.29999999376E+02 0.  0.
        -12    1    1    2    0    0 -0.27313566278E+02  0.29514993291E+02 -0.59999968869E+01  0.40659140355E+02  0.00000000000E+00 0.  1.
         11    1    3    3    0    0  0.61697042711E+01 -0.59620680521E+01 -0.13658161978E+01  0.86877477172E+01  0.51100000000E-03 0. -1.
        -11    1    3    3    0    0  0.13806561146E+02 -0.28579062204E+02  0.28510939454E+01  0.31867109440E+02  0.51100000000E-03 0.  1.
         12    1    3    3    0    0  0.73373008608E+01  0.50261369650E+01  0.45147191392E+01  0.99740024874E+01  0.00000000000E+00 0. -1.
</event>
<event>
 7    1  0.5839176E-013  0.5052886E+02  0.7816164E-02  0.1300439E+00
        -11   -1    0    0    0    0  0.00000000000E+00  0.00000000000E+00  0.45593999997E+02  0.45594000000E+02  0.51100000000E-03 0.  1.
         11   -1    0    0    0    0 -0.00000000000E+00 -0.00000000000E+00 -0.45593999997E+02  0.45594000000E+02  0.51100000000E-03 0. -1.
    9900012    2    1    2    0    0  0.31695313000E+02 -0.20211326906E+02 -0.15494349464E+02  0.50528862444E+02  0.30000007886E+02 0.  0.
        -12    1    1    2    0    0 -0.31695313000E+02  0.20211326906E+02  0.15494349464E+02  0.40659137556E+02  0.00000000000E+00 0.  1.
         11    1    3    3    0    0  0.18984740527E+02 -0.27077806957E+02 -0.83159812387E+01  0.34099612119E+02  0.51100000000E-03 0. -1.
        -11    1    3    3    0    0 -0.70910260979E-01  0.46398824730E+00 -0.11120275944E+00  0.48236881488E+00  0.51100000000E-03 0.  1.
        -12    1    3    3    0    0  0.12781482734E+02  0.64024918038E+01 -0.70671654663E+01  0.15946881511E+02  0.00000000000E+00 0.  1.
</event>
<event>
 7    1  0.5839176E-013  0.5052884E+02  0.7816164E-02  0.1300439E+00
        -11   -1    0    0    0    0  0.00000000000E+00  0.00000000000E+00  0.45593999997E+02  0.45594000000E+02  0.51100000000E-03 0.  1.
         11   -1    0    0    0    0 -0.00000000000E+00 -0.00000000000E+00 -0.45593999997E+02  0.45594000000E+02  0.51100000000E-03 0. -1.
    9900012    2    1    2    0    0 -0.22307887664E+02 -0.22694431143E+02 -0.25307864631E+02  0.50528842740E+02  0.29999947992E+02 0.  0.
        -12    1    1    2    0    0  0.22307887664E+02  0.22694431143E+02  0.25307864631E+02  0.40659157260E+02  0.00000000000E+00 0.  1.
         11    1    3    3    0    0  0.40402410125E+00 -0.18694936877E+02 -0.14845609025E+02  0.23875845700E+02  0.51100000000E-03 0. -1.
        -11    1    3    3    0    0 -0.33331055388E+01  0.86451068741E+00  0.10421841901E+01  0.35976547095E+01  0.51100000000E-03 0.  1.
        -12    1    3    3    0    0 -0.19378806226E+02 -0.48640049538E+01 -0.11504439796E+02  0.23055342330E+02  0.00000000000E+00 0.  1.
</event>
<event>
 7    1  0.5839176E-013  0.5052885E+02  0.7816164E-02  0.1300439E+00
        -11   -1    0    0    0    0  0.00000000000E+00  0.00000000000E+00  0.45593999997E+02  0.45594000000E+02  0.51100000000E-03 0. -1.
         11   -1    0    0    0    0 -0.00000000000E+00 -0.00000000000E+00 -0.45593999997E+02  0.45594000000E+02  0.51100000000E-03 0.  1.
    9900012    2    1    2    0    0 -0.20907922353E+02 -0.29858537781E+02  0.18013677832E+02  0.50528854847E+02  0.29999984794E+02 0.  0.
        -12    1    1    2    0    0  0.20907922353E+02  0.29858537781E+02 -0.18013677832E+02  0.40659145153E+02  0.00000000000E+00 0.  1.
         11    1    3    3    0    0 -0.20234719533E+01 -0.94976499680E+01  0.22964695909E+01  0.99786555458E+01  0.51100000000E-03 0.  1.
        -11    1    3    3    0    0 -0.52226174120E+01 -0.12785732749E+02 -0.49252184127E+01  0.14663167162E+02  0.51100000000E-03 0. -1.
         12    1    3    3    0    0 -0.13661832987E+02 -0.75751550638E+01  0.20642426654E+02  0.25887032139E+02  0.00000000000E+00 0. -1.
</event>
<event>
 7    1  0.5839176E-013  0.5052886E+02  0.7816164E-02  0.1300439E+00
        -11   -1    0    0    0    0  0.00000000000E+00  0.00000000000E+00  0.45593999997E+02  0.45594000000E+02  0.51100000000E-03 0.  1.
         11   -1    0    0    0    0 -0.00000000000E+00 -0.00000000000E+00 -0.45593999997E+02  0.45594000000E+02  0.51100000000E-03 0. -1.
    9900012    2    1    2    0    0  0.35140731349E+02 -0.60012515444E+01 -0.19551972632E+02  0.50528860147E+02  0.30000000903E+02 0.  0.
        -12    1    1    2    0    0 -0.35140731349E+02  0.60012515444E+01  0.19551972632E+02  0.40659139853E+02  0.00000000000E+00 0.  1.
         11    1    3    3    0    0  0.22794673891E+02  0.72680296265E+01 -0.13654709183E+02  0.27547640472E+02  0.51100000000E-03 0. -1.
        -11    1    3    3    0    0  0.51292495420E+01  0.17739251055E+01 -0.52386313250E+00  0.54525630658E+01  0.51100000000E-03 0.  1.
        -12    1    3    3    0    0  0.72168079156E+01 -0.15043206276E+02 -0.53734003165E+01  0.17528656609E+02  0.00000000000E+00 0.  1.
</event>
<event>
 7    1  0.5839176E-013  0.5052887E+02  0.7816164E-02  0.1300439E+00
        -11   -1    0    0    0    0  0.00000000000E+00  0.00000000000E+00  0.45593999997E+02  0.45594000000E+02  0.51100000000E-03 0.  1.
         11   -1    0    0    0    0 -0.00000000000E+00 -0.00000000000E+00 -0.45593999997E+02  0.45594000000E+02  0.51100000000E-03 0. -1.
    9900012    2    1    2    0    0  0.50456883813E+01 -0.39510063511E+02 -0.81646148393E+01  0.50528867873E+02  0.30000024385E+02 0.  0.
        -12    1    1    2    0    0 -0.50456883813E+01  0.39510063511E+02  0.81646148393E+01  0.40659132127E+02  0.00000000000E+00 0.  1.
         11    1    3    3    0    0 -0.61033760277E+01 -0.16717990048E+02  0.98241647825E+00  0.17824352234E+02  0.51100000000E-03 0.  1.
        -11    1    3    3    0    0 -0.49388464965E+01 -0.85967379375E+01 -0.22337848584E+01  0.10162967231E+02  0.51100000000E-03 0. -1.
         12    1    3    3    0    0  0.16087910906E+02 -0.14195335526E+02 -0.69132464591E+01  0.22541548407E+02  0.00000000000E+00 0. -1.
</event>
<event>
 7    1  0.5839176E-013  0.5052886E+02  0.7816164E-02  0.1300439E+00
        -11   -1    0    0    0    0  0.00000000000E+00  0.00000000000E+00  0.45593999997E+02  0.45594000000E+02  0.51100000000E-03 0.  1.
         11   -1    0    0    0    0 -0.00000000000E+00 -0.00000000000E+00 -0.45593999997E+02  0.45594000000E+02  0.51100000000E-03 0. -1.
    9900012    2    1    2    0    0  0.36873553817E+02  0.16410114626E+02  0.49208564996E+01  0.50528860046E+02  0.30000000596E+02 0.  0.
        -12    1    1    2    0    0 -0.36873553817E+02 -0.16410114626E+02 -0.49208564996E+01  0.40659139954E+02  0.00000000000E+00 0.  1.
         11    1    3    3    0    0  0.19887558980E+01 -0.60036356940E+00  0.44553086591E+01  0.49158276970E+01  0.51100000000E-03 0.  1.
        -11    1    3    3    0    0  0.64238612111E+01  0.47665046561E+01  0.10359852562E+02  0.13088625018E+02  0.51100000000E-03 0. -1.
         12    1    3    3    0    0  0.28460936708E+02  0.12243973539E+02 -0.98943047215E+01  0.32524407331E+02  0.00000000000E+00 0. -1.
</event>
<event>
 7    1  0.5839176E-013  0.5052890E+02  0.7816164E-02  0.1300439E+00
        -11   -1    0    0    0    0  0.00000000000E+00  0.00000000000E+00  0.45593999997E+02  0.45594000000E+02  0.51100000000E-03 0. -1.
         11   -1    0    0    0    0 -0.00000000000E+00 -0.00000000000E+00 -0.45593999997E+02  0.45594000000E+02  0.51100000000E-03 0.  1.
    9900012    2    1    2    0    0 -0.39423509454E+02  0.22539505461E+01  0.96886159600E+01  0.50528896838E+02  0.30000112427E+02 0.  0.
        -12    1    1    2    0    0  0.39423509454E+02 -0.22539505461E+01 -0.96886159600E+01  0.40659103162E+02  0.00000000000E+00 0.  1.
         11    1    3    3    0    0  0.14047531550E+01  0.82418903335E+00 -0.14189432577E+01  0.21600970393E+01  0.51100000000E-03 0. -1.
        -11    1    3    3    0    0 -0.53197627184E+01  0.90886509728E+01  0.44784678131E+01  0.11443781110E+02  0.51100000000E-03 0.  1.
         12    1    3    3    0    0 -0.35508499891E+02 -0.76588894601E+01  0.66290914046E+01  0.36925018688E+02  0.00000000000E+00 0. -1.
</event>
<event>
 7    1  0.5839176E-013  0.5052886E+02  0.7816164E-02  0.1300439E+00
        -11   -1    0    0    0    0  0.00000000000E+00  0.00000000000E+00  0.45593999997E+02  0.45594000000E+02  0.51100000000E-03 0.  1.
         11   -1    0    0    0    0 -0.00000000000E+00 -0.00000000000E+00 -0.45593999997E+02  0.45594000000E+02  0.51100000000E-03 0. -1.
    9900012    2    1    2    0    0 -0.22846533337E+02  0.97504107146E+01 -0.32188993669E+02  0.50528857018E+02  0.29999991393E+02 0.  0.
        -12    1    1    2    0    0  0.22846533337E+02 -0.97504107146E+01  0.32188993669E+02  0.40659142982E+02  0.00000000000E+00 0.  1.
         11    1    3    3    0    0 -0.16348934767E+02  0.69710347186E+01 -0.29520554865E+02  0.34457889559E+02  0.51100000000E-03 0. -1.
        -11    1    3    3    0    0 -0.63353336746E+01 -0.21029326921E+01 -0.69055223840E+01  0.96044270174E+01  0.51100000000E-03 0.  1.
        -12    1    3    3    0    0 -0.16226489470E+00  0.48823086881E+01  0.42370835800E+01  0.64665404418E+01  0.00000000000E+00 0.  1.
</event>
<event>
 7    1  0.5839176E-013  0.5052888E+02  0.7816164E-02  0.1300439E+00
        -11   -1    0    0    0    0  0.00000000000E+00  0.00000000000E+00  0.45593999997E+02  0.45594000000E+02  0.51100000000E-03 0.  1.
         11   -1    0    0    0    0 -0.00000000000E+00 -0.00000000000E+00 -0.45593999997E+02  0.45594000000E+02  0.51100000000E-03 0. -1.
    9900012    2    1    2    0    0  0.40449030129E+02  0.38142784420E+01 -0.15782815145E+01  0.50528883790E+02  0.30000072768E+02 0.  0.
        -12    1    1    2    0    0 -0.40449030129E+02 -0.38142784420E+01  0.15782815145E+01  0.40659116210E+02  0.00000000000E+00 0.  1.
         11    1    3    3    0    0 -0.21121503603E+00  0.46655736617E+01 -0.30548224278E+01  0.55806925834E+01  0.51100000000E-03 0. -1.
        -11    1    3    3    0    0  0.19859926512E+01  0.53778723440E+01  0.61813918760E+00  0.57660882820E+01  0.51100000000E-03 0.  1.
        -12    1    3    3    0    0  0.38674252514E+02 -0.62291675637E+01  0.85840172572E+00  0.39182102925E+02  0.00000000000E+00 0.  1.
</event>
<event>
 7    1  0.5839176E-013  0.5052899E+02  0.7816164E-02  0.1300438E+00
        -11   -1    0    0    0    0  0.00000000000E+00  0.00000000000E+00  0.45593999997E+02  0.45594000000E+02  0.51100000000E-03 0. -1.
         11   -1    0    0    0    0 -0.00000000000E+00 -0.00000000000E+00 -0.45593999997E+02  0.45594000000E+02  0.51100000000E-03 0.  1.
    9900012    2    1    2    0    0  0.44692886226E+01  0.17890907122E+02  0.36236668179E+02  0.50528988463E+02  0.30000390929E+02 0.  0.
        -12    1    1    2    0    0 -0.44692886226E+01 -0.17890907122E+02 -0.36236668179E+02  0.40659011537E+02  0.00000000000E+00 0.  1.
         11    1    3    3    0    0 -0.33356090000E+01  0.16392473343E+02  0.13649474884E+02  0.21590452393E+02  0.51100000000E-03 0. -1.
        -11    1    3    3    0    0 -0.33951127250E+01  0.36920333672E+01  0.20005396632E+01  0.54000055560E+01  0.51100000000E-03 0.  1.
         12    1    3    3    0    0  0.11200010348E+02 -0.21935995877E+01  0.20586653633E+02  0.23538530513E+02  0.00000000000E+00 0. -1.
</event>
<event>
 7    1  0.5839176E-013  0.5052886E+02  0.7816164E-02  0.1300439E+00
        -11   -1    0    0    0    0  0.00000000000E+00  0.00000000000E+00  0.45593999997E+02  0.45594000000E+02  0.51100000000E-03 0.  1.
         11   -1    0    0    0    0 -0.00000000000E+00 -0.00000000000E+00 -0.45593999997E+02  0.45594000000E+02  0.51100000000E-03 0. -1.
    9900012    2    1    2    0    0  0.33501170658E+01 -0.61480181939E+01 -0.40051770673E+02  0.50528859009E+02  0.29999997445E+02 0.  0.
        -12    1    1    2    0    0 -0.33501170658E+01  0.61480181939E+01  0.40051770673E+02  0.40659140991E+02  0.00000000000E+00 0.  1.
         11    1    3    3    0    0  0.65429187151E+01 -0.88193941246E+01 -0.12628930916E+02  0.16735632476E+02  0.51100000000E-03 0. -1.
        -11    1    3    3    0    0  0.53484064530E+01 -0.56464200078E+01 -0.96879433418E+01  0.12423516288E+02  0.51100000000E-03 0.  1.
         12    1    3    3    0    0 -0.85412081024E+01  0.83177959385E+01 -0.17734896415E+02  0.21369710245E+02  0.00000000000E+00 0. -1.
</event>
<event>
 7    1  0.5839176E-013  0.5052886E+02  0.7816164E-02  0.1300439E+00
        -11   -1    0    0    0    0  0.00000000000E+00  0.00000000000E+00  0.45593999997E+02  0.45594000000E+02  0.51100000000E-03 0. -1.
         11   -1    0    0    0    0 -0.00000000000E+00 -0.00000000000E+00 -0.45593999997E+02  0.45594000000E+02  0.51100000000E-03 0.  1.
    9900012    2    1    2    0    0  0.33826552480E+02  0.22425447388E+02  0.24555125802E+01  0.50528857298E+02  0.29999992242E+02 0.  0.
        -12    1    1    2    0    0 -0.33826552480E+02 -0.22425447388E+02 -0.24555125802E+01  0.40659142702E+02  0.00000000000E+00 0.  1.
         11    1    3    3    0    0  0.25829725888E+02  0.14302235195E+02  0.11428043238E+02  0.31659577437E+02  0.51100000000E-03 0. -1.
        -11    1    3    3    0    0  0.76826342009E+01  0.66796960378E+01 -0.41893756901E+00  0.10189048845E+02  0.51100000000E-03 0.  1.
        -12    1    3    3    0    0  0.31419239133E+00  0.14435161558E+01 -0.85535930887E+01  0.86802310152E+01  0.00000000000E+00 0.  1.
</event>
<event>
 7    1  0.5839176E-013  0.5052886E+02  0.7816164E-02  0.1300439E+00
        -11   -1    0    0    0    0  0.00000000000E+00  0.00000000000E+00  0.45593999997E+02  0.45594000000E+02  0.51100000000E-03 0.  1.
         11   -1    0    0    0    0 -0.00000000000E+00 -0.00000000000E+00 -0.45593999997E+02  0.45594000000E+02  0.51100000000E-03 0. -1.
    9900012    2    1    2    0    0  0.31018062889E+02  0.26133590584E+02  0.28427516509E+01  0.50528855652E+02  0.29999987239E+02 0.  0.
        -12    1    1    2    0    0 -0.31018062889E+02 -0.26133590584E+02 -0.28427516509E+01  0.40659144348E+02  0.00000000000E+00 0.  1.
         11    1    3    3    0    0 -0.14671908094E+00  0.25596757715E+01 -0.40870512605E+01  0.48246714718E+01  0.51100000000E-03 0. -1.
        -11    1    3    3    0    0  0.16060023997E+02  0.24452262004E+02  0.85729127211E+01  0.30484952364E+02  0.51100000000E-03 0.  1.
         12    1    3    3    0    0  0.15104757973E+02 -0.87834719131E+00 -0.16431098097E+01  0.15219231816E+02  0.00000000000E+00 0. -1.
</event>
<event>
 7    1  0.5839176E-013  0.5052886E+02  0.7816164E-02  0.1300439E+00
        -11   -1    0    0    0    0  0.00000000000E+00  0.00000000000E+00  0.45593999997E+02  0.45594000000E+02  0.51100000000E-03 0.  1.
         11   -1    0    0    0    0 -0.00000000000E+00 -0.00000000000E+00 -0.45593999997E+02  0.45594000000E+02  0.51100000000E-03 0. -1.
    9900012    2    1    2    0    0 -0.26991831740E+02 -0.24445355086E+02  0.18084013134E+02  0.50528857153E+02  0.29999991804E+02 0.  0.
        -12    1    1    2    0    0  0.26991831740E+02  0.24445355086E+02 -0.18084013134E+02  0.40659142847E+02  0.00000000000E+00 0.  1.
         11    1    3    3    0    0  0.19054953894E+01  0.28218131199E+00  0.11636928469E+01  0.22504933403E+01  0.51100000000E-03 0.  1.
        -11    1    3    3    0    0 -0.46016487813E+01 -0.64347431338E+01 -0.62201322329E+01  0.10063356098E+02  0.51100000000E-03 0. -1.
         12    1    3    3    0    0 -0.24295678348E+02 -0.18292793264E+02  0.23140452520E+02  0.38215007715E+02  0.00000000000E+00 0. -1.
</event>
<event>
 7    1  0.5839176E-013  0.5052884E+02  0.7816164E-02  0.1300439E+00
        -11   -1    0    0    0    0  0.00000000000E+00  0.00000000000E+00  0.45593999997E+02  0.45594000000E+02  0.51100000000E-03 0.  1.
         11   -1    0    0    0    0 -0.00000000000E+00 -0.00000000000E+00 -0.45593999997E+02  0.45594000000E+02  0.51100000000E-03 0. -1.
    9900012    2    1    2    0    0 -0.28568904323E+02  0.19883192546E+02 -0.21015322970E+02  0.50528838184E+02  0.29999934144E+02 0.  0.
        -12    1    1    2    0    0  0.28568904323E+02 -0.19883192546E+02  0.21015322970E+02  0.40659161816E+02  0.00000000000E+00 0.  1.
         11    1    3    3    0    0 -0.41930155323E+01  0.14793568123E+02 -0.15986475557E+02  0.22181037804E+02  0.51100000000E-03 0. -1.
        -11    1    3    3    0    0 -0.49848639435E+01  0.26448671766E+00  0.40226747116E+01  0.64109854044E+01  0.51100000000E-03 0.  1.
        -12    1    3    3    0    0 -0.19391024847E+02  0.48251377056E+01 -0.90515221253E+01  0.21936814976E+02  0.00000000000E+00 0.  1.
</event>
<event>
 7    1  0.5839176E-013  0.5052886E+02  0.7816164E-02  0.1300439E+00
        -11   -1    0    0    0    0  0.00000000000E+00  0.00000000000E+00  0.45593999997E+02  0.45594000000E+02  0.51100000000E-03 0.  1.
         11   -1    0    0    0    0 -0.00000000000E+00 -0.00000000000E+00 -0.45593999997E+02  0.45594000000E+02  0.51100000000E-03 0. -1.
    9900012    2    1    2    0    0  0.30581771938E+00  0.12571181457E+02 -0.38665718276E+02  0.50528857147E+02  0.29999991784E+02 0.  0.
        -12    1    1    2    0    0 -0.30581771938E+00 -0.12571181457E+02  0.38665718276E+02  0.40659142853E+02  0.00000000000E+00 0.  1.
         11    1    3    3    0    0  0.32045078344E+01  0.21058950133E+01 -0.36289423671E+02  0.36491450162E+02  0.51100000000E-03 0. -1.
        -11    1    3    3    0    0  0.53098396190E-01 -0.93668870368E+00 -0.20506100635E+01  0.22550403679E+01  0.51100000000E-03 0.  1.
        -12    1    3    3    0    0 -0.29517885112E+01  0.11401975148E+02 -0.32568454187E+00  0.11782366617E+02  0.00000000000E+00 0.  1.
</event>
<event>
 7    1  0.5839176E-013  0.5052887E+02  0.7816164E-02  0.1300439E+00
        -11   -1    0    0    0    0  0.00000000000E+00  0.00000000000E+00  0.45593999997E+02  0.45594000000E+02  0.51100000000E-03 0.  1.
         11   -1    0    0    0    0 -0.00000000000E+00 -0.00000000000E+00 -0.45593999997E+02  0.45594000000E+02  0.51100000000E-03 0. -1.
    9900012    2    1    2    0    0 -0.32459161014E+02  0.19438835127E+02 -0.14889585726E+02  0.50528865627E+02  0.30000017561E+02 0.  0.
        -12    1    1    2    0    0  0.32459161014E+02 -0.19438835127E+02  0.14889585726E+02  0.40659134373E+02  0.00000000000E+00 0.  1.
         11    1    3    3    0    0 -0.18848108894E+02  0.19526227169E+02 -0.99438586459E+01  0.28903374913E+02  0.51100000000E-03 0. -1.
        -11    1    3    3    0    0 -0.88183167698E+01  0.49288995974E+00  0.52993331271E+01  0.10299931214E+02  0.51100000000E-03 0.  1.
         12    1    3    3    0    0 -0.47927353504E+01 -0.58028200171E+00 -0.10245060207E+02  0.11325559500E+02  0.00000000000E+00 0. -1.
</event>
<event>
 7    1  0.5839176E-013  0.5052886E+02  0.7816164E-02  0.1300439E+00
        -11   -1    0    0    0    0  0.00000000000E+00  0.00000000000E+00  0.45593999997E+02  0.45594000000E+02  0.51100000000E-03 0.  1.
         11   -1    0    0    0    0 -0.00000000000E+00 -0.00000000000E+00 -0.45593999997E+02  0.45594000000E+02  0.51100000000E-03 0. -1.
    9900012    2    1    2    0    0 -0.26167736764E+00 -0.10537805359E+02 -0.39268967525E+02  0.50528860470E+02  0.30000001885E+02 0.  0.
        -12    1    1    2    0    0  0.26167736764E+00  0.10537805359E+02  0.39268967525E+02  0.40659139530E+02  0.00000000000E+00 0.  1.
         11    1    3    3    0    0  0.12878292792E+01 -0.46601438278E-01  0.39225165631E+00  0.13470477235E+01  0.51100000000E-03 0. -1.
        -11    1    3    3    0    0  0.34858512057E+01 -0.18281115264E+02 -0.32546955183E+02  0.37492060838E+02  0.51100000000E-03 0.  1.
        -12    1    3    3    0    0 -0.50353578526E+01  0.77899113435E+01 -0.71142639978E+01  0.11689751908E+02  0.00000000000E+00 0.  1.
</event>
<event>
 7    1  0.5839176E-013  0.5052886E+02  0.7816164E-02  0.1300439E+00
        -11   -1    0    0    0    0  0.00000000000E+00  0.00000000000E+00  0.45593999997E+02  0.45594000000E+02  0.51100000000E-03 0.  1.
         11   -1    0    0    0    0 -0.00000000000E+00 -0.00000000000E+00 -0.45593999997E+02  0.45594000000E+02  0.51100000000E-03 0. -1.
    9900012    2    1    2    0    0 -0.25607395683E+02  0.14798523953E+02 -0.27900365632E+02  0.50528862930E+02  0.30000009363E+02 0.  0.
        -12    1    1    2    0    0  0.25607395683E+02 -0.14798523953E+02  0.27900365632E+02  0.40659137070E+02  0.00000000000E+00 0.  1.
         11    1    3    3    0    0 -0.30528087407E+01  0.92687578028E+01  0.73097729505E+00  0.97859000854E+01  0.51100000000E-03 0. -1.
        -11    1    3    3    0    0  0.27493536024E+01  0.12956055433E+01 -0.14553117258E+01  0.33697880401E+01  0.51100000000E-03 0.  1.
         12    1    3    3    0    0 -0.25303940545E+02  0.42341606071E+01 -0.27176031201E+02  0.37373174805E+02  0.00000000000E+00 0. -1.
</event>
<event>
 7    1  0.5839176E-013  0.5052886E+02  0.7816164E-02  0.1300439E+00
        -11   -1    0    0    0    0  0.00000000000E+00  0.00000000000E+00  0.45593999997E+02  0.45594000000E+02  0.51100000000E-03 0. -1.
         11   -1    0    0    0    0 -0.00000000000E+00 -0.00000000000E+00 -0.45593999997E+02  0.45594000000E+02  0.51100000000E-03 0.  1.
    9900012    2    1    2    0    0  0.11236451428E+02  0.39073926185E+02  0.36889762720E+00  0.50528860392E+02  0.30000001647E+02 0.  0.
        -12    1    1    2    0    0 -0.11236451428E+02 -0.39073926185E+02 -0.36889762720E+00  0.40659139608E+02  0.00000000000E+00 0.  1.
         11    1    3    3    0    0  0.53598873088E+01  0.50408089533E+01 -0.25777842658E+01  0.77963529197E+01  0.51100000000E-03 0.  1.
        -11    1    3    3    0    0  0.90219160628E+01  0.14195611213E+02 -0.92882856841E+01  0.19214124970E+02  0.51100000000E-03 0. -1.
         12    1    3    3    0    0 -0.31453519438E+01  0.19837506019E+02  0.12234967577E+02  0.23518382502E+02  0.00000000000E+00 0. -1.
</event>
<event>
 7    1  0.5839176E-013  0.5052886E+02  0.7816164E-02  0.1300439E+00
        -11   -1    0    0    0    0  0.00000000000E+00  0.00000000000E+00  0.45593999997E+02  0.45594000000E+02  0.51100000000E-03 0. -1.
         11   -1    0    0    0    0 -0.00000000000E+00 -0.00000000000E+00 -0.45593999997E+02  0.45594000000E+02  0.51100000000E-03 0.  1.
    9900012    2    1    2    0    0 -0.13327830480E+01  0.43818039878E+01  0.40400359370E+02  0.50528861371E+02  0.30000004622E+02 0.  0.
        -12    1    1    2    0    0  0.13327830480E+01 -0.43818039878E+01 -0.40400359370E+02  0.40659138629E+02  0.00000000000E+00 0.  1.
         11    1    3    3    0    0  0.36149774147E+00  0.57776210178E+01  0.18401514749E+01  0.60743512373E+01  0.51100000000E-03 0. -1.
        -11    1    3    3    0    0 -0.51056081668E+01  0.66079565495E+01  0.48870679199E+01  0.96755236359E+01  0.51100000000E-03 0.  1.
         12    1    3    3    0    0  0.34113273774E+01 -0.80037735795E+01  0.33673139975E+02  0.34778986497E+02  0.00000000000E+00 0. -1.
</event>
<event>
 7    1  0.5839176E-013  0.5052886E+02  0.7816164E-02  0.1300439E+00
        -11   -1    0    0    0    0  0.00000000000E+00  0.00000000000E+00  0.45593999997E+02  0.45594000000E+02  0.51100000000E-03 0.  1.
         11   -1    0    0    0    0 -0.00000000000E+00 -0.00000000000E+00 -0.45593999997E+02  0.45594000000E+02  0.51100000000E-03 0. -1.
    9900012    2    1    2    0    0 -0.62510133839E+01 -0.58544756849E+01 -0.39746893007E+02  0.50528861328E+02  0.30000004492E+02 0.  0.
        -12    1    1    2    0    0  0.62510133839E+01  0.58544756849E+01  0.39746893007E+02  0.40659138672E+02  0.00000000000E+00 0.  1.
         11    1    3    3    0    0  0.53972241853E+01 -0.62915483736E+01 -0.47068666659E+01  0.95324815193E+01  0.51100000000E-03 0. -1.
        -11    1    3    3    0    0 -0.32356901134E+01 -0.25367561408E+00  0.14413229168E+01  0.35512608801E+01  0.51100000000E-03 0.  1.
         12    1    3    3    0    0 -0.84125474559E+01  0.69074830276E+00 -0.36481349258E+02  0.37445118928E+02  0.00000000000E+00 0. -1.
</event>
<event>
 7    1  0.5839176E-013  0.5052887E+02  0.7816164E-02  0.1300439E+00
        -11   -1    0    0    0    0  0.00000000000E+00  0.00000000000E+00  0.45593999997E+02  0.45594000000E+02  0.51100000000E-03 0.  1.
         11   -1    0    0    0    0 -0.00000000000E+00 -0.00000000000E+00 -0.45593999997E+02  0.45594000000E+02  0.51100000000E-03 0. -1.
    9900012    2    1    2    0    0  0.51384396472E+01 -0.30257807739E+02 -0.26668833704E+02  0.50528865942E+02  0.30000018517E+02 0.  0.
        -12    1    1    2    0    0 -0.51384396472E+01  0.30257807739E+02  0.26668833704E+02  0.40659134058E+02  0.00000000000E+00 0.  1.
         11    1    3    3    0    0  0.65907995465E+01 -0.65260818601E+01 -0.12675133607E+02  0.15706285217E+02  0.51100000000E-03 0. -1.
        -11    1    3    3    0    0  0.79450373402E+01 -0.15178726824E+02 -0.13985228207E+02  0.22115695209E+02  0.51100000000E-03 0.  1.
        -12    1    3    3    0    0 -0.93973972395E+01 -0.85529990558E+01 -0.84718901560E-02  0.12706885515E+02  0.00000000000E+00 0.  1.
</event>
<event>
 7    1  0.5839176E-013  0.5052889E+02  0.7816164E-02  0.1300439E+00
        -11   -1    0    0    0    0  0.00000000000E+00  0.00000000000E+00  0.45593999997E+02  0.45594000000E+02  0.51100000000E-03 0.  1.
         11   -1    0    0    0    0 -0.00000000000E+00 -0.00000000000E+00 -0.45593999997E+02  0.45594000000E+02  0.51100000000E-03 0. -1.
    9900012    2    1    2    0    0 -0.34109117404E+02 -0.14620969685E+02 -0.16611992013E+02  0.50528893723E+02  0.30000102959E+02 0.  0.
        -12    1    1    2    0    0  0.34109117404E+02  0.14620969685E+02  0.16611992013E+02  0.40659106277E+02  0.00000000000E+00 0.  1.
         11    1    3    3    0    0 -0.51247274865E+01 -0.98399006001E+01 -0.14059247950E+02  0.17909464783E+02  0.51100000000E-03 0. -1.
        -11    1    3    3    0    0 -0.56780718867E+01  0.46433487843E+01  0.13737817048E+00  0.73362157347E+01  0.51100000000E-03 0.  1.
         12    1    3    3    0    0 -0.23306318031E+02 -0.94244178692E+01 -0.26901222334E+01  0.25283213205E+02  0.00000000000E+00 0. -1.
</event>
<event>
 7    1  0.5839176E-013  0.5052884E+02  0.7816164E-02  0.1300439E+00
        -11   -1    0    0    0    0  0.00000000000E+00  0.00000000000E+00  0.45593999997E+02  0.45594000000E+02  0.51100000000E-03 0.  1.
         11   -1    0    0    0    0 -0.00000000000E+00 -0.00000000000E+00 -0.45593999997E+02  0.45594000000E+02  0.51100000000E-03 0. -1.
    9900012    2    1    2    0    0 -0.13118490163E+02 -0.31602338211E+02 -0.21962807121E+02  0.50528837918E+02  0.29999933335E+02 0.  0.
        -12    1    1    2    0    0  0.13118490163E+02  0.31602338211E+02  0.21962807121E+02  0.40659162082E+02  0.00000000000E+00 0.  1.
         11    1    3    3    0    0 -0.53862629062E+00 -0.65011438933E+01 -0.49101348271E+01  0.81648278906E+01  0.51100000000E-03 0.  1.
        -11    1    3    3    0    0  0.23429884517E+01 -0.22482839008E+02 -0.53743510040E+01  0.23234700208E+02  0.51100000000E-03 0. -1.
        -12    1    3    3    0    0 -0.14922852324E+02 -0.26183553092E+01 -0.11678321290E+02  0.19129309820E+02  0.00000000000E+00 0.  1.
</event>
<event>
 7    1  0.5839176E-013  0.5052887E+02  0.7816164E-02  0.1300439E+00
        -11   -1    0    0    0    0  0.00000000000E+00  0.00000000000E+00  0.45593999997E+02  0.45594000000E+02  0.51100000000E-03 0. -1.
         11   -1    0    0    0    0 -0.00000000000E+00 -0.00000000000E+00 -0.45593999997E+02  0.45594000000E+02  0.51100000000E-03 0.  1.
    9900012    2    1    2    0    0 -0.22605469508E+02 -0.31277754604E+02 -0.12800763062E+02  0.50528871631E+02  0.30000035810E+02 0.  0.
        -12    1    1    2    0    0  0.22605469508E+02  0.31277754604E+02  0.12800763062E+02  0.40659128369E+02  0.00000000000E+00 0.  1.
         11    1    3    3    0    0 -0.11190462846E+02 -0.25903685862E+02 -0.26665378308E+01  0.28343214783E+02  0.51100000000E-03 0. -1.
        -11    1    3    3    0    0 -0.92262988161E+01 -0.10167557792E+02 -0.44457431137E+01  0.14431509048E+02  0.51100000000E-03 0.  1.
        -12    1    3    3    0    0 -0.21887078466E+01  0.47934890504E+01 -0.56884821177E+01  0.77541478008E+01  0.00000000000E+00 0.  1.
</event>
<event>
 7    1  0.5839176E-013  0.5052886E+02  0.7816164E-02  0.1300439E+00
        -11   -1    0    0    0    0  0.00000000000E+00  0.00000000000E+00  0.45593999997E+02  0.45594000000E+02  0.51100000000E-03 0.  1.
         11   -1    0    0    0    0 -0.00000000000E+00 -0.00000000000E+00 -0.45593999997E+02  0.45594000000E+02  0.51100000000E-03 0. -1.
    9900012    2    1    2    0    0  0.27106281704E+02  0.29907749994E+02 -0.48930008296E+01  0.50528862347E+02  0.30000007590E+02 0.  0.
        -12    1    1    2    0    0 -0.27106281704E+02 -0.29907749994E+02  0.48930008296E+01  0.40659137653E+02  0.00000000000E+00 0.  1.
         11    1    3    3    0    0  0.25322934009E+01  0.11792746402E+02 -0.22072075568E+01  0.12261857242E+02  0.51100000000E-03 0. -1.
        -11    1    3    3    0    0 -0.38198261200E+01  0.62611092660E+01  0.39050428446E+00  0.73447297217E+01  0.51100000000E-03 0.  1.
         12    1    3    3    0    0  0.28393814423E+02  0.11853894326E+02 -0.30762975573E+01  0.30922275383E+02  0.00000000000E+00 0. -1.
</event>
<event>
 7    1  0.5839176E-013  0.5052886E+02  0.7816164E-02  0.1300439E+00
        -11   -1    0    0    0    0  0.00000000000E+00  0.00000000000E+00  0.45593999997E+02  0.45594000000E+02  0.51100000000E-03 0. -1.
         11   -1    0    0    0    0 -0.00000000000E+00 -0.00000000000E+00 -0.45593999997E+02  0.45594000000E+02  0.51100000000E-03 0.  1.
    9900012    2    1    2    0    0  0.13931794489E+02 -0.18521819307E+01  0.38152848358E+02  0.50528864330E+02  0.30000013618E+02 0.  0.
        -12    1    1    2    0    0 -0.13931794489E+02  0.18521819307E+01 -0.38152848358E+02  0.40659135670E+02  0.00000000000E+00 0.  1.
         11    1    3    3    0    0  0.13578110632E+02  0.25524538472E+01  0.98164049177E+01  0.16948212730E+02  0.51100000000E-03 0. -1.
        -11    1    3    3    0    0  0.54225302408E+01 -0.82430051411E+01  0.94869742836E+01  0.13687718922E+02  0.51100000000E-03 0.  1.
        -12    1    3    3    0    0 -0.50688463845E+01  0.38383693633E+01  0.18849469157E+02  0.19892932678E+02  0.00000000000E+00 0.  1.
</event>
<event>
 7    1  0.5839176E-013  0.5052888E+02  0.7816164E-02  0.1300439E+00
        -11   -1    0    0    0    0  0.00000000000E+00  0.00000000000E+00  0.45593999997E+02  0.45594000000E+02  0.51100000000E-03 0.  1.
         11   -1    0    0    0    0 -0.00000000000E+00 -0.00000000000E+00 -0.45593999997E+02  0.45594000000E+02  0.51100000000E-03 0. -1.
    9900012    2    1    2    0    0  0.81990380333E+01  0.12167876935E+02 -0.37919423283E+02  0.50528879056E+02  0.30000058379E+02 0.  0.
        -12    1    1    2    0    0 -0.81990380333E+01 -0.12167876935E+02  0.37919423283E+02  0.40659120944E+02  0.00000000000E+00 0.  1.
         11    1    3    3    0    0  0.57546743767E+01  0.34429080998E+01 -0.13708917501E+02  0.15261202858E+02  0.51100000000E-03 0. -1.
        -11    1    3    3    0    0  0.14766590510E+00  0.13954789928E+02 -0.25805395093E+02  0.29337286570E+02  0.51100000000E-03 0.  1.
        -12    1    3    3    0    0  0.22966977515E+01 -0.52298210927E+01  0.15948893106E+01  0.59303896277E+01  0.00000000000E+00 0.  1.
</event>
<event>
 7    1  0.5839176E-013  0.5052886E+02  0.7816164E-02  0.1300439E+00
        -11   -1    0    0    0    0  0.00000000000E+00  0.00000000000E+00  0.45593999997E+02  0.45594000000E+02  0.51100000000E-03 0. -1.
         11   -1    0    0    0    0 -0.00000000000E+00 -0.00000000000E+00 -0.45593999997E+02  0.45594000000E+02  0.51100000000E-03 0.  1.
    9900012    2    1    2    0    0 -0.15388512402E+02  0.31690528722E+02 -0.20299510521E+02  0.50528855248E+02  0.29999986011E+02 0.  0.
        -12    1    1    2    0    0  0.15388512402E+02 -0.31690528722E+02  0.20299510521E+02  0.40659144752E+02  0.00000000000E+00 0.  1.
         11    1    3    3    0    0 -0.26868863465E+01  0.83678005236E+00 -0.90212771608E+00  0.29552315937E+01  0.51100000000E-03 0. -1.
        -11    1    3    3    0    0 -0.96259359077E+01 -0.24866406988E+01 -0.49809361504E+01  0.11119880811E+02  0.51100000000E-03 0.  1.
         12    1    3    3    0    0 -0.30756901476E+01  0.33340389368E+02 -0.14416446655E+02  0.36453742843E+02  0.00000000000E+00 0. -1.
</event>
<event>
 7    1  0.5839176E-013  0.5052884E+02  0.7816164E-02  0.1300439E+00
        -11   -1    0    0    0    0  0.00000000000E+00  0.00000000000E+00  0.45593999997E+02  0.45594000000E+02  0.51100000000E-03 0.  1.
         11   -1    0    0    0    0 -0.00000000000E+00 -0.00000000000E+00 -0.45593999997E+02  0.45594000000E+02  0.51100000000E-03 0. -1.
    9900012    2    1    2    0    0 -0.10016799673E+01  0.11941381674E+02 -0.38853150402E+02  0.50528840452E+02  0.29999941037E+02 0.  0.
        -12    1    1    2    0    0  0.10016799673E+01 -0.11941381674E+02  0.38853150402E+02  0.40659159548E+02  0.00000000000E+00 0.  1.
         11    1    3    3    0    0 -0.10272016741E+02  0.10952153251E+02 -0.95359836682E+01  0.17787607302E+02  0.51100000000E-03 0. -1.
        -11    1    3    3    0    0  0.16463312732E+01  0.89933849757E+00  0.51886472897E+00  0.19463908298E+01  0.51100000000E-03 0.  1.
        -12    1    3    3    0    0  0.76240055008E+01  0.89889925664E-01 -0.29836031462E+02  0.30794842320E+02  0.00000000000E+00 0.  1.
</event>
<event>
 7    1  0.5839176E-013  0.5052885E+02  0.7816164E-02  0.1300439E+00
        -11   -1    0    0    0    0  0.00000000000E+00  0.00000000000E+00  0.45593999997E+02  0.45594000000E+02  0.51100000000E-03 0.  1.
         11   -1    0    0    0    0 -0.00000000000E+00 -0.00000000000E+00 -0.45593999997E+02  0.45594000000E+02  0.51100000000E-03 0. -1.
    9900012    2    1    2    0    0 -0.38941589983E+02 -0.84322762162E+01 -0.81003427937E+01  0.50528852617E+02  0.29999978014E+02 0.  0.
        -12    1    1    2    0    0  0.38941589983E+02  0.84322762162E+01  0.81003427937E+01  0.40659147383E+02  0.00000000000E+00 0.  1.
         11    1    3    3    0    0 -0.89603786131E+01  0.76829706989E+01 -0.91023833019E+01  0.14905361642E+02  0.51100000000E-03 0.  1.
        -11    1    3    3    0    0 -0.38624986735E+01  0.93499322532E+00  0.19309877230E+01  0.44183506178E+01  0.51100000000E-03 0. -1.
         12    1    3    3    0    0 -0.26118712696E+02 -0.17050240140E+02 -0.92894721479E+00  0.31205140357E+02  0.00000000000E+00 0. -1.
</event>
<event>
 7    1  0.5839176E-013  0.5052881E+02  0.7816164E-02  0.1300439E+00
        -11   -1    0    0    0    0  0.00000000000E+00  0.00000000000E+00  0.45593999997E+02  0.45594000000E+02  0.51100000000E-03 0. -1.
         11   -1    0    0    0    0 -0.00000000000E+00 -0.00000000000E+00 -0.45593999997E+02  0.45594000000E+02  0.51100000000E-03 0.  1.
    9900012    2    1    2    0    0 -0.25944630231E+02 -0.97450043019E+01  0.29750308592E+02  0.50528809059E+02  0.29999845615E+02 0.  0.
        -12    1    1    2    0    0  0.25944630231E+02  0.97450043019E+01 -0.29750308592E+02  0.40659190941E+02  0.00000000000E+00 0.  1.
         11    1    3    3    0    0 -0.19132157748E+02  0.18400574774E+01  0.95881095575E+01  0.21479225236E+02  0.51100000000E-03 0. -1.
        -11    1    3    3    0    0 -0.21981178283E+01 -0.70539154236E+01 -0.49371682879E+00  0.74049443859E+01  0.51100000000E-03 0.  1.
         12    1    3    3    0    0 -0.46143546548E+01 -0.45311463558E+01  0.20655915864E+02  0.21644639437E+02  0.00000000000E+00 0. -1.
</event>
<event>
 7    1  0.5839176E-013  0.5052887E+02  0.7816164E-02  0.1300439E+00
        -11   -1    0    0    0    0  0.00000000000E+00  0.00000000000E+00  0.45593999997E+02  0.45594000000E+02  0.51100000000E-03 0.  1.
         11   -1    0    0    0    0 -0.00000000000E+00 -0.00000000000E+00 -0.45593999997E+02  0.45594000000E+02  0.51100000000E-03 0. -1.
    9900012    2    1    2    0    0 -0.20706324744E+02  0.34805897705E+02 -0.36003703199E+01  0.50528867374E+02  0.30000022871E+02 0.  0.
        -12    1    1    2    0    0  0.20706324744E+02 -0.34805897705E+02  0.36003703199E+01  0.40659132626E+02  0.00000000000E+00 0.  1.
         11    1    3    3    0    0 -0.27795478087E+00  0.71352483469E+01  0.15810443796E+01  0.73135989378E+01  0.51100000000E-03 0.  1.
        -11    1    3    3    0    0  0.59671774077E+01  0.45621936940E+01 -0.29259443031E+01  0.80611393638E+01  0.51100000000E-03 0. -1.
         12    1    3    3    0    0 -0.26395547371E+02  0.23108455664E+02 -0.22554703964E+01  0.35154129073E+02  0.00000000000E+00 0. -1.
</event>
<event>
 7    1  0.5839176E-013  0.5052887E+02  0.7816164E-02  0.1300439E+00
        -11   -1    0    0    0    0  0.00000000000E+00  0.00000000000E+00  0.45593999997E+02  0.45594000000E+02  0.51100000000E-03 0.  1.
         11   -1    0    0    0    0 -0.00000000000E+00 -0.00000000000E+00 -0.45593999997E+02  0.45594000000E+02  0.51100000000E-03 0. -1.
    9900012    2    1    2    0    0 -0.31551533215E+02  0.11747973745E+02 -0.22795848875E+02  0.50528869891E+02  0.30000030520E+02 0.  0.
        -12    1    1    2    0    0  0.31551533215E+02 -0.11747973745E+02  0.22795848875E+02  0.40659130109E+02  0.00000000000E+00 0.  1.
         11    1    3    3    0    0 -0.15663046684E+02 -0.35296949883E+01 -0.46693664484E+01  0.16721027523E+02  0.51100000000E-03 0. -1.
        -11    1    3    3    0    0 -0.25566661029E+01 -0.18114534103E+01  0.24072955523E+01  0.39513259998E+01  0.51100000000E-03 0.  1.
         12    1    3    3    0    0 -0.13331820428E+02  0.17089122143E+02 -0.20533777979E+02  0.29856516368E+02  0.00000000000E+00 0. -1.
</event>
<event>
 7    1  0.5839176E-013  0.5052888E+02  0.7816164E-02  0.1300439E+00
        -11   -1    0    0    0    0  0.00000000000E+00  0.00000000000E+00  0.45593999997E+02  0.45594000000E+02  0.51100000000E-03 0. -1.
         11   -1    0    0    0    0 -0.00000000000E+00 -0.00000000000E+00 -0.45593999997E+02  0.45594000000E+02  0.51100000000E-03 0.  1.
    9900012    2    1    2    0    0 -0.37532012224E+02 -0.13743369227E+02  0.74586633735E+01  0.50528882958E+02  0.30000070239E+02 0.  0.
        -12    1    1    2    0    0  0.37532012224E+02  0.13743369227E+02 -0.74586633735E+01  0.40659117042E+02  0.00000000000E+00 0.  1.
         11    1    3    3    0    0 -0.66579265096E+01  0.13773879473E+01  0.65047674286E+01  0.94094198825E+01  0.51100000000E-03 0. -1.
        -11    1    3    3    0    0 -0.18023416697E+02 -0.14870660103E+01 -0.86714192127E+01  0.20056131884E+02  0.51100000000E-03 0.  1.
         12    1    3    3    0    0 -0.12850669018E+02 -0.13633691164E+02  0.96253151576E+01  0.21063331191E+02  0.00000000000E+00 0. -1.
</event>
<event>
 7    1  0.5839176E-013  0.5052887E+02  0.7816164E-02  0.1300439E+00
        -11   -1    0    0    0    0  0.00000000000E+00  0.00000000000E+00  0.45593999997E+02  0.45594000000E+02  0.51100000000E-03 0. -1.
         11   -1    0    0    0    0 -0.00000000000E+00 -0.00000000000E+00 -0.45593999997E+02  0.45594000000E+02  0.51100000000E-03 0.  1.
    9900012    2    1    2    0    0 -0.13787315903E+02 -0.21070997995E+02  0.31923161103E+02  0.50528865096E+02  0.30000015946E+02 0.  0.
        -12    1    1    2    0    0  0.13787315903E+02  0.21070997995E+02 -0.31923161103E+02  0.40659134904E+02  0.00000000000E+00 0.  1.
         11    1    3    3    0    0 -0.27929227035E+01  0.84212619065E+00  0.42726851390E+00  0.29482456466E+01  0.51100000000E-03 0. -1.
        -11    1    3    3    0    0 -0.12036048752E+01  0.41769491253E+01 -0.13068615232E+01  0.45391029943E+01  0.51100000000E-03 0.  1.
         12    1    3    3    0    0 -0.97907883238E+01 -0.26090073311E+02  0.32802754113E+02  0.43041516455E+02  0.00000000000E+00 0. -1.
</event>
<event>
 7    1  0.5839176E-013  0.5052887E+02  0.7816164E-02  0.1300439E+00
        -11   -1    0    0    0    0  0.00000000000E+00  0.00000000000E+00  0.45593999997E+02  0.45594000000E+02  0.51100000000E-03 0.  1.
         11   -1    0    0    0    0 -0.00000000000E+00 -0.00000000000E+00 -0.45593999997E+02  0.45594000000E+02  0.51100000000E-03 0. -1.
    9900012    2    1    2    0    0  0.12566409880E+02 -0.10925131002E+02 -0.37093017072E+02  0.50528867444E+02  0.30000023082E+02 0.  0.
        -12    1    1    2    0    0 -0.12566409880E+02  0.10925131002E+02  0.37093017072E+02  0.40659132556E+02  0.00000000000E+00 0.  1.
         11    1    3    3    0    0 -0.59891488559E+01 -0.42645604184E+01 -0.11397304606E+02  0.13562998640E+02  0.51100000000E-03 0. -1.
        -11    1    3    3    0    0 -0.82451035410E+00  0.87762910709E+00  0.19988259413E+01  0.23335285682E+01  0.51100000000E-03 0.  1.
         12    1    3    3    0    0  0.19380069090E+02 -0.75381996910E+01 -0.27694538408E+02  0.34632340235E+02  0.00000000000E+00 0. -1.
</event>
<event>
 7    1  0.5839176E-013  0.5052887E+02  0.7816164E-02  0.1300439E+00
        -11   -1    0    0    0    0  0.00000000000E+00  0.00000000000E+00  0.45593999997E+02  0.45594000000E+02  0.51100000000E-03 0. -1.
         11   -1    0    0    0    0 -0.00000000000E+00 -0.00000000000E+00 -0.45593999997E+02  0.45594000000E+02  0.51100000000E-03 0.  1.
    9900012    2    1    2    0    0 -0.16304145067E+02 -0.29596586830E+02  0.22613751313E+02  0.50528870068E+02  0.30000031059E+02 0.  0.
        -12    1    1    2    0    0  0.16304145067E+02  0.29596586830E+02 -0.22613751313E+02  0.40659129932E+02  0.00000000000E+00 0.  1.
         11    1    3    3    0    0 -0.43409934040E+00 -0.53701559713E+01  0.84580829689E+01  0.10028269301E+02  0.51100000000E-03 0.  1.
        -11    1    3    3    0    0 -0.12469906299E+02 -0.11488193240E+02  0.19879084383E+02  0.26127670068E+02  0.51100000000E-03 0. -1.
        -12    1    3    3    0    0 -0.34001394281E+01 -0.12738237618E+02 -0.57234160383E+01  0.14372930699E+02  0.00000000000E+00 0.  1.
</event>
<event>
 7    1  0.5839176E-013  0.5052887E+02  0.7816164E-02  0.1300439E+00
        -11   -1    0    0    0    0  0.00000000000E+00  0.00000000000E+00  0.45593999997E+02  0.45594000000E+02  0.51100000000E-03 0.  1.
         11   -1    0    0    0    0 -0.00000000000E+00 -0.00000000000E+00 -0.45593999997E+02  0.45594000000E+02  0.51100000000E-03 0. -1.
    9900012    2    1    2    0    0  0.31093759226E+01  0.35130736368E+02 -0.20231854037E+02  0.50528870961E+02  0.30000033773E+02 0.  0.
        -12    1    1    2    0    0 -0.31093759226E+01 -0.35130736368E+02  0.20231854037E+02  0.40659129039E+02  0.00000000000E+00 0.  1.
         11    1    3    3    0    0 -0.80265890029E+00  0.54953649194E+01 -0.11126786764E+01  0.56640401663E+01  0.51100000000E-03 0. -1.
        -11    1    3    3    0    0 -0.89864117140E+01  0.83847344486E+00 -0.38840366087E+01  0.98256996621E+01  0.51100000000E-03 0.  1.
         12    1    3    3    0    0  0.12898446537E+02  0.28796898004E+02 -0.15235138752E+02  0.35039131133E+02  0.00000000000E+00 0. -1.
</event>
<event>
 7    1  0.5839176E-013  0.5052885E+02  0.7816164E-02  0.1300439E+00
        -11   -1    0    0    0    0  0.00000000000E+00  0.00000000000E+00  0.45593999997E+02  0.45594000000E+02  0.51100000000E-03 0. -1.
         11   -1    0    0    0    0 -0.00000000000E+00 -0.00000000000E+00 -0.45593999997E+02  0.45594000000E+02  0.51100000000E-03 0.  1.
    9900012    2    1    2    0    0 -0.93310465308E+01 -0.31516745119E+02  0.23933083124E+02  0.50528854411E+02  0.29999983467E+02 0.  0.
        -12    1    1    2    0    0  0.93310465308E+01  0.31516745119E+02 -0.23933083124E+02  0.40659145589E+02  0.00000000000E+00 0.  1.
         11    1    3    3    0    0 -0.14772065121E+02 -0.25481350247E+02  0.17026579787E+02  0.34020839758E+02  0.51100000000E-03 0. -1.
        -11    1    3    3    0    0 -0.26186806337E+01 -0.33733284028E+01  0.67875761549E+01  0.80192283353E+01  0.51100000000E-03 0.  1.
        -12    1    3    3    0    0  0.80596992238E+01 -0.26620664688E+01  0.11892718174E+00  0.84887863171E+01  0.00000000000E+00 0.  1.
</event>
<event>
 7    1  0.5839176E-013  0.5052885E+02  0.7816164E-02  0.1300439E+00
        -11   -1    0    0    0    0  0.00000000000E+00  0.00000000000E+00  0.45593999997E+02  0.45594000000E+02  0.51100000000E-03 0.  1.
         11   -1    0    0    0    0 -0.00000000000E+00 -0.00000000000E+00 -0.45593999997E+02  0.45594000000E+02  0.51100000000E-03 0. -1.
    9900012    2    1    2    0    0  0.97766661723E+00 -0.14042715079E+02 -0.38144630724E+02  0.50528849346E+02  0.29999968073E+02 0.  0.
        -12    1    1    2    0    0 -0.97766661723E+00  0.14042715079E+02  0.38144630724E+02  0.40659150654E+02  0.00000000000E+00 0.  1.
         11    1    3    3    0    0 -0.25836984507E+01 -0.65934587268E+01 -0.14152118429E+02  0.15825032447E+02  0.51100000000E-03 0. -1.
        -11    1    3    3    0    0  0.27732083410E+01  0.77206992124E+01 -0.14875013718E+02  0.16987227973E+02  0.51100000000E-03 0.  1.
         12    1    3    3    0    0  0.78815672697E+00 -0.15169955565E+02 -0.91174985771E+01  0.17716588926E+02  0.00000000000E+00 0. -1.
</event>
<event>
 7    1  0.5839176E-013  0.5052887E+02  0.7816164E-02  0.1300439E+00
        -11   -1    0    0    0    0  0.00000000000E+00  0.00000000000E+00  0.45593999997E+02  0.45594000000E+02  0.51100000000E-03 0.  1.
         11   -1    0    0    0    0 -0.00000000000E+00 -0.00000000000E+00 -0.45593999997E+02  0.45594000000E+02  0.51100000000E-03 0. -1.
    9900012    2    1    2    0    0  0.16280184885E+02  0.11115888655E+02 -0.35560619727E+02  0.50528867252E+02  0.30000022498E+02 0.  0.
        -12    1    1    2    0    0 -0.16280184885E+02 -0.11115888655E+02  0.35560619727E+02  0.40659132748E+02  0.00000000000E+00 0.  1.
         11    1    3    3    0    0  0.20149823926E+02  0.96048646926E+01 -0.27125842666E+02  0.35129477232E+02  0.51100000000E-03 0. -1.
        -11    1    3    3    0    0 -0.28457987773E+01 -0.52881965749E+01 -0.40915422725E+01  0.72666575620E+01  0.51100000000E-03 0.  1.
        -12    1    3    3    0    0 -0.10238402635E+01  0.67992205370E+01 -0.43432347883E+01  0.81327324573E+01  0.00000000000E+00 0.  1.
</event>
<event>
 7    1  0.5839176E-013  0.5052886E+02  0.7816164E-02  0.1300439E+00
        -11   -1    0    0    0    0  0.00000000000E+00  0.00000000000E+00  0.45593999997E+02  0.45594000000E+02  0.51100000000E-03 0.  1.
         11   -1    0    0    0    0 -0.00000000000E+00 -0.00000000000E+00 -0.45593999997E+02  0.45594000000E+02  0.51100000000E-03 0. -1.
    9900012    2    1    2    0    0 -0.12888116188E+02 -0.30405330793E+02  0.23718727239E+02  0.50528859560E+02  0.29999999117E+02 0.  0.
        -12    1    1    2    0    0  0.12888116188E+02  0.30405330793E+02 -0.23718727239E+02  0.40659140440E+02  0.00000000000E+00 0.  1.
         11    1    3    3    0    0 -0.59694246545E+01 -0.13131187746E+02 -0.93874141050E+00  0.14454873158E+02  0.51100000000E-03 0. -1.
        -11    1    3    3    0    0 -0.67352373281E+01 -0.72150997301E+01  0.47435720809E+00  0.98816041715E+01  0.51100000000E-03 0.  1.
        -12    1    3    3    0    0 -0.18345420552E+00 -0.10059043317E+02  0.24183111441E+02  0.26192382230E+02  0.00000000000E+00 0.  1.
</event>
<event>
 7    1  0.5839176E-013  0.5052886E+02  0.7816164E-02  0.1300439E+00
        -11   -1    0    0    0    0  0.00000000000E+00  0.00000000000E+00  0.45593999997E+02  0.45594000000E+02  0.51100000000E-03 0. -1.
         11   -1    0    0    0    0 -0.00000000000E+00 -0.00000000000E+00 -0.45593999997E+02  0.45594000000E+02  0.51100000000E-03 0.  1.
    9900012    2    1    2    0    0 -0.25086849903E+02  0.28865850116E+02  0.13805020651E+02  0.50528856672E+02  0.29999990339E+02 0.  0.
        -12    1    1    2    0    0  0.25086849903E+02 -0.28865850116E+02 -0.13805020651E+02  0.40659143328E+02  0.00000000000E+00 0.  1.
         11    1    3    3    0    0 -0.16219276321E+02  0.15858338989E+02 -0.15530747257E+01  0.22736839738E+02  0.51100000000E-03 0. -1.
        -11    1    3    3    0    0  0.25732390150E+01 -0.13043210074E+01 -0.11728613911E+01  0.31142280621E+01  0.51100000000E-03 0.  1.
         12    1    3    3    0    0 -0.11440812597E+02  0.14311832134E+02  0.16530956768E+02  0.24677788872E+02  0.00000000000E+00 0. -1.
</event>
<event>
 7    1  0.5839176E-013  0.5052886E+02  0.7816164E-02  0.1300439E+00
        -11   -1    0    0    0    0  0.00000000000E+00  0.00000000000E+00  0.45593999997E+02  0.45594000000E+02  0.51100000000E-03 0.  1.
         11   -1    0    0    0    0 -0.00000000000E+00 -0.00000000000E+00 -0.45593999997E+02  0.45594000000E+02  0.51100000000E-03 0. -1.
    9900012    2    1    2    0    0  0.22538308022E+02 -0.17270202392E+02 -0.29102071811E+02  0.50528858312E+02  0.29999995324E+02 0.  0.
        -12    1    1    2    0    0 -0.22538308022E+02  0.17270202392E+02  0.29102071811E+02  0.40659141688E+02  0.00000000000E+00 0.  1.
         11    1    3    3    0    0  0.53749773294E+01 -0.19337090395E+01 -0.15513623776E+02  0.16531852131E+02  0.51100000000E-03 0. -1.
        -11    1    3    3    0    0  0.17911609793E+02 -0.86483096939E+01 -0.17256315657E+02  0.26332479114E+02  0.51100000000E-03 0.  1.
        -12    1    3    3    0    0 -0.74827910076E+00 -0.66881836586E+01  0.36678676227E+01  0.76645270670E+01  0.00000000000E+00 0.  1.
</event>
<event>
 7    1  0.5839176E-013  0.5052884E+02  0.7816164E-02  0.1300439E+00
        -11   -1    0    0    0    0  0.00000000000E+00  0.00000000000E+00  0.45593999997E+02  0.45594000000E+02  0.51100000000E-03 0.  1.
         11   -1    0    0    0    0 -0.00000000000E+00 -0.00000000000E+00 -0.45593999997E+02  0.45594000000E+02  0.51100000000E-03 0. -1.
    9900012    2    1    2    0    0 -0.53783255777E+01 -0.27940443338E+02 -0.29044316575E+02  0.50528842541E+02  0.29999947389E+02 0.  0.
        -12    1    1    2    0    0  0.53783255777E+01  0.27940443338E+02  0.29044316575E+02  0.40659157459E+02  0.00000000000E+00 0.  1.
         11    1    3    3    0    0 -0.51251201464E+01 -0.63499342701E+01  0.41476150486E+01  0.91537551094E+01  0.51100000000E-03 0.  1.
        -11    1    3    3    0    0 -0.25982600341E+01 -0.16715998164E+02 -0.15749883338E+02  0.23113510665E+02  0.51100000000E-03 0. -1.
        -12    1    3    3    0    0  0.23450546028E+01 -0.48745109037E+01 -0.17442048285E+02  0.18261576767E+02  0.00000000000E+00 0.  1.
</event>
<event>
 7    1  0.5839176E-013  0.5052887E+02  0.7816164E-02  0.1300439E+00
        -11   -1    0    0    0    0  0.00000000000E+00  0.00000000000E+00  0.45593999997E+02  0.45594000000E+02  0.51100000000E-03 0.  1.
         11   -1    0    0    0    0 -0.00000000000E+00 -0.00000000000E+00 -0.45593999997E+02  0.45594000000E+02  0.51100000000E-03 0. -1.
    9900012    2    1    2    0    0  0.69800392746E+01 -0.16813694807E+02 -0.36355785906E+02  0.50528874946E+02  0.30000045886E+02 0.  0.
        -12    1    1    2    0    0 -0.69800392746E+01  0.16813694807E+02  0.36355785906E+02  0.40659125054E+02  0.00000000000E+00 0.  1.
         11    1    3    3    0    0  0.48595792354E+01  0.20893456254E+00 -0.98881722469E+01  0.11019760190E+02  0.51100000000E-03 0. -1.
        -11    1    3    3    0    0  0.46695444463E+00  0.50973799932E+01 -0.19170635320E+00  0.51223120596E+01  0.51100000000E-03 0.  1.
        -12    1    3    3    0    0  0.16535055946E+01 -0.22120009363E+02 -0.26275907306E+02  0.34386802697E+02  0.00000000000E+00 0.  1.
</event>
<event>
 7    1  0.5839176E-013  0.5052885E+02  0.7816164E-02  0.1300439E+00
        -11   -1    0    0    0    0  0.00000000000E+00  0.00000000000E+00  0.45593999997E+02  0.45594000000E+02  0.51100000000E-03 0.  1.
         11   -1    0    0    0    0 -0.00000000000E+00 -0.00000000000E+00 -0.45593999997E+02  0.45594000000E+02  0.51100000000E-03 0. -1.
    9900012    2    1    2    0    0  0.64796246762E+01  0.35701912640E+02  0.18345428674E+02  0.50528845369E+02  0.29999955982E+02 0.  0.
        -12    1    1    2    0    0 -0.64796246762E+01 -0.35701912640E+02 -0.18345428674E+02  0.40659154631E+02  0.00000000000E+00 0.  1.
         11    1    3    3    0    0  0.67507296603E+01  0.20455225835E+02  0.54685200812E+01  0.22223710920E+02  0.51100000000E-03 0. -1.
        -11    1    3    3    0    0 -0.14177895957E+01  0.13522191574E+02  0.18128136991E+02  0.22660298836E+02  0.51100000000E-03 0.  1.
         12    1    3    3    0    0  0.11466846116E+01  0.17244952300E+01 -0.52512283981E+01  0.56448356120E+01  0.00000000000E+00 0. -1.
</event>
<event>
 7    1  0.5839176E-013  0.5052887E+02  0.7816164E-02  0.1300439E+00
        -11   -1    0    0    0    0  0.00000000000E+00  0.00000000000E+00  0.45593999997E+02  0.45594000000E+02  0.51100000000E-03 0.  1.
         11   -1    0    0    0    0 -0.00000000000E+00 -0.00000000000E+00 -0.45593999997E+02  0.45594000000E+02  0.51100000000E-03 0. -1.
    9900012    2    1    2    0    0  0.28612719290E+02 -0.10619094498E+02 -0.26864703324E+02  0.50528866244E+02  0.30000019435E+02 0.  0.
        -12    1    1    2    0    0 -0.28612719290E+02  0.10619094498E+02  0.26864703324E+02  0.40659133756E+02  0.00000000000E+00 0.  1.
         11    1    3    3    0    0  0.15489269682E+02 -0.16168667131E+02 -0.20722426562E+02  0.30508396139E+02  0.51100000000E-03 0. -1.
        -11    1    3    3    0    0  0.40757225832E+01 -0.11618489677E+00 -0.81915783798E+01  0.91502442655E+01  0.51100000000E-03 0.  1.
         12    1    3    3    0    0  0.90477270243E+01  0.56657575296E+01  0.20493016174E+01  0.10870225840E+02  0.00000000000E+00 0. -1.
</event>
<event>
 7    1  0.5839176E-013  0.5052886E+02  0.7816164E-02  0.1300439E+00
        -11   -1    0    0    0    0  0.00000000000E+00  0.00000000000E+00  0.45593999997E+02  0.45594000000E+02  0.51100000000E-03 0. -1.
         11   -1    0    0    0    0 -0.00000000000E+00 -0.00000000000E+00 -0.45593999997E+02  0.45594000000E+02  0.51100000000E-03 0.  1.
    9900012    2    1    2    0    0  0.29181340062E+02  0.18223582104E+02  0.21668314745E+02  0.50528863064E+02  0.30000009770E+02 0.  0.
        -12    1    1    2    0    0 -0.29181340062E+02 -0.18223582104E+02 -0.21668314745E+02  0.40659136936E+02  0.00000000000E+00 0.  1.
         11    1    3    3    0    0  0.20142303245E+02  0.16448949574E+02  0.27781307453E+01  0.26153361788E+02  0.51100000000E-03 0. -1.
        -11    1    3    3    0    0  0.54271101735E+01  0.45139150374E+01  0.26918368813E+01  0.75547958183E+01  0.51100000000E-03 0.  1.
        -12    1    3    3    0    0  0.36119266432E+01 -0.27392825081E+01  0.16198347118E+02  0.16820705458E+02  0.00000000000E+00 0.  1.
</event>
<event>
 7    1  0.5839176E-013  0.5052886E+02  0.7816164E-02  0.1300439E+00
        -11   -1    0    0    0    0  0.00000000000E+00  0.00000000000E+00  0.45593999997E+02  0.45594000000E+02  0.51100000000E-03 0.  1.
         11   -1    0    0    0    0 -0.00000000000E+00 -0.00000000000E+00 -0.45593999997E+02  0.45594000000E+02  0.51100000000E-03 0. -1.
    9900012    2    1    2    0    0 -0.13496007020E+02  0.13227677267E+02 -0.36000720179E+02  0.50528861977E+02  0.30000006466E+02 0.  0.
        -12    1    1    2    0    0  0.13496007020E+02 -0.13227677267E+02  0.36000720179E+02  0.40659138023E+02  0.00000000000E+00 0.  1.
         11    1    3    3    0    0 -0.19734448688E+00 -0.32352090265E+01 -0.36238135544E+01  0.48618460722E+01  0.51100000000E-03 0. -1.
        -11    1    3    3    0    0 -0.81961634412E+01 -0.37628127762E+01 -0.18592910967E+02  0.20664757284E+02  0.51100000000E-03 0.  1.
        -12    1    3    3    0    0 -0.51024990921E+01  0.20225699070E+02 -0.13783995658E+02  0.25002258621E+02  0.00000000000E+00 0.  1.
</event>
<event>
 7    1  0.5839176E-013  0.5052883E+02  0.7816164E-02  0.1300439E+00
        -11   -1    0    0    0    0  0.00000000000E+00  0.00000000000E+00  0.45593999997E+02  0.45594000000E+02  0.51100000000E-03 0. -1.
         11   -1    0    0    0    0 -0.00000000000E+00 -0.00000000000E+00 -0.45593999997E+02  0.45594000000E+02  0.51100000000E-03 0.  1.
    9900012    2    1    2    0    0  0.37963761240E+01 -0.14615824756E+02  0.37750938421E+02  0.50528829366E+02  0.29999907341E+02 0.  0.
        -12    1    1    2    0    0 -0.37963761240E+01  0.14615824756E+02 -0.37750938421E+02  0.40659170634E+02  0.00000000000E+00 0.  1.
         11    1    3    3    0    0 -0.27393384963E+01 -0.65965660633E+01  0.42112632098E+01  0.82917668387E+01  0.51100000000E-03 0. -1.
        -11    1    3    3    0    0 -0.61011985048E+01 -0.84257336088E+01  0.24724801530E+02  0.26824120134E+02  0.51100000000E-03 0.  1.
        -12    1    3    3    0    0  0.12636913125E+02  0.40647491596E+00  0.88148736815E+01  0.15412942393E+02  0.00000000000E+00 0.  1.
</event>
<event>
 7    1  0.5839176E-013  0.5052886E+02  0.7816164E-02  0.1300439E+00
        -11   -1    0    0    0    0  0.00000000000E+00  0.00000000000E+00  0.45593999997E+02  0.45594000000E+02  0.51100000000E-03 0.  1.
         11   -1    0    0    0    0 -0.00000000000E+00 -0.00000000000E+00 -0.45593999997E+02  0.45594000000E+02  0.51100000000E-03 0. -1.
    9900012    2    1    2    0    0 -0.27291060187E+02  0.17297126579E+02 -0.24681440223E+02  0.50528855328E+02  0.29999986254E+02 0.  0.
        -12    1    1    2    0    0  0.27291060187E+02 -0.17297126579E+02  0.24681440223E+02  0.40659144672E+02  0.00000000000E+00 0.  1.
         11    1    3    3    0    0 -0.10496996380E+02  0.26255478667E+01 -0.78393825036E+01  0.13361749620E+02  0.51100000000E-03 0. -1.
        -11    1    3    3    0    0 -0.20640665232E+02  0.37597397093E+01 -0.14095476493E+02  0.25275584300E+02  0.51100000000E-03 0.  1.
        -12    1    3    3    0    0  0.38466014252E+01  0.10911839003E+02 -0.27465812265E+01  0.11891521408E+02  0.00000000000E+00 0.  1.
</event>
<event>
 7    1  0.5839176E-013  0.5052885E+02  0.7816164E-02  0.1300439E+00
        -11   -1    0    0    0    0  0.00000000000E+00  0.00000000000E+00  0.45593999997E+02  0.45594000000E+02  0.51100000000E-03 0.  1.
         11   -1    0    0    0    0 -0.00000000000E+00 -0.00000000000E+00 -0.45593999997E+02  0.45594000000E+02  0.51100000000E-03 0. -1.
    9900012    2    1    2    0    0 -0.12102301814E+02 -0.30935175613E+02 -0.23446012713E+02  0.50528852056E+02  0.29999976310E+02 0.  0.
        -12    1    1    2    0    0  0.12102301814E+02  0.30935175613E+02  0.23446012713E+02  0.40659147944E+02  0.00000000000E+00 0.  1.
         11    1    3    3    0    0  0.36070261033E+01 -0.71656899976E+00  0.28480165221E+01  0.46513768728E+01  0.51100000000E-03 0.  1.
        -11    1    3    3    0    0 -0.33184155736E+01 -0.17593737215E+02 -0.20602174679E+02  0.27294707781E+02  0.51100000000E-03 0. -1.
        -12    1    3    3    0    0 -0.12390912343E+02 -0.12624869399E+02 -0.56918545554E+01  0.18582767402E+02  0.00000000000E+00 0.  1.
</event>
<event>
 7    1  0.5839176E-013  0.5052887E+02  0.7816164E-02  0.1300439E+00
        -11   -1    0    0    0    0  0.00000000000E+00  0.00000000000E+00  0.45593999997E+02  0.45594000000E+02  0.51100000000E-03 0.  1.
         11   -1    0    0    0    0 -0.00000000000E+00 -0.00000000000E+00 -0.45593999997E+02  0.45594000000E+02  0.51100000000E-03 0. -1.
    9900012    2    1    2    0    0  0.31750630443E+02  0.24533004252E+02 -0.65722359617E+01  0.50528866749E+02  0.30000020971E+02 0.  0.
        -12    1    1    2    0    0 -0.31750630443E+02 -0.24533004252E+02  0.65722359617E+01  0.40659133251E+02  0.00000000000E+00 0.  1.
         11    1    3    3    0    0  0.22077533092E+02  0.27362328561E+01 -0.11911364203E+02  0.25234599960E+02  0.51100000000E-03 0. -1.
        -11    1    3    3    0    0  0.88507693734E+01  0.12786959758E+02  0.45975921215E+01  0.16216667720E+02  0.51100000000E-03 0.  1.
        -12    1    3    3    0    0  0.82232797745E+00  0.90098116380E+01  0.74153612024E+00  0.90775990699E+01  0.00000000000E+00 0.  1.
</event>
<event>
 7    1  0.5839176E-013  0.5052885E+02  0.7816164E-02  0.1300439E+00
        -11   -1    0    0    0    0  0.00000000000E+00  0.00000000000E+00  0.45593999997E+02  0.45594000000E+02  0.51100000000E-03 0.  1.
         11   -1    0    0    0    0 -0.00000000000E+00 -0.00000000000E+00 -0.45593999997E+02  0.45594000000E+02  0.51100000000E-03 0. -1.
    9900012    2    1    2    0    0 -0.37155473973E+02  0.39294542282E+01 -0.16037339566E+02  0.50528854448E+02  0.29999983579E+02 0.  0.
        -12    1    1    2    0    0  0.37155473973E+02 -0.39294542282E+01  0.16037339566E+02  0.40659145552E+02  0.00000000000E+00 0.  1.
         11    1    3    3    0    0 -0.28644691270E+02 -0.72649773889E+00 -0.11666274772E+02  0.30937810269E+02  0.51100000000E-03 0. -1.
        -11    1    3    3    0    0 -0.50422329232E+01  0.99497647530E+00  0.60953886141E+01  0.79729451056E+01  0.51100000000E-03 0.  1.
        -12    1    3    3    0    0 -0.34685497795E+01  0.36609754918E+01 -0.10466453408E+02  0.11618099073E+02  0.00000000000E+00 0.  1.
</event>
<event>
 7    1  0.5839176E-013  0.5052887E+02  0.7816164E-02  0.1300439E+00
        -11   -1    0    0    0    0  0.00000000000E+00  0.00000000000E+00  0.45593999997E+02  0.45594000000E+02  0.51100000000E-03 0.  1.
         11   -1    0    0    0    0 -0.00000000000E+00 -0.00000000000E+00 -0.45593999997E+02  0.45594000000E+02  0.51100000000E-03 0. -1.
    9900012    2    1    2    0    0  0.19430371939E+02 -0.25336982565E+02 -0.25172666966E+02  0.50528865709E+02  0.30000017808E+02 0.  0.
        -12    1    1    2    0    0 -0.19430371939E+02  0.25336982565E+02  0.25172666966E+02  0.40659134291E+02  0.00000000000E+00 0.  1.
         11    1    3    3    0    0  0.59300560561E+01 -0.13849617212E+01 -0.18018726549E+02  0.19019941917E+02  0.51100000000E-03 0. -1.
        -11    1    3    3    0    0  0.42657880399E+01  0.69629889407E+00 -0.15933460095E+01  0.46065748141E+01  0.51100000000E-03 0.  1.
         12    1    3    3    0    0  0.92345278431E+01 -0.24648319737E+02 -0.55605944070E+01  0.26902348978E+02  0.00000000000E+00 0. -1.
</event>
<event>
 7    1  0.5839176E-013  0.5052885E+02  0.7816164E-02  0.1300439E+00
        -11   -1    0    0    0    0  0.00000000000E+00  0.00000000000E+00  0.45593999997E+02  0.45594000000E+02  0.51100000000E-03 0.  1.
         11   -1    0    0    0    0 -0.00000000000E+00 -0.00000000000E+00 -0.45593999997E+02  0.45594000000E+02  0.51100000000E-03 0. -1.
    9900012    2    1    2    0    0 -0.13757916355E+02  0.45998548717E+01 -0.37983257705E+02  0.50528846133E+02  0.29999958307E+02 0.  0.
        -12    1    1    2    0    0  0.13757916355E+02 -0.45998548717E+01  0.37983257705E+02  0.40659153867E+02  0.00000000000E+00 0.  1.
         11    1    3    3    0    0 -0.25928635083E+01  0.43327663325E+01 -0.28379515910E+02  0.28825209952E+02  0.51100000000E-03 0. -1.
        -11    1    3    3    0    0 -0.14405051025E+02  0.35653949590E+01 -0.73168305687E+01  0.16545499270E+02  0.51100000000E-03 0.  1.
         12    1    3    3    0    0  0.32399981789E+01 -0.32983064198E+01 -0.22869112266E+01  0.51581369114E+01  0.00000000000E+00 0. -1.
</event>
<event>
 7    1  0.5839176E-013  0.5052886E+02  0.7816164E-02  0.1300439E+00
        -11   -1    0    0    0    0  0.00000000000E+00  0.00000000000E+00  0.45593999997E+02  0.45594000000E+02  0.51100000000E-03 0.  1.
         11   -1    0    0    0    0 -0.00000000000E+00 -0.00000000000E+00 -0.45593999997E+02  0.45594000000E+02  0.51100000000E-03 0. -1.
    9900012    2    1    2    0    0 -0.35077130205E+02  0.67945234076E+01 -0.19406056832E+02  0.50528860148E+02  0.30000000906E+02 0.  0.
        -12    1    1    2    0    0  0.35077130205E+02 -0.67945234076E+01  0.19406056832E+02  0.40659139852E+02  0.00000000000E+00 0.  1.
         11    1    3    3    0    0 -0.32288354670E+02  0.44462520635E+01 -0.13241585535E+02  0.35180201712E+02  0.51100000000E-03 0. -1.
        -11    1    3    3    0    0 -0.89103806827E+00  0.62618244262E+01  0.15324019228E+01  0.65078913557E+01  0.51100000000E-03 0.  1.
        -12    1    3    3    0    0 -0.18977374661E+01 -0.39135530820E+01 -0.76968732197E+01  0.88407670808E+01  0.00000000000E+00 0.  1.
</event>
<event>
 7    1  0.5839176E-013  0.5052886E+02  0.7816164E-02  0.1300439E+00
        -11   -1    0    0    0    0  0.00000000000E+00  0.00000000000E+00  0.45593999997E+02  0.45594000000E+02  0.51100000000E-03 0. -1.
         11   -1    0    0    0    0 -0.00000000000E+00 -0.00000000000E+00 -0.45593999997E+02  0.45594000000E+02  0.51100000000E-03 0.  1.
    9900012    2    1    2    0    0  0.38774727852E+02 -0.11669853032E+02  0.36742982968E+01  0.50528862556E+02  0.30000008224E+02 0.  0.
        -12    1    1    2    0    0 -0.38774727852E+02  0.11669853032E+02 -0.36742982968E+01  0.40659137444E+02  0.00000000000E+00 0.  1.
         11    1    3    3    0    0  0.19175722795E+02 -0.81427284574E+01 -0.22547994893E+01  0.20954629380E+02  0.51100000000E-03 0. -1.
        -11    1    3    3    0    0  0.14791787942E+02 -0.47017466810E+01 -0.60147916972E+01  0.16645754167E+02  0.51100000000E-03 0.  1.
         12    1    3    3    0    0  0.48072171139E+01  0.11746221059E+01  0.11943889483E+02  0.12928479008E+02  0.00000000000E+00 0. -1.
</event>
<event>
 7    1  0.5839176E-013  0.5052886E+02  0.7816164E-02  0.1300439E+00
        -11   -1    0    0    0    0  0.00000000000E+00  0.00000000000E+00  0.45593999997E+02  0.45594000000E+02  0.51100000000E-03 0.  1.
         11   -1    0    0    0    0 -0.00000000000E+00 -0.00000000000E+00 -0.45593999997E+02  0.45594000000E+02  0.51100000000E-03 0. -1.
    9900012    2    1    2    0    0 -0.32099472304E+01 -0.14690581139E+02 -0.37776300170E+02  0.50528858470E+02  0.29999995804E+02 0.  0.
        -12    1    1    2    0    0  0.32099472304E+01  0.14690581139E+02  0.37776300170E+02  0.40659141530E+02  0.00000000000E+00 0.  1.
         11    1    3    3    0    0  0.66201783330E+01 -0.45283247737E+01 -0.23206610519E+02  0.24553599705E+02  0.51100000000E-03 0. -1.
        -11    1    3    3    0    0  0.10420867872E+01 -0.10952215128E+01 -0.11358663981E+02  0.11458826412E+02  0.51100000000E-03 0.  1.
         12    1    3    3    0    0 -0.10872212351E+02 -0.90670348525E+01 -0.32110256701E+01  0.14516432353E+02  0.00000000000E+00 0. -1.
</event>
<event>
 7    1  0.5839176E-013  0.5052886E+02  0.7816164E-02  0.1300439E+00
        -11   -1    0    0    0    0  0.00000000000E+00  0.00000000000E+00  0.45593999997E+02  0.45594000000E+02  0.51100000000E-03 0.  1.
         11   -1    0    0    0    0 -0.00000000000E+00 -0.00000000000E+00 -0.45593999997E+02  0.45594000000E+02  0.51100000000E-03 0. -1.
    9900012    2    1    2    0    0  0.12412451313E+02  0.10303307658E+02 -0.37322086802E+02  0.50528864992E+02  0.30000015631E+02 0.  0.
        -12    1    1    2    0    0 -0.12412451313E+02 -0.10303307658E+02  0.37322086802E+02  0.40659135008E+02  0.00000000000E+00 0.  1.
         11    1    3    3    0    0 -0.53623173973E+01  0.40998900339E+01 -0.18958028768E+02  0.20123876396E+02  0.51100000000E-03 0. -1.
        -11    1    3    3    0    0  0.53145331582E+01  0.42743736962E+01  0.13991809777E+01  0.69622008628E+01  0.51100000000E-03 0.  1.
        -12    1    3    3    0    0  0.12460235552E+02  0.19290439284E+01 -0.19763239012E+02  0.23442787733E+02  0.00000000000E+00 0.  1.
</event>
<event>
 7    1  0.5839176E-013  0.5052885E+02  0.7816164E-02  0.1300439E+00
        -11   -1    0    0    0    0  0.00000000000E+00  0.00000000000E+00  0.45593999997E+02  0.45594000000E+02  0.51100000000E-03 0. -1.
         11   -1    0    0    0    0 -0.00000000000E+00 -0.00000000000E+00 -0.45593999997E+02  0.45594000000E+02  0.51100000000E-03 0.  1.
    9900012    2    1    2    0    0 -0.53898059889E+01  0.30141923884E+02  0.26750338992E+02  0.50528853179E+02  0.29999979723E+02 0.  0.
        -12    1    1    2    0    0  0.53898059889E+01 -0.30141923884E+02 -0.26750338992E+02  0.40659146821E+02  0.00000000000E+00 0.  1.
         11    1    3    3    0    0 -0.79718367272E+01  0.31524492613E+01  0.36789627021E+00  0.85804117079E+01  0.51100000000E-03 0. -1.
        -11    1    3    3    0    0 -0.54833667592E+01  0.14132466245E+01  0.32286600028E+01  0.65183450900E+01  0.51100000000E-03 0.  1.
         12    1    3    3    0    0  0.80653974974E+01  0.25576227998E+02  0.23153782719E+02  0.35430096381E+02  0.00000000000E+00 0. -1.
</event>
<event>
 7    1  0.5839176E-013  0.5052886E+02  0.7816164E-02  0.1300439E+00
        -11   -1    0    0    0    0  0.00000000000E+00  0.00000000000E+00  0.45593999997E+02  0.45594000000E+02  0.51100000000E-03 0.  1.
         11   -1    0    0    0    0 -0.00000000000E+00 -0.00000000000E+00 -0.45593999997E+02  0.45594000000E+02  0.51100000000E-03 0. -1.
    9900012    2    1    2    0    0 -0.13190839138E+02  0.24558807363E+02 -0.29597838631E+02  0.50528864398E+02  0.30000013824E+02 0.  0.
        -12    1    1    2    0    0  0.13190839138E+02 -0.24558807363E+02  0.29597838631E+02  0.40659135602E+02  0.00000000000E+00 0.  1.
         11    1    3    3    0    0 -0.26296324407E+01  0.17990550645E+02 -0.13364107904E+02  0.22564889975E+02  0.51100000000E-03 0.  1.
        -11    1    3    3    0    0 -0.33420674530E+01 -0.59762573576E+01 -0.10195604937E+02  0.12281507528E+02  0.51100000000E-03 0. -1.
         12    1    3    3    0    0 -0.72191392444E+01  0.12544514076E+02 -0.60381257902E+01  0.15682466894E+02  0.00000000000E+00 0. -1.
</event>
<event>
 7    1  0.5839176E-013  0.5052886E+02  0.7816164E-02  0.1300439E+00
        -11   -1    0    0    0    0  0.00000000000E+00  0.00000000000E+00  0.45593999997E+02  0.45594000000E+02  0.51100000000E-03 0. -1.
         11   -1    0    0    0    0 -0.00000000000E+00 -0.00000000000E+00 -0.45593999997E+02  0.45594000000E+02  0.51100000000E-03 0.  1.
    9900012    2    1    2    0    0 -0.31289211547E+02  0.25882509830E+02  0.20606448209E+01  0.50528864109E+02  0.30000012944E+02 0.  0.
        -12    1    1    2    0    0  0.31289211547E+02 -0.25882509830E+02 -0.20606448209E+01  0.40659135891E+02  0.00000000000E+00 0.  1.
         11    1    3    3    0    0 -0.48320138732E+01 -0.38474087765E+01  0.14043228336E+01  0.63342746425E+01  0.51100000000E-03 0. -1.
        -11    1    3    3    0    0 -0.56121907104E+01 -0.12353603927E+00  0.50104759081E+01  0.75244145825E+01  0.51100000000E-03 0.  1.
         12    1    3    3    0    0 -0.20845006964E+02  0.29853454646E+02 -0.43541539207E+01  0.36670174884E+02  0.00000000000E+00 0. -1.
</event>
<event>
 7    1  0.5839176E-013  0.5052885E+02  0.7816164E-02  0.1300439E+00
        -11   -1    0    0    0    0  0.00000000000E+00  0.00000000000E+00  0.45593999997E+02  0.45594000000E+02  0.51100000000E-03 0.  1.
         11   -1    0    0    0    0 -0.00000000000E+00 -0.00000000000E+00 -0.45593999997E+02  0.45594000000E+02  0.51100000000E-03 0. -1.
    9900012    2    1    2    0    0 -0.36574723534E+02  0.15640664890E+02 -0.84157788059E+01  0.50528854255E+02  0.29999982994E+02 0.  0.
        -12    1    1    2    0    0  0.36574723534E+02 -0.15640664890E+02  0.84157788059E+01  0.40659145745E+02  0.00000000000E+00 0.  1.
         11    1    3    3    0    0  0.82625386134E+00 -0.28472165383E+01  0.29728209789E+01  0.41984523688E+01  0.51100000000E-03 0. -1.
        -11    1    3    3    0    0  0.16597353893E+00  0.24839494994E+01  0.21719571623E+01  0.33037782170E+01  0.51100000000E-03 0.  1.
         12    1    3    3    0    0 -0.37566950934E+02  0.16003931928E+02 -0.13560556947E+02  0.43026623669E+02  0.00000000000E+00 0. -1.
</event>
<event>
 7    1  0.5839176E-013  0.5052886E+02  0.7816164E-02  0.1300439E+00
        -11   -1    0    0    0    0  0.00000000000E+00  0.00000000000E+00  0.45593999997E+02  0.45594000000E+02  0.51100000000E-03 0.  1.
         11   -1    0    0    0    0 -0.00000000000E+00 -0.00000000000E+00 -0.45593999997E+02  0.45594000000E+02  0.51100000000E-03 0. -1.
    9900012    2    1    2    0    0  0.95626168355E+01 -0.20783979166E+02 -0.33611733338E+02  0.50528855288E+02  0.29999986134E+02 0.  0.
        -12    1    1    2    0    0 -0.95626168355E+01  0.20783979166E+02  0.33611733338E+02  0.40659144712E+02  0.00000000000E+00 0.  1.
         11    1    3    3    0    0 -0.32260577798E+01 -0.94693240286E+00  0.10916673621E+01  0.35349494572E+01  0.51100000000E-03 0. -1.
        -11    1    3    3    0    0  0.70016329508E+01 -0.73588356302E+01 -0.54731835096E+00  0.10172260489E+02  0.51100000000E-03 0.  1.
         12    1    3    3    0    0  0.57870416645E+01 -0.12478211133E+02 -0.34156082349E+02  0.36821645343E+02  0.00000000000E+00 0. -1.
</event>
<event>
 7    1  0.5839176E-013  0.5052886E+02  0.7816164E-02  0.1300439E+00
        -11   -1    0    0    0    0  0.00000000000E+00  0.00000000000E+00  0.45593999997E+02  0.45594000000E+02  0.51100000000E-03 0.  1.
         11   -1    0    0    0    0 -0.00000000000E+00 -0.00000000000E+00 -0.45593999997E+02  0.45594000000E+02  0.51100000000E-03 0. -1.
    9900012    2    1    2    0    0  0.19259213158E+02  0.42596708746E+01 -0.35554236424E+02  0.50528858160E+02  0.29999994864E+02 0.  0.
        -12    1    1    2    0    0 -0.19259213158E+02 -0.42596708746E+01  0.35554236424E+02  0.40659141840E+02  0.00000000000E+00 0.  1.
         11    1    3    3    0    0  0.65254516586E+01  0.50764774896E+01 -0.17060693556E+01  0.84417306258E+01  0.51100000000E-03 0. -1.
        -11    1    3    3    0    0  0.10291490820E+02 -0.42430305829E+01 -0.38251679526E+01  0.11770726484E+02  0.51100000000E-03 0.  1.
        -12    1    3    3    0    0  0.24422706790E+01  0.34262239679E+01 -0.30022999116E+02  0.30316401051E+02  0.00000000000E+00 0.  1.
</event>
<event>
 7    1  0.5839176E-013  0.5052886E+02  0.7816164E-02  0.1300439E+00
        -11   -1    0    0    0    0  0.00000000000E+00  0.00000000000E+00  0.45593999997E+02  0.45594000000E+02  0.51100000000E-03 0.  1.
         11   -1    0    0    0    0 -0.00000000000E+00 -0.00000000000E+00 -0.45593999997E+02  0.45594000000E+02  0.51100000000E-03 0. -1.
    9900012    2    1    2    0    0  0.26506062733E+02 -0.29619334886E+02 -0.85609295460E+01  0.50528857419E+02  0.29999992611E+02 0.  0.
        -12    1    1    2    0    0 -0.26506062733E+02  0.29619334886E+02  0.85609295460E+01  0.40659142581E+02  0.00000000000E+00 0.  1.
         11    1    3    3    0    0  0.27192434052E+02 -0.31238658876E+02 -0.93035526648E+01  0.42448066746E+02  0.51100000000E-03 0. -1.
        -11    1    3    3    0    0  0.32262885478E+01 -0.82286328916E+00 -0.32857978647E+00  0.33457445693E+01  0.51100000000E-03 0.  1.
        -12    1    3    3    0    0 -0.39126598665E+01  0.24421872790E+01  0.10712029053E+01  0.47350461034E+01  0.00000000000E+00 0.  1.
</event>
<event>
 7    1  0.5839176E-013  0.5052886E+02  0.7816164E-02  0.1300439E+00
        -11   -1    0    0    0    0  0.00000000000E+00  0.00000000000E+00  0.45593999997E+02  0.45594000000E+02  0.51100000000E-03 0. -1.
         11   -1    0    0    0    0 -0.00000000000E+00 -0.00000000000E+00 -0.45593999997E+02  0.45594000000E+02  0.51100000000E-03 0.  1.
    9900012    2    1    2    0    0  0.33381307832E+02  0.22717214982E+02  0.47730661450E+01  0.50528859213E+02  0.29999998062E+02 0.  0.
        -12    1    1    2    0    0 -0.33381307832E+02 -0.22717214982E+02 -0.47730661450E+01  0.40659140787E+02  0.00000000000E+00 0.  1.
         11    1    3    3    0    0  0.14963421365E+02  0.19245773895E+02  0.86940393599E+01  0.25882235460E+02  0.51100000000E-03 0. -1.
        -11    1    3    3    0    0  0.61902961095E+01  0.86092790858E+01  0.63509107952E+00  0.10622748855E+02  0.51100000000E-03 0.  1.
        -12    1    3    3    0    0  0.12227590358E+02 -0.51378379990E+01 -0.45560642944E+01  0.14023874897E+02  0.00000000000E+00 0.  1.
</event>
<event>
 7    1  0.5839176E-013  0.5052883E+02  0.7816164E-02  0.1300439E+00
        -11   -1    0    0    0    0  0.00000000000E+00  0.00000000000E+00  0.45593999997E+02  0.45594000000E+02  0.51100000000E-03 0.  1.
         11   -1    0    0    0    0 -0.00000000000E+00 -0.00000000000E+00 -0.45593999997E+02  0.45594000000E+02  0.51100000000E-03 0. -1.
    9900012    2    1    2    0    0  0.39275769738E+02 -0.27864742123E+01 -0.10139894890E+02  0.50528831348E+02  0.29999913366E+02 0.  0.
        -12    1    1    2    0    0 -0.39275769738E+02  0.27864742123E+01  0.10139894890E+02  0.40659168652E+02  0.00000000000E+00 0.  1.
         11    1    3    3    0    0  0.47338587628E+01 -0.36197970234E+01 -0.10830120511E+01  0.60568361907E+01  0.51100000000E-03 0. -1.
        -11    1    3    3    0    0  0.14795105948E+02  0.19314749701E+01 -0.17474451229E+02  0.22977863295E+02  0.51100000000E-03 0.  1.
         12    1    3    3    0    0  0.19746805027E+02 -0.10981521590E+01  0.84175683898E+01  0.21494131863E+02  0.00000000000E+00 0. -1.
</event>
<event>
 7    1  0.5839176E-013  0.5052885E+02  0.7816164E-02  0.1300439E+00
        -11   -1    0    0    0    0  0.00000000000E+00  0.00000000000E+00  0.45593999997E+02  0.45594000000E+02  0.51100000000E-03 0. -1.
         11   -1    0    0    0    0 -0.00000000000E+00 -0.00000000000E+00 -0.45593999997E+02  0.45594000000E+02  0.51100000000E-03 0.  1.
    9900012    2    1    2    0    0 -0.13484464149E+02 -0.34981960168E+02  0.15735246072E+02  0.50528852449E+02  0.29999977505E+02 0.  0.
        -12    1    1    2    0    0  0.13484464149E+02  0.34981960168E+02 -0.15735246072E+02  0.40659147551E+02  0.00000000000E+00 0.  1.
         11    1    3    3    0    0  0.19879233199E+01 -0.69387016088E+01  0.88666662213E+01  0.11433074358E+02  0.51100000000E-03 0. -1.
        -11    1    3    3    0    0 -0.12480176273E+01  0.16613637318E+01  0.57809847818E+01  0.61430825125E+01  0.51100000000E-03 0.  1.
         12    1    3    3    0    0 -0.14224369841E+02 -0.29704622291E+02  0.10875950692E+01  0.32952695578E+02  0.00000000000E+00 0. -1.
</event>
<event>
 7    1  0.5839176E-013  0.5052886E+02  0.7816164E-02  0.1300439E+00
        -11   -1    0    0    0    0  0.00000000000E+00  0.00000000000E+00  0.45593999997E+02  0.45594000000E+02  0.51100000000E-03 0. -1.
         11   -1    0    0    0    0 -0.00000000000E+00 -0.00000000000E+00 -0.45593999997E+02  0.45594000000E+02  0.51100000000E-03 0.  1.
    9900012    2    1    2    0    0  0.50859330643E+01  0.30384028889E+02  0.26535067976E+02  0.50528858848E+02  0.29999996956E+02 0.  0.
        -12    1    1    2    0    0 -0.50859330643E+01 -0.30384028889E+02 -0.26535067976E+02  0.40659141152E+02  0.00000000000E+00 0.  1.
         11    1    3    3    0    0 -0.25046963301E+00  0.47405417579E+01  0.16894281417E+01  0.50388132435E+01  0.51100000000E-03 0. -1.
        -11    1    3    3    0    0 -0.98139450124E+01  0.20394256986E+01  0.73997051096E+01  0.12459069382E+02  0.51100000000E-03 0.  1.
         12    1    3    3    0    0  0.15150347710E+02  0.23604061433E+02  0.17445934725E+02  0.33030976223E+02  0.00000000000E+00 0. -1.
</event>
<event>
 7    1  0.5839176E-013  0.5052886E+02  0.7816164E-02  0.1300439E+00
        -11   -1    0    0    0    0  0.00000000000E+00  0.00000000000E+00  0.45593999997E+02  0.45594000000E+02  0.51100000000E-03 0.  1.
         11   -1    0    0    0    0 -0.00000000000E+00 -0.00000000000E+00 -0.45593999997E+02  0.45594000000E+02  0.51100000000E-03 0. -1.
    9900012    2    1    2    0    0 -0.19542909983E+01 -0.16883331353E+02 -0.36936430234E+02  0.50528855772E+02  0.29999987605E+02 0.  0.
        -12    1    1    2    0    0  0.19542909983E+01  0.16883331353E+02  0.36936430234E+02  0.40659144228E+02  0.00000000000E+00 0.  1.
         11    1    3    3    0    0 -0.11790930272E+01 -0.97365004768E+01 -0.17926108437E+01  0.99701131287E+01  0.51100000000E-03 0. -1.
        -11    1    3    3    0    0  0.26253926350E+01 -0.45323467199E+01 -0.85031085444E-01  0.52385192396E+01  0.51100000000E-03 0.  1.
         12    1    3    3    0    0 -0.34005906061E+01 -0.26144841561E+01 -0.35058788305E+02  0.35320223404E+02  0.00000000000E+00 0. -1.
</event>
<event>
 7    1  0.5839176E-013  0.5052886E+02  0.7816164E-02  0.1300439E+00
        -11   -1    0    0    0    0  0.00000000000E+00  0.00000000000E+00  0.45593999997E+02  0.45594000000E+02  0.51100000000E-03 0. -1.
         11   -1    0    0    0    0 -0.00000000000E+00 -0.00000000000E+00 -0.45593999997E+02  0.45594000000E+02  0.51100000000E-03 0.  1.
    9900012    2    1    2    0    0  0.17103089048E+02 -0.35303527053E+02  0.10691646142E+02  0.50528856200E+02  0.29999988904E+02 0.  0.
        -12    1    1    2    0    0 -0.17103089048E+02  0.35303527053E+02 -0.10691646142E+02  0.40659143800E+02  0.00000000000E+00 0.  1.
         11    1    3    3    0    0  0.10390838995E+02 -0.15822753124E+02  0.12357924694E+00  0.18929984774E+02  0.51100000000E-03 0. -1.
        -11    1    3    3    0    0  0.63900371525E+01 -0.77610350101E+01 -0.56920520227E+01  0.11552735422E+02  0.51100000000E-03 0.  1.
         12    1    3    3    0    0  0.32221290020E+00 -0.11719738919E+02  0.16260118917E+02  0.20046136004E+02  0.00000000000E+00 0. -1.
</event>
<event>
 7    1  0.5839176E-013  0.5052886E+02  0.7816164E-02  0.1300439E+00
        -11   -1    0    0    0    0  0.00000000000E+00  0.00000000000E+00  0.45593999997E+02  0.45594000000E+02  0.51100000000E-03 0.  1.
         11   -1    0    0    0    0 -0.00000000000E+00 -0.00000000000E+00 -0.45593999997E+02  0.45594000000E+02  0.51100000000E-03 0. -1.
    9900012    2    1    2    0    0  0.35003910948E+02  0.18726566574E+02 -0.87867688880E+01  0.50528863452E+02  0.30000010949E+02 0.  0.
        -12    1    1    2    0    0 -0.35003910948E+02 -0.18726566574E+02  0.87867688880E+01  0.40659136548E+02  0.00000000000E+00 0.  1.
         11    1    3    3    0    0  0.18742878894E+02  0.29827435988E+01 -0.16426990501E+02  0.25100563456E+02  0.51100000000E-03 0. -1.
        -11    1    3    3    0    0  0.13740143697E+01  0.30976757787E+01  0.45171306622E+01  0.56469443417E+01  0.51100000000E-03 0.  1.
        -12    1    3    3    0    0  0.14887017685E+02  0.12646147196E+02  0.31230909507E+01  0.19781355655E+02  0.00000000000E+00 0.  1.
</event>
<event>
 7    1  0.5839176E-013  0.5052886E+02  0.7816164E-02  0.1300439E+00
        -11   -1    0    0    0    0  0.00000000000E+00  0.00000000000E+00  0.45593999997E+02  0.45594000000E+02  0.51100000000E-03 0.  1.
         11   -1    0    0    0    0 -0.00000000000E+00 -0.00000000000E+00 -0.45593999997E+02  0.45594000000E+02  0.51100000000E-03 0. -1.
    9900012    2    1    2    0    0  0.16426406785E+02  0.22563904727E+02 -0.29567025160E+02  0.50528860643E+02  0.30000002412E+02 0.  0.
        -12    1    1    2    0    0 -0.16426406785E+02 -0.22563904727E+02  0.29567025160E+02  0.40659139357E+02  0.00000000000E+00 0.  1.
         11    1    3    3    0    0  0.40591862859E+01  0.32588123679E+01 -0.19710680573E+02  0.20386460709E+02  0.51100000000E-03 0. -1.
        -11    1    3    3    0    0  0.44899743428E+01  0.29754665962E+01 -0.10714038749E+02  0.11991826284E+02  0.51100000000E-03 0.  1.
        -12    1    3    3    0    0  0.78772461558E+01  0.16329625763E+02  0.85769416062E+00  0.18150573650E+02  0.00000000000E+00 0.  1.
</event>
<event>
 7    1  0.5839176E-013  0.5052893E+02  0.7816164E-02  0.1300439E+00
        -11   -1    0    0    0    0  0.00000000000E+00  0.00000000000E+00  0.45593999997E+02  0.45594000000E+02  0.51100000000E-03 0.  1.
         11   -1    0    0    0    0 -0.00000000000E+00 -0.00000000000E+00 -0.45593999997E+02  0.45594000000E+02  0.51100000000E-03 0. -1.
    9900012    2    1    2    0    0 -0.92086833245E+01 -0.19817054369E+02 -0.34287672104E+02  0.50528930277E+02  0.30000214070E+02 0.  0.
        -12    1    1    2    0    0  0.92086833245E+01  0.19817054369E+02  0.34287672104E+02  0.40659069723E+02  0.00000000000E+00 0.  1.
         11    1    3    3    0    0 -0.14912478182E+01 -0.30810540866E+01 -0.14186414738E+02  0.14593528625E+02  0.51100000000E-03 0. -1.
        -11    1    3    3    0    0 -0.58912456195E+01 -0.54749681334E+01 -0.22830222807E+02  0.24205394537E+02  0.51100000000E-03 0.  1.
        -12    1    3    3    0    0 -0.18261898869E+01 -0.11261032148E+02  0.27289654411E+01  0.11730007116E+02  0.00000000000E+00 0.  1.
</event>
<event>
 7    1  0.5839176E-013  0.5052886E+02  0.7816164E-02  0.1300439E+00
        -11   -1    0    0    0    0  0.00000000000E+00  0.00000000000E+00  0.45593999997E+02  0.45594000000E+02  0.51100000000E-03 0.  1.
         11   -1    0    0    0    0 -0.00000000000E+00 -0.00000000000E+00 -0.45593999997E+02  0.45594000000E+02  0.51100000000E-03 0. -1.
    9900012    2    1    2    0    0 -0.16562407101E+02  0.12379351889E+02 -0.35008628907E+02  0.50528858591E+02  0.29999996174E+02 0.  0.
        -12    1    1    2    0    0  0.16562407101E+02 -0.12379351889E+02  0.35008628907E+02  0.40659141409E+02  0.00000000000E+00 0.  1.
         11    1    3    3    0    0  0.43713812794E+01  0.29266571421E+01 -0.32364688371E+01  0.61764898698E+01  0.51100000000E-03 0.  1.
        -11    1    3    3    0    0  0.21916563736E+01 -0.25600233748E+01 -0.14620594083E+00  0.33731963741E+01  0.51100000000E-03 0. -1.
        -12    1    3    3    0    0 -0.23125444754E+02  0.12012718122E+02 -0.31625954129E+02  0.40979172348E+02  0.00000000000E+00 0.  1.
</event>
<event>
 7    1  0.5839176E-013  0.5052885E+02  0.7816164E-02  0.1300439E+00
        -11   -1    0    0    0    0  0.00000000000E+00  0.00000000000E+00  0.45593999997E+02  0.45594000000E+02  0.51100000000E-03 0.  1.
         11   -1    0    0    0    0 -0.00000000000E+00 -0.00000000000E+00 -0.45593999997E+02  0.45594000000E+02  0.51100000000E-03 0. -1.
    9900012    2    1    2    0    0  0.17883270847E+02  0.10353811870E+02 -0.35016480294E+02  0.50528847419E+02  0.29999962216E+02 0.  0.
        -12    1    1    2    0    0 -0.17883270847E+02 -0.10353811870E+02  0.35016480294E+02  0.40659152581E+02  0.00000000000E+00 0.  1.
         11    1    3    3    0    0 -0.11348627595E+01 -0.74236356344E+01 -0.54219023471E+01  0.92625754970E+01  0.51100000000E-03 0. -1.
        -11    1    3    3    0    0  0.28636141225E+01  0.68806405128E+00  0.58874211468E+00  0.30033873409E+01  0.51100000000E-03 0.  1.
        -12    1    3    3    0    0  0.16154519484E+02  0.17089383453E+02 -0.30183320061E+02  0.38262884581E+02  0.00000000000E+00 0.  1.
</event>
<event>
 7    1  0.5839176E-013  0.5052886E+02  0.7816164E-02  0.1300439E+00
        -11   -1    0    0    0    0  0.00000000000E+00  0.00000000000E+00  0.45593999997E+02  0.45594000000E+02  0.51100000000E-03 0.  1.
         11   -1    0    0    0    0 -0.00000000000E+00 -0.00000000000E+00 -0.45593999997E+02  0.45594000000E+02  0.51100000000E-03 0. -1.
    9900012    2    1    2    0    0  0.38956402180E+02  0.80754153938E+01 -0.83876060762E+01  0.50528861541E+02  0.30000005139E+02 0.  0.
        -12    1    1    2    0    0 -0.38956402180E+02 -0.80754153938E+01  0.83876060762E+01  0.40659138459E+02  0.00000000000E+00 0.  1.
         11    1    3    3    0    0  0.21095362787E+02 -0.43153423692E+01 -0.25474013750E+01  0.21682383746E+02  0.51100000000E-03 0. -1.
        -11    1    3    3    0    0  0.79179352913E+01 -0.34579852077E+01  0.14610160624E+01  0.87627580801E+01  0.51100000000E-03 0.  1.
         12    1    3    3    0    0  0.99431041010E+01  0.15848742971E+02 -0.73012207637E+01  0.20083719714E+02  0.00000000000E+00 0. -1.
</event>
<event>
 7    1  0.5839176E-013  0.5052885E+02  0.7816164E-02  0.1300439E+00
        -11   -1    0    0    0    0  0.00000000000E+00  0.00000000000E+00  0.45593999997E+02  0.45594000000E+02  0.51100000000E-03 0.  1.
         11   -1    0    0    0    0 -0.00000000000E+00 -0.00000000000E+00 -0.45593999997E+02  0.45594000000E+02  0.51100000000E-03 0. -1.
    9900012    2    1    2    0    0 -0.32858705987E+00 -0.40648622500E+02  0.86473583300E+00  0.50528852829E+02  0.29999978658E+02 0.  0.
        -12    1    1    2    0    0  0.32858705987E+00  0.40648622500E+02 -0.86473583300E+00  0.40659147171E+02  0.00000000000E+00 0.  1.
         11    1    3    3    0    0  0.42745887448E+01  0.71163119886E+00 -0.28216796299E+01  0.51711124621E+01  0.51100000000E-03 0. -1.
        -11    1    3    3    0    0 -0.23439745495E+01 -0.30325539344E+02  0.10519258112E+02  0.32183650270E+02  0.51100000000E-03 0.  1.
         12    1    3    3    0    0 -0.22592012551E+01 -0.11034714355E+02 -0.68328426491E+01  0.13174090097E+02  0.00000000000E+00 0. -1.
</event>
<event>
 7    1  0.5839176E-013  0.5052886E+02  0.7816164E-02  0.1300439E+00
        -11   -1    0    0    0    0  0.00000000000E+00  0.00000000000E+00  0.45593999997E+02  0.45594000000E+02  0.51100000000E-03 0.  1.
         11   -1    0    0    0    0 -0.00000000000E+00 -0.00000000000E+00 -0.45593999997E+02  0.45594000000E+02  0.51100000000E-03 0. -1.
    9900012    2    1    2    0    0 -0.41967413326E+01  0.40425045046E+02 -0.11698305464E+01  0.50528863163E+02  0.30000010071E+02 0.  0.
        -12    1    1    2    0    0  0.41967413326E+01 -0.40425045046E+02  0.11698305464E+01  0.40659136837E+02  0.00000000000E+00 0.  1.
         11    1    3    3    0    0 -0.23854925335E+01  0.15280449060E+02 -0.82281583353E+01  0.17518141681E+02  0.51100000000E-03 0. -1.
        -11    1    3    3    0    0 -0.67548126742E+01  0.76199587046E+01 -0.48243600722E+01  0.11267906429E+02  0.51100000000E-03 0.  1.
        -12    1    3    3    0    0  0.49435638751E+01  0.17524637282E+02  0.11882687861E+02  0.21742815054E+02  0.00000000000E+00 0.  1.
</event>
<event>
 7    1  0.5839176E-013  0.5052887E+02  0.7816164E-02  0.1300439E+00
        -11   -1    0    0    0    0  0.00000000000E+00  0.00000000000E+00  0.45593999997E+02  0.45594000000E+02  0.51100000000E-03 0.  1.
         11   -1    0    0    0    0 -0.00000000000E+00 -0.00000000000E+00 -0.45593999997E+02  0.45594000000E+02  0.51100000000E-03 0. -1.
    9900012    2    1    2    0    0 -0.22776795307E+02  0.88655284108E+01 -0.32492842309E+02  0.50528870646E+02  0.30000032817E+02 0.  0.
        -12    1    1    2    0    0  0.22776795307E+02 -0.88655284108E+01  0.32492842309E+02  0.40659129354E+02  0.00000000000E+00 0.  1.
         11    1    3    3    0    0 -0.78526454954E+01 -0.14820380368E+01  0.17128157675E+01  0.81727728546E+01  0.51100000000E-03 0. -1.
        -11    1    3    3    0    0 -0.25231868270E+01  0.26861116533E+01  0.13528383065E+01  0.39257915537E+01  0.51100000000E-03 0.  1.
         12    1    3    3    0    0 -0.12400962985E+02  0.76614547942E+01 -0.35558496383E+02  0.38430306238E+02  0.00000000000E+00 0. -1.
</event>
<event>
 7    1  0.5839176E-013  0.5052886E+02  0.7816164E-02  0.1300439E+00
        -11   -1    0    0    0    0  0.00000000000E+00  0.00000000000E+00  0.45593999997E+02  0.45594000000E+02  0.51100000000E-03 0.  1.
         11   -1    0    0    0    0 -0.00000000000E+00 -0.00000000000E+00 -0.45593999997E+02  0.45594000000E+02  0.51100000000E-03 0. -1.
    9900012    2    1    2    0    0  0.14757339404E+01  0.28252673025E+02 -0.29202296728E+02  0.50528862553E+02  0.30000008217E+02 0.  0.
        -12    1    1    2    0    0 -0.14757339404E+01 -0.28252673025E+02  0.29202296728E+02  0.40659137447E+02  0.00000000000E+00 0.  1.
         11    1    3    3    0    0 -0.49669294847E+01  0.12424933735E+02 -0.55336711612E+01  0.14480016699E+02  0.51100000000E-03 0. -1.
        -11    1    3    3    0    0 -0.10866230336E+01  0.34587539163E+01  0.36407294501E+01  0.51379606325E+01  0.51100000000E-03 0.  1.
         12    1    3    3    0    0  0.75292864586E+01  0.12368985374E+02 -0.27309355017E+02  0.30910885222E+02  0.00000000000E+00 0. -1.
</event>
<event>
 7    1  0.5839176E-013  0.5052886E+02  0.7816164E-02  0.1300439E+00
        -11   -1    0    0    0    0  0.00000000000E+00  0.00000000000E+00  0.45593999997E+02  0.45594000000E+02  0.51100000000E-03 0. -1.
         11   -1    0    0    0    0 -0.00000000000E+00 -0.00000000000E+00 -0.45593999997E+02  0.45594000000E+02  0.51100000000E-03 0.  1.
    9900012    2    1    2    0    0 -0.36492807785E+02  0.12730908990E+02  0.12623972006E+02  0.50528859171E+02  0.29999997937E+02 0.  0.
        -12    1    1    2    0    0  0.36492807785E+02 -0.12730908990E+02 -0.12623972006E+02  0.40659140829E+02  0.00000000000E+00 0.  1.
         11    1    3    3    0    0 -0.17465459468E+01 -0.40942404147E+00  0.70936673296E+00  0.19290547460E+01  0.51100000000E-03 0. -1.
        -11    1    3    3    0    0 -0.34119775208E+02  0.18140959868E+02  0.35122425218E+01  0.38801924346E+02  0.51100000000E-03 0.  1.
        -12    1    3    3    0    0 -0.62648663018E+00 -0.50006268363E+01  0.84023627508E+01  0.97978800794E+01  0.00000000000E+00 0.  1.
</event>
<event>
 7    1  0.5839176E-013  0.5052885E+02  0.7816164E-02  0.1300439E+00
        -11   -1    0    0    0    0  0.00000000000E+00  0.00000000000E+00  0.45593999997E+02  0.45594000000E+02  0.51100000000E-03 0. -1.
         11   -1    0    0    0    0 -0.00000000000E+00 -0.00000000000E+00 -0.45593999997E+02  0.45594000000E+02  0.51100000000E-03 0.  1.
    9900012    2    1    2    0    0 -0.38359676864E+02  0.75847399584E+01  0.11143295643E+02  0.50528854324E+02  0.29999983203E+02 0.  0.
        -12    1    1    2    0    0  0.38359676864E+02 -0.75847399584E+01 -0.11143295643E+02  0.40659145676E+02  0.00000000000E+00 0.  1.
         11    1    3    3    0    0 -0.40912069600E+01  0.10815640265E+02  0.31441082422E+01  0.11983382896E+02  0.51100000000E-03 0. -1.
        -11    1    3    3    0    0 -0.89466267726E+01  0.58501589712E+01  0.92255337002E+00  0.10729286816E+02  0.51100000000E-03 0.  1.
        -12    1    3    3    0    0 -0.25321843131E+02 -0.90810592776E+01  0.70766340307E+01  0.27816184612E+02  0.00000000000E+00 0.  1.
</event>
<event>
 7    1  0.5839176E-013  0.5052886E+02  0.7816164E-02  0.1300439E+00
        -11   -1    0    0    0    0  0.00000000000E+00  0.00000000000E+00  0.45593999997E+02  0.45594000000E+02  0.51100000000E-03 0. -1.
         11   -1    0    0    0    0 -0.00000000000E+00 -0.00000000000E+00 -0.45593999997E+02  0.45594000000E+02  0.51100000000E-03 0.  1.
    9900012    2    1    2    0    0  0.40609462423E+02 -0.13534689549E+01  0.14850633455E+01  0.50528859212E+02  0.29999998061E+02 0.  0.
        -12    1    1    2    0    0 -0.40609462423E+02  0.13534689549E+01 -0.14850633455E+01  0.40659140788E+02  0.00000000000E+00 0.  1.
         11    1    3    3    0    0  0.42150287312E+02  0.52984680004E+00  0.34879126540E+01  0.42297671248E+02  0.51100000000E-03 0. -1.
        -11    1    3    3    0    0 -0.16005259773E+01  0.18864177388E+01  0.16563606608E+01  0.29772111428E+01  0.51100000000E-03 0.  1.
        -12    1    3    3    0    0  0.59701088138E-01 -0.37697334938E+01 -0.36592099693E+01  0.52539768208E+01  0.00000000000E+00 0.  1.
</event>
<event>
 7    1  0.5839176E-013  0.5052886E+02  0.7816164E-02  0.1300439E+00
        -11   -1    0    0    0    0  0.00000000000E+00  0.00000000000E+00  0.45593999997E+02  0.45594000000E+02  0.51100000000E-03 0. -1.
         11   -1    0    0    0    0 -0.00000000000E+00 -0.00000000000E+00 -0.45593999997E+02  0.45594000000E+02  0.51100000000E-03 0.  1.
    9900012    2    1    2    0    0  0.18871610298E+02  0.13142924301E+02  0.33530455577E+02  0.50528860983E+02  0.30000003443E+02 0.  0.
        -12    1    1    2    0    0 -0.18871610298E+02 -0.13142924301E+02 -0.33530455577E+02  0.40659139017E+02  0.00000000000E+00 0.  1.
         11    1    3    3    0    0  0.11983215976E+02  0.71206394565E+01  0.43823367405E+01  0.14611839274E+02  0.51100000000E-03 0.  1.
        -11    1    3    3    0    0  0.11550126305E+02 -0.49062752367E+00  0.10481871085E+02  0.15604991340E+02  0.51100000000E-03 0. -1.
        -12    1    3    3    0    0 -0.46617319820E+01  0.65129123677E+01  0.18666247751E+02  0.20312030369E+02  0.00000000000E+00 0.  1.
</event>
<event>
 7    1  0.5839176E-013  0.5052886E+02  0.7816164E-02  0.1300439E+00
        -11   -1    0    0    0    0  0.00000000000E+00  0.00000000000E+00  0.45593999997E+02  0.45594000000E+02  0.51100000000E-03 0. -1.
         11   -1    0    0    0    0 -0.00000000000E+00 -0.00000000000E+00 -0.45593999997E+02  0.45594000000E+02  0.51100000000E-03 0.  1.
    9900012    2    1    2    0    0  0.86466028324E+01 -0.31314596633E+02  0.24449909769E+02  0.50528858463E+02  0.29999995783E+02 0.  0.
        -12    1    1    2    0    0 -0.86466028324E+01  0.31314596633E+02 -0.24449909769E+02  0.40659141537E+02  0.00000000000E+00 0.  1.
         11    1    3    3    0    0  0.53176484348E+01  0.15207315973E+01  0.17508930414E+01  0.58013477891E+01  0.51100000000E-03 0. -1.
        -11    1    3    3    0    0 -0.21358142419E+01  0.20862025008E+01  0.61225020837E+00  0.30477522749E+01  0.51100000000E-03 0.  1.
         12    1    3    3    0    0  0.54647686395E+01 -0.34921530731E+02  0.22086766520E+02  0.41679758399E+02  0.00000000000E+00 0. -1.
</event>
<event>
 7    1  0.5839176E-013  0.5052887E+02  0.7816164E-02  0.1300439E+00
        -11   -1    0    0    0    0  0.00000000000E+00  0.00000000000E+00  0.45593999997E+02  0.45594000000E+02  0.51100000000E-03 0.  1.
         11   -1    0    0    0    0 -0.00000000000E+00 -0.00000000000E+00 -0.45593999997E+02  0.45594000000E+02  0.51100000000E-03 0. -1.
    9900012    2    1    2    0    0  0.25667026457E+02 -0.19112056506E+02 -0.25081831077E+02  0.50528865710E+02  0.30000017812E+02 0.  0.
        -12    1    1    2    0    0 -0.25667026457E+02  0.19112056506E+02  0.25081831077E+02  0.40659134290E+02  0.00000000000E+00 0.  1.
         11    1    3    3    0    0 -0.34415734829E+01 -0.97101699592E+00  0.69041979787E+00  0.36419749866E+01  0.51100000000E-03 0. -1.
        -11    1    3    3    0    0 -0.15614077779E+01 -0.25175822676E+01  0.11608746682E+01  0.31817990162E+01  0.51100000000E-03 0.  1.
         12    1    3    3    0    0  0.30670007718E+02 -0.15623457243E+02 -0.26933125543E+02  0.43705091707E+02  0.00000000000E+00 0. -1.
</event>
<event>
 7    1  0.5839176E-013  0.5052887E+02  0.7816164E-02  0.1300439E+00
        -11   -1    0    0    0    0  0.00000000000E+00  0.00000000000E+00  0.45593999997E+02  0.45594000000E+02  0.51100000000E-03 0.  1.
         11   -1    0    0    0    0 -0.00000000000E+00 -0.00000000000E+00 -0.45593999997E+02  0.45594000000E+02  0.51100000000E-03 0. -1.
    9900012    2    1    2    0    0 -0.98183202351E+01  0.29532487628E+02 -0.26164822676E+02  0.50528865929E+02  0.30000018478E+02 0.  0.
        -12    1    1    2    0    0  0.98183202351E+01 -0.29532487628E+02  0.26164822676E+02  0.40659134071E+02  0.00000000000E+00 0.  1.
         11    1    3    3    0    0 -0.77859521500E+01  0.45461110079E+01 -0.63741176000E+01  0.11041628123E+02  0.51100000000E-03 0. -1.
        -11    1    3    3    0    0 -0.10551158570E+02  0.15676980200E+02 -0.40731418547E+01  0.19330937385E+02  0.51100000000E-03 0.  1.
        -12    1    3    3    0    0  0.85187904847E+01  0.93093964204E+01 -0.15717563221E+02  0.20156300420E+02  0.00000000000E+00 0.  1.
</event>
<event>
 7    1  0.5839176E-013  0.5052886E+02  0.7816164E-02  0.1300439E+00
        -11   -1    0    0    0    0  0.00000000000E+00  0.00000000000E+00  0.45593999997E+02  0.45594000000E+02  0.51100000000E-03 0. -1.
         11   -1    0    0    0    0 -0.00000000000E+00 -0.00000000000E+00 -0.45593999997E+02  0.45594000000E+02  0.51100000000E-03 0.  1.
    9900012    2    1    2    0    0 -0.92654106298E+00  0.27429398997E+02  0.29998919719E+02  0.50528860905E+02  0.30000003205E+02 0.  0.
        -12    1    1    2    0    0  0.92654106298E+00 -0.27429398997E+02 -0.29998919719E+02  0.40659139095E+02  0.00000000000E+00 0.  1.
         11    1    3    3    0    0 -0.37311882376E+01  0.63053901178E+00  0.12782091961E+02  0.13330462117E+02  0.51100000000E-03 0. -1.
        -11    1    3    3    0    0 -0.28111529152E+01 -0.11678910592E+01  0.56491338459E+01  0.64171071137E+01  0.51100000000E-03 0.  1.
         12    1    3    3    0    0  0.56158000899E+01  0.27966751045E+02  0.11567693912E+02  0.30781291673E+02  0.00000000000E+00 0. -1.
</event>
<event>
 7    1  0.5839176E-013  0.5052886E+02  0.7816164E-02  0.1300439E+00
        -11   -1    0    0    0    0  0.00000000000E+00  0.00000000000E+00  0.45593999997E+02  0.45594000000E+02  0.51100000000E-03 0.  1.
         11   -1    0    0    0    0 -0.00000000000E+00 -0.00000000000E+00 -0.45593999997E+02  0.45594000000E+02  0.51100000000E-03 0. -1.
    9900012    2    1    2    0    0 -0.22547549827E+02 -0.29000352002E+02 -0.17428511487E+02  0.50528862870E+02  0.30000009181E+02 0.  0.
        -12    1    1    2    0    0  0.22547549827E+02  0.29000352002E+02  0.17428511487E+02  0.40659137130E+02  0.00000000000E+00 0.  1.
         11    1    3    3    0    0 -0.88289845972E+01 -0.15599232767E+02  0.28241903340E-01  0.17924503614E+02  0.51100000000E-03 0.  1.
        -11    1    3    3    0    0 -0.60054756908E+01 -0.79330823768E+01 -0.20404194261E+02  0.22700895973E+02  0.51100000000E-03 0. -1.
         12    1    3    3    0    0 -0.77130895388E+01 -0.54680368589E+01  0.29474408708E+01  0.99034632837E+01  0.00000000000E+00 0. -1.
</event>
<event>
 7    1  0.5839176E-013  0.5052886E+02  0.7816164E-02  0.1300439E+00
        -11   -1    0    0    0    0  0.00000000000E+00  0.00000000000E+00  0.45593999997E+02  0.45594000000E+02  0.51100000000E-03 0. -1.
         11   -1    0    0    0    0 -0.00000000000E+00 -0.00000000000E+00 -0.45593999997E+02  0.45594000000E+02  0.51100000000E-03 0.  1.
    9900012    2    1    2    0    0  0.13796100938E+02  0.34033746331E+02  0.17450991826E+02  0.50528863190E+02  0.30000010153E+02 0.  0.
        -12    1    1    2    0    0 -0.13796100938E+02 -0.34033746331E+02 -0.17450991826E+02  0.40659136810E+02  0.00000000000E+00 0.  1.
         11    1    3    3    0    0 -0.22290762471E+00  0.14107349544E+02 -0.23847999966E+01  0.14309237235E+02  0.51100000000E-03 0. -1.
        -11    1    3    3    0    0  0.88545805549E+00  0.16215515229E+02  0.77688614928E+01  0.18002282613E+02  0.51100000000E-03 0.  1.
        -12    1    3    3    0    0  0.13133550507E+02  0.37108815574E+01  0.12066930330E+02  0.18217343342E+02  0.00000000000E+00 0.  1.
</event>
<event>
 7    1  0.5839176E-013  0.5052886E+02  0.7816164E-02  0.1300439E+00
        -11   -1    0    0    0    0  0.00000000000E+00  0.00000000000E+00  0.45593999997E+02  0.45594000000E+02  0.51100000000E-03 0.  1.
         11   -1    0    0    0    0 -0.00000000000E+00 -0.00000000000E+00 -0.45593999997E+02  0.45594000000E+02  0.51100000000E-03 0. -1.
    9900012    2    1    2    0    0  0.31947432986E+01  0.32527057655E+02 -0.24185742758E+02  0.50528855676E+02  0.29999987313E+02 0.  0.
        -12    1    1    2    0    0 -0.31947432986E+01 -0.32527057655E+02  0.24185742758E+02  0.40659144324E+02  0.00000000000E+00 0.  1.
         11    1    3    3    0    0 -0.65319973032E+01  0.12079174623E+02 -0.16694501589E+02  0.21616656354E+02  0.51100000000E-03 0. -1.
        -11    1    3    3    0    0 -0.28608760684E+01  0.36701429709E+01  0.29219807092E+01  0.54947732284E+01  0.51100000000E-03 0.  1.
         12    1    3    3    0    0  0.12587616670E+02  0.16777740061E+02 -0.10413221878E+02  0.23417426094E+02  0.00000000000E+00 0. -1.
</event>
<event>
 7    1  0.5839176E-013  0.5052886E+02  0.7816164E-02  0.1300439E+00
        -11   -1    0    0    0    0  0.00000000000E+00  0.00000000000E+00  0.45593999997E+02  0.45594000000E+02  0.51100000000E-03 0.  1.
         11   -1    0    0    0    0 -0.00000000000E+00 -0.00000000000E+00 -0.45593999997E+02  0.45594000000E+02  0.51100000000E-03 0. -1.
    9900012    2    1    2    0    0 -0.57778245760E+01 -0.10120052837E+02 -0.38953397462E+02  0.50528857115E+02  0.29999991688E+02 0.  0.
        -12    1    1    2    0    0  0.57778245760E+01  0.10120052837E+02  0.38953397462E+02  0.40659142885E+02  0.00000000000E+00 0.  1.
         11    1    3    3    0    0 -0.21372188893E+00 -0.53654849189E+01 -0.26167045502E+02  0.26712326294E+02  0.51100000000E-03 0. -1.
        -11    1    3    3    0    0  0.50621175712E+01 -0.74696330249E+01 -0.45834038794E+01  0.10120674049E+02  0.51100000000E-03 0.  1.
         12    1    3    3    0    0 -0.10626220258E+02  0.27150651064E+01 -0.82029480806E+01  0.13695856772E+02  0.00000000000E+00 0. -1.
</event>
<event>
 7    1  0.5839176E-013  0.5052886E+02  0.7816164E-02  0.1300439E+00
        -11   -1    0    0    0    0  0.00000000000E+00  0.00000000000E+00  0.45593999997E+02  0.45594000000E+02  0.51100000000E-03 0.  1.
         11   -1    0    0    0    0 -0.00000000000E+00 -0.00000000000E+00 -0.45593999997E+02  0.45594000000E+02  0.51100000000E-03 0. -1.
    9900012    2    1    2    0    0  0.34094797779E+02  0.97515651719E+01 -0.19890134769E+02  0.50528859330E+02  0.29999998421E+02 0.  0.
        -12    1    1    2    0    0 -0.34094797779E+02 -0.97515651719E+01  0.19890134769E+02  0.40659140670E+02  0.00000000000E+00 0.  1.
         11    1    3    3    0    0  0.16441691475E+02  0.96995720824E+01 -0.28165159735E+01  0.19296208945E+02  0.51100000000E-03 0. -1.
        -11    1    3    3    0    0  0.14672017237E+02 -0.57262635797E+00 -0.83074326599E+00  0.14706669418E+02  0.51100000000E-03 0.  1.
         12    1    3    3    0    0  0.29810890666E+01  0.62461944742E+00 -0.16242875529E+02  0.16525980967E+02  0.00000000000E+00 0. -1.
</event>
<event>
 7    1  0.5839176E-013  0.5052886E+02  0.7816164E-02  0.1300439E+00
        -11   -1    0    0    0    0  0.00000000000E+00  0.00000000000E+00  0.45593999997E+02  0.45594000000E+02  0.51100000000E-03 0. -1.
         11   -1    0    0    0    0 -0.00000000000E+00 -0.00000000000E+00 -0.45593999997E+02  0.45594000000E+02  0.51100000000E-03 0.  1.
    9900012    2    1    2    0    0 -0.66600012067E+01  0.32817296704E+00  0.40108632339E+02  0.50528859556E+02  0.29999999106E+02 0.  0.
        -12    1    1    2    0    0  0.66600012067E+01 -0.32817296704E+00 -0.40108632339E+02  0.40659140444E+02  0.00000000000E+00 0.  1.
         11    1    3    3    0    0 -0.15617668551E+01  0.67481878580E+01 -0.42804935692E+00  0.69397681222E+01  0.51100000000E-03 0.  1.
        -11    1    3    3    0    0 -0.75423647558E+01 -0.14767577834E+01  0.10287506310E+02  0.12841373213E+02  0.51100000000E-03 0. -1.
         12    1    3    3    0    0  0.24441304042E+01 -0.49432571076E+01  0.30249175385E+02  0.30747718220E+02  0.00000000000E+00 0. -1.
</event>
<event>
 7    1  0.5839176E-013  0.5052888E+02  0.7816164E-02  0.1300439E+00
        -11   -1    0    0    0    0  0.00000000000E+00  0.00000000000E+00  0.45593999997E+02  0.45594000000E+02  0.51100000000E-03 0.  1.
         11   -1    0    0    0    0 -0.00000000000E+00 -0.00000000000E+00 -0.45593999997E+02  0.45594000000E+02  0.51100000000E-03 0. -1.
    9900012    2    1    2    0    0 -0.30892912113E+02 -0.46963600171E+01 -0.26014159447E+02  0.50528876695E+02  0.30000051201E+02 0.  0.
        -12    1    1    2    0    0  0.30892912113E+02  0.46963600171E+01  0.26014159447E+02  0.40659123305E+02  0.00000000000E+00 0.  1.
         11    1    3    3    0    0 -0.17451315963E+02  0.12071024227E+01 -0.22060863757E+02  0.28154701829E+02  0.51100000000E-03 0. -1.
        -11    1    3    3    0    0 -0.34605340734E+01 -0.89808683849E+01 -0.65120708519E+01  0.11620600676E+02  0.51100000000E-03 0.  1.
        -12    1    3    3    0    0 -0.99810620765E+01  0.30774059451E+01  0.25587751625E+01  0.10753574190E+02  0.00000000000E+00 0.  1.
</event>
<event>
 7    1  0.5839176E-013  0.5052888E+02  0.7816164E-02  0.1300439E+00
        -11   -1    0    0    0    0  0.00000000000E+00  0.00000000000E+00  0.45593999997E+02  0.45594000000E+02  0.51100000000E-03 0.  1.
         11   -1    0    0    0    0 -0.00000000000E+00 -0.00000000000E+00 -0.45593999997E+02  0.45594000000E+02  0.51100000000E-03 0. -1.
    9900012    2    1    2    0    0 -0.76358927822E+01 -0.32288680948E+02 -0.23501032978E+02  0.50528876461E+02  0.30000050490E+02 0.  0.
        -12    1    1    2    0    0  0.76358927822E+01  0.32288680948E+02  0.23501032978E+02  0.40659123539E+02  0.00000000000E+00 0.  1.
         11    1    3    3    0    0 -0.10310909708E+01  0.21298916212E+01  0.17851196337E+00  0.23730684125E+01  0.51100000000E-03 0. -1.
        -11    1    3    3    0    0  0.41258969098E+01  0.15284455941E+01 -0.20699043966E+01  0.48624762947E+01  0.51100000000E-03 0.  1.
         12    1    3    3    0    0 -0.10730698721E+02 -0.35947018163E+02 -0.21609640545E+02  0.43293331754E+02  0.00000000000E+00 0. -1.
</event>
<event>
 7    1  0.5839176E-013  0.5052886E+02  0.7816164E-02  0.1300439E+00
        -11   -1    0    0    0    0  0.00000000000E+00  0.00000000000E+00  0.45593999997E+02  0.45594000000E+02  0.51100000000E-03 0.  1.
         11   -1    0    0    0    0 -0.00000000000E+00 -0.00000000000E+00 -0.45593999997E+02  0.45594000000E+02  0.51100000000E-03 0. -1.
    9900012    2    1    2    0    0  0.37738822424E+02 -0.69126029442E+01 -0.13459671305E+02  0.50528861432E+02  0.30000004810E+02 0.  0.
        -12    1    1    2    0    0 -0.37738822424E+02  0.69126029442E+01  0.13459671305E+02  0.40659138568E+02  0.00000000000E+00 0.  1.
         11    1    3    3    0    0  0.82408699233E+01 -0.47431369744E+00  0.62274255093E+00  0.82779658807E+01  0.51100000000E-03 0. -1.
        -11    1    3    3    0    0  0.81531663919E+01  0.80281936178E+01  0.23413162258E+01  0.11679373995E+02  0.51100000000E-03 0.  1.
         12    1    3    3    0    0  0.21344786109E+02 -0.14466482865E+02 -0.16423730082E+02  0.30571521557E+02  0.00000000000E+00 0. -1.
</event>
<event>
 7    1  0.5839176E-013  0.5052884E+02  0.7816164E-02  0.1300439E+00
        -11   -1    0    0    0    0  0.00000000000E+00  0.00000000000E+00  0.45593999997E+02  0.45594000000E+02  0.51100000000E-03 0. -1.
         11   -1    0    0    0    0 -0.00000000000E+00 -0.00000000000E+00 -0.45593999997E+02  0.45594000000E+02  0.51100000000E-03 0.  1.
    9900012    2    1    2    0    0  0.49738467472E+01 -0.30878687166E+02  0.25979502958E+02  0.50528843018E+02  0.29999948836E+02 0.  0.
        -12    1    1    2    0    0 -0.49738467472E+01  0.30878687166E+02 -0.25979502958E+02  0.40659156982E+02  0.00000000000E+00 0.  1.
         11    1    3    3    0    0  0.45073302950E+01 -0.57564165493E+00  0.87889844987E-01  0.45447898289E+01  0.51100000000E-03 0. -1.
        -11    1    3    3    0    0  0.68320231214E+01 -0.65277147968E+01 -0.10324077523E+01  0.95054440416E+01  0.51100000000E-03 0.  1.
         12    1    3    3    0    0 -0.63655066692E+01 -0.23775330714E+02  0.26924020866E+02  0.36478609147E+02  0.00000000000E+00 0. -1.
</event>
<event>
 7    1  0.5839176E-013  0.5052882E+02  0.7816164E-02  0.1300439E+00
        -11   -1    0    0    0    0  0.00000000000E+00  0.00000000000E+00  0.45593999997E+02  0.45594000000E+02  0.51100000000E-03 0.  1.
         11   -1    0    0    0    0 -0.00000000000E+00 -0.00000000000E+00 -0.45593999997E+02  0.45594000000E+02  0.51100000000E-03 0. -1.
    9900012    2    1    2    0    0 -0.18963689659E+02  0.83474625029E+01 -0.34983809502E+02  0.50528824123E+02  0.29999891404E+02 0.  0.
        -12    1    1    2    0    0  0.18963689659E+02 -0.83474625029E+01  0.34983809502E+02  0.40659175877E+02  0.00000000000E+00 0.  1.
         11    1    3    3    0    0 -0.51844410627E+00  0.31130528798E+01 -0.66438706782E+01  0.73553314251E+01  0.51100000000E-03 0.  1.
        -11    1    3    3    0    0 -0.12323937394E+02  0.15829217914E+02 -0.14839016263E+02  0.24952754889E+02  0.51100000000E-03 0. -1.
         12    1    3    3    0    0 -0.61213081591E+01 -0.10594808291E+02 -0.13500922561E+02  0.18220737809E+02  0.00000000000E+00 0. -1.
</event>
<event>
 7    1  0.5839176E-013  0.5052886E+02  0.7816164E-02  0.1300439E+00
        -11   -1    0    0    0    0  0.00000000000E+00  0.00000000000E+00  0.45593999997E+02  0.45594000000E+02  0.51100000000E-03 0.  1.
         11   -1    0    0    0    0 -0.00000000000E+00 -0.00000000000E+00 -0.45593999997E+02  0.45594000000E+02  0.51100000000E-03 0. -1.
    9900012    2    1    2    0    0  0.25944465110E+02  0.30971129057E+02 -0.45650430436E+01  0.50528859295E+02  0.29999998312E+02 0.  0.
        -12    1    1    2    0    0 -0.25944465110E+02 -0.30971129057E+02  0.45650430436E+01  0.40659140705E+02  0.00000000000E+00 0.  1.
         11    1    3    3    0    0  0.15305287272E+02  0.30866325709E+01  0.14341807100E+01  0.15679157939E+02  0.51100000000E-03 0.  1.
        -11    1    3    3    0    0  0.67427469491E+01  0.16300522735E+01  0.18351334198E+01  0.71756129887E+01  0.51100000000E-03 0. -1.
         12    1    3    3    0    0  0.38964308882E+01  0.26254444213E+02 -0.78343571733E+01  0.27674088366E+02  0.00000000000E+00 0. -1.
</event>
<event>
 7    1  0.5839176E-013  0.5052887E+02  0.7816164E-02  0.1300439E+00
        -11   -1    0    0    0    0  0.00000000000E+00  0.00000000000E+00  0.45593999997E+02  0.45594000000E+02  0.51100000000E-03 0. -1.
         11   -1    0    0    0    0 -0.00000000000E+00 -0.00000000000E+00 -0.45593999997E+02  0.45594000000E+02  0.51100000000E-03 0.  1.
    9900012    2    1    2    0    0  0.28855389839E+02  0.21394809953E+02  0.19047142386E+02  0.50528867584E+02  0.30000023510E+02 0.  0.
        -12    1    1    2    0    0 -0.28855389839E+02 -0.21394809953E+02 -0.19047142386E+02  0.40659132416E+02  0.00000000000E+00 0.  1.
         11    1    3    3    0    0  0.50659807253E+01  0.28749769569E+01  0.11753441682E+02  0.13117661562E+02  0.51100000000E-03 0.  1.
        -11    1    3    3    0    0  0.27089000926E+02  0.12512588144E+02  0.59932360971E+01  0.30435139435E+02  0.51100000000E-03 0. -1.
         12    1    3    3    0    0 -0.32995918122E+01  0.60072448526E+01  0.13004646066E+01  0.69760665879E+01  0.00000000000E+00 0. -1.
</event>
<event>
 7    1  0.5839176E-013  0.5052886E+02  0.7816164E-02  0.1300439E+00
        -11   -1    0    0    0    0  0.00000000000E+00  0.00000000000E+00  0.45593999997E+02  0.45594000000E+02  0.51100000000E-03 0.  1.
         11   -1    0    0    0    0 -0.00000000000E+00 -0.00000000000E+00 -0.45593999997E+02  0.45594000000E+02  0.51100000000E-03 0. -1.
    9900012    2    1    2    0    0  0.39399508407E+02  0.93194535883E+01  0.37405826921E+01  0.50528862813E+02  0.30000009007E+02 0.  0.
        -12    1    1    2    0    0 -0.39399508407E+02 -0.93194535883E+01 -0.37405826921E+01  0.40659137187E+02  0.00000000000E+00 0.  1.
         11    1    3    3    0    0  0.14059062325E+02  0.79602361612E+01  0.38162432873E+00  0.16160700189E+02  0.51100000000E-03 0. -1.
        -11    1    3    3    0    0 -0.21344243834E+01  0.34390086243E+01  0.53893224604E+01  0.67399810541E+01  0.51100000000E-03 0.  1.
         12    1    3    3    0    0  0.27474870465E+02 -0.20797911972E+01 -0.20303640970E+01  0.27628181570E+02  0.00000000000E+00 0. -1.
</event>
<event>
 7    1  0.5839176E-013  0.5052887E+02  0.7816164E-02  0.1300439E+00
        -11   -1    0    0    0    0  0.00000000000E+00  0.00000000000E+00  0.45593999997E+02  0.45594000000E+02  0.51100000000E-03 0.  1.
         11   -1    0    0    0    0 -0.00000000000E+00 -0.00000000000E+00 -0.45593999997E+02  0.45594000000E+02  0.51100000000E-03 0. -1.
    9900012    2    1    2    0    0 -0.88860249902E+01  0.16916711113E+02 -0.35889107145E+02  0.50528873513E+02  0.30000041530E+02 0.  0.
        -12    1    1    2    0    0  0.88860249902E+01 -0.16916711113E+02  0.35889107145E+02  0.40659126487E+02  0.00000000000E+00 0.  1.
         11    1    3    3    0    0  0.90465234761E+00  0.14104532429E+02 -0.20760746230E+02  0.25115031658E+02  0.51100000000E-03 0. -1.
        -11    1    3    3    0    0  0.99821997409E+00  0.18406408120E+01 -0.14405841497E+02  0.14557220587E+02  0.51100000000E-03 0.  1.
        -12    1    3    3    0    0 -0.10788897312E+02  0.97153787204E+00 -0.72251941791E+00  0.10856621268E+02  0.00000000000E+00 0.  1.
</event>
<event>
 7    1  0.5839176E-013  0.5052886E+02  0.7816164E-02  0.1300439E+00
        -11   -1    0    0    0    0  0.00000000000E+00  0.00000000000E+00  0.45593999997E+02  0.45594000000E+02  0.51100000000E-03 0.  1.
         11   -1    0    0    0    0 -0.00000000000E+00 -0.00000000000E+00 -0.45593999997E+02  0.45594000000E+02  0.51100000000E-03 0. -1.
    9900012    2    1    2    0    0  0.14391773695E+02  0.10705753518E+02 -0.36488756317E+02  0.50528860240E+02  0.30000001185E+02 0.  0.
        -12    1    1    2    0    0 -0.14391773695E+02 -0.10705753518E+02  0.36488756317E+02  0.40659139760E+02  0.00000000000E+00 0.  1.
         11    1    3    3    0    0 -0.90886448422E+00  0.87876321996E+01 -0.20348616712E+02  0.22183658776E+02  0.51100000000E-03 0. -1.
        -11    1    3    3    0    0  0.23513710336E+01  0.84267356909E+01 -0.51038289171E+01  0.10128568014E+02  0.51100000000E-03 0.  1.
         12    1    3    3    0    0  0.12949267145E+02 -0.65086143723E+01 -0.11036310688E+02  0.18216633450E+02  0.00000000000E+00 0. -1.
</event>
<event>
 7    1  0.5839176E-013  0.5052887E+02  0.7816164E-02  0.1300439E+00
        -11   -1    0    0    0    0  0.00000000000E+00  0.00000000000E+00  0.45593999997E+02  0.45594000000E+02  0.51100000000E-03 0.  1.
         11   -1    0    0    0    0 -0.00000000000E+00 -0.00000000000E+00 -0.45593999997E+02  0.45594000000E+02  0.51100000000E-03 0. -1.
    9900012    2    1    2    0    0 -0.86003661190E+01 -0.39644814397E+02 -0.27363177668E+01  0.50528867682E+02  0.30000023805E+02 0.  0.
        -12    1    1    2    0    0  0.86003661190E+01  0.39644814397E+02  0.27363177668E+01  0.40659132318E+02  0.00000000000E+00 0.  1.
         11    1    3    3    0    0 -0.45497423463E+01 -0.77655085465E+01 -0.55965607911E+00  0.90175658351E+01  0.51100000000E-03 0. -1.
        -11    1    3    3    0    0 -0.99896876665E+01 -0.11910820082E+01  0.91063966557E+00  0.10101574179E+02  0.51100000000E-03 0.  1.
         12    1    3    3    0    0  0.59390638938E+01 -0.30688223842E+02 -0.30873013533E+01  0.31409727668E+02  0.00000000000E+00 0. -1.
</event>
<event>
 7    1  0.5839176E-013  0.5052887E+02  0.7816164E-02  0.1300439E+00
        -11   -1    0    0    0    0  0.00000000000E+00  0.00000000000E+00  0.45593999997E+02  0.45594000000E+02  0.51100000000E-03 0.  1.
         11   -1    0    0    0    0 -0.00000000000E+00 -0.00000000000E+00 -0.45593999997E+02  0.45594000000E+02  0.51100000000E-03 0. -1.
    9900012    2    1    2    0    0  0.56205219591E+01 -0.25311805817E+02 -0.31319119965E+02  0.50528867493E+02  0.30000023233E+02 0.  0.
        -12    1    1    2    0    0 -0.56205219591E+01  0.25311805817E+02  0.31319119965E+02  0.40659132507E+02  0.00000000000E+00 0.  1.
         11    1    3    3    0    0 -0.14415412306E+01 -0.80249045138E+00  0.13898361886E+01  0.21572382661E+01  0.51100000000E-03 0. -1.
        -11    1    3    3    0    0 -0.60866904014E+01  0.14067014030E+01 -0.84972276691E+01  0.10546539110E+02  0.51100000000E-03 0.  1.
         12    1    3    3    0    0  0.13148753591E+02 -0.25916016769E+02 -0.24211728484E+02  0.37825090117E+02  0.00000000000E+00 0. -1.
</event>
<event>
 7    1  0.5839176E-013  0.5052889E+02  0.7816164E-02  0.1300439E+00
        -11   -1    0    0    0    0  0.00000000000E+00  0.00000000000E+00  0.45593999997E+02  0.45594000000E+02  0.51100000000E-03 0. -1.
         11   -1    0    0    0    0 -0.00000000000E+00 -0.00000000000E+00 -0.45593999997E+02  0.45594000000E+02  0.51100000000E-03 0.  1.
    9900012    2    1    2    0    0  0.36889754406E+02 -0.64970566841E+01  0.15814467362E+02  0.50528891505E+02  0.30000096218E+02 0.  0.
        -12    1    1    2    0    0 -0.36889754406E+02  0.64970566841E+01 -0.15814467362E+02  0.40659108495E+02  0.00000000000E+00 0.  1.
         11    1    3    3    0    0  0.30690720133E+02 -0.32573920278E+01  0.41057783976E+01  0.31135001551E+02  0.51100000000E-03 0. -1.
        -11    1    3    3    0    0  0.45290866636E+01  0.26963810551E+01 -0.91012808491E+00  0.53489653385E+01  0.51100000000E-03 0.  1.
         12    1    3    3    0    0  0.16699476093E+01 -0.59360457114E+01  0.12618817050E+02  0.14044924615E+02  0.00000000000E+00 0. -1.
</event>
<event>
 7    1  0.5839176E-013  0.5052882E+02  0.7816164E-02  0.1300439E+00
        -11   -1    0    0    0    0  0.00000000000E+00  0.00000000000E+00  0.45593999997E+02  0.45594000000E+02  0.51100000000E-03 0.  1.
         11   -1    0    0    0    0 -0.00000000000E+00 -0.00000000000E+00 -0.45593999997E+02  0.45594000000E+02  0.51100000000E-03 0. -1.
    9900012    2    1    2    0    0  0.21359425700E+02  0.33447590860E+02 -0.88432355973E+01  0.50528816333E+02  0.29999867726E+02 0.  0.
        -12    1    1    2    0    0 -0.21359425700E+02 -0.33447590860E+02  0.88432355973E+01  0.40659183667E+02  0.00000000000E+00 0.  1.
         11    1    3    3    0    0  0.78981912919E+01  0.17443396340E+01 -0.78227783362E+01  0.11252555603E+02  0.51100000000E-03 0.  1.
        -11    1    3    3    0    0  0.10701183187E+01  0.51401050432E+01 -0.75986321944E+01  0.92360730052E+01  0.51100000000E-03 0. -1.
        -12    1    3    3    0    0  0.12391116090E+02  0.26563146183E+02  0.65781749333E+01  0.30040187725E+02  0.00000000000E+00 0.  1.
</event>
<event>
 7    1  0.5839176E-013  0.5052890E+02  0.7816164E-02  0.1300439E+00
        -11   -1    0    0    0    0  0.00000000000E+00  0.00000000000E+00  0.45593999997E+02  0.45594000000E+02  0.51100000000E-03 0. -1.
         11   -1    0    0    0    0 -0.00000000000E+00 -0.00000000000E+00 -0.45593999997E+02  0.45594000000E+02  0.51100000000E-03 0.  1.
    9900012    2    1    2    0    0 -0.66507623138E+01  0.25241322643E+02  0.31173795906E+02  0.50528898198E+02  0.30000116564E+02 0.  0.
        -12    1    1    2    0    0  0.66507623138E+01 -0.25241322643E+02 -0.31173795906E+02  0.40659101802E+02  0.00000000000E+00 0.  1.
         11    1    3    3    0    0 -0.22155306821E+01  0.15054075894E+02  0.13600178178E+02  0.20408297919E+02  0.51100000000E-03 0. -1.
        -11    1    3    3    0    0 -0.10945532366E+02  0.11130971695E+01  0.23672888154E+01  0.11253786949E+02  0.51100000000E-03 0.  1.
         12    1    3    3    0    0  0.65103007346E+01  0.90741495796E+01  0.15206328913E+02  0.18866813330E+02  0.00000000000E+00 0. -1.
</event>
<event>
 7    1  0.5839176E-013  0.5052886E+02  0.7816164E-02  0.1300439E+00
        -11   -1    0    0    0    0  0.00000000000E+00  0.00000000000E+00  0.45593999997E+02  0.45594000000E+02  0.51100000000E-03 0.  1.
         11   -1    0    0    0    0 -0.00000000000E+00 -0.00000000000E+00 -0.45593999997E+02  0.45594000000E+02  0.51100000000E-03 0. -1.
    9900012    2    1    2    0    0  0.17210529326E+02 -0.11752059340E+02 -0.34912069507E+02  0.50528858154E+02  0.29999994843E+02 0.  0.
        -12    1    1    2    0    0 -0.17210529326E+02  0.11752059340E+02  0.34912069507E+02  0.40659141846E+02  0.00000000000E+00 0.  1.
         11    1    3    3    0    0  0.17462677707E+02  0.53957792582E+01 -0.18496448310E+02  0.26003425675E+02  0.51100000000E-03 0. -1.
        -11    1    3    3    0    0  0.10325085089E+01 -0.51684705767E+00 -0.47745134614E-01  0.11556316718E+01  0.51100000000E-03 0.  1.
        -12    1    3    3    0    0 -0.12846568893E+01 -0.16630991540E+02 -0.16367876062E+02  0.23369800806E+02  0.00000000000E+00 0.  1.
</event>
<event>
 7    1  0.5839176E-013  0.5052885E+02  0.7816164E-02  0.1300439E+00
        -11   -1    0    0    0    0  0.00000000000E+00  0.00000000000E+00  0.45593999997E+02  0.45594000000E+02  0.51100000000E-03 0.  1.
         11   -1    0    0    0    0 -0.00000000000E+00 -0.00000000000E+00 -0.45593999997E+02  0.45594000000E+02  0.51100000000E-03 0. -1.
    9900012    2    1    2    0    0  0.87388113869E+01 -0.21539560679E+02 -0.33359356664E+02  0.50528853726E+02  0.29999981385E+02 0.  0.
        -12    1    1    2    0    0 -0.87388113869E+01  0.21539560679E+02  0.33359356664E+02  0.40659146274E+02  0.00000000000E+00 0.  1.
         11    1    3    3    0    0  0.96086897854E+01 -0.15832791330E+02 -0.23789609228E+02  0.30148792815E+02  0.51100000000E-03 0. -1.
        -11    1    3    3    0    0 -0.11821940766E+01  0.26062508610E+01 -0.11491159262E+02  0.11842164829E+02  0.51100000000E-03 0.  1.
        -12    1    3    3    0    0  0.31231567811E+00 -0.83130202102E+01  0.19214118270E+01  0.85378960820E+01  0.00000000000E+00 0.  1.
</event>
<event>
 7    1  0.5839176E-013  0.5052887E+02  0.7816164E-02  0.1300439E+00
        -11   -1    0    0    0    0  0.00000000000E+00  0.00000000000E+00  0.45593999997E+02  0.45594000000E+02  0.51100000000E-03 0.  1.
         11   -1    0    0    0    0 -0.00000000000E+00 -0.00000000000E+00 -0.45593999997E+02  0.45594000000E+02  0.51100000000E-03 0. -1.
    9900012    2    1    2    0    0 -0.14851047490E+02  0.10763433642E+02 -0.36287184676E+02  0.50528869574E+02  0.30000029557E+02 0.  0.
        -12    1    1    2    0    0  0.14851047490E+02 -0.10763433642E+02  0.36287184676E+02  0.40659130426E+02  0.00000000000E+00 0.  1.
         11    1    3    3    0    0 -0.29361128019E+00  0.88644080198E+01 -0.19466931831E+02  0.21392180167E+02  0.51100000000E-03 0.  1.
        -11    1    3    3    0    0 -0.78274282469E+01  0.76289033647E+01 -0.95039048616E+00  0.10971419318E+02  0.51100000000E-03 0. -1.
         12    1    3    3    0    0 -0.67300079632E+01 -0.57298777426E+01 -0.15869862358E+02  0.18165270089E+02  0.00000000000E+00 0. -1.
</event>
<event>
 7    1  0.5839176E-013  0.5052886E+02  0.7816164E-02  0.1300439E+00
        -11   -1    0    0    0    0  0.00000000000E+00  0.00000000000E+00  0.45593999997E+02  0.45594000000E+02  0.51100000000E-03 0. -1.
         11   -1    0    0    0    0 -0.00000000000E+00 -0.00000000000E+00 -0.45593999997E+02  0.45594000000E+02  0.51100000000E-03 0.  1.
    9900012    2    1    2    0    0 -0.26425520199E+02 -0.11527669764E+02  0.28670031079E+02  0.50528856255E+02  0.29999989074E+02 0.  0.
        -12    1    1    2    0    0  0.26425520199E+02  0.11527669764E+02 -0.28670031079E+02  0.40659143745E+02  0.00000000000E+00 0.  1.
         11    1    3    3    0    0 -0.17807863864E+02 -0.59707316734E+01  0.14575943432E+02  0.23774519539E+02  0.51100000000E-03 0. -1.
        -11    1    3    3    0    0 -0.94122582696E+01 -0.16590502318E+01 -0.23449496325E+01  0.98408252929E+01  0.51100000000E-03 0.  1.
         12    1    3    3    0    0  0.79460193474E+00 -0.38978878589E+01  0.16439037279E+02  0.16913511423E+02  0.00000000000E+00 0. -1.
</event>
<event>
 7    1  0.5839176E-013  0.5052891E+02  0.7816164E-02  0.1300439E+00
        -11   -1    0    0    0    0  0.00000000000E+00  0.00000000000E+00  0.45593999997E+02  0.45594000000E+02  0.51100000000E-03 0.  1.
         11   -1    0    0    0    0 -0.00000000000E+00 -0.00000000000E+00 -0.45593999997E+02  0.45594000000E+02  0.51100000000E-03 0. -1.
    9900012    2    1    2    0    0  0.44899177558E+01 -0.47321915750E+01 -0.40132390323E+02  0.50528908131E+02  0.30000146756E+02 0.  0.
        -12    1    1    2    0    0 -0.44899177558E+01  0.47321915750E+01  0.40132390323E+02  0.40659091869E+02  0.00000000000E+00 0.  1.
         11    1    3    3    0    0 -0.40424703564E+01  0.33970960797E+01 -0.35523649153E+01  0.63640494270E+01  0.51100000000E-03 0.  1.
        -11    1    3    3    0    0  0.41635718317E+01  0.10418103491E+01  0.16575500126E+01  0.46008881215E+01  0.51100000000E-03 0. -1.
         12    1    3    3    0    0  0.43688162804E+01 -0.91710980038E+01 -0.38237575420E+02  0.39563970583E+02  0.00000000000E+00 0. -1.
</event>
<event>
 7    1  0.5839176E-013  0.5052886E+02  0.7816164E-02  0.1300439E+00
        -11   -1    0    0    0    0  0.00000000000E+00  0.00000000000E+00  0.45593999997E+02  0.45594000000E+02  0.51100000000E-03 0. -1.
         11   -1    0    0    0    0 -0.00000000000E+00 -0.00000000000E+00 -0.45593999997E+02  0.45594000000E+02  0.51100000000E-03 0.  1.
    9900012    2    1    2    0    0  0.37177019401E+02  0.13495942033E+02  0.94283658765E+01  0.50528864422E+02  0.30000013896E+02 0.  0.
        -12    1    1    2    0    0 -0.37177019401E+02 -0.13495942033E+02 -0.94283658765E+01  0.40659135578E+02  0.00000000000E+00 0.  1.
         11    1    3    3    0    0  0.20094936749E+02  0.99132491486E+01  0.13560671503E+01  0.22448115956E+02  0.51100000000E-03 0. -1.
        -11    1    3    3    0    0  0.91779615129E+01  0.59157461876E+01  0.14126541641E+02  0.17854697127E+02  0.51100000000E-03 0.  1.
        -12    1    3    3    0    0  0.79041211391E+01 -0.23330533035E+01 -0.60542429152E+01  0.10226051338E+02  0.00000000000E+00 0.  1.
</event>
<event>
 7    1  0.5839176E-013  0.5052887E+02  0.7816164E-02  0.1300439E+00
        -11   -1    0    0    0    0  0.00000000000E+00  0.00000000000E+00  0.45593999997E+02  0.45594000000E+02  0.51100000000E-03 0. -1.
         11   -1    0    0    0    0 -0.00000000000E+00 -0.00000000000E+00 -0.45593999997E+02  0.45594000000E+02  0.51100000000E-03 0.  1.
    9900012    2    1    2    0    0  0.36753904461E+02 -0.55084530901E+01  0.16491594770E+02  0.50528865151E+02  0.30000016114E+02 0.  0.
        -12    1    1    2    0    0 -0.36753904461E+02  0.55084530901E+01 -0.16491594770E+02  0.40659134849E+02  0.00000000000E+00 0.  1.
         11    1    3    3    0    0  0.17083512545E+02 -0.61291052407E+01  0.10335035861E+02  0.20886007240E+02  0.51100000000E-03 0. -1.
        -11    1    3    3    0    0  0.25712926391E+01  0.69499054936E+01  0.84810652340E+01  0.11262379854E+02  0.51100000000E-03 0.  1.
         12    1    3    3    0    0  0.17099099277E+02 -0.63292533429E+01 -0.23245063247E+01  0.18380478057E+02  0.00000000000E+00 0. -1.
</event>
<event>
 7    1  0.5839176E-013  0.5052886E+02  0.7816164E-02  0.1300439E+00
        -11   -1    0    0    0    0  0.00000000000E+00  0.00000000000E+00  0.45593999997E+02  0.45594000000E+02  0.51100000000E-03 0. -1.
         11   -1    0    0    0    0 -0.00000000000E+00 -0.00000000000E+00 -0.45593999997E+02  0.45594000000E+02  0.51100000000E-03 0.  1.
    9900012    2    1    2    0    0  0.27453044771E+02  0.27987719645E+02 -0.10778831932E+02  0.50528864053E+02  0.30000012776E+02 0.  0.
        -12    1    1    2    0    0 -0.27453044771E+02 -0.27987719645E+02  0.10778831932E+02  0.40659135947E+02  0.00000000000E+00 0.  1.
         11    1    3    3    0    0  0.16117741062E+01 -0.11896066742E+01  0.16936127848E+01  0.26232240345E+01  0.51100000000E-03 0. -1.
        -11    1    3    3    0    0 -0.21674418658E+01 -0.24346566699E+01  0.12590876392E+01  0.34943753786E+01  0.51100000000E-03 0.  1.
         12    1    3    3    0    0  0.28008712531E+02  0.31611982989E+02 -0.13731532356E+02  0.44411264640E+02  0.00000000000E+00 0. -1.
</event>
<event>
 7    1  0.5839176E-013  0.5052888E+02  0.7816164E-02  0.1300439E+00
        -11   -1    0    0    0    0  0.00000000000E+00  0.00000000000E+00  0.45593999997E+02  0.45594000000E+02  0.51100000000E-03 0.  1.
         11   -1    0    0    0    0 -0.00000000000E+00 -0.00000000000E+00 -0.45593999997E+02  0.45594000000E+02  0.51100000000E-03 0. -1.
    9900012    2    1    2    0    0  0.27250734931E+02  0.13575609653E+02 -0.26949292253E+02  0.50528879441E+02  0.30000059549E+02 0.  0.
        -12    1    1    2    0    0 -0.27250734931E+02 -0.13575609653E+02  0.26949292253E+02  0.40659120559E+02  0.00000000000E+00 0.  1.
         11    1    3    3    0    0  0.42314610734E+01 -0.38727995245E+01 -0.14199663523E+02  0.15314512183E+02  0.51100000000E-03 0. -1.
        -11    1    3    3    0    0 -0.73320739825E+00 -0.19626959762E+01 -0.33331484348E+00  0.21215248360E+01  0.51100000000E-03 0.  1.
        -12    1    3    3    0    0  0.23752481256E+02  0.19411105153E+02 -0.12416313886E+02  0.33092842422E+02  0.00000000000E+00 0.  1.
</event>
<event>
 7    1  0.5839176E-013  0.5052886E+02  0.7816164E-02  0.1300439E+00
        -11   -1    0    0    0    0  0.00000000000E+00  0.00000000000E+00  0.45593999997E+02  0.45594000000E+02  0.51100000000E-03 0.  1.
         11   -1    0    0    0    0 -0.00000000000E+00 -0.00000000000E+00 -0.45593999997E+02  0.45594000000E+02  0.51100000000E-03 0. -1.
    9900012    2    1    2    0    0  0.23579961613E+02 -0.28853360232E+02 -0.16267595994E+02  0.50528859997E+02  0.30000000447E+02 0.  0.
        -12    1    1    2    0    0 -0.23579961613E+02  0.28853360232E+02  0.16267595994E+02  0.40659140003E+02  0.00000000000E+00 0.  1.
         11    1    3    3    0    0  0.42480071011E+01 -0.20504561935E+01 -0.10229727020E+02  0.11264867958E+02  0.51100000000E-03 0. -1.
        -11    1    3    3    0    0  0.14436037681E+02 -0.85398189709E+01  0.48310887911E+01  0.17454716015E+02  0.51100000000E-03 0.  1.
         12    1    3    3    0    0  0.48959168305E+01 -0.18263085068E+02 -0.10868957765E+02  0.21809276024E+02  0.00000000000E+00 0. -1.
</event>
<event>
 7    1  0.5839176E-013  0.5052886E+02  0.7816164E-02  0.1300439E+00
        -11   -1    0    0    0    0  0.00000000000E+00  0.00000000000E+00  0.45593999997E+02  0.45594000000E+02  0.51100000000E-03 0. -1.
         11   -1    0    0    0    0 -0.00000000000E+00 -0.00000000000E+00 -0.45593999997E+02  0.45594000000E+02  0.51100000000E-03 0.  1.
    9900012    2    1    2    0    0 -0.39895630887E+02  0.23745938600E+01  0.74743247074E+01  0.50528860932E+02  0.30000003289E+02 0.  0.
        -12    1    1    2    0    0  0.39895630887E+02 -0.23745938600E+01 -0.74743247074E+01  0.40659139068E+02  0.00000000000E+00 0.  1.
         11    1    3    3    0    0 -0.38461926621E+00 -0.19111080604E+01  0.17646667377E+01  0.26295085006E+01  0.51100000000E-03 0. -1.
        -11    1    3    3    0    0 -0.47528146540E+01  0.10856477231E+02 -0.10053155036E+01  0.11893822116E+02  0.51100000000E-03 0.  1.
        -12    1    3    3    0    0 -0.34758196967E+02 -0.65707753103E+01  0.67149734733E+01  0.36005530316E+02  0.00000000000E+00 0.  1.
</event>
<event>
 7    1  0.5839176E-013  0.5052886E+02  0.7816164E-02  0.1300439E+00
        -11   -1    0    0    0    0  0.00000000000E+00  0.00000000000E+00  0.45593999997E+02  0.45594000000E+02  0.51100000000E-03 0.  1.
         11   -1    0    0    0    0 -0.00000000000E+00 -0.00000000000E+00 -0.45593999997E+02  0.45594000000E+02  0.51100000000E-03 0. -1.
    9900012    2    1    2    0    0  0.13131569855E+02  0.37189709220E+02 -0.98819700083E+01  0.50528856749E+02  0.29999990573E+02 0.  0.
        -12    1    1    2    0    0 -0.13131569855E+02 -0.37189709220E+02  0.98819700083E+01  0.40659143251E+02  0.00000000000E+00 0.  1.
         11    1    3    3    0    0  0.14202279683E+02  0.30989751512E+02 -0.12560124255E+02  0.36329411894E+02  0.51100000000E-03 0. -1.
        -11    1    3    3    0    0  0.25580371156E+00  0.28004989607E+01 -0.49784106265E+01  0.57177620268E+01  0.51100000000E-03 0.  1.
        -12    1    3    3    0    0 -0.13265135399E+01  0.33994587463E+01  0.76565648730E+01  0.84816828280E+01  0.00000000000E+00 0.  1.
</event>
<event>
 7    1  0.5839176E-013  0.5052883E+02  0.7816164E-02  0.1300439E+00
        -11   -1    0    0    0    0  0.00000000000E+00  0.00000000000E+00  0.45593999997E+02  0.45594000000E+02  0.51100000000E-03 0.  1.
         11   -1    0    0    0    0 -0.00000000000E+00 -0.00000000000E+00 -0.45593999997E+02  0.45594000000E+02  0.51100000000E-03 0. -1.
    9900012    2    1    2    0    0 -0.27379030598E+02  0.12588438830E+02 -0.27296299824E+02  0.50528830152E+02  0.29999909730E+02 0.  0.
        -12    1    1    2    0    0  0.27379030598E+02 -0.12588438830E+02  0.27296299824E+02  0.40659169848E+02  0.00000000000E+00 0.  1.
         11    1    3    3    0    0 -0.17627344717E+02 -0.26286476675E+01 -0.83716765492E+01  0.19690557099E+02  0.51100000000E-03 0. -1.
        -11    1    3    3    0    0 -0.13238628143E+02  0.70508557884E+01 -0.14712614355E+02  0.21010398946E+02  0.51100000000E-03 0.  1.
        -12    1    3    3    0    0  0.34869422623E+01  0.81662307090E+01 -0.42120089195E+01  0.98278741074E+01  0.00000000000E+00 0.  1.
</event>
<event>
 7    1  0.5839176E-013  0.5052887E+02  0.7816164E-02  0.1300439E+00
        -11   -1    0    0    0    0  0.00000000000E+00  0.00000000000E+00  0.45593999997E+02  0.45594000000E+02  0.51100000000E-03 0.  1.
         11   -1    0    0    0    0 -0.00000000000E+00 -0.00000000000E+00 -0.45593999997E+02  0.45594000000E+02  0.51100000000E-03 0. -1.
    9900012    2    1    2    0    0  0.16323342973E+02  0.22507248810E+01 -0.37170523801E+02  0.50528866612E+02  0.30000020552E+02 0.  0.
        -12    1    1    2    0    0 -0.16323342973E+02 -0.22507248810E+01  0.37170523801E+02  0.40659133388E+02  0.00000000000E+00 0.  1.
         11    1    3    3    0    0 -0.10921228837E+01 -0.37525969953E+01  0.27538411703E-01  0.39083852455E+01  0.51100000000E-03 0. -1.
        -11    1    3    3    0    0 -0.25614101012E+01 -0.47225868011E+01 -0.60103225770E+01  0.80614902805E+01  0.51100000000E-03 0.  1.
         12    1    3    3    0    0  0.19976875958E+02  0.10725908677E+02 -0.31187739635E+02  0.38558991086E+02  0.00000000000E+00 0. -1.
</event>
<event>
 7    1  0.5839176E-013  0.5052886E+02  0.7816164E-02  0.1300439E+00
        -11   -1    0    0    0    0  0.00000000000E+00  0.00000000000E+00  0.45593999997E+02  0.45594000000E+02  0.51100000000E-03 0.  1.
         11   -1    0    0    0    0 -0.00000000000E+00 -0.00000000000E+00 -0.45593999997E+02  0.45594000000E+02  0.51100000000E-03 0. -1.
    9900012    2    1    2    0    0  0.31829259169E+02  0.17897413078E+02 -0.17881461860E+02  0.50528858194E+02  0.29999994967E+02 0.  0.
        -12    1    1    2    0    0 -0.31829259169E+02 -0.17897413078E+02  0.17881461860E+02  0.40659141806E+02  0.00000000000E+00 0.  1.
         11    1    3    3    0    0  0.12475481676E+02  0.14000639971E+02 -0.18357851205E+02  0.26242451558E+02  0.51100000000E-03 0. -1.
        -11    1    3    3    0    0  0.98993215700E+00  0.50791578119E-01 -0.47158936657E+01  0.48189416667E+01  0.51100000000E-03 0.  1.
        -12    1    3    3    0    0  0.18363845337E+02  0.38459815286E+01  0.51922830114E+01  0.19467464970E+02  0.00000000000E+00 0.  1.
</event>
<event>
 7    1  0.5839176E-013  0.5052886E+02  0.7816164E-02  0.1300439E+00
        -11   -1    0    0    0    0  0.00000000000E+00  0.00000000000E+00  0.45593999997E+02  0.45594000000E+02  0.51100000000E-03 0.  1.
         11   -1    0    0    0    0 -0.00000000000E+00 -0.00000000000E+00 -0.45593999997E+02  0.45594000000E+02  0.51100000000E-03 0. -1.
    9900012    2    1    2    0    0  0.22415203466E+02  0.24264641140E+02 -0.23705522603E+02  0.50528856404E+02  0.29999989527E+02 0.  0.
        -12    1    1    2    0    0 -0.22415203466E+02 -0.24264641140E+02  0.23705522603E+02  0.40659143596E+02  0.00000000000E+00 0.  1.
         11    1    3    3    0    0  0.88072837653E+01 -0.20694781417E+01  0.94493519450E-01  0.90476470084E+01  0.51100000000E-03 0. -1.
        -11    1    3    3    0    0  0.10584722086E+02  0.11655978258E+02 -0.32989201583E+01  0.16086672908E+02  0.51100000000E-03 0.  1.
         12    1    3    3    0    0  0.30231976151E+01  0.14678141024E+02 -0.20501095964E+02  0.25394536488E+02  0.00000000000E+00 0. -1.
</event>
<event>
 7    1  0.5839176E-013  0.5052886E+02  0.7816164E-02  0.1300439E+00
        -11   -1    0    0    0    0  0.00000000000E+00  0.00000000000E+00  0.45593999997E+02  0.45594000000E+02  0.51100000000E-03 0.  1.
         11   -1    0    0    0    0 -0.00000000000E+00 -0.00000000000E+00 -0.45593999997E+02  0.45594000000E+02  0.51100000000E-03 0. -1.
    9900012    2    1    2    0    0 -0.30596242753E+02 -0.18994575091E+02 -0.18874370988E+02  0.50528857932E+02  0.29999994170E+02 0.  0.
        -12    1    1    2    0    0  0.30596242753E+02  0.18994575091E+02  0.18874370988E+02  0.40659142068E+02  0.00000000000E+00 0.  1.
         11    1    3    3    0    0 -0.27866820450E+01 -0.23362121925E+01  0.48071153568E+01  0.60275901108E+01  0.51100000000E-03 0. -1.
        -11    1    3    3    0    0 -0.96764635254E+01  0.45091725126E+00  0.59273645617E+00  0.97050816325E+01  0.51100000000E-03 0.  1.
         12    1    3    3    0    0 -0.18133097183E+02 -0.17109280150E+02 -0.24274222801E+02  0.34796186189E+02  0.00000000000E+00 0. -1.
</event>
<event>
 7    1  0.5839176E-013  0.5052887E+02  0.7816164E-02  0.1300439E+00
        -11   -1    0    0    0    0  0.00000000000E+00  0.00000000000E+00  0.45593999997E+02  0.45594000000E+02  0.51100000000E-03 0.  1.
         11   -1    0    0    0    0 -0.00000000000E+00 -0.00000000000E+00 -0.45593999997E+02  0.45594000000E+02  0.51100000000E-03 0. -1.
    9900012    2    1    2    0    0  0.14442491373E+02 -0.30325748083E+02 -0.22911306289E+02  0.50528874213E+02  0.30000043658E+02 0.  0.
        -12    1    1    2    0    0 -0.14442491373E+02  0.30325748083E+02  0.22911306289E+02  0.40659125787E+02  0.00000000000E+00 0.  1.
         11    1    3    3    0    0  0.49346508566E+01 -0.14211703461E+02 -0.18445283058E+02  0.23802347819E+02  0.51100000000E-03 0. -1.
        -11    1    3    3    0    0  0.76290927472E+01 -0.40834921543E+01 -0.10108465628E+02  0.13306353442E+02  0.51100000000E-03 0.  1.
        -12    1    3    3    0    0  0.18787477687E+01 -0.12030552468E+02  0.56424423963E+01  0.13420172952E+02  0.00000000000E+00 0.  1.
</event>
<event>
 7    1  0.5839176E-013  0.5052886E+02  0.7816164E-02  0.1300439E+00
        -11   -1    0    0    0    0  0.00000000000E+00  0.00000000000E+00  0.45593999997E+02  0.45594000000E+02  0.51100000000E-03 0.  1.
         11   -1    0    0    0    0 -0.00000000000E+00 -0.00000000000E+00 -0.45593999997E+02  0.45594000000E+02  0.51100000000E-03 0. -1.
    9900012    2    1    2    0    0 -0.12264463250E+02 -0.55670050979E+01 -0.38363489962E+02  0.50528856298E+02  0.29999989202E+02 0.  0.
        -12    1    1    2    0    0  0.12264463250E+02  0.55670050979E+01  0.38363489962E+02  0.40659143702E+02  0.00000000000E+00 0.  1.
         11    1    3    3    0    0 -0.71576577497E+01 -0.62948027930E+01 -0.57254949749E+01  0.11119258052E+02  0.51100000000E-03 0. -1.
        -11    1    3    3    0    0 -0.12046554180E+02  0.56347753853E+01 -0.16715632133E+02  0.21360770564E+02  0.51100000000E-03 0.  1.
         12    1    3    3    0    0  0.69397486801E+01 -0.49069776903E+01 -0.15922362854E+02  0.18048827681E+02  0.00000000000E+00 0. -1.
</event>
<event>
 7    1  0.5839176E-013  0.5052886E+02  0.7816164E-02  0.1300439E+00
        -11   -1    0    0    0    0  0.00000000000E+00  0.00000000000E+00  0.45593999997E+02  0.45594000000E+02  0.51100000000E-03 0.  1.
         11   -1    0    0    0    0 -0.00000000000E+00 -0.00000000000E+00 -0.45593999997E+02  0.45594000000E+02  0.51100000000E-03 0. -1.
    9900012    2    1    2    0    0  0.29194373919E+02  0.95996815146E+01 -0.26621429530E+02  0.50528857561E+02  0.29999993042E+02 0.  0.
        -12    1    1    2    0    0 -0.29194373919E+02 -0.95996815146E+01  0.26621429530E+02  0.40659142439E+02  0.00000000000E+00 0.  1.
         11    1    3    3    0    0  0.11465101938E+02  0.75037390734E+01 -0.16646540279E+02  0.21560657830E+02  0.51100000000E-03 0. -1.
        -11    1    3    3    0    0  0.16949147133E+02  0.17677587383E+00 -0.15561335129E+02  0.23009997600E+02  0.51100000000E-03 0.  1.
        -12    1    3    3    0    0  0.78012484699E+00  0.19191665674E+01  0.55864458782E+01  0.59582021316E+01  0.00000000000E+00 0.  1.
</event>
<event>
 7    1  0.5839176E-013  0.5052886E+02  0.7816164E-02  0.1300439E+00
        -11   -1    0    0    0    0  0.00000000000E+00  0.00000000000E+00  0.45593999997E+02  0.45594000000E+02  0.51100000000E-03 0. -1.
         11   -1    0    0    0    0 -0.00000000000E+00 -0.00000000000E+00 -0.45593999997E+02  0.45594000000E+02  0.51100000000E-03 0.  1.
    9900012    2    1    2    0    0 -0.29071312478E+02  0.25825390429E+02  0.11877440041E+02  0.50528861028E+02  0.30000003580E+02 0.  0.
        -12    1    1    2    0    0  0.29071312478E+02 -0.25825390429E+02 -0.11877440041E+02  0.40659138972E+02  0.00000000000E+00 0.  1.
         11    1    3    3    0    0 -0.21472929510E+02  0.19484032739E+02  0.12385656549E+02  0.31529648300E+02  0.51100000000E-03 0. -1.
        -11    1    3    3    0    0 -0.55374893577E+01 -0.11800650512E+01  0.64253840971E+01  0.85639887300E+01  0.51100000000E-03 0.  1.
        -12    1    3    3    0    0 -0.20608936104E+01  0.75214227412E+01 -0.69336006052E+01  0.10435223998E+02  0.00000000000E+00 0.  1.
</event>
<event>
 7    1  0.5839176E-013  0.5052885E+02  0.7816164E-02  0.1300439E+00
        -11   -1    0    0    0    0  0.00000000000E+00  0.00000000000E+00  0.45593999997E+02  0.45594000000E+02  0.51100000000E-03 0.  1.
         11   -1    0    0    0    0 -0.00000000000E+00 -0.00000000000E+00 -0.45593999997E+02  0.45594000000E+02  0.51100000000E-03 0. -1.
    9900012    2    1    2    0    0 -0.11774595321E+01 -0.40590551295E+02  0.20463156663E+01  0.50528847608E+02  0.29999962791E+02 0.  0.
        -12    1    1    2    0    0  0.11774595321E+01  0.40590551295E+02 -0.20463156663E+01  0.40659152392E+02  0.00000000000E+00 0.  1.
         11    1    3    3    0    0 -0.39611264835E+01 -0.19112426129E+01  0.60239486084E+01  0.74586411927E+01  0.51100000000E-03 0.  1.
        -11    1    3    3    0    0 -0.11635939767E+01  0.37162878634E+00  0.29688573556E+01  0.32103229053E+01  0.51100000000E-03 0. -1.
         12    1    3    3    0    0  0.39472609281E+01 -0.39050937469E+02 -0.69464902976E+01  0.39859883510E+02  0.00000000000E+00 0. -1.
</event>
<event>
 7    1  0.7570574E-013  0.5052886E+02  0.7816164E-02  0.1300439E+00
        -11   -1    0    0    0    0  0.00000000000E+00  0.00000000000E+00  0.45593999997E+02  0.45594000000E+02  0.51100000000E-03 0. -1.
         11   -1    0    0    0    0 -0.00000000000E+00 -0.00000000000E+00 -0.45593999997E+02  0.45594000000E+02  0.51100000000E-03 0.  1.
    9900012    2    1    2    0    0 -0.22813369819E+02  0.44720608380E+01  0.33357403556E+02  0.50528861511E+02  0.30000005049E+02 0.  0.
        -12    1    1    2    0    0  0.22813369819E+02 -0.44720608380E+01 -0.33357403556E+02  0.40659138489E+02  0.00000000000E+00 0.  1.
         11    1    3    3    0    0 -0.19818309604E+02  0.38936141981E+00  0.16422362661E+02  0.25741231391E+02  0.51100000000E-03 0. -1.
        -11    1    3    3    0    0 -0.20662809793E+01  0.59220393671E+01 -0.13259208076E+01  0.64107826043E+01  0.51100000000E-03 0.  1.
        -12    1    3    3    0    0 -0.92877923579E+00 -0.18393399489E+01  0.18260961703E+02  0.18376847516E+02  0.00000000000E+00 0.  1.
</event>
<event>
 7    1  0.5839176E-013  0.5052886E+02  0.7816164E-02  0.1300439E+00
        -11   -1    0    0    0    0  0.00000000000E+00  0.00000000000E+00  0.45593999997E+02  0.45594000000E+02  0.51100000000E-03 0. -1.
         11   -1    0    0    0    0 -0.00000000000E+00 -0.00000000000E+00 -0.45593999997E+02  0.45594000000E+02  0.51100000000E-03 0.  1.
    9900012    2    1    2    0    0  0.36020908534E+02  0.26671709973E+01  0.18669385058E+02  0.50528860914E+02  0.30000003234E+02 0.  0.
        -12    1    1    2    0    0 -0.36020908534E+02 -0.26671709973E+01 -0.18669385058E+02  0.40659139086E+02  0.00000000000E+00 0.  1.
         11    1    3    3    0    0  0.32502647815E+01  0.66794613220E+01  0.38597158812E+00  0.74383061936E+01  0.51100000000E-03 0. -1.
        -11    1    3    3    0    0 -0.99633525384E+00  0.34318955156E+01  0.47832306501E+01  0.59707525892E+01  0.51100000000E-03 0.  1.
         12    1    3    3    0    0  0.33766979007E+02 -0.74441858403E+01  0.13500182820E+02  0.37119802131E+02  0.00000000000E+00 0. -1.
</event>
<event>
 7    1  0.5839176E-013  0.5052886E+02  0.7816164E-02  0.1300439E+00
        -11   -1    0    0    0    0  0.00000000000E+00  0.00000000000E+00  0.45593999997E+02  0.45594000000E+02  0.51100000000E-03 0. -1.
         11   -1    0    0    0    0 -0.00000000000E+00 -0.00000000000E+00 -0.45593999997E+02  0.45594000000E+02  0.51100000000E-03 0.  1.
    9900012    2    1    2    0    0 -0.29793251180E+02 -0.12504194132E+01  0.27639897678E+02  0.50528864394E+02  0.30000013813E+02 0.  0.
        -12    1    1    2    0    0  0.29793251180E+02  0.12504194132E+01 -0.27639897678E+02  0.40659135606E+02  0.00000000000E+00 0.  1.
         11    1    3    3    0    0 -0.15726971460E+02  0.51850101280E+01  0.10585437267E+02  0.19653840432E+02  0.51100000000E-03 0. -1.
        -11    1    3    3    0    0 -0.18747825075E+02 -0.19746082182E+01  0.10130863633E+02  0.21401271478E+02  0.51100000000E-03 0.  1.
        -12    1    3    3    0    0  0.46815453555E+01 -0.44608213230E+01  0.69235967778E+01  0.94737524842E+01  0.00000000000E+00 0.  1.
</event>
<event>
 7    1  0.5839176E-013  0.5052884E+02  0.7816164E-02  0.1300439E+00
        -11   -1    0    0    0    0  0.00000000000E+00  0.00000000000E+00  0.45593999997E+02  0.45594000000E+02  0.51100000000E-03 0.  1.
         11   -1    0    0    0    0 -0.00000000000E+00 -0.00000000000E+00 -0.45593999997E+02  0.45594000000E+02  0.51100000000E-03 0. -1.
    9900012    2    1    2    0    0  0.17502471365E+02  0.97123507711E+00 -0.36686339846E+02  0.50528839498E+02  0.29999938139E+02 0.  0.
        -12    1    1    2    0    0 -0.17502471365E+02 -0.97123507711E+00  0.36686339846E+02  0.40659160502E+02  0.00000000000E+00 0.  1.
         11    1    3    3    0    0  0.36547398188E+01 -0.47308220335E+01 -0.13604997598E+02  0.14860476444E+02  0.51100000000E-03 0. -1.
        -11    1    3    3    0    0 -0.27924405911E+01  0.18363840454E+00 -0.16821884352E+02  0.17053071305E+02  0.51100000000E-03 0.  1.
        -12    1    3    3    0    0  0.16640172137E+02  0.55184187060E+01 -0.62594578959E+01  0.18615291749E+02  0.00000000000E+00 0.  1.
</event>
<event>
 7    1  0.5839176E-013  0.5052886E+02  0.7816164E-02  0.1300439E+00
        -11   -1    0    0    0    0  0.00000000000E+00  0.00000000000E+00  0.45593999997E+02  0.45594000000E+02  0.51100000000E-03 0.  1.
         11   -1    0    0    0    0 -0.00000000000E+00 -0.00000000000E+00 -0.45593999997E+02  0.45594000000E+02  0.51100000000E-03 0. -1.
    9900012    2    1    2    0    0 -0.17758335551E+02  0.25781904702E+02 -0.25944181893E+02  0.50528859998E+02  0.30000000451E+02 0.  0.
        -12    1    1    2    0    0  0.17758335551E+02 -0.25781904702E+02  0.25944181893E+02  0.40659140002E+02  0.00000000000E+00 0.  1.
         11    1    3    3    0    0 -0.51010998741E+01  0.12167124061E+01 -0.10103548215E+02  0.11383465896E+02  0.51100000000E-03 0. -1.
        -11    1    3    3    0    0 -0.89734687892E+01 -0.10943667971E+01 -0.56695491440E+00  0.90577159888E+01  0.51100000000E-03 0.  1.
        -12    1    3    3    0    0 -0.36837668878E+01  0.25659559093E+02 -0.15273678763E+02  0.30087678114E+02  0.00000000000E+00 0.  1.
</event>
<event>
 7    1  0.5839176E-013  0.5052886E+02  0.7816164E-02  0.1300439E+00
        -11   -1    0    0    0    0  0.00000000000E+00  0.00000000000E+00  0.45593999997E+02  0.45594000000E+02  0.51100000000E-03 0.  1.
         11   -1    0    0    0    0 -0.00000000000E+00 -0.00000000000E+00 -0.45593999997E+02  0.45594000000E+02  0.51100000000E-03 0. -1.
    9900012    2    1    2    0    0 -0.15820612494E+01  0.39740984280E+02 -0.84449272777E+01  0.50528861469E+02  0.30000004921E+02 0.  0.
        -12    1    1    2    0    0  0.15820612494E+01 -0.39740984280E+02  0.84449272777E+01  0.40659138531E+02  0.00000000000E+00 0.  1.
         11    1    3    3    0    0 -0.41451190571E+01  0.12204498120E+02 -0.50584509993E+01  0.13846288786E+02  0.51100000000E-03 0. -1.
        -11    1    3    3    0    0  0.35347153588E+01  0.15586769847E+02 -0.13559106998E+02  0.20959269782E+02  0.51100000000E-03 0.  1.
        -12    1    3    3    0    0 -0.97165755114E+00  0.11949716313E+02  0.10172630720E+02  0.15723302901E+02  0.00000000000E+00 0.  1.
</event>
<event>
 7    1  0.5839176E-013  0.5052885E+02  0.7816164E-02  0.1300439E+00
        -11   -1    0    0    0    0  0.00000000000E+00  0.00000000000E+00  0.45593999997E+02  0.45594000000E+02  0.51100000000E-03 0.  1.
         11   -1    0    0    0    0 -0.00000000000E+00 -0.00000000000E+00 -0.45593999997E+02  0.45594000000E+02  0.51100000000E-03 0. -1.
    9900012    2    1    2    0    0  0.69985528143E+01  0.18037350891E+02 -0.35760887179E+02  0.50528845797E+02  0.29999957285E+02 0.  0.
        -12    1    1    2    0    0 -0.69985528143E+01 -0.18037350891E+02  0.35760887179E+02  0.40659154203E+02  0.00000000000E+00 0.  1.
         11    1    3    3    0    0 -0.35293161121E+00  0.41403352230E+01 -0.89187674783E+01  0.98392758917E+01  0.51100000000E-03 0. -1.
        -11    1    3    3    0    0  0.73524700811E+01 -0.35033485537E+01 -0.20687231655E+02  0.22232719609E+02  0.51100000000E-03 0.  1.
        -12    1    3    3    0    0 -0.98565562029E-03  0.17400364221E+02 -0.61548880458E+01  0.18456850297E+02  0.00000000000E+00 0.  1.
</event>
<event>
 7    1  0.5839176E-013  0.5052886E+02  0.7816164E-02  0.1300439E+00
        -11   -1    0    0    0    0  0.00000000000E+00  0.00000000000E+00  0.45593999997E+02  0.45594000000E+02  0.51100000000E-03 0.  1.
         11   -1    0    0    0    0 -0.00000000000E+00 -0.00000000000E+00 -0.45593999997E+02  0.45594000000E+02  0.51100000000E-03 0. -1.
    9900012    2    1    2    0    0  0.17761372019E+02  0.11490964055E+02 -0.34722570555E+02  0.50528862074E+02  0.30000006762E+02 0.  0.
        -12    1    1    2    0    0 -0.17761372019E+02 -0.11490964055E+02  0.34722570555E+02  0.40659137926E+02  0.00000000000E+00 0.  1.
         11    1    3    3    0    0 -0.54603176293E+01  0.30491976066E-01 -0.42188804659E+01  0.69003587602E+01  0.51100000000E-03 0. -1.
        -11    1    3    3    0    0  0.25942823745E+01 -0.33479429753E+01 -0.41296604436E+00  0.42555333883E+01  0.51100000000E-03 0.  1.
        -12    1    3    3    0    0  0.20627407273E+02  0.14808415055E+02 -0.30090724045E+02  0.39372969926E+02  0.00000000000E+00 0.  1.
</event>
<event>
 7    1  0.5839176E-013  0.5052886E+02  0.7816164E-02  0.1300439E+00
        -11   -1    0    0    0    0  0.00000000000E+00  0.00000000000E+00  0.45593999997E+02  0.45594000000E+02  0.51100000000E-03 0.  1.
         11   -1    0    0    0    0 -0.00000000000E+00 -0.00000000000E+00 -0.45593999997E+02  0.45594000000E+02  0.51100000000E-03 0. -1.
    9900012    2    1    2    0    0 -0.82322541244E+01 -0.39053873628E+01 -0.39625040583E+02  0.50528857122E+02  0.29999991707E+02 0.  0.
        -12    1    1    2    0    0  0.82322541244E+01  0.39053873628E+01  0.39625040583E+02  0.40659142878E+02  0.00000000000E+00 0.  1.
         11    1    3    3    0    0 -0.80579653920E+01  0.11684785093E+02 -0.24566596884E+02  0.28372216897E+02  0.51100000000E-03 0. -1.
        -11    1    3    3    0    0 -0.16354268378E+01 -0.61918780934E+01 -0.39150304009E+01  0.75060934291E+01  0.51100000000E-03 0.  1.
        -12    1    3    3    0    0  0.14611381055E+01 -0.93982943624E+01 -0.11143413298E+02  0.14650546796E+02  0.00000000000E+00 0.  1.
</event>
<event>
 7    1  0.5839176E-013  0.5052887E+02  0.7816164E-02  0.1300439E+00
        -11   -1    0    0    0    0  0.00000000000E+00  0.00000000000E+00  0.45593999997E+02  0.45594000000E+02  0.51100000000E-03 0.  1.
         11   -1    0    0    0    0 -0.00000000000E+00 -0.00000000000E+00 -0.45593999997E+02  0.45594000000E+02  0.51100000000E-03 0. -1.
    9900012    2    1    2    0    0 -0.98714867001E+01  0.39145317078E+02 -0.48334896516E+01  0.50528871615E+02  0.30000035761E+02 0.  0.
        -12    1    1    2    0    0  0.98714867001E+01 -0.39145317078E+02  0.48334896516E+01  0.40659128385E+02  0.00000000000E+00 0.  1.
         11    1    3    3    0    0 -0.15929056763E+01  0.31453146531E+02 -0.27054675990E-01  0.31493467694E+02  0.51100000000E-03 0. -1.
        -11    1    3    3    0    0 -0.30387425265E+01  0.35946249475E+01  0.52037308780E+01  0.70167015020E+01  0.51100000000E-03 0.  1.
        -12    1    3    3    0    0 -0.52398384973E+01  0.40975455997E+01 -0.10010165854E+02  0.12018702419E+02  0.00000000000E+00 0.  1.
</event>
<event>
 7    1  0.5839176E-013  0.5052886E+02  0.7816164E-02  0.1300439E+00
        -11   -1    0    0    0    0  0.00000000000E+00  0.00000000000E+00  0.45593999997E+02  0.45594000000E+02  0.51100000000E-03 0.  1.
         11   -1    0    0    0    0 -0.00000000000E+00 -0.00000000000E+00 -0.45593999997E+02  0.45594000000E+02  0.51100000000E-03 0. -1.
    9900012    2    1    2    0    0 -0.12842957572E+02 -0.31874408712E+02 -0.21731225800E+02  0.50528860010E+02  0.30000000488E+02 0.  0.
        -12    1    1    2    0    0  0.12842957572E+02  0.31874408712E+02  0.21731225800E+02  0.40659139990E+02  0.00000000000E+00 0.  1.
         11    1    3    3    0    0 -0.12096909533E+02 -0.27483482647E+02 -0.22227845878E+02  0.37359793512E+02  0.51100000000E-03 0. -1.
        -11    1    3    3    0    0  0.21554539223E+01 -0.81386873228E+01  0.24990897838E+00  0.84229844894E+01  0.51100000000E-03 0.  1.
        -12    1    3    3    0    0 -0.29015019606E+01  0.37477612575E+01  0.24671109901E+00  0.47460820091E+01  0.00000000000E+00 0.  1.
</event>
<event>
 7    1  0.5839176E-013  0.5052885E+02  0.7816164E-02  0.1300439E+00
        -11   -1    0    0    0    0  0.00000000000E+00  0.00000000000E+00  0.45593999997E+02  0.45594000000E+02  0.51100000000E-03 0.  1.
         11   -1    0    0    0    0 -0.00000000000E+00 -0.00000000000E+00 -0.45593999997E+02  0.45594000000E+02  0.51100000000E-03 0. -1.
    9900012    2    1    2    0    0 -0.26501429479E+02  0.13752326758E+02 -0.27599165917E+02  0.50528853243E+02  0.29999979917E+02 0.  0.
        -12    1    1    2    0    0  0.26501429479E+02 -0.13752326758E+02  0.27599165917E+02  0.40659146757E+02  0.00000000000E+00 0.  1.
         11    1    3    3    0    0 -0.17889827357E+02  0.99927320820E+01 -0.99490250999E+00  0.20515614750E+02  0.51100000000E-03 0. -1.
        -11    1    3    3    0    0 -0.10382288106E+02  0.50340461082E+01 -0.20405929283E+02  0.23442173037E+02  0.51100000000E-03 0.  1.
        -12    1    3    3    0    0  0.17706859834E+01 -0.12744514325E+01 -0.61983341246E+01  0.65710654559E+01  0.00000000000E+00 0.  1.
</event>
<event>
 7    1  0.5839176E-013  0.5052886E+02  0.7816164E-02  0.1300439E+00
        -11   -1    0    0    0    0  0.00000000000E+00  0.00000000000E+00  0.45593999997E+02  0.45594000000E+02  0.51100000000E-03 0.  1.
         11   -1    0    0    0    0 -0.00000000000E+00 -0.00000000000E+00 -0.45593999997E+02  0.45594000000E+02  0.51100000000E-03 0. -1.
    9900012    2    1    2    0    0  0.16225594327E+02 -0.21522423167E+02 -0.30441439683E+02  0.50528857606E+02  0.29999993180E+02 0.  0.
        -12    1    1    2    0    0 -0.16225594327E+02  0.21522423167E+02  0.30441439683E+02  0.40659142394E+02  0.00000000000E+00 0.  1.
         11    1    3    3    0    0  0.33044598342E+01 -0.20260939806E+02 -0.92276883268E+01  0.22507229255E+02  0.51100000000E-03 0. -1.
        -11    1    3    3    0    0 -0.70763795385E+00  0.32750505035E+00 -0.10718514677E+02  0.10746839916E+02  0.51100000000E-03 0.  1.
         12    1    3    3    0    0  0.13628772446E+02 -0.15889884117E+01 -0.10495236679E+02  0.17274788436E+02  0.00000000000E+00 0. -1.
</event>
<event>
 7    1  0.5839176E-013  0.5052886E+02  0.7816164E-02  0.1300439E+00
        -11   -1    0    0    0    0  0.00000000000E+00  0.00000000000E+00  0.45593999997E+02  0.45594000000E+02  0.51100000000E-03 0.  1.
         11   -1    0    0    0    0 -0.00000000000E+00 -0.00000000000E+00 -0.45593999997E+02  0.45594000000E+02  0.51100000000E-03 0. -1.
    9900012    2    1    2    0    0  0.21302170999E+02 -0.25560919425E+02 -0.23367117852E+02  0.50528864645E+02  0.30000014574E+02 0.  0.
        -12    1    1    2    0    0 -0.21302170999E+02  0.25560919425E+02  0.23367117852E+02  0.40659135355E+02  0.00000000000E+00 0.  1.
         11    1    3    3    0    0  0.33221963704E+01  0.15314562116E+01 -0.85845079682E+01  0.93314588446E+01  0.51100000000E-03 0.  1.
        -11    1    3    3    0    0  0.68203207950E+01  0.15942935549E+01 -0.59068559729E+01  0.91623957255E+01  0.51100000000E-03 0. -1.
         12    1    3    3    0    0  0.11159653834E+02 -0.28686669192E+02 -0.88757539104E+01  0.32035010075E+02  0.00000000000E+00 0. -1.
</event>
<event>
 7    1  0.5839176E-013  0.5052886E+02  0.7816164E-02  0.1300439E+00
        -11   -1    0    0    0    0  0.00000000000E+00  0.00000000000E+00  0.45593999997E+02  0.45594000000E+02  0.51100000000E-03 0.  1.
         11   -1    0    0    0    0 -0.00000000000E+00 -0.00000000000E+00 -0.45593999997E+02  0.45594000000E+02  0.51100000000E-03 0. -1.
    9900012    2    1    2    0    0  0.64835585118E+01 -0.34125456815E+02 -0.21132491578E+02  0.50528861616E+02  0.30000005369E+02 0.  0.
        -12    1    1    2    0    0 -0.64835585118E+01  0.34125456815E+02  0.21132491578E+02  0.40659138384E+02  0.00000000000E+00 0.  1.
         11    1    3    3    0    0  0.38874005036E+01 -0.16823392554E+01 -0.15759436037E+01  0.45194852084E+01  0.51100000000E-03 0. -1.
        -11    1    3    3    0    0  0.11706855089E+02 -0.29852744984E+02 -0.16461958376E+02  0.36044873602E+02  0.51100000000E-03 0.  1.
        -12    1    3    3    0    0 -0.91106970811E+01 -0.25903725756E+01 -0.30945895983E+01  0.99645028057E+01  0.00000000000E+00 0.  1.
</event>
<event>
 7    1  0.5839176E-013  0.5052886E+02  0.7816164E-02  0.1300439E+00
        -11   -1    0    0    0    0  0.00000000000E+00  0.00000000000E+00  0.45593999997E+02  0.45594000000E+02  0.51100000000E-03 0. -1.
         11   -1    0    0    0    0 -0.00000000000E+00 -0.00000000000E+00 -0.45593999997E+02  0.45594000000E+02  0.51100000000E-03 0.  1.
    9900012    2    1    2    0    0 -0.35359558830E+02  0.18428449572E+02  0.79536005941E+01  0.50528856911E+02  0.29999991067E+02 0.  0.
        -12    1    1    2    0    0  0.35359558830E+02 -0.18428449572E+02 -0.79536005941E+01  0.40659143089E+02  0.00000000000E+00 0.  1.
         11    1    3    3    0    0 -0.18905848592E+02 -0.57135342706E+01 -0.13988303456E-02  0.19750331315E+02  0.51100000000E-03 0.  1.
        -11    1    3    3    0    0 -0.11770618845E+02  0.12428549143E+02  0.45385130824E+01  0.17709161557E+02  0.51100000000E-03 0. -1.
        -12    1    3    3    0    0 -0.46830913934E+01  0.11713434699E+02  0.34164863421E+01  0.13069364039E+02  0.00000000000E+00 0.  1.
</event>
<event>
 7    1  0.5839176E-013  0.5052886E+02  0.7816164E-02  0.1300439E+00
        -11   -1    0    0    0    0  0.00000000000E+00  0.00000000000E+00  0.45593999997E+02  0.45594000000E+02  0.51100000000E-03 0. -1.
         11   -1    0    0    0    0 -0.00000000000E+00 -0.00000000000E+00 -0.45593999997E+02  0.45594000000E+02  0.51100000000E-03 0.  1.
    9900012    2    1    2    0    0 -0.11200135921E+02 -0.23063637018E+02  0.31556157400E+02  0.50528862442E+02  0.30000007877E+02 0.  0.
        -12    1    1    2    0    0  0.11200135921E+02  0.23063637018E+02 -0.31556157400E+02  0.40659137558E+02  0.00000000000E+00 0.  1.
         11    1    3    3    0    0 -0.68319671030E+00 -0.87662799458E+00 -0.42984683546E+01  0.44398271185E+01  0.51100000000E-03 0. -1.
        -11    1    3    3    0    0 -0.70604773922E+00  0.16870093962E+00 -0.13829360673E+01  0.15618821481E+01  0.51100000000E-03 0.  1.
         12    1    3    3    0    0 -0.98108914714E+01 -0.22355709963E+02  0.37237561822E+02  0.44527153175E+02  0.00000000000E+00 0. -1.
</event>
<event>
 7    1  0.5839176E-013  0.5052887E+02  0.7816164E-02  0.1300439E+00
        -11   -1    0    0    0    0  0.00000000000E+00  0.00000000000E+00  0.45593999997E+02  0.45594000000E+02  0.51100000000E-03 0.  1.
         11   -1    0    0    0    0 -0.00000000000E+00 -0.00000000000E+00 -0.45593999997E+02  0.45594000000E+02  0.51100000000E-03 0. -1.
    9900012    2    1    2    0    0  0.28345051378E+02 -0.51906706503E+01 -0.28684145133E+02  0.50528865953E+02  0.30000018551E+02 0.  0.
        -12    1    1    2    0    0 -0.28345051378E+02  0.51906706503E+01  0.28684145133E+02  0.40659134047E+02  0.00000000000E+00 0.  1.
         11    1    3    3    0    0  0.53450141580E+01  0.52885515499E+01 -0.40438951292E+01  0.85376250751E+01  0.51100000000E-03 0. -1.
        -11    1    3    3    0    0  0.97784099480E+00  0.11178508692E+01 -0.15354765247E+02  0.15426424719E+02  0.51100000000E-03 0.  1.
         12    1    3    3    0    0  0.22022196225E+02 -0.11597073069E+02 -0.92854847575E+01  0.26564816159E+02  0.00000000000E+00 0. -1.
</event>
<event>
 7    1  0.5839176E-013  0.5052889E+02  0.7816164E-02  0.1300439E+00
        -11   -1    0    0    0    0  0.00000000000E+00  0.00000000000E+00  0.45593999997E+02  0.45594000000E+02  0.51100000000E-03 0.  1.
         11   -1    0    0    0    0 -0.00000000000E+00 -0.00000000000E+00 -0.45593999997E+02  0.45594000000E+02  0.51100000000E-03 0. -1.
    9900012    2    1    2    0    0  0.17770095339E+02  0.12679988410E+02 -0.34301678595E+02  0.50528886029E+02  0.30000079574E+02 0.  0.
        -12    1    1    2    0    0 -0.17770095339E+02 -0.12679988410E+02  0.34301678595E+02  0.40659113971E+02  0.00000000000E+00 0.  1.
         11    1    3    3    0    0  0.43047441160E+01  0.11479236797E+02 -0.21312618124E+02  0.24587220073E+02  0.51100000000E-03 0. -1.
        -11    1    3    3    0    0  0.76914793269E+01  0.60199558139E+01  0.12416625760E+01  0.98458340658E+01  0.51100000000E-03 0.  1.
        -12    1    3    3    0    0  0.57738718959E+01 -0.48192042010E+01 -0.14230723047E+02  0.16095831890E+02  0.00000000000E+00 0.  1.
</event>
<event>
 7    1  0.5839176E-013  0.5052886E+02  0.7816164E-02  0.1300439E+00
        -11   -1    0    0    0    0  0.00000000000E+00  0.00000000000E+00  0.45593999997E+02  0.45594000000E+02  0.51100000000E-03 0.  1.
         11   -1    0    0    0    0 -0.00000000000E+00 -0.00000000000E+00 -0.45593999997E+02  0.45594000000E+02  0.51100000000E-03 0. -1.
    9900012    2    1    2    0    0  0.35920979464E+02  0.11907826624E+02 -0.14867845510E+02  0.50528856740E+02  0.29999990546E+02 0.  0.
        -12    1    1    2    0    0 -0.35920979464E+02 -0.11907826624E+02  0.14867845510E+02  0.40659143260E+02  0.00000000000E+00 0.  1.
         11    1    3    3    0    0  0.50201830719E+01  0.33587789775E+01  0.53939450885E+01  0.80980416259E+01  0.51100000000E-03 0.  1.
        -11    1    3    3    0    0  0.10870719840E+02  0.13152961307E+01  0.25294107275E+01  0.11238348306E+02  0.51100000000E-03 0. -1.
         12    1    3    3    0    0  0.20030076551E+02  0.72337515163E+01 -0.22791201326E+02  0.31192466808E+02  0.00000000000E+00 0. -1.
</event>
<event>
 7    1  0.5839176E-013  0.5052887E+02  0.7816164E-02  0.1300439E+00
        -11   -1    0    0    0    0  0.00000000000E+00  0.00000000000E+00  0.45593999997E+02  0.45594000000E+02  0.51100000000E-03 0.  1.
         11   -1    0    0    0    0 -0.00000000000E+00 -0.00000000000E+00 -0.45593999997E+02  0.45594000000E+02  0.51100000000E-03 0. -1.
    9900012    2    1    2    0    0 -0.32368139588E+02 -0.15010473582E+02 -0.19497550403E+02  0.50528865119E+02  0.30000016015E+02 0.  0.
        -12    1    1    2    0    0  0.32368139588E+02  0.15010473582E+02  0.19497550403E+02  0.40659134881E+02  0.00000000000E+00 0.  1.
         11    1    3    3    0    0 -0.74516043002E+01 -0.17116349473E+01 -0.77625439186E+01  0.10895558232E+02  0.51100000000E-03 0. -1.
        -11    1    3    3    0    0 -0.27931753117E+02 -0.99600856171E+01 -0.15772850781E+02  0.33588226504E+02  0.51100000000E-03 0.  1.
        -12    1    3    3    0    0  0.30152178288E+01 -0.33387530177E+01  0.40378442963E+01  0.60450803824E+01  0.00000000000E+00 0.  1.
</event>
<event>
 7    1  0.5839176E-013  0.5052885E+02  0.7816164E-02  0.1300439E+00
        -11   -1    0    0    0    0  0.00000000000E+00  0.00000000000E+00  0.45593999997E+02  0.45594000000E+02  0.51100000000E-03 0.  1.
         11   -1    0    0    0    0 -0.00000000000E+00 -0.00000000000E+00 -0.45593999997E+02  0.45594000000E+02  0.51100000000E-03 0. -1.
    9900012    2    1    2    0    0  0.12864435366E+02 -0.38314146708E+02  0.44383123090E+01  0.50528854025E+02  0.29999982294E+02 0.  0.
        -12    1    1    2    0    0 -0.12864435366E+02  0.38314146708E+02 -0.44383123090E+01  0.40659145975E+02  0.00000000000E+00 0.  1.
         11    1    3    3    0    0  0.88699332475E+01 -0.17558227200E+02  0.27072117977E+01  0.19856889338E+02  0.51100000000E-03 0. -1.
        -11    1    3    3    0    0  0.88669553580E+01 -0.20400097774E+02  0.71607146814E+01  0.23367984969E+02  0.51100000000E-03 0.  1.
         12    1    3    3    0    0 -0.48724532393E+01 -0.35582173405E+00 -0.54296141700E+01  0.73039797173E+01  0.00000000000E+00 0. -1.
</event>
<event>
 7    1  0.5839176E-013  0.5052886E+02  0.7816164E-02  0.1300439E+00
        -11   -1    0    0    0    0  0.00000000000E+00  0.00000000000E+00  0.45593999997E+02  0.45594000000E+02  0.51100000000E-03 0.  1.
         11   -1    0    0    0    0 -0.00000000000E+00 -0.00000000000E+00 -0.45593999997E+02  0.45594000000E+02  0.51100000000E-03 0. -1.
    9900012    2    1    2    0    0  0.25820606658E+02 -0.53146827495E+01 -0.30955071378E+02  0.50528855581E+02  0.29999987023E+02 0.  0.
        -12    1    1    2    0    0 -0.25820606658E+02  0.53146827495E+01  0.30955071378E+02  0.40659144419E+02  0.00000000000E+00 0.  1.
         11    1    3    3    0    0  0.63440359947E+00 -0.35156312323E+01  0.22276027176E+01  0.42100290993E+01  0.51100000000E-03 0. -1.
        -11    1    3    3    0    0  0.50499976984E+00  0.31295194171E+01  0.14669945018E+01  0.34929915085E+01  0.51100000000E-03 0.  1.
         12    1    3    3    0    0  0.24681203289E+02 -0.49285709343E+01 -0.34649668597E+02  0.42825834973E+02  0.00000000000E+00 0. -1.
</event>
<event>
 7    1  0.5839176E-013  0.5052886E+02  0.7816164E-02  0.1300439E+00
        -11   -1    0    0    0    0  0.00000000000E+00  0.00000000000E+00  0.45593999997E+02  0.45594000000E+02  0.51100000000E-03 0.  1.
         11   -1    0    0    0    0 -0.00000000000E+00 -0.00000000000E+00 -0.45593999997E+02  0.45594000000E+02  0.51100000000E-03 0. -1.
    9900012    2    1    2    0    0 -0.27417232502E+02 -0.89361160219E+01 -0.28663691217E+02  0.50528855865E+02  0.29999987886E+02 0.  0.
        -12    1    1    2    0    0  0.27417232502E+02  0.89361160219E+01  0.28663691217E+02  0.40659144135E+02  0.00000000000E+00 0.  1.
         11    1    3    3    0    0 -0.11550411074E+02  0.38845266679E+01 -0.70727761508E+01  0.14089915051E+02  0.51100000000E-03 0. -1.
        -11    1    3    3    0    0 -0.19300333316E+01 -0.34193982041E+01 -0.19033517224E+02  0.19434301915E+02  0.51100000000E-03 0.  1.
        -12    1    3    3    0    0 -0.13936788097E+02 -0.94012444857E+01 -0.25573978416E+01  0.17004638898E+02  0.00000000000E+00 0.  1.
</event>
<event>
 7    1  0.5839176E-013  0.5052886E+02  0.7816164E-02  0.1300439E+00
        -11   -1    0    0    0    0  0.00000000000E+00  0.00000000000E+00  0.45593999997E+02  0.45594000000E+02  0.51100000000E-03 0. -1.
         11   -1    0    0    0    0 -0.00000000000E+00 -0.00000000000E+00 -0.45593999997E+02  0.45594000000E+02  0.51100000000E-03 0.  1.
    9900012    2    1    2    0    0  0.30159384578E+02  0.27133645271E+02 -0.27096704466E+01  0.50528862064E+02  0.30000006729E+02 0.  0.
        -12    1    1    2    0    0 -0.30159384578E+02 -0.27133645271E+02  0.27096704466E+01  0.40659137936E+02  0.00000000000E+00 0.  1.
         11    1    3    3    0    0  0.12726415578E+02  0.22537789084E+02 -0.19648121775E+01  0.25957158501E+02  0.51100000000E-03 0. -1.
        -11    1    3    3    0    0  0.19103003770E+02  0.45583054325E+01 -0.47729409883E+01  0.20210983830E+02  0.51100000000E-03 0.  1.
         12    1    3    3    0    0 -0.16700347704E+01  0.37550754307E-01  0.40280827192E+01  0.43607197326E+01  0.00000000000E+00 0. -1.
</event>
<event>
 7    1  0.5839176E-013  0.5052886E+02  0.7816164E-02  0.1300439E+00
        -11   -1    0    0    0    0  0.00000000000E+00  0.00000000000E+00  0.45593999997E+02  0.45594000000E+02  0.51100000000E-03 0. -1.
         11   -1    0    0    0    0 -0.00000000000E+00 -0.00000000000E+00 -0.45593999997E+02  0.45594000000E+02  0.51100000000E-03 0.  1.
    9900012    2    1    2    0    0  0.17385585776E+02 -0.31916724426E+02 -0.18227182083E+02  0.50528855179E+02  0.29999985802E+02 0.  0.
        -12    1    1    2    0    0 -0.17385585776E+02  0.31916724426E+02  0.18227182083E+02  0.40659144821E+02  0.00000000000E+00 0.  1.
         11    1    3    3    0    0  0.66154823868E+01 -0.12918499920E+02 -0.79611942459E+01  0.16553937945E+02  0.51100000000E-03 0. -1.
        -11    1    3    3    0    0 -0.32581213811E+01  0.41739331585E+01 -0.18808093178E+01  0.56191206515E+01  0.51100000000E-03 0.  1.
         12    1    3    3    0    0  0.14028224771E+02 -0.23172157665E+02 -0.83851785194E+01  0.28355796583E+02  0.00000000000E+00 0. -1.
</event>
<event>
 7    1  0.5839176E-013  0.5052886E+02  0.7816164E-02  0.1300439E+00
        -11   -1    0    0    0    0  0.00000000000E+00  0.00000000000E+00  0.45593999997E+02  0.45594000000E+02  0.51100000000E-03 0.  1.
         11   -1    0    0    0    0 -0.00000000000E+00 -0.00000000000E+00 -0.45593999997E+02  0.45594000000E+02  0.51100000000E-03 0. -1.
    9900012    2    1    2    0    0 -0.26922784494E+02  0.26249596057E+02 -0.15468950998E+02  0.50528855112E+02  0.29999985598E+02 0.  0.
        -12    1    1    2    0    0  0.26922784494E+02 -0.26249596057E+02  0.15468950998E+02  0.40659144888E+02  0.00000000000E+00 0.  1.
         11    1    3    3    0    0  0.12360538286E+01  0.79089213772E+01 -0.58623207067E+01  0.99219791749E+01  0.51100000000E-03 0. -1.
        -11    1    3    3    0    0 -0.88921262405E+01  0.17287056995E+02 -0.86782240761E+01  0.21289054042E+02  0.51100000000E-03 0.  1.
        -12    1    3    3    0    0 -0.19266712082E+02  0.10536176848E+01 -0.92840621546E+00  0.19317821895E+02  0.00000000000E+00 0.  1.
</event>
<event>
 7    1  0.5839176E-013  0.5052886E+02  0.7816164E-02  0.1300439E+00
        -11   -1    0    0    0    0  0.00000000000E+00  0.00000000000E+00  0.45593999997E+02  0.45594000000E+02  0.51100000000E-03 0. -1.
         11   -1    0    0    0    0 -0.00000000000E+00 -0.00000000000E+00 -0.45593999997E+02  0.45594000000E+02  0.51100000000E-03 0.  1.
    9900012    2    1    2    0    0  0.21687719571E+02 -0.34286821228E+02  0.26874114899E+01  0.50528862396E+02  0.30000007740E+02 0.  0.
        -12    1    1    2    0    0 -0.21687719571E+02  0.34286821228E+02 -0.26874114899E+01  0.40659137604E+02  0.00000000000E+00 0.  1.
         11    1    3    3    0    0  0.88678213612E+01 -0.59393064635E+01  0.88304893272E+01  0.13852478442E+02  0.51100000000E-03 0. -1.
        -11    1    3    3    0    0  0.13166923175E+02 -0.77587440209E+01 -0.35627506341E+00  0.15287017592E+02  0.51100000000E-03 0.  1.
        -12    1    3    3    0    0 -0.34702496427E+00 -0.20588770744E+02 -0.57868027739E+01  0.21389366363E+02  0.00000000000E+00 0.  1.
</event>
<event>
 7    1  0.5839176E-013  0.5052886E+02  0.7816164E-02  0.1300439E+00
        -11   -1    0    0    0    0  0.00000000000E+00  0.00000000000E+00  0.45593999997E+02  0.45594000000E+02  0.51100000000E-03 0.  1.
         11   -1    0    0    0    0 -0.00000000000E+00 -0.00000000000E+00 -0.45593999997E+02  0.45594000000E+02  0.51100000000E-03 0. -1.
    9900012    2    1    2    0    0  0.37528899042E+02  0.14645885553E+02  0.54995892217E+01  0.50528859472E+02  0.29999998850E+02 0.  0.
        -12    1    1    2    0    0 -0.37528899042E+02 -0.14645885553E+02 -0.54995892217E+01  0.40659140528E+02  0.00000000000E+00 0.  1.
         11    1    3    3    0    0  0.10345863147E+01  0.94196523679E+01  0.68314851282E+01  0.11682012194E+02  0.51100000000E-03 0. -1.
        -11    1    3    3    0    0  0.42247919205E+01  0.48978089951E+01 -0.11820606638E+01  0.65753073995E+01  0.51100000000E-03 0.  1.
         12    1    3    3    0    0  0.32269520806E+02  0.32842418996E+00 -0.14983524265E+00  0.32271539878E+02  0.00000000000E+00 0. -1.
</event>
<event>
 7    1  0.5839176E-013  0.5052886E+02  0.7816164E-02  0.1300439E+00
        -11   -1    0    0    0    0  0.00000000000E+00  0.00000000000E+00  0.45593999997E+02  0.45594000000E+02  0.51100000000E-03 0.  1.
         11   -1    0    0    0    0 -0.00000000000E+00 -0.00000000000E+00 -0.45593999997E+02  0.45594000000E+02  0.51100000000E-03 0. -1.
    9900012    2    1    2    0    0 -0.11320913183E+02 -0.31520449046E+02 -0.23053504425E+02  0.50528857737E+02  0.29999993576E+02 0.  0.
        -12    1    1    2    0    0  0.11320913183E+02  0.31520449046E+02  0.23053504425E+02  0.40659142263E+02  0.00000000000E+00 0.  1.
         11    1    3    3    0    0  0.18904528336E+00  0.79271744755E+00  0.35319991630E+01  0.36247975694E+01  0.51100000000E-03 0. -1.
        -11    1    3    3    0    0  0.18612205402E+01  0.13493054439E+01 -0.25533089721E+01  0.34357173994E+01  0.51100000000E-03 0.  1.
         12    1    3    3    0    0 -0.13371179006E+02 -0.33662471937E+02 -0.24032194616E+02  0.43468342768E+02  0.00000000000E+00 0. -1.
</event>
<event>
 7    1  0.5839176E-013  0.5052885E+02  0.7816164E-02  0.1300439E+00
        -11   -1    0    0    0    0  0.00000000000E+00  0.00000000000E+00  0.45593999997E+02  0.45594000000E+02  0.51100000000E-03 0. -1.
         11   -1    0    0    0    0 -0.00000000000E+00 -0.00000000000E+00 -0.45593999997E+02  0.45594000000E+02  0.51100000000E-03 0.  1.
    9900012    2    1    2    0    0  0.87050702276E+01  0.59038990139E+01  0.39275083473E+02  0.50528850316E+02  0.29999971021E+02 0.  0.
        -12    1    1    2    0    0 -0.87050702276E+01 -0.59038990139E+01 -0.39275083473E+02  0.40659149684E+02  0.00000000000E+00 0.  1.
         11    1    3    3    0    0  0.89107264244E+01 -0.91898842316E+01  0.18744512321E+02  0.22698276587E+02  0.51100000000E-03 0. -1.
        -11    1    3    3    0    0  0.39742792244E+01  0.13115386436E+01  0.30354697359E+01  0.51700198980E+01  0.51100000000E-03 0.  1.
         12    1    3    3    0    0 -0.41799354213E+01  0.13782244602E+02  0.17495101416E+02  0.22660553831E+02  0.00000000000E+00 0. -1.
</event>
<event>
 7    1  0.5839176E-013  0.5052885E+02  0.7816164E-02  0.1300439E+00
        -11   -1    0    0    0    0  0.00000000000E+00  0.00000000000E+00  0.45593999997E+02  0.45594000000E+02  0.51100000000E-03 0.  1.
         11   -1    0    0    0    0 -0.00000000000E+00 -0.00000000000E+00 -0.45593999997E+02  0.45594000000E+02  0.51100000000E-03 0. -1.
    9900012    2    1    2    0    0 -0.15424170629E+02 -0.20225723270E+02 -0.31720370454E+02  0.50528845765E+02  0.29999957186E+02 0.  0.
        -12    1    1    2    0    0  0.15424170629E+02  0.20225723270E+02  0.31720370454E+02  0.40659154235E+02  0.00000000000E+00 0.  1.
         11    1    3    3    0    0  0.24649169145E+01 -0.94908185559E+01 -0.21959881329E+02  0.24049695227E+02  0.51100000000E-03 0. -1.
        -11    1    3    3    0    0 -0.51852947944E+00 -0.20429271774E+00  0.26278324006E+01  0.26862821375E+01  0.51100000000E-03 0.  1.
        -12    1    3    3    0    0 -0.17370558064E+02 -0.10530611996E+02 -0.12388321526E+02  0.23792868400E+02  0.00000000000E+00 0.  1.
</event>
<event>
 7    1  0.5839176E-013  0.5052888E+02  0.7816164E-02  0.1300439E+00
        -11   -1    0    0    0    0  0.00000000000E+00  0.00000000000E+00  0.45593999997E+02  0.45594000000E+02  0.51100000000E-03 0.  1.
         11   -1    0    0    0    0 -0.00000000000E+00 -0.00000000000E+00 -0.45593999997E+02  0.45594000000E+02  0.51100000000E-03 0. -1.
    9900012    2    1    2    0    0  0.26784632786E+02 -0.28350146134E+02 -0.11489856689E+02  0.50528878686E+02  0.30000057254E+02 0.  0.
        -12    1    1    2    0    0 -0.26784632786E+02  0.28350146134E+02  0.11489856689E+02  0.40659121314E+02  0.00000000000E+00 0.  1.
         11    1    3    3    0    0  0.20359724885E+01 -0.11531222827E+02  0.60327247833E+01  0.13172245535E+02  0.51100000000E-03 0. -1.
        -11    1    3    3    0    0 -0.37315770119E+00 -0.51955236573E+01 -0.17342178027E+01  0.54900113290E+01  0.51100000000E-03 0.  1.
         12    1    3    3    0    0  0.25121817998E+02 -0.11623399650E+02 -0.15788363670E+02  0.31866621822E+02  0.00000000000E+00 0. -1.
</event>
<event>
 7    1  0.5839176E-013  0.5052885E+02  0.7816164E-02  0.1300439E+00
        -11   -1    0    0    0    0  0.00000000000E+00  0.00000000000E+00  0.45593999997E+02  0.45594000000E+02  0.51100000000E-03 0. -1.
         11   -1    0    0    0    0 -0.00000000000E+00 -0.00000000000E+00 -0.45593999997E+02  0.45594000000E+02  0.51100000000E-03 0.  1.
    9900012    2    1    2    0    0 -0.57505574168E+01  0.52396218409E+00  0.40247022591E+02  0.50528852513E+02  0.29999977698E+02 0.  0.
        -12    1    1    2    0    0  0.57505574168E+01 -0.52396218409E+00 -0.40247022591E+02  0.40659147487E+02  0.00000000000E+00 0.  1.
         11    1    3    3    0    0 -0.10195142949E+02  0.33023156308E+01  0.25256740771E+02  0.27436274946E+02  0.51100000000E-03 0. -1.
        -11    1    3    3    0    0 -0.12143930103E+01 -0.78802276444E+01  0.23132666658E+01  0.83020443891E+01  0.51100000000E-03 0.  1.
        -12    1    3    3    0    0  0.56589785423E+01  0.51018741976E+01  0.12677015154E+02  0.14790533178E+02  0.00000000000E+00 0.  1.
</event>
<event>
 7    1  0.5839176E-013  0.5052886E+02  0.7816164E-02  0.1300439E+00
        -11   -1    0    0    0    0  0.00000000000E+00  0.00000000000E+00  0.45593999997E+02  0.45594000000E+02  0.51100000000E-03 0.  1.
         11   -1    0    0    0    0 -0.00000000000E+00 -0.00000000000E+00 -0.45593999997E+02  0.45594000000E+02  0.51100000000E-03 0. -1.
    9900012    2    1    2    0    0  0.20641968163E+02 -0.14245475521E+02 -0.32002210670E+02  0.50528856991E+02  0.29999991310E+02 0.  0.
        -12    1    1    2    0    0 -0.20641968163E+02  0.14245475521E+02  0.32002210670E+02  0.40659143009E+02  0.00000000000E+00 0.  1.
         11    1    3    3    0    0 -0.57157431035E+01 -0.31843837662E+01 -0.56562015227E+01  0.86488516650E+01  0.51100000000E-03 0.  1.
        -11    1    3    3    0    0  0.72766226934E+01  0.23958069419E+01 -0.12711637014E+02  0.14841659091E+02  0.51100000000E-03 0. -1.
        -12    1    3    3    0    0  0.19081088573E+02 -0.13456898697E+02 -0.13634372133E+02  0.27038346235E+02  0.00000000000E+00 0.  1.
</event>
<event>
 7    1  0.5839176E-013  0.5052888E+02  0.7816164E-02  0.1300439E+00
        -11   -1    0    0    0    0  0.00000000000E+00  0.00000000000E+00  0.45593999997E+02  0.45594000000E+02  0.51100000000E-03 0.  1.
         11   -1    0    0    0    0 -0.00000000000E+00 -0.00000000000E+00 -0.45593999997E+02  0.45594000000E+02  0.51100000000E-03 0. -1.
    9900012    2    1    2    0    0 -0.33890118921E+02 -0.20774496259E+02 -0.85466098441E+01  0.50528875623E+02  0.30000047944E+02 0.  0.
        -12    1    1    2    0    0  0.33890118921E+02  0.20774496259E+02  0.85466098441E+01  0.40659124377E+02  0.00000000000E+00 0.  1.
         11    1    3    3    0    0 -0.10864003007E+02 -0.10357785478E+02 -0.74184630112E+01  0.16743472610E+02  0.51100000000E-03 0. -1.
        -11    1    3    3    0    0 -0.20150001289E+02 -0.14670800226E+02  0.53763097309E+01  0.25498228131E+02  0.51100000000E-03 0.  1.
         12    1    3    3    0    0 -0.28761146239E+01  0.42540894447E+01 -0.65044565638E+01  0.82871748819E+01  0.00000000000E+00 0. -1.
</event>
<event>
 7    1  0.5839176E-013  0.5052886E+02  0.7816164E-02  0.1300439E+00
        -11   -1    0    0    0    0  0.00000000000E+00  0.00000000000E+00  0.45593999997E+02  0.45594000000E+02  0.51100000000E-03 0. -1.
         11   -1    0    0    0    0 -0.00000000000E+00 -0.00000000000E+00 -0.45593999997E+02  0.45594000000E+02  0.51100000000E-03 0.  1.
    9900012    2    1    2    0    0 -0.12014898039E+02  0.36930814452E+02 -0.12038401970E+02  0.50528856465E+02  0.29999989712E+02 0.  0.
        -12    1    1    2    0    0  0.12014898039E+02 -0.36930814452E+02  0.12038401970E+02  0.40659143535E+02  0.00000000000E+00 0.  1.
         11    1    3    3    0    0 -0.38101960109E+01  0.15208208673E+02 -0.15966605350E+01  0.15759331515E+02  0.51100000000E-03 0. -1.
        -11    1    3    3    0    0 -0.19552884455E+01  0.17631603114E+02 -0.17190836520E+02  0.24702660622E+02  0.51100000000E-03 0.  1.
        -12    1    3    3    0    0 -0.62494135824E+01  0.40910026647E+01  0.67490950855E+01  0.10066864328E+02  0.00000000000E+00 0.  1.
</event>
<event>
 7    1  0.5839176E-013  0.5052886E+02  0.7816164E-02  0.1300439E+00
        -11   -1    0    0    0    0  0.00000000000E+00  0.00000000000E+00  0.45593999997E+02  0.45594000000E+02  0.51100000000E-03 0. -1.
         11   -1    0    0    0    0 -0.00000000000E+00 -0.00000000000E+00 -0.45593999997E+02  0.45594000000E+02  0.51100000000E-03 0.  1.
    9900012    2    1    2    0    0 -0.40206406499E+02 -0.48011508429E+00 -0.60315902459E+01  0.50528859393E+02  0.29999998610E+02 0.  0.
        -12    1    1    2    0    0  0.40206406499E+02  0.48011508429E+00  0.60315902459E+01  0.40659140607E+02  0.00000000000E+00 0.  1.
         11    1    3    3    0    0 -0.13072588573E+02 -0.68199151275E+01  0.59802869627E+01  0.15911242779E+02  0.51100000000E-03 0. -1.
        -11    1    3    3    0    0 -0.70545310699E+01 -0.48146728233E+01  0.32022066521E+00  0.85469307091E+01  0.51100000000E-03 0.  1.
         12    1    3    3    0    0 -0.20079286856E+02  0.11154472866E+02 -0.12332097874E+02  0.26070685904E+02  0.00000000000E+00 0. -1.
</event>
<event>
 7    1  0.5839176E-013  0.5052886E+02  0.7816164E-02  0.1300439E+00
        -11   -1    0    0    0    0  0.00000000000E+00  0.00000000000E+00  0.45593999997E+02  0.45594000000E+02  0.51100000000E-03 0. -1.
         11   -1    0    0    0    0 -0.00000000000E+00 -0.00000000000E+00 -0.45593999997E+02  0.45594000000E+02  0.51100000000E-03 0.  1.
    9900012    2    1    2    0    0 -0.21507555096E+02 -0.24512195827E+00  0.34504067942E+02  0.50528859385E+02  0.29999998588E+02 0.  0.
        -12    1    1    2    0    0  0.21507555096E+02  0.24512195827E+00 -0.34504067942E+02  0.40659140615E+02  0.00000000000E+00 0.  1.
         11    1    3    3    0    0 -0.17678739374E+02  0.87121488652E+00  0.15846088564E+02  0.23757006635E+02  0.51100000000E-03 0. -1.
        -11    1    3    3    0    0 -0.10924370538E+02 -0.19706797248E+01  0.70818482409E+01  0.13167308951E+02  0.51100000000E-03 0.  1.
        -12    1    3    3    0    0  0.70955548157E+01  0.85434288002E+00  0.11576131137E+02  0.13604543799E+02  0.00000000000E+00 0.  1.
</event>
<event>
 7    1  0.5839176E-013  0.5052886E+02  0.7816164E-02  0.1300439E+00
        -11   -1    0    0    0    0  0.00000000000E+00  0.00000000000E+00  0.45593999997E+02  0.45594000000E+02  0.51100000000E-03 0.  1.
         11   -1    0    0    0    0 -0.00000000000E+00 -0.00000000000E+00 -0.45593999997E+02  0.45594000000E+02  0.51100000000E-03 0. -1.
    9900012    2    1    2    0    0 -0.24953128014E+01 -0.22219174796E+02 -0.33959494931E+02  0.50528860676E+02  0.30000002511E+02 0.  0.
        -12    1    1    2    0    0  0.24953128014E+01  0.22219174796E+02  0.33959494931E+02  0.40659139324E+02  0.00000000000E+00 0.  1.
         11    1    3    3    0    0  0.54338059125E+01 -0.17689971700E+02 -0.27412227206E+02  0.33074031295E+02  0.51100000000E-03 0. -1.
        -11    1    3    3    0    0 -0.14405689109E+01 -0.27292760220E+01 -0.95836638571E+01  0.10068306689E+02  0.51100000000E-03 0.  1.
        -12    1    3    3    0    0 -0.64885498030E+01 -0.17999270743E+01  0.30363961319E+01  0.73865226926E+01  0.00000000000E+00 0.  1.
</event>
<event>
 7    1  0.5839176E-013  0.5052886E+02  0.7816164E-02  0.1300439E+00
        -11   -1    0    0    0    0  0.00000000000E+00  0.00000000000E+00  0.45593999997E+02  0.45594000000E+02  0.51100000000E-03 0. -1.
         11   -1    0    0    0    0 -0.00000000000E+00 -0.00000000000E+00 -0.45593999997E+02  0.45594000000E+02  0.51100000000E-03 0.  1.
    9900012    2    1    2    0    0  0.24767039792E+02  0.19604635204E+02  0.25601125738E+02  0.50528860552E+02  0.30000002135E+02 0.  0.
        -12    1    1    2    0    0 -0.24767039792E+02 -0.19604635204E+02 -0.25601125738E+02  0.40659139448E+02  0.00000000000E+00 0.  1.
         11    1    3    3    0    0  0.15040802241E+02  0.11904177637E+02  0.88446042265E+01  0.21122551963E+02  0.51100000000E-03 0. -1.
        -11    1    3    3    0    0 -0.69165996292E+00  0.16791772760E+01 -0.45709892892E+01  0.49185336404E+01  0.51100000000E-03 0.  1.
         12    1    3    3    0    0  0.10417897514E+02  0.60212802918E+01  0.21327510801E+02  0.24487774949E+02  0.00000000000E+00 0. -1.
</event>
<event>
 7    1  0.5839176E-013  0.5052886E+02  0.7816164E-02  0.1300439E+00
        -11   -1    0    0    0    0  0.00000000000E+00  0.00000000000E+00  0.45593999997E+02  0.45594000000E+02  0.51100000000E-03 0.  1.
         11   -1    0    0    0    0 -0.00000000000E+00 -0.00000000000E+00 -0.45593999997E+02  0.45594000000E+02  0.51100000000E-03 0. -1.
    9900012    2    1    2    0    0 -0.21681623464E+02 -0.30702566150E+02 -0.15505654522E+02  0.50528859743E+02  0.29999999676E+02 0.  0.
        -12    1    1    2    0    0  0.21681623464E+02  0.30702566150E+02  0.15505654522E+02  0.40659140257E+02  0.00000000000E+00 0.  1.
         11    1    3    3    0    0 -0.81397272749E-01 -0.52716576662E+01  0.17077826723E+01  0.55419781651E+01  0.51100000000E-03 0. -1.
        -11    1    3    3    0    0  0.51338392430E+01 -0.11449904381E+01 -0.36668078657E+01  0.64119255035E+01  0.51100000000E-03 0.  1.
         12    1    3    3    0    0 -0.26734065434E+02 -0.24285918046E+02 -0.13546629329E+02  0.38574956075E+02  0.00000000000E+00 0. -1.
</event>
<event>
 7    1  0.5839176E-013  0.5052886E+02  0.7816164E-02  0.1300439E+00
        -11   -1    0    0    0    0  0.00000000000E+00  0.00000000000E+00  0.45593999997E+02  0.45594000000E+02  0.51100000000E-03 0.  1.
         11   -1    0    0    0    0 -0.00000000000E+00 -0.00000000000E+00 -0.45593999997E+02  0.45594000000E+02  0.51100000000E-03 0. -1.
    9900012    2    1    2    0    0  0.17197325633E+02  0.31744011820E+02 -0.18701220682E+02  0.50528856497E+02  0.29999989809E+02 0.  0.
        -12    1    1    2    0    0 -0.17197325633E+02 -0.31744011820E+02  0.18701220682E+02  0.40659143503E+02  0.00000000000E+00 0.  1.
         11    1    3    3    0    0 -0.14671516496E+01  0.10602749286E+02 -0.12786063557E+02  0.16674958709E+02  0.51100000000E-03 0. -1.
        -11    1    3    3    0    0  0.35344026954E+01  0.40986999678E+01 -0.93533860441E+01  0.10806348809E+02  0.51100000000E-03 0.  1.
        -12    1    3    3    0    0  0.15130074587E+02  0.17042562566E+02  0.34382289191E+01  0.23047548979E+02  0.00000000000E+00 0.  1.
</event>
<event>
 7    1  0.5839176E-013  0.5052886E+02  0.7816164E-02  0.1300439E+00
        -11   -1    0    0    0    0  0.00000000000E+00  0.00000000000E+00  0.45593999997E+02  0.45594000000E+02  0.51100000000E-03 0.  1.
         11   -1    0    0    0    0 -0.00000000000E+00 -0.00000000000E+00 -0.45593999997E+02  0.45594000000E+02  0.51100000000E-03 0. -1.
    9900012    2    1    2    0    0  0.17475656316E+02 -0.12650946802E+02 -0.34463319771E+02  0.50528862918E+02  0.30000009324E+02 0.  0.
        -12    1    1    2    0    0 -0.17475656316E+02  0.12650946802E+02  0.34463319771E+02  0.40659137082E+02  0.00000000000E+00 0.  1.
         11    1    3    3    0    0 -0.26996594652E+01  0.21214243381E+01 -0.95961222666E+01  0.10191867604E+02  0.51100000000E-03 0. -1.
        -11    1    3    3    0    0  0.75983228269E+01 -0.17289675076E+02 -0.15888933720E+02  0.24680469790E+02  0.51100000000E-03 0.  1.
         12    1    3    3    0    0  0.12576992954E+02  0.25173039366E+01 -0.89782637841E+01  0.15656525523E+02  0.00000000000E+00 0. -1.
</event>
<event>
 7    1  0.5839176E-013  0.5052885E+02  0.7816164E-02  0.1300439E+00
        -11   -1    0    0    0    0  0.00000000000E+00  0.00000000000E+00  0.45593999997E+02  0.45594000000E+02  0.51100000000E-03 0.  1.
         11   -1    0    0    0    0 -0.00000000000E+00 -0.00000000000E+00 -0.45593999997E+02  0.45594000000E+02  0.51100000000E-03 0. -1.
    9900012    2    1    2    0    0  0.88396427179E+01  0.15335491024E+02 -0.36603955384E+02  0.50528854435E+02  0.29999983540E+02 0.  0.
        -12    1    1    2    0    0 -0.88396427179E+01 -0.15335491024E+02  0.36603955384E+02  0.40659145565E+02  0.00000000000E+00 0.  1.
         11    1    3    3    0    0  0.54243871764E+01  0.33521280703E+01 -0.40475855270E+01  0.75527271696E+01  0.51100000000E-03 0. -1.
        -11    1    3    3    0    0 -0.16067017207E+01  0.93600052880E+01  0.43006266723E+00  0.95066368170E+01  0.51100000000E-03 0.  1.
         12    1    3    3    0    0  0.50219572622E+01  0.26233576659E+01 -0.32986432524E+02  0.33469490448E+02  0.00000000000E+00 0. -1.
</event>
<event>
 7    1  0.5839176E-013  0.5052886E+02  0.7816164E-02  0.1300439E+00
        -11   -1    0    0    0    0  0.00000000000E+00  0.00000000000E+00  0.45593999997E+02  0.45594000000E+02  0.51100000000E-03 0. -1.
         11   -1    0    0    0    0 -0.00000000000E+00 -0.00000000000E+00 -0.45593999997E+02  0.45594000000E+02  0.51100000000E-03 0.  1.
    9900012    2    1    2    0    0  0.15054739289E+02  0.37222049001E+02  0.64062300569E+01  0.50528857234E+02  0.29999992050E+02 0.  0.
        -12    1    1    2    0    0 -0.15054739289E+02 -0.37222049001E+02 -0.64062300569E+01  0.40659142766E+02  0.00000000000E+00 0.  1.
         11    1    3    3    0    0  0.16835515111E+02  0.11134072499E+02  0.32874533215E+01  0.20450170881E+02  0.51100000000E-03 0. -1.
        -11    1    3    3    0    0 -0.28123734780E+01  0.51090251306E+01  0.65784849572E+01  0.87913620650E+01  0.51100000000E-03 0.  1.
         12    1    3    3    0    0  0.10315976558E+01  0.20978951372E+02 -0.34597082219E+01  0.21287324288E+02  0.00000000000E+00 0. -1.
</event>
<event>
 7    1  0.5839176E-013  0.5052886E+02  0.7816164E-02  0.1300439E+00
        -11   -1    0    0    0    0  0.00000000000E+00  0.00000000000E+00  0.45593999997E+02  0.45594000000E+02  0.51100000000E-03 0.  1.
         11   -1    0    0    0    0 -0.00000000000E+00 -0.00000000000E+00 -0.45593999997E+02  0.45594000000E+02  0.51100000000E-03 0. -1.
    9900012    2    1    2    0    0  0.74150490262E+01  0.28199148520E+02 -0.28337094425E+02  0.50528857735E+02  0.29999993570E+02 0.  0.
        -12    1    1    2    0    0 -0.74150490262E+01 -0.28199148520E+02  0.28337094425E+02  0.40659142265E+02  0.00000000000E+00 0.  1.
         11    1    3    3    0    0 -0.95817065567E+00  0.73174581578E+01 -0.94866203457E+01  0.12019120215E+02  0.51100000000E-03 0. -1.
        -11    1    3    3    0    0 -0.77257324978E+01  0.14074053928E+01 -0.73223308317E+01  0.10737050882E+02  0.51100000000E-03 0.  1.
         12    1    3    3    0    0  0.16098952180E+02  0.19474284970E+02 -0.11528143247E+02  0.27772686638E+02  0.00000000000E+00 0. -1.
</event>
<event>
 7    1  0.5839176E-013  0.5052887E+02  0.7816164E-02  0.1300439E+00
        -11   -1    0    0    0    0  0.00000000000E+00  0.00000000000E+00  0.45593999997E+02  0.45594000000E+02  0.51100000000E-03 0.  1.
         11   -1    0    0    0    0 -0.00000000000E+00 -0.00000000000E+00 -0.45593999997E+02  0.45594000000E+02  0.51100000000E-03 0. -1.
    9900012    2    1    2    0    0 -0.31552488235E+02 -0.99655780705E+01 -0.23628211668E+02  0.50528872528E+02  0.30000038537E+02 0.  0.
        -12    1    1    2    0    0  0.31552488235E+02  0.99655780705E+01  0.23628211668E+02  0.40659127472E+02  0.00000000000E+00 0.  1.
         11    1    3    3    0    0 -0.27762330684E+02 -0.11590598269E+02 -0.29426988897E+02  0.42083686258E+02  0.51100000000E-03 0. -1.
        -11    1    3    3    0    0 -0.18246637609E+01  0.97375208082E+00 -0.22028777379E+00  0.20799321911E+01  0.51100000000E-03 0.  1.
         12    1    3    3    0    0 -0.19654937900E+01  0.65126811731E+00  0.60190650019E+01  0.63652540795E+01  0.00000000000E+00 0. -1.
</event>
<event>
 7    1  0.5839176E-013  0.5052887E+02  0.7816164E-02  0.1300439E+00
        -11   -1    0    0    0    0  0.00000000000E+00  0.00000000000E+00  0.45593999997E+02  0.45594000000E+02  0.51100000000E-03 0.  1.
         11   -1    0    0    0    0 -0.00000000000E+00 -0.00000000000E+00 -0.45593999997E+02  0.45594000000E+02  0.51100000000E-03 0. -1.
    9900012    2    1    2    0    0  0.15007392171E+02  0.34037346450E+02 -0.16413474480E+02  0.50528869197E+02  0.30000028411E+02 0.  0.
        -12    1    1    2    0    0 -0.15007392171E+02 -0.34037346450E+02  0.16413474480E+02  0.40659130803E+02  0.00000000000E+00 0.  1.
         11    1    3    3    0    0  0.59410329403E+01  0.14536025514E+02 -0.13057782822E+02  0.20422967528E+02  0.51100000000E-03 0. -1.
        -11    1    3    3    0    0  0.38386253020E+01  0.21362601310E+02 -0.77297520467E+01  0.23040070441E+02  0.51100000000E-03 0.  1.
        -12    1    3    3    0    0  0.52277339289E+01 -0.18612803744E+01  0.43740603888E+01  0.70658312284E+01  0.00000000000E+00 0.  1.
</event>
<event>
 7    1  0.5839176E-013  0.5052891E+02  0.7816164E-02  0.1300439E+00
        -11   -1    0    0    0    0  0.00000000000E+00  0.00000000000E+00  0.45593999997E+02  0.45594000000E+02  0.51100000000E-03 0.  1.
         11   -1    0    0    0    0 -0.00000000000E+00 -0.00000000000E+00 -0.45593999997E+02  0.45594000000E+02  0.51100000000E-03 0. -1.
    9900012    2    1    2    0    0 -0.14747336421E+02  0.24525462819E+02 -0.28882158437E+02  0.50528913267E+02  0.30000162365E+02 0.  0.
        -12    1    1    2    0    0  0.14747336421E+02 -0.24525462819E+02  0.28882158437E+02  0.40659086733E+02  0.00000000000E+00 0.  1.
         11    1    3    3    0    0 -0.74916829846E+01 -0.79106829856E-01 -0.41528357935E+01  0.85660736176E+01  0.51100000000E-03 0. -1.
        -11    1    3    3    0    0 -0.11855501737E+02  0.56939046550E+01 -0.45225646845E+01  0.13907805838E+02  0.51100000000E-03 0.  1.
         12    1    3    3    0    0  0.45998483001E+01  0.18910664994E+02 -0.20206757959E+02  0.28055033811E+02  0.00000000000E+00 0. -1.
</event>
<event>
 7    1  0.5839176E-013  0.5052886E+02  0.7816164E-02  0.1300439E+00
        -11   -1    0    0    0    0  0.00000000000E+00  0.00000000000E+00  0.45593999997E+02  0.45594000000E+02  0.51100000000E-03 0.  1.
         11   -1    0    0    0    0 -0.00000000000E+00 -0.00000000000E+00 -0.45593999997E+02  0.45594000000E+02  0.51100000000E-03 0. -1.
    9900012    2    1    2    0    0 -0.19896334483E-01 -0.40481367521E+02 -0.37978672188E+01  0.50528864401E+02  0.30000013835E+02 0.  0.
        -12    1    1    2    0    0  0.19896334483E-01  0.40481367521E+02  0.37978672188E+01  0.40659135599E+02  0.00000000000E+00 0.  1.
         11    1    3    3    0    0  0.34895142096E+01 -0.14951159392E+02 -0.37052470538E+01  0.15793756126E+02  0.51100000000E-03 0. -1.
        -11    1    3    3    0    0  0.42319787479E+01 -0.94324805315E+01 -0.99369443534E+01  0.14339602381E+02  0.51100000000E-03 0.  1.
        -12    1    3    3    0    0 -0.77413892920E+01 -0.16097727598E+02  0.98443241884E+01  0.20395505895E+02  0.00000000000E+00 0.  1.
</event>
<event>
 7    1  0.5839176E-013  0.5052885E+02  0.7816164E-02  0.1300439E+00
        -11   -1    0    0    0    0  0.00000000000E+00  0.00000000000E+00  0.45593999997E+02  0.45594000000E+02  0.51100000000E-03 0.  1.
         11   -1    0    0    0    0 -0.00000000000E+00 -0.00000000000E+00 -0.45593999997E+02  0.45594000000E+02  0.51100000000E-03 0. -1.
    9900012    2    1    2    0    0 -0.17309809319E+02  0.18769188035E+02 -0.31642610186E+02  0.50528847309E+02  0.29999961881E+02 0.  0.
        -12    1    1    2    0    0  0.17309809319E+02 -0.18769188035E+02  0.31642610186E+02  0.40659152691E+02  0.00000000000E+00 0.  1.
         11    1    3    3    0    0  0.59193168534E+01 -0.10727498219E+01 -0.41682211773E+01  0.73186865103E+01  0.51100000000E-03 0. -1.
        -11    1    3    3    0    0 -0.28394675728E+01 -0.17558299396E+01 -0.11779270185E+01  0.35402015756E+01  0.51100000000E-03 0.  1.
         12    1    3    3    0    0 -0.20389658599E+02  0.21597767796E+02 -0.26296461991E+02  0.39669959223E+02  0.00000000000E+00 0. -1.
</event>
<event>
 7    1  0.5839176E-013  0.5052884E+02  0.7816164E-02  0.1300439E+00
        -11   -1    0    0    0    0  0.00000000000E+00  0.00000000000E+00  0.45593999997E+02  0.45594000000E+02  0.51100000000E-03 0. -1.
         11   -1    0    0    0    0 -0.00000000000E+00 -0.00000000000E+00 -0.45593999997E+02  0.45594000000E+02  0.51100000000E-03 0.  1.
    9900012    2    1    2    0    0  0.30555291848E+02 -0.12577892681E+01  0.26794770448E+02  0.50528836001E+02  0.29999927508E+02 0.  0.
        -12    1    1    2    0    0 -0.30555291848E+02  0.12577892681E+01 -0.26794770448E+02  0.40659163999E+02  0.00000000000E+00 0.  1.
         11    1    3    3    0    0  0.11290004603E+01  0.19179990328E+01  0.87684727986E+01  0.90465174410E+01  0.51100000000E-03 0. -1.
        -11    1    3    3    0    0  0.24674237098E+02  0.37154932014E+01  0.20985368360E+02  0.32603811918E+02  0.51100000000E-03 0.  1.
        -12    1    3    3    0    0  0.47520542893E+01 -0.68912815023E+01 -0.29590707109E+01  0.88785066416E+01  0.00000000000E+00 0.  1.
</event>
<event>
 7    1  0.5839176E-013  0.5052885E+02  0.7816164E-02  0.1300439E+00
        -11   -1    0    0    0    0  0.00000000000E+00  0.00000000000E+00  0.45593999997E+02  0.45594000000E+02  0.51100000000E-03 0.  1.
         11   -1    0    0    0    0 -0.00000000000E+00 -0.00000000000E+00 -0.45593999997E+02  0.45594000000E+02  0.51100000000E-03 0. -1.
    9900012    2    1    2    0    0  0.18991748249E+02 -0.19722660048E+02 -0.30058219764E+02  0.50528851013E+02  0.29999973140E+02 0.  0.
        -12    1    1    2    0    0 -0.18991748249E+02  0.19722660048E+02  0.30058219764E+02  0.40659148987E+02  0.00000000000E+00 0.  1.
         11    1    3    3    0    0  0.65260689355E+01 -0.16295147321E+02 -0.22334107574E+02  0.28406579578E+02  0.51100000000E-03 0. -1.
        -11    1    3    3    0    0  0.14956600997E+02 -0.60959693740E+01 -0.86977685181E+01  0.18344261595E+02  0.51100000000E-03 0.  1.
        -12    1    3    3    0    0 -0.24909216837E+01  0.26684566462E+01  0.97365632833E+00  0.37780098402E+01  0.00000000000E+00 0.  1.
</event>
<event>
 7    1  0.5839176E-013  0.5052887E+02  0.7816164E-02  0.1300439E+00
        -11   -1    0    0    0    0  0.00000000000E+00  0.00000000000E+00  0.45593999997E+02  0.45594000000E+02  0.51100000000E-03 0. -1.
         11   -1    0    0    0    0 -0.00000000000E+00 -0.00000000000E+00 -0.45593999997E+02  0.45594000000E+02  0.51100000000E-03 0.  1.
    9900012    2    1    2    0    0 -0.38859878198E+02  0.75972284780E+01 -0.92388618909E+01  0.50528873311E+02  0.30000040916E+02 0.  0.
        -12    1    1    2    0    0  0.38859878198E+02 -0.75972284780E+01  0.92388618909E+01  0.40659126689E+02  0.00000000000E+00 0.  1.
         11    1    3    3    0    0 -0.25780982175E+02  0.37259860965E+01 -0.12576412748E+01  0.26079180895E+02  0.51100000000E-03 0. -1.
        -11    1    3    3    0    0 -0.59999409778E+01  0.10086575818E+02  0.53803620430E+00  0.11748522745E+02  0.51100000000E-03 0.  1.
        -12    1    3    3    0    0 -0.70789550449E+01 -0.62153334363E+01 -0.85192568204E+01  0.12701169671E+02  0.00000000000E+00 0.  1.
</event>
<event>
 7    1  0.5839176E-013  0.5052885E+02  0.7816164E-02  0.1300439E+00
        -11   -1    0    0    0    0  0.00000000000E+00  0.00000000000E+00  0.45593999997E+02  0.45594000000E+02  0.51100000000E-03 0.  1.
         11   -1    0    0    0    0 -0.00000000000E+00 -0.00000000000E+00 -0.45593999997E+02  0.45594000000E+02  0.51100000000E-03 0. -1.
    9900012    2    1    2    0    0  0.86238980945E+01  0.63556989968E+01 -0.39222444821E+02  0.50528847207E+02  0.29999961570E+02 0.  0.
        -12    1    1    2    0    0 -0.86238980945E+01 -0.63556989968E+01  0.39222444821E+02  0.40659152793E+02  0.00000000000E+00 0.  1.
         11    1    3    3    0    0  0.50874420896E+01  0.13421729048E+02 -0.47534743783E+01  0.15120198298E+02  0.51100000000E-03 0.  1.
        -11    1    3    3    0    0  0.21188835646E+01 -0.41722699454E+01 -0.16397521759E+02  0.17052161861E+02  0.51100000000E-03 0. -1.
        -12    1    3    3    0    0  0.14175724403E+01 -0.28937601055E+01 -0.18071448684E+02  0.18356487048E+02  0.00000000000E+00 0.  1.
</event>
<event>
 7    1  0.5839176E-013  0.5052886E+02  0.7816164E-02  0.1300439E+00
        -11   -1    0    0    0    0  0.00000000000E+00  0.00000000000E+00  0.45593999997E+02  0.45594000000E+02  0.51100000000E-03 0.  1.
         11   -1    0    0    0    0 -0.00000000000E+00 -0.00000000000E+00 -0.45593999997E+02  0.45594000000E+02  0.51100000000E-03 0. -1.
    9900012    2    1    2    0    0  0.78049774244E+01  0.26817015811E+02 -0.29548194281E+02  0.50528858410E+02  0.29999995622E+02 0.  0.
        -12    1    1    2    0    0 -0.78049774244E+01 -0.26817015811E+02  0.29548194281E+02  0.40659141590E+02  0.00000000000E+00 0.  1.
         11    1    3    3    0    0  0.37146453931E+01  0.46067756648E+01 -0.54138248047E+01  0.80206278868E+01  0.51100000000E-03 0. -1.
        -11    1    3    3    0    0  0.31991602038E+01  0.28356793162E+02 -0.21645967356E+02  0.35817457300E+02  0.51100000000E-03 0.  1.
         12    1    3    3    0    0  0.89117182755E+00 -0.61465530157E+01 -0.24884021207E+01  0.66907732225E+01  0.00000000000E+00 0. -1.
</event>
<event>
 7    1  0.5839176E-013  0.5052887E+02  0.7816164E-02  0.1300439E+00
        -11   -1    0    0    0    0  0.00000000000E+00  0.00000000000E+00  0.45593999997E+02  0.45594000000E+02  0.51100000000E-03 0.  1.
         11   -1    0    0    0    0 -0.00000000000E+00 -0.00000000000E+00 -0.45593999997E+02  0.45594000000E+02  0.51100000000E-03 0. -1.
    9900012    2    1    2    0    0  0.88305991883E+01 -0.13229992892E+02 -0.37418616339E+02  0.50528867660E+02  0.30000023738E+02 0.  0.
        -12    1    1    2    0    0 -0.88305991883E+01  0.13229992892E+02  0.37418616339E+02  0.40659132340E+02  0.00000000000E+00 0.  1.
         11    1    3    3    0    0 -0.17629900135E+01 -0.12340981693E+02 -0.71064236647E+01  0.14349537292E+02  0.51100000000E-03 0. -1.
        -11    1    3    3    0    0  0.56147973753E+01 -0.50369509519E+01 -0.30145963262E+01  0.81230915130E+01  0.51100000000E-03 0.  1.
        -12    1    3    3    0    0  0.49787918265E+01  0.41479397536E+01 -0.27297596348E+02  0.28056238854E+02  0.00000000000E+00 0.  1.
</event>
<event>
 7    1  0.5839176E-013  0.5052885E+02  0.7816164E-02  0.1300439E+00
        -11   -1    0    0    0    0  0.00000000000E+00  0.00000000000E+00  0.45593999997E+02  0.45594000000E+02  0.51100000000E-03 0.  1.
         11   -1    0    0    0    0 -0.00000000000E+00 -0.00000000000E+00 -0.45593999997E+02  0.45594000000E+02  0.51100000000E-03 0. -1.
    9900012    2    1    2    0    0 -0.12106216970E+02  0.22908718595E+02 -0.31333637116E+02  0.50528847379E+02  0.29999962092E+02 0.  0.
        -12    1    1    2    0    0  0.12106216970E+02 -0.22908718595E+02  0.31333637116E+02  0.40659152621E+02  0.00000000000E+00 0.  1.
         11    1    3    3    0    0 -0.62045318786E+01 -0.14073278593E+01 -0.74071685397E+01  0.97643706183E+01  0.51100000000E-03 0.  1.
        -11    1    3    3    0    0 -0.91441887935E+01  0.10075017099E+02 -0.22226594407E+02  0.26060384829E+02  0.51100000000E-03 0. -1.
         12    1    3    3    0    0  0.32425037017E+01  0.14241029355E+02 -0.16998741696E+01  0.14704091932E+02  0.00000000000E+00 0. -1.
</event>
<event>
 7    1  0.5839176E-013  0.5052888E+02  0.7816164E-02  0.1300439E+00
        -11   -1    0    0    0    0  0.00000000000E+00  0.00000000000E+00  0.45593999997E+02  0.45594000000E+02  0.51100000000E-03 0.  1.
         11   -1    0    0    0    0 -0.00000000000E+00 -0.00000000000E+00 -0.45593999997E+02  0.45594000000E+02  0.51100000000E-03 0. -1.
    9900012    2    1    2    0    0 -0.18525363809E+02  0.25825617118E+02 -0.25357684090E+02  0.50528883603E+02  0.30000072198E+02 0.  0.
        -12    1    1    2    0    0  0.18525363809E+02 -0.25825617118E+02  0.25357684090E+02  0.40659116397E+02  0.00000000000E+00 0.  1.
         11    1    3    3    0    0 -0.13844646780E+02  0.30963337364E+02 -0.18301972145E+02  0.38540429289E+02  0.51100000000E-03 0.  1.
        -11    1    3    3    0    0 -0.55345847382E+01 -0.20770592473E+01 -0.64581851051E+01  0.87552246376E+01  0.51100000000E-03 0. -1.
        -12    1    3    3    0    0  0.85386770923E+00 -0.30606609981E+01 -0.59752684030E+00  0.32332296756E+01  0.00000000000E+00 0.  1.
</event>
<event>
 7    1  0.5839176E-013  0.5052886E+02  0.7816164E-02  0.1300439E+00
        -11   -1    0    0    0    0  0.00000000000E+00  0.00000000000E+00  0.45593999997E+02  0.45594000000E+02  0.51100000000E-03 0.  1.
         11   -1    0    0    0    0 -0.00000000000E+00 -0.00000000000E+00 -0.45593999997E+02  0.45594000000E+02  0.51100000000E-03 0. -1.
    9900012    2    1    2    0    0  0.25145831102E+02  0.20144413762E+02 -0.24800315732E+02  0.50528857264E+02  0.29999992139E+02 0.  0.
        -12    1    1    2    0    0 -0.25145831102E+02 -0.20144413762E+02  0.24800315732E+02  0.40659142736E+02  0.00000000000E+00 0.  1.
         11    1    3    3    0    0  0.32054121420E+01  0.10907380514E+02 -0.84066289743E+01  0.14139201804E+02  0.51100000000E-03 0.  1.
        -11    1    3    3    0    0  0.15219403527E+01  0.11178971056E+02 -0.95074962315E+01  0.14753920874E+02  0.51100000000E-03 0. -1.
         12    1    3    3    0    0  0.20418478608E+02 -0.19419378079E+01 -0.68861905261E+01  0.21635734586E+02  0.00000000000E+00 0. -1.
</event>
<event>
 7    1  0.5839176E-013  0.5052886E+02  0.7816164E-02  0.1300439E+00
        -11   -1    0    0    0    0  0.00000000000E+00  0.00000000000E+00  0.45593999997E+02  0.45594000000E+02  0.51100000000E-03 0.  1.
         11   -1    0    0    0    0 -0.00000000000E+00 -0.00000000000E+00 -0.45593999997E+02  0.45594000000E+02  0.51100000000E-03 0. -1.
    9900012    2    1    2    0    0  0.27089967857E+02  0.23685394626E+02 -0.18928853484E+02  0.50528858699E+02  0.29999996502E+02 0.  0.
        -12    1    1    2    0    0 -0.27089967857E+02 -0.23685394626E+02  0.18928853484E+02  0.40659141301E+02  0.00000000000E+00 0.  1.
         11    1    3    3    0    0  0.78983865435E+00  0.30500093132E+01  0.25518042451E+01  0.40543935523E+01  0.51100000000E-03 0.  1.
        -11    1    3    3    0    0  0.69900559229E+01 -0.35016359344E+01  0.14954793334E+01  0.79598237870E+01  0.51100000000E-03 0. -1.
        -12    1    3    3    0    0  0.19310073280E+02  0.24137021247E+02 -0.22976137063E+02  0.38514641360E+02  0.00000000000E+00 0.  1.
</event>
<event>
 7    1  0.5839176E-013  0.5052887E+02  0.7816164E-02  0.1300439E+00
        -11   -1    0    0    0    0  0.00000000000E+00  0.00000000000E+00  0.45593999997E+02  0.45594000000E+02  0.51100000000E-03 0. -1.
         11   -1    0    0    0    0 -0.00000000000E+00 -0.00000000000E+00 -0.45593999997E+02  0.45594000000E+02  0.51100000000E-03 0.  1.
    9900012    2    1    2    0    0 -0.39220857890E+02 -0.10653724516E+02  0.11779014002E+01  0.50528868290E+02  0.30000025655E+02 0.  0.
        -12    1    1    2    0    0  0.39220857890E+02  0.10653724516E+02 -0.11779014002E+01  0.40659131710E+02  0.00000000000E+00 0.  1.
         11    1    3    3    0    0 -0.60409504550E+01 -0.12005203227E+01  0.55689703447E+01  0.83034789339E+01  0.51100000000E-03 0. -1.
        -11    1    3    3    0    0 -0.16854408325E+02  0.69703071583E+01  0.15907894444E+01  0.18308109493E+02  0.51100000000E-03 0.  1.
        -12    1    3    3    0    0 -0.16325499110E+02 -0.16423511351E+02 -0.59818583888E+01  0.23917279864E+02  0.00000000000E+00 0.  1.
</event>
<event>
 7    1  0.5839176E-013  0.5052885E+02  0.7816164E-02  0.1300439E+00
        -11   -1    0    0    0    0  0.00000000000E+00  0.00000000000E+00  0.45593999997E+02  0.45594000000E+02  0.51100000000E-03 0. -1.
         11   -1    0    0    0    0 -0.00000000000E+00 -0.00000000000E+00 -0.45593999997E+02  0.45594000000E+02  0.51100000000E-03 0.  1.
    9900012    2    1    2    0    0 -0.32934029764E+02  0.73415703238E+01 -0.22685178239E+02  0.50528852407E+02  0.29999977375E+02 0.  0.
        -12    1    1    2    0    0  0.32934029764E+02 -0.73415703238E+01  0.22685178239E+02  0.40659147593E+02  0.00000000000E+00 0.  1.
         11    1    3    3    0    0 -0.83720861909E+01 -0.46238550109E+00 -0.27489498370E+01  0.88239646989E+01  0.51100000000E-03 0. -1.
        -11    1    3    3    0    0 -0.86155194634E+01  0.12018451364E+01 -0.22623093107E+02  0.24237903155E+02  0.51100000000E-03 0.  1.
         12    1    3    3    0    0 -0.15946424109E+02  0.66021106885E+01  0.26868647057E+01  0.17466984553E+02  0.00000000000E+00 0. -1.
</event>
<event>
 7    1  0.5839176E-013  0.5052884E+02  0.7816164E-02  0.1300439E+00
        -11   -1    0    0    0    0  0.00000000000E+00  0.00000000000E+00  0.45593999997E+02  0.45594000000E+02  0.51100000000E-03 0.  1.
         11   -1    0    0    0    0 -0.00000000000E+00 -0.00000000000E+00 -0.45593999997E+02  0.45594000000E+02  0.51100000000E-03 0. -1.
    9900012    2    1    2    0    0  0.33992209177E+02  0.98331948725E+01  0.20025121070E+02  0.50528837687E+02  0.29999932634E+02 0.  0.
        -12    1    1    2    0    0 -0.33992209177E+02 -0.98331948725E+01 -0.20025121070E+02  0.40659162313E+02  0.00000000000E+00 0.  1.
         11    1    3    3    0    0  0.20320592923E+02  0.13036701858E+02  0.55020521735E+01  0.24761960150E+02  0.51100000000E-03 0. -1.
        -11    1    3    3    0    0  0.11523698501E+02  0.38497643994E+01  0.13757091589E+02  0.18354124396E+02  0.51100000000E-03 0.  1.
         12    1    3    3    0    0  0.21479177529E+01 -0.70532713854E+01  0.76597730769E+00  0.74127531420E+01  0.00000000000E+00 0. -1.
</event>
<event>
 7    1  0.5839176E-013  0.5052886E+02  0.7816164E-02  0.1300439E+00
        -11   -1    0    0    0    0  0.00000000000E+00  0.00000000000E+00  0.45593999997E+02  0.45594000000E+02  0.51100000000E-03 0.  1.
         11   -1    0    0    0    0 -0.00000000000E+00 -0.00000000000E+00 -0.45593999997E+02  0.45594000000E+02  0.51100000000E-03 0. -1.
    9900012    2    1    2    0    0 -0.19287218139E+02  0.49790673959E+01 -0.35445416188E+02  0.50528862965E+02  0.30000009470E+02 0.  0.
        -12    1    1    2    0    0  0.19287218139E+02 -0.49790673959E+01  0.35445416188E+02  0.40659137035E+02  0.00000000000E+00 0.  1.
         11    1    3    3    0    0  0.82180505691E+00  0.58458282940E+01 -0.16422218648E+02  0.17451026834E+02  0.51100000000E-03 0. -1.
        -11    1    3    3    0    0 -0.13870539324E+01  0.62654148761E+01 -0.18183759599E+01  0.66697701290E+01  0.51100000000E-03 0.  1.
        -12    1    3    3    0    0 -0.18721969263E+02 -0.71321757742E+01 -0.17204821580E+02  0.26408066002E+02  0.00000000000E+00 0.  1.
</event>
<event>
 7    1  0.5839176E-013  0.5052888E+02  0.7816164E-02  0.1300439E+00
        -11   -1    0    0    0    0  0.00000000000E+00  0.00000000000E+00  0.45593999997E+02  0.45594000000E+02  0.51100000000E-03 0. -1.
         11   -1    0    0    0    0 -0.00000000000E+00 -0.00000000000E+00 -0.45593999997E+02  0.45594000000E+02  0.51100000000E-03 0.  1.
    9900012    2    1    2    0    0  0.13970159352E+02  0.93479234512E+01  0.37021815310E+02  0.50528882523E+02  0.30000068916E+02 0.  0.
        -12    1    1    2    0    0 -0.13970159352E+02 -0.93479234512E+01 -0.37021815310E+02  0.40659117477E+02  0.00000000000E+00 0.  1.
         11    1    3    3    0    0  0.77479188723E+01 -0.23606599904E+01  0.32853213144E+02  0.33836911451E+02  0.51100000000E-03 0. -1.
        -11    1    3    3    0    0  0.17871331972E+01 -0.14256805352E+01  0.83563804526E+00  0.24340709227E+01  0.51100000000E-03 0.  1.
        -12    1    3    3    0    0  0.44351072827E+01  0.13134263977E+02  0.33329641211E+01  0.14257900149E+02  0.00000000000E+00 0.  1.
</event>
<event>
 7    1  0.5839176E-013  0.5052886E+02  0.7816164E-02  0.1300439E+00
        -11   -1    0    0    0    0  0.00000000000E+00  0.00000000000E+00  0.45593999997E+02  0.45594000000E+02  0.51100000000E-03 0.  1.
         11   -1    0    0    0    0 -0.00000000000E+00 -0.00000000000E+00 -0.45593999997E+02  0.45594000000E+02  0.51100000000E-03 0. -1.
    9900012    2    1    2    0    0 -0.25212579893E+01  0.22261412591E+02 -0.33929904551E+02  0.50528860127E+02  0.30000000841E+02 0.  0.
        -12    1    1    2    0    0  0.25212579893E+01 -0.22261412591E+02  0.33929904551E+02  0.40659139873E+02  0.00000000000E+00 0.  1.
         11    1    3    3    0    0 -0.24292800822E+01  0.36778026999E+01 -0.69909435700E+01  0.82644374688E+01  0.51100000000E-03 0. -1.
        -11    1    3    3    0    0 -0.67940730566E+01  0.23354769841E+02 -0.20710168499E+02  0.31945512713E+02  0.51100000000E-03 0.  1.
         12    1    3    3    0    0  0.67020951494E+01 -0.47711599493E+01 -0.62287924824E+01  0.10318909944E+02  0.00000000000E+00 0. -1.
</event>
<event>
 7    1  0.5839176E-013  0.5052886E+02  0.7816164E-02  0.1300439E+00
        -11   -1    0    0    0    0  0.00000000000E+00  0.00000000000E+00  0.45593999997E+02  0.45594000000E+02  0.51100000000E-03 0. -1.
         11   -1    0    0    0    0 -0.00000000000E+00 -0.00000000000E+00 -0.45593999997E+02  0.45594000000E+02  0.51100000000E-03 0.  1.
    9900012    2    1    2    0    0 -0.29990975372E+02  0.14969809296E+02  0.23013300598E+02  0.50528858365E+02  0.29999995485E+02 0.  0.
        -12    1    1    2    0    0  0.29990975372E+02 -0.14969809296E+02 -0.23013300598E+02  0.40659141635E+02  0.00000000000E+00 0.  1.
         11    1    3    3    0    0 -0.11332802030E+02  0.60604367495E+01  0.51022958399E+00  0.12861634030E+02  0.51100000000E-03 0.  1.
        -11    1    3    3    0    0 -0.70035408119E+01  0.14443639299E+02  0.17714196892E+02  0.23905251973E+02  0.51100000000E-03 0. -1.
         12    1    3    3    0    0 -0.11654632530E+02 -0.55342667533E+01  0.47888741226E+01  0.13761972361E+02  0.00000000000E+00 0. -1.
</event>
<event>
 7    1  0.5839176E-013  0.5052887E+02  0.7816164E-02  0.1300439E+00
        -11   -1    0    0    0    0  0.00000000000E+00  0.00000000000E+00  0.45593999997E+02  0.45594000000E+02  0.51100000000E-03 0.  1.
         11   -1    0    0    0    0 -0.00000000000E+00 -0.00000000000E+00 -0.45593999997E+02  0.45594000000E+02  0.51100000000E-03 0. -1.
    9900012    2    1    2    0    0 -0.65373519604E+01  0.40080753436E+02  0.19902932110E+01  0.50528867769E+02  0.30000024072E+02 0.  0.
        -12    1    1    2    0    0  0.65373519604E+01 -0.40080753436E+02 -0.19902932110E+01  0.40659132231E+02  0.00000000000E+00 0.  1.
         11    1    3    3    0    0 -0.51830078007E+01  0.10020569934E+02 -0.65413365221E+00  0.11300587718E+02  0.51100000000E-03 0. -1.
        -11    1    3    3    0    0 -0.82446331312E+01  0.29750768108E+02 -0.19618954969E+01  0.30934304788E+02  0.51100000000E-03 0.  1.
        -12    1    3    3    0    0  0.68902889716E+01  0.30941539408E+00  0.46063223601E+01  0.82939752642E+01  0.00000000000E+00 0.  1.
</event>
<event>
 7    1  0.5839176E-013  0.5052886E+02  0.7816164E-02  0.1300439E+00
        -11   -1    0    0    0    0  0.00000000000E+00  0.00000000000E+00  0.45593999997E+02  0.45594000000E+02  0.51100000000E-03 0.  1.
         11   -1    0    0    0    0 -0.00000000000E+00 -0.00000000000E+00 -0.45593999997E+02  0.45594000000E+02  0.51100000000E-03 0. -1.
    9900012    2    1    2    0    0  0.11233631407E+02 -0.64915366506E+01 -0.38533502857E+02  0.50528863695E+02  0.30000011688E+02 0.  0.
        -12    1    1    2    0    0 -0.11233631407E+02  0.64915366506E+01  0.38533502857E+02  0.40659136305E+02  0.00000000000E+00 0.  1.
         11    1    3    3    0    0 -0.25613928247E+01 -0.43581586356E+01 -0.67634548372E+01  0.84438499212E+01  0.51100000000E-03 0. -1.
        -11    1    3    3    0    0  0.31321275572E+01 -0.70923792844E+01  0.46980778344E+00  0.77674182688E+01  0.51100000000E-03 0.  1.
         12    1    3    3    0    0  0.10662896674E+02  0.49590012694E+01 -0.32239855803E+02  0.34317595505E+02  0.00000000000E+00 0. -1.
</event>
<event>
 7    1  0.5839176E-013  0.5052886E+02  0.7816164E-02  0.1300439E+00
        -11   -1    0    0    0    0  0.00000000000E+00  0.00000000000E+00  0.45593999997E+02  0.45594000000E+02  0.51100000000E-03 0.  1.
         11   -1    0    0    0    0 -0.00000000000E+00 -0.00000000000E+00 -0.45593999997E+02  0.45594000000E+02  0.51100000000E-03 0. -1.
    9900012    2    1    2    0    0  0.26874570922E+02  0.60766904654E+01 -0.29899783800E+02  0.50528858340E+02  0.29999995410E+02 0.  0.
        -12    1    1    2    0    0 -0.26874570922E+02 -0.60766904654E+01  0.29899783800E+02  0.40659141660E+02  0.00000000000E+00 0.  1.
         11    1    3    3    0    0  0.82684028706E+01  0.11592225025E+02 -0.21434080939E+02  0.25732586210E+02  0.51100000000E-03 0. -1.
        -11    1    3    3    0    0  0.48943692065E+01  0.38843221053E+01 -0.25209362391E+00  0.62535077840E+01  0.51100000000E-03 0.  1.
        -12    1    3    3    0    0  0.13711798845E+02 -0.93998566653E+01 -0.82136092364E+01  0.18542764346E+02  0.00000000000E+00 0.  1.
</event>
<event>
 7    1  0.5839176E-013  0.5052886E+02  0.7816164E-02  0.1300439E+00
        -11   -1    0    0    0    0  0.00000000000E+00  0.00000000000E+00  0.45593999997E+02  0.45594000000E+02  0.51100000000E-03 0.  1.
         11   -1    0    0    0    0 -0.00000000000E+00 -0.00000000000E+00 -0.45593999997E+02  0.45594000000E+02  0.51100000000E-03 0. -1.
    9900012    2    1    2    0    0 -0.36143784779E+02 -0.11604060243E+02 -0.14564966316E+02  0.50528860363E+02  0.30000001559E+02 0.  0.
        -12    1    1    2    0    0  0.36143784779E+02  0.11604060243E+02  0.14564966316E+02  0.40659139637E+02  0.00000000000E+00 0.  1.
         11    1    3    3    0    0 -0.14872305797E+02 -0.28952459288E+01 -0.65302414421E+01  0.16498847907E+02  0.51100000000E-03 0. -1.
        -11    1    3    3    0    0 -0.16075737069E+02 -0.13677657918E+02 -0.13451097913E+02  0.25028777113E+02  0.51100000000E-03 0.  1.
        -12    1    3    3    0    0 -0.51957419120E+01  0.49688436042E+01  0.54163730395E+01  0.90012353420E+01  0.00000000000E+00 0.  1.
</event>
<event>
 7    1  0.5839176E-013  0.5052886E+02  0.7816164E-02  0.1300439E+00
        -11   -1    0    0    0    0  0.00000000000E+00  0.00000000000E+00  0.45593999997E+02  0.45594000000E+02  0.51100000000E-03 0. -1.
         11   -1    0    0    0    0 -0.00000000000E+00 -0.00000000000E+00 -0.45593999997E+02  0.45594000000E+02  0.51100000000E-03 0.  1.
    9900012    2    1    2    0    0  0.12923090468E+02 -0.22168188878E+02  0.31539353213E+02  0.50528859988E+02  0.30000000421E+02 0.  0.
        -12    1    1    2    0    0 -0.12923090468E+02  0.22168188878E+02 -0.31539353213E+02  0.40659140012E+02  0.00000000000E+00 0.  1.
         11    1    3    3    0    0  0.43851702630E+01 -0.33431129185E+01  0.19791415944E+02  0.20545224933E+02  0.51100000000E-03 0. -1.
        -11    1    3    3    0    0 -0.52313348989E+01 -0.35245307929E+01  0.57710069104E+01  0.85494855492E+01  0.51100000000E-03 0.  1.
        -12    1    3    3    0    0  0.13769255104E+02 -0.15300545167E+02  0.59769303583E+01  0.21434149506E+02  0.00000000000E+00 0.  1.
</event>
<event>
 7    1  0.5839176E-013  0.5052887E+02  0.7816164E-02  0.1300439E+00
        -11   -1    0    0    0    0  0.00000000000E+00  0.00000000000E+00  0.45593999997E+02  0.45594000000E+02  0.51100000000E-03 0.  1.
         11   -1    0    0    0    0 -0.00000000000E+00 -0.00000000000E+00 -0.45593999997E+02  0.45594000000E+02  0.51100000000E-03 0. -1.
    9900012    2    1    2    0    0 -0.33898456652E+02 -0.16891903507E+02 -0.14789297154E+02  0.50528867228E+02  0.30000022425E+02 0.  0.
        -12    1    1    2    0    0  0.33898456652E+02  0.16891903507E+02  0.14789297154E+02  0.40659132772E+02  0.00000000000E+00 0.  1.
         11    1    3    3    0    0  0.25789273614E+01  0.49166032623E+00 -0.33755522638E+01  0.42763243047E+01  0.51100000000E-03 0. -1.
        -11    1    3    3    0    0 -0.13344332914E+01 -0.79600149026E+01 -0.44196002485E+01  0.92019245854E+01  0.51100000000E-03 0.  1.
         12    1    3    3    0    0 -0.35142950722E+02 -0.94235489306E+01 -0.69941446417E+01  0.37050618337E+02  0.00000000000E+00 0. -1.
</event>
<event>
 7    1  0.5839176E-013  0.5052885E+02  0.7816164E-02  0.1300439E+00
        -11   -1    0    0    0    0  0.00000000000E+00  0.00000000000E+00  0.45593999997E+02  0.45594000000E+02  0.51100000000E-03 0.  1.
         11   -1    0    0    0    0 -0.00000000000E+00 -0.00000000000E+00 -0.45593999997E+02  0.45594000000E+02  0.51100000000E-03 0. -1.
    9900012    2    1    2    0    0 -0.11509043134E+02  0.13786178712E+02 -0.36478065772E+02  0.50528854906E+02  0.29999984971E+02 0.  0.
        -12    1    1    2    0    0  0.11509043134E+02 -0.13786178712E+02  0.36478065772E+02  0.40659145094E+02  0.00000000000E+00 0.  1.
         11    1    3    3    0    0  0.56958553751E+01  0.11363656060E+02 -0.66147350086E+01  0.14329346356E+02  0.51100000000E-03 0.  1.
        -11    1    3    3    0    0 -0.29672893783E+01 -0.28503251742E+01 -0.12370389732E+02  0.13036705958E+02  0.51100000000E-03 0. -1.
        -12    1    3    3    0    0 -0.14237609130E+02  0.52728478258E+01 -0.17492941031E+02  0.23162802591E+02  0.00000000000E+00 0.  1.
</event>
<event>
 7    1  0.5839176E-013  0.5052890E+02  0.7816164E-02  0.1300439E+00
        -11   -1    0    0    0    0  0.00000000000E+00  0.00000000000E+00  0.45593999997E+02  0.45594000000E+02  0.51100000000E-03 0.  1.
         11   -1    0    0    0    0 -0.00000000000E+00 -0.00000000000E+00 -0.45593999997E+02  0.45594000000E+02  0.51100000000E-03 0. -1.
    9900012    2    1    2    0    0 -0.33382607082E+02 -0.21513926705E+02  0.87129068061E+01  0.50528902090E+02  0.30000128392E+02 0.  0.
        -12    1    1    2    0    0  0.33382607082E+02  0.21513926705E+02 -0.87129068061E+01  0.40659097910E+02  0.00000000000E+00 0.  1.
         11    1    3    3    0    0 -0.12514107614E+02 -0.33342169567E+01 -0.68922701780E+01  0.14670490127E+02  0.51100000000E-03 0. -1.
        -11    1    3    3    0    0  0.76578061829E+00  0.76636361544E-01 -0.22580305572E+01  0.23855807145E+01  0.51100000000E-03 0.  1.
         12    1    3    3    0    0 -0.21634280086E+02 -0.18256346110E+02  0.17863207541E+02  0.33472831248E+02  0.00000000000E+00 0. -1.
</event>
<event>
 7    1  0.5839176E-013  0.5052887E+02  0.7816164E-02  0.1300439E+00
        -11   -1    0    0    0    0  0.00000000000E+00  0.00000000000E+00  0.45593999997E+02  0.45594000000E+02  0.51100000000E-03 0.  1.
         11   -1    0    0    0    0 -0.00000000000E+00 -0.00000000000E+00 -0.45593999997E+02  0.45594000000E+02  0.51100000000E-03 0. -1.
    9900012    2    1    2    0    0  0.22396148792E+02 -0.28989117836E+02 -0.17641106025E+02  0.50528867504E+02  0.30000023264E+02 0.  0.
        -12    1    1    2    0    0 -0.22396148792E+02  0.28989117836E+02  0.17641106025E+02  0.40659132496E+02  0.00000000000E+00 0.  1.
         11    1    3    3    0    0 -0.15765468584E+01  0.14349800811E+01 -0.18962702360E+01  0.28531577066E+01  0.51100000000E-03 0. -1.
        -11    1    3    3    0    0 -0.33243689312E+01 -0.10695917408E+02 -0.54597804110E+01  0.12460468706E+02  0.51100000000E-03 0.  1.
        -12    1    3    3    0    0  0.27297064581E+02 -0.19728180509E+02 -0.10285055378E+02  0.35215241091E+02  0.00000000000E+00 0.  1.
</event>
