<event>
 7    1  0.2575978E-011  0.5052886E+02  0.7816164E-02  0.1300439E+00
        -11   -1    0    0    0    0  0.00000000000E+00  0.00000000000E+00  0.45593999997E+02  0.45594000000E+02  0.51100000000E-03 0.  1.
         11   -1    0    0    0    0 -0.00000000000E+00 -0.00000000000E+00 -0.45593999997E+02  0.45594000000E+02  0.51100000000E-03 0. -1.
    9900012    2    1    2    0    0  0.94913615347E+01  0.16251698112E+02  0.36041115861E+02  0.50528859972E+02  0.30000000371E+02 0.  0.
         12    1    1    2    0    0 -0.94913615347E+01 -0.16251698112E+02 -0.36041115861E+02  0.40659140028E+02  0.00000000000E+00 0. -1.
         11    1    3    3    0    0 -0.13436246620E+01 -0.27737592012E+01  0.67527871348E+01  0.74228836504E+01  0.51100000000E-03 0. -1.
        -11    1    3    3    0    0 -0.43674234300E+01  0.11653739132E+01  0.14945086511E+02  0.15613714961E+02  0.51100000000E-03 0.  1.
        -12    1    3    3    0    0  0.15202409627E+02  0.17860083400E+02  0.14343242215E+02  0.27492261361E+02  0.00000000000E+00 0.  1.
</event>
<event>
 7    1  0.2575978E-011  0.5052885E+02  0.7816164E-02  0.1300439E+00
        -11   -1    0    0    0    0  0.00000000000E+00  0.00000000000E+00  0.45593999997E+02  0.45594000000E+02  0.51100000000E-03 0.  1.
         11   -1    0    0    0    0 -0.00000000000E+00 -0.00000000000E+00 -0.45593999997E+02  0.45594000000E+02  0.51100000000E-03 0. -1.
    9900012    2    1    2    0    0  0.20770265710E+02 -0.33504962579E+02  0.99589326192E+01  0.50528846122E+02  0.29999958274E+02 0.  0.
         12    1    1    2    0    0 -0.20770265710E+02  0.33504962579E+02 -0.99589326192E+01  0.40659153878E+02  0.00000000000E+00 0. -1.
         11    1    3    3    0    0  0.10359486137E+02  0.99321596731E+00  0.18089169200E+01  0.10563030421E+02  0.51100000000E-03 0. -1.
        -11    1    3    3    0    0  0.18189291707E+01 -0.11049906117E+01  0.48878005860E+01  0.53310507791E+01  0.51100000000E-03 0.  1.
        -12    1    3    3    0    0  0.85918504022E+01 -0.33393187935E+02  0.32622151133E+01  0.34634764923E+02  0.00000000000E+00 0.  1.
</event>
<event>
 7    1  0.2575978E-011  0.5052887E+02  0.7816164E-02  0.1300439E+00
        -11   -1    0    0    0    0  0.00000000000E+00  0.00000000000E+00  0.45593999997E+02  0.45594000000E+02  0.51100000000E-03 0.  1.
         11   -1    0    0    0    0 -0.00000000000E+00 -0.00000000000E+00 -0.45593999997E+02  0.45594000000E+02  0.51100000000E-03 0. -1.
    9900012    2    1    2    0    0 -0.20245428646E+02  0.29534693517E+02  0.19261089827E+02  0.50528867157E+02  0.30000022211E+02 0.  0.
         12    1    1    2    0    0  0.20245428646E+02 -0.29534693517E+02 -0.19261089827E+02  0.40659132843E+02  0.00000000000E+00 0. -1.
         11    1    3    3    0    0 -0.11920463858E+02  0.15680288177E+01  0.22204009501E+01  0.12226461206E+02  0.51100000000E-03 0.  1.
        -11    1    3    3    0    0 -0.29109616251E+01 -0.15582263426E+01  0.49315329443E+01  0.59347943823E+01  0.51100000000E-03 0. -1.
        -12    1    3    3    0    0 -0.54140031620E+01  0.29524891042E+02  0.12109155932E+02  0.32367611569E+02  0.00000000000E+00 0.  1.
</event>
<event>
 7    1  0.2575978E-011  0.5052886E+02  0.7816164E-02  0.1300439E+00
        -11   -1    0    0    0    0  0.00000000000E+00  0.00000000000E+00  0.45593999997E+02  0.45594000000E+02  0.51100000000E-03 0.  1.
         11   -1    0    0    0    0 -0.00000000000E+00 -0.00000000000E+00 -0.45593999997E+02  0.45594000000E+02  0.51100000000E-03 0. -1.
    9900012    2    1    2    0    0  0.14189495112E+02 -0.98321022549E+01  0.36812413580E+02  0.50528858348E+02  0.29999995435E+02 0.  0.
         12    1    1    2    0    0 -0.14189495112E+02  0.98321022549E+01 -0.36812413580E+02  0.40659141652E+02  0.00000000000E+00 0. -1.
         11    1    3    3    0    0  0.89445313381E+01  0.69857846063E+01  0.19550186574E+02  0.22605654663E+02  0.51100000000E-03 0. -1.
        -11    1    3    3    0    0  0.43612454993E+01 -0.29131084702E+01  0.11881344221E+02  0.12987417142E+02  0.51100000000E-03 0.  1.
        -12    1    3    3    0    0  0.88371827514E+00 -0.13904778391E+02  0.53808827844E+01  0.14935786542E+02  0.00000000000E+00 0.  1.
</event>
<event>
 7    1  0.2575978E-011  0.5052887E+02  0.7816164E-02  0.1300439E+00
        -11   -1    0    0    0    0  0.00000000000E+00  0.00000000000E+00  0.45593999997E+02  0.45594000000E+02  0.51100000000E-03 0. -1.
         11   -1    0    0    0    0 -0.00000000000E+00 -0.00000000000E+00 -0.45593999997E+02  0.45594000000E+02  0.51100000000E-03 0.  1.
    9900012    2    1    2    0    0 -0.28283820839E+02  0.12708574857E+02 -0.26299854456E+02  0.50528871375E+02  0.30000035032E+02 0.  0.
         12    1    1    2    0    0  0.28283820839E+02 -0.12708574857E+02  0.26299854456E+02  0.40659128625E+02  0.00000000000E+00 0. -1.
         11    1    3    3    0    0 -0.15974061677E+01  0.46292168374E+01  0.35043088921E+01  0.60217552312E+01  0.51100000000E-03 0. -1.
        -11    1    3    3    0    0 -0.10811068513E+02  0.12088840960E+02 -0.11122276595E+02  0.19665307398E+02  0.51100000000E-03 0.  1.
         12    1    3    3    0    0 -0.15875346158E+02 -0.40094829406E+01 -0.18681886753E+02  0.24841808745E+02  0.00000000000E+00 0. -1.
</event>
<event>
 7    1  0.2575978E-011  0.5052883E+02  0.7816164E-02  0.1300439E+00
        -11   -1    0    0    0    0  0.00000000000E+00  0.00000000000E+00  0.45593999997E+02  0.45594000000E+02  0.51100000000E-03 0. -1.
         11   -1    0    0    0    0 -0.00000000000E+00 -0.00000000000E+00 -0.45593999997E+02  0.45594000000E+02  0.51100000000E-03 0.  1.
    9900012    2    1    2    0    0 -0.26097771988E+02  0.29058770255E+02  0.11298771831E+02  0.50528830353E+02  0.29999910340E+02 0.  0.
         12    1    1    2    0    0  0.26097771988E+02 -0.29058770255E+02 -0.11298771831E+02  0.40659169647E+02  0.00000000000E+00 0. -1.
         11    1    3    3    0    0 -0.17295479538E+01 -0.67373572236E+00 -0.53359602737E+01  0.56495777056E+01  0.51100000000E-03 0. -1.
        -11    1    3    3    0    0 -0.12806809325E+02  0.39219229479E+01  0.57309499274E+01  0.14568446452E+02  0.51100000000E-03 0.  1.
         12    1    3    3    0    0 -0.11561414709E+02  0.25810583030E+02  0.10903782178E+02  0.30310806195E+02  0.00000000000E+00 0. -1.
</event>
<event>
 7    1  0.2575978E-011  0.5052887E+02  0.7816164E-02  0.1300439E+00
        -11   -1    0    0    0    0  0.00000000000E+00  0.00000000000E+00  0.45593999997E+02  0.45594000000E+02  0.51100000000E-03 0. -1.
         11   -1    0    0    0    0 -0.00000000000E+00 -0.00000000000E+00 -0.45593999997E+02  0.45594000000E+02  0.51100000000E-03 0.  1.
    9900012    2    1    2    0    0 -0.35598729894E+02  0.18364485316E+02  0.69743152893E+01  0.50528868618E+02  0.30000026651E+02 0.  0.
         12    1    1    2    0    0  0.35598729894E+02 -0.18364485316E+02 -0.69743152893E+01  0.40659131382E+02  0.00000000000E+00 0. -1.
         11    1    3    3    0    0 -0.41470693518E+01  0.51417996996E+01  0.87450688051E+01  0.10959585623E+02  0.51100000000E-03 0. -1.
        -11    1    3    3    0    0 -0.27178426728E+02  0.16711317275E+02 -0.61911882864E+01  0.32500243340E+02  0.51100000000E-03 0.  1.
         12    1    3    3    0    0 -0.42732338145E+01 -0.34886316589E+01  0.44204347706E+01  0.70690396551E+01  0.00000000000E+00 0. -1.
</event>
<event>
 7    1  0.2575978E-011  0.5052876E+02  0.7816164E-02  0.1300439E+00
        -11   -1    0    0    0    0  0.00000000000E+00  0.00000000000E+00  0.45593999997E+02  0.45594000000E+02  0.51100000000E-03 0.  1.
         11   -1    0    0    0    0 -0.00000000000E+00 -0.00000000000E+00 -0.45593999997E+02  0.45594000000E+02  0.51100000000E-03 0. -1.
    9900012    2    1    2    0    0  0.28847213090E+02 -0.22442590621E+02  0.17814107257E+02  0.50528757580E+02  0.29999689137E+02 0.  0.
         12    1    1    2    0    0 -0.28847213090E+02  0.22442590621E+02 -0.17814107257E+02  0.40659242420E+02  0.00000000000E+00 0. -1.
         11    1    3    3    0    0  0.77476112427E+00 -0.21150726963E+01 -0.31920735476E+00  0.22750122871E+01  0.51100000000E-03 0. -1.
        -11    1    3    3    0    0  0.46659675378E+01 -0.82706651379E+01  0.19708971430E+02  0.21877356101E+02  0.51100000000E-03 0.  1.
        -12    1    3    3    0    0  0.23406484427E+02 -0.12056852787E+02 -0.15756568173E+01  0.26376389192E+02  0.00000000000E+00 0.  1.
</event>
<event>
 7    1  0.2575978E-011  0.5052887E+02  0.7816164E-02  0.1300439E+00
        -11   -1    0    0    0    0  0.00000000000E+00  0.00000000000E+00  0.45593999997E+02  0.45594000000E+02  0.51100000000E-03 0. -1.
         11   -1    0    0    0    0 -0.00000000000E+00 -0.00000000000E+00 -0.45593999997E+02  0.45594000000E+02  0.51100000000E-03 0.  1.
    9900012    2    1    2    0    0  0.24396685155E+02 -0.29995008840E+02 -0.12580375066E+02  0.50528872628E+02  0.30000038841E+02 0.  0.
         12    1    1    2    0    0 -0.24396685155E+02  0.29995008840E+02  0.12580375066E+02  0.40659127372E+02  0.00000000000E+00 0. -1.
         11    1    3    3    0    0  0.25995961920E+01 -0.83641904095E+01  0.13628850565E+01  0.88642561733E+01  0.51100000000E-03 0. -1.
        -11    1    3    3    0    0  0.89172561739E+01 -0.23889410703E+02 -0.54597163486E+01  0.26077383003E+02  0.51100000000E-03 0.  1.
         12    1    3    3    0    0  0.12879832789E+02  0.22585922728E+01 -0.84835437739E+01  0.15587233452E+02  0.00000000000E+00 0. -1.
</event>
<event>
 7    1  0.2575978E-011  0.5052887E+02  0.7816164E-02  0.1300439E+00
        -11   -1    0    0    0    0  0.00000000000E+00  0.00000000000E+00  0.45593999997E+02  0.45594000000E+02  0.51100000000E-03 0.  1.
         11   -1    0    0    0    0 -0.00000000000E+00 -0.00000000000E+00 -0.45593999997E+02  0.45594000000E+02  0.51100000000E-03 0. -1.
    9900012    2    1    2    0    0 -0.19354172083E+02 -0.65143924209E+01  0.35158828932E+02  0.50528873872E+02  0.30000042622E+02 0.  0.
         12    1    1    2    0    0  0.19354172083E+02  0.65143924209E+01 -0.35158828932E+02  0.40659126128E+02  0.00000000000E+00 0. -1.
         11    1    3    3    0    0 -0.60105837182E-01 -0.73038407815E+01  0.10118336488E+02  0.12479200152E+02  0.51100000000E-03 0. -1.
        -11    1    3    3    0    0 -0.33263370148E+01  0.63593697639E+01  0.18629288916E+02  0.19963880072E+02  0.51100000000E-03 0.  1.
         12    1    3    3    0    0 -0.15967729231E+02 -0.55699214033E+01  0.64112035268E+01  0.18085793649E+02  0.00000000000E+00 0. -1.
</event>
<event>
 7    1  0.2575978E-011  0.5052886E+02  0.7816164E-02  0.1300439E+00
        -11   -1    0    0    0    0  0.00000000000E+00  0.00000000000E+00  0.45593999997E+02  0.45594000000E+02  0.51100000000E-03 0.  1.
         11   -1    0    0    0    0 -0.00000000000E+00 -0.00000000000E+00 -0.45593999997E+02  0.45594000000E+02  0.51100000000E-03 0. -1.
    9900012    2    1    2    0    0  0.39309504377E+02 -0.55769328253E+01  0.87650873552E+01  0.50528855020E+02  0.29999985320E+02 0.  0.
         12    1    1    2    0    0 -0.39309504377E+02  0.55769328253E+01 -0.87650873552E+01  0.40659144980E+02  0.00000000000E+00 0. -1.
         11    1    3    3    0    0  0.26422984267E+02 -0.51359258922E+01 -0.15858514522E+01  0.26964175445E+02  0.51100000000E-03 0.  1.
        -11    1    3    3    0    0  0.16961612846E+02  0.56056655036E+00  0.84384960456E+01  0.18953067323E+02  0.51100000000E-03 0. -1.
         12    1    3    3    0    0 -0.40750927356E+01 -0.10015734834E+01  0.19124427619E+01  0.46116122521E+01  0.00000000000E+00 0. -1.
</event>
<event>
 7    1  0.2575978E-011  0.5052889E+02  0.7816164E-02  0.1300439E+00
        -11   -1    0    0    0    0  0.00000000000E+00  0.00000000000E+00  0.45593999997E+02  0.45594000000E+02  0.51100000000E-03 0. -1.
         11   -1    0    0    0    0 -0.00000000000E+00 -0.00000000000E+00 -0.45593999997E+02  0.45594000000E+02  0.51100000000E-03 0.  1.
    9900012    2    1    2    0    0  0.39587956886E+02  0.88745419247E+01 -0.26832233478E+01  0.50528886479E+02  0.30000080941E+02 0.  0.
         12    1    1    2    0    0 -0.39587956886E+02 -0.88745419247E+01  0.26832233478E+01  0.40659113521E+02  0.00000000000E+00 0. -1.
         11    1    3    3    0    0  0.12856232487E+02  0.48089484437E+00  0.98389074925E+01  0.16196236431E+02  0.51100000000E-03 0. -1.
        -11    1    3    3    0    0 -0.16080972342E+01  0.21070885763E+01 -0.24406787780E+01  0.36031530833E+01  0.51100000000E-03 0.  1.
        -12    1    3    3    0    0  0.28339821633E+02  0.62865585040E+01 -0.10081452062E+02  0.30729496965E+02  0.00000000000E+00 0.  1.
</event>
<event>
 7    1  0.2575978E-011  0.5052886E+02  0.7816164E-02  0.1300439E+00
        -11   -1    0    0    0    0  0.00000000000E+00  0.00000000000E+00  0.45593999997E+02  0.45594000000E+02  0.51100000000E-03 0. -1.
         11   -1    0    0    0    0 -0.00000000000E+00 -0.00000000000E+00 -0.45593999997E+02  0.45594000000E+02  0.51100000000E-03 0.  1.
    9900012    2    1    2    0    0  0.15102989611E+02 -0.37490356257E+02 -0.44202336973E+01  0.50528861133E+02  0.30000003901E+02 0.  0.
         12    1    1    2    0    0 -0.15102989611E+02  0.37490356257E+02  0.44202336973E+01  0.40659138867E+02  0.00000000000E+00 0. -1.
         11    1    3    3    0    0 -0.58231370347E+00 -0.27222122409E+02  0.37046760068E+00  0.27230870060E+02  0.51100000000E-03 0. -1.
        -11    1    3    3    0    0  0.24284423608E+01 -0.49499747174E+01 -0.69290030713E+01  0.88549797191E+01  0.51100000000E-03 0.  1.
         12    1    3    3    0    0  0.13256860953E+02 -0.53182591300E+01  0.21383017733E+01  0.14443011354E+02  0.00000000000E+00 0. -1.
</event>
<event>
 7    1  0.2575978E-011  0.5052886E+02  0.7816164E-02  0.1300439E+00
        -11   -1    0    0    0    0  0.00000000000E+00  0.00000000000E+00  0.45593999997E+02  0.45594000000E+02  0.51100000000E-03 0.  1.
         11   -1    0    0    0    0 -0.00000000000E+00 -0.00000000000E+00 -0.45593999997E+02  0.45594000000E+02  0.51100000000E-03 0. -1.
    9900012    2    1    2    0    0  0.43592110299E+01  0.25182751011E+02  0.31622649756E+02  0.50528860230E+02  0.30000001154E+02 0.  0.
         12    1    1    2    0    0 -0.43592110299E+01 -0.25182751011E+02 -0.31622649756E+02  0.40659139770E+02  0.00000000000E+00 0. -1.
         11    1    3    3    0    0 -0.87459169079E+01  0.66984991150E+01  0.20902893326E+02  0.23628201426E+02  0.51100000000E-03 0. -1.
        -11    1    3    3    0    0  0.28151137497E+01  0.71949934730E+01 -0.80164276690E+00  0.77675882928E+01  0.51100000000E-03 0.  1.
        -12    1    3    3    0    0  0.10290014188E+02  0.11289258423E+02  0.11521399197E+02  0.19133070511E+02  0.00000000000E+00 0.  1.
</event>
<event>
 7    1  0.2575978E-011  0.5052885E+02  0.7816164E-02  0.1300439E+00
        -11   -1    0    0    0    0  0.00000000000E+00  0.00000000000E+00  0.45593999997E+02  0.45594000000E+02  0.51100000000E-03 0.  1.
         11   -1    0    0    0    0 -0.00000000000E+00 -0.00000000000E+00 -0.45593999997E+02  0.45594000000E+02  0.51100000000E-03 0. -1.
    9900012    2    1    2    0    0 -0.27647840570E+02 -0.28734257345E+02 -0.79438952983E+01  0.50528854585E+02  0.29999983996E+02 0.  0.
         12    1    1    2    0    0  0.27647840570E+02  0.28734257345E+02  0.79438952983E+01  0.40659145415E+02  0.00000000000E+00 0. -1.
         11    1    3    3    0    0 -0.65133184689E+01 -0.42369201444E+01 -0.82347566791E+01  0.11321926851E+02  0.51100000000E-03 0. -1.
        -11    1    3    3    0    0  0.37766363569E+01  0.44919560656E-01 -0.17810590017E+01  0.41757839226E+01  0.51100000000E-03 0.  1.
        -12    1    3    3    0    0 -0.24911158458E+02 -0.24542256762E+02  0.20719203825E+01  0.35031143812E+02  0.00000000000E+00 0.  1.
</event>
<event>
 7    1  0.2575978E-011  0.5052887E+02  0.7816164E-02  0.1300439E+00
        -11   -1    0    0    0    0  0.00000000000E+00  0.00000000000E+00  0.45593999997E+02  0.45594000000E+02  0.51100000000E-03 0.  1.
         11   -1    0    0    0    0 -0.00000000000E+00 -0.00000000000E+00 -0.45593999997E+02  0.45594000000E+02  0.51100000000E-03 0. -1.
    9900012    2    1    2    0    0 -0.75495342746E+01 -0.39932314890E+02  0.12567489346E+01  0.50528872389E+02  0.30000038112E+02 0.  0.
         12    1    1    2    0    0  0.75495342746E+01  0.39932314890E+02 -0.12567489346E+01  0.40659127611E+02  0.00000000000E+00 0. -1.
         11    1    3    3    0    0 -0.20772270379E+00  0.13431226795E+01  0.73470392075E+00  0.15449651666E+01  0.51100000000E-03 0. -1.
        -11    1    3    3    0    0  0.65356364841E+01 -0.18045014119E+02  0.81780093034E+01  0.20861853111E+02  0.51100000000E-03 0.  1.
        -12    1    3    3    0    0 -0.13877448055E+02 -0.23230423450E+02 -0.76559642895E+01  0.28122054111E+02  0.00000000000E+00 0.  1.
</event>
<event>
 7    1  0.2575978E-011  0.5052886E+02  0.7816164E-02  0.1300439E+00
        -11   -1    0    0    0    0  0.00000000000E+00  0.00000000000E+00  0.45593999997E+02  0.45594000000E+02  0.51100000000E-03 0.  1.
         11   -1    0    0    0    0 -0.00000000000E+00 -0.00000000000E+00 -0.45593999997E+02  0.45594000000E+02  0.51100000000E-03 0. -1.
    9900012    2    1    2    0    0  0.31089235426E+02  0.55769361323E+01  0.25603185089E+02  0.50528857575E+02  0.29999993085E+02 0.  0.
         12    1    1    2    0    0 -0.31089235426E+02 -0.55769361323E+01 -0.25603185089E+02  0.40659142425E+02  0.00000000000E+00 0. -1.
         11    1    3    3    0    0  0.84303344548E+01 -0.68193322793E+00 -0.25772949215E+01  0.88418335950E+01  0.51100000000E-03 0. -1.
        -11    1    3    3    0    0  0.33499484434E+01 -0.64463467671E+01  0.95515824922E+01  0.12000427892E+02  0.51100000000E-03 0.  1.
        -12    1    3    3    0    0  0.19308952528E+02  0.12705216127E+02  0.18628897519E+02  0.29686596089E+02  0.00000000000E+00 0.  1.
</event>
<event>
 7    1  0.2575978E-011  0.5052886E+02  0.7816164E-02  0.1300439E+00
        -11   -1    0    0    0    0  0.00000000000E+00  0.00000000000E+00  0.45593999997E+02  0.45594000000E+02  0.51100000000E-03 0.  1.
         11   -1    0    0    0    0 -0.00000000000E+00 -0.00000000000E+00 -0.45593999997E+02  0.45594000000E+02  0.51100000000E-03 0. -1.
    9900012    2    1    2    0    0  0.83987577749E+01  0.39369987001E+02  0.57123506278E+01  0.50528856400E+02  0.29999989513E+02 0.  0.
         12    1    1    2    0    0 -0.83987577749E+01 -0.39369987001E+02 -0.57123506278E+01  0.40659143600E+02  0.00000000000E+00 0. -1.
         11    1    3    3    0    0  0.42555076560E+01  0.89350349004E+01  0.33589170160E+01  0.10451149117E+02  0.51100000000E-03 0. -1.
        -11    1    3    3    0    0  0.14317708132E+02  0.12159265281E+02 -0.13613241603E+01  0.18833419818E+02  0.51100000000E-03 0.  1.
        -12    1    3    3    0    0 -0.10174458013E+02  0.18275686820E+02  0.37147577720E+01  0.21244287465E+02  0.00000000000E+00 0.  1.
</event>
<event>
 7    1  0.2575978E-011  0.5052886E+02  0.7816164E-02  0.1300439E+00
        -11   -1    0    0    0    0  0.00000000000E+00  0.00000000000E+00  0.45593999997E+02  0.45594000000E+02  0.51100000000E-03 0. -1.
         11   -1    0    0    0    0 -0.00000000000E+00 -0.00000000000E+00 -0.45593999997E+02  0.45594000000E+02  0.51100000000E-03 0.  1.
    9900012    2    1    2    0    0  0.24157728427E+02  0.32690492194E+02  0.94942578265E+00  0.50528861643E+02  0.30000005450E+02 0.  0.
         12    1    1    2    0    0 -0.24157728427E+02 -0.32690492194E+02 -0.94942578265E+00  0.40659138357E+02  0.00000000000E+00 0. -1.
         11    1    3    3    0    0  0.42837793421E+01 -0.62268633204E+00  0.11072233520E+01  0.44681593003E+01  0.51100000000E-03 0. -1.
        -11    1    3    3    0    0 -0.25412417680E+01 -0.13300879305E+01 -0.36597627639E+01  0.46498287469E+01  0.51100000000E-03 0.  1.
        -12    1    3    3    0    0  0.22415190853E+02  0.34643266456E+02  0.35019651945E+01  0.41410873596E+02  0.00000000000E+00 0.  1.
</event>
<event>
 7    1  0.2575978E-011  0.5052887E+02  0.7816164E-02  0.1300439E+00
        -11   -1    0    0    0    0  0.00000000000E+00  0.00000000000E+00  0.45593999997E+02  0.45594000000E+02  0.51100000000E-03 0. -1.
         11   -1    0    0    0    0 -0.00000000000E+00 -0.00000000000E+00 -0.45593999997E+02  0.45594000000E+02  0.51100000000E-03 0.  1.
    9900012    2    1    2    0    0 -0.20934164194E+02  0.32035369044E+02 -0.13735392234E+02  0.50528866953E+02  0.30000021590E+02 0.  0.
         12    1    1    2    0    0  0.20934164194E+02 -0.32035369044E+02  0.13735392234E+02  0.40659133047E+02  0.00000000000E+00 0. -1.
         11    1    3    3    0    0 -0.86434186685E+01  0.26327747027E+02 -0.50179519683E+01  0.28160944445E+02  0.51100000000E-03 0. -1.
        -11    1    3    3    0    0  0.17115050747E+01  0.48586002681E+01  0.10723496165E+01  0.52616708512E+01  0.51100000000E-03 0.  1.
         12    1    3    3    0    0 -0.14002250600E+02  0.84902174950E+00 -0.97897898827E+01  0.17106251657E+02  0.00000000000E+00 0. -1.
</event>
<event>
 7    1  0.2575978E-011  0.5052885E+02  0.7816164E-02  0.1300439E+00
        -11   -1    0    0    0    0  0.00000000000E+00  0.00000000000E+00  0.45593999997E+02  0.45594000000E+02  0.51100000000E-03 0.  1.
         11   -1    0    0    0    0 -0.00000000000E+00 -0.00000000000E+00 -0.45593999997E+02  0.45594000000E+02  0.51100000000E-03 0. -1.
    9900012    2    1    2    0    0  0.17339921697E+02 -0.36620824465E+02 -0.33776779209E+01  0.50528851250E+02  0.29999973859E+02 0.  0.
         12    1    1    2    0    0 -0.17339921697E+02  0.36620824465E+02  0.33776779209E+01  0.40659148750E+02  0.00000000000E+00 0. -1.
         11    1    3    3    0    0  0.42393728974E+01 -0.16517269656E+01  0.40452470161E+01  0.60880627637E+01  0.51100000000E-03 0. -1.
        -11    1    3    3    0    0  0.51392909367E+01 -0.11414697328E+02  0.83029149777E+01  0.15021518692E+02  0.51100000000E-03 0.  1.
         12    1    3    3    0    0  0.79612578632E+01 -0.23554400171E+02 -0.15725839915E+02  0.29419269794E+02  0.00000000000E+00 0. -1.
</event>
<event>
 7    1  0.2575978E-011  0.5052886E+02  0.7816164E-02  0.1300439E+00
        -11   -1    0    0    0    0  0.00000000000E+00  0.00000000000E+00  0.45593999997E+02  0.45594000000E+02  0.51100000000E-03 0. -1.
         11   -1    0    0    0    0 -0.00000000000E+00 -0.00000000000E+00 -0.45593999997E+02  0.45594000000E+02  0.51100000000E-03 0.  1.
    9900012    2    1    2    0    0  0.17730879791E+02 -0.12260793295E+02 -0.34473965424E+02  0.50528862743E+02  0.30000008794E+02 0.  0.
         12    1    1    2    0    0 -0.17730879791E+02  0.12260793295E+02  0.34473965424E+02  0.40659137257E+02  0.00000000000E+00 0. -1.
         11    1    3    3    0    0  0.90549965778E+00 -0.66568354274E+00  0.20774216311E+01  0.23619367273E+01  0.51100000000E-03 0. -1.
        -11    1    3    3    0    0  0.64679295430E+01 -0.11883606166E+02 -0.41542137740E+01  0.14153151607E+02  0.51100000000E-03 0.  1.
        -12    1    3    3    0    0  0.10357450590E+02  0.28849641330E+00 -0.32397173281E+02  0.34013774409E+02  0.00000000000E+00 0.  1.
</event>
<event>
 7    1  0.2575978E-011  0.5052886E+02  0.7816164E-02  0.1300439E+00
        -11   -1    0    0    0    0  0.00000000000E+00  0.00000000000E+00  0.45593999997E+02  0.45594000000E+02  0.51100000000E-03 0. -1.
         11   -1    0    0    0    0 -0.00000000000E+00 -0.00000000000E+00 -0.45593999997E+02  0.45594000000E+02  0.51100000000E-03 0.  1.
    9900012    2    1    2    0    0  0.30170722226E+02  0.19911215684E+02 -0.18612810304E+02  0.50528859612E+02  0.29999999278E+02 0.  0.
         12    1    1    2    0    0 -0.30170722226E+02 -0.19911215684E+02  0.18612810304E+02  0.40659140388E+02  0.00000000000E+00 0. -1.
         11    1    3    3    0    0  0.15286212943E+02  0.50371326610E+01  0.54370816153E+01  0.16988315642E+02  0.51100000000E-03 0. -1.
        -11    1    3    3    0    0  0.18873200809E+01  0.53355580531E+01 -0.15626087683E+01  0.58712778209E+01  0.51100000000E-03 0.  1.
        -12    1    3    3    0    0  0.12997189202E+02  0.95385249696E+01 -0.22487283151E+02  0.27669266150E+02  0.00000000000E+00 0.  1.
</event>
<event>
 7    1  0.2575978E-011  0.5052885E+02  0.7816164E-02  0.1300439E+00
        -11   -1    0    0    0    0  0.00000000000E+00  0.00000000000E+00  0.45593999997E+02  0.45594000000E+02  0.51100000000E-03 0. -1.
         11   -1    0    0    0    0 -0.00000000000E+00 -0.00000000000E+00 -0.45593999997E+02  0.45594000000E+02  0.51100000000E-03 0.  1.
    9900012    2    1    2    0    0 -0.79790552126E+01  0.32759728931E+02 -0.22722255990E+02  0.50528854916E+02  0.29999985002E+02 0.  0.
         12    1    1    2    0    0  0.79790552126E+01 -0.32759728931E+02  0.22722255990E+02  0.40659145084E+02  0.00000000000E+00 0. -1.
         11    1    3    3    0    0 -0.83004783059E+01  0.44901792752E+01 -0.11957053371E+02  0.15232556437E+02  0.51100000000E-03 0.  1.
        -11    1    3    3    0    0 -0.66658479237E+01  0.45784651003E+01  0.59595889481E+00  0.81087014054E+01  0.51100000000E-03 0. -1.
        -12    1    3    3    0    0  0.69872710170E+01  0.23691084555E+02 -0.11361161513E+02  0.27187597073E+02  0.00000000000E+00 0.  1.
</event>
<event>
 7    1  0.2575978E-011  0.5052887E+02  0.7816164E-02  0.1300439E+00
        -11   -1    0    0    0    0  0.00000000000E+00  0.00000000000E+00  0.45593999997E+02  0.45594000000E+02  0.51100000000E-03 0.  1.
         11   -1    0    0    0    0 -0.00000000000E+00 -0.00000000000E+00 -0.45593999997E+02  0.45594000000E+02  0.51100000000E-03 0. -1.
    9900012    2    1    2    0    0 -0.22985024787E+02  0.27170042316E+02  0.19663217553E+02  0.50528872015E+02  0.30000036978E+02 0.  0.
         12    1    1    2    0    0  0.22985024787E+02 -0.27170042316E+02 -0.19663217553E+02  0.40659127985E+02  0.00000000000E+00 0. -1.
         11    1    3    3    0    0 -0.25025582510E-01 -0.63682911285E+00  0.11273290402E+00  0.64721446795E+00  0.51100000000E-03 0. -1.
        -11    1    3    3    0    0 -0.48920914510E+01  0.90082712912E+01  0.21414357980E+02  0.23741445583E+02  0.51100000000E-03 0.  1.
         12    1    3    3    0    0 -0.18067907754E+02  0.18798600138E+02 -0.18638733312E+01  0.26140211964E+02  0.00000000000E+00 0. -1.
</event>
<event>
 7    1  0.2575978E-011  0.5052887E+02  0.7816164E-02  0.1300439E+00
        -11   -1    0    0    0    0  0.00000000000E+00  0.00000000000E+00  0.45593999997E+02  0.45594000000E+02  0.51100000000E-03 0.  1.
         11   -1    0    0    0    0 -0.00000000000E+00 -0.00000000000E+00 -0.45593999997E+02  0.45594000000E+02  0.51100000000E-03 0. -1.
    9900012    2    1    2    0    0  0.65946440245E+01  0.31407787609E+02  0.24964505439E+02  0.50528868380E+02  0.30000025927E+02 0.  0.
         12    1    1    2    0    0 -0.65946440245E+01 -0.31407787609E+02 -0.24964505439E+02  0.40659131620E+02  0.00000000000E+00 0. -1.
         11    1    3    3    0    0  0.14747169003E+01  0.59073861756E+01 -0.42131995110E+01  0.74042590273E+01  0.51100000000E-03 0. -1.
        -11    1    3    3    0    0  0.11899182833E+02  0.17427469463E+02  0.17724298258E+02  0.27558265420E+02  0.51100000000E-03 0.  1.
         12    1    3    3    0    0 -0.67792557088E+01  0.80729319699E+01  0.11453406692E+02  0.15566343932E+02  0.00000000000E+00 0. -1.
</event>
<event>
 7    1  0.2575978E-011  0.5052886E+02  0.7816164E-02  0.1300439E+00
        -11   -1    0    0    0    0  0.00000000000E+00  0.00000000000E+00  0.45593999997E+02  0.45594000000E+02  0.51100000000E-03 0.  1.
         11   -1    0    0    0    0 -0.00000000000E+00 -0.00000000000E+00 -0.45593999997E+02  0.45594000000E+02  0.51100000000E-03 0. -1.
    9900012    2    1    2    0    0 -0.12150239110E+01 -0.10349523111E+02  0.39301104277E+02  0.50528859464E+02  0.29999998828E+02 0.  0.
         12    1    1    2    0    0  0.12150239110E+01  0.10349523111E+02 -0.39301104277E+02  0.40659140536E+02  0.00000000000E+00 0. -1.
         11    1    3    3    0    0 -0.40584345460E+01 -0.10506782235E+01 -0.24035546175E+01  0.48323794091E+01  0.51100000000E-03 0. -1.
        -11    1    3    3    0    0 -0.38288450763E+01  0.87440821145E-01  0.19308811158E+01  0.42890561502E+01  0.51100000000E-03 0.  1.
        -12    1    3    3    0    0  0.66722557113E+01 -0.93862857086E+01  0.39773777778E+02  0.41407423905E+02  0.00000000000E+00 0.  1.
</event>
<event>
 7    1  0.2575978E-011  0.5052886E+02  0.7816164E-02  0.1300439E+00
        -11   -1    0    0    0    0  0.00000000000E+00  0.00000000000E+00  0.45593999997E+02  0.45594000000E+02  0.51100000000E-03 0.  1.
         11   -1    0    0    0    0 -0.00000000000E+00 -0.00000000000E+00 -0.45593999997E+02  0.45594000000E+02  0.51100000000E-03 0. -1.
    9900012    2    1    2    0    0 -0.18670562220E+02  0.18878705234E+02  0.30792373197E+02  0.50528860166E+02  0.30000000961E+02 0.  0.
         12    1    1    2    0    0  0.18670562220E+02 -0.18878705234E+02 -0.30792373197E+02  0.40659139834E+02  0.00000000000E+00 0. -1.
         11    1    3    3    0    0 -0.13890680388E+02  0.14466681035E+02  0.78480459197E+01  0.21536659138E+02  0.51100000000E-03 0. -1.
        -11    1    3    3    0    0 -0.89544393908E+01  0.34505856875E+01  0.55659477320E+01  0.11093615317E+02  0.51100000000E-03 0.  1.
         12    1    3    3    0    0  0.41745575586E+01  0.96143851144E+00  0.17378379546E+02  0.17898585711E+02  0.00000000000E+00 0. -1.
</event>
<event>
 7    1  0.2575978E-011  0.5052888E+02  0.7816164E-02  0.1300439E+00
        -11   -1    0    0    0    0  0.00000000000E+00  0.00000000000E+00  0.45593999997E+02  0.45594000000E+02  0.51100000000E-03 0.  1.
         11   -1    0    0    0    0 -0.00000000000E+00 -0.00000000000E+00 -0.45593999997E+02  0.45594000000E+02  0.51100000000E-03 0. -1.
    9900012    2    1    2    0    0 -0.96934680151E+01  0.24870275406E+02  0.30670351229E+02  0.50528875988E+02  0.30000049053E+02 0.  0.
         12    1    1    2    0    0  0.96934680151E+01 -0.24870275406E+02 -0.30670351229E+02  0.40659124012E+02  0.00000000000E+00 0. -1.
         11    1    3    3    0    0 -0.81993367075E+01  0.73646675323E+01  0.19101076039E+02  0.22052631507E+02  0.51100000000E-03 0. -1.
        -11    1    3    3    0    0  0.32552938855E+01  0.27548685887E+01  0.12243656729E+02  0.12965082707E+02  0.51100000000E-03 0.  1.
         12    1    3    3    0    0 -0.47494251931E+01  0.14750739285E+02 -0.67438153908E+00  0.15511161774E+02  0.00000000000E+00 0. -1.
</event>
<event>
 7    1  0.2575978E-011  0.5052886E+02  0.7816164E-02  0.1300439E+00
        -11   -1    0    0    0    0  0.00000000000E+00  0.00000000000E+00  0.45593999997E+02  0.45594000000E+02  0.51100000000E-03 0.  1.
         11   -1    0    0    0    0 -0.00000000000E+00 -0.00000000000E+00 -0.45593999997E+02  0.45594000000E+02  0.51100000000E-03 0. -1.
    9900012    2    1    2    0    0  0.21439888859E+02 -0.22822429043E+02  0.25935176643E+02  0.50528862168E+02  0.30000007047E+02 0.  0.
         12    1    1    2    0    0 -0.21439888859E+02  0.22822429043E+02 -0.25935176643E+02  0.40659137832E+02  0.00000000000E+00 0. -1.
         11    1    3    3    0    0  0.96630267733E+01 -0.91332496369E+01 -0.98495932089E+00  0.13332684669E+02  0.51100000000E-03 0. -1.
        -11    1    3    3    0    0  0.11089343189E+02 -0.63149982008E+01  0.44146677915E+01  0.13503407963E+02  0.51100000000E-03 0.  1.
         12    1    3    3    0    0  0.68751889709E+00 -0.73741812048E+01  0.22505468172E+02  0.23692769537E+02  0.00000000000E+00 0. -1.
</event>
<event>
 7    1  0.2575978E-011  0.5052887E+02  0.7816164E-02  0.1300439E+00
        -11   -1    0    0    0    0  0.00000000000E+00  0.00000000000E+00  0.45593999997E+02  0.45594000000E+02  0.51100000000E-03 0. -1.
         11   -1    0    0    0    0 -0.00000000000E+00 -0.00000000000E+00 -0.45593999997E+02  0.45594000000E+02  0.51100000000E-03 0.  1.
    9900012    2    1    2    0    0 -0.36354613641E+02  0.87001024249E+01 -0.15994232503E+02  0.50528865865E+02  0.30000018284E+02 0.  0.
         12    1    1    2    0    0  0.36354613641E+02 -0.87001024249E+01  0.15994232503E+02  0.40659134135E+02  0.00000000000E+00 0. -1.
         11    1    3    3    0    0 -0.14312821400E+01  0.52860972784E+01 -0.11888189467E+01  0.56039882004E+01  0.51100000000E-03 0.  1.
        -11    1    3    3    0    0  0.12514083654E+01  0.14825943362E+00 -0.78406885483E+01  0.79413097741E+01  0.51100000000E-03 0. -1.
         12    1    3    3    0    0 -0.36174739867E+02  0.32657457129E+01 -0.69647250082E+01  0.36983567891E+02  0.00000000000E+00 0. -1.
</event>
<event>
 7    1  0.2575978E-011  0.5052886E+02  0.7816164E-02  0.1300439E+00
        -11   -1    0    0    0    0  0.00000000000E+00  0.00000000000E+00  0.45593999997E+02  0.45594000000E+02  0.51100000000E-03 0.  1.
         11   -1    0    0    0    0 -0.00000000000E+00 -0.00000000000E+00 -0.45593999997E+02  0.45594000000E+02  0.51100000000E-03 0. -1.
    9900012    2    1    2    0    0  0.38269347774E+02 -0.11844032410E+02 -0.69527851624E+01  0.50528864442E+02  0.30000013957E+02 0.  0.
         12    1    1    2    0    0 -0.38269347774E+02  0.11844032410E+02  0.69527851624E+01  0.40659135558E+02  0.00000000000E+00 0. -1.
         11    1    3    3    0    0 -0.13051897626E+01 -0.68985963477E+01  0.55669896651E+00  0.70430153972E+01  0.51100000000E-03 0. -1.
        -11    1    3    3    0    0  0.34002285923E+01 -0.29009278288E+01 -0.56527271549E+01  0.72062654195E+01  0.51100000000E-03 0.  1.
        -12    1    3    3    0    0  0.36174308945E+02 -0.20445082339E+01 -0.18567569740E+01  0.36279583625E+02  0.00000000000E+00 0.  1.
</event>
<event>
 7    1  0.2575978E-011  0.5052888E+02  0.7816164E-02  0.1300439E+00
        -11   -1    0    0    0    0  0.00000000000E+00  0.00000000000E+00  0.45593999997E+02  0.45594000000E+02  0.51100000000E-03 0.  1.
         11   -1    0    0    0    0 -0.00000000000E+00 -0.00000000000E+00 -0.45593999997E+02  0.45594000000E+02  0.51100000000E-03 0. -1.
    9900012    2    1    2    0    0 -0.82716120096E+01 -0.36040282871E+02  0.16906882644E+02  0.50528877587E+02  0.30000053912E+02 0.  0.
         12    1    1    2    0    0  0.82716120096E+01  0.36040282871E+02 -0.16906882644E+02  0.40659122413E+02  0.00000000000E+00 0. -1.
         11    1    3    3    0    0  0.41018286330E+01 -0.14824264640E+02  0.10106138036E+02  0.18404288808E+02  0.51100000000E-03 0. -1.
        -11    1    3    3    0    0 -0.26337904730E+01 -0.98662340513E+01  0.12481118978E+02  0.16126306391E+02  0.51100000000E-03 0.  1.
         12    1    3    3    0    0 -0.97396501696E+01 -0.11349784181E+02 -0.56803743707E+01  0.15998282388E+02  0.00000000000E+00 0. -1.
</event>
<event>
 7    1  0.2575978E-011  0.5052886E+02  0.7816164E-02  0.1300439E+00
        -11   -1    0    0    0    0  0.00000000000E+00  0.00000000000E+00  0.45593999997E+02  0.45594000000E+02  0.51100000000E-03 0.  1.
         11   -1    0    0    0    0 -0.00000000000E+00 -0.00000000000E+00 -0.45593999997E+02  0.45594000000E+02  0.51100000000E-03 0. -1.
    9900012    2    1    2    0    0 -0.16649661972E+02  0.32920311170E+02  0.17094067322E+02  0.50528864877E+02  0.30000015281E+02 0.  0.
         12    1    1    2    0    0  0.16649661972E+02 -0.32920311170E+02 -0.17094067322E+02  0.40659135123E+02  0.00000000000E+00 0. -1.
         11    1    3    3    0    0 -0.39046924831E+00  0.31663159166E+01 -0.55907923107E+01  0.64370009818E+01  0.51100000000E-03 0. -1.
        -11    1    3    3    0    0 -0.12611804232E+02  0.21117565889E+02  0.65879886778E+01  0.25463911525E+02  0.51100000000E-03 0.  1.
         12    1    3    3    0    0 -0.36473884918E+01  0.86364293638E+01  0.16096870955E+02  0.18627952370E+02  0.00000000000E+00 0. -1.
</event>
<event>
 7    1  0.2575978E-011  0.5052885E+02  0.7816164E-02  0.1300439E+00
        -11   -1    0    0    0    0  0.00000000000E+00  0.00000000000E+00  0.45593999997E+02  0.45594000000E+02  0.51100000000E-03 0. -1.
         11   -1    0    0    0    0 -0.00000000000E+00 -0.00000000000E+00 -0.45593999997E+02  0.45594000000E+02  0.51100000000E-03 0.  1.
    9900012    2    1    2    0    0  0.24895466656E+02  0.30063826344E+02  0.11381938225E+02  0.50528850572E+02  0.29999971798E+02 0.  0.
         12    1    1    2    0    0 -0.24895466656E+02 -0.30063826344E+02 -0.11381938225E+02  0.40659149428E+02  0.00000000000E+00 0. -1.
         11    1    3    3    0    0  0.64762963079E+01  0.15533001709E+01  0.47654289112E+01  0.81892898506E+01  0.51100000000E-03 0. -1.
        -11    1    3    3    0    0  0.11390882072E+02  0.15728840528E+02  0.15857545722E+02  0.25072103528E+02  0.51100000000E-03 0.  1.
        -12    1    3    3    0    0  0.70282882761E+01  0.12781685645E+02 -0.92410364079E+01  0.17267457193E+02  0.00000000000E+00 0.  1.
</event>
<event>
 7    1  0.2575978E-011  0.5052886E+02  0.7816164E-02  0.1300439E+00
        -11   -1    0    0    0    0  0.00000000000E+00  0.00000000000E+00  0.45593999997E+02  0.45594000000E+02  0.51100000000E-03 0.  1.
         11   -1    0    0    0    0 -0.00000000000E+00 -0.00000000000E+00 -0.45593999997E+02  0.45594000000E+02  0.51100000000E-03 0. -1.
    9900012    2    1    2    0    0  0.60158465727E+01 -0.13504497838E+02  0.37876162731E+02  0.50528861113E+02  0.30000003839E+02 0.  0.
         12    1    1    2    0    0 -0.60158465727E+01  0.13504497838E+02 -0.37876162731E+02  0.40659138887E+02  0.00000000000E+00 0. -1.
         11    1    3    3    0    0  0.49085293540E+01 -0.29713537070E+01 -0.33777012749E+01  0.66581881496E+01  0.51100000000E-03 0. -1.
        -11    1    3    3    0    0 -0.28199829939E+00 -0.73017560839E+01  0.98188572196E+01  0.12239490280E+02  0.51100000000E-03 0.  1.
        -12    1    3    3    0    0  0.13893155180E+01 -0.32313880470E+01  0.31435006786E+02  0.31631182683E+02  0.00000000000E+00 0.  1.
</event>
<event>
 7    1  0.2575978E-011  0.5052885E+02  0.7816164E-02  0.1300439E+00
        -11   -1    0    0    0    0  0.00000000000E+00  0.00000000000E+00  0.45593999997E+02  0.45594000000E+02  0.51100000000E-03 0.  1.
         11   -1    0    0    0    0 -0.00000000000E+00 -0.00000000000E+00 -0.45593999997E+02  0.45594000000E+02  0.51100000000E-03 0. -1.
    9900012    2    1    2    0    0  0.26744021985E+02 -0.29603118040E+02  0.78472281475E+01  0.50528852207E+02  0.29999976770E+02 0.  0.
         12    1    1    2    0    0 -0.26744021985E+02  0.29603118040E+02 -0.78472281475E+01  0.40659147793E+02  0.00000000000E+00 0. -1.
         11    1    3    3    0    0  0.21427891255E+02 -0.20610676143E+02  0.95437056531E+01  0.31225579459E+02  0.51100000000E-03 0.  1.
        -11    1    3    3    0    0  0.25091205746E+01 -0.89573398685E+01  0.60279973835E+01  0.11084510647E+02  0.51100000000E-03 0. -1.
         12    1    3    3    0    0  0.28070101555E+01 -0.35102028874E-01 -0.77244748891E+01  0.82187621013E+01  0.00000000000E+00 0. -1.
</event>
<event>
 7    1  0.2575978E-011  0.5052886E+02  0.7816164E-02  0.1300439E+00
        -11   -1    0    0    0    0  0.00000000000E+00  0.00000000000E+00  0.45593999997E+02  0.45594000000E+02  0.51100000000E-03 0.  1.
         11   -1    0    0    0    0 -0.00000000000E+00 -0.00000000000E+00 -0.45593999997E+02  0.45594000000E+02  0.51100000000E-03 0. -1.
    9900012    2    1    2    0    0 -0.79782411809E+00  0.43906584059E+01  0.40413503567E+02  0.50528859882E+02  0.30000000098E+02 0.  0.
         12    1    1    2    0    0  0.79782411809E+00 -0.43906584059E+01 -0.40413503567E+02  0.40659140118E+02  0.00000000000E+00 0. -1.
         11    1    3    3    0    0 -0.10888572489E+00  0.42168047442E+01 -0.13774646860E+01  0.44374212752E+01  0.51100000000E-03 0. -1.
        -11    1    3    3    0    0 -0.81469765565E+01  0.37970415289E+01  0.32113541778E+02  0.33347718321E+02  0.51100000000E-03 0.  1.
         12    1    3    3    0    0  0.74580381633E+01 -0.36231878672E+01  0.96774264744E+01  0.12743720286E+02  0.00000000000E+00 0. -1.
</event>
<event>
 7    1  0.2575978E-011  0.5052885E+02  0.7816164E-02  0.1300439E+00
        -11   -1    0    0    0    0  0.00000000000E+00  0.00000000000E+00  0.45593999997E+02  0.45594000000E+02  0.51100000000E-03 0. -1.
         11   -1    0    0    0    0 -0.00000000000E+00 -0.00000000000E+00 -0.45593999997E+02  0.45594000000E+02  0.51100000000E-03 0.  1.
    9900012    2    1    2    0    0 -0.25317925166E+02 -0.18932041900E+02 -0.25568468715E+02  0.50528854194E+02  0.29999982808E+02 0.  0.
         12    1    1    2    0    0  0.25317925166E+02  0.18932041900E+02  0.25568468715E+02  0.40659145806E+02  0.00000000000E+00 0. -1.
         11    1    3    3    0    0  0.91090339293E+00 -0.98183290103E+00  0.45148416657E+00  0.14133573683E+01  0.51100000000E-03 0. -1.
        -11    1    3    3    0    0 -0.15735264282E+02 -0.19548533879E+02 -0.50293673890E+01  0.25593715155E+02  0.51100000000E-03 0.  1.
        -12    1    3    3    0    0 -0.10493564277E+02  0.15983248794E+01 -0.20990585492E+02  0.23521781671E+02  0.00000000000E+00 0.  1.
</event>
<event>
 7    1  0.2575978E-011  0.5052888E+02  0.7816164E-02  0.1300439E+00
        -11   -1    0    0    0    0  0.00000000000E+00  0.00000000000E+00  0.45593999997E+02  0.45594000000E+02  0.51100000000E-03 0.  1.
         11   -1    0    0    0    0 -0.00000000000E+00 -0.00000000000E+00 -0.45593999997E+02  0.45594000000E+02  0.51100000000E-03 0. -1.
    9900012    2    1    2    0    0  0.93361922527E+01 -0.35461183062E+02  0.17564282474E+02  0.50528880374E+02  0.30000062385E+02 0.  0.
         12    1    1    2    0    0 -0.93361922527E+01  0.35461183062E+02 -0.17564282474E+02  0.40659119626E+02  0.00000000000E+00 0. -1.
         11    1    3    3    0    0  0.43796477645E+01 -0.11887088043E+02 -0.13671712517E+01  0.12741794778E+02  0.51100000000E-03 0. -1.
        -11    1    3    3    0    0  0.59850364747E+01 -0.18818460078E+02  0.16299413104E+01  0.19814434391E+02  0.51100000000E-03 0.  1.
        -12    1    3    3    0    0 -0.10284919866E+01 -0.47556349411E+01  0.17301512416E+02  0.17972651205E+02  0.00000000000E+00 0.  1.
</event>
<event>
 7    1  0.2575978E-011  0.5052886E+02  0.7816164E-02  0.1300439E+00
        -11   -1    0    0    0    0  0.00000000000E+00  0.00000000000E+00  0.45593999997E+02  0.45594000000E+02  0.51100000000E-03 0.  1.
         11   -1    0    0    0    0 -0.00000000000E+00 -0.00000000000E+00 -0.45593999997E+02  0.45594000000E+02  0.51100000000E-03 0. -1.
    9900012    2    1    2    0    0  0.21602372416E+02 -0.24549269521E+01  0.34358062372E+02  0.50528860679E+02  0.30000002520E+02 0.  0.
         12    1    1    2    0    0 -0.21602372416E+02  0.24549269521E+01 -0.34358062372E+02  0.40659139321E+02  0.00000000000E+00 0. -1.
         11    1    3    3    0    0  0.22860532125E+01 -0.72131890124E+01  0.73577395414E+01  0.10554262951E+02  0.51100000000E-03 0. -1.
        -11    1    3    3    0    0  0.16710367788E+02  0.78532900721E+01  0.29798594817E+02  0.35055196618E+02  0.51100000000E-03 0.  1.
         12    1    3    3    0    0  0.26059514160E+01 -0.30950280118E+01 -0.27982719864E+01  0.49194011105E+01  0.00000000000E+00 0. -1.
</event>
<event>
 7    1  0.2575978E-011  0.5052886E+02  0.7816164E-02  0.1300439E+00
        -11   -1    0    0    0    0  0.00000000000E+00  0.00000000000E+00  0.45593999997E+02  0.45594000000E+02  0.51100000000E-03 0.  1.
         11   -1    0    0    0    0 -0.00000000000E+00 -0.00000000000E+00 -0.45593999997E+02  0.45594000000E+02  0.51100000000E-03 0. -1.
    9900012    2    1    2    0    0  0.20517489395E+02 -0.76125522357E+01  0.34267295277E+02  0.50528857753E+02  0.29999993626E+02 0.  0.
         12    1    1    2    0    0 -0.20517489395E+02  0.76125522357E+01 -0.34267295277E+02  0.40659142247E+02  0.00000000000E+00 0. -1.
         11    1    3    3    0    0 -0.30034469742E+01 -0.58327200566E+01  0.13455191318E+01  0.66971440914E+01  0.51100000000E-03 0. -1.
        -11    1    3    3    0    0  0.20172648896E+02 -0.36105607292E+01  0.34146369296E+02  0.39823943157E+02  0.51100000000E-03 0.  1.
         12    1    3    3    0    0  0.33482874737E+01  0.18307285501E+01 -0.12245931504E+01  0.40077705043E+01  0.00000000000E+00 0. -1.
</event>
<event>
 7    1  0.2575978E-011  0.5052886E+02  0.7816164E-02  0.1300439E+00
        -11   -1    0    0    0    0  0.00000000000E+00  0.00000000000E+00  0.45593999997E+02  0.45594000000E+02  0.51100000000E-03 0. -1.
         11   -1    0    0    0    0 -0.00000000000E+00 -0.00000000000E+00 -0.45593999997E+02  0.45594000000E+02  0.51100000000E-03 0.  1.
    9900012    2    1    2    0    0 -0.13265865192E+02  0.32085515387E+02 -0.21158975898E+02  0.50528859109E+02  0.29999997747E+02 0.  0.
         12    1    1    2    0    0  0.13265865192E+02 -0.32085515387E+02  0.21158975898E+02  0.40659140891E+02  0.00000000000E+00 0. -1.
         11    1    3    3    0    0 -0.13583364234E+02  0.15165850425E+02 -0.20616155881E+02  0.28974759474E+02  0.51100000000E-03 0. -1.
        -11    1    3    3    0    0 -0.63999972208E+01  0.95878238509E+01  0.60917441019E+00  0.11543717960E+02  0.51100000000E-03 0.  1.
         12    1    3    3    0    0  0.67174962619E+01  0.73318411117E+01 -0.11519944272E+01  0.10010381675E+02  0.00000000000E+00 0. -1.
</event>
<event>
 7    1  0.2575978E-011  0.5052884E+02  0.7816164E-02  0.1300439E+00
        -11   -1    0    0    0    0  0.00000000000E+00  0.00000000000E+00  0.45593999997E+02  0.45594000000E+02  0.51100000000E-03 0.  1.
         11   -1    0    0    0    0 -0.00000000000E+00 -0.00000000000E+00 -0.45593999997E+02  0.45594000000E+02  0.51100000000E-03 0. -1.
    9900012    2    1    2    0    0 -0.98560327577E+01  0.38688643460E+02  0.76951213080E+01  0.50528838592E+02  0.29999935384E+02 0.  0.
         12    1    1    2    0    0  0.98560327577E+01 -0.38688643460E+02 -0.76951213080E+01  0.40659161408E+02  0.00000000000E+00 0. -1.
         11    1    3    3    0    0 -0.54791442317E+01  0.85104857798E+01  0.22324059009E+01  0.10364990405E+02  0.51100000000E-03 0. -1.
        -11    1    3    3    0    0 -0.14237773642E+02  0.20220355466E+02 -0.95860228285E+00  0.24748654348E+02  0.51100000000E-03 0.  1.
         12    1    3    3    0    0  0.98608851164E+01  0.99578022141E+01  0.64213176900E+01  0.15415193839E+02  0.00000000000E+00 0. -1.
</event>
<event>
 7    1  0.2575978E-011  0.5052885E+02  0.7816164E-02  0.1300439E+00
        -11   -1    0    0    0    0  0.00000000000E+00  0.00000000000E+00  0.45593999997E+02  0.45594000000E+02  0.51100000000E-03 0.  1.
         11   -1    0    0    0    0 -0.00000000000E+00 -0.00000000000E+00 -0.45593999997E+02  0.45594000000E+02  0.51100000000E-03 0. -1.
    9900012    2    1    2    0    0 -0.53562740306E+01  0.21076729855E+02  0.34354737880E+02  0.50528853088E+02  0.29999979445E+02 0.  0.
         12    1    1    2    0    0  0.53562740306E+01 -0.21076729855E+02 -0.34354737880E+02  0.40659146912E+02  0.00000000000E+00 0. -1.
         11    1    3    3    0    0 -0.95664125577E+01  0.83032399005E+00  0.12819839022E+02  0.16017301894E+02  0.51100000000E-03 0. -1.
        -11    1    3    3    0    0 -0.12244682313E+01  0.13672152020E+02  0.22041945735E+02  0.25966794861E+02  0.51100000000E-03 0.  1.
         12    1    3    3    0    0  0.54346067585E+01  0.65742538454E+01 -0.50704687799E+00  0.85447563324E+01  0.00000000000E+00 0. -1.
</event>
<event>
 7    1  0.2575978E-011  0.5052885E+02  0.7816164E-02  0.1300439E+00
        -11   -1    0    0    0    0  0.00000000000E+00  0.00000000000E+00  0.45593999997E+02  0.45594000000E+02  0.51100000000E-03 0.  1.
         11   -1    0    0    0    0 -0.00000000000E+00 -0.00000000000E+00 -0.45593999997E+02  0.45594000000E+02  0.51100000000E-03 0. -1.
    9900012    2    1    2    0    0  0.23855040505E+02  0.30109721604E+02  0.13323210271E+02  0.50528853127E+02  0.29999979564E+02 0.  0.
         12    1    1    2    0    0 -0.23855040505E+02 -0.30109721604E+02 -0.13323210271E+02  0.40659146873E+02  0.00000000000E+00 0. -1.
         11    1    3    3    0    0  0.16494110032E+02  0.19210426049E+02  0.41471527268E+01  0.25657260391E+02  0.51100000000E-03 0. -1.
        -11    1    3    3    0    0  0.12747346411E+02  0.10720317769E+02  0.99883886037E+01  0.19421327471E+02  0.51100000000E-03 0.  1.
         12    1    3    3    0    0 -0.53864159382E+01  0.17897778545E+00 -0.81233105911E+00  0.54502652648E+01  0.00000000000E+00 0. -1.
</event>
<event>
 7    1  0.2575978E-011  0.5052886E+02  0.7816164E-02  0.1300439E+00
        -11   -1    0    0    0    0  0.00000000000E+00  0.00000000000E+00  0.45593999997E+02  0.45594000000E+02  0.51100000000E-03 0.  1.
         11   -1    0    0    0    0 -0.00000000000E+00 -0.00000000000E+00 -0.45593999997E+02  0.45594000000E+02  0.51100000000E-03 0. -1.
    9900012    2    1    2    0    0  0.30713185454E+02  0.83609166208E+01  0.25297453685E+02  0.50528857726E+02  0.29999993545E+02 0.  0.
         12    1    1    2    0    0 -0.30713185454E+02 -0.83609166208E+01 -0.25297453685E+02  0.40659142274E+02  0.00000000000E+00 0. -1.
         11    1    3    3    0    0  0.12173468073E+02  0.12082774744E+02  0.54965817510E+01  0.18011084966E+02  0.51100000000E-03 0.  1.
        -11    1    3    3    0    0  0.62213335102E+01  0.82270378381E+00 -0.24050012677E+01  0.67205552985E+01  0.51100000000E-03 0. -1.
         12    1    3    3    0    0  0.12318383871E+02 -0.45445619069E+01  0.22205873202E+02  0.25797217462E+02  0.00000000000E+00 0. -1.
</event>
<event>
 7    1  0.2575978E-011  0.5052888E+02  0.7816164E-02  0.1300439E+00
        -11   -1    0    0    0    0  0.00000000000E+00  0.00000000000E+00  0.45593999997E+02  0.45594000000E+02  0.51100000000E-03 0.  1.
         11   -1    0    0    0    0 -0.00000000000E+00 -0.00000000000E+00 -0.45593999997E+02  0.45594000000E+02  0.51100000000E-03 0. -1.
    9900012    2    1    2    0    0  0.32866556365E+01  0.17414485857E+02  0.36593679536E+02  0.50528882881E+02  0.30000070004E+02 0.  0.
         12    1    1    2    0    0 -0.32866556365E+01 -0.17414485857E+02 -0.36593679536E+02  0.40659117119E+02  0.00000000000E+00 0. -1.
         11    1    3    3    0    0 -0.26880940521E+01 -0.65084725963E+00 -0.25799681556E+01  0.37822860459E+01  0.51100000000E-03 0. -1.
        -11    1    3    3    0    0 -0.57743977779E+01  0.34239095578E+01  0.94727488003E+01  0.11610331453E+02  0.51100000000E-03 0.  1.
         12    1    3    3    0    0  0.11749147467E+02  0.14641423559E+02  0.29700898891E+02  0.35136265382E+02  0.00000000000E+00 0. -1.
</event>
<event>
 7    1  0.2575978E-011  0.5052887E+02  0.7816164E-02  0.1300439E+00
        -11   -1    0    0    0    0  0.00000000000E+00  0.00000000000E+00  0.45593999997E+02  0.45594000000E+02  0.51100000000E-03 0. -1.
         11   -1    0    0    0    0 -0.00000000000E+00 -0.00000000000E+00 -0.45593999997E+02  0.45594000000E+02  0.51100000000E-03 0.  1.
    9900012    2    1    2    0    0 -0.18706850635E+02  0.10168881177E+02 -0.34638311522E+02  0.50528867814E+02  0.30000024207E+02 0.  0.
         12    1    1    2    0    0  0.18706850635E+02 -0.10168881177E+02  0.34638311522E+02  0.40659132186E+02  0.00000000000E+00 0. -1.
         11    1    3    3    0    0  0.22013605378E+00  0.31506074897E+01 -0.81508004654E+01  0.87413005854E+01  0.51100000000E-03 0.  1.
        -11    1    3    3    0    0 -0.18907052429E+02  0.46823822645E+01 -0.31054605261E+02  0.36657739202E+02  0.51100000000E-03 0. -1.
         12    1    3    3    0    0 -0.19934260216E-01  0.23358914223E+01  0.45670942045E+01  0.51298280268E+01  0.00000000000E+00 0. -1.
</event>
<event>
 7    1  0.2893367E-011  0.5052886E+02  0.7816164E-02  0.1300439E+00
        -11   -1    0    0    0    0  0.00000000000E+00  0.00000000000E+00  0.45593999997E+02  0.45594000000E+02  0.51100000000E-03 0.  1.
         11   -1    0    0    0    0 -0.00000000000E+00 -0.00000000000E+00 -0.45593999997E+02  0.45594000000E+02  0.51100000000E-03 0. -1.
    9900012    2    1    2    0    0  0.39843687426E+02 -0.57700310085E+01  0.56879667889E+01  0.50528860169E+02  0.30000000971E+02 0.  0.
         12    1    1    2    0    0 -0.39843687426E+02  0.57700310085E+01 -0.56879667889E+01  0.40659139831E+02  0.00000000000E+00 0. -1.
         11    1    3    3    0    0  0.11646715189E+01 -0.11908790236E+01 -0.45708436232E+01  0.48649012616E+01  0.51100000000E-03 0. -1.
        -11    1    3    3    0    0  0.68747471058E+01  0.74135450669E+01 -0.16311466278E+00  0.10111844781E+02  0.51100000000E-03 0.  1.
        -12    1    3    3    0    0  0.31804268802E+02 -0.11992697052E+02  0.10421925075E+02  0.35552114126E+02  0.00000000000E+00 0.  1.
</event>
<event>
 7    1  0.2575978E-011  0.5052886E+02  0.7816164E-02  0.1300439E+00
        -11   -1    0    0    0    0  0.00000000000E+00  0.00000000000E+00  0.45593999997E+02  0.45594000000E+02  0.51100000000E-03 0.  1.
         11   -1    0    0    0    0 -0.00000000000E+00 -0.00000000000E+00 -0.45593999997E+02  0.45594000000E+02  0.51100000000E-03 0. -1.
    9900012    2    1    2    0    0  0.94671730444E+01 -0.36528115009E+02  0.15140514872E+02  0.50528859057E+02  0.29999997591E+02 0.  0.
         12    1    1    2    0    0 -0.94671730444E+01  0.36528115009E+02 -0.15140514872E+02  0.40659140943E+02  0.00000000000E+00 0. -1.
         11    1    3    3    0    0  0.55604706540E+01 -0.87669977560E+01 -0.20923362248E+01  0.10590418060E+02  0.51100000000E-03 0. -1.
        -11    1    3    3    0    0  0.27122254405E+01 -0.24914776331E+02  0.28447042116E+01  0.25222898105E+02  0.51100000000E-03 0.  1.
        -12    1    3    3    0    0  0.11944769499E+01 -0.28463409220E+01  0.14388146886E+02  0.14715542893E+02  0.00000000000E+00 0.  1.
</event>
<event>
 7    1  0.2575978E-011  0.5052886E+02  0.7816164E-02  0.1300439E+00
        -11   -1    0    0    0    0  0.00000000000E+00  0.00000000000E+00  0.45593999997E+02  0.45594000000E+02  0.51100000000E-03 0.  1.
         11   -1    0    0    0    0 -0.00000000000E+00 -0.00000000000E+00 -0.45593999997E+02  0.45594000000E+02  0.51100000000E-03 0. -1.
    9900012    2    1    2    0    0  0.26464122198E+02  0.30750208299E+02 -0.26908270505E+01  0.50528860506E+02  0.30000001995E+02 0.  0.
         12    1    1    2    0    0 -0.26464122198E+02 -0.30750208299E+02  0.26908270505E+01  0.40659139494E+02  0.00000000000E+00 0. -1.
         11    1    3    3    0    0  0.71572359902E+01 -0.20202234758E+01 -0.26685130179E+01  0.79011576304E+01  0.51100000000E-03 0. -1.
        -11    1    3    3    0    0  0.15366055951E+02  0.17318424786E+02  0.83556569397E+01  0.24614234006E+02  0.51100000000E-03 0.  1.
        -12    1    3    3    0    0  0.39408302567E+01  0.15452006989E+02 -0.83779709723E+01  0.18013468870E+02  0.00000000000E+00 0.  1.
</event>
<event>
 7    1  0.2575978E-011  0.5052886E+02  0.7816164E-02  0.1300439E+00
        -11   -1    0    0    0    0  0.00000000000E+00  0.00000000000E+00  0.45593999997E+02  0.45594000000E+02  0.51100000000E-03 0. -1.
         11   -1    0    0    0    0 -0.00000000000E+00 -0.00000000000E+00 -0.45593999997E+02  0.45594000000E+02  0.51100000000E-03 0.  1.
    9900012    2    1    2    0    0  0.86801668005E+01 -0.31381599427E+02 -0.24351909203E+02  0.50528861296E+02  0.30000004396E+02 0.  0.
         12    1    1    2    0    0 -0.86801668005E+01  0.31381599427E+02  0.24351909203E+02  0.40659138704E+02  0.00000000000E+00 0. -1.
         11    1    3    3    0    0 -0.19712574253E+01  0.44542709286E+00  0.34441407047E+01  0.39932901957E+01  0.51100000000E-03 0. -1.
        -11    1    3    3    0    0  0.55071768258E+01 -0.56741414269E+01  0.16075497136E+00  0.79089013109E+01  0.51100000000E-03 0.  1.
        -12    1    3    3    0    0  0.51442473999E+01 -0.26152885093E+02 -0.27956804879E+02  0.38626669790E+02  0.00000000000E+00 0.  1.
</event>
<event>
 7    1  0.2575978E-011  0.5052887E+02  0.7816164E-02  0.1300439E+00
        -11   -1    0    0    0    0  0.00000000000E+00  0.00000000000E+00  0.45593999997E+02  0.45594000000E+02  0.51100000000E-03 0.  1.
         11   -1    0    0    0    0 -0.00000000000E+00 -0.00000000000E+00 -0.45593999997E+02  0.45594000000E+02  0.51100000000E-03 0. -1.
    9900012    2    1    2    0    0  0.33535298318E+02  0.21973058011E+02 -0.67626275994E+01  0.50528872566E+02  0.30000038653E+02 0.  0.
         12    1    1    2    0    0 -0.33535298318E+02 -0.21973058011E+02  0.67626275994E+01  0.40659127434E+02  0.00000000000E+00 0. -1.
         11    1    3    3    0    0  0.12253510394E+02  0.11046775652E+02 -0.14731801886E+02  0.22117996210E+02  0.51100000000E-03 0. -1.
        -11    1    3    3    0    0  0.58644540857E+01  0.99849332449E+01  0.15458749395E+01  0.11682484463E+02  0.51100000000E-03 0.  1.
        -12    1    3    3    0    0  0.15417333838E+02  0.94134911343E+00  0.64232993475E+01  0.16728391893E+02  0.00000000000E+00 0.  1.
</event>
<event>
 7    1  0.2575978E-011  0.5052886E+02  0.7816164E-02  0.1300439E+00
        -11   -1    0    0    0    0  0.00000000000E+00  0.00000000000E+00  0.45593999997E+02  0.45594000000E+02  0.51100000000E-03 0. -1.
         11   -1    0    0    0    0 -0.00000000000E+00 -0.00000000000E+00 -0.45593999997E+02  0.45594000000E+02  0.51100000000E-03 0.  1.
    9900012    2    1    2    0    0 -0.30557710894E+02 -0.25317462241E+02 -0.88553803589E+01  0.50528863872E+02  0.30000012224E+02 0.  0.
         12    1    1    2    0    0  0.30557710894E+02  0.25317462241E+02  0.88553803589E+01  0.40659136128E+02  0.00000000000E+00 0. -1.
         11    1    3    3    0    0 -0.45906900579E+01 -0.69544796129E+01  0.34779934209E+01  0.90297098730E+01  0.51100000000E-03 0. -1.
        -11    1    3    3    0    0 -0.17438966885E+01  0.40494141622E+00  0.56788204739E+01  0.59543392115E+01  0.51100000000E-03 0.  1.
        -12    1    3    3    0    0 -0.24223124148E+02 -0.18767924044E+02 -0.18012194254E+02  0.35544814787E+02  0.00000000000E+00 0.  1.
</event>
<event>
 7    1  0.2575978E-011  0.5052890E+02  0.7816164E-02  0.1300439E+00
        -11   -1    0    0    0    0  0.00000000000E+00  0.00000000000E+00  0.45593999997E+02  0.45594000000E+02  0.51100000000E-03 0.  1.
         11   -1    0    0    0    0 -0.00000000000E+00 -0.00000000000E+00 -0.45593999997E+02  0.45594000000E+02  0.51100000000E-03 0. -1.
    9900012    2    1    2    0    0  0.10378153576E+02 -0.30018234354E+02  0.25384287458E+02  0.50528898742E+02  0.30000118216E+02 0.  0.
         12    1    1    2    0    0 -0.10378153576E+02  0.30018234354E+02 -0.25384287458E+02  0.40659101258E+02  0.00000000000E+00 0. -1.
         11    1    3    3    0    0 -0.63985047528E+01 -0.56676550314E+01  0.77233395743E+01  0.11520119403E+02  0.51100000000E-03 0. -1.
        -11    1    3    3    0    0 -0.21801447399E+01  0.10878737486E+01  0.35053202965E+01  0.42689308992E+01  0.51100000000E-03 0.  1.
        -12    1    3    3    0    0  0.18956803069E+02 -0.25438453071E+02  0.14155627587E+02  0.34739848440E+02  0.00000000000E+00 0.  1.
</event>
<event>
 7    1  0.2575978E-011  0.5052885E+02  0.7816164E-02  0.1300439E+00
        -11   -1    0    0    0    0  0.00000000000E+00  0.00000000000E+00  0.45593999997E+02  0.45594000000E+02  0.51100000000E-03 0.  1.
         11   -1    0    0    0    0 -0.00000000000E+00 -0.00000000000E+00 -0.45593999997E+02  0.45594000000E+02  0.51100000000E-03 0. -1.
    9900012    2    1    2    0    0  0.19526273285E+02  0.34847575714E+02 -0.75853416973E+01  0.50528852318E+02  0.29999977106E+02 0.  0.
         12    1    1    2    0    0 -0.19526273285E+02 -0.34847575714E+02  0.75853416973E+01  0.40659147682E+02  0.00000000000E+00 0. -1.
         11    1    3    3    0    0  0.11767183487E+02  0.18446774854E+02  0.21747274942E+01  0.21988168402E+02  0.51100000000E-03 0. -1.
        -11    1    3    3    0    0  0.71159609184E+01  0.10304552451E+02  0.42692721645E+01  0.13230547460E+02  0.51100000000E-03 0.  1.
         12    1    3    3    0    0  0.64312887940E+00  0.60962484090E+01 -0.14029341356E+02  0.15310136456E+02  0.00000000000E+00 0. -1.
</event>
<event>
 7    1  0.2575978E-011  0.5052886E+02  0.7816164E-02  0.1300439E+00
        -11   -1    0    0    0    0  0.00000000000E+00  0.00000000000E+00  0.45593999997E+02  0.45594000000E+02  0.51100000000E-03 0.  1.
         11   -1    0    0    0    0 -0.00000000000E+00 -0.00000000000E+00 -0.45593999997E+02  0.45594000000E+02  0.51100000000E-03 0. -1.
    9900012    2    1    2    0    0 -0.18790091761E+02 -0.65579285842E+01  0.35455486865E+02  0.50528861734E+02  0.30000005727E+02 0.  0.
         12    1    1    2    0    0  0.18790091761E+02  0.65579285842E+01 -0.35455486865E+02  0.40659138266E+02  0.00000000000E+00 0. -1.
         11    1    3    3    0    0 -0.11073609095E+02 -0.15740310413E+01  0.87662095351E+01  0.14210869853E+02  0.51100000000E-03 0. -1.
        -11    1    3    3    0    0 -0.10768622395E+02  0.65642682844E+01  0.15116085129E+02  0.19686261105E+02  0.51100000000E-03 0.  1.
         12    1    3    3    0    0  0.30521397288E+01 -0.11548165827E+02  0.11573192201E+02  0.16631730776E+02  0.00000000000E+00 0. -1.
</event>
<event>
 7    1  0.2575978E-011  0.5052886E+02  0.7816164E-02  0.1300439E+00
        -11   -1    0    0    0    0  0.00000000000E+00  0.00000000000E+00  0.45593999997E+02  0.45594000000E+02  0.51100000000E-03 0.  1.
         11   -1    0    0    0    0 -0.00000000000E+00 -0.00000000000E+00 -0.45593999997E+02  0.45594000000E+02  0.51100000000E-03 0. -1.
    9900012    2    1    2    0    0  0.23133269094E+02 -0.32785613442E+02  0.65666783806E+01  0.50528857698E+02  0.29999993460E+02 0.  0.
         12    1    1    2    0    0 -0.23133269094E+02  0.32785613442E+02 -0.65666783806E+01  0.40659142302E+02  0.00000000000E+00 0. -1.
         11    1    3    3    0    0 -0.71254941387E+00 -0.23691642598E+01  0.50901045856E+00  0.25258182565E+01  0.51100000000E-03 0. -1.
        -11    1    3    3    0    0  0.10343365157E+02 -0.79534225096E+01 -0.10717711648E+02  0.16885244316E+02  0.51100000000E-03 0.  1.
        -12    1    3    3    0    0  0.13502453352E+02 -0.22463026672E+02  0.16775379570E+02  0.31117795126E+02  0.00000000000E+00 0.  1.
</event>
<event>
 7    1  0.2575978E-011  0.5052885E+02  0.7816164E-02  0.1300439E+00
        -11   -1    0    0    0    0  0.00000000000E+00  0.00000000000E+00  0.45593999997E+02  0.45594000000E+02  0.51100000000E-03 0. -1.
         11   -1    0    0    0    0 -0.00000000000E+00 -0.00000000000E+00 -0.45593999997E+02  0.45594000000E+02  0.51100000000E-03 0.  1.
    9900012    2    1    2    0    0  0.39065699832E+02 -0.22403129936E+00 -0.11268864256E+02  0.50528851030E+02  0.29999973190E+02 0.  0.
         12    1    1    2    0    0 -0.39065699832E+02  0.22403129936E+00  0.11268864256E+02  0.40659148970E+02  0.00000000000E+00 0. -1.
         11    1    3    3    0    0  0.66350684801E+01  0.28398374092E+01  0.81097944749E+01  0.10856222959E+02  0.51100000000E-03 0. -1.
        -11    1    3    3    0    0  0.38025837412E+01 -0.21107573276E+01  0.10697030485E+01  0.44787503255E+01  0.51100000000E-03 0.  1.
        -12    1    3    3    0    0  0.28628047611E+02 -0.95311138089E+00 -0.20448361779E+02  0.35193877745E+02  0.00000000000E+00 0.  1.
</event>
<event>
 7    1  0.2575978E-011  0.5052890E+02  0.7816164E-02  0.1300439E+00
        -11   -1    0    0    0    0  0.00000000000E+00  0.00000000000E+00  0.45593999997E+02  0.45594000000E+02  0.51100000000E-03 0.  1.
         11   -1    0    0    0    0 -0.00000000000E+00 -0.00000000000E+00 -0.45593999997E+02  0.45594000000E+02  0.51100000000E-03 0. -1.
    9900012    2    1    2    0    0  0.56691531825E+01 -0.25431726439E+02  0.31212988787E+02  0.50528896758E+02  0.30000112185E+02 0.  0.
         12    1    1    2    0    0 -0.56691531825E+01  0.25431726439E+02 -0.31212988787E+02  0.40659103242E+02  0.00000000000E+00 0. -1.
         11    1    3    3    0    0 -0.16105765890E+01 -0.36676639567E+01  0.82065943872E+01  0.91320264753E+01  0.51100000000E-03 0. -1.
        -11    1    3    3    0    0 -0.96657242807E+01 -0.71170276775E+01  0.74745132662E+01  0.14140249561E+02  0.51100000000E-03 0.  1.
         12    1    3    3    0    0  0.16945454052E+02 -0.14647034804E+02  0.15531881133E+02  0.27256620721E+02  0.00000000000E+00 0. -1.
</event>
<event>
 7    1  0.2575978E-011  0.5052886E+02  0.7816164E-02  0.1300439E+00
        -11   -1    0    0    0    0  0.00000000000E+00  0.00000000000E+00  0.45593999997E+02  0.45594000000E+02  0.51100000000E-03 0.  1.
         11   -1    0    0    0    0 -0.00000000000E+00 -0.00000000000E+00 -0.45593999997E+02  0.45594000000E+02  0.51100000000E-03 0. -1.
    9900012    2    1    2    0    0 -0.28962158871E+02  0.10718945768E+02  0.26447365759E+02  0.50528860801E+02  0.30000002891E+02 0.  0.
         12    1    1    2    0    0  0.28962158871E+02 -0.10718945768E+02 -0.26447365759E+02  0.40659139199E+02  0.00000000000E+00 0. -1.
         11    1    3    3    0    0 -0.22523791992E+02  0.33820894460E+01  0.12916568731E+02  0.26183916490E+02  0.51100000000E-03 0. -1.
        -11    1    3    3    0    0 -0.65290056766E+01  0.28695608141E+01 -0.26120913009E+01  0.75950849643E+01  0.51100000000E-03 0.  1.
        -12    1    3    3    0    0  0.90638797711E-01  0.44672955080E+01  0.16142888328E+02  0.16749859346E+02  0.00000000000E+00 0.  1.
</event>
<event>
 7    1  0.2575978E-011  0.5052886E+02  0.7816164E-02  0.1300439E+00
        -11   -1    0    0    0    0  0.00000000000E+00  0.00000000000E+00  0.45593999997E+02  0.45594000000E+02  0.51100000000E-03 0. -1.
         11   -1    0    0    0    0 -0.00000000000E+00 -0.00000000000E+00 -0.45593999997E+02  0.45594000000E+02  0.51100000000E-03 0.  1.
    9900012    2    1    2    0    0  0.46302957669E+01  0.24085631300E+02 -0.32428517370E+02  0.50528855729E+02  0.29999987474E+02 0.  0.
         12    1    1    2    0    0 -0.46302957669E+01 -0.24085631300E+02  0.32428517370E+02  0.40659144271E+02  0.00000000000E+00 0. -1.
         11    1    3    3    0    0 -0.45197901132E+01  0.19933814365E+02 -0.18104857945E+02  0.27305152248E+02  0.51100000000E-03 0.  1.
        -11    1    3    3    0    0  0.20402586155E+01  0.92632123414E+01 -0.82011336962E+01  0.12539073023E+02  0.51100000000E-03 0. -1.
         12    1    3    3    0    0  0.71098272646E+01 -0.51113954069E+01 -0.61225257290E+01  0.10684630459E+02  0.00000000000E+00 0. -1.
</event>
<event>
 7    1  0.2575978E-011  0.5052900E+02  0.7816164E-02  0.1300438E+00
        -11   -1    0    0    0    0  0.00000000000E+00  0.00000000000E+00  0.45593999997E+02  0.45594000000E+02  0.51100000000E-03 0.  1.
         11   -1    0    0    0    0 -0.00000000000E+00 -0.00000000000E+00 -0.45593999997E+02  0.45594000000E+02  0.51100000000E-03 0. -1.
    9900012    2    1    2    0    0 -0.23524868874E+02  0.21517696246E+02  0.25233384595E+02  0.50528998470E+02  0.30000421347E+02 0.  0.
         12    1    1    2    0    0  0.23524868874E+02 -0.21517696246E+02 -0.25233384595E+02  0.40659001530E+02  0.00000000000E+00 0. -1.
         11    1    3    3    0    0 -0.72473907775E+01  0.66946834335E+01 -0.30167079324E+01  0.10317169494E+02  0.51100000000E-03 0. -1.
        -11    1    3    3    0    0  0.21800285659E+01  0.88208931541E+01  0.73242552248E+01  0.11670706724E+02  0.51100000000E-03 0.  1.
         12    1    3    3    0    0 -0.18457506663E+02  0.60021196583E+01  0.20925837302E+02  0.28541122252E+02  0.00000000000E+00 0. -1.
</event>
<event>
 7    1  0.2575978E-011  0.5052886E+02  0.7816164E-02  0.1300439E+00
        -11   -1    0    0    0    0  0.00000000000E+00  0.00000000000E+00  0.45593999997E+02  0.45594000000E+02  0.51100000000E-03 0.  1.
         11   -1    0    0    0    0 -0.00000000000E+00 -0.00000000000E+00 -0.45593999997E+02  0.45594000000E+02  0.51100000000E-03 0. -1.
    9900012    2    1    2    0    0  0.29008910041E+02 -0.52645712473E+01  0.27998808457E+02  0.50528857766E+02  0.29999993667E+02 0.  0.
         12    1    1    2    0    0 -0.29008910041E+02  0.52645712473E+01 -0.27998808457E+02  0.40659142234E+02  0.00000000000E+00 0. -1.
         11    1    3    3    0    0  0.45828950186E+01 -0.57513645153E+01 -0.33673895665E+01  0.80882898868E+01  0.51100000000E-03 0. -1.
        -11    1    3    3    0    0  0.23263814600E+01 -0.25747390100E+01 -0.53570305068E+00  0.35111692763E+01  0.51100000000E-03 0.  1.
        -12    1    3    3    0    0  0.22099633562E+02  0.30615322780E+01  0.31901901074E+02  0.38929398603E+02  0.00000000000E+00 0.  1.
</event>
<event>
 7    1  0.2575978E-011  0.5052887E+02  0.7816164E-02  0.1300439E+00
        -11   -1    0    0    0    0  0.00000000000E+00  0.00000000000E+00  0.45593999997E+02  0.45594000000E+02  0.51100000000E-03 0.  1.
         11   -1    0    0    0    0 -0.00000000000E+00 -0.00000000000E+00 -0.45593999997E+02  0.45594000000E+02  0.51100000000E-03 0. -1.
    9900012    2    1    2    0    0 -0.23262524457E+02  0.38212476520E+01  0.33127297383E+02  0.50528870526E+02  0.30000032451E+02 0.  0.
         12    1    1    2    0    0  0.23262524457E+02 -0.38212476520E+01 -0.33127297383E+02  0.40659129474E+02  0.00000000000E+00 0. -1.
         11    1    3    3    0    0 -0.39940379817E+01 -0.75253548286E+01  0.13574010227E+02  0.16026136733E+02  0.51100000000E-03 0. -1.
        -11    1    3    3    0    0 -0.58814419991E+01 -0.46312607061E+01  0.39444582916E+01  0.84616007464E+01  0.51100000000E-03 0.  1.
         12    1    3    3    0    0 -0.13387044476E+02  0.15977863187E+02  0.15608828864E+02  0.26041133046E+02  0.00000000000E+00 0. -1.
</event>
<event>
 7    1  0.2575978E-011  0.5052886E+02  0.7816164E-02  0.1300439E+00
        -11   -1    0    0    0    0  0.00000000000E+00  0.00000000000E+00  0.45593999997E+02  0.45594000000E+02  0.51100000000E-03 0.  1.
         11   -1    0    0    0    0 -0.00000000000E+00 -0.00000000000E+00 -0.45593999997E+02  0.45594000000E+02  0.51100000000E-03 0. -1.
    9900012    2    1    2    0    0 -0.29244720169E+02  0.23796336650E+02  0.15219945069E+02  0.50528855596E+02  0.29999987070E+02 0.  0.
         12    1    1    2    0    0  0.29244720169E+02 -0.23796336650E+02 -0.15219945069E+02  0.40659144404E+02  0.00000000000E+00 0. -1.
         11    1    3    3    0    0 -0.14311188822E+01  0.30030787095E+01  0.42633241325E+01  0.54076349646E+01  0.51100000000E-03 0. -1.
        -11    1    3    3    0    0  0.37546485397E+01  0.91365952171E+01  0.45047389502E+01  0.10856676798E+02  0.51100000000E-03 0.  1.
         12    1    3    3    0    0 -0.31568249827E+02  0.11656662724E+02  0.64518819865E+01  0.34264543834E+02  0.00000000000E+00 0. -1.
</event>
<event>
 7    1  0.2575978E-011  0.5052886E+02  0.7816164E-02  0.1300439E+00
        -11   -1    0    0    0    0  0.00000000000E+00  0.00000000000E+00  0.45593999997E+02  0.45594000000E+02  0.51100000000E-03 0. -1.
         11   -1    0    0    0    0 -0.00000000000E+00 -0.00000000000E+00 -0.45593999997E+02  0.45594000000E+02  0.51100000000E-03 0.  1.
    9900012    2    1    2    0    0  0.22798327391E+02  0.16652292436E+02 -0.29259240255E+02  0.50528859386E+02  0.29999998588E+02 0.  0.
         12    1    1    2    0    0 -0.22798327391E+02 -0.16652292436E+02  0.29259240255E+02  0.40659140614E+02  0.00000000000E+00 0. -1.
         11    1    3    3    0    0  0.13037756925E+02  0.37988601084E+01 -0.14308508272E+02  0.19726830789E+02  0.51100000000E-03 0. -1.
        -11    1    3    3    0    0  0.69596126705E+01  0.84940926352E+01 -0.20471337913E+02  0.23230615455E+02  0.51100000000E-03 0.  1.
        -12    1    3    3    0    0  0.28009577959E+01  0.43593396920E+01  0.55206059297E+01  0.75714131412E+01  0.00000000000E+00 0.  1.
</event>
<event>
 7    1  0.2575978E-011  0.5052886E+02  0.7816164E-02  0.1300439E+00
        -11   -1    0    0    0    0  0.00000000000E+00  0.00000000000E+00  0.45593999997E+02  0.45594000000E+02  0.51100000000E-03 0.  1.
         11   -1    0    0    0    0 -0.00000000000E+00 -0.00000000000E+00 -0.45593999997E+02  0.45594000000E+02  0.51100000000E-03 0. -1.
    9900012    2    1    2    0    0 -0.33378032949E+02  0.83082721885E+01  0.21680535000E+02  0.50528855048E+02  0.29999985405E+02 0.  0.
         12    1    1    2    0    0  0.33378032949E+02 -0.83082721885E+01 -0.21680535000E+02  0.40659144952E+02  0.00000000000E+00 0. -1.
         11    1    3    3    0    0  0.41300531690E+00  0.91867042765E+01  0.15607697374E+01  0.93274922295E+01  0.51100000000E-03 0. -1.
        -11    1    3    3    0    0 -0.11856266125E+02  0.41048939767E+01  0.29115258402E+01  0.12880146892E+02  0.51100000000E-03 0.  1.
        -12    1    3    3    0    0 -0.21934772141E+02 -0.49833260648E+01  0.17208239422E+02  0.28321215927E+02  0.00000000000E+00 0.  1.
</event>
<event>
 7    1  0.2575978E-011  0.5052886E+02  0.7816164E-02  0.1300439E+00
        -11   -1    0    0    0    0  0.00000000000E+00  0.00000000000E+00  0.45593999997E+02  0.45594000000E+02  0.51100000000E-03 0.  1.
         11   -1    0    0    0    0 -0.00000000000E+00 -0.00000000000E+00 -0.45593999997E+02  0.45594000000E+02  0.51100000000E-03 0. -1.
    9900012    2    1    2    0    0 -0.12032713348E+02  0.79740658037E+01  0.38010442748E+02  0.50528859898E+02  0.30000000147E+02 0.  0.
         12    1    1    2    0    0  0.12032713348E+02 -0.79740658037E+01 -0.38010442748E+02  0.40659140102E+02  0.00000000000E+00 0. -1.
         11    1    3    3    0    0  0.78585209912E+00 -0.50534155180E+01 -0.11985457716E+01  0.52527215943E+01  0.51100000000E-03 0. -1.
        -11    1    3    3    0    0  0.75875764163E+00  0.75648083725E+01  0.95838983467E+01  0.12233280290E+02  0.51100000000E-03 0.  1.
        -12    1    3    3    0    0 -0.13577323089E+02  0.54626729492E+01  0.29625090172E+02  0.33042858014E+02  0.00000000000E+00 0.  1.
</event>
<event>
 7    1  0.2575978E-011  0.5052887E+02  0.7816164E-02  0.1300439E+00
        -11   -1    0    0    0    0  0.00000000000E+00  0.00000000000E+00  0.45593999997E+02  0.45594000000E+02  0.51100000000E-03 0. -1.
         11   -1    0    0    0    0 -0.00000000000E+00 -0.00000000000E+00 -0.45593999997E+02  0.45594000000E+02  0.51100000000E-03 0.  1.
    9900012    2    1    2    0    0 -0.12147994509E+02  0.99675543232E+01 -0.37499851225E+02  0.50528871238E+02  0.30000034616E+02 0.  0.
         12    1    1    2    0    0  0.12147994509E+02 -0.99675543232E+01  0.37499851225E+02  0.40659128762E+02  0.00000000000E+00 0. -1.
         11    1    3    3    0    0 -0.84153042655E+01  0.85784114399E+00 -0.14470571435E+02  0.16761583315E+02  0.51100000000E-03 0. -1.
        -11    1    3    3    0    0 -0.59318750650E+01 -0.19499577546E+01 -0.21499369837E+02  0.22387773017E+02  0.51100000000E-03 0.  1.
         12    1    3    3    0    0  0.21991848212E+01  0.11059670934E+02 -0.15299099530E+01  0.11379514906E+02  0.00000000000E+00 0. -1.
</event>
<event>
 7    1  0.2575978E-011  0.5052886E+02  0.7816164E-02  0.1300439E+00
        -11   -1    0    0    0    0  0.00000000000E+00  0.00000000000E+00  0.45593999997E+02  0.45594000000E+02  0.51100000000E-03 0. -1.
         11   -1    0    0    0    0 -0.00000000000E+00 -0.00000000000E+00 -0.45593999997E+02  0.45594000000E+02  0.51100000000E-03 0.  1.
    9900012    2    1    2    0    0  0.35613985270E+02 -0.10930086831E+02  0.16289348820E+02  0.50528860437E+02  0.30000001785E+02 0.  0.
         12    1    1    2    0    0 -0.35613985270E+02  0.10930086831E+02 -0.16289348820E+02  0.40659139563E+02  0.00000000000E+00 0. -1.
         11    1    3    3    0    0  0.16339240182E+02  0.39165105938E+01  0.21994388868E+01  0.16945422881E+02  0.51100000000E-03 0.  1.
        -11    1    3    3    0    0  0.22813366526E+02 -0.14164077250E+02  0.11945891610E+02  0.29390051092E+02  0.51100000000E-03 0. -1.
         12    1    3    3    0    0 -0.35386214370E+01 -0.68252017466E+00  0.21440183238E+01  0.41933864639E+01  0.00000000000E+00 0. -1.
</event>
<event>
 7    1  0.2575978E-011  0.5052884E+02  0.7816164E-02  0.1300439E+00
        -11   -1    0    0    0    0  0.00000000000E+00  0.00000000000E+00  0.45593999997E+02  0.45594000000E+02  0.51100000000E-03 0.  1.
         11   -1    0    0    0    0 -0.00000000000E+00 -0.00000000000E+00 -0.45593999997E+02  0.45594000000E+02  0.51100000000E-03 0. -1.
    9900012    2    1    2    0    0 -0.30052918198E+02 -0.13546460780E+02  0.23800891864E+02  0.50528844261E+02  0.29999952616E+02 0.  0.
         12    1    1    2    0    0  0.30052918198E+02  0.13546460780E+02 -0.23800891864E+02  0.40659155739E+02  0.00000000000E+00 0. -1.
         11    1    3    3    0    0 -0.10855831575E+01 -0.73199312514E+01  0.71721399906E+01  0.10305313029E+02  0.51100000000E-03 0. -1.
        -11    1    3    3    0    0 -0.23948895982E+02 -0.10709703602E+02  0.19718599809E+02  0.32818753003E+02  0.51100000000E-03 0.  1.
        -12    1    3    3    0    0 -0.50184390586E+01  0.44831740737E+01 -0.30898479354E+01  0.74047782292E+01  0.00000000000E+00 0.  1.
</event>
<event>
 7    1  0.2575978E-011  0.5052885E+02  0.7816164E-02  0.1300439E+00
        -11   -1    0    0    0    0  0.00000000000E+00  0.00000000000E+00  0.45593999997E+02  0.45594000000E+02  0.51100000000E-03 0.  1.
         11   -1    0    0    0    0 -0.00000000000E+00 -0.00000000000E+00 -0.45593999997E+02  0.45594000000E+02  0.51100000000E-03 0. -1.
    9900012    2    1    2    0    0  0.87767637503E+01 -0.26554456740E+02  0.29512633743E+02  0.50528852135E+02  0.29999976548E+02 0.  0.
         12    1    1    2    0    0 -0.87767637503E+01  0.26554456740E+02 -0.29512633743E+02  0.40659147865E+02  0.00000000000E+00 0. -1.
         11    1    3    3    0    0  0.44594999103E+01 -0.27305566333E+01 -0.33217357641E+01  0.61949178949E+01  0.51100000000E-03 0. -1.
        -11    1    3    3    0    0 -0.36841256156E+01  0.36377368520E+00  0.16160355598E+01  0.40393915429E+01  0.51100000000E-03 0.  1.
        -12    1    3    3    0    0  0.80013894556E+01 -0.24187673792E+02  0.31218333947E+02  0.40294542697E+02  0.00000000000E+00 0.  1.
</event>
<event>
 7    1  0.2575978E-011  0.5052886E+02  0.7816164E-02  0.1300439E+00
        -11   -1    0    0    0    0  0.00000000000E+00  0.00000000000E+00  0.45593999997E+02  0.45594000000E+02  0.51100000000E-03 0. -1.
         11   -1    0    0    0    0 -0.00000000000E+00 -0.00000000000E+00 -0.45593999997E+02  0.45594000000E+02  0.51100000000E-03 0.  1.
    9900012    2    1    2    0    0 -0.75172427500E+01  0.97773597924E+01 -0.38743513963E+02  0.50528861085E+02  0.30000003754E+02 0.  0.
         12    1    1    2    0    0  0.75172427500E+01 -0.97773597924E+01  0.38743513963E+02  0.40659138915E+02  0.00000000000E+00 0. -1.
         11    1    3    3    0    0 -0.50076714040E+01 -0.28615858750E+01 -0.34666444433E+00  0.57780293447E+01  0.51100000000E-03 0. -1.
        -11    1    3    3    0    0 -0.91748198721E+01  0.64566526005E+01 -0.31200581403E+02  0.33156326133E+02  0.51100000000E-03 0.  1.
        -12    1    3    3    0    0  0.66652485261E+01  0.61822930669E+01 -0.71962681164E+01  0.11594505608E+02  0.00000000000E+00 0.  1.
</event>
<event>
 7    1  0.2575978E-011  0.5052887E+02  0.7816164E-02  0.1300439E+00
        -11   -1    0    0    0    0  0.00000000000E+00  0.00000000000E+00  0.45593999997E+02  0.45594000000E+02  0.51100000000E-03 0.  1.
         11   -1    0    0    0    0 -0.00000000000E+00 -0.00000000000E+00 -0.45593999997E+02  0.45594000000E+02  0.51100000000E-03 0. -1.
    9900012    2    1    2    0    0  0.30283430923E+00  0.38551082345E+02  0.12918483503E+02  0.50528869727E+02  0.30000030022E+02 0.  0.
         12    1    1    2    0    0 -0.30283430923E+00 -0.38551082345E+02 -0.12918483503E+02  0.40659130273E+02  0.00000000000E+00 0. -1.
         11    1    3    3    0    0  0.69344036422E+01  0.16693276457E+02  0.10344939711E+02  0.20827126797E+02  0.51100000000E-03 0. -1.
        -11    1    3    3    0    0 -0.34875741781E+01  0.17839889198E+02  0.99578700223E+01  0.20726408177E+02  0.51100000000E-03 0.  1.
         12    1    3    3    0    0 -0.31439951548E+01  0.40179166894E+01 -0.73843262304E+01  0.89753347532E+01  0.00000000000E+00 0. -1.
</event>
<event>
 7    1  0.2575978E-011  0.5052885E+02  0.7816164E-02  0.1300439E+00
        -11   -1    0    0    0    0  0.00000000000E+00  0.00000000000E+00  0.45593999997E+02  0.45594000000E+02  0.51100000000E-03 0. -1.
         11   -1    0    0    0    0 -0.00000000000E+00 -0.00000000000E+00 -0.45593999997E+02  0.45594000000E+02  0.51100000000E-03 0.  1.
    9900012    2    1    2    0    0 -0.13404769568E+02 -0.37154812306E+02 -0.96435612528E+01  0.50528853448E+02  0.29999980541E+02 0.  0.
         12    1    1    2    0    0  0.13404769568E+02  0.37154812306E+02  0.96435612528E+01  0.40659146552E+02  0.00000000000E+00 0. -1.
         11    1    3    3    0    0 -0.14015962116E+02 -0.84425957105E+01 -0.12991196209E+02  0.20892481795E+02  0.51100000000E-03 0.  1.
        -11    1    3    3    0    0 -0.86369468945E+00 -0.14790005817E+02 -0.13317513596E+01  0.14874938741E+02  0.51100000000E-03 0. -1.
        -12    1    3    3    0    0  0.14748872377E+01 -0.13922210779E+02  0.46793863156E+01  0.14761432912E+02  0.00000000000E+00 0.  1.
</event>
<event>
 7    1  0.2575978E-011  0.5052886E+02  0.7816164E-02  0.1300439E+00
        -11   -1    0    0    0    0  0.00000000000E+00  0.00000000000E+00  0.45593999997E+02  0.45594000000E+02  0.51100000000E-03 0.  1.
         11   -1    0    0    0    0 -0.00000000000E+00 -0.00000000000E+00 -0.45593999997E+02  0.45594000000E+02  0.51100000000E-03 0. -1.
    9900012    2    1    2    0    0  0.27022926061E+02  0.18063051747E+01  0.30325965972E+02  0.50528862240E+02  0.30000007263E+02 0.  0.
         12    1    1    2    0    0 -0.27022926061E+02 -0.18063051747E+01 -0.30325965972E+02  0.40659137760E+02  0.00000000000E+00 0. -1.
         11    1    3    3    0    0  0.29851217449E+01 -0.43210452637E+01 -0.47494734488E-01  0.52521081495E+01  0.51100000000E-03 0. -1.
        -11    1    3    3    0    0  0.17234308521E+02 -0.44924418967E+00  0.46325733493E+01  0.17851721112E+02  0.51100000000E-03 0.  1.
        -12    1    3    3    0    0  0.68034957950E+01  0.65765946281E+01  0.25740887357E+02  0.27425032978E+02  0.00000000000E+00 0.  1.
</event>
<event>
 7    1  0.2575978E-011  0.5052890E+02  0.7816164E-02  0.1300439E+00
        -11   -1    0    0    0    0  0.00000000000E+00  0.00000000000E+00  0.45593999997E+02  0.45594000000E+02  0.51100000000E-03 0. -1.
         11   -1    0    0    0    0 -0.00000000000E+00 -0.00000000000E+00 -0.45593999997E+02  0.45594000000E+02  0.51100000000E-03 0.  1.
    9900012    2    1    2    0    0  0.32598110220E+02 -0.22446667618E+02 -0.93098170853E+01  0.50528900511E+02  0.30000123594E+02 0.  0.
         12    1    1    2    0    0 -0.32598110220E+02  0.22446667618E+02  0.93098170853E+01  0.40659099489E+02  0.00000000000E+00 0. -1.
         11    1    3    3    0    0  0.57572149452E+01 -0.19726040589E+01 -0.92144857708E+01  0.11042800323E+02  0.51100000000E-03 0. -1.
        -11    1    3    3    0    0  0.19879142517E+02 -0.11184938937E+02 -0.93384721610E+01  0.24647316868E+02  0.51100000000E-03 0.  1.
         12    1    3    3    0    0  0.69617527575E+01 -0.92891246226E+01  0.92431408465E+01  0.14838783320E+02  0.00000000000E+00 0. -1.
</event>
<event>
 7    1  0.2575978E-011  0.5052885E+02  0.7816164E-02  0.1300439E+00
        -11   -1    0    0    0    0  0.00000000000E+00  0.00000000000E+00  0.45593999997E+02  0.45594000000E+02  0.51100000000E-03 0.  1.
         11   -1    0    0    0    0 -0.00000000000E+00 -0.00000000000E+00 -0.45593999997E+02  0.45594000000E+02  0.51100000000E-03 0. -1.
    9900012    2    1    2    0    0 -0.10475436742E+02  0.41106373006E+01  0.39070894143E+02  0.50528845027E+02  0.29999954944E+02 0.  0.
         12    1    1    2    0    0  0.10475436742E+02 -0.41106373006E+01 -0.39070894143E+02  0.40659154973E+02  0.00000000000E+00 0. -1.
         11    1    3    3    0    0 -0.16809487931E+01  0.69079123618E+01  0.46987068785E+01  0.85218946623E+01  0.51100000000E-03 0. -1.
        -11    1    3    3    0    0 -0.10979637682E+02  0.60665487318E+01  0.10198191197E+02  0.16166587800E+02  0.51100000000E-03 0.  1.
        -12    1    3    3    0    0  0.21851497330E+01 -0.88638237930E+01  0.24173996068E+02  0.25840362565E+02  0.00000000000E+00 0.  1.
</event>
<event>
 7    1  0.2575978E-011  0.5052886E+02  0.7816164E-02  0.1300439E+00
        -11   -1    0    0    0    0  0.00000000000E+00  0.00000000000E+00  0.45593999997E+02  0.45594000000E+02  0.51100000000E-03 0.  1.
         11   -1    0    0    0    0 -0.00000000000E+00 -0.00000000000E+00 -0.45593999997E+02  0.45594000000E+02  0.51100000000E-03 0. -1.
    9900012    2    1    2    0    0  0.37307932271E+02 -0.14384597885E+02 -0.73734258131E+01  0.50528857426E+02  0.29999992631E+02 0.  0.
         12    1    1    2    0    0 -0.37307932271E+02  0.14384597885E+02  0.73734258131E+01  0.40659142574E+02  0.00000000000E+00 0. -1.
         11    1    3    3    0    0  0.68076364179E+01 -0.15466244403E+02  0.14840189293E+01  0.16963223219E+02  0.51100000000E-03 0. -1.
        -11    1    3    3    0    0  0.47052750555E+01 -0.36024584972E+01 -0.10684928402E+00  0.59269501097E+01  0.51100000000E-03 0.  1.
         12    1    3    3    0    0  0.25795020798E+02  0.46841050151E+01 -0.87505954584E+01  0.27638684097E+02  0.00000000000E+00 0. -1.
</event>
<event>
 7    1  0.2575978E-011  0.5052889E+02  0.7816164E-02  0.1300439E+00
        -11   -1    0    0    0    0  0.00000000000E+00  0.00000000000E+00  0.45593999997E+02  0.45594000000E+02  0.51100000000E-03 0. -1.
         11   -1    0    0    0    0 -0.00000000000E+00 -0.00000000000E+00 -0.45593999997E+02  0.45594000000E+02  0.51100000000E-03 0.  1.
    9900012    2    1    2    0    0  0.13439994518E+02 -0.22202838755E+02 -0.31297981220E+02  0.50528891182E+02  0.30000095237E+02 0.  0.
         12    1    1    2    0    0 -0.13439994518E+02  0.22202838755E+02  0.31297981220E+02  0.40659108818E+02  0.00000000000E+00 0. -1.
         11    1    3    3    0    0  0.67846723165E+01 -0.63882144505E+01 -0.44641649477E+01  0.10332948817E+02  0.51100000000E-03 0. -1.
        -11    1    3    3    0    0  0.14623468197E+02 -0.14015044973E+02 -0.12808349189E+02  0.23964997744E+02  0.51100000000E-03 0.  1.
        -12    1    3    3    0    0 -0.79681459955E+01 -0.17995793315E+01 -0.14025467084E+02  0.16230944621E+02  0.00000000000E+00 0.  1.
</event>
<event>
 7    1  0.2575978E-011  0.5052886E+02  0.7816164E-02  0.1300439E+00
        -11   -1    0    0    0    0  0.00000000000E+00  0.00000000000E+00  0.45593999997E+02  0.45594000000E+02  0.51100000000E-03 0.  1.
         11   -1    0    0    0    0 -0.00000000000E+00 -0.00000000000E+00 -0.45593999997E+02  0.45594000000E+02  0.51100000000E-03 0. -1.
    9900012    2    1    2    0    0  0.22242829696E+01  0.58128060255E+01  0.40179962995E+02  0.50528861115E+02  0.30000003845E+02 0.  0.
         12    1    1    2    0    0 -0.22242829696E+01 -0.58128060255E+01 -0.40179962995E+02  0.40659138885E+02  0.00000000000E+00 0. -1.
         11    1    3    3    0    0 -0.44186208075E+01  0.67566698158E+00  0.14263623207E+02  0.14947631350E+02  0.51100000000E-03 0.  1.
        -11    1    3    3    0    0 -0.50742990723E+01  0.10093470944E+02  0.15253134442E+02  0.18981169019E+02  0.51100000000E-03 0. -1.
         12    1    3    3    0    0  0.11717202849E+02 -0.49563319005E+01  0.10663205346E+02  0.16600060746E+02  0.00000000000E+00 0. -1.
</event>
<event>
 7    1  0.2575978E-011  0.5052886E+02  0.7816164E-02  0.1300439E+00
        -11   -1    0    0    0    0  0.00000000000E+00  0.00000000000E+00  0.45593999997E+02  0.45594000000E+02  0.51100000000E-03 0.  1.
         11   -1    0    0    0    0 -0.00000000000E+00 -0.00000000000E+00 -0.45593999997E+02  0.45594000000E+02  0.51100000000E-03 0. -1.
    9900012    2    1    2    0    0  0.38864297643E+02 -0.11190980694E+02  0.41825995670E+01  0.50528858109E+02  0.29999994708E+02 0.  0.
         12    1    1    2    0    0 -0.38864297643E+02  0.11190980694E+02 -0.41825995670E+01  0.40659141891E+02  0.00000000000E+00 0. -1.
         11    1    3    3    0    0  0.17896325611E+02 -0.13548976352E+02  0.60423976534E+01  0.23245726494E+02  0.51100000000E-03 0.  1.
        -11    1    3    3    0    0  0.17903070171E+02 -0.30524502661E+01  0.41563192262E+01  0.18630951772E+02  0.51100000000E-03 0. -1.
         12    1    3    3    0    0  0.30649018613E+01  0.54104459243E+01 -0.60161173126E+01  0.86521798431E+01  0.00000000000E+00 0. -1.
</event>
<event>
 7    1  0.2575978E-011  0.5052876E+02  0.7816164E-02  0.1300439E+00
        -11   -1    0    0    0    0  0.00000000000E+00  0.00000000000E+00  0.45593999997E+02  0.45594000000E+02  0.51100000000E-03 0.  1.
         11   -1    0    0    0    0 -0.00000000000E+00 -0.00000000000E+00 -0.45593999997E+02  0.45594000000E+02  0.51100000000E-03 0. -1.
    9900012    2    1    2    0    0  0.17532578811E+02  0.18214979932E+02  0.31843322612E+02  0.50528757402E+02  0.29999688598E+02 0.  0.
         12    1    1    2    0    0 -0.17532578811E+02 -0.18214979932E+02 -0.31843322612E+02  0.40659242598E+02  0.00000000000E+00 0. -1.
         11    1    3    3    0    0  0.13900367724E+02  0.87012532228E+01  0.70855613580E+01  0.17864411844E+02  0.51100000000E-03 0. -1.
        -11    1    3    3    0    0  0.10789553967E+02  0.20837239687E+01  0.12543496380E+02  0.16676201069E+02  0.51100000000E-03 0.  1.
         12    1    3    3    0    0 -0.71573428797E+01  0.74300027404E+01  0.12214264873E+02  0.15988144489E+02  0.00000000000E+00 0. -1.
</event>
<event>
 7    1  0.2575978E-011  0.5052885E+02  0.7816164E-02  0.1300439E+00
        -11   -1    0    0    0    0  0.00000000000E+00  0.00000000000E+00  0.45593999997E+02  0.45594000000E+02  0.51100000000E-03 0.  1.
         11   -1    0    0    0    0 -0.00000000000E+00 -0.00000000000E+00 -0.45593999997E+02  0.45594000000E+02  0.51100000000E-03 0. -1.
    9900012    2    1    2    0    0  0.26083908136E+02  0.13263564852E+02  0.28228964925E+02  0.50528845102E+02  0.29999955172E+02 0.  0.
         12    1    1    2    0    0 -0.26083908136E+02 -0.13263564852E+02 -0.28228964925E+02  0.40659154898E+02  0.00000000000E+00 0. -1.
         11    1    3    3    0    0  0.10403518323E+01 -0.45993285279E+01  0.46171726526E+01  0.65995786538E+01  0.51100000000E-03 0. -1.
        -11    1    3    3    0    0  0.69702372572E+01  0.10216545869E+02  0.20667421787E+02  0.24085355312E+02  0.51100000000E-03 0.  1.
         12    1    3    3    0    0  0.18073319047E+02  0.76463475109E+01  0.29443704856E+01  0.19843911136E+02  0.00000000000E+00 0. -1.
</event>
<event>
 7    1  0.2575978E-011  0.5052886E+02  0.7816164E-02  0.1300439E+00
        -11   -1    0    0    0    0  0.00000000000E+00  0.00000000000E+00  0.45593999997E+02  0.45594000000E+02  0.51100000000E-03 0.  1.
         11   -1    0    0    0    0 -0.00000000000E+00 -0.00000000000E+00 -0.45593999997E+02  0.45594000000E+02  0.51100000000E-03 0. -1.
    9900012    2    1    2    0    0 -0.67583662346E+01 -0.26884907501E+02 -0.29743775269E+02  0.50528856714E+02  0.29999990468E+02 0.  0.
         12    1    1    2    0    0  0.67583662346E+01  0.26884907501E+02  0.29743775269E+02  0.40659143286E+02  0.00000000000E+00 0. -1.
         11    1    3    3    0    0 -0.13972879101E+02 -0.15970817852E+02 -0.10410669288E+02  0.23636632767E+02  0.51100000000E-03 0. -1.
        -11    1    3    3    0    0  0.19902227969E+01 -0.69147411522E+01 -0.81671838239E+00  0.72416614917E+01  0.51100000000E-03 0.  1.
         12    1    3    3    0    0  0.52242900698E+01 -0.39993484960E+01 -0.18516387599E+02  0.19650562456E+02  0.00000000000E+00 0. -1.
</event>
<event>
 7    1  0.2575978E-011  0.5052885E+02  0.7816164E-02  0.1300439E+00
        -11   -1    0    0    0    0  0.00000000000E+00  0.00000000000E+00  0.45593999997E+02  0.45594000000E+02  0.51100000000E-03 0. -1.
         11   -1    0    0    0    0 -0.00000000000E+00 -0.00000000000E+00 -0.45593999997E+02  0.45594000000E+02  0.51100000000E-03 0.  1.
    9900012    2    1    2    0    0 -0.33351063777E+02 -0.18380624488E+02  0.14248715396E+02  0.50528847254E+02  0.29999961712E+02 0.  0.
         12    1    1    2    0    0  0.33351063777E+02  0.18380624488E+02 -0.14248715396E+02  0.40659152746E+02  0.00000000000E+00 0. -1.
         11    1    3    3    0    0 -0.25854785007E+02 -0.13879702204E+02  0.80941338388E+01  0.30440615038E+02  0.51100000000E-03 0. -1.
        -11    1    3    3    0    0 -0.12111262717E+02 -0.66875097735E+01  0.32437268329E+01  0.14210110330E+02  0.51100000000E-03 0.  1.
         12    1    3    3    0    0  0.46149839469E+01  0.21865874889E+01  0.29108547241E+01  0.58781218856E+01  0.00000000000E+00 0. -1.
</event>
<event>
 7    1  0.2575978E-011  0.5052886E+02  0.7816164E-02  0.1300439E+00
        -11   -1    0    0    0    0  0.00000000000E+00  0.00000000000E+00  0.45593999997E+02  0.45594000000E+02  0.51100000000E-03 0.  1.
         11   -1    0    0    0    0 -0.00000000000E+00 -0.00000000000E+00 -0.45593999997E+02  0.45594000000E+02  0.51100000000E-03 0. -1.
    9900012    2    1    2    0    0 -0.97255151257E+01 -0.50304575460E+01  0.39157052697E+02  0.50528856828E+02  0.29999990813E+02 0.  0.
         12    1    1    2    0    0  0.97255151257E+01  0.50304575460E+01 -0.39157052697E+02  0.40659143172E+02  0.00000000000E+00 0. -1.
         11    1    3    3    0    0  0.28612118855E+01 -0.33080453727E+01  0.88865983254E+01  0.99046114360E+01  0.51100000000E-03 0. -1.
        -11    1    3    3    0    0 -0.89208741632E+01  0.58991097684E+01  0.30336671447E+02  0.32166677271E+02  0.51100000000E-03 0.  1.
         12    1    3    3    0    0 -0.36658528480E+01 -0.76215219417E+01 -0.66217075642E-01  0.84575681205E+01  0.00000000000E+00 0. -1.
</event>
<event>
 7    1  0.2575978E-011  0.5052886E+02  0.7816164E-02  0.1300439E+00
        -11   -1    0    0    0    0  0.00000000000E+00  0.00000000000E+00  0.45593999997E+02  0.45594000000E+02  0.51100000000E-03 0.  1.
         11   -1    0    0    0    0 -0.00000000000E+00 -0.00000000000E+00 -0.45593999997E+02  0.45594000000E+02  0.51100000000E-03 0. -1.
    9900012    2    1    2    0    0 -0.14277066199E+02  0.36983745306E+02 -0.90296173042E+01  0.50528855582E+02  0.29999987028E+02 0.  0.
         12    1    1    2    0    0  0.14277066199E+02 -0.36983745306E+02  0.90296173042E+01  0.40659144418E+02  0.00000000000E+00 0. -1.
         11    1    3    3    0    0 -0.85954692850E+01  0.19047898824E+02  0.18497892064E+01  0.20979186405E+02  0.51100000000E-03 0.  1.
        -11    1    3    3    0    0 -0.11343583008E+02  0.18354304147E+02 -0.70413537597E+01  0.22696652158E+02  0.51100000000E-03 0. -1.
         12    1    3    3    0    0  0.56619860936E+01 -0.41845766512E+00 -0.38380527509E+01  0.68530170188E+01  0.00000000000E+00 0. -1.
</event>
<event>
 7    1  0.2575978E-011  0.5052886E+02  0.7816164E-02  0.1300439E+00
        -11   -1    0    0    0    0  0.00000000000E+00  0.00000000000E+00  0.45593999997E+02  0.45594000000E+02  0.51100000000E-03 0.  1.
         11   -1    0    0    0    0 -0.00000000000E+00 -0.00000000000E+00 -0.45593999997E+02  0.45594000000E+02  0.51100000000E-03 0. -1.
    9900012    2    1    2    0    0 -0.48928941285E+01  0.17657993528E+02  0.36296288969E+02  0.50528859069E+02  0.29999997625E+02 0.  0.
         12    1    1    2    0    0  0.48928941285E+01 -0.17657993528E+02 -0.36296288969E+02  0.40659140931E+02  0.00000000000E+00 0. -1.
         11    1    3    3    0    0 -0.38660620635E+01  0.75809563794E+00  0.23245246513E+01  0.45743371094E+01  0.51100000000E-03 0. -1.
        -11    1    3    3    0    0 -0.23833744357E+01  0.10150709878E+02 -0.84758755504E+00  0.10461156230E+02  0.51100000000E-03 0.  1.
        -12    1    3    3    0    0  0.13565423706E+01  0.67491880115E+01  0.34819351872E+02  0.35493365730E+02  0.00000000000E+00 0.  1.
</event>
<event>
 7    1  0.2575978E-011  0.5052887E+02  0.7816164E-02  0.1300439E+00
        -11   -1    0    0    0    0  0.00000000000E+00  0.00000000000E+00  0.45593999997E+02  0.45594000000E+02  0.51100000000E-03 0.  1.
         11   -1    0    0    0    0 -0.00000000000E+00 -0.00000000000E+00 -0.45593999997E+02  0.45594000000E+02  0.51100000000E-03 0. -1.
    9900012    2    1    2    0    0 -0.13749159654E+02  0.94210085997E+01  0.37085982441E+02  0.50528869563E+02  0.30000029525E+02 0.  0.
         12    1    1    2    0    0  0.13749159654E+02 -0.94210085997E+01 -0.37085982441E+02  0.40659130437E+02  0.00000000000E+00 0. -1.
         11    1    3    3    0    0 -0.14517876554E+02  0.16917785117E+01  0.50370091469E+01  0.15459699725E+02  0.51100000000E-03 0. -1.
        -11    1    3    3    0    0 -0.85287700322E+00 -0.26999433144E+01  0.28337323983E+01  0.40058872488E+01  0.51100000000E-03 0.  1.
        -12    1    3    3    0    0  0.16215939032E+01  0.10429173402E+02  0.29215240896E+02  0.31063282590E+02  0.00000000000E+00 0.  1.
</event>
<event>
 7    1  0.2575978E-011  0.5052887E+02  0.7816164E-02  0.1300439E+00
        -11   -1    0    0    0    0  0.00000000000E+00  0.00000000000E+00  0.45593999997E+02  0.45594000000E+02  0.51100000000E-03 0. -1.
         11   -1    0    0    0    0 -0.00000000000E+00 -0.00000000000E+00 -0.45593999997E+02  0.45594000000E+02  0.51100000000E-03 0.  1.
    9900012    2    1    2    0    0 -0.19411402485E+02 -0.35509141760E+02  0.39323617592E+01  0.50528866169E+02  0.30000019206E+02 0.  0.
         12    1    1    2    0    0  0.19411402485E+02  0.35509141760E+02 -0.39323617592E+01  0.40659133831E+02  0.00000000000E+00 0. -1.
         11    1    3    3    0    0 -0.99229294917E+01 -0.13777538571E+02 -0.66652777461E+01  0.18240368046E+02  0.51100000000E-03 0. -1.
        -11    1    3    3    0    0 -0.51934164572E+01 -0.76015678324E+01 -0.52729910824E+01  0.10609422379E+02  0.51100000000E-03 0.  1.
         12    1    3    3    0    0 -0.42950565357E+01 -0.14130035356E+02  0.15870630588E+02  0.21679075743E+02  0.00000000000E+00 0. -1.
</event>
<event>
 7    1  0.2575978E-011  0.5052886E+02  0.7816164E-02  0.1300439E+00
        -11   -1    0    0    0    0  0.00000000000E+00  0.00000000000E+00  0.45593999997E+02  0.45594000000E+02  0.51100000000E-03 0.  1.
         11   -1    0    0    0    0 -0.00000000000E+00 -0.00000000000E+00 -0.45593999997E+02  0.45594000000E+02  0.51100000000E-03 0. -1.
    9900012    2    1    2    0    0  0.13164675915E+02 -0.27557802666E+02  0.26840729891E+02  0.50528856369E+02  0.29999989419E+02 0.  0.
         12    1    1    2    0    0 -0.13164675915E+02  0.27557802666E+02 -0.26840729891E+02  0.40659143631E+02  0.00000000000E+00 0. -1.
         11    1    3    3    0    0 -0.25598253109E+01 -0.36471136511E+01  0.16155540911E+00  0.44587267260E+01  0.51100000000E-03 0.  1.
        -11    1    3    3    0    0 -0.22139916689E+01 -0.18272116574E+01  0.15071044774E+02  0.15341996363E+02  0.51100000000E-03 0. -1.
        -12    1    3    3    0    0  0.17938492895E+02 -0.22083477357E+02  0.11608129708E+02  0.30728133280E+02  0.00000000000E+00 0.  1.
</event>
<event>
 7    1  0.2575978E-011  0.5052887E+02  0.7816164E-02  0.1300439E+00
        -11   -1    0    0    0    0  0.00000000000E+00  0.00000000000E+00  0.45593999997E+02  0.45594000000E+02  0.51100000000E-03 0.  1.
         11   -1    0    0    0    0 -0.00000000000E+00 -0.00000000000E+00 -0.45593999997E+02  0.45594000000E+02  0.51100000000E-03 0. -1.
    9900012    2    1    2    0    0  0.93608409582E+01 -0.16490942218E+01  0.39532514411E+02  0.50528873708E+02  0.30000042123E+02 0.  0.
         12    1    1    2    0    0 -0.93608409582E+01  0.16490942218E+01 -0.39532514411E+02  0.40659126292E+02  0.00000000000E+00 0. -1.
         11    1    3    3    0    0  0.36568701233E+01  0.26109884952E+01 -0.37629718040E+00  0.45090530991E+01  0.51100000000E-03 0. -1.
        -11    1    3    3    0    0  0.63088480338E+01 -0.12808961437E+02  0.23211450403E+02  0.27251467606E+02  0.51100000000E-03 0.  1.
         12    1    3    3    0    0 -0.60487719896E+00  0.85488787201E+01  0.16697361188E+02  0.18768353003E+02  0.00000000000E+00 0. -1.
</event>
<event>
 7    1  0.2575978E-011  0.5052886E+02  0.7816164E-02  0.1300439E+00
        -11   -1    0    0    0    0  0.00000000000E+00  0.00000000000E+00  0.45593999997E+02  0.45594000000E+02  0.51100000000E-03 0.  1.
         11   -1    0    0    0    0 -0.00000000000E+00 -0.00000000000E+00 -0.45593999997E+02  0.45594000000E+02  0.51100000000E-03 0. -1.
    9900012    2    1    2    0    0  0.25279787624E+02 -0.20205441461E+01  0.31780738782E+02  0.50528860578E+02  0.30000002214E+02 0.  0.
         12    1    1    2    0    0 -0.25279787624E+02  0.20205441461E+01 -0.31780738782E+02  0.40659139422E+02  0.00000000000E+00 0. -1.
         11    1    3    3    0    0  0.26242555132E+02 -0.28653586271E+01  0.22846892956E+02  0.34912211301E+02  0.51100000000E-03 0. -1.
        -11    1    3    3    0    0  0.36824454787E+01 -0.41594452484E+01  0.20516432870E+01  0.59220460920E+01  0.51100000000E-03 0.  1.
        -12    1    3    3    0    0 -0.46452129867E+01  0.50042597294E+01  0.68822025396E+01  0.96946031856E+01  0.00000000000E+00 0.  1.
</event>
<event>
 7    1  0.2575978E-011  0.5052886E+02  0.7816164E-02  0.1300439E+00
        -11   -1    0    0    0    0  0.00000000000E+00  0.00000000000E+00  0.45593999997E+02  0.45594000000E+02  0.51100000000E-03 0.  1.
         11   -1    0    0    0    0 -0.00000000000E+00 -0.00000000000E+00 -0.45593999997E+02  0.45594000000E+02  0.51100000000E-03 0. -1.
    9900012    2    1    2    0    0 -0.33825542761E+02 -0.13846552725E+02  0.17812115147E+02  0.50528858205E+02  0.29999995001E+02 0.  0.
         12    1    1    2    0    0  0.33825542761E+02  0.13846552725E+02 -0.17812115147E+02  0.40659141795E+02  0.00000000000E+00 0. -1.
         11    1    3    3    0    0  0.21825073807E+01 -0.21720516693E+01  0.69688205046E+00  0.31570226122E+01  0.51100000000E-03 0. -1.
        -11    1    3    3    0    0  0.26044143533E+01 -0.76856333917E+00  0.46008465653E+01  0.53424201547E+01  0.51100000000E-03 0.  1.
        -12    1    3    3    0    0 -0.38612464495E+02 -0.10905937717E+02  0.12514386531E+02  0.42029415439E+02  0.00000000000E+00 0.  1.
</event>
<event>
 7    1  0.2575978E-011  0.5052886E+02  0.7816164E-02  0.1300439E+00
        -11   -1    0    0    0    0  0.00000000000E+00  0.00000000000E+00  0.45593999997E+02  0.45594000000E+02  0.51100000000E-03 0.  1.
         11   -1    0    0    0    0 -0.00000000000E+00 -0.00000000000E+00 -0.45593999997E+02  0.45594000000E+02  0.51100000000E-03 0. -1.
    9900012    2    1    2    0    0  0.25237404901E+02  0.60121181445E+01  0.31306446189E+02  0.50528859038E+02  0.29999997533E+02 0.  0.
         12    1    1    2    0    0 -0.25237404901E+02 -0.60121181445E+01 -0.31306446189E+02  0.40659140962E+02  0.00000000000E+00 0. -1.
         11    1    3    3    0    0  0.12434594662E+01 -0.19488326655E+01 -0.30277252750E+01  0.38093648820E+01  0.51100000000E-03 0. -1.
        -11    1    3    3    0    0  0.51712868778E+01 -0.60108607804E+01  0.59881133787E+01  0.99363050170E+01  0.51100000000E-03 0.  1.
        -12    1    3    3    0    0  0.18822658557E+02  0.13971811590E+02  0.28346058086E+02  0.36783189139E+02  0.00000000000E+00 0.  1.
</event>
<event>
 7    1  0.2575978E-011  0.5052885E+02  0.7816164E-02  0.1300439E+00
        -11   -1    0    0    0    0  0.00000000000E+00  0.00000000000E+00  0.45593999997E+02  0.45594000000E+02  0.51100000000E-03 0.  1.
         11   -1    0    0    0    0 -0.00000000000E+00 -0.00000000000E+00 -0.45593999997E+02  0.45594000000E+02  0.51100000000E-03 0. -1.
    9900012    2    1    2    0    0  0.30397948092E+02 -0.66369110422E+01  0.26174078322E+02  0.50528853275E+02  0.29999980014E+02 0.  0.
         12    1    1    2    0    0 -0.30397948092E+02  0.66369110422E+01 -0.26174078322E+02  0.40659146725E+02  0.00000000000E+00 0. -1.
         11    1    3    3    0    0  0.86916874891E+00  0.24658958555E+01  0.87607810774E+01  0.91426135230E+01  0.51100000000E-03 0. -1.
        -11    1    3    3    0    0  0.23813378561E+02 -0.59160475522E+01  0.22349062053E+02  0.33189715155E+02  0.51100000000E-03 0.  1.
        -12    1    3    3    0    0  0.57154007822E+01 -0.31867593455E+01 -0.49357648084E+01  0.81965245972E+01  0.00000000000E+00 0.  1.
</event>
<event>
 7    1  0.2575978E-011  0.5052886E+02  0.7816164E-02  0.1300439E+00
        -11   -1    0    0    0    0  0.00000000000E+00  0.00000000000E+00  0.45593999997E+02  0.45594000000E+02  0.51100000000E-03 0.  1.
         11   -1    0    0    0    0 -0.00000000000E+00 -0.00000000000E+00 -0.45593999997E+02  0.45594000000E+02  0.51100000000E-03 0. -1.
    9900012    2    1    2    0    0  0.19700749252E+02  0.78594780027E+01  0.34688249875E+02  0.50528860868E+02  0.30000003095E+02 0.  0.
         12    1    1    2    0    0 -0.19700749252E+02 -0.78594780027E+01 -0.34688249875E+02  0.40659139132E+02  0.00000000000E+00 0. -1.
         11    1    3    3    0    0 -0.32350953464E+01  0.10568138005E+01  0.37339878657E+01  0.50522631514E+01  0.51100000000E-03 0.  1.
        -11    1    3    3    0    0  0.73389882306E+01 -0.76043284688E+01  0.43256153274E+01  0.11419172822E+02  0.51100000000E-03 0. -1.
        -12    1    3    3    0    0  0.15596856367E+02  0.14406992671E+02  0.26628646682E+02  0.34057424895E+02  0.00000000000E+00 0.  1.
</event>
<event>
 7    1  0.2575978E-011  0.5052884E+02  0.7816164E-02  0.1300439E+00
        -11   -1    0    0    0    0  0.00000000000E+00  0.00000000000E+00  0.45593999997E+02  0.45594000000E+02  0.51100000000E-03 0.  1.
         11   -1    0    0    0    0 -0.00000000000E+00 -0.00000000000E+00 -0.45593999997E+02  0.45594000000E+02  0.51100000000E-03 0. -1.
    9900012    2    1    2    0    0 -0.17675407033E+02  0.14563499250E+02  0.33595407025E+02  0.50528844852E+02  0.29999954411E+02 0.  0.
         12    1    1    2    0    0  0.17675407033E+02 -0.14563499250E+02 -0.33595407025E+02  0.40659155148E+02  0.00000000000E+00 0. -1.
         11    1    3    3    0    0 -0.73095981144E+01  0.10714606240E+02  0.18809366183E+02  0.22847872285E+02  0.51100000000E-03 0.  1.
        -11    1    3    3    0    0 -0.87420060701E+01  0.11015701793E+02  0.14683791441E+02  0.20331799907E+02  0.51100000000E-03 0. -1.
         12    1    3    3    0    0 -0.16238028488E+01 -0.71668087841E+01  0.10224940167E+00  0.73491726596E+01  0.00000000000E+00 0. -1.
</event>
<event>
 7    1  0.2575978E-011  0.5052887E+02  0.7816164E-02  0.1300439E+00
        -11   -1    0    0    0    0  0.00000000000E+00  0.00000000000E+00  0.45593999997E+02  0.45594000000E+02  0.51100000000E-03 0.  1.
         11   -1    0    0    0    0 -0.00000000000E+00 -0.00000000000E+00 -0.45593999997E+02  0.45594000000E+02  0.51100000000E-03 0. -1.
    9900012    2    1    2    0    0 -0.23207444753E+01 -0.18629622520E+02  0.36065438983E+02  0.50528873359E+02  0.30000041062E+02 0.  0.
         12    1    1    2    0    0  0.23207444753E+01  0.18629622520E+02 -0.36065438983E+02  0.40659126641E+02  0.00000000000E+00 0. -1.
         11    1    3    3    0    0  0.14111522198E+01 -0.18058277807E+01  0.54267331237E+01  0.58908231358E+01  0.51100000000E-03 0. -1.
        -11    1    3    3    0    0 -0.55442250634E+01 -0.22549325644E+02  0.14397622701E+02  0.27322189852E+02  0.51100000000E-03 0.  1.
        -12    1    3    3    0    0  0.18123283684E+01  0.57255309053E+01  0.16241083158E+02  0.17315860372E+02  0.00000000000E+00 0.  1.
</event>
<event>
 7    1  0.2575978E-011  0.5052886E+02  0.7816164E-02  0.1300439E+00
        -11   -1    0    0    0    0  0.00000000000E+00  0.00000000000E+00  0.45593999997E+02  0.45594000000E+02  0.51100000000E-03 0.  1.
         11   -1    0    0    0    0 -0.00000000000E+00 -0.00000000000E+00 -0.45593999997E+02  0.45594000000E+02  0.51100000000E-03 0. -1.
    9900012    2    1    2    0    0 -0.26855820556E+02  0.13951263490E+02  0.27153137101E+02  0.50528859513E+02  0.29999998976E+02 0.  0.
         12    1    1    2    0    0  0.26855820556E+02 -0.13951263490E+02 -0.27153137101E+02  0.40659140487E+02  0.00000000000E+00 0. -1.
         11    1    3    3    0    0 -0.11315454462E+02  0.18562178823E+02  0.17807955293E+02  0.28101908553E+02  0.51100000000E-03 0. -1.
        -11    1    3    3    0    0 -0.38502318450E+01  0.12361697671E+01  0.83991185371E+01  0.93218878675E+01  0.51100000000E-03 0.  1.
         12    1    3    3    0    0 -0.11690134249E+02 -0.58470851006E+01  0.94606327070E+00  0.13105063092E+02  0.00000000000E+00 0. -1.
</event>
<event>
 7    1  0.2575978E-011  0.5052887E+02  0.7816164E-02  0.1300439E+00
        -11   -1    0    0    0    0  0.00000000000E+00  0.00000000000E+00  0.45593999997E+02  0.45594000000E+02  0.51100000000E-03 0.  1.
         11   -1    0    0    0    0 -0.00000000000E+00 -0.00000000000E+00 -0.45593999997E+02  0.45594000000E+02  0.51100000000E-03 0. -1.
    9900012    2    1    2    0    0 -0.46686927938E+00 -0.48053828198E+01  0.40371461328E+02  0.50528873587E+02  0.30000041754E+02 0.  0.
         12    1    1    2    0    0  0.46686927938E+00  0.48053828198E+01 -0.40371461328E+02  0.40659126413E+02  0.00000000000E+00 0. -1.
         11    1    3    3    0    0 -0.16402962954E+01 -0.66082212404E+01  0.11777098614E+02  0.13603647008E+02  0.51100000000E-03 0. -1.
        -11    1    3    3    0    0 -0.67518599742E+01 -0.72283421667E+01  0.19468237361E+02  0.21836868132E+02  0.51100000000E-03 0.  1.
         12    1    3    3    0    0  0.79252869902E+01  0.90311805872E+01  0.91261253525E+01  0.15088358447E+02  0.00000000000E+00 0. -1.
</event>
<event>
 7    1  0.2575978E-011  0.5052886E+02  0.7816164E-02  0.1300439E+00
        -11   -1    0    0    0    0  0.00000000000E+00  0.00000000000E+00  0.45593999997E+02  0.45594000000E+02  0.51100000000E-03 0.  1.
         11   -1    0    0    0    0 -0.00000000000E+00 -0.00000000000E+00 -0.45593999997E+02  0.45594000000E+02  0.51100000000E-03 0. -1.
    9900012    2    1    2    0    0  0.15595930848E+02 -0.35150618533E+02  0.13204794008E+02  0.50528860473E+02  0.30000001894E+02 0.  0.
         12    1    1    2    0    0 -0.15595930848E+02  0.35150618533E+02 -0.13204794008E+02  0.40659139527E+02  0.00000000000E+00 0. -1.
         11    1    3    3    0    0 -0.25828103599E+01 -0.16691517614E+02  0.28179898145E+01  0.17123630937E+02  0.51100000000E-03 0. -1.
        -11    1    3    3    0    0 -0.22226165011E+01 -0.83826549269E+01  0.50431585225E+01  0.10032067378E+02  0.51100000000E-03 0.  1.
        -12    1    3    3    0    0  0.20401357709E+02 -0.10076445992E+02  0.53436456711E+01  0.23373162158E+02  0.00000000000E+00 0.  1.
</event>
<event>
 7    1  0.2810268E-011  0.5052896E+02  0.7816164E-02  0.1300438E+00
        -11   -1    0    0    0    0  0.00000000000E+00  0.00000000000E+00  0.45593999997E+02  0.45594000000E+02  0.51100000000E-03 0.  1.
         11   -1    0    0    0    0 -0.00000000000E+00 -0.00000000000E+00 -0.45593999997E+02  0.45594000000E+02  0.51100000000E-03 0. -1.
    9900012    2    1    2    0    0 -0.13689387539E+02  0.38189777205E+02  0.27017536045E+01  0.50528955660E+02  0.30000291222E+02 0.  0.
         12    1    1    2    0    0  0.13689387539E+02 -0.38189777205E+02 -0.27017536045E+01  0.40659044340E+02  0.00000000000E+00 0. -1.
         11    1    3    3    0    0 -0.11799378727E+02  0.11082195445E+02  0.76406607732E+01  0.17900281885E+02  0.51100000000E-03 0. -1.
        -11    1    3    3    0    0 -0.39201688042E+01  0.25144051262E+02  0.16079634356E+01  0.25498560429E+02  0.51100000000E-03 0.  1.
         12    1    3    3    0    0  0.20301599925E+01  0.19635304975E+01 -0.65468706044E+01  0.71301133455E+01  0.00000000000E+00 0. -1.
</event>
<event>
 7    1  0.2575978E-011  0.5052885E+02  0.7816164E-02  0.1300439E+00
        -11   -1    0    0    0    0  0.00000000000E+00  0.00000000000E+00  0.45593999997E+02  0.45594000000E+02  0.51100000000E-03 0.  1.
         11   -1    0    0    0    0 -0.00000000000E+00 -0.00000000000E+00 -0.45593999997E+02  0.45594000000E+02  0.51100000000E-03 0. -1.
    9900012    2    1    2    0    0 -0.15974683970E+02  0.29943564910E+02  0.22391037794E+02  0.50528853662E+02  0.29999981190E+02 0.  0.
         12    1    1    2    0    0  0.15974683970E+02 -0.29943564910E+02 -0.22391037794E+02  0.40659146338E+02  0.00000000000E+00 0. -1.
         11    1    3    3    0    0  0.35054547333E+01  0.82771435537E-01  0.19027181383E+00  0.35115904690E+01  0.51100000000E-03 0. -1.
        -11    1    3    3    0    0 -0.56074350646E+01  0.15034849796E+02  0.21333271038E+02  0.26694540450E+02  0.51100000000E-03 0.  1.
         12    1    3    3    0    0 -0.13872703639E+02  0.14825943678E+02  0.86749494232E+00  0.20322722743E+02  0.00000000000E+00 0. -1.
</event>
<event>
 7    1  0.2575978E-011  0.5052886E+02  0.7816164E-02  0.1300439E+00
        -11   -1    0    0    0    0  0.00000000000E+00  0.00000000000E+00  0.45593999997E+02  0.45594000000E+02  0.51100000000E-03 0.  1.
         11   -1    0    0    0    0 -0.00000000000E+00 -0.00000000000E+00 -0.45593999997E+02  0.45594000000E+02  0.51100000000E-03 0. -1.
    9900012    2    1    2    0    0 -0.26636708817E+02 -0.10877812605E+02 -0.28728468655E+02  0.50528856195E+02  0.29999988890E+02 0.  0.
         12    1    1    2    0    0  0.26636708817E+02  0.10877812605E+02  0.28728468655E+02  0.40659143805E+02  0.00000000000E+00 0. -1.
         11    1    3    3    0    0 -0.20819085599E+01 -0.12833674666E+02 -0.65358507331E+01  0.14551800361E+02  0.51100000000E-03 0. -1.
        -11    1    3    3    0    0 -0.49552555115E+01 -0.31193599737E+01  0.10888353546E+00  0.58563486674E+01  0.51100000000E-03 0.  1.
         12    1    3    3    0    0 -0.19599544746E+02  0.50752220342E+01 -0.22301501458E+02  0.30120707167E+02  0.00000000000E+00 0. -1.
</event>
<event>
 7    1  0.2575978E-011  0.5052885E+02  0.7816164E-02  0.1300439E+00
        -11   -1    0    0    0    0  0.00000000000E+00  0.00000000000E+00  0.45593999997E+02  0.45594000000E+02  0.51100000000E-03 0.  1.
         11   -1    0    0    0    0 -0.00000000000E+00 -0.00000000000E+00 -0.45593999997E+02  0.45594000000E+02  0.51100000000E-03 0. -1.
    9900012    2    1    2    0    0  0.32404176966E+02 -0.17359124946E+02  0.17372282149E+02  0.50528854770E+02  0.29999984560E+02 0.  0.
         12    1    1    2    0    0 -0.32404176966E+02  0.17359124946E+02 -0.17372282149E+02  0.40659145230E+02  0.00000000000E+00 0. -1.
         11    1    3    3    0    0  0.38684369423E+01 -0.13749325099E+02  0.12769791284E+02  0.19159235756E+02  0.51100000000E-03 0.  1.
        -11    1    3    3    0    0  0.61705182648E+01 -0.59132000751E+01  0.12162472017E+01  0.86325250247E+01  0.51100000000E-03 0. -1.
        -12    1    3    3    0    0  0.22365221759E+02  0.23034002279E+01  0.33862436630E+01  0.22737093990E+02  0.00000000000E+00 0.  1.
</event>
<event>
 7    1  0.2575978E-011  0.5052898E+02  0.7816164E-02  0.1300438E+00
        -11   -1    0    0    0    0  0.00000000000E+00  0.00000000000E+00  0.45593999997E+02  0.45594000000E+02  0.51100000000E-03 0.  1.
         11   -1    0    0    0    0 -0.00000000000E+00 -0.00000000000E+00 -0.45593999997E+02  0.45594000000E+02  0.51100000000E-03 0. -1.
    9900012    2    1    2    0    0  0.36416756698E+02  0.14522062511E+02  0.10774302044E+02  0.50528978215E+02  0.30000359779E+02 0.  0.
         12    1    1    2    0    0 -0.36416756698E+02 -0.14522062511E+02 -0.10774302044E+02  0.40659021785E+02  0.00000000000E+00 0. -1.
         11    1    3    3    0    0  0.23394187214E+00  0.52152185477E+01  0.52225518710E+01  0.73843267537E+01  0.51100000000E-03 0. -1.
        -11    1    3    3    0    0 -0.70342356651E+00  0.41120839025E+00 -0.39468458096E+01  0.40300730961E+01  0.51100000000E-03 0.  1.
        -12    1    3    3    0    0  0.36886238393E+02  0.88956355730E+01  0.94985959830E+01  0.39114578365E+02  0.00000000000E+00 0.  1.
</event>
<event>
 7    1  0.2575978E-011  0.5052887E+02  0.7816164E-02  0.1300439E+00
        -11   -1    0    0    0    0  0.00000000000E+00  0.00000000000E+00  0.45593999997E+02  0.45594000000E+02  0.51100000000E-03 0.  1.
         11   -1    0    0    0    0 -0.00000000000E+00 -0.00000000000E+00 -0.45593999997E+02  0.45594000000E+02  0.51100000000E-03 0. -1.
    9900012    2    1    2    0    0 -0.40652975685E+01 -0.28395285775E+02  0.28815730693E+02  0.50528865308E+02  0.30000016590E+02 0.  0.
         12    1    1    2    0    0  0.40652975685E+01  0.28395285775E+02 -0.28815730693E+02  0.40659134692E+02  0.00000000000E+00 0. -1.
         11    1    3    3    0    0 -0.62857635739E+01 -0.59671114695E+01 -0.82919687277E+00  0.87065958165E+01  0.51100000000E-03 0. -1.
        -11    1    3    3    0    0 -0.10268175475E+00 -0.11291033475E+02  0.14072060512E+01  0.11378849222E+02  0.51100000000E-03 0.  1.
        -12    1    3    3    0    0  0.23231477602E+01 -0.11137140830E+02  0.28237721515E+02  0.30443420270E+02  0.00000000000E+00 0.  1.
</event>
<event>
 7    1  0.2575978E-011  0.5052891E+02  0.7816164E-02  0.1300439E+00
        -11   -1    0    0    0    0  0.00000000000E+00  0.00000000000E+00  0.45593999997E+02  0.45594000000E+02  0.51100000000E-03 0.  1.
         11   -1    0    0    0    0 -0.00000000000E+00 -0.00000000000E+00 -0.45593999997E+02  0.45594000000E+02  0.51100000000E-03 0. -1.
    9900012    2    1    2    0    0 -0.79524281421E+01  0.39845428268E+02 -0.15041655628E+01  0.50528907766E+02  0.30000145645E+02 0.  0.
         12    1    1    2    0    0  0.79524281421E+01 -0.39845428268E+02  0.15041655628E+01  0.40659092234E+02  0.00000000000E+00 0. -1.
         11    1    3    3    0    0 -0.87678366787E+01  0.12894854582E+02 -0.13582472395E+01  0.15652382264E+02  0.51100000000E-03 0. -1.
        -11    1    3    3    0    0 -0.66644550663E+01  0.12099977469E+02  0.84139668837E+01  0.16174648530E+02  0.51100000000E-03 0.  1.
        -12    1    3    3    0    0  0.74798636029E+01  0.14850596217E+02 -0.85598852069E+01  0.18701876972E+02  0.00000000000E+00 0.  1.
</event>
<event>
 7    1  0.2575978E-011  0.5052886E+02  0.7816164E-02  0.1300439E+00
        -11   -1    0    0    0    0  0.00000000000E+00  0.00000000000E+00  0.45593999997E+02  0.45594000000E+02  0.51100000000E-03 0.  1.
         11   -1    0    0    0    0 -0.00000000000E+00 -0.00000000000E+00 -0.45593999997E+02  0.45594000000E+02  0.51100000000E-03 0. -1.
    9900012    2    1    2    0    0 -0.14322759971E+02  0.34653724641E+02  0.15720806229E+02  0.50528857939E+02  0.29999994190E+02 0.  0.
         12    1    1    2    0    0  0.14322759971E+02 -0.34653724641E+02 -0.15720806229E+02  0.40659142061E+02  0.00000000000E+00 0. -1.
         11    1    3    3    0    0  0.13850676742E+01  0.50337563217E+00 -0.14253655527E-02  0.14737034240E+01  0.51100000000E-03 0. -1.
        -11    1    3    3    0    0 -0.63462964652E+01  0.89795231781E+01 -0.76975676843E+01  0.13422364317E+02  0.51100000000E-03 0.  1.
         12    1    3    3    0    0 -0.93615311802E+01  0.25170825831E+02  0.23419799279E+02  0.35632790198E+02  0.00000000000E+00 0. -1.
</event>
<event>
 7    1  0.2575978E-011  0.5052887E+02  0.7816164E-02  0.1300439E+00
        -11   -1    0    0    0    0  0.00000000000E+00  0.00000000000E+00  0.45593999997E+02  0.45594000000E+02  0.51100000000E-03 0.  1.
         11   -1    0    0    0    0 -0.00000000000E+00 -0.00000000000E+00 -0.45593999997E+02  0.45594000000E+02  0.51100000000E-03 0. -1.
    9900012    2    1    2    0    0  0.39713771700E+02 -0.19748527682E+01  0.84900647802E+01  0.50528869340E+02  0.30000028845E+02 0.  0.
         12    1    1    2    0    0 -0.39713771700E+02  0.19748527682E+01 -0.84900647802E+01  0.40659130660E+02  0.00000000000E+00 0. -1.
         11    1    3    3    0    0  0.11172853229E+02 -0.60360161928E+00  0.47762267907E+01  0.12165908384E+02  0.51100000000E-03 0. -1.
        -11    1    3    3    0    0  0.82971565321E+01 -0.92396561419E+01  0.97862327924E+01  0.15810895125E+02  0.51100000000E-03 0.  1.
         12    1    3    3    0    0  0.20243761939E+02  0.78684049930E+01 -0.60723948030E+01  0.22552065831E+02  0.00000000000E+00 0. -1.
</event>
<event>
 7    1  0.2575978E-011  0.5052885E+02  0.7816164E-02  0.1300439E+00
        -11   -1    0    0    0    0  0.00000000000E+00  0.00000000000E+00  0.45593999997E+02  0.45594000000E+02  0.51100000000E-03 0.  1.
         11   -1    0    0    0    0 -0.00000000000E+00 -0.00000000000E+00 -0.45593999997E+02  0.45594000000E+02  0.51100000000E-03 0. -1.
    9900012    2    1    2    0    0  0.37055661681E+02  0.28055768052E+01  0.16497659968E+02  0.50528854556E+02  0.29999983910E+02 0.  0.
         12    1    1    2    0    0 -0.37055661681E+02 -0.28055768052E+01 -0.16497659968E+02  0.40659145444E+02  0.00000000000E+00 0. -1.
         11    1    3    3    0    0  0.12618644266E+02  0.28203390255E+01  0.10859534582E+02  0.16885318680E+02  0.51100000000E-03 0. -1.
        -11    1    3    3    0    0  0.11711222246E+02  0.41716251519E+01  0.13304031517E+02  0.18208581432E+02  0.51100000000E-03 0.  1.
         12    1    3    3    0    0  0.12725795168E+02 -0.41863873722E+01 -0.76659061308E+01  0.15434954444E+02  0.00000000000E+00 0. -1.
</event>
<event>
 7    1  0.2575978E-011  0.5052886E+02  0.7816164E-02  0.1300439E+00
        -11   -1    0    0    0    0  0.00000000000E+00  0.00000000000E+00  0.45593999997E+02  0.45594000000E+02  0.51100000000E-03 0. -1.
         11   -1    0    0    0    0 -0.00000000000E+00 -0.00000000000E+00 -0.45593999997E+02  0.45594000000E+02  0.51100000000E-03 0.  1.
    9900012    2    1    2    0    0 -0.29592200894E+02 -0.27179372994E+02  0.62248715776E+01  0.50528859622E+02  0.29999999308E+02 0.  0.
         12    1    1    2    0    0  0.29592200894E+02  0.27179372994E+02 -0.62248715776E+01  0.40659140378E+02  0.00000000000E+00 0. -1.
         11    1    3    3    0    0  0.36503806004E+01 -0.18768132066E+00 -0.24582430633E+01  0.44049360978E+01  0.51100000000E-03 0. -1.
        -11    1    3    3    0    0 -0.13666604223E+02 -0.19895354763E+02  0.18458757758E+01  0.24207611815E+02  0.51100000000E-03 0.  1.
        -12    1    3    3    0    0 -0.19575977271E+02 -0.70963369100E+01  0.68372388652E+01  0.21916311710E+02  0.00000000000E+00 0.  1.
</event>
<event>
 7    1  0.2575978E-011  0.5052888E+02  0.7816164E-02  0.1300439E+00
        -11   -1    0    0    0    0  0.00000000000E+00  0.00000000000E+00  0.45593999997E+02  0.45594000000E+02  0.51100000000E-03 0.  1.
         11   -1    0    0    0    0 -0.00000000000E+00 -0.00000000000E+00 -0.45593999997E+02  0.45594000000E+02  0.51100000000E-03 0. -1.
    9900012    2    1    2    0    0 -0.16787287815E+02 -0.36373225046E+02  0.69526742715E+01  0.50528877875E+02  0.30000054789E+02 0.  0.
         12    1    1    2    0    0  0.16787287815E+02  0.36373225046E+02 -0.69526742715E+01  0.40659122125E+02  0.00000000000E+00 0. -1.
         11    1    3    3    0    0 -0.10472914520E+02 -0.35224359306E+01  0.51547996803E+00  0.11061429080E+02  0.51100000000E-03 0. -1.
        -11    1    3    3    0    0 -0.56086529117E+00 -0.55181229775E+01  0.98739483451E+01  0.11325153741E+02  0.51100000000E-03 0.  1.
        -12    1    3    3    0    0 -0.57535080036E+01 -0.27332666138E+02 -0.34367540416E+01  0.28142295054E+02  0.00000000000E+00 0.  1.
</event>
<event>
 7    1  0.2575978E-011  0.5052885E+02  0.7816164E-02  0.1300439E+00
        -11   -1    0    0    0    0  0.00000000000E+00  0.00000000000E+00  0.45593999997E+02  0.45594000000E+02  0.51100000000E-03 0.  1.
         11   -1    0    0    0    0 -0.00000000000E+00 -0.00000000000E+00 -0.45593999997E+02  0.45594000000E+02  0.51100000000E-03 0. -1.
    9900012    2    1    2    0    0  0.59251739023E+01  0.24462716205E+02  0.31931707695E+02  0.50528854335E+02  0.29999983236E+02 0.  0.
         12    1    1    2    0    0 -0.59251739023E+01 -0.24462716205E+02 -0.31931707695E+02  0.40659145665E+02  0.00000000000E+00 0. -1.
         11    1    3    3    0    0  0.32021669959E+01  0.86652564112E+00  0.14572161122E+01  0.36232884532E+01  0.51100000000E-03 0. -1.
        -11    1    3    3    0    0  0.12411331236E+02  0.11246657220E+02  0.25370021238E+02  0.30400105584E+02  0.51100000000E-03 0.  1.
        -12    1    3    3    0    0 -0.96883243291E+01  0.12349533344E+02  0.51044703452E+01  0.16505460297E+02  0.00000000000E+00 0.  1.
</event>
<event>
 7    1  0.2575978E-011  0.5052886E+02  0.7816164E-02  0.1300439E+00
        -11   -1    0    0    0    0  0.00000000000E+00  0.00000000000E+00  0.45593999997E+02  0.45594000000E+02  0.51100000000E-03 0. -1.
         11   -1    0    0    0    0 -0.00000000000E+00 -0.00000000000E+00 -0.45593999997E+02  0.45594000000E+02  0.51100000000E-03 0.  1.
    9900012    2    1    2    0    0  0.74085354805E+01 -0.15810670650E+02 -0.36719233427E+02  0.50528858250E+02  0.29999995136E+02 0.  0.
         12    1    1    2    0    0 -0.74085354805E+01  0.15810670650E+02  0.36719233427E+02  0.40659141750E+02  0.00000000000E+00 0. -1.
         11    1    3    3    0    0  0.85222446614E+01 -0.87275570702E+01 -0.34977043184E+01  0.12689871640E+02  0.51100000000E-03 0. -1.
        -11    1    3    3    0    0  0.68395499995E+01 -0.48490624835E+01 -0.92514010023E+01  0.12485242166E+02  0.51100000000E-03 0.  1.
        -12    1    3    3    0    0 -0.79532591804E+01 -0.22340510962E+01 -0.23970128107E+02  0.25353744444E+02  0.00000000000E+00 0.  1.
</event>
<event>
 7    1  0.2575978E-011  0.5052892E+02  0.7816164E-02  0.1300439E+00
        -11   -1    0    0    0    0  0.00000000000E+00  0.00000000000E+00  0.45593999997E+02  0.45594000000E+02  0.51100000000E-03 0.  1.
         11   -1    0    0    0    0 -0.00000000000E+00 -0.00000000000E+00 -0.45593999997E+02  0.45594000000E+02  0.51100000000E-03 0. -1.
    9900012    2    1    2    0    0  0.22914585512E+02  0.27147711982E+02 -0.19775851882E+02  0.50528919677E+02  0.30000181849E+02 0.  0.
         12    1    1    2    0    0 -0.22914585512E+02 -0.27147711982E+02  0.19775851882E+02  0.40659080323E+02  0.00000000000E+00 0. -1.
         11    1    3    3    0    0  0.44601607749E+01 -0.30250245782E+01  0.20487873083E+01  0.57655301172E+01  0.51100000000E-03 0.  1.
        -11    1    3    3    0    0  0.46085186880E+01  0.35445147042E+01  0.23043039442E+01  0.62539464272E+01  0.51100000000E-03 0. -1.
         12    1    3    3    0    0  0.13845906049E+02  0.26628221856E+02 -0.24128943135E+02  0.38509443132E+02  0.00000000000E+00 0. -1.
</event>
<event>
 7    1  0.2575978E-011  0.5052886E+02  0.7816164E-02  0.1300439E+00
        -11   -1    0    0    0    0  0.00000000000E+00  0.00000000000E+00  0.45593999997E+02  0.45594000000E+02  0.51100000000E-03 0. -1.
         11   -1    0    0    0    0 -0.00000000000E+00 -0.00000000000E+00 -0.45593999997E+02  0.45594000000E+02  0.51100000000E-03 0.  1.
    9900012    2    1    2    0    0 -0.13581552278E+02 -0.16342831862E+02 -0.34664375111E+02  0.50528860592E+02  0.30000002255E+02 0.  0.
         12    1    1    2    0    0  0.13581552278E+02  0.16342831862E+02  0.34664375111E+02  0.40659139408E+02  0.00000000000E+00 0. -1.
         11    1    3    3    0    0 -0.95312283313E+01  0.23368374116E+01 -0.94491925880E+01  0.13623228818E+02  0.51100000000E-03 0. -1.
        -11    1    3    3    0    0  0.38252071962E+01  0.16294438580E+01 -0.88823081860E+00  0.42516175308E+01  0.51100000000E-03 0.  1.
        -12    1    3    3    0    0 -0.78755311434E+01 -0.20309113131E+02 -0.24326951705E+02  0.32654014243E+02  0.00000000000E+00 0.  1.
</event>
<event>
 7    1  0.2575978E-011  0.5052886E+02  0.7816164E-02  0.1300439E+00
        -11   -1    0    0    0    0  0.00000000000E+00  0.00000000000E+00  0.45593999997E+02  0.45594000000E+02  0.51100000000E-03 0. -1.
         11   -1    0    0    0    0 -0.00000000000E+00 -0.00000000000E+00 -0.45593999997E+02  0.45594000000E+02  0.51100000000E-03 0.  1.
    9900012    2    1    2    0    0  0.39783852315E+02  0.48298314744E+01 -0.68617414481E+01  0.50528859911E+02  0.30000000186E+02 0.  0.
         12    1    1    2    0    0 -0.39783852315E+02 -0.48298314744E+01  0.68617414481E+01  0.40659140089E+02  0.00000000000E+00 0. -1.
         11    1    3    3    0    0  0.15903727544E+02  0.97526229663E+00 -0.11234884285E+02  0.19496212747E+02  0.51100000000E-03 0. -1.
        -11    1    3    3    0    0  0.21425639688E+02 -0.16760031209E+01 -0.27726437326E+01  0.21669208016E+02  0.51100000000E-03 0.  1.
         12    1    3    3    0    0  0.24544850831E+01  0.55305722988E+01  0.71457865698E+01  0.93634391479E+01  0.00000000000E+00 0. -1.
</event>
<event>
 7    1  0.2575978E-011  0.5052886E+02  0.7816164E-02  0.1300439E+00
        -11   -1    0    0    0    0  0.00000000000E+00  0.00000000000E+00  0.45593999997E+02  0.45594000000E+02  0.51100000000E-03 0.  1.
         11   -1    0    0    0    0 -0.00000000000E+00 -0.00000000000E+00 -0.45593999997E+02  0.45594000000E+02  0.51100000000E-03 0. -1.
    9900012    2    1    2    0    0 -0.50840353717E+01 -0.19806259692E+02  0.35142999550E+02  0.50528858888E+02  0.29999997075E+02 0.  0.
         12    1    1    2    0    0  0.50840353717E+01  0.19806259692E+02 -0.35142999550E+02  0.40659141112E+02  0.00000000000E+00 0. -1.
         11    1    3    3    0    0 -0.57209615360E+01  0.23060939662E+01  0.21173701857E+02  0.22053868615E+02  0.51100000000E-03 0. -1.
        -11    1    3    3    0    0 -0.57424508919E+00 -0.11187954155E+02  0.13404125743E+02  0.17469134575E+02  0.51100000000E-03 0.  1.
        -12    1    3    3    0    0  0.12111712535E+01 -0.10924399503E+02  0.56517194956E+00  0.11005855698E+02  0.00000000000E+00 0.  1.
</event>
<event>
 7    1  0.2575978E-011  0.5052886E+02  0.7816164E-02  0.1300439E+00
        -11   -1    0    0    0    0  0.00000000000E+00  0.00000000000E+00  0.45593999997E+02  0.45594000000E+02  0.51100000000E-03 0.  1.
         11   -1    0    0    0    0 -0.00000000000E+00 -0.00000000000E+00 -0.45593999997E+02  0.45594000000E+02  0.51100000000E-03 0. -1.
    9900012    2    1    2    0    0 -0.85791067533E+01  0.37399579567E+02  0.13447525942E+02  0.50528861071E+02  0.30000003713E+02 0.  0.
         12    1    1    2    0    0  0.85791067533E+01 -0.37399579567E+02 -0.13447525942E+02  0.40659138929E+02  0.00000000000E+00 0. -1.
         11    1    3    3    0    0 -0.92735455581E+01  0.47960528127E+01 -0.39046421600E+01  0.11146613856E+02  0.51100000000E-03 0. -1.
        -11    1    3    3    0    0 -0.44094478444E+01  0.10571977418E+02  0.11025857174E+02  0.15899039704E+02  0.51100000000E-03 0.  1.
        -12    1    3    3    0    0  0.51038866492E+01  0.22031549335E+02  0.63263109284E+01  0.23483207511E+02  0.00000000000E+00 0.  1.
</event>
<event>
 7    1  0.2575978E-011  0.5052886E+02  0.7816164E-02  0.1300439E+00
        -11   -1    0    0    0    0  0.00000000000E+00  0.00000000000E+00  0.45593999997E+02  0.45594000000E+02  0.51100000000E-03 0.  1.
         11   -1    0    0    0    0 -0.00000000000E+00 -0.00000000000E+00 -0.45593999997E+02  0.45594000000E+02  0.51100000000E-03 0. -1.
    9900012    2    1    2    0    0 -0.35317195728E+01  0.24567945747E+02  0.32204172567E+02  0.50528859182E+02  0.29999997968E+02 0.  0.
         12    1    1    2    0    0  0.35317195728E+01 -0.24567945747E+02 -0.32204172567E+02  0.40659140818E+02  0.00000000000E+00 0. -1.
         11    1    3    3    0    0  0.22626637760E+00  0.22455685874E+01 -0.18837433043E+01  0.29397727551E+01  0.51100000000E-03 0. -1.
        -11    1    3    3    0    0 -0.11944165099E+02  0.77754237327E+01  0.72661777606E+01  0.15997425844E+02  0.51100000000E-03 0.  1.
         12    1    3    3    0    0  0.81861791485E+01  0.14546953427E+02  0.26821738110E+02  0.31591660582E+02  0.00000000000E+00 0. -1.
</event>
<event>
 7    1  0.2575978E-011  0.5052886E+02  0.7816164E-02  0.1300439E+00
        -11   -1    0    0    0    0  0.00000000000E+00  0.00000000000E+00  0.45593999997E+02  0.45594000000E+02  0.51100000000E-03 0. -1.
         11   -1    0    0    0    0 -0.00000000000E+00 -0.00000000000E+00 -0.45593999997E+02  0.45594000000E+02  0.51100000000E-03 0.  1.
    9900012    2    1    2    0    0  0.36553683253E+02  0.93172852420E+01 -0.15171755137E+02  0.50528859360E+02  0.29999998509E+02 0.  0.
         12    1    1    2    0    0 -0.36553683253E+02 -0.93172852420E+01  0.15171755137E+02  0.40659140640E+02  0.00000000000E+00 0. -1.
         11    1    3    3    0    0 -0.18916004388E+00  0.21119894233E+01 -0.24660400178E+01  0.32523275476E+01  0.51100000000E-03 0.  1.
        -11    1    3    3    0    0  0.12269681617E+01 -0.71318589402E+01 -0.20067578891E+01  0.75097230508E+01  0.51100000000E-03 0. -1.
        -12    1    3    3    0    0  0.35515875136E+02  0.14337154759E+02 -0.10698957230E+02  0.39766808761E+02  0.00000000000E+00 0.  1.
</event>
<event>
 7    1  0.2575978E-011  0.5052885E+02  0.7816164E-02  0.1300439E+00
        -11   -1    0    0    0    0  0.00000000000E+00  0.00000000000E+00  0.45593999997E+02  0.45594000000E+02  0.51100000000E-03 0.  1.
         11   -1    0    0    0    0 -0.00000000000E+00 -0.00000000000E+00 -0.45593999997E+02  0.45594000000E+02  0.51100000000E-03 0. -1.
    9900012    2    1    2    0    0  0.18781018385E+02  0.23612873991E+02  0.27255672068E+02  0.50528854294E+02  0.29999983111E+02 0.  0.
         12    1    1    2    0    0 -0.18781018385E+02 -0.23612873991E+02 -0.27255672068E+02  0.40659145706E+02  0.00000000000E+00 0. -1.
         11    1    3    3    0    0  0.30460072614E+01  0.75990627441E+01  0.94258479732E+01  0.12484811777E+02  0.51100000000E-03 0. -1.
        -11    1    3    3    0    0 -0.16052674455E+01  0.15002769141E+02  0.13250700825E+02  0.20080862484E+02  0.51100000000E-03 0.  1.
         12    1    3    3    0    0  0.17340278569E+02  0.10110421058E+01  0.45791232697E+01  0.17963180033E+02  0.00000000000E+00 0. -1.
</event>
<event>
 7    1  0.2575978E-011  0.5052886E+02  0.7816164E-02  0.1300439E+00
        -11   -1    0    0    0    0  0.00000000000E+00  0.00000000000E+00  0.45593999997E+02  0.45594000000E+02  0.51100000000E-03 0.  1.
         11   -1    0    0    0    0 -0.00000000000E+00 -0.00000000000E+00 -0.45593999997E+02  0.45594000000E+02  0.51100000000E-03 0. -1.
    9900012    2    1    2    0    0  0.32951748046E+02  0.17791968595E+02  0.15836465797E+02  0.50528862101E+02  0.30000006841E+02 0.  0.
         12    1    1    2    0    0 -0.32951748046E+02 -0.17791968595E+02 -0.15836465797E+02  0.40659137899E+02  0.00000000000E+00 0. -1.
         11    1    3    3    0    0  0.14768337089E+00  0.23342596360E+00  0.17806589685E+01  0.18019557935E+01  0.51100000000E-03 0. -1.
        -11    1    3    3    0    0  0.27213085514E+02  0.12104908548E+02 -0.30329202109E+01  0.29937926438E+02  0.51100000000E-03 0.  1.
        -12    1    3    3    0    0  0.55909791617E+01  0.54536340835E+01  0.17088727039E+02  0.18788979869E+02  0.00000000000E+00 0.  1.
</event>
<event>
 7    1  0.2575978E-011  0.5052889E+02  0.7816164E-02  0.1300439E+00
        -11   -1    0    0    0    0  0.00000000000E+00  0.00000000000E+00  0.45593999997E+02  0.45594000000E+02  0.51100000000E-03 0.  1.
         11   -1    0    0    0    0 -0.00000000000E+00 -0.00000000000E+00 -0.45593999997E+02  0.45594000000E+02  0.51100000000E-03 0. -1.
    9900012    2    1    2    0    0 -0.18669359535E+02  0.25579608293E+02  0.25501009709E+02  0.50528894721E+02  0.30000105994E+02 0.  0.
         12    1    1    2    0    0  0.18669359535E+02 -0.25579608293E+02 -0.25501009709E+02  0.40659105279E+02  0.00000000000E+00 0. -1.
         11    1    3    3    0    0  0.15916719271E+01 -0.36557256724E+00  0.47836673995E+01  0.50547538888E+01  0.51100000000E-03 0. -1.
        -11    1    3    3    0    0 -0.96886613509E+01 -0.25237126516E+01  0.65440617645E+01  0.11960937629E+02  0.51100000000E-03 0.  1.
         12    1    3    3    0    0 -0.10572370111E+02  0.28468893512E+02  0.14173280545E+02  0.33513203204E+02  0.00000000000E+00 0. -1.
</event>
<event>
 7    1  0.2575978E-011  0.5052886E+02  0.7816164E-02  0.1300439E+00
        -11   -1    0    0    0    0  0.00000000000E+00  0.00000000000E+00  0.45593999997E+02  0.45594000000E+02  0.51100000000E-03 0.  1.
         11   -1    0    0    0    0 -0.00000000000E+00 -0.00000000000E+00 -0.45593999997E+02  0.45594000000E+02  0.51100000000E-03 0. -1.
    9900012    2    1    2    0    0  0.28713112305E+02  0.18302592873E+02  0.22220206630E+02  0.50528864412E+02  0.30000013867E+02 0.  0.
         12    1    1    2    0    0 -0.28713112305E+02 -0.18302592873E+02 -0.22220206630E+02  0.40659135588E+02  0.00000000000E+00 0. -1.
         11    1    3    3    0    0  0.17262577885E+02  0.44625675606E+01  0.50642232388E+01  0.18535303119E+02  0.51100000000E-03 0.  1.
        -11    1    3    3    0    0  0.74998525054E+01  0.59752761274E+01 -0.29606958448E+01  0.10035807519E+02  0.51100000000E-03 0. -1.
        -12    1    3    3    0    0  0.39506819147E+01  0.78647491852E+01  0.20116679236E+02  0.21957753774E+02  0.00000000000E+00 0.  1.
</event>
<event>
 7    1  0.2575978E-011  0.5052885E+02  0.7816164E-02  0.1300439E+00
        -11   -1    0    0    0    0  0.00000000000E+00  0.00000000000E+00  0.45593999997E+02  0.45594000000E+02  0.51100000000E-03 0.  1.
         11   -1    0    0    0    0 -0.00000000000E+00 -0.00000000000E+00 -0.45593999997E+02  0.45594000000E+02  0.51100000000E-03 0. -1.
    9900012    2    1    2    0    0  0.10574256764E+02 -0.38433272923E+02  0.80147051822E+01  0.50528845154E+02  0.29999955329E+02 0.  0.
         12    1    1    2    0    0 -0.10574256764E+02  0.38433272923E+02 -0.80147051822E+01  0.40659154846E+02  0.00000000000E+00 0. -1.
         11    1    3    3    0    0 -0.83934477354E+00 -0.28507655923E+01 -0.68109560417E+00  0.30488121612E+01  0.51100000000E-03 0. -1.
        -11    1    3    3    0    0  0.10363059949E+02 -0.39265671865E+02  0.31392047782E+01  0.40731322166E+02  0.51100000000E-03 0.  1.
         12    1    3    3    0    0  0.10505415884E+01  0.36831645344E+01  0.55565960082E+01  0.67487108262E+01  0.00000000000E+00 0. -1.
</event>
<event>
 7    1  0.2575978E-011  0.5052887E+02  0.7816164E-02  0.1300439E+00
        -11   -1    0    0    0    0  0.00000000000E+00  0.00000000000E+00  0.45593999997E+02  0.45594000000E+02  0.51100000000E-03 0. -1.
         11   -1    0    0    0    0 -0.00000000000E+00 -0.00000000000E+00 -0.45593999997E+02  0.45594000000E+02  0.51100000000E-03 0.  1.
    9900012    2    1    2    0    0  0.40622763566E+02 -0.17129345110E+01  0.14659868956E+00  0.50528873650E+02  0.30000041947E+02 0.  0.
         12    1    1    2    0    0 -0.40622763566E+02  0.17129345110E+01 -0.14659868956E+00  0.40659126350E+02  0.00000000000E+00 0. -1.
         11    1    3    3    0    0  0.21832720701E+02  0.86657397851E+01  0.30660082762E+01  0.23688882334E+02  0.51100000000E-03 0. -1.
        -11    1    3    3    0    0  0.15044931201E+02 -0.30269742679E+01 -0.78404139343E+01  0.17233241685E+02  0.51100000000E-03 0.  1.
         12    1    3    3    0    0  0.37451116639E+01 -0.73517000282E+01  0.49210043477E+01  0.96067496309E+01  0.00000000000E+00 0. -1.
</event>
<event>
 7    1  0.2575978E-011  0.5052886E+02  0.7816164E-02  0.1300439E+00
        -11   -1    0    0    0    0  0.00000000000E+00  0.00000000000E+00  0.45593999997E+02  0.45594000000E+02  0.51100000000E-03 0.  1.
         11   -1    0    0    0    0 -0.00000000000E+00 -0.00000000000E+00 -0.45593999997E+02  0.45594000000E+02  0.51100000000E-03 0. -1.
    9900012    2    1    2    0    0  0.21680200081E+02 -0.11766844589E+02  0.32321442749E+02  0.50528863652E+02  0.30000011557E+02 0.  0.
         12    1    1    2    0    0 -0.21680200081E+02  0.11766844589E+02 -0.32321442749E+02  0.40659136348E+02  0.00000000000E+00 0. -1.
         11    1    3    3    0    0  0.20940574597E+02 -0.10675222516E+02  0.16299013393E+02  0.28602899819E+02  0.51100000000E-03 0. -1.
        -11    1    3    3    0    0  0.65985944745E+01 -0.30469764776E+01  0.13341066772E+02  0.15192418424E+02  0.51100000000E-03 0.  1.
         12    1    3    3    0    0 -0.58589689900E+01  0.19553544040E+01  0.26813625841E+01  0.67335454093E+01  0.00000000000E+00 0. -1.
</event>
<event>
 7    1  0.2575978E-011  0.5052883E+02  0.7816164E-02  0.1300439E+00
        -11   -1    0    0    0    0  0.00000000000E+00  0.00000000000E+00  0.45593999997E+02  0.45594000000E+02  0.51100000000E-03 0.  1.
         11   -1    0    0    0    0 -0.00000000000E+00 -0.00000000000E+00 -0.45593999997E+02  0.45594000000E+02  0.51100000000E-03 0. -1.
    9900012    2    1    2    0    0 -0.37798544226E+02  0.10145384014E+02  0.11023135004E+02  0.50528828000E+02  0.29999903190E+02 0.  0.
         12    1    1    2    0    0  0.37798544226E+02 -0.10145384014E+02 -0.11023135004E+02  0.40659172000E+02  0.00000000000E+00 0. -1.
         11    1    3    3    0    0 -0.24055751774E+02  0.11947277513E+02 -0.36286431678E+00  0.26861651181E+02  0.51100000000E-03 0. -1.
        -11    1    3    3    0    0 -0.15597716889E+02 -0.31347447232E+01  0.46812176580E+01  0.16584004211E+02  0.51100000000E-03 0.  1.
         12    1    3    3    0    0  0.18549244378E+01  0.13328512244E+01  0.67047816632E+01  0.70831726089E+01  0.00000000000E+00 0. -1.
</event>
<event>
 7    1  0.2575978E-011  0.5052887E+02  0.7816164E-02  0.1300439E+00
        -11   -1    0    0    0    0  0.00000000000E+00  0.00000000000E+00  0.45593999997E+02  0.45594000000E+02  0.51100000000E-03 0.  1.
         11   -1    0    0    0    0 -0.00000000000E+00 -0.00000000000E+00 -0.45593999997E+02  0.45594000000E+02  0.51100000000E-03 0. -1.
    9900012    2    1    2    0    0  0.97779308341E+01 -0.55025529416E+01  0.39080419159E+02  0.50528865947E+02  0.30000018533E+02 0.  0.
         12    1    1    2    0    0 -0.97779308341E+01  0.55025529416E+01 -0.39080419159E+02  0.40659134053E+02  0.00000000000E+00 0. -1.
         11    1    3    3    0    0 -0.33152348122E+01  0.29770812657E+01 -0.15720451318E+01  0.47249466537E+01  0.51100000000E-03 0. -1.
        -11    1    3    3    0    0  0.82138273156E+01 -0.58927432101E+01  0.85794365622E+01  0.13258888102E+02  0.51100000000E-03 0.  1.
        -12    1    3    3    0    0  0.48793383307E+01 -0.25868909972E+01  0.32073027729E+02  0.32545031192E+02  0.00000000000E+00 0.  1.
</event>
<event>
 7    1  0.2575978E-011  0.5052886E+02  0.7816164E-02  0.1300439E+00
        -11   -1    0    0    0    0  0.00000000000E+00  0.00000000000E+00  0.45593999997E+02  0.45594000000E+02  0.51100000000E-03 0.  1.
         11   -1    0    0    0    0 -0.00000000000E+00 -0.00000000000E+00 -0.45593999997E+02  0.45594000000E+02  0.51100000000E-03 0. -1.
    9900012    2    1    2    0    0 -0.26717676385E+02  0.19745113916E+02  0.23440599107E+02  0.50528862756E+02  0.30000008832E+02 0.  0.
         12    1    1    2    0    0  0.26717676385E+02 -0.19745113916E+02 -0.23440599107E+02  0.40659137244E+02  0.00000000000E+00 0. -1.
         11    1    3    3    0    0 -0.13675650391E+02  0.41508221475E+01 -0.40646808803E+01  0.14858478019E+02  0.51100000000E-03 0. -1.
        -11    1    3    3    0    0  0.16398483945E+01  0.18399255126E+01  0.19285126363E+01  0.31294711851E+01  0.51100000000E-03 0.  1.
        -12    1    3    3    0    0 -0.14681874388E+02  0.13754366255E+02  0.25576767351E+02  0.32540913552E+02  0.00000000000E+00 0.  1.
</event>
<event>
 7    1  0.2575978E-011  0.5052887E+02  0.7816164E-02  0.1300439E+00
        -11   -1    0    0    0    0  0.00000000000E+00  0.00000000000E+00  0.45593999997E+02  0.45594000000E+02  0.51100000000E-03 0. -1.
         11   -1    0    0    0    0 -0.00000000000E+00 -0.00000000000E+00 -0.45593999997E+02  0.45594000000E+02  0.51100000000E-03 0.  1.
    9900012    2    1    2    0    0  0.39972166297E+02 -0.41381931892E+01  0.61859709082E+01  0.50528868708E+02  0.30000026925E+02 0.  0.
         12    1    1    2    0    0 -0.39972166297E+02  0.41381931892E+01 -0.61859709082E+01  0.40659131292E+02  0.00000000000E+00 0. -1.
         11    1    3    3    0    0  0.83702475013E+01  0.22322276599E+01 -0.27825618298E+01  0.90987105766E+01  0.51100000000E-03 0.  1.
        -11    1    3    3    0    0  0.32009901858E+02 -0.44547321699E+01  0.69847732787E-01  0.32318467393E+02  0.51100000000E-03 0. -1.
         12    1    3    3    0    0 -0.40798306234E+00 -0.19156886792E+01  0.88986850052E+01  0.91116907386E+01  0.00000000000E+00 0. -1.
</event>
<event>
 7    1  0.2575978E-011  0.5052886E+02  0.7816164E-02  0.1300439E+00
        -11   -1    0    0    0    0  0.00000000000E+00  0.00000000000E+00  0.45593999997E+02  0.45594000000E+02  0.51100000000E-03 0. -1.
         11   -1    0    0    0    0 -0.00000000000E+00 -0.00000000000E+00 -0.45593999997E+02  0.45594000000E+02  0.51100000000E-03 0.  1.
    9900012    2    1    2    0    0 -0.38401505416E+02  0.13279408789E+02 -0.14653322313E+01  0.50528861857E+02  0.30000006101E+02 0.  0.
         12    1    1    2    0    0  0.38401505416E+02 -0.13279408789E+02  0.14653322313E+01  0.40659138143E+02  0.00000000000E+00 0. -1.
         11    1    3    3    0    0 -0.84827989892E+01 -0.48138008438E+01  0.47423332596E+01  0.10845288482E+02  0.51100000000E-03 0. -1.
        -11    1    3    3    0    0 -0.43440478334E+01  0.22654785478E+01  0.55389706062E+01  0.73948184742E+01  0.51100000000E-03 0.  1.
        -12    1    3    3    0    0 -0.25574658593E+02  0.15827731085E+02 -0.11746636097E+02  0.32288754901E+02  0.00000000000E+00 0.  1.
</event>
<event>
 7    1  0.2575978E-011  0.5052886E+02  0.7816164E-02  0.1300439E+00
        -11   -1    0    0    0    0  0.00000000000E+00  0.00000000000E+00  0.45593999997E+02  0.45594000000E+02  0.51100000000E-03 0.  1.
         11   -1    0    0    0    0 -0.00000000000E+00 -0.00000000000E+00 -0.45593999997E+02  0.45594000000E+02  0.51100000000E-03 0. -1.
    9900012    2    1    2    0    0 -0.12689628576E+02  0.12015615043E+02  0.36711908401E+02  0.50528857157E+02  0.29999991816E+02 0.  0.
         12    1    1    2    0    0  0.12689628576E+02 -0.12015615043E+02 -0.36711908401E+02  0.40659142843E+02  0.00000000000E+00 0. -1.
         11    1    3    3    0    0  0.27663372171E+01  0.58078258437E+01  0.11090217062E+02  0.12820935121E+02  0.51100000000E-03 0. -1.
        -11    1    3    3    0    0 -0.48434457000E+01  0.54861460326E+01  0.26053821357E+02  0.27062120613E+02  0.51100000000E-03 0.  1.
        -12    1    3    3    0    0 -0.10612520093E+02  0.72164316656E+00 -0.43213001806E+00  0.10645801423E+02  0.00000000000E+00 0.  1.
</event>
<event>
 7    1  0.2575978E-011  0.5052886E+02  0.7816164E-02  0.1300439E+00
        -11   -1    0    0    0    0  0.00000000000E+00  0.00000000000E+00  0.45593999997E+02  0.45594000000E+02  0.51100000000E-03 0. -1.
         11   -1    0    0    0    0 -0.00000000000E+00 -0.00000000000E+00 -0.45593999997E+02  0.45594000000E+02  0.51100000000E-03 0.  1.
    9900012    2    1    2    0    0  0.15873336592E+02 -0.18272380359E+02 -0.32669910063E+02  0.50528859305E+02  0.29999998344E+02 0.  0.
         12    1    1    2    0    0 -0.15873336592E+02  0.18272380359E+02  0.32669910063E+02  0.40659140695E+02  0.00000000000E+00 0. -1.
         11    1    3    3    0    0  0.40352926265E+01  0.46472351693E+01  0.13951290971E+01  0.63108451699E+01  0.51100000000E-03 0. -1.
        -11    1    3    3    0    0  0.64338598984E+01 -0.41871179270E+01 -0.48006426453E+01  0.90538765065E+01  0.51100000000E-03 0.  1.
         12    1    3    3    0    0  0.54041840670E+01 -0.18732497601E+02 -0.29264396514E+02  0.35164137629E+02  0.00000000000E+00 0. -1.
</event>
<event>
 7    1  0.2575978E-011  0.5052886E+02  0.7816164E-02  0.1300439E+00
        -11   -1    0    0    0    0  0.00000000000E+00  0.00000000000E+00  0.45593999997E+02  0.45594000000E+02  0.51100000000E-03 0.  1.
         11   -1    0    0    0    0 -0.00000000000E+00 -0.00000000000E+00 -0.45593999997E+02  0.45594000000E+02  0.51100000000E-03 0. -1.
    9900012    2    1    2    0    0  0.20277261528E+02 -0.32249341870E+02  0.14211901507E+02  0.50528861660E+02  0.30000005501E+02 0.  0.
         12    1    1    2    0    0 -0.20277261528E+02  0.32249341870E+02 -0.14211901507E+02  0.40659138340E+02  0.00000000000E+00 0. -1.
         11    1    3    3    0    0  0.79969083198E+01 -0.55648160142E+00  0.44549301907E+01  0.91709660185E+01  0.51100000000E-03 0. -1.
        -11    1    3    3    0    0  0.45921793042E+01 -0.23779340637E+02  0.15664129159E+02  0.28842851705E+02  0.51100000000E-03 0.  1.
         12    1    3    3    0    0  0.76881739040E+01 -0.79135196317E+01 -0.59071578432E+01  0.12515043936E+02  0.00000000000E+00 0. -1.
</event>
<event>
 7    1  0.2575978E-011  0.5052886E+02  0.7816164E-02  0.1300439E+00
        -11   -1    0    0    0    0  0.00000000000E+00  0.00000000000E+00  0.45593999997E+02  0.45594000000E+02  0.51100000000E-03 0.  1.
         11   -1    0    0    0    0 -0.00000000000E+00 -0.00000000000E+00 -0.45593999997E+02  0.45594000000E+02  0.51100000000E-03 0. -1.
    9900012    2    1    2    0    0  0.14009249297E+02  0.20690897921E+02  0.32074807496E+02  0.50528860824E+02  0.30000002961E+02 0.  0.
         12    1    1    2    0    0 -0.14009249297E+02 -0.20690897921E+02 -0.32074807496E+02  0.40659139176E+02  0.00000000000E+00 0. -1.
         11    1    3    3    0    0 -0.73533627689E+01  0.30072307215E+01  0.34485374146E+01  0.86607038504E+01  0.51100000000E-03 0. -1.
        -11    1    3    3    0    0  0.10121172390E+02  0.90275502532E+01  0.52901586965E+01  0.14557492003E+02  0.51100000000E-03 0.  1.
         12    1    3    3    0    0  0.11241439676E+02  0.86561169462E+01  0.23336111385E+02  0.27310664971E+02  0.00000000000E+00 0. -1.
</event>
<event>
 7    1  0.2575978E-011  0.5052885E+02  0.7816164E-02  0.1300439E+00
        -11   -1    0    0    0    0  0.00000000000E+00  0.00000000000E+00  0.45593999997E+02  0.45594000000E+02  0.51100000000E-03 0. -1.
         11   -1    0    0    0    0 -0.00000000000E+00 -0.00000000000E+00 -0.45593999997E+02  0.45594000000E+02  0.51100000000E-03 0.  1.
    9900012    2    1    2    0    0  0.39239262282E+02 -0.31394971808E+01 -0.10177918046E+02  0.50528853886E+02  0.29999981872E+02 0.  0.
         12    1    1    2    0    0 -0.39239262282E+02  0.31394971808E+01  0.10177918046E+02  0.40659146114E+02  0.00000000000E+00 0. -1.
         11    1    3    3    0    0  0.22041102375E+02  0.11377937929E+02  0.40269505922E+00  0.24807858211E+02  0.51100000000E-03 0. -1.
        -11    1    3    3    0    0  0.48556828086E+01 -0.90671435886E+00 -0.33874800677E+01  0.59895582422E+01  0.51100000000E-03 0.  1.
         12    1    3    3    0    0  0.12342477098E+02 -0.13610720751E+02 -0.71931330375E+01  0.19731437433E+02  0.00000000000E+00 0. -1.
</event>
<event>
 7    1  0.2575978E-011  0.5052885E+02  0.7816164E-02  0.1300439E+00
        -11   -1    0    0    0    0  0.00000000000E+00  0.00000000000E+00  0.45593999997E+02  0.45594000000E+02  0.51100000000E-03 0.  1.
         11   -1    0    0    0    0 -0.00000000000E+00 -0.00000000000E+00 -0.45593999997E+02  0.45594000000E+02  0.51100000000E-03 0. -1.
    9900012    2    1    2    0    0 -0.13562212176E+02  0.23719541205E+02  0.30110065701E+02  0.50528852313E+02  0.29999977091E+02 0.  0.
         12    1    1    2    0    0  0.13562212176E+02 -0.23719541205E+02 -0.30110065701E+02  0.40659147687E+02  0.00000000000E+00 0. -1.
         11    1    3    3    0    0 -0.70246988830E+00  0.13851368173E+02  0.23970745954E+02  0.27693871634E+02  0.51100000000E-03 0. -1.
        -11    1    3    3    0    0 -0.94978359378E+01 -0.87596697727E+00  0.65484329673E+01  0.11569709600E+02  0.51100000000E-03 0.  1.
         12    1    3    3    0    0 -0.33619063504E+01  0.10744140009E+02 -0.40911322080E+00  0.11265271079E+02  0.00000000000E+00 0. -1.
</event>
<event>
 7    1  0.2575978E-011  0.5052886E+02  0.7816164E-02  0.1300439E+00
        -11   -1    0    0    0    0  0.00000000000E+00  0.00000000000E+00  0.45593999997E+02  0.45594000000E+02  0.51100000000E-03 0.  1.
         11   -1    0    0    0    0 -0.00000000000E+00 -0.00000000000E+00 -0.45593999997E+02  0.45594000000E+02  0.51100000000E-03 0. -1.
    9900012    2    1    2    0    0  0.14348578199E+02  0.37886733575E+02  0.34466053305E+01  0.50528863688E+02  0.30000011666E+02 0.  0.
         12    1    1    2    0    0 -0.14348578199E+02 -0.37886733575E+02 -0.34466053305E+01  0.40659136312E+02  0.00000000000E+00 0. -1.
         11    1    3    3    0    0  0.95218394973E+01  0.17701503856E+01  0.10296124823E+01  0.97395565569E+01  0.51100000000E-03 0. -1.
        -11    1    3    3    0    0 -0.37504391562E+01  0.24658367573E+01 -0.33319606097E+01  0.55900005853E+01  0.51100000000E-03 0.  1.
        -12    1    3    3    0    0  0.85771778577E+01  0.33650746432E+02  0.57489534578E+01  0.35199306546E+02  0.00000000000E+00 0.  1.
</event>
<event>
 7    1  0.2575978E-011  0.5052887E+02  0.7816164E-02  0.1300439E+00
        -11   -1    0    0    0    0  0.00000000000E+00  0.00000000000E+00  0.45593999997E+02  0.45594000000E+02  0.51100000000E-03 0. -1.
         11   -1    0    0    0    0 -0.00000000000E+00 -0.00000000000E+00 -0.45593999997E+02  0.45594000000E+02  0.51100000000E-03 0.  1.
    9900012    2    1    2    0    0 -0.15740071887E+02  0.35334700662E+02  0.12524945648E+02  0.50528865757E+02  0.30000017955E+02 0.  0.
         12    1    1    2    0    0  0.15740071887E+02 -0.35334700662E+02 -0.12524945648E+02  0.40659134243E+02  0.00000000000E+00 0. -1.
         11    1    3    3    0    0 -0.61592060967E+01  0.20641507661E+02  0.17645179509E+02  0.27845287185E+02  0.51100000000E-03 0. -1.
        -11    1    3    3    0    0 -0.11911780321E+02  0.73101306178E+01 -0.12609958388E+01  0.14032769892E+02  0.51100000000E-03 0.  1.
         12    1    3    3    0    0  0.23309145311E+01  0.73830623832E+01 -0.38592380218E+01  0.86508086798E+01  0.00000000000E+00 0. -1.
</event>
<event>
 7    1  0.2575978E-011  0.5052886E+02  0.7816164E-02  0.1300439E+00
        -11   -1    0    0    0    0  0.00000000000E+00  0.00000000000E+00  0.45593999997E+02  0.45594000000E+02  0.51100000000E-03 0.  1.
         11   -1    0    0    0    0 -0.00000000000E+00 -0.00000000000E+00 -0.45593999997E+02  0.45594000000E+02  0.51100000000E-03 0. -1.
    9900012    2    1    2    0    0 -0.12075964856E+02 -0.15051128419E+02  0.35788271014E+02  0.50528859133E+02  0.29999997821E+02 0.  0.
         12    1    1    2    0    0  0.12075964856E+02  0.15051128419E+02 -0.35788271014E+02  0.40659140867E+02  0.00000000000E+00 0. -1.
         11    1    3    3    0    0  0.52952040196E+01 -0.60966996496E+01  0.19874998674E+02  0.21452843746E+02  0.51100000000E-03 0. -1.
        -11    1    3    3    0    0 -0.78661506486E+01 -0.97760062258E+01  0.14903414621E+02  0.19482258374E+02  0.51100000000E-03 0.  1.
        -12    1    3    3    0    0 -0.95050182266E+01  0.82157745601E+00  0.10098577187E+01  0.95937570126E+01  0.00000000000E+00 0.  1.
</event>
<event>
 7    1  0.2575978E-011  0.5052886E+02  0.7816164E-02  0.1300439E+00
        -11   -1    0    0    0    0  0.00000000000E+00  0.00000000000E+00  0.45593999997E+02  0.45594000000E+02  0.51100000000E-03 0.  1.
         11   -1    0    0    0    0 -0.00000000000E+00 -0.00000000000E+00 -0.45593999997E+02  0.45594000000E+02  0.51100000000E-03 0. -1.
    9900012    2    1    2    0    0  0.32232467507E+02 -0.21611382834E+02  0.12131855661E+02  0.50528858945E+02  0.29999997249E+02 0.  0.
         12    1    1    2    0    0 -0.32232467507E+02  0.21611382834E+02 -0.12131855661E+02  0.40659141055E+02  0.00000000000E+00 0. -1.
         11    1    3    3    0    0  0.13248705096E+02  0.29689062500E+01 -0.98046120023E+00  0.13612637344E+02  0.51100000000E-03 0. -1.
        -11    1    3    3    0    0  0.80478025562E+01 -0.77247449422E+00  0.49277680950E+01  0.94681963164E+01  0.51100000000E-03 0.  1.
        -12    1    3    3    0    0  0.10935959855E+02 -0.23807814590E+02  0.81845487659E+01  0.27448025284E+02  0.00000000000E+00 0.  1.
</event>
<event>
 7    1  0.2575978E-011  0.5052885E+02  0.7816164E-02  0.1300439E+00
        -11   -1    0    0    0    0  0.00000000000E+00  0.00000000000E+00  0.45593999997E+02  0.45594000000E+02  0.51100000000E-03 0.  1.
         11   -1    0    0    0    0 -0.00000000000E+00 -0.00000000000E+00 -0.45593999997E+02  0.45594000000E+02  0.51100000000E-03 0. -1.
    9900012    2    1    2    0    0 -0.82276810113E+00  0.11094448934E+02  0.39107576055E+02  0.50528852820E+02  0.29999978632E+02 0.  0.
         12    1    1    2    0    0  0.82276810113E+00 -0.11094448934E+02 -0.39107576055E+02  0.40659147180E+02  0.00000000000E+00 0. -1.
         11    1    3    3    0    0 -0.20593694191E+01 -0.59812243021E+01  0.57889046435E+01  0.85748156708E+01  0.51100000000E-03 0. -1.
        -11    1    3    3    0    0  0.26877179702E+01 -0.15612312350E+01  0.16557525687E+02  0.16846748291E+02  0.51100000000E-03 0.  1.
         12    1    3    3    0    0 -0.14511166523E+01  0.18636904471E+02  0.16761145725E+02  0.25107288858E+02  0.00000000000E+00 0. -1.
</event>
<event>
 7    1  0.2575978E-011  0.5052883E+02  0.7816164E-02  0.1300439E+00
        -11   -1    0    0    0    0  0.00000000000E+00  0.00000000000E+00  0.45593999997E+02  0.45594000000E+02  0.51100000000E-03 0.  1.
         11   -1    0    0    0    0 -0.00000000000E+00 -0.00000000000E+00 -0.45593999997E+02  0.45594000000E+02  0.51100000000E-03 0. -1.
    9900012    2    1    2    0    0  0.10443222851E+02 -0.27196919734E+02  0.28362563249E+02  0.50528827104E+02  0.29999900464E+02 0.  0.
         12    1    1    2    0    0 -0.10443222851E+02  0.27196919734E+02 -0.28362563249E+02  0.40659172896E+02  0.00000000000E+00 0. -1.
         11    1    3    3    0    0  0.11244672172E+02 -0.27293003446E+02  0.15455394502E+02  0.33319962618E+02  0.51100000000E-03 0. -1.
        -11    1    3    3    0    0  0.47551811434E+01  0.24475556268E+01  0.61147520373E+01  0.81235748899E+01  0.51100000000E-03 0.  1.
        -12    1    3    3    0    0 -0.55566304642E+01 -0.23514719148E+01  0.67924167094E+01  0.90852895956E+01  0.00000000000E+00 0.  1.
</event>
<event>
 7    1  0.2575978E-011  0.5052886E+02  0.7816164E-02  0.1300439E+00
        -11   -1    0    0    0    0  0.00000000000E+00  0.00000000000E+00  0.45593999997E+02  0.45594000000E+02  0.51100000000E-03 0. -1.
         11   -1    0    0    0    0 -0.00000000000E+00 -0.00000000000E+00 -0.45593999997E+02  0.45594000000E+02  0.51100000000E-03 0.  1.
    9900012    2    1    2    0    0  0.22478285178E+02 -0.88493938544E+01 -0.32704438226E+02  0.50528863809E+02  0.30000012034E+02 0.  0.
         12    1    1    2    0    0 -0.22478285178E+02  0.88493938544E+01  0.32704438226E+02  0.40659136191E+02  0.00000000000E+00 0. -1.
         11    1    3    3    0    0  0.10093024052E+02 -0.10275928938E+02  0.21147220496E+00  0.14405157785E+02  0.51100000000E-03 0. -1.
        -11    1    3    3    0    0 -0.74429964805E+00 -0.10259517468E+01 -0.13685713241E+01  0.18653543050E+01  0.51100000000E-03 0.  1.
        -12    1    3    3    0    0  0.13129560774E+02  0.24524868306E+01 -0.31547339107E+02  0.34258351719E+02  0.00000000000E+00 0.  1.
</event>
<event>
 7    1  0.2575978E-011  0.5052888E+02  0.7816164E-02  0.1300439E+00
        -11   -1    0    0    0    0  0.00000000000E+00  0.00000000000E+00  0.45593999997E+02  0.45594000000E+02  0.51100000000E-03 0.  1.
         11   -1    0    0    0    0 -0.00000000000E+00 -0.00000000000E+00 -0.45593999997E+02  0.45594000000E+02  0.51100000000E-03 0. -1.
    9900012    2    1    2    0    0 -0.83431981398E+01  0.35646969028E+02  0.17687537982E+02  0.50528876105E+02  0.30000049408E+02 0.  0.
         12    1    1    2    0    0  0.83431981398E+01 -0.35646969028E+02 -0.17687537982E+02  0.40659123895E+02  0.00000000000E+00 0. -1.
         11    1    3    3    0    0 -0.41048918331E+01  0.55777503874E+01 -0.40269105654E+01  0.80110826552E+01  0.51100000000E-03 0. -1.
        -11    1    3    3    0    0 -0.31149045481E+01  0.11383475005E+02 -0.23461101019E+01  0.12032886869E+02  0.51100000000E-03 0.  1.
         12    1    3    3    0    0 -0.11234017587E+01  0.18685743635E+02  0.24060558649E+02  0.30484906581E+02  0.00000000000E+00 0. -1.
</event>
<event>
 7    1  0.2575978E-011  0.5052886E+02  0.7816164E-02  0.1300439E+00
        -11   -1    0    0    0    0  0.00000000000E+00  0.00000000000E+00  0.45593999997E+02  0.45594000000E+02  0.51100000000E-03 0.  1.
         11   -1    0    0    0    0 -0.00000000000E+00 -0.00000000000E+00 -0.45593999997E+02  0.45594000000E+02  0.51100000000E-03 0. -1.
    9900012    2    1    2    0    0 -0.50255333809E+01  0.27883344267E+02 -0.29162112325E+02  0.50528859963E+02  0.30000000344E+02 0.  0.
         12    1    1    2    0    0  0.50255333809E+01 -0.27883344267E+02  0.29162112325E+02  0.40659140037E+02  0.00000000000E+00 0. -1.
         11    1    3    3    0    0 -0.39255676262E+01  0.66843064727E+01  0.40337259919E+01  0.87384769753E+01  0.51100000000E-03 0. -1.
        -11    1    3    3    0    0 -0.19989098104E+01  0.14934058714E+02 -0.10854702402E+02  0.18570038088E+02  0.51100000000E-03 0.  1.
         12    1    3    3    0    0  0.89894405568E+00  0.62649790809E+01 -0.22341135915E+02  0.23220344899E+02  0.00000000000E+00 0. -1.
</event>
<event>
 7    1  0.2575978E-011  0.5052887E+02  0.7816164E-02  0.1300439E+00
        -11   -1    0    0    0    0  0.00000000000E+00  0.00000000000E+00  0.45593999997E+02  0.45594000000E+02  0.51100000000E-03 0.  1.
         11   -1    0    0    0    0 -0.00000000000E+00 -0.00000000000E+00 -0.45593999997E+02  0.45594000000E+02  0.51100000000E-03 0. -1.
    9900012    2    1    2    0    0  0.83570018149E+01 -0.12084242051E+02  0.37911694218E+02  0.50528868876E+02  0.30000027436E+02 0.  0.
         12    1    1    2    0    0 -0.83570018149E+01  0.12084242051E+02 -0.37911694218E+02  0.40659131124E+02  0.00000000000E+00 0. -1.
         11    1    3    3    0    0 -0.28980726668E+01 -0.10728268766E+02  0.26688147992E+02  0.28909372519E+02  0.51100000000E-03 0. -1.
        -11    1    3    3    0    0  0.24183444540E+01 -0.50574194903E+01 -0.13941934746E+01  0.57766476008E+01  0.51100000000E-03 0.  1.
         12    1    3    3    0    0  0.88367300277E+01  0.37014462057E+01  0.12617739700E+02  0.15842848757E+02  0.00000000000E+00 0. -1.
</event>
<event>
 7    1  0.2575978E-011  0.5052886E+02  0.7816164E-02  0.1300439E+00
        -11   -1    0    0    0    0  0.00000000000E+00  0.00000000000E+00  0.45593999997E+02  0.45594000000E+02  0.51100000000E-03 0. -1.
         11   -1    0    0    0    0 -0.00000000000E+00 -0.00000000000E+00 -0.45593999997E+02  0.45594000000E+02  0.51100000000E-03 0.  1.
    9900012    2    1    2    0    0  0.20494911151E+02 -0.23559417823E+02 -0.26039931825E+02  0.50528860797E+02  0.30000002879E+02 0.  0.
         12    1    1    2    0    0 -0.20494911151E+02  0.23559417823E+02  0.26039931825E+02  0.40659139203E+02  0.00000000000E+00 0. -1.
         11    1    3    3    0    0  0.34664512535E+01 -0.21082317659E+01 -0.28876418252E+00  0.40674697892E+01  0.51100000000E-03 0.  1.
        -11    1    3    3    0    0  0.18331527185E+02 -0.14272933956E+02 -0.40711567734E+01  0.23586772784E+02  0.51100000000E-03 0. -1.
        -12    1    3    3    0    0 -0.13030672875E+01 -0.71782521007E+01 -0.21680010870E+02  0.22874618224E+02  0.00000000000E+00 0.  1.
</event>
<event>
 7    1  0.2575978E-011  0.5052886E+02  0.7816164E-02  0.1300439E+00
        -11   -1    0    0    0    0  0.00000000000E+00  0.00000000000E+00  0.45593999997E+02  0.45594000000E+02  0.51100000000E-03 0.  1.
         11   -1    0    0    0    0 -0.00000000000E+00 -0.00000000000E+00 -0.45593999997E+02  0.45594000000E+02  0.51100000000E-03 0. -1.
    9900012    2    1    2    0    0 -0.25020243460E+01 -0.35839947405E+02  0.19036906689E+02  0.50528858689E+02  0.29999996472E+02 0.  0.
         12    1    1    2    0    0  0.25020243460E+01  0.35839947405E+02 -0.19036906689E+02  0.40659141311E+02  0.00000000000E+00 0. -1.
         11    1    3    3    0    0  0.18780782708E+01  0.16457556811E+01  0.19962559222E+01  0.31969872882E+01  0.51100000000E-03 0. -1.
        -11    1    3    3    0    0  0.65938025036E+01 -0.19215624712E+01  0.16985071986E+01  0.70749954595E+01  0.51100000000E-03 0.  1.
        -12    1    3    3    0    0 -0.10973905120E+02 -0.35564140615E+02  0.15342143568E+02  0.40256875941E+02  0.00000000000E+00 0.  1.
</event>
<event>
 7    1  0.2575978E-011  0.5052888E+02  0.7816164E-02  0.1300439E+00
        -11   -1    0    0    0    0  0.00000000000E+00  0.00000000000E+00  0.45593999997E+02  0.45594000000E+02  0.51100000000E-03 0.  1.
         11   -1    0    0    0    0 -0.00000000000E+00 -0.00000000000E+00 -0.45593999997E+02  0.45594000000E+02  0.51100000000E-03 0. -1.
    9900012    2    1    2    0    0  0.25544330301E+02  0.16498479771E+02  0.26989846094E+02  0.50528875102E+02  0.30000046361E+02 0.  0.
         12    1    1    2    0    0 -0.25544330301E+02 -0.16498479771E+02 -0.26989846094E+02  0.40659124898E+02  0.00000000000E+00 0. -1.
         11    1    3    3    0    0  0.25054304082E+01  0.30660992689E+01 -0.42559822319E+01  0.58130483636E+01  0.51100000000E-03 0. -1.
        -11    1    3    3    0    0 -0.58499747758E+00  0.37168213598E+01 -0.68561792149E+00  0.38245333395E+01  0.51100000000E-03 0.  1.
        -12    1    3    3    0    0  0.23623897370E+02  0.97155591422E+01  0.31931446247E+02  0.40891293399E+02  0.00000000000E+00 0.  1.
</event>
<event>
 7    1  0.2575978E-011  0.5052885E+02  0.7816164E-02  0.1300439E+00
        -11   -1    0    0    0    0  0.00000000000E+00  0.00000000000E+00  0.45593999997E+02  0.45594000000E+02  0.51100000000E-03 0.  1.
         11   -1    0    0    0    0 -0.00000000000E+00 -0.00000000000E+00 -0.45593999997E+02  0.45594000000E+02  0.51100000000E-03 0. -1.
    9900012    2    1    2    0    0 -0.90826644169E+01 -0.23917151427E+02  0.31601284102E+02  0.50528854876E+02  0.29999984882E+02 0.  0.
         12    1    1    2    0    0  0.90826644169E+01  0.23917151427E+02 -0.31601284102E+02  0.40659145124E+02  0.00000000000E+00 0. -1.
         11    1    3    3    0    0 -0.43632830065E+01 -0.45226276149E+01  0.34877658394E+01  0.71872741669E+01  0.51100000000E-03 0. -1.
        -11    1    3    3    0    0 -0.96095025200E+01 -0.15235692309E+02  0.40851018260E+01  0.18470433563E+02  0.51100000000E-03 0.  1.
         12    1    3    3    0    0  0.48901211096E+01 -0.41588315033E+01  0.24028416436E+02  0.24871147146E+02  0.00000000000E+00 0. -1.
</event>
<event>
 7    1  0.2575978E-011  0.5052885E+02  0.7816164E-02  0.1300439E+00
        -11   -1    0    0    0    0  0.00000000000E+00  0.00000000000E+00  0.45593999997E+02  0.45594000000E+02  0.51100000000E-03 0. -1.
         11   -1    0    0    0    0 -0.00000000000E+00 -0.00000000000E+00 -0.45593999997E+02  0.45594000000E+02  0.51100000000E-03 0.  1.
    9900012    2    1    2    0    0 -0.14787739949E+02 -0.29988003767E+02 -0.23134582531E+02  0.50528849350E+02  0.29999968083E+02 0.  0.
         12    1    1    2    0    0  0.14787739949E+02  0.29988003767E+02  0.23134582531E+02  0.40659150650E+02  0.00000000000E+00 0. -1.
         11    1    3    3    0    0 -0.85003637169E+01 -0.26893328530E+01 -0.97019151550E+01  0.13176336837E+02  0.51100000000E-03 0. -1.
        -11    1    3    3    0    0 -0.93338157840E+01 -0.95188422955E+01 -0.13963671410E+02  0.19305765855E+02  0.51100000000E-03 0.  1.
         12    1    3    3    0    0  0.30464395515E+01 -0.17779828618E+02  0.53100403434E+00  0.18046746657E+02  0.00000000000E+00 0. -1.
</event>
<event>
 7    1  0.2575978E-011  0.5052886E+02  0.7816164E-02  0.1300439E+00
        -11   -1    0    0    0    0  0.00000000000E+00  0.00000000000E+00  0.45593999997E+02  0.45594000000E+02  0.51100000000E-03 0.  1.
         11   -1    0    0    0    0 -0.00000000000E+00 -0.00000000000E+00 -0.45593999997E+02  0.45594000000E+02  0.51100000000E-03 0. -1.
    9900012    2    1    2    0    0  0.38961171738E+02 -0.10722987603E+00 -0.11626756669E+02  0.50528857460E+02  0.29999992736E+02 0.  0.
         12    1    1    2    0    0 -0.38961171738E+02  0.10722987603E+00  0.11626756669E+02  0.40659142540E+02  0.00000000000E+00 0. -1.
         11    1    3    3    0    0  0.11184003424E+02  0.56837523020E+01 -0.80102380645E+01  0.14884585548E+02  0.51100000000E-03 0. -1.
        -11    1    3    3    0    0  0.70149878695E+01  0.21762798880E+01 -0.10092475947E+02  0.12482160068E+02  0.51100000000E-03 0.  1.
        -12    1    3    3    0    0  0.20762180444E+02 -0.79672620660E+01  0.64759573419E+01  0.23162111845E+02  0.00000000000E+00 0.  1.
</event>
<event>
 7    1  0.2575978E-011  0.5052886E+02  0.7816164E-02  0.1300439E+00
        -11   -1    0    0    0    0  0.00000000000E+00  0.00000000000E+00  0.45593999997E+02  0.45594000000E+02  0.51100000000E-03 0. -1.
         11   -1    0    0    0    0 -0.00000000000E+00 -0.00000000000E+00 -0.45593999997E+02  0.45594000000E+02  0.51100000000E-03 0.  1.
    9900012    2    1    2    0    0 -0.37550696389E+02 -0.15571468345E+02  0.80004571751E+00  0.50528862050E+02  0.30000006687E+02 0.  0.
         12    1    1    2    0    0  0.37550696389E+02  0.15571468345E+02 -0.80004571751E+00  0.40659137950E+02  0.00000000000E+00 0. -1.
         11    1    3    3    0    0 -0.18959360282E+02 -0.37071530699E+01 -0.32285753750E+01  0.19586322406E+02  0.51100000000E-03 0.  1.
        -11    1    3    3    0    0 -0.53031314949E+00 -0.54842529873E+01 -0.69464860833E+01  0.88663370132E+01  0.51100000000E-03 0. -1.
         12    1    3    3    0    0 -0.18061022957E+02 -0.63800622879E+01  0.10975107176E+02  0.22076202630E+02  0.00000000000E+00 0. -1.
</event>
<event>
 7    1  0.2575978E-011  0.5052886E+02  0.7816164E-02  0.1300439E+00
        -11   -1    0    0    0    0  0.00000000000E+00  0.00000000000E+00  0.45593999997E+02  0.45594000000E+02  0.51100000000E-03 0. -1.
         11   -1    0    0    0    0 -0.00000000000E+00 -0.00000000000E+00 -0.45593999997E+02  0.45594000000E+02  0.51100000000E-03 0.  1.
    9900012    2    1    2    0    0 -0.15903848815E+02  0.16779345461E+02 -0.33446776858E+02  0.50528859288E+02  0.29999998292E+02 0.  0.
         12    1    1    2    0    0  0.15903848815E+02 -0.16779345461E+02  0.33446776858E+02  0.40659140712E+02  0.00000000000E+00 0. -1.
         11    1    3    3    0    0 -0.19501435948E+01 -0.44564752654E+01 -0.13994204469E+01  0.50617792998E+01  0.51100000000E-03 0. -1.
        -11    1    3    3    0    0 -0.10282252332E+02  0.20726425094E+01 -0.38419439735E+01  0.11170545812E+02  0.51100000000E-03 0.  1.
        -12    1    3    3    0    0 -0.36714528882E+01  0.19163178217E+02 -0.28205412438E+02  0.34296534176E+02  0.00000000000E+00 0.  1.
</event>
<event>
 7    1  0.2575978E-011  0.5052884E+02  0.7816164E-02  0.1300439E+00
        -11   -1    0    0    0    0  0.00000000000E+00  0.00000000000E+00  0.45593999997E+02  0.45594000000E+02  0.51100000000E-03 0.  1.
         11   -1    0    0    0    0 -0.00000000000E+00 -0.00000000000E+00 -0.45593999997E+02  0.45594000000E+02  0.51100000000E-03 0. -1.
    9900012    2    1    2    0    0  0.15599338382E+02  0.18573654923E+01  0.37501705184E+02  0.50528842899E+02  0.29999948474E+02 0.  0.
         12    1    1    2    0    0 -0.15599338382E+02 -0.18573654923E+01 -0.37501705184E+02  0.40659157101E+02  0.00000000000E+00 0. -1.
         11    1    3    3    0    0  0.62012166121E+01 -0.44913978700E+01  0.14753838539E+02  0.16622379318E+02  0.51100000000E-03 0. -1.
        -11    1    3    3    0    0  0.69496330987E+01 -0.74607700434E+01  0.52090724346E+01  0.11449669241E+02  0.51100000000E-03 0.  1.
        -12    1    3    3    0    0  0.24484886712E+01  0.13809533406E+02  0.17538794210E+02  0.22456794339E+02  0.00000000000E+00 0.  1.
</event>
<event>
 7    1  0.2575978E-011  0.5052886E+02  0.7816164E-02  0.1300439E+00
        -11   -1    0    0    0    0  0.00000000000E+00  0.00000000000E+00  0.45593999997E+02  0.45594000000E+02  0.51100000000E-03 0. -1.
         11   -1    0    0    0    0 -0.00000000000E+00 -0.00000000000E+00 -0.45593999997E+02  0.45594000000E+02  0.51100000000E-03 0.  1.
    9900012    2    1    2    0    0 -0.13404829239E+02 -0.95882110508E+01 -0.37169107332E+02  0.50528858617E+02  0.29999996254E+02 0.  0.
         12    1    1    2    0    0  0.13404829239E+02  0.95882110508E+01  0.37169107332E+02  0.40659141383E+02  0.00000000000E+00 0. -1.
         11    1    3    3    0    0 -0.18437039491E+01 -0.11656216902E+02 -0.83853091446E+01  0.14476879720E+02  0.51100000000E-03 0. -1.
        -11    1    3    3    0    0  0.39480364711E+01 -0.54602327450E+00 -0.13670375844E+02  0.14239533327E+02  0.51100000000E-03 0.  1.
         12    1    3    3    0    0 -0.15509161761E+02  0.26140291260E+01 -0.15113422344E+02  0.21812445570E+02  0.00000000000E+00 0. -1.
</event>
<event>
 7    1  0.2575978E-011  0.5052886E+02  0.7816164E-02  0.1300439E+00
        -11   -1    0    0    0    0  0.00000000000E+00  0.00000000000E+00  0.45593999997E+02  0.45594000000E+02  0.51100000000E-03 0.  1.
         11   -1    0    0    0    0 -0.00000000000E+00 -0.00000000000E+00 -0.45593999997E+02  0.45594000000E+02  0.51100000000E-03 0. -1.
    9900012    2    1    2    0    0 -0.68995144349E+01 -0.10764160630E+02  0.38596566648E+02  0.50528863136E+02  0.30000009989E+02 0.  0.
         12    1    1    2    0    0  0.68995144349E+01  0.10764160630E+02 -0.38596566648E+02  0.40659136864E+02  0.00000000000E+00 0. -1.
         11    1    3    3    0    0 -0.54037196852E+01 -0.34227210350E+01  0.54462425900E+00  0.64196434142E+01  0.51100000000E-03 0. -1.
        -11    1    3    3    0    0 -0.66179894995E+01 -0.57546120473E+01  0.40026452213E+01  0.96402548649E+01  0.51100000000E-03 0.  1.
        -12    1    3    3    0    0  0.51221947499E+01 -0.15868275472E+01  0.34049297168E+02  0.34468964857E+02  0.00000000000E+00 0.  1.
</event>
<event>
 7    1  0.2575978E-011  0.5052885E+02  0.7816164E-02  0.1300439E+00
        -11   -1    0    0    0    0  0.00000000000E+00  0.00000000000E+00  0.45593999997E+02  0.45594000000E+02  0.51100000000E-03 0.  1.
         11   -1    0    0    0    0 -0.00000000000E+00 -0.00000000000E+00 -0.45593999997E+02  0.45594000000E+02  0.51100000000E-03 0. -1.
    9900012    2    1    2    0    0 -0.38470782900E+02  0.12715359670E+02  0.33889414105E+01  0.50528850570E+02  0.29999971792E+02 0.  0.
         12    1    1    2    0    0  0.38470782900E+02 -0.12715359670E+02 -0.33889414105E+01  0.40659149430E+02  0.00000000000E+00 0. -1.
         11    1    3    3    0    0 -0.12231992250E+02 -0.61520878403E+01  0.29205840803E+01  0.13999986816E+02  0.51100000000E-03 0. -1.
        -11    1    3    3    0    0 -0.15616538763E+02  0.10214668477E+01  0.15905766348E+01  0.15730531198E+02  0.51100000000E-03 0.  1.
         12    1    3    3    0    0 -0.10622251887E+02  0.17845980663E+02 -0.11222193046E+01  0.20798332556E+02  0.00000000000E+00 0. -1.
</event>
<event>
 7    1  0.2575978E-011  0.5052891E+02  0.7816164E-02  0.1300439E+00
        -11   -1    0    0    0    0  0.00000000000E+00  0.00000000000E+00  0.45593999997E+02  0.45594000000E+02  0.51100000000E-03 0. -1.
         11   -1    0    0    0    0 -0.00000000000E+00 -0.00000000000E+00 -0.45593999997E+02  0.45594000000E+02  0.51100000000E-03 0.  1.
    9900012    2    1    2    0    0  0.32706894606E+02  0.18427976784E+02  0.15615065394E+02  0.50528910606E+02  0.30000154278E+02 0.  0.
         12    1    1    2    0    0 -0.32706894606E+02 -0.18427976784E+02 -0.15615065394E+02  0.40659089394E+02  0.00000000000E+00 0. -1.
         11    1    3    3    0    0  0.12140865277E+02  0.11223698534E+00  0.42343568700E+01  0.12858576328E+02  0.51100000000E-03 0. -1.
        -11    1    3    3    0    0  0.92489512206E+01 -0.18910134581E+01 -0.35823240707E+01  0.10097132097E+02  0.51100000000E-03 0.  1.
        -12    1    3    3    0    0  0.11317078108E+02  0.20206753256E+02  0.14963032595E+02  0.27573202181E+02  0.00000000000E+00 0.  1.
</event>
<event>
 7    1  0.2575978E-011  0.5052886E+02  0.7816164E-02  0.1300439E+00
        -11   -1    0    0    0    0  0.00000000000E+00  0.00000000000E+00  0.45593999997E+02  0.45594000000E+02  0.51100000000E-03 0.  1.
         11   -1    0    0    0    0 -0.00000000000E+00 -0.00000000000E+00 -0.45593999997E+02  0.45594000000E+02  0.51100000000E-03 0. -1.
    9900012    2    1    2    0    0  0.76084163184E+01 -0.26732792141E+01  0.39851366849E+02  0.50528857604E+02  0.29999993173E+02 0.  0.
         12    1    1    2    0    0 -0.76084163184E+01  0.26732792141E+01 -0.39851366849E+02  0.40659142396E+02  0.00000000000E+00 0. -1.
         11    1    3    3    0    0 -0.55925591096E+01  0.67190415560E+00  0.45091221304E+01  0.72152862200E+01  0.51100000000E-03 0. -1.
        -11    1    3    3    0    0 -0.17630657535E+01  0.39561500413E+01  0.20676819158E+02  0.21125585785E+02  0.51100000000E-03 0.  1.
        -12    1    3    3    0    0  0.14964041181E+02 -0.73013334110E+01  0.14665425561E+02  0.22187985599E+02  0.00000000000E+00 0.  1.
</event>
<event>
 7    1  0.2575978E-011  0.5052882E+02  0.7816164E-02  0.1300439E+00
        -11   -1    0    0    0    0  0.00000000000E+00  0.00000000000E+00  0.45593999997E+02  0.45594000000E+02  0.51100000000E-03 0.  1.
         11   -1    0    0    0    0 -0.00000000000E+00 -0.00000000000E+00 -0.45593999997E+02  0.45594000000E+02  0.51100000000E-03 0. -1.
    9900012    2    1    2    0    0 -0.13740089422E+02 -0.95798061706E+01  0.37048699819E+02  0.50528820202E+02  0.29999879486E+02 0.  0.
         12    1    1    2    0    0  0.13740089422E+02  0.95798061706E+01 -0.37048699819E+02  0.40659179798E+02  0.00000000000E+00 0. -1.
         11    1    3    3    0    0 -0.33912531383E-01 -0.33625704478E+01  0.15209260690E+02  0.15576573470E+02  0.51100000000E-03 0. -1.
        -11    1    3    3    0    0 -0.61147831111E+01 -0.14558237428E+02  0.10523858174E+02  0.18975891036E+02  0.51100000000E-03 0.  1.
        -12    1    3    3    0    0 -0.75913937793E+01  0.83410017050E+01  0.11315580955E+02  0.15976355695E+02  0.00000000000E+00 0.  1.
</event>
<event>
 7    1  0.2575978E-011  0.5052884E+02  0.7816164E-02  0.1300439E+00
        -11   -1    0    0    0    0  0.00000000000E+00  0.00000000000E+00  0.45593999997E+02  0.45594000000E+02  0.51100000000E-03 0.  1.
         11   -1    0    0    0    0 -0.00000000000E+00 -0.00000000000E+00 -0.45593999997E+02  0.45594000000E+02  0.51100000000E-03 0. -1.
    9900012    2    1    2    0    0 -0.11197233264E+02 -0.16198931042E+02  0.35572238967E+02  0.50528836398E+02  0.29999928716E+02 0.  0.
         12    1    1    2    0    0  0.11197233264E+02  0.16198931042E+02 -0.35572238967E+02  0.40659163602E+02  0.00000000000E+00 0. -1.
         11    1    3    3    0    0 -0.22170747576E+01  0.11278920692E+01 -0.28694925981E+01  0.37975714651E+01  0.51100000000E-03 0. -1.
        -11    1    3    3    0    0 -0.63223973206E+01  0.88836654707E+00  0.18601583478E+02  0.19666743786E+02  0.51100000000E-03 0.  1.
        -12    1    3    3    0    0 -0.26577611860E+01 -0.18215189659E+02  0.19840148087E+02  0.27064521147E+02  0.00000000000E+00 0.  1.
</event>
<event>
 7    1  0.2575978E-011  0.5052886E+02  0.7816164E-02  0.1300439E+00
        -11   -1    0    0    0    0  0.00000000000E+00  0.00000000000E+00  0.45593999997E+02  0.45594000000E+02  0.51100000000E-03 0.  1.
         11   -1    0    0    0    0 -0.00000000000E+00 -0.00000000000E+00 -0.45593999997E+02  0.45594000000E+02  0.51100000000E-03 0. -1.
    9900012    2    1    2    0    0 -0.14631865313E+02  0.17339847183E+01  0.37895476947E+02  0.50528863775E+02  0.30000011929E+02 0.  0.
         12    1    1    2    0    0  0.14631865313E+02 -0.17339847183E+01 -0.37895476947E+02  0.40659136225E+02  0.00000000000E+00 0. -1.
         11    1    3    3    0    0 -0.16252640057E+01 -0.18647288993E+01  0.20404672843E+02  0.20554059722E+02  0.51100000000E-03 0. -1.
        -11    1    3    3    0    0 -0.95160575468E+01 -0.26474736401E+01  0.20069904419E+02  0.22368851815E+02  0.51100000000E-03 0.  1.
         12    1    3    3    0    0 -0.34905437606E+01  0.62461872576E+01 -0.25791003145E+01  0.76059522372E+01  0.00000000000E+00 0. -1.
</event>
<event>
 7    1  0.2575978E-011  0.5052886E+02  0.7816164E-02  0.1300439E+00
        -11   -1    0    0    0    0  0.00000000000E+00  0.00000000000E+00  0.45593999997E+02  0.45594000000E+02  0.51100000000E-03 0.  1.
         11   -1    0    0    0    0 -0.00000000000E+00 -0.00000000000E+00 -0.45593999997E+02  0.45594000000E+02  0.51100000000E-03 0. -1.
    9900012    2    1    2    0    0 -0.37600579767E+02 -0.15348581077E+02 -0.19449523809E+01  0.50528863515E+02  0.30000011141E+02 0.  0.
         12    1    1    2    0    0  0.37600579767E+02  0.15348581077E+02  0.19449523809E+01  0.40659136485E+02  0.00000000000E+00 0. -1.
         11    1    3    3    0    0  0.92190814495E+00 -0.22745635591E+01 -0.12587029437E+01  0.27582399051E+01  0.51100000000E-03 0. -1.
        -11    1    3    3    0    0 -0.63298878901E+01  0.72634933846E+01 -0.10384714042E+01  0.96904200099E+01  0.51100000000E-03 0.  1.
        -12    1    3    3    0    0 -0.32192600022E+02 -0.20337510903E+02  0.35222196706E+00  0.38080203600E+02  0.00000000000E+00 0.  1.
</event>
<event>
 7    1  0.2575978E-011  0.5052886E+02  0.7816164E-02  0.1300439E+00
        -11   -1    0    0    0    0  0.00000000000E+00  0.00000000000E+00  0.45593999997E+02  0.45594000000E+02  0.51100000000E-03 0.  1.
         11   -1    0    0    0    0 -0.00000000000E+00 -0.00000000000E+00 -0.45593999997E+02  0.45594000000E+02  0.51100000000E-03 0. -1.
    9900012    2    1    2    0    0 -0.87587110322E+01  0.75404448421E+01  0.38981948017E+02  0.50528860824E+02  0.30000002960E+02 0.  0.
         12    1    1    2    0    0  0.87587110322E+01 -0.75404448421E+01 -0.38981948017E+02  0.40659139176E+02  0.00000000000E+00 0. -1.
         11    1    3    3    0    0  0.47615841765E+01  0.74549960646E+01  0.15744234000E+02  0.18059085102E+02  0.51100000000E-03 0.  1.
        -11    1    3    3    0    0 -0.94658472403E+01  0.25430462617E+00  0.25926647960E+02  0.27601775478E+02  0.51100000000E-03 0. -1.
         12    1    3    3    0    0 -0.40544479685E+01 -0.16885584870E+00 -0.26889339436E+01  0.48680002444E+01  0.00000000000E+00 0. -1.
</event>
<event>
 7    1  0.2575978E-011  0.5052885E+02  0.7816164E-02  0.1300439E+00
        -11   -1    0    0    0    0  0.00000000000E+00  0.00000000000E+00  0.45593999997E+02  0.45594000000E+02  0.51100000000E-03 0.  1.
         11   -1    0    0    0    0 -0.00000000000E+00 -0.00000000000E+00 -0.45593999997E+02  0.45594000000E+02  0.51100000000E-03 0. -1.
    9900012    2    1    2    0    0  0.34321475047E+02  0.10218378292E+01  0.21775178794E+02  0.50528853262E+02  0.29999979976E+02 0.  0.
         12    1    1    2    0    0 -0.34321475047E+02 -0.10218378292E+01 -0.21775178794E+02  0.40659146738E+02  0.00000000000E+00 0. -1.
         11    1    3    3    0    0  0.91090774147E+01  0.42409619046E+01 -0.36426821412E+01  0.10687852107E+02  0.51100000000E-03 0. -1.
        -11    1    3    3    0    0 -0.23506797129E+01 -0.25930691486E+00  0.46025004328E+01  0.51745478724E+01  0.51100000000E-03 0.  1.
        -12    1    3    3    0    0  0.27563077345E+02 -0.29598171606E+01  0.20815360502E+02  0.34666453283E+02  0.00000000000E+00 0.  1.
</event>
<event>
 7    1  0.2575978E-011  0.5052886E+02  0.7816164E-02  0.1300439E+00
        -11   -1    0    0    0    0  0.00000000000E+00  0.00000000000E+00  0.45593999997E+02  0.45594000000E+02  0.51100000000E-03 0.  1.
         11   -1    0    0    0    0 -0.00000000000E+00 -0.00000000000E+00 -0.45593999997E+02  0.45594000000E+02  0.51100000000E-03 0. -1.
    9900012    2    1    2    0    0 -0.47221432220E+01 -0.12606001175E+02  0.38366078317E+02  0.50528857515E+02  0.29999992901E+02 0.  0.
         12    1    1    2    0    0  0.47221432220E+01  0.12606001175E+02 -0.38366078317E+02  0.40659142485E+02  0.00000000000E+00 0. -1.
         11    1    3    3    0    0 -0.10817948634E+01  0.71694448991E+01  0.23016585898E+02  0.24131606804E+02  0.51100000000E-03 0. -1.
        -11    1    3    3    0    0 -0.12150854644E+01 -0.22092640064E+01  0.56453612170E+01  0.61828297459E+01  0.51100000000E-03 0.  1.
        -12    1    3    3    0    0 -0.24252628943E+01 -0.17566182068E+02  0.97041312017E+01  0.20214420964E+02  0.00000000000E+00 0.  1.
</event>
<event>
 7    1  0.2575978E-011  0.5052885E+02  0.7816164E-02  0.1300439E+00
        -11   -1    0    0    0    0  0.00000000000E+00  0.00000000000E+00  0.45593999997E+02  0.45594000000E+02  0.51100000000E-03 0. -1.
         11   -1    0    0    0    0 -0.00000000000E+00 -0.00000000000E+00 -0.45593999997E+02  0.45594000000E+02  0.51100000000E-03 0.  1.
    9900012    2    1    2    0    0  0.57898090842E+01  0.39254609437E+02 -0.88724202821E+01  0.50528854744E+02  0.29999984481E+02 0.  0.
         12    1    1    2    0    0 -0.57898090842E+01 -0.39254609437E+02  0.88724202821E+01  0.40659145256E+02  0.00000000000E+00 0. -1.
         11    1    3    3    0    0  0.12277585818E+02  0.86904824421E+01  0.30030853444E+01  0.15338908711E+02  0.51100000000E-03 0.  1.
        -11    1    3    3    0    0 -0.77417534399E+01  0.12146582576E+02 -0.74060341738E+01  0.16196405683E+02  0.51100000000E-03 0. -1.
        -12    1    3    3    0    0  0.12539767065E+01  0.18417544419E+02 -0.44694714527E+01  0.18993540351E+02  0.00000000000E+00 0.  1.
</event>
<event>
 7    1  0.2575978E-011  0.5052885E+02  0.7816164E-02  0.1300439E+00
        -11   -1    0    0    0    0  0.00000000000E+00  0.00000000000E+00  0.45593999997E+02  0.45594000000E+02  0.51100000000E-03 0.  1.
         11   -1    0    0    0    0 -0.00000000000E+00 -0.00000000000E+00 -0.45593999997E+02  0.45594000000E+02  0.51100000000E-03 0. -1.
    9900012    2    1    2    0    0 -0.36704116694E+02  0.86573162181E+01  0.15199507156E+02  0.50528851901E+02  0.29999975838E+02 0.  0.
         12    1    1    2    0    0  0.36704116694E+02 -0.86573162181E+01 -0.15199507156E+02  0.40659148099E+02  0.00000000000E+00 0. -1.
         11    1    3    3    0    0  0.96448219204E+00  0.48009843762E+00 -0.42705187848E+01  0.44043218957E+01  0.51100000000E-03 0. -1.
        -11    1    3    3    0    0  0.95979590836E+00  0.24990194380E+01  0.20468864573E+01  0.33698739987E+01  0.51100000000E-03 0.  1.
        -12    1    3    3    0    0 -0.38628394794E+02  0.56781983426E+01  0.17423139484E+02  0.42754656007E+02  0.00000000000E+00 0.  1.
</event>
<event>
 7    1  0.2575978E-011  0.5052885E+02  0.7816164E-02  0.1300439E+00
        -11   -1    0    0    0    0  0.00000000000E+00  0.00000000000E+00  0.45593999997E+02  0.45594000000E+02  0.51100000000E-03 0. -1.
         11   -1    0    0    0    0 -0.00000000000E+00 -0.00000000000E+00 -0.45593999997E+02  0.45594000000E+02  0.51100000000E-03 0.  1.
    9900012    2    1    2    0    0  0.78505410211E+01 -0.18877014391E+02 -0.35145318733E+02  0.50528854713E+02  0.29999984384E+02 0.  0.
         12    1    1    2    0    0 -0.78505410211E+01  0.18877014391E+02  0.35145318733E+02  0.40659145287E+02  0.00000000000E+00 0. -1.
         11    1    3    3    0    0  0.91801889808E+01 -0.11434340734E+02 -0.18896624143E+02  0.23918662630E+02  0.51100000000E-03 0. -1.
        -11    1    3    3    0    0  0.49643101852E+01 -0.11155342264E+02 -0.14754632303E+02  0.19151637301E+02  0.51100000000E-03 0.  1.
         12    1    3    3    0    0 -0.62939581448E+01  0.37126686072E+01 -0.14940622873E+01  0.74585547819E+01  0.00000000000E+00 0. -1.
</event>
<event>
 7    1  0.2575978E-011  0.5052886E+02  0.7816164E-02  0.1300439E+00
        -11   -1    0    0    0    0  0.00000000000E+00  0.00000000000E+00  0.45593999997E+02  0.45594000000E+02  0.51100000000E-03 0.  1.
         11   -1    0    0    0    0 -0.00000000000E+00 -0.00000000000E+00 -0.45593999997E+02  0.45594000000E+02  0.51100000000E-03 0. -1.
    9900012    2    1    2    0    0 -0.10456849033E+02 -0.24502142250E+02  0.30715876155E+02  0.50528859398E+02  0.29999998625E+02 0.  0.
         12    1    1    2    0    0  0.10456849033E+02  0.24502142250E+02 -0.30715876155E+02  0.40659140602E+02  0.00000000000E+00 0. -1.
         11    1    3    3    0    0  0.62372880007E+01  0.38735179929E+00 -0.24575422968E+00  0.62541345062E+01  0.51100000000E-03 0. -1.
        -11    1    3    3    0    0 -0.23547899901E+00 -0.25670222700E+01 -0.16716427317E+00  0.25832146347E+01  0.51100000000E-03 0.  1.
        -12    1    3    3    0    0 -0.16458658034E+02 -0.22322471779E+02  0.31128794658E+02  0.41691510257E+02  0.00000000000E+00 0.  1.
</event>
<event>
 7    1  0.2575978E-011  0.5052887E+02  0.7816164E-02  0.1300439E+00
        -11   -1    0    0    0    0  0.00000000000E+00  0.00000000000E+00  0.45593999997E+02  0.45594000000E+02  0.51100000000E-03 0. -1.
         11   -1    0    0    0    0 -0.00000000000E+00 -0.00000000000E+00 -0.45593999997E+02  0.45594000000E+02  0.51100000000E-03 0.  1.
    9900012    2    1    2    0    0 -0.31265687721E+02  0.13339159013E+02 -0.22308932230E+02  0.50528870040E+02  0.30000030974E+02 0.  0.
         12    1    1    2    0    0  0.31265687721E+02 -0.13339159013E+02  0.22308932230E+02  0.40659129960E+02  0.00000000000E+00 0. -1.
         11    1    3    3    0    0 -0.23462249716E+01  0.36739220462E+01 -0.62488480068E+00  0.44037434183E+01  0.51100000000E-03 0. -1.
        -11    1    3    3    0    0 -0.25542541604E+02  0.16325859677E+02 -0.93802433024E+01  0.31732382363E+02  0.51100000000E-03 0.  1.
         12    1    3    3    0    0 -0.33769211456E+01 -0.66606227099E+01 -0.12303804127E+02  0.14392744259E+02  0.00000000000E+00 0. -1.
</event>
<event>
 7    1  0.2575978E-011  0.5052886E+02  0.7816164E-02  0.1300439E+00
        -11   -1    0    0    0    0  0.00000000000E+00  0.00000000000E+00  0.45593999997E+02  0.45594000000E+02  0.51100000000E-03 0. -1.
         11   -1    0    0    0    0 -0.00000000000E+00 -0.00000000000E+00 -0.45593999997E+02  0.45594000000E+02  0.51100000000E-03 0.  1.
    9900012    2    1    2    0    0  0.37735505048E+02 -0.13254951284E+02  0.73146019996E+01  0.50528862316E+02  0.30000007495E+02 0.  0.
         12    1    1    2    0    0 -0.37735505048E+02  0.13254951284E+02 -0.73146019996E+01  0.40659137684E+02  0.00000000000E+00 0. -1.
         11    1    3    3    0    0  0.15503806533E+01 -0.11243703497E+02  0.44036784721E+01  0.12174437681E+02  0.51100000000E-03 0. -1.
        -11    1    3    3    0    0 -0.74221418524E+00 -0.75386312749E+00 -0.63837630940E+00  0.12356035308E+01  0.51100000000E-03 0.  1.
        -12    1    3    3    0    0  0.36927338580E+02 -0.12573846598E+01  0.35492998369E+01  0.37118821104E+02  0.00000000000E+00 0.  1.
</event>
<event>
 7    1  0.2575978E-011  0.5052887E+02  0.7816164E-02  0.1300439E+00
        -11   -1    0    0    0    0  0.00000000000E+00  0.00000000000E+00  0.45593999997E+02  0.45594000000E+02  0.51100000000E-03 0. -1.
         11   -1    0    0    0    0 -0.00000000000E+00 -0.00000000000E+00 -0.45593999997E+02  0.45594000000E+02  0.51100000000E-03 0.  1.
    9900012    2    1    2    0    0  0.37231147758E+02 -0.16168970932E+02 -0.23602409602E+01  0.50528871606E+02  0.30000035734E+02 0.  0.
         12    1    1    2    0    0 -0.37231147758E+02  0.16168970932E+02  0.23602409602E+01  0.40659128394E+02  0.00000000000E+00 0. -1.
         11    1    3    3    0    0 -0.35901613217E+01 -0.34353406773E+01 -0.30547128264E+01  0.58328461833E+01  0.51100000000E-03 0. -1.
        -11    1    3    3    0    0  0.40777689894E+01  0.12388304109E+01 -0.30007043383E+01  0.52122094648E+01  0.51100000000E-03 0.  1.
        -12    1    3    3    0    0  0.36743540090E+02 -0.13972460665E+02  0.36951762045E+01  0.39483815958E+02  0.00000000000E+00 0.  1.
</event>
<event>
 7    1  0.2575978E-011  0.5052886E+02  0.7816164E-02  0.1300439E+00
        -11   -1    0    0    0    0  0.00000000000E+00  0.00000000000E+00  0.45593999997E+02  0.45594000000E+02  0.51100000000E-03 0.  1.
         11   -1    0    0    0    0 -0.00000000000E+00 -0.00000000000E+00 -0.45593999997E+02  0.45594000000E+02  0.51100000000E-03 0. -1.
    9900012    2    1    2    0    0 -0.13892755380E+02  0.17055882430E+02  0.34194357630E+02  0.50528857470E+02  0.29999992766E+02 0.  0.
         12    1    1    2    0    0  0.13892755380E+02 -0.17055882430E+02 -0.34194357630E+02  0.40659142530E+02  0.00000000000E+00 0. -1.
         11    1    3    3    0    0 -0.39741040965E+01  0.34680676783E+01 -0.20789037856E+01  0.56694654071E+01  0.51100000000E-03 0. -1.
        -11    1    3    3    0    0  0.35694719600E+01  0.29740168302E+01 -0.92324610623E-01  0.46469807697E+01  0.51100000000E-03 0.  1.
        -12    1    3    3    0    0 -0.13488123244E+02  0.10613797921E+02  0.36365586027E+02  0.40212411293E+02  0.00000000000E+00 0.  1.
</event>
<event>
 7    1  0.2575978E-011  0.5052884E+02  0.7816164E-02  0.1300439E+00
        -11   -1    0    0    0    0  0.00000000000E+00  0.00000000000E+00  0.45593999997E+02  0.45594000000E+02  0.51100000000E-03 0. -1.
         11   -1    0    0    0    0 -0.00000000000E+00 -0.00000000000E+00 -0.45593999997E+02  0.45594000000E+02  0.51100000000E-03 0.  1.
    9900012    2    1    2    0    0  0.20789799595E+02 -0.69282650831E+01 -0.34248361865E+02  0.50528844639E+02  0.29999953765E+02 0.  0.
         12    1    1    2    0    0 -0.20789799595E+02  0.69282650831E+01  0.34248361865E+02  0.40659155361E+02  0.00000000000E+00 0. -1.
         11    1    3    3    0    0  0.38149586579E+01 -0.59756895322E+01 -0.40960834111E+01  0.81878369866E+01  0.51100000000E-03 0. -1.
        -11    1    3    3    0    0  0.39493462823E+01 -0.11133444129E+02 -0.64989667181E+01  0.13482858855E+02  0.51100000000E-03 0.  1.
         12    1    3    3    0    0  0.13025494655E+02  0.10180868578E+02 -0.23653311735E+02  0.28858148798E+02  0.00000000000E+00 0. -1.
</event>
<event>
 7    1  0.2575978E-011  0.5052886E+02  0.7816164E-02  0.1300439E+00
        -11   -1    0    0    0    0  0.00000000000E+00  0.00000000000E+00  0.45593999997E+02  0.45594000000E+02  0.51100000000E-03 0.  1.
         11   -1    0    0    0    0 -0.00000000000E+00 -0.00000000000E+00 -0.45593999997E+02  0.45594000000E+02  0.51100000000E-03 0. -1.
    9900012    2    1    2    0    0 -0.73580754848E+01 -0.13663844478E+02  0.37580897600E+02  0.50528858529E+02  0.29999995985E+02 0.  0.
         12    1    1    2    0    0  0.73580754848E+01  0.13663844478E+02 -0.37580897600E+02  0.40659141471E+02  0.00000000000E+00 0. -1.
         11    1    3    3    0    0  0.12109315164E+01 -0.25883235164E+01  0.77915468034E+01  0.82990346193E+01  0.51100000000E-03 0. -1.
        -11    1    3    3    0    0 -0.11286776847E+01  0.11938481771E+01  0.27677448901E+02  0.27726167508E+02  0.51100000000E-03 0.  1.
         12    1    3    3    0    0 -0.74403293164E+01 -0.12269369139E+02  0.21119018958E+01  0.14503656402E+02  0.00000000000E+00 0. -1.
</event>
<event>
 7    1  0.2575978E-011  0.5052887E+02  0.7816164E-02  0.1300439E+00
        -11   -1    0    0    0    0  0.00000000000E+00  0.00000000000E+00  0.45593999997E+02  0.45594000000E+02  0.51100000000E-03 0. -1.
         11   -1    0    0    0    0 -0.00000000000E+00 -0.00000000000E+00 -0.45593999997E+02  0.45594000000E+02  0.51100000000E-03 0.  1.
    9900012    2    1    2    0    0  0.11589052271E+02 -0.32755858911E+02 -0.21116640567E+02  0.50528868992E+02  0.30000027788E+02 0.  0.
         12    1    1    2    0    0 -0.11589052271E+02  0.32755858911E+02  0.21116640567E+02  0.40659131008E+02  0.00000000000E+00 0. -1.
         11    1    3    3    0    0  0.20783466711E+01 -0.17165204981E+02  0.19617912749E+01  0.17401506033E+02  0.51100000000E-03 0. -1.
        -11    1    3    3    0    0  0.90855415348E+01 -0.45931966979E+01 -0.36817590908E+01  0.10825888931E+02  0.51100000000E-03 0.  1.
        -12    1    3    3    0    0  0.42516406511E+00 -0.10997457231E+02 -0.19396672751E+02  0.22301474028E+02  0.00000000000E+00 0.  1.
</event>
<event>
 7    1  0.2575978E-011  0.5052886E+02  0.7816164E-02  0.1300439E+00
        -11   -1    0    0    0    0  0.00000000000E+00  0.00000000000E+00  0.45593999997E+02  0.45594000000E+02  0.51100000000E-03 0. -1.
         11   -1    0    0    0    0 -0.00000000000E+00 -0.00000000000E+00 -0.45593999997E+02  0.45594000000E+02  0.51100000000E-03 0.  1.
    9900012    2    1    2    0    0  0.40105583889E+02 -0.37447524332E+01 -0.55393944560E+01  0.50528856861E+02  0.29999990915E+02 0.  0.
         12    1    1    2    0    0 -0.40105583889E+02  0.37447524332E+01  0.55393944560E+01  0.40659143139E+02  0.00000000000E+00 0. -1.
         11    1    3    3    0    0  0.28753486046E+02 -0.19276043032E+01 -0.94186814674E+00  0.28833413500E+02  0.51100000000E-03 0. -1.
        -11    1    3    3    0    0  0.14625148723E+02 -0.46986361212E+01 -0.35681254752E-02  0.15361385665E+02  0.51100000000E-03 0.  1.
        -12    1    3    3    0    0 -0.32730508801E+01  0.28814879911E+01 -0.45939581838E+01  0.63340576964E+01  0.00000000000E+00 0.  1.
</event>
<event>
 7    1  0.2575978E-011  0.5052886E+02  0.7816164E-02  0.1300439E+00
        -11   -1    0    0    0    0  0.00000000000E+00  0.00000000000E+00  0.45593999997E+02  0.45594000000E+02  0.51100000000E-03 0.  1.
         11   -1    0    0    0    0 -0.00000000000E+00 -0.00000000000E+00 -0.45593999997E+02  0.45594000000E+02  0.51100000000E-03 0. -1.
    9900012    2    1    2    0    0  0.18071766491E+02  0.17990800293E+02  0.31668729226E+02  0.50528855271E+02  0.29999986082E+02 0.  0.
         12    1    1    2    0    0 -0.18071766491E+02 -0.17990800293E+02 -0.31668729226E+02  0.40659144729E+02  0.00000000000E+00 0. -1.
         11    1    3    3    0    0  0.29552079006E+01  0.11748214499E+02  0.11789694288E+02  0.16904161893E+02  0.51100000000E-03 0. -1.
        -11    1    3    3    0    0  0.27257160164E+01  0.12464908485E+02  0.12733842847E+02  0.18026486770E+02  0.51100000000E-03 0.  1.
         12    1    3    3    0    0  0.12390842574E+02 -0.62223226915E+01  0.71451920916E+01  0.15598206608E+02  0.00000000000E+00 0. -1.
</event>
<event>
 7    1  0.2575978E-011  0.5052886E+02  0.7816164E-02  0.1300439E+00
        -11   -1    0    0    0    0  0.00000000000E+00  0.00000000000E+00  0.45593999997E+02  0.45594000000E+02  0.51100000000E-03 0.  1.
         11   -1    0    0    0    0 -0.00000000000E+00 -0.00000000000E+00 -0.45593999997E+02  0.45594000000E+02  0.51100000000E-03 0. -1.
    9900012    2    1    2    0    0 -0.21264691960E+02  0.17229535279E+02  0.30068612028E+02  0.50528862781E+02  0.30000008910E+02 0.  0.
         12    1    1    2    0    0  0.21264691960E+02 -0.17229535279E+02 -0.30068612028E+02  0.40659137219E+02  0.00000000000E+00 0. -1.
         11    1    3    3    0    0 -0.10136422669E+02  0.27461119166E+01  0.17403312270E+01  0.10645043364E+02  0.51100000000E-03 0. -1.
        -11    1    3    3    0    0 -0.13414057232E+02  0.95106737000E+01  0.70120362667E+01  0.17876199219E+02  0.51100000000E-03 0.  1.
        -12    1    3    3    0    0  0.22857879411E+01  0.49727496620E+01  0.21316244535E+02  0.22007620198E+02  0.00000000000E+00 0.  1.
</event>
<event>
 7    1  0.2575978E-011  0.5052886E+02  0.7816164E-02  0.1300439E+00
        -11   -1    0    0    0    0  0.00000000000E+00  0.00000000000E+00  0.45593999997E+02  0.45594000000E+02  0.51100000000E-03 0.  1.
         11   -1    0    0    0    0 -0.00000000000E+00 -0.00000000000E+00 -0.45593999997E+02  0.45594000000E+02  0.51100000000E-03 0. -1.
    9900012    2    1    2    0    0  0.28235380897E+02 -0.43548573250E+01  0.28930338192E+02  0.50528856076E+02  0.29999988529E+02 0.  0.
         12    1    1    2    0    0 -0.28235380897E+02  0.43548573250E+01 -0.28930338192E+02  0.40659143924E+02  0.00000000000E+00 0. -1.
         11    1    3    3    0    0  0.11543301572E+02 -0.59924669431E+01  0.13361482917E+01  0.13074508165E+02  0.51100000000E-03 0. -1.
        -11    1    3    3    0    0  0.18740051089E+02  0.36801937348E+01  0.28601455089E+02  0.34391518928E+02  0.51100000000E-03 0.  1.
         12    1    3    3    0    0 -0.20479717637E+01 -0.20425841167E+01 -0.10072651880E+01  0.30628289828E+01  0.00000000000E+00 0. -1.
</event>
<event>
 7    1  0.2575978E-011  0.5052885E+02  0.7816164E-02  0.1300439E+00
        -11   -1    0    0    0    0  0.00000000000E+00  0.00000000000E+00  0.45593999997E+02  0.45594000000E+02  0.51100000000E-03 0.  1.
         11   -1    0    0    0    0 -0.00000000000E+00 -0.00000000000E+00 -0.45593999997E+02  0.45594000000E+02  0.51100000000E-03 0. -1.
    9900012    2    1    2    0    0  0.21802679612E+02  0.10454310368E+02  0.32688175735E+02  0.50528852488E+02  0.29999977623E+02 0.  0.
         12    1    1    2    0    0 -0.21802679612E+02 -0.10454310368E+02 -0.32688175735E+02  0.40659147512E+02  0.00000000000E+00 0. -1.
         11    1    3    3    0    0  0.14850804318E+02  0.16665886551E+02  0.15381529718E+02  0.27108847636E+02  0.51100000000E-03 0. -1.
        -11    1    3    3    0    0  0.63254219283E+01  0.20775858952E+01  0.41127612885E+01  0.78257351987E+01  0.51100000000E-03 0.  1.
         12    1    3    3    0    0  0.62645336490E+00 -0.82891620785E+01  0.13193884729E+02  0.15594269653E+02  0.00000000000E+00 0. -1.
</event>
<event>
 7    1  0.2575978E-011  0.5052886E+02  0.7816164E-02  0.1300439E+00
        -11   -1    0    0    0    0  0.00000000000E+00  0.00000000000E+00  0.45593999997E+02  0.45594000000E+02  0.51100000000E-03 0. -1.
         11   -1    0    0    0    0 -0.00000000000E+00 -0.00000000000E+00 -0.45593999997E+02  0.45594000000E+02  0.51100000000E-03 0.  1.
    9900012    2    1    2    0    0 -0.42612656944E+01 -0.40409383941E+02 -0.14454008011E+01  0.50528857371E+02  0.29999992466E+02 0.  0.
         12    1    1    2    0    0  0.42612656944E+01  0.40409383941E+02  0.14454008011E+01  0.40659142629E+02  0.00000000000E+00 0. -1.
         11    1    3    3    0    0 -0.51711036414E+01 -0.67371680729E+01  0.24522555040E+01  0.88398701252E+01  0.51100000000E-03 0. -1.
        -11    1    3    3    0    0 -0.22106915581E+01 -0.67114828065E+01  0.91614283748E+01  0.11569914812E+02  0.51100000000E-03 0.  1.
        -12    1    3    3    0    0  0.31205295050E+01 -0.26960733062E+02 -0.13059084680E+02  0.30119072434E+02  0.00000000000E+00 0.  1.
</event>
<event>
 7    1  0.2575978E-011  0.5052886E+02  0.7816164E-02  0.1300439E+00
        -11   -1    0    0    0    0  0.00000000000E+00  0.00000000000E+00  0.45593999997E+02  0.45594000000E+02  0.51100000000E-03 0.  1.
         11   -1    0    0    0    0 -0.00000000000E+00 -0.00000000000E+00 -0.45593999997E+02  0.45594000000E+02  0.51100000000E-03 0. -1.
    9900012    2    1    2    0    0  0.15751218984E+01  0.30767265527E+02  0.26534129704E+02  0.50528859869E+02  0.30000000059E+02 0.  0.
         12    1    1    2    0    0 -0.15751218984E+01 -0.30767265527E+02 -0.26534129704E+02  0.40659140131E+02  0.00000000000E+00 0. -1.
         11    1    3    3    0    0 -0.84481881600E+00  0.12846789140E+02 -0.38451980125E+01  0.13436489797E+02  0.51100000000E-03 0. -1.
        -11    1    3    3    0    0  0.26105169379E+01  0.73040105854E+01  0.41535348396E+01  0.87985920033E+01  0.51100000000E-03 0.  1.
         12    1    3    3    0    0 -0.19057622351E+00  0.10616465802E+02  0.26225792877E+02  0.28293778070E+02  0.00000000000E+00 0. -1.
</event>
<event>
 7    1  0.2575978E-011  0.5052885E+02  0.7816164E-02  0.1300439E+00
        -11   -1    0    0    0    0  0.00000000000E+00  0.00000000000E+00  0.45593999997E+02  0.45594000000E+02  0.51100000000E-03 0.  1.
         11   -1    0    0    0    0 -0.00000000000E+00 -0.00000000000E+00 -0.45593999997E+02  0.45594000000E+02  0.51100000000E-03 0. -1.
    9900012    2    1    2    0    0 -0.20815859062E+02 -0.13791475996E+02  0.32088343799E+02  0.50528848430E+02  0.29999965288E+02 0.  0.
         12    1    1    2    0    0  0.20815859062E+02  0.13791475996E+02 -0.32088343799E+02  0.40659151570E+02  0.00000000000E+00 0. -1.
         11    1    3    3    0    0  0.88115208880E+00 -0.44227096848E+01 -0.87927848536E+00  0.45945533924E+01  0.51100000000E-03 0. -1.
        -11    1    3    3    0    0  0.42016916323E+01 -0.27948805332E+01  0.73664652521E+01  0.89291869920E+01  0.51100000000E-03 0.  1.
        -12    1    3    3    0    0 -0.25898702783E+02 -0.65738857780E+01  0.25601157032E+02  0.37005108045E+02  0.00000000000E+00 0.  1.
</event>
<event>
 7    1  0.2575978E-011  0.5052888E+02  0.7816164E-02  0.1300439E+00
        -11   -1    0    0    0    0  0.00000000000E+00  0.00000000000E+00  0.45593999997E+02  0.45594000000E+02  0.51100000000E-03 0.  1.
         11   -1    0    0    0    0 -0.00000000000E+00 -0.00000000000E+00 -0.45593999997E+02  0.45594000000E+02  0.51100000000E-03 0. -1.
    9900012    2    1    2    0    0  0.11110620482E+00  0.29062558545E+02  0.28434476608E+02  0.50528879083E+02  0.30000058462E+02 0.  0.
         12    1    1    2    0    0 -0.11110620482E+00 -0.29062558545E+02 -0.28434476608E+02  0.40659120917E+02  0.00000000000E+00 0. -1.
         11    1    3    3    0    0 -0.38982306874E+01 -0.19588464245E+01 -0.15153377075E+01  0.46183904594E+01  0.51100000000E-03 0. -1.
        -11    1    3    3    0    0  0.38873383786E+01  0.52258582748E+01  0.14364245623E+02  0.15771891039E+02  0.51100000000E-03 0.  1.
         12    1    3    3    0    0  0.12199851360E+00  0.25795546694E+02  0.15585568692E+02  0.30138597585E+02  0.00000000000E+00 0. -1.
</event>
<event>
 7    1  0.2575978E-011  0.5052885E+02  0.7816164E-02  0.1300439E+00
        -11   -1    0    0    0    0  0.00000000000E+00  0.00000000000E+00  0.45593999997E+02  0.45594000000E+02  0.51100000000E-03 0. -1.
         11   -1    0    0    0    0 -0.00000000000E+00 -0.00000000000E+00 -0.45593999997E+02  0.45594000000E+02  0.51100000000E-03 0.  1.
    9900012    2    1    2    0    0 -0.26785469830E+02 -0.28984477046E+02  0.97777734093E+01  0.50528853962E+02  0.29999982104E+02 0.  0.
         12    1    1    2    0    0  0.26785469830E+02  0.28984477046E+02 -0.97777734093E+01  0.40659146038E+02  0.00000000000E+00 0. -1.
         11    1    3    3    0    0 -0.48287150695E+01 -0.63553372648E+00  0.11756671621E+00  0.48717773486E+01  0.51100000000E-03 0.  1.
        -11    1    3    3    0    0 -0.12850166344E+02 -0.30405315680E+01  0.13028200705E+02  0.18550084128E+02  0.51100000000E-03 0. -1.
        -12    1    3    3    0    0 -0.91065884168E+01 -0.25308411751E+02 -0.33679940119E+01  0.27106992486E+02  0.00000000000E+00 0.  1.
</event>
<event>
 7    1  0.2575978E-011  0.5052885E+02  0.7816164E-02  0.1300439E+00
        -11   -1    0    0    0    0  0.00000000000E+00  0.00000000000E+00  0.45593999997E+02  0.45594000000E+02  0.51100000000E-03 0.  1.
         11   -1    0    0    0    0 -0.00000000000E+00 -0.00000000000E+00 -0.45593999997E+02  0.45594000000E+02  0.51100000000E-03 0. -1.
    9900012    2    1    2    0    0 -0.29636511893E+02 -0.16026009274E+02  0.22759840515E+02  0.50528854034E+02  0.29999982322E+02 0.  0.
         12    1    1    2    0    0  0.29636511893E+02  0.16026009274E+02 -0.22759840515E+02  0.40659145966E+02  0.00000000000E+00 0. -1.
         11    1    3    3    0    0 -0.21339786354E+00  0.15685435182E+01  0.40512012279E+01  0.43494941162E+01  0.51100000000E-03 0.  1.
        -11    1    3    3    0    0 -0.21529461071E+02 -0.12462465488E+02 -0.39729582977E+00  0.24879481191E+02  0.51100000000E-03 0. -1.
         12    1    3    3    0    0 -0.78936529580E+01 -0.51320873036E+01  0.19105935117E+02  0.21299878727E+02  0.00000000000E+00 0. -1.
</event>
<event>
 7    1  0.2575978E-011  0.5052887E+02  0.7816164E-02  0.1300439E+00
        -11   -1    0    0    0    0  0.00000000000E+00  0.00000000000E+00  0.45593999997E+02  0.45594000000E+02  0.51100000000E-03 0. -1.
         11   -1    0    0    0    0 -0.00000000000E+00 -0.00000000000E+00 -0.45593999997E+02  0.45594000000E+02  0.51100000000E-03 0.  1.
    9900012    2    1    2    0    0 -0.17901701848E+02  0.27233796582E+02 -0.24310791245E+02  0.50528866017E+02  0.30000018746E+02 0.  0.
         12    1    1    2    0    0  0.17901701848E+02 -0.27233796582E+02  0.24310791245E+02  0.40659133983E+02  0.00000000000E+00 0. -1.
         11    1    3    3    0    0  0.30678744342E+01  0.44739529578E+01 -0.12969998714E+02  0.14058768634E+02  0.51100000000E-03 0. -1.
        -11    1    3    3    0    0 -0.28286128733E+01  0.94229524011E+01 -0.98236090115E+01  0.13903106740E+02  0.51100000000E-03 0.  1.
         12    1    3    3    0    0 -0.18140963408E+02  0.13336891223E+02 -0.15171835194E+01  0.22566990644E+02  0.00000000000E+00 0. -1.
</event>
<event>
 7    1  0.2575978E-011  0.5052886E+02  0.7816164E-02  0.1300439E+00
        -11   -1    0    0    0    0  0.00000000000E+00  0.00000000000E+00  0.45593999997E+02  0.45594000000E+02  0.51100000000E-03 0.  1.
         11   -1    0    0    0    0 -0.00000000000E+00 -0.00000000000E+00 -0.45593999997E+02  0.45594000000E+02  0.51100000000E-03 0. -1.
    9900012    2    1    2    0    0  0.28713490580E+02  0.26107554906E+02  0.12128327216E+02  0.50528864673E+02  0.30000014660E+02 0.  0.
         12    1    1    2    0    0 -0.28713490580E+02 -0.26107554906E+02 -0.12128327216E+02  0.40659135327E+02  0.00000000000E+00 0. -1.
         11    1    3    3    0    0 -0.27430619432E+01  0.70525484961E+00  0.26374906251E+01  0.38701589484E+01  0.51100000000E-03 0. -1.
        -11    1    3    3    0    0  0.86837941413E+00  0.12005186834E+02  0.47079407984E+01  0.12924523224E+02  0.51100000000E-03 0.  1.
        -12    1    3    3    0    0  0.30588173110E+02  0.13397113222E+02  0.47828957924E+01  0.33734182501E+02  0.00000000000E+00 0.  1.
</event>
<event>
 7    1  0.2575978E-011  0.5052887E+02  0.7816164E-02  0.1300439E+00
        -11   -1    0    0    0    0  0.00000000000E+00  0.00000000000E+00  0.45593999997E+02  0.45594000000E+02  0.51100000000E-03 0.  1.
         11   -1    0    0    0    0 -0.00000000000E+00 -0.00000000000E+00 -0.45593999997E+02  0.45594000000E+02  0.51100000000E-03 0. -1.
    9900012    2    1    2    0    0  0.25055841739E+02  0.96349619721E+01  0.30537476673E+02  0.50528865983E+02  0.30000018641E+02 0.  0.
         12    1    1    2    0    0 -0.25055841739E+02 -0.96349619721E+01 -0.30537476673E+02  0.40659134017E+02  0.00000000000E+00 0. -1.
         11    1    3    3    0    0 -0.21219367114E+01  0.11338142405E+02  0.15162048490E+02  0.19051084044E+02  0.51100000000E-03 0. -1.
        -11    1    3    3    0    0  0.44253805179E+00  0.21419140790E+00  0.87334175209E+00  0.10022195186E+01  0.51100000000E-03 0.  1.
         12    1    3    3    0    0  0.26735240399E+02 -0.19173718404E+01  0.14502086432E+02  0.30475562420E+02  0.00000000000E+00 0. -1.
</event>
<event>
 7    1  0.2575978E-011  0.5052886E+02  0.7816164E-02  0.1300439E+00
        -11   -1    0    0    0    0  0.00000000000E+00  0.00000000000E+00  0.45593999997E+02  0.45594000000E+02  0.51100000000E-03 0.  1.
         11   -1    0    0    0    0 -0.00000000000E+00 -0.00000000000E+00 -0.45593999997E+02  0.45594000000E+02  0.51100000000E-03 0. -1.
    9900012    2    1    2    0    0  0.22382244903E+01 -0.21650339815E+01  0.40539718076E+02  0.50528858805E+02  0.29999996824E+02 0.  0.
         12    1    1    2    0    0 -0.22382244903E+01  0.21650339815E+01 -0.40539718076E+02  0.40659141195E+02  0.00000000000E+00 0. -1.
         11    1    3    3    0    0 -0.78212363520E+01  0.34053159919E+01  0.18539235684E+02  0.20407625415E+02  0.51100000000E-03 0. -1.
        -11    1    3    3    0    0  0.47085925162E+00 -0.76171227413E+01  0.17964646114E+02  0.19518472726E+02  0.51100000000E-03 0.  1.
        -12    1    3    3    0    0  0.95886015907E+01  0.20467727679E+01  0.40358362779E+01  0.10602760664E+02  0.00000000000E+00 0.  1.
</event>
<event>
 7    1  0.2575978E-011  0.5052886E+02  0.7816164E-02  0.1300439E+00
        -11   -1    0    0    0    0  0.00000000000E+00  0.00000000000E+00  0.45593999997E+02  0.45594000000E+02  0.51100000000E-03 0.  1.
         11   -1    0    0    0    0 -0.00000000000E+00 -0.00000000000E+00 -0.45593999997E+02  0.45594000000E+02  0.51100000000E-03 0. -1.
    9900012    2    1    2    0    0 -0.25922933036E+02 -0.27896877168E+02  0.14245390954E+02  0.50528863556E+02  0.30000011266E+02 0.  0.
         12    1    1    2    0    0  0.25922933036E+02  0.27896877168E+02 -0.14245390954E+02  0.40659136444E+02  0.00000000000E+00 0. -1.
         11    1    3    3    0    0 -0.83719541163E+01 -0.10332895485E+02  0.80640368320E+01  0.15552717934E+02  0.51100000000E-03 0. -1.
        -11    1    3    3    0    0 -0.16982874447E+02 -0.23063698541E+01 -0.26429534000E+01  0.17341354310E+02  0.51100000000E-03 0.  1.
         12    1    3    3    0    0 -0.56810447295E+00 -0.15257611828E+02  0.88243075224E+01  0.17634791313E+02  0.00000000000E+00 0. -1.
</event>
<event>
 7    1  0.2575978E-011  0.5052886E+02  0.7816164E-02  0.1300439E+00
        -11   -1    0    0    0    0  0.00000000000E+00  0.00000000000E+00  0.45593999997E+02  0.45594000000E+02  0.51100000000E-03 0. -1.
         11   -1    0    0    0    0 -0.00000000000E+00 -0.00000000000E+00 -0.45593999997E+02  0.45594000000E+02  0.51100000000E-03 0.  1.
    9900012    2    1    2    0    0 -0.17648188916E+02 -0.36619913677E+02 -0.83002396171E+00  0.50528860935E+02  0.30000003297E+02 0.  0.
         12    1    1    2    0    0  0.17648188916E+02  0.36619913677E+02  0.83002396171E+00  0.40659139065E+02  0.00000000000E+00 0. -1.
         11    1    3    3    0    0 -0.51521211395E+01 -0.28579170972E+01  0.37206377351E+01  0.69681552643E+01  0.51100000000E-03 0. -1.
        -11    1    3    3    0    0 -0.11244892278E+02 -0.34841415151E+02  0.21355551158E+01  0.36673320111E+02  0.51100000000E-03 0.  1.
         12    1    3    3    0    0 -0.12511754985E+01  0.10794185707E+01 -0.66862168126E+01  0.68873855594E+01  0.00000000000E+00 0. -1.
</event>
<event>
 7    1  0.2575978E-011  0.5052886E+02  0.7816164E-02  0.1300439E+00
        -11   -1    0    0    0    0  0.00000000000E+00  0.00000000000E+00  0.45593999997E+02  0.45594000000E+02  0.51100000000E-03 0. -1.
         11   -1    0    0    0    0 -0.00000000000E+00 -0.00000000000E+00 -0.45593999997E+02  0.45594000000E+02  0.51100000000E-03 0.  1.
    9900012    2    1    2    0    0 -0.20897273673E+02  0.41586557365E+00 -0.34875442134E+02  0.50528862586E+02  0.30000008317E+02 0.  0.
         12    1    1    2    0    0  0.20897273673E+02 -0.41586557365E+00  0.34875442134E+02  0.40659137414E+02  0.00000000000E+00 0. -1.
         11    1    3    3    0    0 -0.11511901617E+02 -0.16622749442E+01 -0.33588590925E+02  0.35545470561E+02  0.51100000000E-03 0.  1.
        -11    1    3    3    0    0 -0.57844064515E+01 -0.45666397795E+01 -0.57559514112E+00  0.73922166432E+01  0.51100000000E-03 0. -1.
        -12    1    3    3    0    0 -0.36009656051E+01  0.66447802973E+01 -0.71125606837E+00  0.75911753822E+01  0.00000000000E+00 0.  1.
</event>
<event>
 7    1  0.2575978E-011  0.5052885E+02  0.7816164E-02  0.1300439E+00
        -11   -1    0    0    0    0  0.00000000000E+00  0.00000000000E+00  0.45593999997E+02  0.45594000000E+02  0.51100000000E-03 0.  1.
         11   -1    0    0    0    0 -0.00000000000E+00 -0.00000000000E+00 -0.45593999997E+02  0.45594000000E+02  0.51100000000E-03 0. -1.
    9900012    2    1    2    0    0  0.21127370943E+02 -0.24282136338E+02  0.24843072343E+02  0.50528853531E+02  0.29999980794E+02 0.  0.
         12    1    1    2    0    0 -0.21127370943E+02  0.24282136338E+02 -0.24843072343E+02  0.40659146469E+02  0.00000000000E+00 0. -1.
         11    1    3    3    0    0 -0.54067955409E+01  0.16020202883E-01  0.27971525852E+01  0.60875083173E+01  0.51100000000E-03 0. -1.
        -11    1    3    3    0    0  0.39095335564E+01 -0.55967564437E+01  0.11262219551E+02  0.13169879453E+02  0.51100000000E-03 0.  1.
        -12    1    3    3    0    0  0.22624632928E+02 -0.18701400097E+02  0.10783700207E+02  0.31271465761E+02  0.00000000000E+00 0.  1.
</event>
<event>
 7    1  0.2575978E-011  0.5052883E+02  0.7816164E-02  0.1300439E+00
        -11   -1    0    0    0    0  0.00000000000E+00  0.00000000000E+00  0.45593999997E+02  0.45594000000E+02  0.51100000000E-03 0.  1.
         11   -1    0    0    0    0 -0.00000000000E+00 -0.00000000000E+00 -0.45593999997E+02  0.45594000000E+02  0.51100000000E-03 0. -1.
    9900012    2    1    2    0    0  0.47394371628E+01 -0.29205502364E+02  0.27888077368E+02  0.50528825239E+02  0.29999894798E+02 0.  0.
         12    1    1    2    0    0 -0.47394371628E+01  0.29205502364E+02 -0.27888077368E+02  0.40659174761E+02  0.00000000000E+00 0. -1.
         11    1    3    3    0    0  0.24921870620E+01  0.24702119221E+01  0.33546831240E+01  0.48545692307E+01  0.51100000000E-03 0. -1.
        -11    1    3    3    0    0  0.29121022850E+00 -0.32228878706E+01  0.15386897811E+02  0.15723499424E+02  0.51100000000E-03 0.  1.
        -12    1    3    3    0    0  0.19560398722E+01 -0.28452826415E+02  0.91464964322E+01  0.29950756585E+02  0.00000000000E+00 0.  1.
</event>
<event>
 7    1  0.2575978E-011  0.5052887E+02  0.7816164E-02  0.1300439E+00
        -11   -1    0    0    0    0  0.00000000000E+00  0.00000000000E+00  0.45593999997E+02  0.45594000000E+02  0.51100000000E-03 0. -1.
         11   -1    0    0    0    0 -0.00000000000E+00 -0.00000000000E+00 -0.45593999997E+02  0.45594000000E+02  0.51100000000E-03 0.  1.
    9900012    2    1    2    0    0 -0.13476657861E+02 -0.34575453069E+02 -0.16615738619E+02  0.50528867792E+02  0.30000024141E+02 0.  0.
         12    1    1    2    0    0  0.13476657861E+02  0.34575453069E+02  0.16615738619E+02  0.40659132208E+02  0.00000000000E+00 0. -1.
         11    1    3    3    0    0 -0.62876797222E+01 -0.21561624581E+01  0.28395123721E+01  0.72281936614E+01  0.51100000000E-03 0. -1.
        -11    1    3    3    0    0 -0.12565585635E+02 -0.21722836379E+02 -0.70633099111E+01  0.26070402947E+02  0.51100000000E-03 0.  1.
         12    1    3    3    0    0  0.53766074959E+01 -0.10696454232E+02 -0.12391941080E+02  0.17230271183E+02  0.00000000000E+00 0. -1.
</event>
<event>
 7    1  0.2575978E-011  0.5052886E+02  0.7816164E-02  0.1300439E+00
        -11   -1    0    0    0    0  0.00000000000E+00  0.00000000000E+00  0.45593999997E+02  0.45594000000E+02  0.51100000000E-03 0.  1.
         11   -1    0    0    0    0 -0.00000000000E+00 -0.00000000000E+00 -0.45593999997E+02  0.45594000000E+02  0.51100000000E-03 0. -1.
    9900012    2    1    2    0    0  0.28334531705E+02 -0.29153894604E+02 -0.60833843823E+00  0.50528864087E+02  0.30000012879E+02 0.  0.
         12    1    1    2    0    0 -0.28334531705E+02  0.29153894604E+02  0.60833843823E+00  0.40659135913E+02  0.00000000000E+00 0. -1.
         11    1    3    3    0    0  0.57573101877E+00 -0.11347521156E+02  0.29898433755E+01  0.11748909152E+02  0.51100000000E-03 0. -1.
        -11    1    3    3    0    0  0.50261007133E+01 -0.59540276334E+01  0.75265550708E+01  0.10833335817E+02  0.51100000000E-03 0.  1.
         12    1    3    3    0    0  0.22732699973E+02 -0.11852345815E+02 -0.11124736884E+02  0.27946619118E+02  0.00000000000E+00 0. -1.
</event>
<event>
 7    1  0.2575978E-011  0.5052886E+02  0.7816164E-02  0.1300439E+00
        -11   -1    0    0    0    0  0.00000000000E+00  0.00000000000E+00  0.45593999997E+02  0.45594000000E+02  0.51100000000E-03 0.  1.
         11   -1    0    0    0    0 -0.00000000000E+00 -0.00000000000E+00 -0.45593999997E+02  0.45594000000E+02  0.51100000000E-03 0. -1.
    9900012    2    1    2    0    0 -0.98081890700E+01 -0.13094078032E+02  0.37222444540E+02  0.50528857979E+02  0.29999994313E+02 0.  0.
         12    1    1    2    0    0  0.98081890700E+01  0.13094078032E+02 -0.37222444540E+02  0.40659142021E+02  0.00000000000E+00 0. -1.
         11    1    3    3    0    0  0.25139046679E+00 -0.58317227348E+01 -0.71941235726E+00  0.58813044151E+01  0.51100000000E-03 0. -1.
        -11    1    3    3    0    0 -0.53649637598E+01  0.68266999565E+01  0.13909532297E+02  0.16397004526E+02  0.51100000000E-03 0.  1.
         12    1    3    3    0    0 -0.46946157770E+01 -0.14089055253E+02  0.24032324600E+02  0.28250549038E+02  0.00000000000E+00 0. -1.
</event>
<event>
 7    1  0.2575978E-011  0.5052892E+02  0.7816164E-02  0.1300439E+00
        -11   -1    0    0    0    0  0.00000000000E+00  0.00000000000E+00  0.45593999997E+02  0.45594000000E+02  0.51100000000E-03 0.  1.
         11   -1    0    0    0    0 -0.00000000000E+00 -0.00000000000E+00 -0.45593999997E+02  0.45594000000E+02  0.51100000000E-03 0. -1.
    9900012    2    1    2    0    0 -0.11584799791E+02  0.18962279488E+02  0.34049749243E+02  0.50528916721E+02  0.30000172866E+02 0.  0.
         12    1    1    2    0    0  0.11584799791E+02 -0.18962279488E+02 -0.34049749243E+02  0.40659083279E+02  0.00000000000E+00 0. -1.
         11    1    3    3    0    0 -0.62796370684E+01  0.89519285322E+01  0.34168719903E+01  0.11456259451E+02  0.51100000000E-03 0.  1.
        -11    1    3    3    0    0  0.79473082416E+00  0.14284767127E+02  0.10915744923E+02  0.17995545462E+02  0.51100000000E-03 0. -1.
         12    1    3    3    0    0 -0.60998935471E+01 -0.42744161721E+01  0.19717132329E+02  0.21077111808E+02  0.00000000000E+00 0. -1.
</event>
<event>
 7    1  0.2575978E-011  0.5052885E+02  0.7816164E-02  0.1300439E+00
        -11   -1    0    0    0    0  0.00000000000E+00  0.00000000000E+00  0.45593999997E+02  0.45594000000E+02  0.51100000000E-03 0. -1.
         11   -1    0    0    0    0 -0.00000000000E+00 -0.00000000000E+00 -0.45593999997E+02  0.45594000000E+02  0.51100000000E-03 0.  1.
    9900012    2    1    2    0    0 -0.10048130913E+02 -0.32132610211E+02 -0.22796856376E+02  0.50528853004E+02  0.29999979191E+02 0.  0.
         12    1    1    2    0    0  0.10048130913E+02  0.32132610211E+02  0.22796856376E+02  0.40659146996E+02  0.00000000000E+00 0. -1.
         11    1    3    3    0    0 -0.55239454102E+01 -0.39637608931E+01  0.29368684110E+01  0.74061170419E+01  0.51100000000E-03 0. -1.
        -11    1    3    3    0    0 -0.32746219745E+01 -0.22366916960E+01 -0.14146985548E+02  0.14692281620E+02  0.51100000000E-03 0.  1.
         12    1    3    3    0    0 -0.12495635279E+01 -0.25932157622E+02 -0.11586739239E+02  0.28430454343E+02  0.00000000000E+00 0. -1.
</event>
<event>
 7    1  0.2575978E-011  0.5052884E+02  0.7816164E-02  0.1300439E+00
        -11   -1    0    0    0    0  0.00000000000E+00  0.00000000000E+00  0.45593999997E+02  0.45594000000E+02  0.51100000000E-03 0. -1.
         11   -1    0    0    0    0 -0.00000000000E+00 -0.00000000000E+00 -0.45593999997E+02  0.45594000000E+02  0.51100000000E-03 0.  1.
    9900012    2    1    2    0    0  0.13439049534E+02 -0.11790023472E+02 -0.36517864260E+02  0.50528842163E+02  0.29999946239E+02 0.  0.
         12    1    1    2    0    0 -0.13439049534E+02  0.11790023472E+02  0.36517864260E+02  0.40659157837E+02  0.00000000000E+00 0. -1.
         11    1    3    3    0    0 -0.60768604582E+00 -0.43562352638E+01 -0.12674751055E+02  0.13416235783E+02  0.51100000000E-03 0.  1.
        -11    1    3    3    0    0  0.18474231808E+01 -0.10101586786E+01  0.48453961198E+01  0.52831105217E+01  0.51100000000E-03 0. -1.
         12    1    3    3    0    0  0.12199312399E+02 -0.64236295298E+01 -0.28688509325E+02  0.31829495859E+02  0.00000000000E+00 0. -1.
</event>
<event>
 7    1  0.2575978E-011  0.5052886E+02  0.7816164E-02  0.1300439E+00
        -11   -1    0    0    0    0  0.00000000000E+00  0.00000000000E+00  0.45593999997E+02  0.45594000000E+02  0.51100000000E-03 0.  1.
         11   -1    0    0    0    0 -0.00000000000E+00 -0.00000000000E+00 -0.45593999997E+02  0.45594000000E+02  0.51100000000E-03 0. -1.
    9900012    2    1    2    0    0 -0.22870840273E+02  0.12188014920E+02  0.31329583370E+02  0.50528857896E+02  0.29999994061E+02 0.  0.
         12    1    1    2    0    0  0.22870840273E+02 -0.12188014920E+02 -0.31329583370E+02  0.40659142104E+02  0.00000000000E+00 0. -1.
         11    1    3    3    0    0 -0.36645726137E+01 -0.56769842213E+00 -0.45270646166E+01  0.58519815655E+01  0.51100000000E-03 0. -1.
        -11    1    3    3    0    0  0.15797645746E+01  0.21944057062E+01  0.13249320419E+01  0.30110658730E+01  0.51100000000E-03 0.  1.
        -12    1    3    3    0    0 -0.20786032234E+02  0.10561307636E+02  0.34531715945E+02  0.41665810458E+02  0.00000000000E+00 0.  1.
</event>
<event>
 7    1  0.2575978E-011  0.5052886E+02  0.7816164E-02  0.1300439E+00
        -11   -1    0    0    0    0  0.00000000000E+00  0.00000000000E+00  0.45593999997E+02  0.45594000000E+02  0.51100000000E-03 0.  1.
         11   -1    0    0    0    0 -0.00000000000E+00 -0.00000000000E+00 -0.45593999997E+02  0.45594000000E+02  0.51100000000E-03 0. -1.
    9900012    2    1    2    0    0 -0.49835337480E+01  0.32120458967E+02  0.24425520257E+02  0.50528861634E+02  0.30000005421E+02 0.  0.
         12    1    1    2    0    0  0.49835337480E+01 -0.32120458967E+02 -0.24425520257E+02  0.40659138366E+02  0.00000000000E+00 0. -1.
         11    1    3    3    0    0  0.47579533987E+01  0.20224455704E+02  0.13843972928E+02  0.24966423768E+02  0.51100000000E-03 0. -1.
        -11    1    3    3    0    0 -0.23324359833E+01  0.11019594620E+02 -0.14997555504E+01  0.11363141739E+02  0.51100000000E-03 0.  1.
        -12    1    3    3    0    0 -0.74090511635E+01  0.87640864406E+00  0.12081302879E+02  0.14199296127E+02  0.00000000000E+00 0.  1.
</event>
<event>
 7    1  0.2575978E-011  0.5052886E+02  0.7816164E-02  0.1300439E+00
        -11   -1    0    0    0    0  0.00000000000E+00  0.00000000000E+00  0.45593999997E+02  0.45594000000E+02  0.51100000000E-03 0.  1.
         11   -1    0    0    0    0 -0.00000000000E+00 -0.00000000000E+00 -0.45593999997E+02  0.45594000000E+02  0.51100000000E-03 0. -1.
    9900012    2    1    2    0    0  0.28367951679E+02 -0.29041895117E+02 -0.22345603132E+01  0.50528860631E+02  0.30000002374E+02 0.  0.
         12    1    1    2    0    0 -0.28367951679E+02  0.29041895117E+02  0.22345603132E+01  0.40659139369E+02  0.00000000000E+00 0. -1.
         11    1    3    3    0    0  0.70704967883E+01 -0.13702704070E+01  0.93621555190E+00  0.72626486657E+01  0.51100000000E-03 0. -1.
        -11    1    3    3    0    0  0.87394551527E+01  0.86238706392E-01 -0.86662853104E+01  0.12308127998E+02  0.51100000000E-03 0.  1.
        -12    1    3    3    0    0  0.12557999738E+02 -0.27757863416E+02  0.54955094453E+01  0.30958083967E+02  0.00000000000E+00 0.  1.
</event>
<event>
 7    1  0.2575978E-011  0.5052886E+02  0.7816164E-02  0.1300439E+00
        -11   -1    0    0    0    0  0.00000000000E+00  0.00000000000E+00  0.45593999997E+02  0.45594000000E+02  0.51100000000E-03 0. -1.
         11   -1    0    0    0    0 -0.00000000000E+00 -0.00000000000E+00 -0.45593999997E+02  0.45594000000E+02  0.51100000000E-03 0.  1.
    9900012    2    1    2    0    0  0.19674959329E+02  0.23150875328E+02 -0.27020343507E+02  0.50528855687E+02  0.29999987346E+02 0.  0.
         12    1    1    2    0    0 -0.19674959329E+02 -0.23150875328E+02  0.27020343507E+02  0.40659144313E+02  0.00000000000E+00 0. -1.
         11    1    3    3    0    0 -0.40781335033E+01  0.90299961124E+01 -0.70559199418E+01  0.12163799125E+02  0.51100000000E-03 0. -1.
        -11    1    3    3    0    0  0.38278969793E+01  0.10845585266E+02 -0.27377196118E+01  0.11822631855E+02  0.51100000000E-03 0.  1.
        -12    1    3    3    0    0  0.19925195853E+02  0.32752939494E+01 -0.17226703953E+02  0.26542424707E+02  0.00000000000E+00 0.  1.
</event>
<event>
 7    1  0.2575978E-011  0.5052886E+02  0.7816164E-02  0.1300439E+00
        -11   -1    0    0    0    0  0.00000000000E+00  0.00000000000E+00  0.45593999997E+02  0.45594000000E+02  0.51100000000E-03 0.  1.
         11   -1    0    0    0    0 -0.00000000000E+00 -0.00000000000E+00 -0.45593999997E+02  0.45594000000E+02  0.51100000000E-03 0. -1.
    9900012    2    1    2    0    0 -0.23897324689E+01  0.35912318291E+00  0.40587264983E+02  0.50528857491E+02  0.29999992830E+02 0.  0.
         12    1    1    2    0    0  0.23897324689E+01 -0.35912318291E+00 -0.40587264983E+02  0.40659142509E+02  0.00000000000E+00 0. -1.
         11    1    3    3    0    0  0.86660767260E+01 -0.16773603276E+01  0.12106846116E+02  0.14982995249E+02  0.51100000000E-03 0.  1.
        -11    1    3    3    0    0  0.28054872728E+01 -0.35050502904E+01  0.15405810238E+01  0.47465278392E+01  0.51100000000E-03 0. -1.
        -12    1    3    3    0    0 -0.13861296468E+02  0.55415338009E+01  0.26939837843E+02  0.30799334403E+02  0.00000000000E+00 0.  1.
</event>
<event>
 7    1  0.2575978E-011  0.5052887E+02  0.7816164E-02  0.1300439E+00
        -11   -1    0    0    0    0  0.00000000000E+00  0.00000000000E+00  0.45593999997E+02  0.45594000000E+02  0.51100000000E-03 0. -1.
         11   -1    0    0    0    0 -0.00000000000E+00 -0.00000000000E+00 -0.45593999997E+02  0.45594000000E+02  0.51100000000E-03 0.  1.
    9900012    2    1    2    0    0  0.28047822987E+02 -0.25396056403E+02 -0.14883720632E+02  0.50528865787E+02  0.30000018045E+02 0.  0.
         12    1    1    2    0    0 -0.28047822987E+02  0.25396056403E+02  0.14883720632E+02  0.40659134213E+02  0.00000000000E+00 0. -1.
         11    1    3    3    0    0  0.10932991570E+02 -0.45345440072E+01 -0.44089964339E+01  0.12630583670E+02  0.51100000000E-03 0. -1.
        -11    1    3    3    0    0  0.16136854299E+02 -0.40984389222E+01 -0.12726867051E+02  0.20956345423E+02  0.51100000000E-03 0.  1.
         12    1    3    3    0    0  0.97797711745E+00 -0.16763073473E+02  0.22521428532E+01  0.16941936694E+02  0.00000000000E+00 0. -1.
</event>
<event>
 7    1  0.2575978E-011  0.5052886E+02  0.7816164E-02  0.1300439E+00
        -11   -1    0    0    0    0  0.00000000000E+00  0.00000000000E+00  0.45593999997E+02  0.45594000000E+02  0.51100000000E-03 0.  1.
         11   -1    0    0    0    0 -0.00000000000E+00 -0.00000000000E+00 -0.45593999997E+02  0.45594000000E+02  0.51100000000E-03 0. -1.
    9900012    2    1    2    0    0  0.30696750502E+02 -0.17946837731E+02  0.19717662475E+02  0.50528859707E+02  0.29999999564E+02 0.  0.
         12    1    1    2    0    0 -0.30696750502E+02  0.17946837731E+02 -0.19717662475E+02  0.40659140293E+02  0.00000000000E+00 0. -1.
         11    1    3    3    0    0  0.19434331470E+02  0.12031987279E+00  0.54343297362E+01  0.20180179793E+02  0.51100000000E-03 0. -1.
        -11    1    3    3    0    0  0.14850798541E+02 -0.11241350943E+02  0.75024326383E+01  0.20079857671E+02  0.51100000000E-03 0.  1.
         12    1    3    3    0    0 -0.35883795090E+01 -0.68258066608E+01  0.67809001007E+01  0.10268822242E+02  0.00000000000E+00 0. -1.
</event>
<event>
 7    1  0.2575978E-011  0.5052885E+02  0.7816164E-02  0.1300439E+00
        -11   -1    0    0    0    0  0.00000000000E+00  0.00000000000E+00  0.45593999997E+02  0.45594000000E+02  0.51100000000E-03 0. -1.
         11   -1    0    0    0    0 -0.00000000000E+00 -0.00000000000E+00 -0.45593999997E+02  0.45594000000E+02  0.51100000000E-03 0.  1.
    9900012    2    1    2    0    0 -0.28296377148E+02  0.29121456861E+02  0.21029919941E+01  0.50528846237E+02  0.29999958623E+02 0.  0.
         12    1    1    2    0    0  0.28296377148E+02 -0.29121456861E+02 -0.21029919941E+01  0.40659153763E+02  0.00000000000E+00 0. -1.
         11    1    3    3    0    0 -0.86969529667E+00 -0.21083249800E+01  0.32231143928E+01  0.39484010410E+01  0.51100000000E-03 0. -1.
        -11    1    3    3    0    0 -0.40206224990E+01 -0.25298309874E+01  0.24515434554E+01  0.53456071385E+01  0.51100000000E-03 0.  1.
        -12    1    3    3    0    0 -0.23406059352E+02  0.33759612828E+02 -0.35716658542E+01  0.41234838058E+02  0.00000000000E+00 0.  1.
</event>
<event>
 7    1  0.2575978E-011  0.5052886E+02  0.7816164E-02  0.1300439E+00
        -11   -1    0    0    0    0  0.00000000000E+00  0.00000000000E+00  0.45593999997E+02  0.45594000000E+02  0.51100000000E-03 0.  1.
         11   -1    0    0    0    0 -0.00000000000E+00 -0.00000000000E+00 -0.45593999997E+02  0.45594000000E+02  0.51100000000E-03 0. -1.
    9900012    2    1    2    0    0 -0.34681752293E+02 -0.21220293123E+02 -0.20127610599E+00  0.50528864564E+02  0.30000014329E+02 0.  0.
         12    1    1    2    0    0  0.34681752293E+02  0.21220293123E+02  0.20127610599E+00  0.40659135436E+02  0.00000000000E+00 0. -1.
         11    1    3    3    0    0 -0.75448508454E-02  0.21215569679E+01  0.74130730427E+00  0.22473534821E+01  0.51100000000E-03 0. -1.
        -11    1    3    3    0    0 -0.14759292271E+02  0.16022433526E+01 -0.59087634263E+01  0.15978653810E+02  0.51100000000E-03 0.  1.
         12    1    3    3    0    0 -0.19914915171E+02 -0.24944093443E+02  0.49661800161E+01  0.32302857272E+02  0.00000000000E+00 0. -1.
</event>
<event>
 7    1  0.2575978E-011  0.5052886E+02  0.7816164E-02  0.1300439E+00
        -11   -1    0    0    0    0  0.00000000000E+00  0.00000000000E+00  0.45593999997E+02  0.45594000000E+02  0.51100000000E-03 0.  1.
         11   -1    0    0    0    0 -0.00000000000E+00 -0.00000000000E+00 -0.45593999997E+02  0.45594000000E+02  0.51100000000E-03 0. -1.
    9900012    2    1    2    0    0 -0.25960185102E+02  0.20513534000E+02  0.23631113138E+02  0.50528858398E+02  0.29999995586E+02 0.  0.
         12    1    1    2    0    0  0.25960185102E+02 -0.20513534000E+02 -0.23631113138E+02  0.40659141602E+02  0.00000000000E+00 0. -1.
         11    1    3    3    0    0 -0.59587186410E+01  0.29954257368E+01 -0.59893102829E+01  0.89638574907E+01  0.51100000000E-03 0. -1.
        -11    1    3    3    0    0 -0.90685726968E+01  0.71519071056E+00  0.86093497509E+01  0.12524831811E+02  0.51100000000E-03 0.  1.
        -12    1    3    3    0    0 -0.10932893764E+02  0.16802917553E+02  0.21011073670E+02  0.29040169096E+02  0.00000000000E+00 0.  1.
</event>
<event>
 7    1  0.2575978E-011  0.5052885E+02  0.7816164E-02  0.1300439E+00
        -11   -1    0    0    0    0  0.00000000000E+00  0.00000000000E+00  0.45593999997E+02  0.45594000000E+02  0.51100000000E-03 0. -1.
         11   -1    0    0    0    0 -0.00000000000E+00 -0.00000000000E+00 -0.45593999997E+02  0.45594000000E+02  0.51100000000E-03 0.  1.
    9900012    2    1    2    0    0 -0.38287437462E+02  0.68880261684E+01 -0.11823440287E+02  0.50528849590E+02  0.29999968812E+02 0.  0.
         12    1    1    2    0    0  0.38287437462E+02 -0.68880261684E+01  0.11823440287E+02  0.40659150410E+02  0.00000000000E+00 0. -1.
         11    1    3    3    0    0  0.15231147601E+01  0.14675053557E+01  0.16689162911E+01  0.26942034796E+01  0.51100000000E-03 0. -1.
        -11    1    3    3    0    0 -0.20307230680E+02  0.13870758469E+02 -0.82900456898E+01  0.25952002161E+02  0.51100000000E-03 0.  1.
         12    1    3    3    0    0 -0.19503321542E+02 -0.84502376558E+01 -0.52023108878E+01  0.21882643949E+02  0.00000000000E+00 0. -1.
</event>
<event>
 7    1  0.2575978E-011  0.5052885E+02  0.7816164E-02  0.1300439E+00
        -11   -1    0    0    0    0  0.00000000000E+00  0.00000000000E+00  0.45593999997E+02  0.45594000000E+02  0.51100000000E-03 0.  1.
         11   -1    0    0    0    0 -0.00000000000E+00 -0.00000000000E+00 -0.45593999997E+02  0.45594000000E+02  0.51100000000E-03 0. -1.
    9900012    2    1    2    0    0  0.16774149013E+01  0.37467875364E+02  0.15700675725E+02  0.50528848223E+02  0.29999964657E+02 0.  0.
         12    1    1    2    0    0 -0.16774149013E+01 -0.37467875364E+02 -0.15700675725E+02  0.40659151777E+02  0.00000000000E+00 0. -1.
         11    1    3    3    0    0  0.23452419529E+01  0.24357952060E+01  0.22031028082E+01  0.40357056815E+01  0.51100000000E-03 0. -1.
        -11    1    3    3    0    0  0.89685008471E+01  0.26148685005E+02  0.17586475112E+02  0.32763880144E+02  0.51100000000E-03 0.  1.
         12    1    3    3    0    0 -0.96363278987E+01  0.88833951527E+01 -0.40889021953E+01  0.13729262397E+02  0.00000000000E+00 0. -1.
</event>
<event>
 7    1  0.2575978E-011  0.5052886E+02  0.7816164E-02  0.1300439E+00
        -11   -1    0    0    0    0  0.00000000000E+00  0.00000000000E+00  0.45593999997E+02  0.45594000000E+02  0.51100000000E-03 0.  1.
         11   -1    0    0    0    0 -0.00000000000E+00 -0.00000000000E+00 -0.45593999997E+02  0.45594000000E+02  0.51100000000E-03 0. -1.
    9900012    2    1    2    0    0  0.79121980844E+01  0.11580697869E+01  0.39865046324E+02  0.50528856839E+02  0.29999990849E+02 0.  0.
         12    1    1    2    0    0 -0.79121980844E+01 -0.11580697869E+01 -0.39865046324E+02  0.40659143161E+02  0.00000000000E+00 0. -1.
         11    1    3    3    0    0  0.56313221529E+00 -0.82472642149E+01  0.10803911251E+02  0.13603638613E+02  0.51100000000E-03 0. -1.
        -11    1    3    3    0    0  0.77930841468E+01  0.50105047192E+01  0.19644007890E+01  0.94708071874E+01  0.51100000000E-03 0.  1.
        -12    1    3    3    0    0 -0.44401827772E+00  0.43948292825E+01  0.27096734284E+02  0.27454411039E+02  0.00000000000E+00 0.  1.
</event>
<event>
 7    1  0.2575978E-011  0.5052885E+02  0.7816164E-02  0.1300439E+00
        -11   -1    0    0    0    0  0.00000000000E+00  0.00000000000E+00  0.45593999997E+02  0.45594000000E+02  0.51100000000E-03 0.  1.
         11   -1    0    0    0    0 -0.00000000000E+00 -0.00000000000E+00 -0.45593999997E+02  0.45594000000E+02  0.51100000000E-03 0. -1.
    9900012    2    1    2    0    0  0.21468138997E+02 -0.33786890329E+01  0.34363793771E+02  0.50528845386E+02  0.29999956035E+02 0.  0.
         12    1    1    2    0    0 -0.21468138997E+02  0.33786890329E+01 -0.34363793771E+02  0.40659154614E+02  0.00000000000E+00 0. -1.
         11    1    3    3    0    0  0.10955657334E+02 -0.43796686287E+01  0.67306308676E+01  0.13583420669E+02  0.51100000000E-03 0.  1.
        -11    1    3    3    0    0  0.57851066273E+01 -0.40184512704E+01  0.29062321728E+02  0.29903744812E+02  0.51100000000E-03 0. -1.
         12    1    3    3    0    0  0.47273750354E+01  0.50194308662E+01 -0.14291588239E+01  0.70416799053E+01  0.00000000000E+00 0. -1.
</event>
<event>
 7    1  0.2575978E-011  0.5052887E+02  0.7816164E-02  0.1300439E+00
        -11   -1    0    0    0    0  0.00000000000E+00  0.00000000000E+00  0.45593999997E+02  0.45594000000E+02  0.51100000000E-03 0. -1.
         11   -1    0    0    0    0 -0.00000000000E+00 -0.00000000000E+00 -0.45593999997E+02  0.45594000000E+02  0.51100000000E-03 0.  1.
    9900012    2    1    2    0    0  0.28717526088E+02  0.24976389319E+02 -0.14305551038E+02  0.50528866727E+02  0.30000020902E+02 0.  0.
         12    1    1    2    0    0 -0.28717526088E+02 -0.24976389319E+02  0.14305551038E+02  0.40659133273E+02  0.00000000000E+00 0. -1.
         11    1    3    3    0    0  0.11537668084E+02  0.40683793268E+01  0.24310651601E+01  0.12473154101E+02  0.51100000000E-03 0. -1.
        -11    1    3    3    0    0  0.17230994701E+02  0.20851233314E+02 -0.65010519239E+01  0.27819863146E+02  0.51100000000E-03 0.  1.
        -12    1    3    3    0    0 -0.51136696435E-01  0.56776678276E-01 -0.10235564274E+02  0.10235849479E+02  0.00000000000E+00 0.  1.
</event>
<event>
 7    1  0.2575978E-011  0.5052886E+02  0.7816164E-02  0.1300439E+00
        -11   -1    0    0    0    0  0.00000000000E+00  0.00000000000E+00  0.45593999997E+02  0.45594000000E+02  0.51100000000E-03 0. -1.
         11   -1    0    0    0    0 -0.00000000000E+00 -0.00000000000E+00 -0.45593999997E+02  0.45594000000E+02  0.51100000000E-03 0.  1.
    9900012    2    1    2    0    0  0.30343277749E+02  0.10601233154E+02 -0.24901099048E+02  0.50528863478E+02  0.30000011028E+02 0.  0.
         12    1    1    2    0    0 -0.30343277749E+02 -0.10601233154E+02  0.24901099048E+02  0.40659136522E+02  0.00000000000E+00 0. -1.
         11    1    3    3    0    0  0.85424219119E+01 -0.19619820547E+01 -0.19213476748E+02  0.21118239385E+02  0.51100000000E-03 0. -1.
        -11    1    3    3    0    0  0.98500115821E+00 -0.91778688408E+00 -0.43733407283E+01  0.45758790885E+01  0.51100000000E-03 0.  1.
        -12    1    3    3    0    0  0.20815854679E+02  0.13481002092E+02 -0.13142815719E+01  0.24834745005E+02  0.00000000000E+00 0.  1.
</event>
<event>
 7    1  0.2575978E-011  0.5052887E+02  0.7816164E-02  0.1300439E+00
        -11   -1    0    0    0    0  0.00000000000E+00  0.00000000000E+00  0.45593999997E+02  0.45594000000E+02  0.51100000000E-03 0.  1.
         11   -1    0    0    0    0 -0.00000000000E+00 -0.00000000000E+00 -0.45593999997E+02  0.45594000000E+02  0.51100000000E-03 0. -1.
    9900012    2    1    2    0    0  0.16176757100E+02  0.28048738145E+02  0.24591582782E+02  0.50528866641E+02  0.30000020642E+02 0.  0.
         12    1    1    2    0    0 -0.16176757100E+02 -0.28048738145E+02 -0.24591582782E+02  0.40659133359E+02  0.00000000000E+00 0. -1.
         11    1    3    3    0    0  0.17361707338E+02  0.78257346989E+01  0.77950795691E+01  0.20577518582E+02  0.51100000000E-03 0. -1.
        -11    1    3    3    0    0  0.40804293814E+01  0.10648754299E+01  0.60151106551E+01  0.73461159855E+01  0.51100000000E-03 0.  1.
         12    1    3    3    0    0 -0.52653796189E+01  0.19158128016E+02  0.10781392558E+02  0.22605232073E+02  0.00000000000E+00 0. -1.
</event>
<event>
 7    1  0.2575978E-011  0.5052887E+02  0.7816164E-02  0.1300439E+00
        -11   -1    0    0    0    0  0.00000000000E+00  0.00000000000E+00  0.45593999997E+02  0.45594000000E+02  0.51100000000E-03 0.  1.
         11   -1    0    0    0    0 -0.00000000000E+00 -0.00000000000E+00 -0.45593999997E+02  0.45594000000E+02  0.51100000000E-03 0. -1.
    9900012    2    1    2    0    0 -0.25960997702E+00  0.40596586855E+02  0.22392612111E+01  0.50528873689E+02  0.30000042065E+02 0.  0.
         12    1    1    2    0    0  0.25960997702E+00 -0.40596586855E+02 -0.22392612111E+01  0.40659126311E+02  0.00000000000E+00 0. -1.
         11    1    3    3    0    0 -0.12400770071E+02  0.25312578360E+02  0.30399728636E+01  0.28350434862E+02  0.51100000000E-03 0. -1.
        -11    1    3    3    0    0  0.66918380752E+00  0.85111491135E+01 -0.21037175960E+01  0.87927864858E+01  0.51100000000E-03 0.  1.
         12    1    3    3    0    0  0.11471976286E+02  0.67728593810E+01  0.13030059435E+01  0.13385652341E+02  0.00000000000E+00 0. -1.
</event>
<event>
 7    1  0.2575978E-011  0.5052886E+02  0.7816164E-02  0.1300439E+00
        -11   -1    0    0    0    0  0.00000000000E+00  0.00000000000E+00  0.45593999997E+02  0.45594000000E+02  0.51100000000E-03 0.  1.
         11   -1    0    0    0    0 -0.00000000000E+00 -0.00000000000E+00 -0.45593999997E+02  0.45594000000E+02  0.51100000000E-03 0. -1.
    9900012    2    1    2    0    0  0.67507711035E+01  0.34797653902E+02  0.19917730663E+02  0.50528860531E+02  0.30000002070E+02 0.  0.
         12    1    1    2    0    0 -0.67507711035E+01 -0.34797653902E+02 -0.19917730663E+02  0.40659139469E+02  0.00000000000E+00 0. -1.
         11    1    3    3    0    0  0.20492317026E+01  0.74294871364E+01  0.11824770706E+01  0.77971072818E+01  0.51100000000E-03 0. -1.
        -11    1    3    3    0    0  0.27250054463E+01  0.27530879815E+02  0.24301308270E+02  0.36822935543E+02  0.51100000000E-03 0.  1.
        -12    1    3    3    0    0  0.19765339546E+01 -0.16271304987E+00 -0.55660546777E+01  0.59088177062E+01  0.00000000000E+00 0.  1.
</event>
<event>
 7    1  0.2575978E-011  0.5052886E+02  0.7816164E-02  0.1300439E+00
        -11   -1    0    0    0    0  0.00000000000E+00  0.00000000000E+00  0.45593999997E+02  0.45594000000E+02  0.51100000000E-03 0.  1.
         11   -1    0    0    0    0 -0.00000000000E+00 -0.00000000000E+00 -0.45593999997E+02  0.45594000000E+02  0.51100000000E-03 0. -1.
    9900012    2    1    2    0    0 -0.35198805732E+02  0.52531423467E+01  0.19662511418E+02  0.50528858534E+02  0.29999996001E+02 0.  0.
         12    1    1    2    0    0  0.35198805732E+02 -0.52531423467E+01 -0.19662511418E+02  0.40659141466E+02  0.00000000000E+00 0. -1.
         11    1    3    3    0    0 -0.77551869490E+01  0.81443666814E+01  0.71376980709E+01  0.13319923696E+02  0.51100000000E-03 0. -1.
        -11    1    3    3    0    0  0.25228208588E+01  0.17322447522E+01  0.51713022873E+01  0.60089653498E+01  0.51100000000E-03 0.  1.
         12    1    3    3    0    0 -0.29966439641E+02 -0.46234690870E+01  0.73535110601E+01  0.31199969489E+02  0.00000000000E+00 0. -1.
</event>
<event>
 7    1  0.2575978E-011  0.5052885E+02  0.7816164E-02  0.1300439E+00
        -11   -1    0    0    0    0  0.00000000000E+00  0.00000000000E+00  0.45593999997E+02  0.45594000000E+02  0.51100000000E-03 0.  1.
         11   -1    0    0    0    0 -0.00000000000E+00 -0.00000000000E+00 -0.45593999997E+02  0.45594000000E+02  0.51100000000E-03 0. -1.
    9900012    2    1    2    0    0 -0.53477645954E+01  0.33030605018E+02  0.23098640528E+02  0.50528847915E+02  0.29999963723E+02 0.  0.
         12    1    1    2    0    0  0.53477645954E+01 -0.33030605018E+02 -0.23098640528E+02  0.40659152085E+02  0.00000000000E+00 0. -1.
         11    1    3    3    0    0  0.34413137872E+01  0.26316517251E+02  0.26886393955E+02  0.37779358133E+02  0.51100000000E-03 0.  1.
        -11    1    3    3    0    0 -0.56387354858E+01  0.68868706005E+01 -0.19986103910E+01  0.91224321484E+01  0.51100000000E-03 0. -1.
        -12    1    3    3    0    0 -0.31503428968E+01 -0.17278283379E+00 -0.17891430356E+01  0.36270576335E+01  0.00000000000E+00 0.  1.
</event>
<event>
 7    1  0.2575978E-011  0.5052887E+02  0.7816164E-02  0.1300439E+00
        -11   -1    0    0    0    0  0.00000000000E+00  0.00000000000E+00  0.45593999997E+02  0.45594000000E+02  0.51100000000E-03 0.  1.
         11   -1    0    0    0    0 -0.00000000000E+00 -0.00000000000E+00 -0.45593999997E+02  0.45594000000E+02  0.51100000000E-03 0. -1.
    9900012    2    1    2    0    0  0.12377607338E+02 -0.38348965487E+02  0.54145087378E+01  0.50528865451E+02  0.30000017026E+02 0.  0.
         12    1    1    2    0    0 -0.12377607338E+02  0.38348965487E+02 -0.54145087378E+01  0.40659134549E+02  0.00000000000E+00 0. -1.
         11    1    3    3    0    0  0.57292735053E+01 -0.13070236240E+02 -0.57241582312E+01  0.15376008519E+02  0.51100000000E-03 0. -1.
        -11    1    3    3    0    0  0.50194253258E+01  0.23698811098E+01  0.89383087063E+00  0.56222683112E+01  0.51100000000E-03 0.  1.
        -12    1    3    3    0    0  0.16289085067E+01 -0.27648610358E+02  0.10244836098E+02  0.29530588621E+02  0.00000000000E+00 0.  1.
</event>
<event>
 7    1  0.2575978E-011  0.5052886E+02  0.7816164E-02  0.1300439E+00
        -11   -1    0    0    0    0  0.00000000000E+00  0.00000000000E+00  0.45593999997E+02  0.45594000000E+02  0.51100000000E-03 0.  1.
         11   -1    0    0    0    0 -0.00000000000E+00 -0.00000000000E+00 -0.45593999997E+02  0.45594000000E+02  0.51100000000E-03 0. -1.
    9900012    2    1    2    0    0 -0.48170181958E+00 -0.40570467351E+02 -0.26401727755E+01  0.50528863634E+02  0.30000011501E+02 0.  0.
         12    1    1    2    0    0  0.48170181958E+00  0.40570467351E+02  0.26401727755E+01  0.40659136366E+02  0.00000000000E+00 0. -1.
         11    1    3    3    0    0 -0.28242178134E+01 -0.64187796348E+00  0.73171896342E+01  0.78695284472E+01  0.51100000000E-03 0. -1.
        -11    1    3    3    0    0  0.47635252007E+01 -0.70363560024E+01 -0.22330014016E+01  0.87856572692E+01  0.51100000000E-03 0.  1.
        -12    1    3    3    0    0 -0.24210092069E+01 -0.32892233386E+02 -0.77243610081E+01  0.33873677917E+02  0.00000000000E+00 0.  1.
</event>
<event>
 7    1  0.2575978E-011  0.5052887E+02  0.7816164E-02  0.1300439E+00
        -11   -1    0    0    0    0  0.00000000000E+00  0.00000000000E+00  0.45593999997E+02  0.45594000000E+02  0.51100000000E-03 0.  1.
         11   -1    0    0    0    0 -0.00000000000E+00 -0.00000000000E+00 -0.45593999997E+02  0.45594000000E+02  0.51100000000E-03 0. -1.
    9900012    2    1    2    0    0 -0.61865130577E+00  0.31533838825E+02  0.25659296190E+02  0.50528865707E+02  0.30000017804E+02 0.  0.
         12    1    1    2    0    0  0.61865130577E+00 -0.31533838825E+02 -0.25659296190E+02  0.40659134293E+02  0.00000000000E+00 0. -1.
         11    1    3    3    0    0  0.23565837934E+01 -0.29561922810E+01  0.31450899634E+01  0.49177384148E+01  0.51100000000E-03 0. -1.
        -11    1    3    3    0    0 -0.31200254602E+00  0.24492097009E+01  0.11290136967E+02  0.11556953177E+02  0.51100000000E-03 0.  1.
        -12    1    3    3    0    0 -0.26632325532E+01  0.32040821405E+02  0.11224069260E+02  0.34054174115E+02  0.00000000000E+00 0.  1.
</event>
<event>
 7    1  0.2575978E-011  0.5052886E+02  0.7816164E-02  0.1300439E+00
        -11   -1    0    0    0    0  0.00000000000E+00  0.00000000000E+00  0.45593999997E+02  0.45594000000E+02  0.51100000000E-03 0. -1.
         11   -1    0    0    0    0 -0.00000000000E+00 -0.00000000000E+00 -0.45593999997E+02  0.45594000000E+02  0.51100000000E-03 0.  1.
    9900012    2    1    2    0    0  0.11151614081E+02  0.16654259524E+02 -0.35375734956E+02  0.50528862275E+02  0.30000007371E+02 0.  0.
         12    1    1    2    0    0 -0.11151614081E+02 -0.16654259524E+02  0.35375734956E+02  0.40659137725E+02  0.00000000000E+00 0. -1.
         11    1    3    3    0    0  0.74511376337E+01  0.11356972729E+02 -0.25267724727E+02  0.28687247947E+02  0.51100000000E-03 0.  1.
        -11    1    3    3    0    0  0.58984714551E+01  0.82957669678E+01 -0.13432911464E+02  0.16853926123E+02  0.51100000000E-03 0. -1.
         12    1    3    3    0    0 -0.21979950081E+01 -0.29984801736E+01  0.33249012355E+01  0.49876882053E+01  0.00000000000E+00 0. -1.
</event>
<event>
 7    1  0.2575978E-011  0.5052889E+02  0.7816164E-02  0.1300439E+00
        -11   -1    0    0    0    0  0.00000000000E+00  0.00000000000E+00  0.45593999997E+02  0.45594000000E+02  0.51100000000E-03 0. -1.
         11   -1    0    0    0    0 -0.00000000000E+00 -0.00000000000E+00 -0.45593999997E+02  0.45594000000E+02  0.51100000000E-03 0.  1.
    9900012    2    1    2    0    0  0.30389656266E+02 -0.51524080061E+01 -0.26515746769E+02  0.50528888562E+02  0.30000087272E+02 0.  0.
         12    1    1    2    0    0 -0.30389656266E+02  0.51524080061E+01  0.26515746769E+02  0.40659111438E+02  0.00000000000E+00 0. -1.
         11    1    3    3    0    0 -0.20440467103E+01 -0.89742669231E+00 -0.41807623664E+01  0.47394383473E+01  0.51100000000E-03 0. -1.
        -11    1    3    3    0    0  0.44930978884E+01 -0.10048526877E+02 -0.93352152832E+01  0.14432846763E+02  0.51100000000E-03 0.  1.
        -12    1    3    3    0    0  0.27940605088E+02  0.57935455629E+01 -0.12999769119E+02  0.31356603452E+02  0.00000000000E+00 0.  1.
</event>
<event>
 7    1  0.2575978E-011  0.5052887E+02  0.7816164E-02  0.1300439E+00
        -11   -1    0    0    0    0  0.00000000000E+00  0.00000000000E+00  0.45593999997E+02  0.45594000000E+02  0.51100000000E-03 0.  1.
         11   -1    0    0    0    0 -0.00000000000E+00 -0.00000000000E+00 -0.45593999997E+02  0.45594000000E+02  0.51100000000E-03 0. -1.
    9900012    2    1    2    0    0 -0.15059480601E+02 -0.47430824735E+01  0.37468391213E+02  0.50528866618E+02  0.30000020572E+02 0.  0.
         12    1    1    2    0    0  0.15059480601E+02  0.47430824735E+01 -0.37468391213E+02  0.40659133382E+02  0.00000000000E+00 0. -1.
         11    1    3    3    0    0 -0.15461814205E+02 -0.11589461160E+02  0.10747565199E+02  0.22110935450E+02  0.51100000000E-03 0. -1.
        -11    1    3    3    0    0 -0.18974039261E+01 -0.45547187060E+00  0.41909271266E+01  0.46229283712E+01  0.51100000000E-03 0.  1.
         12    1    3    3    0    0  0.22997375303E+01  0.73018505569E+01  0.22529898887E+02  0.23795002797E+02  0.00000000000E+00 0. -1.
</event>
<event>
 7    1  0.2575978E-011  0.5052886E+02  0.7816164E-02  0.1300439E+00
        -11   -1    0    0    0    0  0.00000000000E+00  0.00000000000E+00  0.45593999997E+02  0.45594000000E+02  0.51100000000E-03 0.  1.
         11   -1    0    0    0    0 -0.00000000000E+00 -0.00000000000E+00 -0.45593999997E+02  0.45594000000E+02  0.51100000000E-03 0. -1.
    9900012    2    1    2    0    0  0.22325463483E+02  0.23097254383E+02  0.24925004755E+02  0.50528863981E+02  0.30000012557E+02 0.  0.
         12    1    1    2    0    0 -0.22325463483E+02 -0.23097254383E+02 -0.24925004755E+02  0.40659136019E+02  0.00000000000E+00 0. -1.
         11    1    3    3    0    0 -0.35276960117E+01  0.22516272661E+01  0.54209334429E+01  0.68484293199E+01  0.51100000000E-03 0. -1.
        -11    1    3    3    0    0  0.20225564083E+01 -0.20402783370E+01 -0.26433369589E+01  0.39039339975E+01  0.51100000000E-03 0.  1.
        -12    1    3    3    0    0  0.23830603087E+02  0.22885905454E+02  0.22147408271E+02  0.39776500664E+02  0.00000000000E+00 0.  1.
</event>
<event>
 7    1  0.2575978E-011  0.5052883E+02  0.7816164E-02  0.1300439E+00
        -11   -1    0    0    0    0  0.00000000000E+00  0.00000000000E+00  0.45593999997E+02  0.45594000000E+02  0.51100000000E-03 0. -1.
         11   -1    0    0    0    0 -0.00000000000E+00 -0.00000000000E+00 -0.45593999997E+02  0.45594000000E+02  0.51100000000E-03 0.  1.
    9900012    2    1    2    0    0  0.12768633111E+02 -0.38517689127E+02 -0.25529985947E+01  0.50528829214E+02  0.29999906878E+02 0.  0.
         12    1    1    2    0    0 -0.12768633111E+02  0.38517689127E+02  0.25529985947E+01  0.40659170786E+02  0.00000000000E+00 0. -1.
         11    1    3    3    0    0  0.79331454370E+01 -0.76996759630E+01  0.49890282479E+01  0.12128899768E+02  0.51100000000E-03 0. -1.
        -11    1    3    3    0    0  0.95127183545E+01 -0.23073231554E+02 -0.12681641610E+02  0.27994461221E+02  0.51100000000E-03 0.  1.
         12    1    3    3    0    0 -0.46772306810E+01 -0.77447816099E+01  0.51396147677E+01  0.10405468225E+02  0.00000000000E+00 0. -1.
</event>
<event>
 7    1  0.2575978E-011  0.5052886E+02  0.7816164E-02  0.1300439E+00
        -11   -1    0    0    0    0  0.00000000000E+00  0.00000000000E+00  0.45593999997E+02  0.45594000000E+02  0.51100000000E-03 0.  1.
         11   -1    0    0    0    0 -0.00000000000E+00 -0.00000000000E+00 -0.45593999997E+02  0.45594000000E+02  0.51100000000E-03 0. -1.
    9900012    2    1    2    0    0 -0.18378506588E+02 -0.79415518580E+01  0.35388244323E+02  0.50528860971E+02  0.30000003407E+02 0.  0.
         12    1    1    2    0    0  0.18378506588E+02  0.79415518580E+01 -0.35388244323E+02  0.40659139029E+02  0.00000000000E+00 0. -1.
         11    1    3    3    0    0 -0.10784915282E+02 -0.37097228108E+01  0.20070251994E+01  0.11580353682E+02  0.51100000000E-03 0. -1.
        -11    1    3    3    0    0 -0.94161019213E+01 -0.54075591145E+01  0.80308395282E+01  0.13505519418E+02  0.51100000000E-03 0.  1.
         12    1    3    3    0    0  0.18225106160E+01  0.11757300673E+01  0.25350379596E+02  0.25442987871E+02  0.00000000000E+00 0. -1.
</event>
<event>
 7    1  0.2575978E-011  0.5052885E+02  0.7816164E-02  0.1300439E+00
        -11   -1    0    0    0    0  0.00000000000E+00  0.00000000000E+00  0.45593999997E+02  0.45594000000E+02  0.51100000000E-03 0. -1.
         11   -1    0    0    0    0 -0.00000000000E+00 -0.00000000000E+00 -0.45593999997E+02  0.45594000000E+02  0.51100000000E-03 0.  1.
    9900012    2    1    2    0    0  0.10324629963E+02 -0.39186485569E+02 -0.33148153755E+01  0.50528848065E+02  0.29999964179E+02 0.  0.
         12    1    1    2    0    0 -0.10324629963E+02  0.39186485569E+02  0.33148153755E+01  0.40659151935E+02  0.00000000000E+00 0. -1.
         11    1    3    3    0    0  0.87887367912E+01 -0.27297583246E+01 -0.15568650924E+01  0.93336650932E+01  0.51100000000E-03 0. -1.
        -11    1    3    3    0    0  0.75220402126E+01 -0.97666321892E+01 -0.56605492572E+01  0.13565028988E+02  0.51100000000E-03 0.  1.
         12    1    3    3    0    0 -0.59861470411E+01 -0.26690095055E+02  0.39025989742E+01  0.27630153984E+02  0.00000000000E+00 0. -1.
</event>
<event>
 7    1 -0.2575978E-011  0.5052885E+02  0.7816164E-02  0.1300439E+00
        -11   -1    0    0    0    0  0.00000000000E+00  0.00000000000E+00  0.45593999997E+02  0.45594000000E+02  0.51100000000E-03 0. -1.
         11   -1    0    0    0    0 -0.00000000000E+00 -0.00000000000E+00 -0.45593999997E+02  0.45594000000E+02  0.51100000000E-03 0.  1.
    9900012    2    1    2    0    0  0.14549306190E+02  0.33529439437E+02  0.17811809406E+02  0.50528853749E+02  0.29999981455E+02 0.  0.
         12    1    1    2    0    0 -0.14549306190E+02 -0.33529439437E+02 -0.17811809406E+02  0.40659146251E+02  0.00000000000E+00 0. -1.
         11    1    3    3    0    0 -0.62046702220E+01 -0.56430353863E+00  0.10718421031E+01  0.63218048690E+01  0.51100000000E-03 0. -1.
        -11    1    3    3    0    0  0.50778304941E+00  0.57793704281E+01  0.58005125055E+00  0.58305596545E+01  0.51100000000E-03 0.  1.
         12    1    3    3    0    0  0.20246193363E+02  0.28314372547E+02  0.16159916052E+02  0.38376489225E+02  0.00000000000E+00 0. -1.
</event>
<event>
 7    1  0.2575978E-011  0.5052894E+02  0.7816164E-02  0.1300439E+00
        -11   -1    0    0    0    0  0.00000000000E+00  0.00000000000E+00  0.45593999997E+02  0.45594000000E+02  0.51100000000E-03 0.  1.
         11   -1    0    0    0    0 -0.00000000000E+00 -0.00000000000E+00 -0.45593999997E+02  0.45594000000E+02  0.51100000000E-03 0. -1.
    9900012    2    1    2    0    0  0.10606297638E+02 -0.13849409298E+02  0.36726823679E+02  0.50528938709E+02  0.30000239700E+02 0.  0.
         12    1    1    2    0    0 -0.10606297638E+02  0.13849409298E+02 -0.36726823679E+02  0.40659061291E+02  0.00000000000E+00 0. -1.
         11    1    3    3    0    0  0.17283299577E+01 -0.40168586042E+01 -0.23398551849E+01  0.49595564354E+01  0.51100000000E-03 0. -1.
        -11    1    3    3    0    0  0.27294802382E+01 -0.14456030428E+02  0.31562204996E+02  0.34822401734E+02  0.51100000000E-03 0.  1.
         12    1    3    3    0    0  0.61484874416E+01  0.46234797347E+01  0.75044738684E+01  0.10746980540E+02  0.00000000000E+00 0. -1.
</event>
<event>
 7    1  0.2575978E-011  0.5052887E+02  0.7816164E-02  0.1300439E+00
        -11   -1    0    0    0    0  0.00000000000E+00  0.00000000000E+00  0.45593999997E+02  0.45594000000E+02  0.51100000000E-03 0. -1.
         11   -1    0    0    0    0 -0.00000000000E+00 -0.00000000000E+00 -0.45593999997E+02  0.45594000000E+02  0.51100000000E-03 0.  1.
    9900012    2    1    2    0    0 -0.20401835307E+02  0.21634062257E+02  0.27729001300E+02  0.50528867610E+02  0.30000023587E+02 0.  0.
         12    1    1    2    0    0  0.20401835307E+02 -0.21634062257E+02 -0.27729001300E+02  0.40659132390E+02  0.00000000000E+00 0. -1.
         11    1    3    3    0    0 -0.78685166941E+01  0.16765226533E+02  0.46077802923E+01  0.19084496722E+02  0.51100000000E-03 0. -1.
        -11    1    3    3    0    0  0.15655963778E+01  0.65649880631E+01  0.48860556004E+01  0.83320885664E+01  0.51100000000E-03 0.  1.
         12    1    3    3    0    0 -0.14098914990E+02 -0.16961523386E+01  0.18235165408E+02  0.23112282321E+02  0.00000000000E+00 0. -1.
</event>
<event>
 7    1  0.2575978E-011  0.5052888E+02  0.7816164E-02  0.1300439E+00
        -11   -1    0    0    0    0  0.00000000000E+00  0.00000000000E+00  0.45593999997E+02  0.45594000000E+02  0.51100000000E-03 0. -1.
         11   -1    0    0    0    0 -0.00000000000E+00 -0.00000000000E+00 -0.45593999997E+02  0.45594000000E+02  0.51100000000E-03 0.  1.
    9900012    2    1    2    0    0 -0.35144427137E+02  0.59035487413E+01 -0.19575021387E+02  0.50528879143E+02  0.30000058643E+02 0.  0.
         12    1    1    2    0    0  0.35144427137E+02 -0.59035487413E+01  0.19575021387E+02  0.40659120857E+02  0.00000000000E+00 0. -1.
         11    1    3    3    0    0 -0.26563114887E+02  0.12204361719E+02 -0.85087278936E+01  0.30445754517E+02  0.51100000000E-03 0. -1.
        -11    1    3    3    0    0 -0.83408146307E+01  0.80728909326E+00 -0.97394253468E+01  0.12848241542E+02  0.51100000000E-03 0.  1.
         12    1    3    3    0    0 -0.24049762008E+00 -0.71081020712E+01 -0.13268681470E+01  0.72348830840E+01  0.00000000000E+00 0. -1.
</event>
<event>
 7    1  0.2575978E-011  0.5052886E+02  0.7816164E-02  0.1300439E+00
        -11   -1    0    0    0    0  0.00000000000E+00  0.00000000000E+00  0.45593999997E+02  0.45594000000E+02  0.51100000000E-03 0.  1.
         11   -1    0    0    0    0 -0.00000000000E+00 -0.00000000000E+00 -0.45593999997E+02  0.45594000000E+02  0.51100000000E-03 0. -1.
    9900012    2    1    2    0    0 -0.15029028245E+02 -0.36128860487E+02  0.11045328127E+02  0.50528861747E+02  0.30000005766E+02 0.  0.
         12    1    1    2    0    0  0.15029028245E+02  0.36128860487E+02 -0.11045328127E+02  0.40659138253E+02  0.00000000000E+00 0. -1.
         11    1    3    3    0    0 -0.39529189772E+01 -0.28187661499E+01 -0.37182097420E+01  0.61152346639E+01  0.51100000000E-03 0. -1.
        -11    1    3    3    0    0 -0.17764327372E+02 -0.28534151523E+02  0.10924635623E+02  0.35342846431E+02  0.51100000000E-03 0.  1.
         12    1    3    3    0    0  0.66882181042E+01 -0.47759428134E+01  0.38389022468E+01  0.90707806514E+01  0.00000000000E+00 0. -1.
</event>
<event>
 7    1  0.2575978E-011  0.5052887E+02  0.7816164E-02  0.1300439E+00
        -11   -1    0    0    0    0  0.00000000000E+00  0.00000000000E+00  0.45593999997E+02  0.45594000000E+02  0.51100000000E-03 0.  1.
         11   -1    0    0    0    0 -0.00000000000E+00 -0.00000000000E+00 -0.45593999997E+02  0.45594000000E+02  0.51100000000E-03 0. -1.
    9900012    2    1    2    0    0  0.34015576091E+02 -0.21468272247E+02  0.59345580229E+01  0.50528866844E+02  0.30000021259E+02 0.  0.
         12    1    1    2    0    0 -0.34015576091E+02  0.21468272247E+02 -0.59345580229E+01  0.40659133156E+02  0.00000000000E+00 0. -1.
         11    1    3    3    0    0  0.11122155547E+02 -0.33144767682E+01  0.97122211419E+00  0.11646088309E+02  0.51100000000E-03 0. -1.
        -11    1    3    3    0    0  0.26196745890E+02 -0.11957721762E+02 -0.21635667437E+01  0.28877978224E+02  0.51100000000E-03 0.  1.
         12    1    3    3    0    0 -0.33033253462E+01 -0.61960737170E+01  0.71269026524E+01  0.10004800311E+02  0.00000000000E+00 0. -1.
</event>
<event>
 7    1  0.2575978E-011  0.5052888E+02  0.7816164E-02  0.1300439E+00
        -11   -1    0    0    0    0  0.00000000000E+00  0.00000000000E+00  0.45593999997E+02  0.45594000000E+02  0.51100000000E-03 0.  1.
         11   -1    0    0    0    0 -0.00000000000E+00 -0.00000000000E+00 -0.45593999997E+02  0.45594000000E+02  0.51100000000E-03 0. -1.
    9900012    2    1    2    0    0  0.19496714233E+02 -0.66570178132E+01  0.35053190751E+02  0.50528881294E+02  0.30000065183E+02 0.  0.
         12    1    1    2    0    0 -0.19496714233E+02  0.66570178132E+01 -0.35053190751E+02  0.40659118706E+02  0.00000000000E+00 0. -1.
         11    1    3    3    0    0  0.10448968163E+02  0.52466942241E+01  0.15232603340E+02  0.19202628485E+02  0.51100000000E-03 0. -1.
        -11    1    3    3    0    0  0.69498766317E+01 -0.43733318836E+00 -0.14110626698E+01  0.71051490929E+01  0.51100000000E-03 0.  1.
        -12    1    3    3    0    0  0.20978694385E+01 -0.11466378849E+02  0.21231650081E+02  0.24221103716E+02  0.00000000000E+00 0.  1.
</event>
<event>
 7    1  0.2575978E-011  0.5052886E+02  0.7816164E-02  0.1300439E+00
        -11   -1    0    0    0    0  0.00000000000E+00  0.00000000000E+00  0.45593999997E+02  0.45594000000E+02  0.51100000000E-03 0. -1.
         11   -1    0    0    0    0 -0.00000000000E+00 -0.00000000000E+00 -0.45593999997E+02  0.45594000000E+02  0.51100000000E-03 0.  1.
    9900012    2    1    2    0    0 -0.18443782675E+02  0.20624440589E+01 -0.36176494209E+02  0.50528861690E+02  0.30000005594E+02 0.  0.
         12    1    1    2    0    0  0.18443782675E+02 -0.20624440589E+01  0.36176494209E+02  0.40659138310E+02  0.00000000000E+00 0. -1.
         11    1    3    3    0    0 -0.12235582259E+02  0.74356410956E+01 -0.73618146455E+01  0.16099520081E+02  0.51100000000E-03 0. -1.
        -11    1    3    3    0    0 -0.10764148962E+02 -0.11890674609E+01 -0.10444037782E+02  0.15045222157E+02  0.51100000000E-03 0.  1.
        -12    1    3    3    0    0  0.45559485461E+01 -0.41841295758E+01 -0.18370641781E+02  0.19384119451E+02  0.00000000000E+00 0.  1.
</event>
<event>
 7    1  0.2575978E-011  0.5052887E+02  0.7816164E-02  0.1300439E+00
        -11   -1    0    0    0    0  0.00000000000E+00  0.00000000000E+00  0.45593999997E+02  0.45594000000E+02  0.51100000000E-03 0. -1.
         11   -1    0    0    0    0 -0.00000000000E+00 -0.00000000000E+00 -0.45593999997E+02  0.45594000000E+02  0.51100000000E-03 0.  1.
    9900012    2    1    2    0    0  0.30930747668E+02 -0.14341085437E+02 -0.22153705987E+02  0.50528873450E+02  0.30000041340E+02 0.  0.
         12    1    1    2    0    0 -0.30930747668E+02  0.14341085437E+02  0.22153705987E+02  0.40659126550E+02  0.00000000000E+00 0. -1.
         11    1    3    3    0    0  0.15036854323E+02  0.31761835658E+01 -0.81598398010E+01  0.17400520562E+02  0.51100000000E-03 0. -1.
        -11    1    3    3    0    0  0.11693938535E+02 -0.16683867439E+02 -0.18058018871E+02  0.27224835665E+02  0.51100000000E-03 0.  1.
         12    1    3    3    0    0  0.41999548091E+01 -0.83340156460E+00  0.40641526847E+01  0.59035172237E+01  0.00000000000E+00 0. -1.
</event>
<event>
 7    1  0.2575978E-011  0.5052886E+02  0.7816164E-02  0.1300439E+00
        -11   -1    0    0    0    0  0.00000000000E+00  0.00000000000E+00  0.45593999997E+02  0.45594000000E+02  0.51100000000E-03 0.  1.
         11   -1    0    0    0    0 -0.00000000000E+00 -0.00000000000E+00 -0.45593999997E+02  0.45594000000E+02  0.51100000000E-03 0. -1.
    9900012    2    1    2    0    0 -0.64247337195E-01 -0.93720191707E+01  0.39564214571E+02  0.50528856555E+02  0.29999989984E+02 0.  0.
         12    1    1    2    0    0  0.64247337195E-01  0.93720191707E+01 -0.39564214571E+02  0.40659143445E+02  0.00000000000E+00 0. -1.
         11    1    3    3    0    0 -0.27432094437E+01  0.22931185727E+01  0.53812803900E+01  0.64607870835E+01  0.51100000000E-03 0. -1.
        -11    1    3    3    0    0 -0.58143020067E-01  0.16884799719E+01 -0.35591740847E+01  0.39398052811E+01  0.51100000000E-03 0.  1.
        -12    1    3    3    0    0  0.27371051266E+01 -0.13353617715E+02  0.37742108266E+02  0.40128264190E+02  0.00000000000E+00 0.  1.
</event>
<event>
 7    1  0.2575978E-011  0.5052887E+02  0.7816164E-02  0.1300439E+00
        -11   -1    0    0    0    0  0.00000000000E+00  0.00000000000E+00  0.45593999997E+02  0.45594000000E+02  0.51100000000E-03 0.  1.
         11   -1    0    0    0    0 -0.00000000000E+00 -0.00000000000E+00 -0.45593999997E+02  0.45594000000E+02  0.51100000000E-03 0. -1.
    9900012    2    1    2    0    0 -0.24581823404E+02  0.42404366601E+01  0.32107898822E+02  0.50528874189E+02  0.30000043585E+02 0.  0.
         12    1    1    2    0    0  0.24581823404E+02 -0.42404366601E+01 -0.32107898822E+02  0.40659125811E+02  0.00000000000E+00 0. -1.
         11    1    3    3    0    0 -0.61726589521E+01 -0.42940961691E+01  0.19815833347E+02  0.21194533067E+02  0.51100000000E-03 0. -1.
        -11    1    3    3    0    0 -0.99023193532E+01  0.19539102252E+01  0.15151618218E+02  0.18205637276E+02  0.51100000000E-03 0.  1.
         12    1    3    3    0    0 -0.85068450989E+01  0.65806226040E+01 -0.28595527430E+01  0.11128703846E+02  0.00000000000E+00 0. -1.
</event>
<event>
 7    1  0.2575978E-011  0.5052887E+02  0.7816164E-02  0.1300439E+00
        -11   -1    0    0    0    0  0.00000000000E+00  0.00000000000E+00  0.45593999997E+02  0.45594000000E+02  0.51100000000E-03 0.  1.
         11   -1    0    0    0    0 -0.00000000000E+00 -0.00000000000E+00 -0.45593999997E+02  0.45594000000E+02  0.51100000000E-03 0. -1.
    9900012    2    1    2    0    0  0.39600566739E+02 -0.75858956736E+01 -0.52358199205E+01  0.50528874217E+02  0.30000043669E+02 0.  0.
         12    1    1    2    0    0 -0.39600566739E+02  0.75858956736E+01  0.52358199205E+01  0.40659125783E+02  0.00000000000E+00 0. -1.
         11    1    3    3    0    0  0.21643260238E+02 -0.68532381369E+01 -0.22754289843E+01  0.22816116322E+02  0.51100000000E-03 0. -1.
        -11    1    3    3    0    0  0.19010789962E+02 -0.12012046523E+01  0.49801434688E+01  0.19688952660E+02  0.51100000000E-03 0.  1.
         12    1    3    3    0    0 -0.10534834617E+01  0.46854711554E+00 -0.79405344050E+01  0.80238052345E+01  0.00000000000E+00 0. -1.
</event>
<event>
 7    1  0.2575978E-011  0.5052887E+02  0.7816164E-02  0.1300439E+00
        -11   -1    0    0    0    0  0.00000000000E+00  0.00000000000E+00  0.45593999997E+02  0.45594000000E+02  0.51100000000E-03 0.  1.
         11   -1    0    0    0    0 -0.00000000000E+00 -0.00000000000E+00 -0.45593999997E+02  0.45594000000E+02  0.51100000000E-03 0. -1.
    9900012    2    1    2    0    0  0.37875886284E+01  0.65103258577E+01  0.39955413118E+02  0.50528865629E+02  0.30000017565E+02 0.  0.
         12    1    1    2    0    0 -0.37875886284E+01 -0.65103258577E+01 -0.39955413118E+02  0.40659134371E+02  0.00000000000E+00 0. -1.
         11    1    3    3    0    0  0.33991217278E+01 -0.13290533050E+01 -0.33074501220E+00  0.36646696620E+01  0.51100000000E-03 0. -1.
        -11    1    3    3    0    0 -0.10699392130E+01 -0.90040494506E+00  0.37570830721E+02  0.37596845883E+02  0.51100000000E-03 0.  1.
         12    1    3    3    0    0  0.14584061136E+01  0.87397841077E+01  0.27153274091E+01  0.92673500840E+01  0.00000000000E+00 0. -1.
</event>
<event>
 7    1  0.2575978E-011  0.5052891E+02  0.7816164E-02  0.1300439E+00
        -11   -1    0    0    0    0  0.00000000000E+00  0.00000000000E+00  0.45593999997E+02  0.45594000000E+02  0.51100000000E-03 0.  1.
         11   -1    0    0    0    0 -0.00000000000E+00 -0.00000000000E+00 -0.45593999997E+02  0.45594000000E+02  0.51100000000E-03 0. -1.
    9900012    2    1    2    0    0  0.88561938949E+01 -0.99538073138E+01  0.38414202279E+02  0.50528912614E+02  0.30000160381E+02 0.  0.
         12    1    1    2    0    0 -0.88561938949E+01  0.99538073138E+01 -0.38414202279E+02  0.40659087386E+02  0.00000000000E+00 0. -1.
         11    1    3    3    0    0 -0.37310765253E+01  0.25636139684E+01  0.20571369709E+01  0.49724100188E+01  0.51100000000E-03 0. -1.
        -11    1    3    3    0    0  0.25025131224E+01 -0.44803473954E+01  0.31278818595E+02  0.31697012125E+02  0.51100000000E-03 0.  1.
         12    1    3    3    0    0  0.10084757298E+02 -0.80370738867E+01  0.50782467134E+01  0.13859490470E+02  0.00000000000E+00 0. -1.
</event>
<event>
 7    1  0.2575978E-011  0.5052887E+02  0.7816164E-02  0.1300439E+00
        -11   -1    0    0    0    0  0.00000000000E+00  0.00000000000E+00  0.45593999997E+02  0.45594000000E+02  0.51100000000E-03 0.  1.
         11   -1    0    0    0    0 -0.00000000000E+00 -0.00000000000E+00 -0.45593999997E+02  0.45594000000E+02  0.51100000000E-03 0. -1.
    9900012    2    1    2    0    0 -0.10481492092E+02  0.21216132672E+02  0.33063260925E+02  0.50528865909E+02  0.30000018416E+02 0.  0.
         12    1    1    2    0    0  0.10481492092E+02 -0.21216132672E+02 -0.33063260925E+02  0.40659134091E+02  0.00000000000E+00 0. -1.
         11    1    3    3    0    0 -0.10303173967E+01  0.21021266598E+01  0.18508823768E+02  0.18656287089E+02  0.51100000000E-03 0.  1.
        -11    1    3    3    0    0  0.18305717065E+01  0.13119745662E+02  0.13717953535E+02  0.19069896918E+02  0.51100000000E-03 0. -1.
         12    1    3    3    0    0 -0.11281746402E+02  0.59942603509E+01  0.83648362269E+00  0.12802681902E+02  0.00000000000E+00 0. -1.
</event>
<event>
 7    1  0.2575978E-011  0.5052885E+02  0.7816164E-02  0.1300439E+00
        -11   -1    0    0    0    0  0.00000000000E+00  0.00000000000E+00  0.45593999997E+02  0.45594000000E+02  0.51100000000E-03 0. -1.
         11   -1    0    0    0    0 -0.00000000000E+00 -0.00000000000E+00 -0.45593999997E+02  0.45594000000E+02  0.51100000000E-03 0.  1.
    9900012    2    1    2    0    0 -0.23659633384E+02  0.28582803943E+02 -0.16625621809E+02  0.50528853014E+02  0.29999979222E+02 0.  0.
         12    1    1    2    0    0  0.23659633384E+02 -0.28582803943E+02  0.16625621809E+02  0.40659146986E+02  0.00000000000E+00 0. -1.
         11    1    3    3    0    0 -0.10409508926E+02  0.14034565911E+02 -0.30007335694E+01  0.17729391377E+02  0.51100000000E-03 0. -1.
        -11    1    3    3    0    0 -0.16022193876E+02  0.18557965903E+02 -0.91104356964E+01  0.26155474263E+02  0.51100000000E-03 0.  1.
         12    1    3    3    0    0  0.27720694188E+01 -0.40097278710E+01 -0.45144525435E+01  0.66439873743E+01  0.00000000000E+00 0. -1.
</event>
<event>
 7    1  0.2575978E-011  0.5052891E+02  0.7816164E-02  0.1300439E+00
        -11   -1    0    0    0    0  0.00000000000E+00  0.00000000000E+00  0.45593999997E+02  0.45594000000E+02  0.51100000000E-03 0.  1.
         11   -1    0    0    0    0 -0.00000000000E+00 -0.00000000000E+00 -0.45593999997E+02  0.45594000000E+02  0.51100000000E-03 0. -1.
    9900012    2    1    2    0    0  0.35980878152E+01  0.17146291667E+02  0.36690876255E+02  0.50528905639E+02  0.30000139181E+02 0.  0.
         12    1    1    2    0    0 -0.35980878152E+01 -0.17146291667E+02 -0.36690876255E+02  0.40659094361E+02  0.00000000000E+00 0. -1.
         11    1    3    3    0    0  0.13802618451E+01 -0.24221887297E+00  0.25313902803E+02  0.25352661954E+02  0.51100000000E-03 0. -1.
        -11    1    3    3    0    0 -0.14202448110E+01  0.49459300749E+00 -0.25642274494E+01  0.29727058784E+01  0.51100000000E-03 0.  1.
        -12    1    3    3    0    0  0.36380707811E+01  0.16893917532E+02  0.13941200901E+02  0.22203537807E+02  0.00000000000E+00 0.  1.
</event>
<event>
 7    1  0.2575978E-011  0.5052886E+02  0.7816164E-02  0.1300439E+00
        -11   -1    0    0    0    0  0.00000000000E+00  0.00000000000E+00  0.45593999997E+02  0.45594000000E+02  0.51100000000E-03 0. -1.
         11   -1    0    0    0    0 -0.00000000000E+00 -0.00000000000E+00 -0.45593999997E+02  0.45594000000E+02  0.51100000000E-03 0.  1.
    9900012    2    1    2    0    0  0.76126224836E+01  0.32962835687E+02 -0.22553602118E+02  0.50528861714E+02  0.30000005667E+02 0.  0.
         12    1    1    2    0    0 -0.76126224836E+01 -0.32962835687E+02  0.22553602118E+02  0.40659138286E+02  0.00000000000E+00 0. -1.
         11    1    3    3    0    0 -0.53297688616E+00  0.10412943379E+02 -0.13247872067E+02  0.16858812792E+02  0.51100000000E-03 0. -1.
        -11    1    3    3    0    0 -0.33175298307E+01  0.19843895378E+02 -0.85712362498E+01  0.21868979836E+02  0.51100000000E-03 0.  1.
         12    1    3    3    0    0  0.11463129200E+02  0.27059969308E+01 -0.73449380100E+00  0.11801069087E+02  0.00000000000E+00 0. -1.
</event>
<event>
 7    1  0.2575978E-011  0.5052894E+02  0.7816164E-02  0.1300439E+00
        -11   -1    0    0    0    0  0.00000000000E+00  0.00000000000E+00  0.45593999997E+02  0.45594000000E+02  0.51100000000E-03 0.  1.
         11   -1    0    0    0    0 -0.00000000000E+00 -0.00000000000E+00 -0.45593999997E+02  0.45594000000E+02  0.51100000000E-03 0. -1.
    9900012    2    1    2    0    0  0.40094180569E+02 -0.63146512540E+01  0.23960182826E+01  0.50528941482E+02  0.30000248128E+02 0.  0.
         12    1    1    2    0    0 -0.40094180569E+02  0.63146512540E+01 -0.23960182826E+01  0.40659058518E+02  0.00000000000E+00 0. -1.
         11    1    3    3    0    0  0.69718975610E+01  0.56812737224E+01  0.24356738072E+01  0.93175497780E+01  0.51100000000E-03 0. -1.
        -11    1    3    3    0    0  0.30934693419E-01  0.36156966132E+01  0.27107197887E+01  0.45190951514E+01  0.51100000000E-03 0.  1.
         12    1    3    3    0    0  0.33091348315E+02 -0.15611621590E+02 -0.27503753133E+01  0.36692296553E+02  0.00000000000E+00 0. -1.
</event>
<event>
 7    1  0.2575978E-011  0.5052886E+02  0.7816164E-02  0.1300439E+00
        -11   -1    0    0    0    0  0.00000000000E+00  0.00000000000E+00  0.45593999997E+02  0.45594000000E+02  0.51100000000E-03 0.  1.
         11   -1    0    0    0    0 -0.00000000000E+00 -0.00000000000E+00 -0.45593999997E+02  0.45594000000E+02  0.51100000000E-03 0. -1.
    9900012    2    1    2    0    0  0.31204810508E+02  0.15256629733E+02 -0.21134341569E+02  0.50528863964E+02  0.30000012504E+02 0.  0.
         12    1    1    2    0    0 -0.31204810508E+02 -0.15256629733E+02  0.21134341569E+02  0.40659136036E+02  0.00000000000E+00 0. -1.
         11    1    3    3    0    0  0.92306918491E+01  0.10284672048E+02  0.53416770491E+01  0.14815993558E+02  0.51100000000E-03 0. -1.
        -11    1    3    3    0    0  0.89509160788E+01  0.58411100513E+01 -0.95053927328E+01  0.14303494557E+02  0.51100000000E-03 0.  1.
        -12    1    3    3    0    0  0.13023202580E+02 -0.86915236685E+00 -0.16970625885E+02  0.21409375849E+02  0.00000000000E+00 0.  1.
</event>
<event>
 7    1  0.2575978E-011  0.5052886E+02  0.7816164E-02  0.1300439E+00
        -11   -1    0    0    0    0  0.00000000000E+00  0.00000000000E+00  0.45593999997E+02  0.45594000000E+02  0.51100000000E-03 0.  1.
         11   -1    0    0    0    0 -0.00000000000E+00 -0.00000000000E+00 -0.45593999997E+02  0.45594000000E+02  0.51100000000E-03 0. -1.
    9900012    2    1    2    0    0 -0.24801711214E+02  0.31930974262E+02  0.42957394424E+01  0.50528863587E+02  0.30000011359E+02 0.  0.
         12    1    1    2    0    0  0.24801711214E+02 -0.31930974262E+02 -0.42957394424E+01  0.40659136413E+02  0.00000000000E+00 0. -1.
         11    1    3    3    0    0 -0.59811958771E+01  0.13107048395E+02  0.30292112164E+01  0.14722280483E+02  0.51100000000E-03 0. -1.
        -11    1    3    3    0    0 -0.21552808339E+02  0.22282426343E+02  0.28312650337E+01  0.31129505826E+02  0.51100000000E-03 0.  1.
         12    1    3    3    0    0  0.27322930023E+01 -0.34585004755E+01 -0.15647368078E+01  0.46770772783E+01  0.00000000000E+00 0. -1.
</event>
<event>
 7    1  0.2575978E-011  0.5052886E+02  0.7816164E-02  0.1300439E+00
        -11   -1    0    0    0    0  0.00000000000E+00  0.00000000000E+00  0.45593999997E+02  0.45594000000E+02  0.51100000000E-03 0. -1.
         11   -1    0    0    0    0 -0.00000000000E+00 -0.00000000000E+00 -0.45593999997E+02  0.45594000000E+02  0.51100000000E-03 0.  1.
    9900012    2    1    2    0    0 -0.21313332604E+02  0.22297644060E+02 -0.26490040832E+02  0.50528863996E+02  0.30000012603E+02 0.  0.
         12    1    1    2    0    0  0.21313332604E+02 -0.22297644060E+02  0.26490040832E+02  0.40659136004E+02  0.00000000000E+00 0. -1.
         11    1    3    3    0    0 -0.20516359480E+02  0.48360935343E+01 -0.13380712606E+02  0.24967023793E+02  0.51100000000E-03 0. -1.
        -11    1    3    3    0    0  0.84393617183E+00  0.30614981218E+01 -0.10326597077E+02  0.10803869977E+02  0.51100000000E-03 0.  1.
        -12    1    3    3    0    0 -0.16409092956E+01  0.14400052404E+02 -0.27827311482E+01  0.14757970226E+02  0.00000000000E+00 0.  1.
</event>
<event>
 7    1  0.2575978E-011  0.5052886E+02  0.7816164E-02  0.1300439E+00
        -11   -1    0    0    0    0  0.00000000000E+00  0.00000000000E+00  0.45593999997E+02  0.45594000000E+02  0.51100000000E-03 0. -1.
         11   -1    0    0    0    0 -0.00000000000E+00 -0.00000000000E+00 -0.45593999997E+02  0.45594000000E+02  0.51100000000E-03 0.  1.
    9900012    2    1    2    0    0  0.17249630839E+02  0.13644115840E+01 -0.36793400037E+02  0.50528859954E+02  0.30000000315E+02 0.  0.
         12    1    1    2    0    0 -0.17249630839E+02 -0.13644115840E+01  0.36793400037E+02  0.40659140046E+02  0.00000000000E+00 0. -1.
         11    1    3    3    0    0  0.53463097995E+01  0.48759468609E+01 -0.58488996759E+01  0.93041664829E+01  0.51100000000E-03 0. -1.
        -11    1    3    3    0    0  0.11034292403E+02  0.51801345879E+01 -0.30069068196E+02  0.32445928336E+02  0.51100000000E-03 0.  1.
         12    1    3    3    0    0  0.86902863675E+00 -0.86916698648E+01 -0.87543216485E+00  0.87787651344E+01  0.00000000000E+00 0. -1.
</event>
<event>
 7    1  0.2575978E-011  0.5052886E+02  0.7816164E-02  0.1300439E+00
        -11   -1    0    0    0    0  0.00000000000E+00  0.00000000000E+00  0.45593999997E+02  0.45594000000E+02  0.51100000000E-03 0.  1.
         11   -1    0    0    0    0 -0.00000000000E+00 -0.00000000000E+00 -0.45593999997E+02  0.45594000000E+02  0.51100000000E-03 0. -1.
    9900012    2    1    2    0    0  0.38253155932E+02 -0.67798751122E+00  0.13762344914E+02  0.50528859043E+02  0.29999997547E+02 0.  0.
         12    1    1    2    0    0 -0.38253155932E+02  0.67798751122E+00 -0.13762344914E+02  0.40659140957E+02  0.00000000000E+00 0. -1.
         11    1    3    3    0    0  0.52392666084E+01  0.56957622639E+01  0.80802783436E+01  0.11188499485E+02  0.51100000000E-03 0. -1.
        -11    1    3    3    0    0  0.84600535223E+01  0.33490407722E+01  0.89102174765E+01  0.12735012973E+02  0.51100000000E-03 0.  1.
        -12    1    3    3    0    0  0.24553835801E+02 -0.97227905473E+01 -0.32281509062E+01  0.26605346584E+02  0.00000000000E+00 0.  1.
</event>
<event>
 7    1  0.2575978E-011  0.5052886E+02  0.7816164E-02  0.1300439E+00
        -11   -1    0    0    0    0  0.00000000000E+00  0.00000000000E+00  0.45593999997E+02  0.45594000000E+02  0.51100000000E-03 0.  1.
         11   -1    0    0    0    0 -0.00000000000E+00 -0.00000000000E+00 -0.45593999997E+02  0.45594000000E+02  0.51100000000E-03 0. -1.
    9900012    2    1    2    0    0  0.11710239783E+02 -0.17117199985E+02  0.34971952834E+02  0.50528859132E+02  0.29999997817E+02 0.  0.
         12    1    1    2    0    0 -0.11710239783E+02  0.17117199985E+02 -0.34971952834E+02  0.40659140868E+02  0.00000000000E+00 0. -1.
         11    1    3    3    0    0  0.48602498565E+00 -0.38904144900E+01  0.18276975484E+02  0.18692762725E+02  0.51100000000E-03 0.  1.
        -11    1    3    3    0    0 -0.43577265382E+01 -0.93446159952E+00  0.99022474543E+01  0.10858982640E+02  0.51100000000E-03 0. -1.
         12    1    3    3    0    0  0.15581941336E+02 -0.12292323896E+02  0.67927298956E+01  0.20977113767E+02  0.00000000000E+00 0. -1.
</event>
<event>
 7    1  0.2575978E-011  0.5052886E+02  0.7816164E-02  0.1300439E+00
        -11   -1    0    0    0    0  0.00000000000E+00  0.00000000000E+00  0.45593999997E+02  0.45594000000E+02  0.51100000000E-03 0.  1.
         11   -1    0    0    0    0 -0.00000000000E+00 -0.00000000000E+00 -0.45593999997E+02  0.45594000000E+02  0.51100000000E-03 0. -1.
    9900012    2    1    2    0    0 -0.11308520675E+02 -0.37652261399E+02  0.10372582097E+02  0.50528857268E+02  0.29999992153E+02 0.  0.
         12    1    1    2    0    0  0.11308520675E+02  0.37652261399E+02 -0.10372582097E+02  0.40659142732E+02  0.00000000000E+00 0. -1.
         11    1    3    3    0    0 -0.11920485336E+02 -0.78661983669E+01  0.20622793329E+01  0.14430108929E+02  0.51100000000E-03 0. -1.
        -11    1    3    3    0    0 -0.69014648954E+01 -0.15433693473E+02 -0.18009970562E+01  0.17002138176E+02  0.51100000000E-03 0.  1.
         12    1    3    3    0    0  0.75134295565E+01 -0.14352369559E+02  0.10111299820E+02  0.19096610163E+02  0.00000000000E+00 0. -1.
</event>
<event>
 7    1  0.2575978E-011  0.5052887E+02  0.7816164E-02  0.1300439E+00
        -11   -1    0    0    0    0  0.00000000000E+00  0.00000000000E+00  0.45593999997E+02  0.45594000000E+02  0.51100000000E-03 0.  1.
         11   -1    0    0    0    0 -0.00000000000E+00 -0.00000000000E+00 -0.45593999997E+02  0.45594000000E+02  0.51100000000E-03 0. -1.
    9900012    2    1    2    0    0  0.29243886700E+02 -0.28246982553E+02 -0.26125751783E+00  0.50528865871E+02  0.30000018302E+02 0.  0.
         12    1    1    2    0    0 -0.29243886700E+02  0.28246982553E+02  0.26125751783E+00  0.40659134129E+02  0.00000000000E+00 0. -1.
         11    1    3    3    0    0  0.12735906822E+02 -0.10952144861E+02  0.12717467584E+02  0.21068620782E+02  0.51100000000E-03 0. -1.
        -11    1    3    3    0    0  0.14166066840E+00 -0.43690385100E+01  0.82802573893E+00  0.44490664337E+01  0.51100000000E-03 0.  1.
         12    1    3    3    0    0  0.16366319209E+02 -0.12925799182E+02 -0.13806750841E+02  0.25011178656E+02  0.00000000000E+00 0. -1.
</event>
<event>
 7    1  0.2575978E-011  0.5052886E+02  0.7816164E-02  0.1300439E+00
        -11   -1    0    0    0    0  0.00000000000E+00  0.00000000000E+00  0.45593999997E+02  0.45594000000E+02  0.51100000000E-03 0.  1.
         11   -1    0    0    0    0 -0.00000000000E+00 -0.00000000000E+00 -0.45593999997E+02  0.45594000000E+02  0.51100000000E-03 0. -1.
    9900012    2    1    2    0    0  0.10301755284E+01  0.74773739856E+01  0.39952391182E+02  0.50528856570E+02  0.29999990030E+02 0.  0.
         12    1    1    2    0    0 -0.10301755284E+01 -0.74773739856E+01 -0.39952391182E+02  0.40659143430E+02  0.00000000000E+00 0. -1.
         11    1    3    3    0    0  0.33439013441E+01  0.27321014446E+01 -0.10559856533E+01  0.44453526816E+01  0.51100000000E-03 0. -1.
        -11    1    3    3    0    0 -0.10152526336E+02 -0.21107550234E+01  0.23934501746E+02  0.26084275951E+02  0.51100000000E-03 0.  1.
         12    1    3    3    0    0  0.78388005200E+01  0.68560275644E+01  0.17073875088E+02  0.19999227937E+02  0.00000000000E+00 0. -1.
</event>
<event>
 7    1  0.2575978E-011  0.5052886E+02  0.7816164E-02  0.1300439E+00
        -11   -1    0    0    0    0  0.00000000000E+00  0.00000000000E+00  0.45593999997E+02  0.45594000000E+02  0.51100000000E-03 0.  1.
         11   -1    0    0    0    0 -0.00000000000E+00 -0.00000000000E+00 -0.45593999997E+02  0.45594000000E+02  0.51100000000E-03 0. -1.
    9900012    2    1    2    0    0  0.23511755208E+02  0.27802956549E+02  0.18093061005E+02  0.50528857334E+02  0.29999992351E+02 0.  0.
         12    1    1    2    0    0 -0.23511755208E+02 -0.27802956549E+02 -0.18093061005E+02  0.40659142666E+02  0.00000000000E+00 0. -1.
         11    1    3    3    0    0  0.14819787024E+02  0.10800188654E+02 -0.13519305678E+01  0.18387438074E+02  0.51100000000E-03 0. -1.
        -11    1    3    3    0    0  0.41421796859E+00 -0.29763548738E+01  0.59069786410E+01  0.66274174296E+01  0.51100000000E-03 0.  1.
        -12    1    3    3    0    0  0.82777502153E+01  0.19979122769E+02  0.13538012932E+02  0.25514001830E+02  0.00000000000E+00 0.  1.
</event>
<event>
 7    1  0.2575978E-011  0.5052886E+02  0.7816164E-02  0.1300439E+00
        -11   -1    0    0    0    0  0.00000000000E+00  0.00000000000E+00  0.45593999997E+02  0.45594000000E+02  0.51100000000E-03 0. -1.
         11   -1    0    0    0    0 -0.00000000000E+00 -0.00000000000E+00 -0.45593999997E+02  0.45594000000E+02  0.51100000000E-03 0.  1.
    9900012    2    1    2    0    0 -0.18109889716E+02 -0.19522703446E+02 -0.30725591750E+02  0.50528855349E+02  0.29999986319E+02 0.  0.
         12    1    1    2    0    0  0.18109889716E+02  0.19522703446E+02  0.30725591750E+02  0.40659144651E+02  0.00000000000E+00 0. -1.
         11    1    3    3    0    0 -0.12829085322E+02 -0.10956741256E+02 -0.78244387262E+01  0.18597243097E+02  0.51100000000E-03 0. -1.
        -11    1    3    3    0    0 -0.49613451171E+01 -0.59635168600E+01  0.10581095008E+01  0.78293086980E+01  0.51100000000E-03 0.  1.
         12    1    3    3    0    0 -0.31945927680E+00 -0.26024453299E+01 -0.23959262524E+02  0.24102303555E+02  0.00000000000E+00 0. -1.
</event>
<event>
 7    1  0.2575978E-011  0.5052886E+02  0.7816164E-02  0.1300439E+00
        -11   -1    0    0    0    0  0.00000000000E+00  0.00000000000E+00  0.45593999997E+02  0.45594000000E+02  0.51100000000E-03 0.  1.
         11   -1    0    0    0    0 -0.00000000000E+00 -0.00000000000E+00 -0.45593999997E+02  0.45594000000E+02  0.51100000000E-03 0. -1.
    9900012    2    1    2    0    0 -0.19792184283E+02 -0.14303817123E+02  0.32509016955E+02  0.50528856793E+02  0.29999990707E+02 0.  0.
         12    1    1    2    0    0  0.19792184283E+02  0.14303817123E+02 -0.32509016955E+02  0.40659143207E+02  0.00000000000E+00 0. -1.
         11    1    3    3    0    0 -0.59277140895E+01 -0.18584004654E+01  0.49220869342E+00  0.62316704242E+01  0.51100000000E-03 0. -1.
        -11    1    3    3    0    0 -0.29703601788E+01 -0.32171435178E+01 -0.37633088758E+01  0.57736943080E+01  0.51100000000E-03 0.  1.
        -12    1    3    3    0    0 -0.10894110014E+02 -0.92282731400E+01  0.35780117138E+02  0.38523492060E+02  0.00000000000E+00 0.  1.
</event>
<event>
 7    1  0.2575978E-011  0.5052888E+02  0.7816164E-02  0.1300439E+00
        -11   -1    0    0    0    0  0.00000000000E+00  0.00000000000E+00  0.45593999997E+02  0.45594000000E+02  0.51100000000E-03 0.  1.
         11   -1    0    0    0    0 -0.00000000000E+00 -0.00000000000E+00 -0.45593999997E+02  0.45594000000E+02  0.51100000000E-03 0. -1.
    9900012    2    1    2    0    0  0.31501229808E+02  0.59884983725E+01  0.24999486880E+02  0.50528881263E+02  0.30000065088E+02 0.  0.
         12    1    1    2    0    0 -0.31501229808E+02 -0.59884983725E+01 -0.24999486880E+02  0.40659118737E+02  0.00000000000E+00 0. -1.
         11    1    3    3    0    0  0.26006026364E+02  0.10757214173E+02  0.12046806461E+02  0.30613013739E+02  0.51100000000E-03 0. -1.
        -11    1    3    3    0    0  0.49949881583E+01  0.28137151230E+01  0.10443168019E+02  0.11913297530E+02  0.51100000000E-03 0.  1.
         12    1    3    3    0    0  0.50021528593E+00 -0.75824309233E+01  0.25095124000E+01  0.80025699949E+01  0.00000000000E+00 0. -1.
</event>
<event>
 7    1  0.2575978E-011  0.5052887E+02  0.7816164E-02  0.1300439E+00
        -11   -1    0    0    0    0  0.00000000000E+00  0.00000000000E+00  0.45593999997E+02  0.45594000000E+02  0.51100000000E-03 0.  1.
         11   -1    0    0    0    0 -0.00000000000E+00 -0.00000000000E+00 -0.45593999997E+02  0.45594000000E+02  0.51100000000E-03 0. -1.
    9900012    2    1    2    0    0  0.85059539789E+01  0.36605025097E+02  0.15520502944E+02  0.50528866621E+02  0.30000020583E+02 0.  0.
         12    1    1    2    0    0 -0.85059539789E+01 -0.36605025097E+02 -0.15520502944E+02  0.40659133379E+02  0.00000000000E+00 0. -1.
         11    1    3    3    0    0 -0.10248831686E+01  0.21700146289E+01 -0.53321109831E+00  0.24583863275E+01  0.51100000000E-03 0. -1.
        -11    1    3    3    0    0 -0.57955167283E+01  0.55818724497E+01  0.12958011495E+02  0.15253044823E+02  0.51100000000E-03 0.  1.
         12    1    3    3    0    0  0.15326353876E+02  0.28853138019E+02  0.30957025472E+01  0.32817435471E+02  0.00000000000E+00 0. -1.
</event>
<event>
 7    1  0.2575978E-011  0.5052883E+02  0.7816164E-02  0.1300439E+00
        -11   -1    0    0    0    0  0.00000000000E+00  0.00000000000E+00  0.45593999997E+02  0.45594000000E+02  0.51100000000E-03 0. -1.
         11   -1    0    0    0    0 -0.00000000000E+00 -0.00000000000E+00 -0.45593999997E+02  0.45594000000E+02  0.51100000000E-03 0.  1.
    9900012    2    1    2    0    0 -0.27660896860E+01 -0.25111756851E+02  0.31857752094E+02  0.50528831873E+02  0.29999914961E+02 0.  0.
         12    1    1    2    0    0  0.27660896860E+01  0.25111756851E+02 -0.31857752094E+02  0.40659168127E+02  0.00000000000E+00 0. -1.
         11    1    3    3    0    0  0.42066070530E+01 -0.15801568921E+01 -0.22283608540E+01  0.50157782107E+01  0.51100000000E-03 0.  1.
        -11    1    3    3    0    0  0.43307239586E+01 -0.13862989811E+01  0.95716421312E+01  0.10596854638E+02  0.51100000000E-03 0. -1.
        -12    1    3    3    0    0 -0.11303420698E+02 -0.22145300978E+02  0.24514470817E+02  0.34916199024E+02  0.00000000000E+00 0.  1.
</event>
<event>
 7    1  0.2575978E-011  0.5052886E+02  0.7816164E-02  0.1300439E+00
        -11   -1    0    0    0    0  0.00000000000E+00  0.00000000000E+00  0.45593999997E+02  0.45594000000E+02  0.51100000000E-03 0.  1.
         11   -1    0    0    0    0 -0.00000000000E+00 -0.00000000000E+00 -0.45593999997E+02  0.45594000000E+02  0.51100000000E-03 0. -1.
    9900012    2    1    2    0    0  0.38309441991E+02 -0.14832685640E+01  0.13540768746E+02  0.50528857738E+02  0.29999993579E+02 0.  0.
         12    1    1    2    0    0 -0.38309441991E+02  0.14832685640E+01 -0.13540768746E+02  0.40659142262E+02  0.00000000000E+00 0. -1.
         11    1    3    3    0    0  0.22161256699E+02  0.92914965901E+01  0.40289258408E+01  0.24365661310E+02  0.51100000000E-03 0. -1.
        -11    1    3    3    0    0  0.69353787155E+01  0.31197600459E+01  0.40748445521E+01  0.86276728645E+01  0.51100000000E-03 0.  1.
        -12    1    3    3    0    0  0.92128065760E+01 -0.13894525200E+02  0.54369983527E+01  0.17535523563E+02  0.00000000000E+00 0.  1.
</event>
<event>
 7    1  0.2575978E-011  0.5052886E+02  0.7816164E-02  0.1300439E+00
        -11   -1    0    0    0    0  0.00000000000E+00  0.00000000000E+00  0.45593999997E+02  0.45594000000E+02  0.51100000000E-03 0. -1.
         11   -1    0    0    0    0 -0.00000000000E+00 -0.00000000000E+00 -0.45593999997E+02  0.45594000000E+02  0.51100000000E-03 0.  1.
    9900012    2    1    2    0    0 -0.73127186718E+01  0.39957838389E+02  0.17496161268E+01  0.50528857612E+02  0.29999993198E+02 0.  0.
         12    1    1    2    0    0  0.73127186718E+01 -0.39957838389E+02 -0.17496161268E+01  0.40659142388E+02  0.00000000000E+00 0. -1.
         11    1    3    3    0    0 -0.10922376944E+02  0.11569188112E+02  0.69712443858E+00  0.15925778298E+02  0.51100000000E-03 0. -1.
        -11    1    3    3    0    0 -0.72047450852E+01  0.89582977460E+01 -0.32649424665E+01  0.11950702901E+02  0.51100000000E-03 0.  1.
         12    1    3    3    0    0  0.10814403357E+02  0.19430352532E+02  0.43174341547E+01  0.22652376413E+02  0.00000000000E+00 0. -1.
</event>
<event>
 7    1  0.2575978E-011  0.5052885E+02  0.7816164E-02  0.1300439E+00
        -11   -1    0    0    0    0  0.00000000000E+00  0.00000000000E+00  0.45593999997E+02  0.45594000000E+02  0.51100000000E-03 0. -1.
         11   -1    0    0    0    0 -0.00000000000E+00 -0.00000000000E+00 -0.45593999997E+02  0.45594000000E+02  0.51100000000E-03 0.  1.
    9900012    2    1    2    0    0 -0.28824115712E+02 -0.28176215671E+02  0.53326762270E+01  0.50528853281E+02  0.29999980034E+02 0.  0.
         12    1    1    2    0    0  0.28824115712E+02  0.28176215671E+02 -0.53326762270E+01  0.40659146719E+02  0.00000000000E+00 0. -1.
         11    1    3    3    0    0 -0.84451813781E+01 -0.34766911318E+01  0.10692056186E+02  0.14061597899E+02  0.51100000000E-03 0. -1.
        -11    1    3    3    0    0 -0.28018417743E+01 -0.22167002913E+00 -0.56724887482E+01  0.63306069054E+01  0.51100000000E-03 0.  1.
         12    1    3    3    0    0 -0.17577092560E+02 -0.24477854511E+02  0.31310878923E+00  0.30136648477E+02  0.00000000000E+00 0. -1.
</event>
<event>
 7    1  0.2575978E-011  0.5052881E+02  0.7816164E-02  0.1300439E+00
        -11   -1    0    0    0    0  0.00000000000E+00  0.00000000000E+00  0.45593999997E+02  0.45594000000E+02  0.51100000000E-03 0.  1.
         11   -1    0    0    0    0 -0.00000000000E+00 -0.00000000000E+00 -0.45593999997E+02  0.45594000000E+02  0.51100000000E-03 0. -1.
    9900012    2    1    2    0    0 -0.92529869648E+01 -0.10966390052E+02  0.38043272264E+02  0.50528806167E+02  0.29999836826E+02 0.  0.
         12    1    1    2    0    0  0.92529869648E+01  0.10966390052E+02 -0.38043272264E+02  0.40659193833E+02  0.00000000000E+00 0. -1.
         11    1    3    3    0    0 -0.62457402229E+01  0.70274602522E+01  0.10949858312E+02  0.14432389471E+02  0.51100000000E-03 0. -1.
        -11    1    3    3    0    0 -0.61813525137E+01 -0.17399730290E+01  0.12367552211E+02  0.13935313882E+02  0.51100000000E-03 0.  1.
         12    1    3    3    0    0  0.31741057718E+01 -0.16253877275E+02  0.14725861742E+02  0.22161102815E+02  0.00000000000E+00 0. -1.
</event>
<event>
 7    1  0.2575978E-011  0.5052887E+02  0.7816164E-02  0.1300439E+00
        -11   -1    0    0    0    0  0.00000000000E+00  0.00000000000E+00  0.45593999997E+02  0.45594000000E+02  0.51100000000E-03 0. -1.
         11   -1    0    0    0    0 -0.00000000000E+00 -0.00000000000E+00 -0.45593999997E+02  0.45594000000E+02  0.51100000000E-03 0.  1.
    9900012    2    1    2    0    0 -0.35165973774E+02 -0.10245393101E+02 -0.17650811189E+02  0.50528869083E+02  0.30000028064E+02 0.  0.
         12    1    1    2    0    0  0.35165973774E+02  0.10245393101E+02  0.17650811189E+02  0.40659130917E+02  0.00000000000E+00 0. -1.
         11    1    3    3    0    0 -0.13416938348E+02 -0.66660631668E+01 -0.23500293516E+01  0.15164869633E+02  0.51100000000E-03 0. -1.
        -11    1    3    3    0    0 -0.21424266009E+02 -0.75657776064E+01 -0.19223249461E+02  0.29761946927E+02  0.51100000000E-03 0.  1.
        -12    1    3    3    0    0 -0.32476941770E+00  0.39864476720E+01  0.39224676227E+01  0.56020525228E+01  0.00000000000E+00 0.  1.
</event>
<event>
 7    1  0.2575978E-011  0.5052887E+02  0.7816164E-02  0.1300439E+00
        -11   -1    0    0    0    0  0.00000000000E+00  0.00000000000E+00  0.45593999997E+02  0.45594000000E+02  0.51100000000E-03 0.  1.
         11   -1    0    0    0    0 -0.00000000000E+00 -0.00000000000E+00 -0.45593999997E+02  0.45594000000E+02  0.51100000000E-03 0. -1.
    9900012    2    1    2    0    0 -0.32717401405E+02  0.16457279706E+02  0.17660527581E+02  0.50528872557E+02  0.30000038624E+02 0.  0.
         12    1    1    2    0    0  0.32717401405E+02 -0.16457279706E+02 -0.17660527581E+02  0.40659127443E+02  0.00000000000E+00 0. -1.
         11    1    3    3    0    0 -0.36674182283E+02  0.13981737277E+02  0.16209361646E+02  0.42464432513E+02  0.51100000000E-03 0. -1.
        -11    1    3    3    0    0 -0.74462973768E+00  0.28958139550E+01  0.14974948192E+01  0.33440548594E+01  0.51100000000E-03 0.  1.
         12    1    3    3    0    0  0.47014106151E+01 -0.42027152611E+00 -0.46328884714E-01  0.47203851848E+01  0.00000000000E+00 0. -1.
</event>
<event>
 7    1  0.2575978E-011  0.5052886E+02  0.7816164E-02  0.1300439E+00
        -11   -1    0    0    0    0  0.00000000000E+00  0.00000000000E+00  0.45593999997E+02  0.45594000000E+02  0.51100000000E-03 0.  1.
         11   -1    0    0    0    0 -0.00000000000E+00 -0.00000000000E+00 -0.45593999997E+02  0.45594000000E+02  0.51100000000E-03 0. -1.
    9900012    2    1    2    0    0  0.12309864977E+02  0.31263223398E+02  0.22896376468E+02  0.50528856276E+02  0.29999989135E+02 0.  0.
         12    1    1    2    0    0 -0.12309864977E+02 -0.31263223398E+02 -0.22896376468E+02  0.40659143724E+02  0.00000000000E+00 0. -1.
         11    1    3    3    0    0 -0.45561635261E+01  0.62999160482E+01  0.78901678447E+01  0.11077107798E+02  0.51100000000E-03 0.  1.
        -11    1    3    3    0    0  0.98415053851E+01  0.12988556975E+02 -0.31483460303E+01  0.16597286632E+02  0.51100000000E-03 0. -1.
         12    1    3    3    0    0  0.70245231184E+01  0.11974750375E+02  0.18154554654E+02  0.22854461846E+02  0.00000000000E+00 0. -1.
</event>
<event>
 7    1  0.2575978E-011  0.5052887E+02  0.7816164E-02  0.1300439E+00
        -11   -1    0    0    0    0  0.00000000000E+00  0.00000000000E+00  0.45593999997E+02  0.45594000000E+02  0.51100000000E-03 0.  1.
         11   -1    0    0    0    0 -0.00000000000E+00 -0.00000000000E+00 -0.45593999997E+02  0.45594000000E+02  0.51100000000E-03 0. -1.
    9900012    2    1    2    0    0 -0.36852764234E+02 -0.16976397437E+02  0.26154345292E+01  0.50528870652E+02  0.30000032833E+02 0.  0.
         12    1    1    2    0    0  0.36852764234E+02  0.16976397437E+02 -0.26154345292E+01  0.40659129348E+02  0.00000000000E+00 0. -1.
         11    1    3    3    0    0 -0.10552746581E+02 -0.12532119882E+02 -0.10655090695E+02  0.19543424652E+02  0.51100000000E-03 0. -1.
        -11    1    3    3    0    0  0.16694238004E+00  0.74672579046E+00 -0.26319762223E+00  0.80916154991E+00  0.51100000000E-03 0.  1.
        -12    1    3    3    0    0 -0.26466960033E+02 -0.51910033448E+01  0.13533722847E+02  0.30176284450E+02  0.00000000000E+00 0.  1.
</event>
<event>
 7    1  0.2575978E-011  0.5052887E+02  0.7816164E-02  0.1300439E+00
        -11   -1    0    0    0    0  0.00000000000E+00  0.00000000000E+00  0.45593999997E+02  0.45594000000E+02  0.51100000000E-03 0.  1.
         11   -1    0    0    0    0 -0.00000000000E+00 -0.00000000000E+00 -0.45593999997E+02  0.45594000000E+02  0.51100000000E-03 0. -1.
    9900012    2    1    2    0    0  0.15869533783E+01 -0.34850798656E+02  0.20882252687E+02  0.50528867381E+02  0.30000022892E+02 0.  0.
         12    1    1    2    0    0 -0.15869533783E+01  0.34850798656E+02 -0.20882252687E+02  0.40659132619E+02  0.00000000000E+00 0. -1.
         11    1    3    3    0    0 -0.58744364866E+01 -0.16465862980E+02 -0.16171692749E+01  0.17557018097E+02  0.51100000000E-03 0.  1.
        -11    1    3    3    0    0  0.59300593431E+01 -0.60675270657E+00  0.35261557752E+01  0.69258593310E+01  0.51100000000E-03 0. -1.
        -12    1    3    3    0    0  0.15313305218E+01 -0.17778182969E+02  0.18973266187E+02  0.26045989954E+02  0.00000000000E+00 0.  1.
</event>
<event>
 7    1  0.2575978E-011  0.5052886E+02  0.7816164E-02  0.1300439E+00
        -11   -1    0    0    0    0  0.00000000000E+00  0.00000000000E+00  0.45593999997E+02  0.45594000000E+02  0.51100000000E-03 0.  1.
         11   -1    0    0    0    0 -0.00000000000E+00 -0.00000000000E+00 -0.45593999997E+02  0.45594000000E+02  0.51100000000E-03 0. -1.
    9900012    2    1    2    0    0 -0.20849491392E+02  0.34222625054E+02  0.68757771718E+01  0.50528859962E+02  0.30000000340E+02 0.  0.
         12    1    1    2    0    0  0.20849491392E+02 -0.34222625054E+02 -0.68757771718E+01  0.40659140038E+02  0.00000000000E+00 0. -1.
         11    1    3    3    0    0  0.94567033245E+00  0.31007699175E+01  0.73997182447E+01  0.80786692481E+01  0.51100000000E-03 0. -1.
        -11    1    3    3    0    0 -0.10315985496E+02  0.60434683740E+01  0.70094468181E+01  0.13859127379E+02  0.51100000000E-03 0.  1.
        -12    1    3    3    0    0 -0.11479176228E+02  0.25078386763E+02 -0.75333878910E+01  0.28591063335E+02  0.00000000000E+00 0.  1.
</event>
<event>
 7    1  0.2575978E-011  0.5052886E+02  0.7816164E-02  0.1300439E+00
        -11   -1    0    0    0    0  0.00000000000E+00  0.00000000000E+00  0.45593999997E+02  0.45594000000E+02  0.51100000000E-03 0. -1.
         11   -1    0    0    0    0 -0.00000000000E+00 -0.00000000000E+00 -0.45593999997E+02  0.45594000000E+02  0.51100000000E-03 0.  1.
    9900012    2    1    2    0    0 -0.28559499644E+02  0.73670613031E+01 -0.27986552975E+02  0.50528858844E+02  0.29999996941E+02 0.  0.
         12    1    1    2    0    0  0.28559499644E+02 -0.73670613031E+01  0.27986552975E+02  0.40659141156E+02  0.00000000000E+00 0. -1.
         11    1    3    3    0    0 -0.21079164276E+01  0.10260339428E+02 -0.11114439846E+02  0.15272480159E+02  0.51100000000E-03 0. -1.
        -11    1    3    3    0    0 -0.19972186740E+02  0.50330694996E+01 -0.12726366133E+02  0.24211163272E+02  0.51100000000E-03 0.  1.
        -12    1    3    3    0    0 -0.64793964763E+01 -0.79263476248E+01 -0.41457469959E+01  0.11045215413E+02  0.00000000000E+00 0.  1.
</event>
<event>
 7    1  0.2575978E-011  0.5052887E+02  0.7816164E-02  0.1300439E+00
        -11   -1    0    0    0    0  0.00000000000E+00  0.00000000000E+00  0.45593999997E+02  0.45594000000E+02  0.51100000000E-03 0.  1.
         11   -1    0    0    0    0 -0.00000000000E+00 -0.00000000000E+00 -0.45593999997E+02  0.45594000000E+02  0.51100000000E-03 0. -1.
    9900012    2    1    2    0    0 -0.10770446627E+02 -0.97492302597E+01  0.37975187081E+02  0.50528870090E+02  0.30000031126E+02 0.  0.
         12    1    1    2    0    0  0.10770446627E+02  0.97492302597E+01 -0.37975187081E+02  0.40659129910E+02  0.00000000000E+00 0. -1.
         11    1    3    3    0    0 -0.24837880960E+01  0.66739190258E+01  0.76913193867E+00  0.71625388424E+01  0.51100000000E-03 0. -1.
        -11    1    3    3    0    0 -0.19845800903E+01 -0.62784138209E+01  0.26570540420E+02  0.27374269976E+02  0.51100000000E-03 0.  1.
        -12    1    3    3    0    0 -0.63020784405E+01 -0.10144735465E+02  0.10635514723E+02  0.15992061272E+02  0.00000000000E+00 0.  1.
</event>
<event>
 7    1  0.2575978E-011  0.5052886E+02  0.7816164E-02  0.1300439E+00
        -11   -1    0    0    0    0  0.00000000000E+00  0.00000000000E+00  0.45593999997E+02  0.45594000000E+02  0.51100000000E-03 0.  1.
         11   -1    0    0    0    0 -0.00000000000E+00 -0.00000000000E+00 -0.45593999997E+02  0.45594000000E+02  0.51100000000E-03 0. -1.
    9900012    2    1    2    0    0 -0.38790952985E+02  0.90493156998E+01  0.81570700750E+01  0.50528856621E+02  0.29999990185E+02 0.  0.
         12    1    1    2    0    0  0.38790952985E+02 -0.90493156998E+01 -0.81570700750E+01  0.40659143379E+02  0.00000000000E+00 0. -1.
         11    1    3    3    0    0 -0.85255880720E+01  0.61051548603E+01  0.11881262974E+02  0.15846860193E+02  0.51100000000E-03 0. -1.
        -11    1    3    3    0    0 -0.11826887229E+02 -0.58990798717E+01  0.21850729641E+01  0.13395855665E+02  0.51100000000E-03 0.  1.
        -12    1    3    3    0    0 -0.18438477684E+02  0.88432407112E+01 -0.59092658635E+01  0.21286140764E+02  0.00000000000E+00 0.  1.
</event>
<event>
 7    1  0.2575978E-011  0.5052879E+02  0.7816164E-02  0.1300439E+00
        -11   -1    0    0    0    0  0.00000000000E+00  0.00000000000E+00  0.45593999997E+02  0.45594000000E+02  0.51100000000E-03 0.  1.
         11   -1    0    0    0    0 -0.00000000000E+00 -0.00000000000E+00 -0.45593999997E+02  0.45594000000E+02  0.51100000000E-03 0. -1.
    9900012    2    1    2    0    0  0.12139728751E+02 -0.32772239896E+02  0.20779291183E+02  0.50528786235E+02  0.29999776238E+02 0.  0.
         12    1    1    2    0    0 -0.12139728751E+02  0.32772239896E+02 -0.20779291183E+02  0.40659213765E+02  0.00000000000E+00 0. -1.
         11    1    3    3    0    0  0.32099282956E+01 -0.31017636076E+01  0.15183588576E+02  0.15826115741E+02  0.51100000000E-03 0. -1.
        -11    1    3    3    0    0 -0.34532162151E+01 -0.12733678264E+02  0.32742758216E+01  0.13593827525E+02  0.51100000000E-03 0.  1.
         12    1    3    3    0    0  0.12383016670E+02 -0.16936798025E+02  0.23214267854E+01  0.21108842969E+02  0.00000000000E+00 0. -1.
</event>
<event>
 7    1  0.2575978E-011  0.5052888E+02  0.7816164E-02  0.1300439E+00
        -11   -1    0    0    0    0  0.00000000000E+00  0.00000000000E+00  0.45593999997E+02  0.45594000000E+02  0.51100000000E-03 0.  1.
         11   -1    0    0    0    0 -0.00000000000E+00 -0.00000000000E+00 -0.45593999997E+02  0.45594000000E+02  0.51100000000E-03 0. -1.
    9900012    2    1    2    0    0  0.12679211048E+02  0.38489157539E+02 -0.33146166016E+01  0.50528876497E+02  0.30000050599E+02 0.  0.
         12    1    1    2    0    0 -0.12679211048E+02 -0.38489157539E+02  0.33146166016E+01  0.40659123503E+02  0.00000000000E+00 0. -1.
         11    1    3    3    0    0  0.14351781995E+02  0.16953402541E+02 -0.98594372399E+01  0.24302263415E+02  0.51100000000E-03 0. -1.
        -11    1    3    3    0    0  0.48369096753E+01  0.29912211787E+01  0.75027904823E+00  0.57363767535E+01  0.51100000000E-03 0.  1.
        -12    1    3    3    0    0 -0.65094806222E+01  0.18544533819E+02  0.57945415901E+01  0.20490236328E+02  0.00000000000E+00 0.  1.
</event>
<event>
 7    1  0.2575978E-011  0.5052885E+02  0.7816164E-02  0.1300439E+00
        -11   -1    0    0    0    0  0.00000000000E+00  0.00000000000E+00  0.45593999997E+02  0.45594000000E+02  0.51100000000E-03 0.  1.
         11   -1    0    0    0    0 -0.00000000000E+00 -0.00000000000E+00 -0.45593999997E+02  0.45594000000E+02  0.51100000000E-03 0. -1.
    9900012    2    1    2    0    0  0.31546247635E+02 -0.12080630293E+02  0.22628730634E+02  0.50528845825E+02  0.29999957370E+02 0.  0.
         12    1    1    2    0    0 -0.31546247635E+02  0.12080630293E+02 -0.22628730634E+02  0.40659154175E+02  0.00000000000E+00 0. -1.
         11    1    3    3    0    0  0.12919823173E+02 -0.39469884622E+01  0.11994344073E+02  0.18065570535E+02  0.51100000000E-03 0.  1.
        -11    1    3    3    0    0  0.12906194922E+02  0.59268527976E+01  0.98111880472E+01  0.17261427016E+02  0.51100000000E-03 0. -1.
         12    1    3    3    0    0  0.57202295395E+01 -0.14060494628E+02  0.82319851392E+00  0.15201848275E+02  0.00000000000E+00 0. -1.
</event>
<event>
 7    1  0.2575978E-011  0.5052886E+02  0.7816164E-02  0.1300439E+00
        -11   -1    0    0    0    0  0.00000000000E+00  0.00000000000E+00  0.45593999997E+02  0.45594000000E+02  0.51100000000E-03 0.  1.
         11   -1    0    0    0    0 -0.00000000000E+00 -0.00000000000E+00 -0.45593999997E+02  0.45594000000E+02  0.51100000000E-03 0. -1.
    9900012    2    1    2    0    0 -0.40356334417E+02  0.44758137224E+01  0.21211589568E+01  0.50528856485E+02  0.29999989773E+02 0.  0.
         12    1    1    2    0    0  0.40356334417E+02 -0.44758137224E+01 -0.21211589568E+01  0.40659143515E+02  0.00000000000E+00 0. -1.
         11    1    3    3    0    0 -0.13490215522E+02 -0.66682601754E+01  0.30402959225E+01  0.15352361647E+02  0.51100000000E-03 0. -1.
        -11    1    3    3    0    0 -0.11934639811E+02 -0.29594978429E+01  0.57602765702E+01  0.13578477136E+02  0.51100000000E-03 0.  1.
        -12    1    3    3    0    0 -0.14931479083E+02  0.14103571741E+02 -0.66794135359E+01  0.21598017702E+02  0.00000000000E+00 0.  1.
</event>
<event>
 7    1  0.2575978E-011  0.5052891E+02  0.7816164E-02  0.1300439E+00
        -11   -1    0    0    0    0  0.00000000000E+00  0.00000000000E+00  0.45593999997E+02  0.45594000000E+02  0.51100000000E-03 0. -1.
         11   -1    0    0    0    0 -0.00000000000E+00 -0.00000000000E+00 -0.45593999997E+02  0.45594000000E+02  0.51100000000E-03 0.  1.
    9900012    2    1    2    0    0 -0.10053984810E+01 -0.37731444284E+02  0.15115840168E+02  0.50528913220E+02  0.30000162222E+02 0.  0.
         12    1    1    2    0    0  0.10053984810E+01  0.37731444284E+02 -0.15115840168E+02  0.40659086780E+02  0.00000000000E+00 0. -1.
         11    1    3    3    0    0 -0.62738859699E+01 -0.20266296315E+02  0.12678211969E+02  0.24714802660E+02  0.51100000000E-03 0.  1.
        -11    1    3    3    0    0 -0.42630272350E+01 -0.11745820053E+02  0.63671649501E+01  0.14024210484E+02  0.51100000000E-03 0. -1.
         12    1    3    3    0    0  0.95315147238E+01 -0.57193279152E+01 -0.39295367514E+01  0.11789900076E+02  0.00000000000E+00 0. -1.
</event>
<event>
 7    1  0.2575978E-011  0.5052886E+02  0.7816164E-02  0.1300439E+00
        -11   -1    0    0    0    0  0.00000000000E+00  0.00000000000E+00  0.45593999997E+02  0.45594000000E+02  0.51100000000E-03 0. -1.
         11   -1    0    0    0    0 -0.00000000000E+00 -0.00000000000E+00 -0.45593999997E+02  0.45594000000E+02  0.51100000000E-03 0.  1.
    9900012    2    1    2    0    0 -0.39317934813E+02  0.14737559715E+01 -0.10251511711E+02  0.50528862688E+02  0.30000008625E+02 0.  0.
         12    1    1    2    0    0  0.39317934813E+02 -0.14737559715E+01  0.10251511711E+02  0.40659137312E+02  0.00000000000E+00 0. -1.
         11    1    3    3    0    0  0.62888390924E+00  0.49899341735E+01  0.31364491302E+01  0.59272465306E+01  0.51100000000E-03 0. -1.
        -11    1    3    3    0    0  0.47087700948E+00 -0.14851168759E+01 -0.20496672071E+01  0.25745743753E+01  0.51100000000E-03 0.  1.
        -12    1    3    3    0    0 -0.40417695732E+02 -0.20310613261E+01 -0.11338293634E+02  0.42027041782E+02  0.00000000000E+00 0.  1.
</event>
<event>
 7    1  0.2575978E-011  0.5052885E+02  0.7816164E-02  0.1300439E+00
        -11   -1    0    0    0    0  0.00000000000E+00  0.00000000000E+00  0.45593999997E+02  0.45594000000E+02  0.51100000000E-03 0. -1.
         11   -1    0    0    0    0 -0.00000000000E+00 -0.00000000000E+00 -0.45593999997E+02  0.45594000000E+02  0.51100000000E-03 0.  1.
    9900012    2    1    2    0    0 -0.15460346620E+02  0.28737701938E+02 -0.24254663455E+02  0.50528849374E+02  0.29999968158E+02 0.  0.
         12    1    1    2    0    0  0.15460346620E+02 -0.28737701938E+02  0.24254663455E+02  0.40659150626E+02  0.00000000000E+00 0. -1.
         11    1    3    3    0    0 -0.13185774480E+00  0.62812243955E-01  0.30910449918E+01  0.30944936977E+01  0.51100000000E-03 0. -1.
        -11    1    3    3    0    0 -0.82694258022E+01  0.73369876811E+00 -0.95371404865E+00  0.83565116962E+01  0.51100000000E-03 0.  1.
        -12    1    3    3    0    0 -0.70590630730E+01  0.27941190926E+02 -0.26391994398E+02  0.39077843980E+02  0.00000000000E+00 0.  1.
</event>
<event>
 7    1  0.2575978E-011  0.5052885E+02  0.7816164E-02  0.1300439E+00
        -11   -1    0    0    0    0  0.00000000000E+00  0.00000000000E+00  0.45593999997E+02  0.45594000000E+02  0.51100000000E-03 0.  1.
         11   -1    0    0    0    0 -0.00000000000E+00 -0.00000000000E+00 -0.45593999997E+02  0.45594000000E+02  0.51100000000E-03 0. -1.
    9900012    2    1    2    0    0  0.20362434224E+02 -0.17776394107E+02  0.30373300749E+02  0.50528852033E+02  0.29999976240E+02 0.  0.
         12    1    1    2    0    0 -0.20362434224E+02  0.17776394107E+02 -0.30373300749E+02  0.40659147967E+02  0.00000000000E+00 0. -1.
         11    1    3    3    0    0  0.26849235158E+01 -0.66093126257E+01 -0.36394700537E+01  0.80085935221E+01  0.51100000000E-03 0. -1.
        -11    1    3    3    0    0  0.14428537390E+02 -0.14347467323E+02  0.23616097360E+02  0.31172946036E+02  0.51100000000E-03 0.  1.
        -12    1    3    3    0    0  0.32489733180E+01  0.31803858414E+01  0.10396673443E+02  0.11347312475E+02  0.00000000000E+00 0.  1.
</event>
<event>
 7    1  0.2575978E-011  0.5052886E+02  0.7816164E-02  0.1300439E+00
        -11   -1    0    0    0    0  0.00000000000E+00  0.00000000000E+00  0.45593999997E+02  0.45594000000E+02  0.51100000000E-03 0.  1.
         11   -1    0    0    0    0 -0.00000000000E+00 -0.00000000000E+00 -0.45593999997E+02  0.45594000000E+02  0.51100000000E-03 0. -1.
    9900012    2    1    2    0    0  0.50720052463E+01 -0.21605135558E+02  0.34068438201E+02  0.50528860792E+02  0.30000002864E+02 0.  0.
         12    1    1    2    0    0 -0.50720052463E+01  0.21605135558E+02 -0.34068438201E+02  0.40659139208E+02  0.00000000000E+00 0. -1.
         11    1    3    3    0    0  0.21265470085E+01 -0.17513248750E+01 -0.25244759698E+01  0.37366188166E+01  0.51100000000E-03 0. -1.
        -11    1    3    3    0    0  0.43430229403E+01 -0.15756753211E+02  0.86042494893E+01  0.18470793961E+02  0.51100000000E-03 0.  1.
         12    1    3    3    0    0 -0.13975647025E+01 -0.40970574720E+01  0.27988664681E+02  0.28321448015E+02  0.00000000000E+00 0. -1.
</event>
<event>
 7    1  0.2575978E-011  0.5052886E+02  0.7816164E-02  0.1300439E+00
        -11   -1    0    0    0    0  0.00000000000E+00  0.00000000000E+00  0.45593999997E+02  0.45594000000E+02  0.51100000000E-03 0.  1.
         11   -1    0    0    0    0 -0.00000000000E+00 -0.00000000000E+00 -0.45593999997E+02  0.45594000000E+02  0.51100000000E-03 0. -1.
    9900012    2    1    2    0    0 -0.13501413475E+02 -0.37650732071E+00  0.38350174906E+02  0.50528857868E+02  0.29999993976E+02 0.  0.
         12    1    1    2    0    0  0.13501413475E+02  0.37650732071E+00 -0.38350174906E+02  0.40659142132E+02  0.00000000000E+00 0. -1.
         11    1    3    3    0    0 -0.55430596616E+01 -0.25252180557E+01 -0.25978040122E+01  0.66219953630E+01  0.51100000000E-03 0. -1.
        -11    1    3    3    0    0  0.35600592276E+01 -0.11739482127E+01  0.77083197466E+01  0.85714858506E+01  0.51100000000E-03 0.  1.
        -12    1    3    3    0    0 -0.11518413041E+02  0.33226589476E+01  0.33239659172E+02  0.35335376654E+02  0.00000000000E+00 0.  1.
</event>
<event>
 7    1  0.2575978E-011  0.5052886E+02  0.7816164E-02  0.1300439E+00
        -11   -1    0    0    0    0  0.00000000000E+00  0.00000000000E+00  0.45593999997E+02  0.45594000000E+02  0.51100000000E-03 0. -1.
         11   -1    0    0    0    0 -0.00000000000E+00 -0.00000000000E+00 -0.45593999997E+02  0.45594000000E+02  0.51100000000E-03 0.  1.
    9900012    2    1    2    0    0  0.21143047904E+02 -0.34328036770E+02 -0.52653092057E+01  0.50528855098E+02  0.29999985555E+02 0.  0.
         12    1    1    2    0    0 -0.21143047904E+02  0.34328036770E+02  0.52653092057E+01  0.40659144902E+02  0.00000000000E+00 0. -1.
         11    1    3    3    0    0  0.18267472971E+01  0.25821542769E+01 -0.51984057641E+01  0.60850595023E+01  0.51100000000E-03 0.  1.
        -11    1    3    3    0    0  0.14157440420E+02 -0.10772782010E+02 -0.53352809560E+00  0.17798050566E+02  0.51100000000E-03 0. -1.
        -12    1    3    3    0    0  0.51588601870E+01 -0.26137409037E+02  0.46662465402E+00  0.26645745030E+02  0.00000000000E+00 0.  1.
</event>
<event>
 7    1  0.2575978E-011  0.5052887E+02  0.7816164E-02  0.1300439E+00
        -11   -1    0    0    0    0  0.00000000000E+00  0.00000000000E+00  0.45593999997E+02  0.45594000000E+02  0.51100000000E-03 0.  1.
         11   -1    0    0    0    0 -0.00000000000E+00 -0.00000000000E+00 -0.45593999997E+02  0.45594000000E+02  0.51100000000E-03 0. -1.
    9900012    2    1    2    0    0  0.12115055638E-01  0.13081596360E+02  0.38497230693E+02  0.50528867187E+02  0.30000022300E+02 0.  0.
         12    1    1    2    0    0 -0.12115055638E-01 -0.13081596360E+02 -0.38497230693E+02  0.40659132813E+02  0.00000000000E+00 0. -1.
         11    1    3    3    0    0 -0.11930405032E+01 -0.20243418131E+01  0.26740779115E+02  0.26843818159E+02  0.51100000000E-03 0. -1.
        -11    1    3    3    0    0 -0.46351843391E+01  0.15185987711E+01  0.61946137702E+01  0.78844350532E+01  0.51100000000E-03 0.  1.
         12    1    3    3    0    0  0.58403398980E+01  0.13587339402E+02  0.55618378075E+01  0.15800613974E+02  0.00000000000E+00 0. -1.
</event>
<event>
 7    1  0.2575978E-011  0.5052886E+02  0.7816164E-02  0.1300439E+00
        -11   -1    0    0    0    0  0.00000000000E+00  0.00000000000E+00  0.45593999997E+02  0.45594000000E+02  0.51100000000E-03 0. -1.
         11   -1    0    0    0    0 -0.00000000000E+00 -0.00000000000E+00 -0.45593999997E+02  0.45594000000E+02  0.51100000000E-03 0.  1.
    9900012    2    1    2    0    0 -0.21023871736E+02 -0.22462456965E+01 -0.34729195760E+02  0.50528857847E+02  0.29999993911E+02 0.  0.
         12    1    1    2    0    0  0.21023871736E+02  0.22462456965E+01  0.34729195760E+02  0.40659142153E+02  0.00000000000E+00 0. -1.
         11    1    3    3    0    0  0.53038101200E+00  0.24690568616E+01  0.37619992813E+00  0.25532474323E+01  0.51100000000E-03 0. -1.
        -11    1    3    3    0    0 -0.15669353383E+02  0.70078706184E+01 -0.10582929384E+02  0.20165249333E+02  0.51100000000E-03 0.  1.
        -12    1    3    3    0    0 -0.58848993652E+01 -0.11723173176E+02 -0.24522466304E+02  0.27810361082E+02  0.00000000000E+00 0.  1.
</event>
<event>
 7    1  0.2575978E-011  0.5052886E+02  0.7816164E-02  0.1300439E+00
        -11   -1    0    0    0    0  0.00000000000E+00  0.00000000000E+00  0.45593999997E+02  0.45594000000E+02  0.51100000000E-03 0.  1.
         11   -1    0    0    0    0 -0.00000000000E+00 -0.00000000000E+00 -0.45593999997E+02  0.45594000000E+02  0.51100000000E-03 0. -1.
    9900012    2    1    2    0    0  0.20934199490E+02  0.13832848218E+02  0.31993393693E+02  0.50528860337E+02  0.30000001481E+02 0.  0.
         12    1    1    2    0    0 -0.20934199490E+02 -0.13832848218E+02 -0.31993393693E+02  0.40659139663E+02  0.00000000000E+00 0. -1.
         11    1    3    3    0    0 -0.32062345578E+01  0.18123906084E+01  0.31497047479E+01  0.48461675597E+01  0.51100000000E-03 0. -1.
        -11    1    3    3    0    0 -0.74205795964E+00  0.54762490888E+01  0.15997774954E+02  0.16925387967E+02  0.51100000000E-03 0.  1.
         12    1    3    3    0    0  0.24882492008E+02  0.65442085204E+01  0.12845913991E+02  0.28757304810E+02  0.00000000000E+00 0. -1.
</event>
<event>
 7    1  0.2575978E-011  0.5052895E+02  0.7816164E-02  0.1300438E+00
        -11   -1    0    0    0    0  0.00000000000E+00  0.00000000000E+00  0.45593999997E+02  0.45594000000E+02  0.51100000000E-03 0.  1.
         11   -1    0    0    0    0 -0.00000000000E+00 -0.00000000000E+00 -0.45593999997E+02  0.45594000000E+02  0.51100000000E-03 0. -1.
    9900012    2    1    2    0    0 -0.18480442302E+02 -0.15022200428E+02  0.32953979456E+02  0.50528954077E+02  0.30000286410E+02 0.  0.
         12    1    1    2    0    0  0.18480442302E+02  0.15022200428E+02 -0.32953979456E+02  0.40659045923E+02  0.00000000000E+00 0. -1.
         11    1    3    3    0    0 -0.14960310007E+02 -0.20284205451E+01  0.59948699500E+01  0.16243885969E+02  0.51100000000E-03 0. -1.
        -11    1    3    3    0    0 -0.10101252359E+02 -0.84914807818E+01  0.16245880693E+02  0.20930102361E+02  0.51100000000E-03 0.  1.
         12    1    3    3    0    0  0.65811200634E+01 -0.45022991015E+01  0.10713228813E+02  0.13354965747E+02  0.00000000000E+00 0. -1.
</event>
<event>
 7    1  0.2575978E-011  0.5052886E+02  0.7816164E-02  0.1300439E+00
        -11   -1    0    0    0    0  0.00000000000E+00  0.00000000000E+00  0.45593999997E+02  0.45594000000E+02  0.51100000000E-03 0.  1.
         11   -1    0    0    0    0 -0.00000000000E+00 -0.00000000000E+00 -0.45593999997E+02  0.45594000000E+02  0.51100000000E-03 0. -1.
    9900012    2    1    2    0    0  0.23698365272E+02  0.30982095110E+02  0.11474443165E+02  0.50528861053E+02  0.30000003656E+02 0.  0.
         12    1    1    2    0    0 -0.23698365272E+02 -0.30982095110E+02 -0.11474443165E+02  0.40659138947E+02  0.00000000000E+00 0. -1.
         11    1    3    3    0    0  0.41899880320E+01  0.79292243733E+01 -0.73850754033E+00  0.89985550239E+01  0.51100000000E-03 0. -1.
        -11    1    3    3    0    0  0.28818894664E+01  0.91549427016E+01 -0.75424184542E+01  0.12206815275E+02  0.51100000000E-03 0.  1.
        -12    1    3    3    0    0  0.16626487774E+02  0.13897928035E+02  0.19755369159E+02  0.29323490754E+02  0.00000000000E+00 0.  1.
</event>
<event>
 7    1  0.2575978E-011  0.5052885E+02  0.7816164E-02  0.1300439E+00
        -11   -1    0    0    0    0  0.00000000000E+00  0.00000000000E+00  0.45593999997E+02  0.45594000000E+02  0.51100000000E-03 0.  1.
         11   -1    0    0    0    0 -0.00000000000E+00 -0.00000000000E+00 -0.45593999997E+02  0.45594000000E+02  0.51100000000E-03 0. -1.
    9900012    2    1    2    0    0 -0.37419275633E+02 -0.15021831931E+02  0.52257744597E+01  0.50528851679E+02  0.29999975163E+02 0.  0.
         12    1    1    2    0    0  0.37419275633E+02  0.15021831931E+02 -0.52257744597E+01  0.40659148321E+02  0.00000000000E+00 0. -1.
         11    1    3    3    0    0 -0.44513695249E+01 -0.10873364684E+02  0.40692288520E+01  0.12433960507E+02  0.51100000000E-03 0. -1.
        -11    1    3    3    0    0 -0.66086707164E+01 -0.84910048290E+01 -0.27260311294E+01  0.11099681870E+02  0.51100000000E-03 0.  1.
        -12    1    3    3    0    0 -0.26359235392E+02  0.43425375813E+01  0.38825767371E+01  0.26995209301E+02  0.00000000000E+00 0.  1.
</event>
<event>
 7    1  0.2575978E-011  0.5052885E+02  0.7816164E-02  0.1300439E+00
        -11   -1    0    0    0    0  0.00000000000E+00  0.00000000000E+00  0.45593999997E+02  0.45594000000E+02  0.51100000000E-03 0. -1.
         11   -1    0    0    0    0 -0.00000000000E+00 -0.00000000000E+00 -0.45593999997E+02  0.45594000000E+02  0.51100000000E-03 0.  1.
    9900012    2    1    2    0    0 -0.33450241132E+02  0.21345654448E+02 -0.88662965796E+01  0.50528845919E+02  0.29999957654E+02 0.  0.
         12    1    1    2    0    0  0.33450241132E+02 -0.21345654448E+02  0.88662965796E+01  0.40659154081E+02  0.00000000000E+00 0. -1.
         11    1    3    3    0    0 -0.21500929137E+02  0.14472562975E+02 -0.10815207537E+02  0.28084047913E+02  0.51100000000E-03 0. -1.
        -11    1    3    3    0    0 -0.48113238497E+01 -0.42085135005E+01 -0.44535206699E+01  0.77906527127E+01  0.51100000000E-03 0.  1.
         12    1    3    3    0    0 -0.71379881451E+01  0.11081604973E+02  0.64024316274E+01  0.14654145293E+02  0.00000000000E+00 0. -1.
</event>
<event>
 7    1  0.2575978E-011  0.5052891E+02  0.7816164E-02  0.1300439E+00
        -11   -1    0    0    0    0  0.00000000000E+00  0.00000000000E+00  0.45593999997E+02  0.45594000000E+02  0.51100000000E-03 0.  1.
         11   -1    0    0    0    0 -0.00000000000E+00 -0.00000000000E+00 -0.45593999997E+02  0.45594000000E+02  0.51100000000E-03 0. -1.
    9900012    2    1    2    0    0  0.59308545114E+01  0.36024619376E+02  0.17894515260E+02  0.50528906148E+02  0.30000140728E+02 0.  0.
         12    1    1    2    0    0 -0.59308545114E+01 -0.36024619376E+02 -0.17894515260E+02  0.40659093852E+02  0.00000000000E+00 0. -1.
         11    1    3    3    0    0  0.12074410024E+02  0.15568235802E+02 -0.12071695477E+01  0.19738758877E+02  0.51100000000E-03 0. -1.
        -11    1    3    3    0    0  0.33109728327E+01  0.60258831976E+01  0.60330290648E+01  0.91471989903E+01  0.51100000000E-03 0.  1.
        -12    1    3    3    0    0 -0.94545283456E+01  0.14430500377E+02  0.13068655743E+02  0.21642948281E+02  0.00000000000E+00 0.  1.
</event>
<event>
 7    1  0.2575978E-011  0.5052886E+02  0.7816164E-02  0.1300439E+00
        -11   -1    0    0    0    0  0.00000000000E+00  0.00000000000E+00  0.45593999997E+02  0.45594000000E+02  0.51100000000E-03 0.  1.
         11   -1    0    0    0    0 -0.00000000000E+00 -0.00000000000E+00 -0.45593999997E+02  0.45594000000E+02  0.51100000000E-03 0. -1.
    9900012    2    1    2    0    0  0.35841724394E+02  0.18183721556E+02  0.61553780401E+01  0.50528860609E+02  0.30000002308E+02 0.  0.
         12    1    1    2    0    0 -0.35841724394E+02 -0.18183721556E+02 -0.61553780401E+01  0.40659139391E+02  0.00000000000E+00 0. -1.
         11    1    3    3    0    0  0.14566748449E+02  0.89613318487E-02  0.18161001370E+01  0.14679525219E+02  0.51100000000E-03 0. -1.
        -11    1    3    3    0    0  0.89719827560E+01 -0.33487241912E+01  0.54760749391E+01  0.11031673730E+02  0.51100000000E-03 0.  1.
        -12    1    3    3    0    0  0.12302993189E+02  0.21523484415E+02 -0.11367970359E+01  0.24817661661E+02  0.00000000000E+00 0.  1.
</event>
<event>
 7    1  0.2575978E-011  0.5052886E+02  0.7816164E-02  0.1300439E+00
        -11   -1    0    0    0    0  0.00000000000E+00  0.00000000000E+00  0.45593999997E+02  0.45594000000E+02  0.51100000000E-03 0.  1.
         11   -1    0    0    0    0 -0.00000000000E+00 -0.00000000000E+00 -0.45593999997E+02  0.45594000000E+02  0.51100000000E-03 0. -1.
    9900012    2    1    2    0    0  0.14905169834E+02  0.14746550606E+02 -0.34835910439E+02  0.50528862052E+02  0.30000006694E+02 0.  0.
         12    1    1    2    0    0 -0.14905169834E+02 -0.14746550606E+02  0.34835910439E+02  0.40659137948E+02  0.00000000000E+00 0. -1.
         11    1    3    3    0    0  0.10998753442E+01  0.14470151548E+01  0.36264177443E+01  0.40564127684E+01  0.51100000000E-03 0. -1.
        -11    1    3    3    0    0  0.78900171480E+01  0.68703229431E+01 -0.44726834214E+01  0.11377987748E+02  0.51100000000E-03 0.  1.
        -12    1    3    3    0    0  0.59152773423E+01  0.64292125076E+01 -0.33989644762E+02  0.35094461536E+02  0.00000000000E+00 0.  1.
</event>
<event>
 7    1  0.2575978E-011  0.5052886E+02  0.7816164E-02  0.1300439E+00
        -11   -1    0    0    0    0  0.00000000000E+00  0.00000000000E+00  0.45593999997E+02  0.45594000000E+02  0.51100000000E-03 0.  1.
         11   -1    0    0    0    0 -0.00000000000E+00 -0.00000000000E+00 -0.45593999997E+02  0.45594000000E+02  0.51100000000E-03 0. -1.
    9900012    2    1    2    0    0  0.34920471960E+02  0.11970561776E+02  0.17042063477E+02  0.50528860330E+02  0.30000001460E+02 0.  0.
         12    1    1    2    0    0 -0.34920471960E+02 -0.11970561776E+02 -0.17042063477E+02  0.40659139670E+02  0.00000000000E+00 0. -1.
         11    1    3    3    0    0  0.27011442960E+01  0.93026916011E+01 -0.11379842643E+00  0.96875797739E+01  0.51100000000E-03 0. -1.
        -11    1    3    3    0    0  0.17799442797E+02  0.47899652388E+01  0.18610358229E+02  0.26193689403E+02  0.51100000000E-03 0.  1.
         12    1    3    3    0    0  0.14419884867E+02 -0.21220950642E+01 -0.14544963252E+01  0.14647591154E+02  0.00000000000E+00 0. -1.
</event>
<event>
 7    1  0.2575978E-011  0.5052887E+02  0.7816164E-02  0.1300439E+00
        -11   -1    0    0    0    0  0.00000000000E+00  0.00000000000E+00  0.45593999997E+02  0.45594000000E+02  0.51100000000E-03 0.  1.
         11   -1    0    0    0    0 -0.00000000000E+00 -0.00000000000E+00 -0.45593999997E+02  0.45594000000E+02  0.51100000000E-03 0. -1.
    9900012    2    1    2    0    0 -0.39399753623E+02 -0.95759640833E-01 -0.10040674134E+02  0.50528869506E+02  0.30000029349E+02 0.  0.
         12    1    1    2    0    0  0.39399753623E+02  0.95759640833E-01  0.10040674134E+02  0.40659130494E+02  0.00000000000E+00 0. -1.
         11    1    3    3    0    0 -0.24569092527E-01 -0.37008102693E+01 -0.28495958843E+01  0.46708454540E+01  0.51100000000E-03 0. -1.
        -11    1    3    3    0    0 -0.10289671112E+02  0.42931418379E+00  0.78599747565E+01  0.12955340431E+02  0.51100000000E-03 0.  1.
        -12    1    3    3    0    0 -0.29085513419E+02  0.31757364447E+01 -0.15051053007E+02  0.32902683620E+02  0.00000000000E+00 0.  1.
</event>
<event>
 7    1  0.2575978E-011  0.5052886E+02  0.7816164E-02  0.1300439E+00
        -11   -1    0    0    0    0  0.00000000000E+00  0.00000000000E+00  0.45593999997E+02  0.45594000000E+02  0.51100000000E-03 0. -1.
         11   -1    0    0    0    0 -0.00000000000E+00 -0.00000000000E+00 -0.45593999997E+02  0.45594000000E+02  0.51100000000E-03 0.  1.
    9900012    2    1    2    0    0  0.25324677739E+02 -0.23240152374E+02 -0.21719152754E+02  0.50528861036E+02  0.30000003604E+02 0.  0.
         12    1    1    2    0    0 -0.25324677739E+02  0.23240152374E+02  0.21719152754E+02  0.40659138964E+02  0.00000000000E+00 0. -1.
         11    1    3    3    0    0  0.19243125319E+02 -0.58675101826E+01 -0.10615821252E+01  0.20145781312E+02  0.51100000000E-03 0. -1.
        -11    1    3    3    0    0 -0.37776698242E+01 -0.31972190077E+01 -0.55933780132E+01  0.74685257276E+01  0.51100000000E-03 0.  1.
        -12    1    3    3    0    0  0.98592222445E+01 -0.14175423183E+02 -0.15064192615E+02  0.22914553996E+02  0.00000000000E+00 0.  1.
</event>
<event>
 7    1  0.2575978E-011  0.5052886E+02  0.7816164E-02  0.1300439E+00
        -11   -1    0    0    0    0  0.00000000000E+00  0.00000000000E+00  0.45593999997E+02  0.45594000000E+02  0.51100000000E-03 0.  1.
         11   -1    0    0    0    0 -0.00000000000E+00 -0.00000000000E+00 -0.45593999997E+02  0.45594000000E+02  0.51100000000E-03 0. -1.
    9900012    2    1    2    0    0 -0.11681953819E+02 -0.32738725961E+02  0.21092027340E+02  0.50528857856E+02  0.29999993940E+02 0.  0.
         12    1    1    2    0    0  0.11681953819E+02  0.32738725961E+02 -0.21092027340E+02  0.40659142144E+02  0.00000000000E+00 0. -1.
         11    1    3    3    0    0  0.39060568667E+01 -0.15564639750E+02  0.64145019471E+01  0.17281814901E+02  0.51100000000E-03 0. -1.
        -11    1    3    3    0    0 -0.22354161218E+01 -0.72879844061E+01  0.14782875503E+02  0.16632654940E+02  0.51100000000E-03 0.  1.
         12    1    3    3    0    0 -0.13352594563E+02 -0.98861018046E+01 -0.10535011055E+00  0.16614388015E+02  0.00000000000E+00 0. -1.
</event>
<event>
 7    1  0.2575978E-011  0.5052886E+02  0.7816164E-02  0.1300439E+00
        -11   -1    0    0    0    0  0.00000000000E+00  0.00000000000E+00  0.45593999997E+02  0.45594000000E+02  0.51100000000E-03 0. -1.
         11   -1    0    0    0    0 -0.00000000000E+00 -0.00000000000E+00 -0.45593999997E+02  0.45594000000E+02  0.51100000000E-03 0.  1.
    9900012    2    1    2    0    0 -0.19813540023E+02  0.32295780091E+02 -0.14750321576E+02  0.50528858759E+02  0.29999996683E+02 0.  0.
         12    1    1    2    0    0  0.19813540023E+02 -0.32295780091E+02  0.14750321576E+02  0.40659141241E+02  0.00000000000E+00 0. -1.
         11    1    3    3    0    0 -0.16090828107E+02  0.82446599532E+01 -0.12911740103E+00  0.18080537560E+02  0.51100000000E-03 0.  1.
        -11    1    3    3    0    0 -0.21744796951E+01 -0.17753329542E+01 -0.16789503967E+00  0.28121803015E+01  0.51100000000E-03 0. -1.
        -12    1    3    3    0    0 -0.15482322210E+01  0.25826453092E+02 -0.14453309135E+02  0.29636140897E+02  0.00000000000E+00 0.  1.
</event>
<event>
 7    1  0.2575978E-011  0.5052886E+02  0.7816164E-02  0.1300439E+00
        -11   -1    0    0    0    0  0.00000000000E+00  0.00000000000E+00  0.45593999997E+02  0.45594000000E+02  0.51100000000E-03 0.  1.
         11   -1    0    0    0    0 -0.00000000000E+00 -0.00000000000E+00 -0.45593999997E+02  0.45594000000E+02  0.51100000000E-03 0. -1.
    9900012    2    1    2    0    0 -0.15961609077E+02 -0.27652747444E+02  0.25173763242E+02  0.50528858822E+02  0.29999996877E+02 0.  0.
         12    1    1    2    0    0  0.15961609077E+02  0.27652747444E+02 -0.25173763242E+02  0.40659141178E+02  0.00000000000E+00 0. -1.
         11    1    3    3    0    0 -0.10967958839E+02 -0.97676263930E+01  0.20642052742E+00  0.14688269338E+02  0.51100000000E-03 0. -1.
        -11    1    3    3    0    0 -0.39353504965E+01 -0.21938605234E+01 -0.17538059496E+01  0.48348570916E+01  0.51100000000E-03 0.  1.
        -12    1    3    3    0    0 -0.10582997419E+01 -0.15691260527E+02  0.26721148664E+02  0.31005732393E+02  0.00000000000E+00 0.  1.
</event>
<event>
 7    1  0.2575978E-011  0.5052886E+02  0.7816164E-02  0.1300439E+00
        -11   -1    0    0    0    0  0.00000000000E+00  0.00000000000E+00  0.45593999997E+02  0.45594000000E+02  0.51100000000E-03 0. -1.
         11   -1    0    0    0    0 -0.00000000000E+00 -0.00000000000E+00 -0.45593999997E+02  0.45594000000E+02  0.51100000000E-03 0.  1.
    9900012    2    1    2    0    0 -0.16677251059E+02 -0.25320415812E+02 -0.27090801388E+02  0.50528859826E+02  0.29999999928E+02 0.  0.
         12    1    1    2    0    0  0.16677251059E+02  0.25320415812E+02  0.27090801388E+02  0.40659140174E+02  0.00000000000E+00 0. -1.
         11    1    3    3    0    0 -0.73931010717E+01 -0.10500049171E+02 -0.28254138467E+01  0.13148837960E+02  0.51100000000E-03 0. -1.
        -11    1    3    3    0    0 -0.11572799813E+02 -0.68991703399E+01 -0.19796244383E+01  0.13617898519E+02  0.51100000000E-03 0.  1.
        -12    1    3    3    0    0  0.22886498249E+01 -0.79211963021E+01 -0.22285763103E+02  0.23762123347E+02  0.00000000000E+00 0.  1.
</event>
<event>
 7    1  0.2575978E-011  0.5052886E+02  0.7816164E-02  0.1300439E+00
        -11   -1    0    0    0    0  0.00000000000E+00  0.00000000000E+00  0.45593999997E+02  0.45594000000E+02  0.51100000000E-03 0. -1.
         11   -1    0    0    0    0 -0.00000000000E+00 -0.00000000000E+00 -0.45593999997E+02  0.45594000000E+02  0.51100000000E-03 0.  1.
    9900012    2    1    2    0    0  0.29306228935E+02 -0.27374611356E+02 -0.67038238688E+01  0.50528860120E+02  0.30000000821E+02 0.  0.
         12    1    1    2    0    0 -0.29306228935E+02  0.27374611356E+02  0.67038238688E+01  0.40659139880E+02  0.00000000000E+00 0. -1.
         11    1    3    3    0    0  0.54289259065E+01 -0.11032309140E+02 -0.11143563689E+02  0.16594098149E+02  0.51100000000E-03 0. -1.
        -11    1    3    3    0    0  0.10674003864E+01 -0.71676337221E+01 -0.35682910188E+01  0.80775626160E+01  0.51100000000E-03 0.  1.
         12    1    3    3    0    0  0.22809902643E+02 -0.91746684946E+01  0.80080308387E+01  0.25857199355E+02  0.00000000000E+00 0. -1.
</event>
<event>
 7    1  0.2575978E-011  0.5052884E+02  0.7816164E-02  0.1300439E+00
        -11   -1    0    0    0    0  0.00000000000E+00  0.00000000000E+00  0.45593999997E+02  0.45594000000E+02  0.51100000000E-03 0.  1.
         11   -1    0    0    0    0 -0.00000000000E+00 -0.00000000000E+00 -0.45593999997E+02  0.45594000000E+02  0.51100000000E-03 0. -1.
    9900012    2    1    2    0    0 -0.18673221515E+02 -0.28072872118E+02 -0.22724257530E+02  0.50528840749E+02  0.29999941942E+02 0.  0.
         12    1    1    2    0    0  0.18673221515E+02  0.28072872118E+02  0.22724257530E+02  0.40659159251E+02  0.00000000000E+00 0. -1.
         11    1    3    3    0    0 -0.45225481799E+00  0.34689728560E+01 -0.11328673419E+01  0.36771858494E+01  0.51100000000E-03 0. -1.
        -11    1    3    3    0    0  0.11237785835E+01  0.81022798784E+00  0.19632432808E+01  0.24028466738E+01  0.51100000000E-03 0.  1.
        -12    1    3    3    0    0 -0.19344745280E+02 -0.32352072962E+02 -0.23554633469E+02  0.44448808226E+02  0.00000000000E+00 0.  1.
</event>
<event>
 7    1  0.2575978E-011  0.5052886E+02  0.7816164E-02  0.1300439E+00
        -11   -1    0    0    0    0  0.00000000000E+00  0.00000000000E+00  0.45593999997E+02  0.45594000000E+02  0.51100000000E-03 0.  1.
         11   -1    0    0    0    0 -0.00000000000E+00 -0.00000000000E+00 -0.45593999997E+02  0.45594000000E+02  0.51100000000E-03 0. -1.
    9900012    2    1    2    0    0 -0.15879182833E+02 -0.37360064576E+02  0.22897197275E+01  0.50528859712E+02  0.29999999581E+02 0.  0.
         12    1    1    2    0    0  0.15879182833E+02  0.37360064576E+02 -0.22897197275E+01  0.40659140288E+02  0.00000000000E+00 0. -1.
         11    1    3    3    0    0 -0.15735751584E+02 -0.29612226777E+02 -0.28790006928E+01  0.33656893764E+02  0.51100000000E-03 0. -1.
        -11    1    3    3    0    0 -0.66889158431E+01 -0.57418985433E+01  0.10378593249E+01  0.88762687136E+01  0.51100000000E-03 0.  1.
         12    1    3    3    0    0  0.65454845944E+01 -0.20059392551E+01  0.41308610954E+01  0.79956972341E+01  0.00000000000E+00 0. -1.
</event>
<event>
 7    1  0.2575978E-011  0.5052886E+02  0.7816164E-02  0.1300439E+00
        -11   -1    0    0    0    0  0.00000000000E+00  0.00000000000E+00  0.45593999997E+02  0.45594000000E+02  0.51100000000E-03 0.  1.
         11   -1    0    0    0    0 -0.00000000000E+00 -0.00000000000E+00 -0.45593999997E+02  0.45594000000E+02  0.51100000000E-03 0. -1.
    9900012    2    1    2    0    0  0.11384080444E-01  0.19836582162E+02  0.35491902633E+02  0.50528864815E+02  0.30000015091E+02 0.  0.
         12    1    1    2    0    0 -0.11384080444E-01 -0.19836582162E+02 -0.35491902633E+02  0.40659135185E+02  0.00000000000E+00 0. -1.
         11    1    3    3    0    0  0.25038424468E+01  0.18613485207E+01  0.18644807842E+02  0.18904039384E+02  0.51100000000E-03 0. -1.
        -11    1    3    3    0    0  0.45291190027E+01 -0.19053458232E+01  0.64730494404E+01  0.81267232613E+01  0.51100000000E-03 0.  1.
        -12    1    3    3    0    0 -0.70215773690E+01  0.19880579465E+02  0.10374045351E+02  0.23498102169E+02  0.00000000000E+00 0.  1.
</event>
<event>
 7    1  0.2575978E-011  0.5052880E+02  0.7816164E-02  0.1300439E+00
        -11   -1    0    0    0    0  0.00000000000E+00  0.00000000000E+00  0.45593999997E+02  0.45594000000E+02  0.51100000000E-03 0.  1.
         11   -1    0    0    0    0 -0.00000000000E+00 -0.00000000000E+00 -0.45593999997E+02  0.45594000000E+02  0.51100000000E-03 0. -1.
    9900012    2    1    2    0    0  0.48361062864E+01 -0.40265806356E+02 -0.29064385211E+01  0.50528800913E+02  0.29999820855E+02 0.  0.
         12    1    1    2    0    0 -0.48361062864E+01  0.40265806356E+02  0.29064385211E+01  0.40659199087E+02  0.00000000000E+00 0. -1.
         11    1    3    3    0    0  0.45062651796E+01 -0.74803918030E+01 -0.92051947164E+01  0.12688510449E+02  0.51100000000E-03 0. -1.
        -11    1    3    3    0    0  0.77286233587E+01 -0.71687493982E+01  0.50026538034E+00  0.10553333723E+02  0.51100000000E-03 0.  1.
        -12    1    3    3    0    0 -0.73987822519E+01 -0.25616665155E+02  0.57984908149E+01  0.27286956741E+02  0.00000000000E+00 0.  1.
</event>
<event>
 7    1  0.2575978E-011  0.5052893E+02  0.7816164E-02  0.1300439E+00
        -11   -1    0    0    0    0  0.00000000000E+00  0.00000000000E+00  0.45593999997E+02  0.45594000000E+02  0.51100000000E-03 0. -1.
         11   -1    0    0    0    0 -0.00000000000E+00 -0.00000000000E+00 -0.45593999997E+02  0.45594000000E+02  0.51100000000E-03 0.  1.
    9900012    2    1    2    0    0  0.40537841257E+02 -0.51986346543E+00 -0.30940669846E+01  0.50528928659E+02  0.30000209152E+02 0.  0.
         12    1    1    2    0    0 -0.40537841257E+02  0.51986346543E+00  0.30940669846E+01  0.40659071341E+02  0.00000000000E+00 0. -1.
         11    1    3    3    0    0  0.60301268958E+01 -0.17030062830E+01 -0.44959255211E+01  0.77120689398E+01  0.51100000000E-03 0. -1.
        -11    1    3    3    0    0  0.72874187723E+01 -0.16117715327E+01 -0.10577951701E+02  0.12945939220E+02  0.51100000000E-03 0.  1.
        -12    1    3    3    0    0  0.27220295589E+02  0.27949143503E+01  0.11979810238E+02  0.29870920499E+02  0.00000000000E+00 0.  1.
</event>
<event>
 7    1  0.2575978E-011  0.5052885E+02  0.7816164E-02  0.1300439E+00
        -11   -1    0    0    0    0  0.00000000000E+00  0.00000000000E+00  0.45593999997E+02  0.45594000000E+02  0.51100000000E-03 0. -1.
         11   -1    0    0    0    0 -0.00000000000E+00 -0.00000000000E+00 -0.45593999997E+02  0.45594000000E+02  0.51100000000E-03 0.  1.
    9900012    2    1    2    0    0  0.63805079120E+01 -0.38072077816E+02 -0.12766064501E+02  0.50528851050E+02  0.29999973253E+02 0.  0.
         12    1    1    2    0    0 -0.63805079120E+01  0.38072077816E+02  0.12766064501E+02  0.40659148950E+02  0.00000000000E+00 0. -1.
         11    1    3    3    0    0  0.99336741739E+01 -0.10381046243E+02 -0.94649544113E+01  0.17205503944E+02  0.51100000000E-03 0. -1.
        -11    1    3    3    0    0  0.51242777373E+01 -0.18859990260E+02 -0.63920773708E+01  0.20562492755E+02  0.51100000000E-03 0.  1.
        -12    1    3    3    0    0 -0.86774439992E+01 -0.88310413133E+01  0.30909672814E+01  0.12760854351E+02  0.00000000000E+00 0.  1.
</event>
<event>
 7    1  0.2575978E-011  0.5052887E+02  0.7816164E-02  0.1300439E+00
        -11   -1    0    0    0    0  0.00000000000E+00  0.00000000000E+00  0.45593999997E+02  0.45594000000E+02  0.51100000000E-03 0.  1.
         11   -1    0    0    0    0 -0.00000000000E+00 -0.00000000000E+00 -0.45593999997E+02  0.45594000000E+02  0.51100000000E-03 0. -1.
    9900012    2    1    2    0    0  0.37906964632E+02  0.14108360419E+02  0.41450468484E+01  0.50528865544E+02  0.30000017307E+02 0.  0.
         12    1    1    2    0    0 -0.37906964632E+02 -0.14108360419E+02 -0.41450468484E+01  0.40659134456E+02  0.00000000000E+00 0. -1.
         11    1    3    3    0    0  0.22819079628E+02 -0.12110329566E+01  0.53993564124E+00  0.22857570445E+02  0.51100000000E-03 0. -1.
        -11    1    3    3    0    0  0.11649507000E+02  0.16966881782E+02  0.77935551175E+01  0.22007398583E+02  0.51100000000E-03 0.  1.
         12    1    3    3    0    0  0.34383780041E+01 -0.16474884064E+01 -0.41884439104E+01  0.56638965155E+01  0.00000000000E+00 0. -1.
</event>
<event>
 7    1  0.2575978E-011  0.5052886E+02  0.7816164E-02  0.1300439E+00
        -11   -1    0    0    0    0  0.00000000000E+00  0.00000000000E+00  0.45593999997E+02  0.45594000000E+02  0.51100000000E-03 0.  1.
         11   -1    0    0    0    0 -0.00000000000E+00 -0.00000000000E+00 -0.45593999997E+02  0.45594000000E+02  0.51100000000E-03 0. -1.
    9900012    2    1    2    0    0  0.71819088519E+01 -0.29790810486E+02  0.26722523083E+02  0.50528862723E+02  0.30000008732E+02 0.  0.
         12    1    1    2    0    0 -0.71819088519E+01  0.29790810486E+02 -0.26722523083E+02  0.40659137277E+02  0.00000000000E+00 0. -1.
         11    1    3    3    0    0  0.91277828195E+00 -0.12507462316E+02  0.24686804756E+02  0.27689494525E+02  0.51100000000E-03 0. -1.
        -11    1    3    3    0    0  0.89972248281E+00 -0.52327307726E+01  0.69631329234E+01  0.87564942902E+01  0.51100000000E-03 0.  1.
        -12    1    3    3    0    0  0.53694080872E+01 -0.12050617398E+02 -0.49274145958E+01  0.14082873907E+02  0.00000000000E+00 0.  1.
</event>
<event>
 7    1  0.2575978E-011  0.5052886E+02  0.7816164E-02  0.1300439E+00
        -11   -1    0    0    0    0  0.00000000000E+00  0.00000000000E+00  0.45593999997E+02  0.45594000000E+02  0.51100000000E-03 0. -1.
         11   -1    0    0    0    0 -0.00000000000E+00 -0.00000000000E+00 -0.45593999997E+02  0.45594000000E+02  0.51100000000E-03 0.  1.
    9900012    2    1    2    0    0 -0.11185358179E+02 -0.41273072161E+01 -0.38871822953E+02  0.50528861764E+02  0.30000005817E+02 0.  0.
         12    1    1    2    0    0  0.11185358179E+02  0.41273072161E+01  0.38871822953E+02  0.40659138236E+02  0.00000000000E+00 0. -1.
         11    1    3    3    0    0 -0.11706390057E+02 -0.38589304483E+01 -0.24979862472E+02  0.27855420330E+02  0.51100000000E-03 0. -1.
        -11    1    3    3    0    0 -0.18262746030E+01 -0.75401032730E+01 -0.12781806067E+02  0.14952023371E+02  0.51100000000E-03 0.  1.
         12    1    3    3    0    0  0.23473064813E+01  0.72717265052E+01 -0.11101544140E+01  0.77214180632E+01  0.00000000000E+00 0. -1.
</event>
<event>
 7    1  0.2575978E-011  0.5052885E+02  0.7816164E-02  0.1300439E+00
        -11   -1    0    0    0    0  0.00000000000E+00  0.00000000000E+00  0.45593999997E+02  0.45594000000E+02  0.51100000000E-03 0. -1.
         11   -1    0    0    0    0 -0.00000000000E+00 -0.00000000000E+00 -0.45593999997E+02  0.45594000000E+02  0.51100000000E-03 0.  1.
    9900012    2    1    2    0    0  0.20447566388E+02  0.25870023330E+02 -0.23786662367E+02  0.50528851155E+02  0.29999973570E+02 0.  0.
         12    1    1    2    0    0 -0.20447566388E+02 -0.25870023330E+02  0.23786662367E+02  0.40659148845E+02  0.00000000000E+00 0. -1.
         11    1    3    3    0    0 -0.41860922615E+00  0.30529647579E+01 -0.91646372384E+00  0.32149235630E+01  0.51100000000E-03 0. -1.
        -11    1    3    3    0    0  0.18522234842E+02  0.29216597505E+02 -0.18698536080E+02  0.39323250185E+02  0.51100000000E-03 0.  1.
         12    1    3    3    0    0  0.23439407724E+01 -0.63995389324E+01 -0.41716625623E+01  0.79906774072E+01  0.00000000000E+00 0. -1.
</event>
<event>
 7    1  0.2575978E-011  0.5052886E+02  0.7816164E-02  0.1300439E+00
        -11   -1    0    0    0    0  0.00000000000E+00  0.00000000000E+00  0.45593999997E+02  0.45594000000E+02  0.51100000000E-03 0.  1.
         11   -1    0    0    0    0 -0.00000000000E+00 -0.00000000000E+00 -0.45593999997E+02  0.45594000000E+02  0.51100000000E-03 0. -1.
    9900012    2    1    2    0    0  0.25408052783E+02 -0.13054488527E+02  0.28934010981E+02  0.50528858244E+02  0.29999995118E+02 0.  0.
         12    1    1    2    0    0 -0.25408052783E+02  0.13054488527E+02 -0.28934010981E+02  0.40659141756E+02  0.00000000000E+00 0. -1.
         11    1    3    3    0    0  0.52237625060E+01  0.28202213555E+01  0.65437487763E+01  0.88352697481E+01  0.51100000000E-03 0. -1.
        -11    1    3    3    0    0  0.99210933837E+01  0.54972736845E+01  0.88872099227E+01  0.14409393199E+02  0.51100000000E-03 0.  1.
        -12    1    3    3    0    0  0.10263196893E+02 -0.21371983567E+02  0.13503052282E+02  0.27284195297E+02  0.00000000000E+00 0.  1.
</event>
<event>
 7    1  0.2575978E-011  0.5052886E+02  0.7816164E-02  0.1300439E+00
        -11   -1    0    0    0    0  0.00000000000E+00  0.00000000000E+00  0.45593999997E+02  0.45594000000E+02  0.51100000000E-03 0.  1.
         11   -1    0    0    0    0 -0.00000000000E+00 -0.00000000000E+00 -0.45593999997E+02  0.45594000000E+02  0.51100000000E-03 0. -1.
    9900012    2    1    2    0    0 -0.39970783438E+02  0.55727768562E+01 -0.49442957056E+01  0.50528862890E+02  0.30000009239E+02 0.  0.
         12    1    1    2    0    0  0.39970783438E+02 -0.55727768562E+01  0.49442957056E+01  0.40659137110E+02  0.00000000000E+00 0. -1.
         11    1    3    3    0    0 -0.29748548153E+02  0.30287663253E+01 -0.12825662881E+02  0.32536858657E+02  0.51100000000E-03 0. -1.
        -11    1    3    3    0    0 -0.85389333627E+01 -0.26263467674E+00 -0.92908429255E+00  0.85933438096E+01  0.51100000000E-03 0.  1.
        -12    1    3    3    0    0 -0.16833019223E+01  0.28066452076E+01  0.88104514677E+01  0.93986604230E+01  0.00000000000E+00 0.  1.
</event>
<event>
 7    1  0.2575978E-011  0.5052886E+02  0.7816164E-02  0.1300439E+00
        -11   -1    0    0    0    0  0.00000000000E+00  0.00000000000E+00  0.45593999997E+02  0.45594000000E+02  0.51100000000E-03 0.  1.
         11   -1    0    0    0    0 -0.00000000000E+00 -0.00000000000E+00 -0.45593999997E+02  0.45594000000E+02  0.51100000000E-03 0. -1.
    9900012    2    1    2    0    0 -0.41616095735E+01 -0.21182458250E+02  0.34455044860E+02  0.50528860215E+02  0.30000001110E+02 0.  0.
         12    1    1    2    0    0  0.41616095735E+01  0.21182458250E+02 -0.34455044860E+02  0.40659139785E+02  0.00000000000E+00 0. -1.
         11    1    3    3    0    0  0.57583391422E+01 -0.88334241867E-01  0.29503408420E+01  0.64707637849E+01  0.51100000000E-03 0. -1.
        -11    1    3    3    0    0  0.30037519585E-01 -0.19806338632E+02  0.15421461315E+02  0.25102060107E+02  0.51100000000E-03 0.  1.
         12    1    3    3    0    0 -0.99499862353E+01 -0.12877853763E+01  0.16083242703E+02  0.18956036323E+02  0.00000000000E+00 0. -1.
</event>
<event>
 7    1  0.2575978E-011  0.5052886E+02  0.7816164E-02  0.1300439E+00
        -11   -1    0    0    0    0  0.00000000000E+00  0.00000000000E+00  0.45593999997E+02  0.45594000000E+02  0.51100000000E-03 0.  1.
         11   -1    0    0    0    0 -0.00000000000E+00 -0.00000000000E+00 -0.45593999997E+02  0.45594000000E+02  0.51100000000E-03 0. -1.
    9900012    2    1    2    0    0 -0.30145280490E+01 -0.37002973265E+02  0.16578840124E+02  0.50528863884E+02  0.30000012262E+02 0.  0.
         12    1    1    2    0    0  0.30145280490E+01  0.37002973265E+02 -0.16578840124E+02  0.40659136116E+02  0.00000000000E+00 0. -1.
         11    1    3    3    0    0  0.48066523414E+01 -0.39809372784E+01  0.85883910876E+01  0.10616601626E+02  0.51100000000E-03 0. -1.
        -11    1    3    3    0    0 -0.12519729084E+02 -0.16915287149E+02  0.94539249455E+01  0.23070484451E+02  0.51100000000E-03 0.  1.
         12    1    3    3    0    0  0.46985486940E+01 -0.16106748838E+02 -0.14634759096E+01  0.16841777807E+02  0.00000000000E+00 0. -1.
</event>
<event>
 7    1  0.2575978E-011  0.5052886E+02  0.7816164E-02  0.1300439E+00
        -11   -1    0    0    0    0  0.00000000000E+00  0.00000000000E+00  0.45593999997E+02  0.45594000000E+02  0.51100000000E-03 0.  1.
         11   -1    0    0    0    0 -0.00000000000E+00 -0.00000000000E+00 -0.45593999997E+02  0.45594000000E+02  0.51100000000E-03 0. -1.
    9900012    2    1    2    0    0 -0.17845777504E+02  0.34734855501E+02  0.11321828973E+02  0.50528858682E+02  0.29999996450E+02 0.  0.
         12    1    1    2    0    0  0.17845777504E+02 -0.34734855501E+02 -0.11321828973E+02  0.40659141318E+02  0.00000000000E+00 0. -1.
         11    1    3    3    0    0 -0.71437028254E+00  0.15379023051E+02  0.97284235655E+01  0.18211724252E+02  0.51100000000E-03 0. -1.
        -11    1    3    3    0    0  0.38213257297E+01  0.69270085579E+01  0.14618330418E+00  0.79124805031E+01  0.51100000000E-03 0.  1.
         12    1    3    3    0    0 -0.20952732951E+02  0.12428823893E+02  0.14472221036E+01  0.24404653927E+02  0.00000000000E+00 0. -1.
</event>
<event>
 7    1  0.2575978E-011  0.5052884E+02  0.7816164E-02  0.1300439E+00
        -11   -1    0    0    0    0  0.00000000000E+00  0.00000000000E+00  0.45593999997E+02  0.45594000000E+02  0.51100000000E-03 0.  1.
         11   -1    0    0    0    0 -0.00000000000E+00 -0.00000000000E+00 -0.45593999997E+02  0.45594000000E+02  0.51100000000E-03 0. -1.
    9900012    2    1    2    0    0 -0.63784392056E+01 -0.38093305105E+02 -0.12703643053E+02  0.50528844484E+02  0.29999953292E+02 0.  0.
         12    1    1    2    0    0  0.63784392056E+01  0.38093305105E+02  0.12703643053E+02  0.40659155516E+02  0.00000000000E+00 0. -1.
         11    1    3    3    0    0 -0.58679299121E+01 -0.93612323450E+00  0.10172004840E+01  0.60285674292E+01  0.51100000000E-03 0. -1.
        -11    1    3    3    0    0 -0.10188483590E+02 -0.14976777196E+02 -0.65259367732E+01  0.19253490698E+02  0.51100000000E-03 0.  1.
         12    1    3    3    0    0  0.96779742960E+01 -0.22180404674E+02 -0.71949067637E+01  0.25246786357E+02  0.00000000000E+00 0. -1.
</event>
<event>
 7    1  0.2575978E-011  0.5052887E+02  0.7816164E-02  0.1300439E+00
        -11   -1    0    0    0    0  0.00000000000E+00  0.00000000000E+00  0.45593999997E+02  0.45594000000E+02  0.51100000000E-03 0.  1.
         11   -1    0    0    0    0 -0.00000000000E+00 -0.00000000000E+00 -0.45593999997E+02  0.45594000000E+02  0.51100000000E-03 0. -1.
    9900012    2    1    2    0    0 -0.25727998281E+02 -0.16785914360E+02  0.26635837817E+02  0.50528872210E+02  0.30000037568E+02 0.  0.
         12    1    1    2    0    0  0.25727998281E+02  0.16785914360E+02 -0.26635837817E+02  0.40659127790E+02  0.00000000000E+00 0. -1.
         11    1    3    3    0    0 -0.12638516359E+02 -0.12234628293E+02  0.30516263681E+01  0.17853029126E+02  0.51100000000E-03 0.  1.
        -11    1    3    3    0    0 -0.29868193741E+01 -0.74641871462E+00 -0.28043805468E+01  0.41644665185E+01  0.51100000000E-03 0. -1.
         12    1    3    3    0    0 -0.10102662548E+02 -0.38048673530E+01  0.26388591995E+02  0.28511376565E+02  0.00000000000E+00 0. -1.
</event>
<event>
 7    1  0.2575978E-011  0.5052888E+02  0.7816164E-02  0.1300439E+00
        -11   -1    0    0    0    0  0.00000000000E+00  0.00000000000E+00  0.45593999997E+02  0.45594000000E+02  0.51100000000E-03 0.  1.
         11   -1    0    0    0    0 -0.00000000000E+00 -0.00000000000E+00 -0.45593999997E+02  0.45594000000E+02  0.51100000000E-03 0. -1.
    9900012    2    1    2    0    0  0.22160644431E+02  0.15890859125E+02  0.30158752143E+02  0.50528881759E+02  0.30000066595E+02 0.  0.
         12    1    1    2    0    0 -0.22160644431E+02 -0.15890859125E+02 -0.30158752143E+02  0.40659118241E+02  0.00000000000E+00 0. -1.
         11    1    3    3    0    0  0.35800768329E+00  0.32835640284E+01 -0.86509541730E+00  0.34144329795E+01  0.51100000000E-03 0. -1.
        -11    1    3    3    0    0 -0.45588772619E+01  0.69339158288E+01  0.52937572434E+01  0.98430897904E+01  0.51100000000E-03 0.  1.
        -12    1    3    3    0    0  0.26361514010E+02  0.56733792677E+01  0.25730090317E+02  0.37271358989E+02  0.00000000000E+00 0.  1.
</event>
<event>
 7    1  0.2575978E-011  0.5052886E+02  0.7816164E-02  0.1300439E+00
        -11   -1    0    0    0    0  0.00000000000E+00  0.00000000000E+00  0.45593999997E+02  0.45594000000E+02  0.51100000000E-03 0. -1.
         11   -1    0    0    0    0 -0.00000000000E+00 -0.00000000000E+00 -0.45593999997E+02  0.45594000000E+02  0.51100000000E-03 0.  1.
    9900012    2    1    2    0    0 -0.40114649070E+02 -0.53916204498E+01 -0.38615120488E+01  0.50528856915E+02  0.29999991079E+02 0.  0.
         12    1    1    2    0    0  0.40114649070E+02  0.53916204498E+01  0.38615120488E+01  0.40659143085E+02  0.00000000000E+00 0. -1.
         11    1    3    3    0    0 -0.11106801567E+02  0.53017198979E+01  0.19801653981E+01  0.12465565779E+02  0.51100000000E-03 0. -1.
        -11    1    3    3    0    0 -0.61742768585E+01  0.61798540511E+01  0.11836728326E+01  0.88155188421E+01  0.51100000000E-03 0.  1.
        -12    1    3    3    0    0 -0.22833570645E+02 -0.16873194399E+02 -0.70253502795E+01  0.29247772294E+02  0.00000000000E+00 0.  1.
</event>
<event>
 7    1  0.2575978E-011  0.5052886E+02  0.7816164E-02  0.1300439E+00
        -11   -1    0    0    0    0  0.00000000000E+00  0.00000000000E+00  0.45593999997E+02  0.45594000000E+02  0.51100000000E-03 0. -1.
         11   -1    0    0    0    0 -0.00000000000E+00 -0.00000000000E+00 -0.45593999997E+02  0.45594000000E+02  0.51100000000E-03 0.  1.
    9900012    2    1    2    0    0 -0.93466693748E+01 -0.25368207760E+02 -0.30368722172E+02  0.50528862285E+02  0.30000007401E+02 0.  0.
         12    1    1    2    0    0  0.93466693748E+01  0.25368207760E+02  0.30368722172E+02  0.40659137715E+02  0.00000000000E+00 0. -1.
         11    1    3    3    0    0  0.32529694095E+01 -0.53598319124E+00 -0.60450256420E+01  0.68855953435E+01  0.51100000000E-03 0.  1.
        -11    1    3    3    0    0  0.42450063036E+01 -0.90771892756E+01  0.13944224640E+00  0.10021720814E+02  0.51100000000E-03 0. -1.
        -12    1    3    3    0    0 -0.16844645088E+02 -0.15755035293E+02 -0.24463138777E+02  0.33621546128E+02  0.00000000000E+00 0.  1.
</event>
<event>
 7    1  0.2575978E-011  0.5052886E+02  0.7816164E-02  0.1300439E+00
        -11   -1    0    0    0    0  0.00000000000E+00  0.00000000000E+00  0.45593999997E+02  0.45594000000E+02  0.51100000000E-03 0. -1.
         11   -1    0    0    0    0 -0.00000000000E+00 -0.00000000000E+00 -0.45593999997E+02  0.45594000000E+02  0.51100000000E-03 0.  1.
    9900012    2    1    2    0    0  0.39944750314E+02 -0.70345494832E+01  0.28456916314E+01  0.50528856810E+02  0.29999990760E+02 0.  0.
         12    1    1    2    0    0 -0.39944750314E+02  0.70345494832E+01 -0.28456916314E+01  0.40659143190E+02  0.00000000000E+00 0. -1.
         11    1    3    3    0    0  0.96822224865E+00  0.48848370455E+01  0.55837955669E+01  0.74818353683E+01  0.51100000000E-03 0.  1.
        -11    1    3    3    0    0  0.63264455272E+01 -0.44408357412E+01  0.42636240580E+01  0.88274246220E+01  0.51100000000E-03 0. -1.
        -12    1    3    3    0    0  0.32650082538E+02 -0.74785507875E+01 -0.70017279935E+01  0.34219596820E+02  0.00000000000E+00 0.  1.
</event>
<event>
 7    1  0.2575978E-011  0.5052886E+02  0.7816164E-02  0.1300439E+00
        -11   -1    0    0    0    0  0.00000000000E+00  0.00000000000E+00  0.45593999997E+02  0.45594000000E+02  0.51100000000E-03 0.  1.
         11   -1    0    0    0    0 -0.00000000000E+00 -0.00000000000E+00 -0.45593999997E+02  0.45594000000E+02  0.51100000000E-03 0. -1.
    9900012    2    1    2    0    0  0.63757941358E+01 -0.40021972077E+02 -0.32796757566E+01  0.50528864829E+02  0.30000015134E+02 0.  0.
         12    1    1    2    0    0 -0.63757941358E+01  0.40021972077E+02  0.32796757566E+01  0.40659135171E+02  0.00000000000E+00 0. -1.
         11    1    3    3    0    0 -0.48212966688E+01 -0.11030866160E+02  0.92789486826E+01  0.15199467054E+02  0.51100000000E-03 0. -1.
        -11    1    3    3    0    0 -0.72485856979E+00  0.57623486058E+00 -0.11333133764E+01  0.14635115411E+01  0.51100000000E-03 0.  1.
        -12    1    3    3    0    0  0.11921949374E+02 -0.29567340778E+02 -0.11425311063E+02  0.33865886234E+02  0.00000000000E+00 0.  1.
</event>
<event>
 7    1  0.2575978E-011  0.5052886E+02  0.7816164E-02  0.1300439E+00
        -11   -1    0    0    0    0  0.00000000000E+00  0.00000000000E+00  0.45593999997E+02  0.45594000000E+02  0.51100000000E-03 0. -1.
         11   -1    0    0    0    0 -0.00000000000E+00 -0.00000000000E+00 -0.45593999997E+02  0.45594000000E+02  0.51100000000E-03 0.  1.
    9900012    2    1    2    0    0  0.38119352764E+02  0.14143660176E+02 -0.19293162673E+00  0.50528863254E+02  0.30000010346E+02 0.  0.
         12    1    1    2    0    0 -0.38119352764E+02 -0.14143660176E+02  0.19293162673E+00  0.40659136746E+02  0.00000000000E+00 0. -1.
         11    1    3    3    0    0  0.72672076392E+00  0.11571969027E+01 -0.32233386725E+01  0.35010198798E+01  0.51100000000E-03 0. -1.
        -11    1    3    3    0    0  0.21141208113E+01 -0.63549069730E+01  0.47637026733E+00  0.67142593287E+01  0.51100000000E-03 0.  1.
        -12    1    3    3    0    0  0.35278511189E+02  0.19341370246E+02  0.25540367784E+01  0.40313584045E+02  0.00000000000E+00 0.  1.
</event>
<event>
 7    1  0.2575978E-011  0.5052886E+02  0.7816164E-02  0.1300439E+00
        -11   -1    0    0    0    0  0.00000000000E+00  0.00000000000E+00  0.45593999997E+02  0.45594000000E+02  0.51100000000E-03 0.  1.
         11   -1    0    0    0    0 -0.00000000000E+00 -0.00000000000E+00 -0.45593999997E+02  0.45594000000E+02  0.51100000000E-03 0. -1.
    9900012    2    1    2    0    0  0.75573919276E+01  0.34104181010E+02  0.20807606994E+02  0.50528857807E+02  0.29999993789E+02 0.  0.
         12    1    1    2    0    0 -0.75573919276E+01 -0.34104181010E+02 -0.20807606994E+02  0.40659142193E+02  0.00000000000E+00 0. -1.
         11    1    3    3    0    0 -0.39653204779E+00  0.10273867892E-01 -0.25568502301E+00  0.47193040737E+00  0.51100000000E-03 0. -1.
        -11    1    3    3    0    0  0.29869624092E+01  0.38483449814E+02  0.19505583946E+02  0.43247724326E+02  0.51100000000E-03 0.  1.
        -12    1    3    3    0    0  0.49669615661E+01 -0.43895426718E+01  0.15577080702E+01  0.68092030737E+01  0.00000000000E+00 0.  1.
</event>
<event>
 7    1  0.2575978E-011  0.5052888E+02  0.7816164E-02  0.1300439E+00
        -11   -1    0    0    0    0  0.00000000000E+00  0.00000000000E+00  0.45593999997E+02  0.45594000000E+02  0.51100000000E-03 0.  1.
         11   -1    0    0    0    0 -0.00000000000E+00 -0.00000000000E+00 -0.45593999997E+02  0.45594000000E+02  0.51100000000E-03 0. -1.
    9900012    2    1    2    0    0 -0.22742512313E+01  0.21202100474E+02  0.34618822856E+02  0.50528878279E+02  0.30000056018E+02 0.  0.
         12    1    1    2    0    0  0.22742512313E+01 -0.21202100474E+02 -0.34618822856E+02  0.40659121721E+02  0.00000000000E+00 0. -1.
         11    1    3    3    0    0 -0.13917892130E+01 -0.42943517176E+01  0.69757559331E+01  0.83090134785E+01  0.51100000000E-03 0. -1.
        -11    1    3    3    0    0  0.77564525903E+01  0.11635662517E+02  0.62816568276E+01  0.15330049307E+02  0.51100000000E-03 0.  1.
         12    1    3    3    0    0 -0.86389146087E+01  0.13860789674E+02  0.21361410095E+02  0.26889815493E+02  0.00000000000E+00 0. -1.
</event>
<event>
 7    1  0.2575978E-011  0.5052886E+02  0.7816164E-02  0.1300439E+00
        -11   -1    0    0    0    0  0.00000000000E+00  0.00000000000E+00  0.45593999997E+02  0.45594000000E+02  0.51100000000E-03 0. -1.
         11   -1    0    0    0    0 -0.00000000000E+00 -0.00000000000E+00 -0.45593999997E+02  0.45594000000E+02  0.51100000000E-03 0.  1.
    9900012    2    1    2    0    0  0.18117688395E+02  0.36399040602E+02 -0.15763405806E+00  0.50528860338E+02  0.30000001485E+02 0.  0.
         12    1    1    2    0    0 -0.18117688395E+02 -0.36399040602E+02  0.15763405806E+00  0.40659139662E+02  0.00000000000E+00 0. -1.
         11    1    3    3    0    0  0.59944000903E+01  0.33147668596E+01  0.21592174938E+00  0.68532571993E+01  0.51100000000E-03 0. -1.
        -11    1    3    3    0    0  0.14847536735E+02  0.78312157019E+01 -0.56923191802E+01  0.17725117330E+02  0.51100000000E-03 0.  1.
        -12    1    3    3    0    0 -0.27242484302E+01  0.25253058041E+02  0.53187633727E+01  0.25950485809E+02  0.00000000000E+00 0.  1.
</event>
<event>
 7    1  0.2575978E-011  0.5052885E+02  0.7816164E-02  0.1300439E+00
        -11   -1    0    0    0    0  0.00000000000E+00  0.00000000000E+00  0.45593999997E+02  0.45594000000E+02  0.51100000000E-03 0.  1.
         11   -1    0    0    0    0 -0.00000000000E+00 -0.00000000000E+00 -0.45593999997E+02  0.45594000000E+02  0.51100000000E-03 0. -1.
    9900012    2    1    2    0    0  0.14529572507E+02  0.25601418899E+02  0.28046836682E+02  0.50528853738E+02  0.29999981422E+02 0.  0.
         12    1    1    2    0    0 -0.14529572507E+02 -0.25601418899E+02 -0.28046836682E+02  0.40659146262E+02  0.00000000000E+00 0. -1.
         11    1    3    3    0    0  0.80153849503E+01 -0.23807740405E+01  0.47890876122E+01  0.96358622526E+01  0.51100000000E-03 0. -1.
        -11    1    3    3    0    0  0.89094757772E+01  0.65201172046E+01  0.33910806727E+01  0.11549463857E+02  0.51100000000E-03 0.  1.
        -12    1    3    3    0    0 -0.23952882203E+01  0.21462075735E+02  0.19866668397E+02  0.29343527629E+02  0.00000000000E+00 0.  1.
</event>
<event>
 7    1  0.2575978E-011  0.5052884E+02  0.7816164E-02  0.1300439E+00
        -11   -1    0    0    0    0  0.00000000000E+00  0.00000000000E+00  0.45593999997E+02  0.45594000000E+02  0.51100000000E-03 0. -1.
         11   -1    0    0    0    0 -0.00000000000E+00 -0.00000000000E+00 -0.45593999997E+02  0.45594000000E+02  0.51100000000E-03 0.  1.
    9900012    2    1    2    0    0  0.10058611474E+02  0.37051333593E+02  0.13386198922E+02  0.50528839809E+02  0.29999939084E+02 0.  0.
         12    1    1    2    0    0 -0.10058611474E+02 -0.37051333593E+02 -0.13386198922E+02  0.40659160191E+02  0.00000000000E+00 0. -1.
         11    1    3    3    0    0  0.17875438961E+01  0.26130285598E+00 -0.11278973603E+01  0.21297288747E+01  0.51100000000E-03 0. -1.
        -11    1    3    3    0    0  0.14791058103E+02  0.83326013272E+01  0.52844520431E+01  0.17780131561E+02  0.51100000000E-03 0.  1.
        -12    1    3    3    0    0 -0.65199905246E+01  0.28457429410E+02  0.92296442390E+01  0.30618979373E+02  0.00000000000E+00 0.  1.
</event>
<event>
 7    1  0.2575978E-011  0.5052886E+02  0.7816164E-02  0.1300439E+00
        -11   -1    0    0    0    0  0.00000000000E+00  0.00000000000E+00  0.45593999997E+02  0.45594000000E+02  0.51100000000E-03 0.  1.
         11   -1    0    0    0    0 -0.00000000000E+00 -0.00000000000E+00 -0.45593999997E+02  0.45594000000E+02  0.51100000000E-03 0. -1.
    9900012    2    1    2    0    0 -0.28091225768E+02  0.24518828663E+02 -0.16213440398E+02  0.50528861130E+02  0.30000003890E+02 0.  0.
         12    1    1    2    0    0  0.28091225768E+02 -0.24518828663E+02  0.16213440398E+02  0.40659138870E+02  0.00000000000E+00 0. -1.
         11    1    3    3    0    0 -0.11248375814E+02  0.21940997577E+02 -0.99282866734E+01  0.26580146908E+02  0.51100000000E-03 0.  1.
        -11    1    3    3    0    0 -0.67680576092E+01  0.75394407209E+01 -0.75669990198E+01  0.12645522710E+02  0.51100000000E-03 0. -1.
         12    1    3    3    0    0 -0.10074792346E+02 -0.49616096357E+01  0.12818452957E+01  0.11303191511E+02  0.00000000000E+00 0. -1.
</event>
<event>
 7    1  0.2575978E-011  0.5052889E+02  0.7816164E-02  0.1300439E+00
        -11   -1    0    0    0    0  0.00000000000E+00  0.00000000000E+00  0.45593999997E+02  0.45594000000E+02  0.51100000000E-03 0. -1.
         11   -1    0    0    0    0 -0.00000000000E+00 -0.00000000000E+00 -0.45593999997E+02  0.45594000000E+02  0.51100000000E-03 0.  1.
    9900012    2    1    2    0    0  0.38804667594E+01 -0.26891717094E+02 -0.30247988669E+02  0.50528889225E+02  0.30000089288E+02 0.  0.
         12    1    1    2    0    0 -0.38804667594E+01  0.26891717094E+02  0.30247988669E+02  0.40659110775E+02  0.00000000000E+00 0. -1.
         11    1    3    3    0    0 -0.34437882486E+01  0.22648861944E+01  0.79643634347E+00  0.41980588473E+01  0.51100000000E-03 0. -1.
        -11    1    3    3    0    0  0.89273059613E+01 -0.94264634718E+01 -0.19465540659E+02  0.23397911846E+02  0.51100000000E-03 0.  1.
         12    1    3    3    0    0 -0.16030509532E+01 -0.19730139816E+02 -0.11578884353E+02  0.22932918532E+02  0.00000000000E+00 0. -1.
</event>
<event>
 7    1  0.2575978E-011  0.5052888E+02  0.7816164E-02  0.1300439E+00
        -11   -1    0    0    0    0  0.00000000000E+00  0.00000000000E+00  0.45593999997E+02  0.45594000000E+02  0.51100000000E-03 0.  1.
         11   -1    0    0    0    0 -0.00000000000E+00 -0.00000000000E+00 -0.45593999997E+02  0.45594000000E+02  0.51100000000E-03 0. -1.
    9900012    2    1    2    0    0  0.48255639735E+01  0.98121670612E+01  0.39161195236E+02  0.50528881681E+02  0.30000066359E+02 0.  0.
         12    1    1    2    0    0 -0.48255639735E+01 -0.98121670612E+01 -0.39161195236E+02  0.40659118319E+02  0.00000000000E+00 0. -1.
         11    1    3    3    0    0  0.50396980270E+01  0.16934304779E+01  0.25379790126E+01  0.58913157033E+01  0.51100000000E-03 0. -1.
        -11    1    3    3    0    0  0.14107934255E+01 -0.71416826594E+01  0.22972263145E+02  0.24098108713E+02  0.51100000000E-03 0.  1.
         12    1    3    3    0    0 -0.16249274790E+01  0.15260419243E+02  0.13650953079E+02  0.20539457265E+02  0.00000000000E+00 0. -1.
</event>
<event>
 7    1  0.2575978E-011  0.5052890E+02  0.7816164E-02  0.1300439E+00
        -11   -1    0    0    0    0  0.00000000000E+00  0.00000000000E+00  0.45593999997E+02  0.45594000000E+02  0.51100000000E-03 0.  1.
         11   -1    0    0    0    0 -0.00000000000E+00 -0.00000000000E+00 -0.45593999997E+02  0.45594000000E+02  0.51100000000E-03 0. -1.
    9900012    2    1    2    0    0 -0.25276099874E+02  0.23082167642E+02  0.21942993903E+02  0.50528896846E+02  0.30000112453E+02 0.  0.
         12    1    1    2    0    0  0.25276099874E+02 -0.23082167642E+02 -0.21942993903E+02  0.40659103154E+02  0.00000000000E+00 0. -1.
         11    1    3    3    0    0 -0.11888915262E+02  0.71316156842E+01  0.62871999430E+00  0.13878095599E+02  0.51100000000E-03 0. -1.
        -11    1    3    3    0    0 -0.40806424757E+01 -0.32220032325E+01 -0.15192213453E+01  0.54167316347E+01  0.51100000000E-03 0.  1.
        -12    1    3    3    0    0 -0.93065421365E+01  0.19172555190E+02  0.22833495254E+02  0.31234069612E+02  0.00000000000E+00 0.  1.
</event>
<event>
 7    1  0.2575978E-011  0.5052887E+02  0.7816164E-02  0.1300439E+00
        -11   -1    0    0    0    0  0.00000000000E+00  0.00000000000E+00  0.45593999997E+02  0.45594000000E+02  0.51100000000E-03 0.  1.
         11   -1    0    0    0    0 -0.00000000000E+00 -0.00000000000E+00 -0.45593999997E+02  0.45594000000E+02  0.51100000000E-03 0. -1.
    9900012    2    1    2    0    0 -0.33155074856E+02 -0.19826990036E+02  0.12680560927E+02  0.50528866364E+02  0.30000019800E+02 0.  0.
         12    1    1    2    0    0  0.33155074856E+02  0.19826990036E+02 -0.12680560927E+02  0.40659133636E+02  0.00000000000E+00 0. -1.
         11    1    3    3    0    0 -0.14337656360E+02 -0.61871770170E+01  0.97841129024E+01  0.18427653537E+02  0.51100000000E-03 0.  1.
        -11    1    3    3    0    0 -0.10529537504E+02  0.47930186683E+01 -0.62674252222E+00  0.11586068982E+02  0.51100000000E-03 0. -1.
        -12    1    3    3    0    0 -0.82878809919E+01 -0.18432831687E+02  0.35231905471E+01  0.20515143845E+02  0.00000000000E+00 0.  1.
</event>
<event>
 7    1  0.2575978E-011  0.5052888E+02  0.7816164E-02  0.1300439E+00
        -11   -1    0    0    0    0  0.00000000000E+00  0.00000000000E+00  0.45593999997E+02  0.45594000000E+02  0.51100000000E-03 0.  1.
         11   -1    0    0    0    0 -0.00000000000E+00 -0.00000000000E+00 -0.45593999997E+02  0.45594000000E+02  0.51100000000E-03 0. -1.
    9900012    2    1    2    0    0  0.84241822843E+01  0.37292988653E+02 -0.13835843445E+02  0.50528875395E+02  0.30000047249E+02 0.  0.
         12    1    1    2    0    0 -0.84241822843E+01 -0.37292988653E+02  0.13835843445E+02  0.40659124605E+02  0.00000000000E+00 0. -1.
         11    1    3    3    0    0 -0.74288385682E+01  0.62649768127E+01 -0.67642453942E+00  0.97414130061E+01  0.51100000000E-03 0. -1.
        -11    1    3    3    0    0 -0.21072112102E+01  0.10477497791E+01  0.16048367377E+01  0.28484416617E+01  0.51100000000E-03 0.  1.
        -12    1    3    3    0    0  0.17960232063E+02  0.29980262061E+02 -0.14764255643E+02  0.37939020727E+02  0.00000000000E+00 0.  1.
</event>
<event>
 7    1  0.2575978E-011  0.5052886E+02  0.7816164E-02  0.1300439E+00
        -11   -1    0    0    0    0  0.00000000000E+00  0.00000000000E+00  0.45593999997E+02  0.45594000000E+02  0.51100000000E-03 0. -1.
         11   -1    0    0    0    0 -0.00000000000E+00 -0.00000000000E+00 -0.45593999997E+02  0.45594000000E+02  0.51100000000E-03 0.  1.
    9900012    2    1    2    0    0  0.17434497730E+02 -0.35550541662E+02 -0.92392165778E+01  0.50528857774E+02  0.29999993691E+02 0.  0.
         12    1    1    2    0    0 -0.17434497730E+02  0.35550541662E+02  0.92392165778E+01  0.40659142226E+02  0.00000000000E+00 0. -1.
         11    1    3    3    0    0  0.44864787382E-01 -0.27785430063E+00  0.34827631216E+01  0.34941172109E+01  0.51100000000E-03 0. -1.
        -11    1    3    3    0    0 -0.10272656665E+01  0.19635010549E+01  0.19764501957E+01  0.29693377678E+01  0.51100000000E-03 0.  1.
        -12    1    3    3    0    0  0.18416898609E+02 -0.37236188416E+02 -0.14698429895E+02  0.44065402796E+02  0.00000000000E+00 0.  1.
</event>
<event>
 7    1  0.2575978E-011  0.5052886E+02  0.7816164E-02  0.1300439E+00
        -11   -1    0    0    0    0  0.00000000000E+00  0.00000000000E+00  0.45593999997E+02  0.45594000000E+02  0.51100000000E-03 0.  1.
         11   -1    0    0    0    0 -0.00000000000E+00 -0.00000000000E+00 -0.45593999997E+02  0.45594000000E+02  0.51100000000E-03 0. -1.
    9900012    2    1    2    0    0 -0.34222650495E+02  0.10609467027E+02  0.19220164148E+02  0.50528864404E+02  0.30000013843E+02 0.  0.
         12    1    1    2    0    0  0.34222650495E+02 -0.10609467027E+02 -0.19220164148E+02  0.40659135596E+02  0.00000000000E+00 0. -1.
         11    1    3    3    0    0 -0.23820224761E+02  0.87944228118E+01  0.43479762078E+01  0.25761402866E+02  0.51100000000E-03 0. -1.
        -11    1    3    3    0    0  0.91138595275E+00  0.38107713962E+01 -0.19656835622E+01  0.43836645762E+01  0.51100000000E-03 0.  1.
         12    1    3    3    0    0 -0.11313811687E+02 -0.19957271808E+01  0.16837871502E+02  0.20383796962E+02  0.00000000000E+00 0. -1.
</event>
<event>
 7    1  0.2575978E-011  0.5052886E+02  0.7816164E-02  0.1300439E+00
        -11   -1    0    0    0    0  0.00000000000E+00  0.00000000000E+00  0.45593999997E+02  0.45594000000E+02  0.51100000000E-03 0.  1.
         11   -1    0    0    0    0 -0.00000000000E+00 -0.00000000000E+00 -0.45593999997E+02  0.45594000000E+02  0.51100000000E-03 0. -1.
    9900012    2    1    2    0    0 -0.38550723068E+02 -0.10138175507E+02  0.80140473901E+01  0.50528858258E+02  0.29999995160E+02 0.  0.
         12    1    1    2    0    0  0.38550723068E+02  0.10138175507E+02 -0.80140473901E+01  0.40659141742E+02  0.00000000000E+00 0. -1.
         11    1    3    3    0    0 -0.15307591371E+02 -0.44530887295E+01 -0.73280651379E+01  0.17545737139E+02  0.51100000000E-03 0. -1.
        -11    1    3    3    0    0 -0.59510897388E+01 -0.49782326570E+01 -0.24754069752E+01  0.81440720417E+01  0.51100000000E-03 0.  1.
        -12    1    3    3    0    0 -0.17292041958E+02 -0.70685412082E+00  0.17817519503E+02  0.24839049077E+02  0.00000000000E+00 0.  1.
</event>
<event>
 7    1  0.2575978E-011  0.5052886E+02  0.7816164E-02  0.1300439E+00
        -11   -1    0    0    0    0  0.00000000000E+00  0.00000000000E+00  0.45593999997E+02  0.45594000000E+02  0.51100000000E-03 0. -1.
         11   -1    0    0    0    0 -0.00000000000E+00 -0.00000000000E+00 -0.45593999997E+02  0.45594000000E+02  0.51100000000E-03 0.  1.
    9900012    2    1    2    0    0  0.27544428682E+02  0.26773936893E+01 -0.29787613911E+02  0.50528856737E+02  0.29999990537E+02 0.  0.
         12    1    1    2    0    0 -0.27544428682E+02 -0.26773936893E+01  0.29787613911E+02  0.40659143263E+02  0.00000000000E+00 0. -1.
         11    1    3    3    0    0  0.23172310180E+02  0.46053646172E+01 -0.25703829435E+02  0.34912063677E+02  0.51100000000E-03 0. -1.
        -11    1    3    3    0    0  0.28781675639E+01 -0.17460656266E+01 -0.94562084611E+01  0.10037553109E+02  0.51100000000E-03 0.  1.
         12    1    3    3    0    0  0.14939509384E+01 -0.18190530136E+00  0.53724239851E+01  0.55792399501E+01  0.00000000000E+00 0. -1.
</event>
<event>
 7    1  0.2575978E-011  0.5052886E+02  0.7816164E-02  0.1300439E+00
        -11   -1    0    0    0    0  0.00000000000E+00  0.00000000000E+00  0.45593999997E+02  0.45594000000E+02  0.51100000000E-03 0.  1.
         11   -1    0    0    0    0 -0.00000000000E+00 -0.00000000000E+00 -0.45593999997E+02  0.45594000000E+02  0.51100000000E-03 0. -1.
    9900012    2    1    2    0    0  0.16947668643E+02 -0.79510242679E+01  0.36093262909E+02  0.50528857279E+02  0.29999992186E+02 0.  0.
         12    1    1    2    0    0 -0.16947668643E+02  0.79510242679E+01 -0.36093262909E+02  0.40659142721E+02  0.00000000000E+00 0. -1.
         11    1    3    3    0    0  0.27359243000E+01  0.19642669886E+01  0.34423745950E+01  0.48159702751E+01  0.51100000000E-03 0. -1.
        -11    1    3    3    0    0  0.39977457010E+01  0.91902142036E+01  0.13384289747E+02  0.16720682405E+02  0.51100000000E-03 0.  1.
         12    1    3    3    0    0  0.10213998643E+02 -0.19105505460E+02  0.19266598568E+02  0.28992204599E+02  0.00000000000E+00 0. -1.
</event>
<event>
 7    1  0.2575978E-011  0.5052887E+02  0.7816164E-02  0.1300439E+00
        -11   -1    0    0    0    0  0.00000000000E+00  0.00000000000E+00  0.45593999997E+02  0.45594000000E+02  0.51100000000E-03 0.  1.
         11   -1    0    0    0    0 -0.00000000000E+00 -0.00000000000E+00 -0.45593999997E+02  0.45594000000E+02  0.51100000000E-03 0. -1.
    9900012    2    1    2    0    0  0.21257439301E+02 -0.31236965364E+02  0.15017923372E+02  0.50528871219E+02  0.30000034558E+02 0.  0.
         12    1    1    2    0    0 -0.21257439301E+02  0.31236965364E+02 -0.15017923372E+02  0.40659128781E+02  0.00000000000E+00 0. -1.
         11    1    3    3    0    0  0.79694443474E+01 -0.20037237446E+01  0.10342716854E+01  0.82823106819E+01  0.51100000000E-03 0.  1.
        -11    1    3    3    0    0  0.10537194956E+02 -0.51666816495E-01  0.31583876351E+01  0.11000479976E+02  0.51100000000E-03 0. -1.
         12    1    3    3    0    0  0.27507999977E+01 -0.29181574803E+02  0.10825264052E+02  0.31246080561E+02  0.00000000000E+00 0. -1.
</event>
<event>
 7    1  0.2575978E-011  0.5052887E+02  0.7816164E-02  0.1300439E+00
        -11   -1    0    0    0    0  0.00000000000E+00  0.00000000000E+00  0.45593999997E+02  0.45594000000E+02  0.51100000000E-03 0.  1.
         11   -1    0    0    0    0 -0.00000000000E+00 -0.00000000000E+00 -0.45593999997E+02  0.45594000000E+02  0.51100000000E-03 0. -1.
    9900012    2    1    2    0    0 -0.18001250940E+02 -0.23399890420E+02  0.27956486967E+02  0.50528867316E+02  0.30000022694E+02 0.  0.
         12    1    1    2    0    0  0.18001250940E+02  0.23399890420E+02 -0.27956486967E+02  0.40659132684E+02  0.00000000000E+00 0. -1.
         11    1    3    3    0    0 -0.67673525273E+01 -0.37637607210E+01 -0.22057617688E+01  0.80516048236E+01  0.51100000000E-03 0. -1.
        -11    1    3    3    0    0 -0.12064132807E+02 -0.90415986871E+01  0.62697833937E+01  0.16328012472E+02  0.51100000000E-03 0.  1.
        -12    1    3    3    0    0  0.83023439463E+00 -0.10594531012E+02  0.23892465343E+02  0.26149250021E+02  0.00000000000E+00 0.  1.
</event>
<event>
 7    1  0.2575978E-011  0.5052887E+02  0.7816164E-02  0.1300439E+00
        -11   -1    0    0    0    0  0.00000000000E+00  0.00000000000E+00  0.45593999997E+02  0.45594000000E+02  0.51100000000E-03 0. -1.
         11   -1    0    0    0    0 -0.00000000000E+00 -0.00000000000E+00 -0.45593999997E+02  0.45594000000E+02  0.51100000000E-03 0.  1.
    9900012    2    1    2    0    0  0.23548988917E+02 -0.11704872185E+02 -0.31009776381E+02  0.50528866425E+02  0.30000019985E+02 0.  0.
         12    1    1    2    0    0 -0.23548988917E+02  0.11704872185E+02  0.31009776381E+02  0.40659133575E+02  0.00000000000E+00 0. -1.
         11    1    3    3    0    0  0.95514511059E+01  0.29565739631E+01 -0.52168652578E+01  0.11277731652E+02  0.51100000000E-03 0. -1.
        -11    1    3    3    0    0 -0.12482326000E+01 -0.29700895881E+01 -0.18376622365E+02  0.18656895953E+02  0.51100000000E-03 0.  1.
         12    1    3    3    0    0  0.15245770411E+02 -0.11691356560E+02 -0.74162887579E+01  0.20594238820E+02  0.00000000000E+00 0. -1.
</event>
<event>
 7    1  0.2575978E-011  0.5052886E+02  0.7816164E-02  0.1300439E+00
        -11   -1    0    0    0    0  0.00000000000E+00  0.00000000000E+00  0.45593999997E+02  0.45594000000E+02  0.51100000000E-03 0.  1.
         11   -1    0    0    0    0 -0.00000000000E+00 -0.00000000000E+00 -0.45593999997E+02  0.45594000000E+02  0.51100000000E-03 0. -1.
    9900012    2    1    2    0    0  0.27324039110E+02  0.25763555676E+02  0.15582101861E+02  0.50528858189E+02  0.29999994952E+02 0.  0.
         12    1    1    2    0    0 -0.27324039110E+02 -0.25763555676E+02 -0.15582101861E+02  0.40659141811E+02  0.00000000000E+00 0. -1.
         11    1    3    3    0    0  0.11471032400E+02  0.21747705113E+02  0.14925895436E+02  0.28763338069E+02  0.51100000000E-03 0. -1.
        -11    1    3    3    0    0  0.65472293810E+01  0.79905131176E+01  0.40451560873E+01  0.11094043468E+02  0.51100000000E-03 0.  1.
         12    1    3    3    0    0  0.93057773292E+01 -0.39746625545E+01 -0.33889496627E+01  0.10671476652E+02  0.00000000000E+00 0. -1.
</event>
<event>
 7    1  0.2575978E-011  0.5052886E+02  0.7816164E-02  0.1300439E+00
        -11   -1    0    0    0    0  0.00000000000E+00  0.00000000000E+00  0.45593999997E+02  0.45594000000E+02  0.51100000000E-03 0.  1.
         11   -1    0    0    0    0 -0.00000000000E+00 -0.00000000000E+00 -0.45593999997E+02  0.45594000000E+02  0.51100000000E-03 0. -1.
    9900012    2    1    2    0    0 -0.38876644610E+02  0.11369077105E+02 -0.35378763793E+01  0.50528856137E+02  0.29999988715E+02 0.  0.
         12    1    1    2    0    0  0.38876644610E+02 -0.11369077105E+02  0.35378763793E+01  0.40659143863E+02  0.00000000000E+00 0. -1.
         11    1    3    3    0    0 -0.65800944167E+01  0.10063421191E+02 -0.14330148558E+01  0.12108824073E+02  0.51100000000E-03 0. -1.
        -11    1    3    3    0    0 -0.67673273806E+01  0.63508904410E+01 -0.73927737348E+01  0.11865227896E+02  0.51100000000E-03 0.  1.
        -12    1    3    3    0    0 -0.25529222813E+02 -0.50452345267E+01  0.52879122112E+01  0.26554804168E+02  0.00000000000E+00 0.  1.
</event>
<event>
 7    1  0.2575978E-011  0.5052886E+02  0.7816164E-02  0.1300439E+00
        -11   -1    0    0    0    0  0.00000000000E+00  0.00000000000E+00  0.45593999997E+02  0.45594000000E+02  0.51100000000E-03 0.  1.
         11   -1    0    0    0    0 -0.00000000000E+00 -0.00000000000E+00 -0.45593999997E+02  0.45594000000E+02  0.51100000000E-03 0. -1.
    9900012    2    1    2    0    0 -0.23319022510E+02 -0.28086667417E+02  0.17903296814E+02  0.50528859156E+02  0.29999997889E+02 0.  0.
         12    1    1    2    0    0  0.23319022510E+02  0.28086667417E+02 -0.17903296814E+02  0.40659140844E+02  0.00000000000E+00 0. -1.
         11    1    3    3    0    0 -0.19607154925E+02 -0.12297031138E+02  0.78231765237E+01  0.24430709982E+02  0.51100000000E-03 0. -1.
        -11    1    3    3    0    0 -0.53623699340E+01  0.19544884230E+01  0.17599570545E+00  0.57101673403E+01  0.51100000000E-03 0.  1.
         12    1    3    3    0    0  0.16505023490E+01 -0.17744124701E+02  0.99041245851E+01  0.20387981833E+02  0.00000000000E+00 0. -1.
</event>
<event>
 7    1  0.2575978E-011  0.5052886E+02  0.7816164E-02  0.1300439E+00
        -11   -1    0    0    0    0  0.00000000000E+00  0.00000000000E+00  0.45593999997E+02  0.45594000000E+02  0.51100000000E-03 0. -1.
         11   -1    0    0    0    0 -0.00000000000E+00 -0.00000000000E+00 -0.45593999997E+02  0.45594000000E+02  0.51100000000E-03 0.  1.
    9900012    2    1    2    0    0  0.26338234174E+02  0.16260786664E+00 -0.30974775868E+02  0.50528858828E+02  0.29999996894E+02 0.  0.
         12    1    1    2    0    0 -0.26338234174E+02 -0.16260786664E+00  0.30974775868E+02  0.40659141172E+02  0.00000000000E+00 0. -1.
         11    1    3    3    0    0  0.21820419336E+02  0.12014693966E+01 -0.74986107393E+01  0.23104185594E+02  0.51100000000E-03 0. -1.
        -11    1    3    3    0    0  0.31877944411E+01 -0.70326130764E+01 -0.10158000950E+02  0.12759493079E+02  0.51100000000E-03 0.  1.
        -12    1    3    3    0    0  0.13300203973E+01  0.59937515465E+01 -0.13318164179E+02  0.14665180155E+02  0.00000000000E+00 0.  1.
</event>
<event>
 7    1  0.2575978E-011  0.5052887E+02  0.7816164E-02  0.1300439E+00
        -11   -1    0    0    0    0  0.00000000000E+00  0.00000000000E+00  0.45593999997E+02  0.45594000000E+02  0.51100000000E-03 0. -1.
         11   -1    0    0    0    0 -0.00000000000E+00 -0.00000000000E+00 -0.45593999997E+02  0.45594000000E+02  0.51100000000E-03 0.  1.
    9900012    2    1    2    0    0  0.30927343446E+01  0.38629526885E+02 -0.12302841053E+02  0.50528865097E+02  0.30000015948E+02 0.  0.
         12    1    1    2    0    0 -0.30927343446E+01 -0.38629526885E+02  0.12302841053E+02  0.40659134903E+02  0.00000000000E+00 0. -1.
         11    1    3    3    0    0 -0.12025049136E+01  0.57905475103E+01  0.22478729174E+01  0.63268784919E+01  0.51100000000E-03 0. -1.
        -11    1    3    3    0    0 -0.82821068335E+01  0.24339640217E+02 -0.47836150714E+01  0.26151373825E+02  0.51100000000E-03 0.  1.
        -12    1    3    3    0    0  0.12577346092E+02  0.84993391575E+01 -0.97670988993E+01  0.18050612780E+02  0.00000000000E+00 0.  1.
</event>
<event>
 7    1  0.2575978E-011  0.5052885E+02  0.7816164E-02  0.1300439E+00
        -11   -1    0    0    0    0  0.00000000000E+00  0.00000000000E+00  0.45593999997E+02  0.45594000000E+02  0.51100000000E-03 0.  1.
         11   -1    0    0    0    0 -0.00000000000E+00 -0.00000000000E+00 -0.45593999997E+02  0.45594000000E+02  0.51100000000E-03 0. -1.
    9900012    2    1    2    0    0 -0.33051547920E+02 -0.12473924247E+02  0.20128667121E+02  0.50528845482E+02  0.29999956327E+02 0.  0.
         12    1    1    2    0    0  0.33051547920E+02  0.12473924247E+02 -0.20128667121E+02  0.40659154518E+02  0.00000000000E+00 0. -1.
         11    1    3    3    0    0 -0.45582029256E+01  0.31173989292E+01  0.36772820686E+01  0.66345906933E+01  0.51100000000E-03 0. -1.
        -11    1    3    3    0    0 -0.17883328432E+02  0.31701567357E+01  0.12324464504E+02  0.21948935170E+02  0.51100000000E-03 0.  1.
        -12    1    3    3    0    0 -0.10610016563E+02 -0.18761479912E+02  0.41269205477E+01  0.21945319618E+02  0.00000000000E+00 0.  1.
</event>
<event>
 7    1  0.2575978E-011  0.5052886E+02  0.7816164E-02  0.1300439E+00
        -11   -1    0    0    0    0  0.00000000000E+00  0.00000000000E+00  0.45593999997E+02  0.45594000000E+02  0.51100000000E-03 0.  1.
         11   -1    0    0    0    0 -0.00000000000E+00 -0.00000000000E+00 -0.45593999997E+02  0.45594000000E+02  0.51100000000E-03 0. -1.
    9900012    2    1    2    0    0 -0.16270398713E+02  0.78420710396E+01  0.36427210371E+02  0.50528860709E+02  0.30000002612E+02 0.  0.
         12    1    1    2    0    0  0.16270398713E+02 -0.78420710396E+01 -0.36427210371E+02  0.40659139291E+02  0.00000000000E+00 0. -1.
         11    1    3    3    0    0 -0.30771218017E+01 -0.10206556636E+02  0.97551506443E+01  0.14450101775E+02  0.51100000000E-03 0. -1.
        -11    1    3    3    0    0 -0.53267819285E+01  0.86531493844E+00  0.58134914368E+01  0.79322165000E+01  0.51100000000E-03 0.  1.
         12    1    3    3    0    0 -0.78664949830E+01  0.17183312737E+02  0.20858568290E+02  0.28146542435E+02  0.00000000000E+00 0. -1.
</event>
<event>
 7    1  0.2575978E-011  0.5052886E+02  0.7816164E-02  0.1300439E+00
        -11   -1    0    0    0    0  0.00000000000E+00  0.00000000000E+00  0.45593999997E+02  0.45594000000E+02  0.51100000000E-03 0. -1.
         11   -1    0    0    0    0 -0.00000000000E+00 -0.00000000000E+00 -0.45593999997E+02  0.45594000000E+02  0.51100000000E-03 0.  1.
    9900012    2    1    2    0    0 -0.20264072567E+02 -0.28679698524E+02 -0.20494087458E+02  0.50528863694E+02  0.30000011685E+02 0.  0.
         12    1    1    2    0    0  0.20264072567E+02  0.28679698524E+02  0.20494087458E+02  0.40659136306E+02  0.00000000000E+00 0. -1.
         11    1    3    3    0    0 -0.86743069906E+01 -0.15349178373E+02  0.23179225069E+00  0.17632203674E+02  0.51100000000E-03 0. -1.
        -11    1    3    3    0    0 -0.70300894852E+01  0.34770947874E+01 -0.42385244448E+01  0.89150118374E+01  0.51100000000E-03 0.  1.
         12    1    3    3    0    0 -0.45596760912E+01 -0.16807614938E+02 -0.16487355264E+02  0.23981648183E+02  0.00000000000E+00 0. -1.
</event>
<event>
 7    1  0.2575978E-011  0.5052887E+02  0.7816164E-02  0.1300439E+00
        -11   -1    0    0    0    0  0.00000000000E+00  0.00000000000E+00  0.45593999997E+02  0.45594000000E+02  0.51100000000E-03 0.  1.
         11   -1    0    0    0    0 -0.00000000000E+00 -0.00000000000E+00 -0.45593999997E+02  0.45594000000E+02  0.51100000000E-03 0. -1.
    9900012    2    1    2    0    0 -0.20619878675E+02  0.28699937556E+02  0.20107195954E+02  0.50528866446E+02  0.30000020048E+02 0.  0.
         12    1    1    2    0    0  0.20619878675E+02 -0.28699937556E+02 -0.20107195954E+02  0.40659133554E+02  0.00000000000E+00 0. -1.
         11    1    3    3    0    0 -0.46872263385E+01  0.94022721892E+01 -0.27848089198E+01  0.10868669378E+02  0.51100000000E-03 0.  1.
        -11    1    3    3    0    0 -0.33082582590E+01  0.14515771549E+02  0.23395908606E+01  0.15070696136E+02  0.51100000000E-03 0. -1.
        -12    1    3    3    0    0 -0.12624394077E+02  0.47818938179E+01  0.20552414013E+02  0.24589500932E+02  0.00000000000E+00 0.  1.
</event>
<event>
 7    1  0.2575978E-011  0.5052886E+02  0.7816164E-02  0.1300439E+00
        -11   -1    0    0    0    0  0.00000000000E+00  0.00000000000E+00  0.45593999997E+02  0.45594000000E+02  0.51100000000E-03 0.  1.
         11   -1    0    0    0    0 -0.00000000000E+00 -0.00000000000E+00 -0.45593999997E+02  0.45594000000E+02  0.51100000000E-03 0. -1.
    9900012    2    1    2    0    0  0.30469188162E+02  0.53662514097E+01  0.26381763629E+02  0.50528861622E+02  0.30000005387E+02 0.  0.
         12    1    1    2    0    0 -0.30469188162E+02 -0.53662514097E+01 -0.26381763629E+02  0.40659138378E+02  0.00000000000E+00 0. -1.
         11    1    3    3    0    0 -0.30412199266E+00  0.25399015472E+01 -0.15025974112E+01  0.29667135516E+01  0.51100000000E-03 0. -1.
        -11    1    3    3    0    0  0.11008666633E+02  0.15161828614E+01 -0.24060422038E+01  0.11370074356E+02  0.51100000000E-03 0.  1.
         12    1    3    3    0    0  0.19764643521E+02  0.13101670011E+01  0.30290403244E+02  0.36192073715E+02  0.00000000000E+00 0. -1.
</event>
<event>
 7    1  0.2575978E-011  0.5052886E+02  0.7816164E-02  0.1300439E+00
        -11   -1    0    0    0    0  0.00000000000E+00  0.00000000000E+00  0.45593999997E+02  0.45594000000E+02  0.51100000000E-03 0.  1.
         11   -1    0    0    0    0 -0.00000000000E+00 -0.00000000000E+00 -0.45593999997E+02  0.45594000000E+02  0.51100000000E-03 0. -1.
    9900012    2    1    2    0    0 -0.93616331031E+01 -0.35234308241E+02  0.18001919878E+02  0.50528858705E+02  0.29999996519E+02 0.  0.
         12    1    1    2    0    0  0.93616331031E+01  0.35234308241E+02 -0.18001919878E+02  0.40659141295E+02  0.00000000000E+00 0. -1.
         11    1    3    3    0    0 -0.15197788174E+02 -0.15716704067E+02  0.19443732026E+02  0.29258268361E+02  0.51100000000E-03 0. -1.
        -11    1    3    3    0    0 -0.13676068010E+00 -0.77717153569E+01  0.10999951062E+01  0.78503663970E+01  0.51100000000E-03 0.  1.
         12    1    3    3    0    0  0.59729157505E+01 -0.11745888817E+02 -0.25418072550E+01  0.13420223947E+02  0.00000000000E+00 0. -1.
</event>
<event>
 7    1  0.2575978E-011  0.5052890E+02  0.7816164E-02  0.1300439E+00
        -11   -1    0    0    0    0  0.00000000000E+00  0.00000000000E+00  0.45593999997E+02  0.45594000000E+02  0.51100000000E-03 0.  1.
         11   -1    0    0    0    0 -0.00000000000E+00 -0.00000000000E+00 -0.45593999997E+02  0.45594000000E+02  0.51100000000E-03 0. -1.
    9900012    2    1    2    0    0 -0.23222256466E+02 -0.24146908685E+02  0.23039450347E+02  0.50528896878E+02  0.30000112550E+02 0.  0.
         12    1    1    2    0    0  0.23222256466E+02  0.24146908685E+02 -0.23039450347E+02  0.40659103122E+02  0.00000000000E+00 0. -1.
         11    1    3    3    0    0 -0.77681449336E+00 -0.12853130771E+02  0.15059112618E+02  0.19813714555E+02  0.51100000000E-03 0. -1.
        -11    1    3    3    0    0 -0.20323193195E+02 -0.10998959999E+02  0.12090221958E+02  0.26080313840E+02  0.51100000000E-03 0.  1.
         12    1    3    3    0    0 -0.21222487773E+01 -0.29481791448E+00 -0.41098842292E+01  0.46348684828E+01  0.00000000000E+00 0. -1.
</event>
<event>
 7    1  0.2575978E-011  0.5052886E+02  0.7816164E-02  0.1300439E+00
        -11   -1    0    0    0    0  0.00000000000E+00  0.00000000000E+00  0.45593999997E+02  0.45594000000E+02  0.51100000000E-03 0.  1.
         11   -1    0    0    0    0 -0.00000000000E+00 -0.00000000000E+00 -0.45593999997E+02  0.45594000000E+02  0.51100000000E-03 0. -1.
    9900012    2    1    2    0    0 -0.22866013809E+02 -0.42249764746E+01  0.33353572674E+02  0.50528858053E+02  0.29999994538E+02 0.  0.
         12    1    1    2    0    0  0.22866013809E+02  0.42249764746E+01 -0.33353572674E+02  0.40659141947E+02  0.00000000000E+00 0. -1.
         11    1    3    3    0    0  0.34935096940E+01 -0.85993039446E+00 -0.20179139413E+01  0.41250535998E+01  0.51100000000E-03 0. -1.
        -11    1    3    3    0    0 -0.12815849298E+02 -0.34569700777E+01  0.70952697946E+01  0.15051228822E+02  0.51100000000E-03 0.  1.
        -12    1    3    3    0    0 -0.13543674205E+02  0.91923997571E-01  0.28276216821E+02  0.31352575631E+02  0.00000000000E+00 0.  1.
</event>
<event>
 7    1  0.2575978E-011  0.5052886E+02  0.7816164E-02  0.1300439E+00
        -11   -1    0    0    0    0  0.00000000000E+00  0.00000000000E+00  0.45593999997E+02  0.45594000000E+02  0.51100000000E-03 0.  1.
         11   -1    0    0    0    0 -0.00000000000E+00 -0.00000000000E+00 -0.45593999997E+02  0.45594000000E+02  0.51100000000E-03 0. -1.
    9900012    2    1    2    0    0 -0.49159967271E+00  0.37078043644E+00  0.40654477137E+02  0.50528860072E+02  0.30000000675E+02 0.  0.
         12    1    1    2    0    0  0.49159967271E+00 -0.37078043644E+00 -0.40654477137E+02  0.40659139928E+02  0.00000000000E+00 0. -1.
         11    1    3    3    0    0 -0.75623543363E+01  0.91066081886E+01  0.13667759649E+02  0.18081127451E+02  0.51100000000E-03 0. -1.
        -11    1    3    3    0    0 -0.23886701046E+00  0.19184649060E+01  0.13984039133E+02  0.14117043450E+02  0.51100000000E-03 0.  1.
         12    1    3    3    0    0  0.73096216740E+01 -0.10654292658E+02  0.13002678356E+02  0.18330689171E+02  0.00000000000E+00 0. -1.
</event>
<event>
 7    1  0.2575978E-011  0.5052890E+02  0.7816164E-02  0.1300439E+00
        -11   -1    0    0    0    0  0.00000000000E+00  0.00000000000E+00  0.45593999997E+02  0.45594000000E+02  0.51100000000E-03 0. -1.
         11   -1    0    0    0    0 -0.00000000000E+00 -0.00000000000E+00 -0.45593999997E+02  0.45594000000E+02  0.51100000000E-03 0.  1.
    9900012    2    1    2    0    0  0.39928184594E+02 -0.73552693947E+01 -0.21914107856E+01  0.50528902690E+02  0.30000130217E+02 0.  0.
         12    1    1    2    0    0 -0.39928184594E+02  0.73552693947E+01  0.21914107856E+01  0.40659097310E+02  0.00000000000E+00 0. -1.
         11    1    3    3    0    0  0.51345074948E+01  0.15676331196E+01  0.83318425481E+01  0.99116215283E+01  0.51100000000E-03 0. -1.
        -11    1    3    3    0    0  0.23702867375E+02  0.17162941402E+01 -0.49927197575E+01  0.24283715494E+02  0.51100000000E-03 0.  1.
         12    1    3    3    0    0  0.11090809724E+02 -0.10639196654E+02 -0.55305335762E+01  0.16333565668E+02  0.00000000000E+00 0. -1.
</event>
<event>
 7    1  0.2575978E-011  0.5052886E+02  0.7816164E-02  0.1300439E+00
        -11   -1    0    0    0    0  0.00000000000E+00  0.00000000000E+00  0.45593999997E+02  0.45594000000E+02  0.51100000000E-03 0.  1.
         11   -1    0    0    0    0 -0.00000000000E+00 -0.00000000000E+00 -0.45593999997E+02  0.45594000000E+02  0.51100000000E-03 0. -1.
    9900012    2    1    2    0    0 -0.26885242483E+02  0.95736551671E+01  0.28960229860E+02  0.50528855270E+02  0.29999986079E+02 0.  0.
         12    1    1    2    0    0  0.26885242483E+02 -0.95736551671E+01 -0.28960229860E+02  0.40659144730E+02  0.00000000000E+00 0. -1.
         11    1    3    3    0    0 -0.97458242059E+01 -0.54063246227E+01  0.59513338490E+01  0.12634389982E+02  0.51100000000E-03 0. -1.
        -11    1    3    3    0    0  0.12513247987E+01  0.41487282665E+01  0.14127343354E+02  0.14776995313E+02  0.51100000000E-03 0.  1.
         12    1    3    3    0    0 -0.18390743076E+02  0.10831251523E+02  0.88815526569E+01  0.23117469975E+02  0.00000000000E+00 0. -1.
</event>
<event>
 7    1  0.2575978E-011  0.5052888E+02  0.7816164E-02  0.1300439E+00
        -11   -1    0    0    0    0  0.00000000000E+00  0.00000000000E+00  0.45593999997E+02  0.45594000000E+02  0.51100000000E-03 0.  1.
         11   -1    0    0    0    0 -0.00000000000E+00 -0.00000000000E+00 -0.45593999997E+02  0.45594000000E+02  0.51100000000E-03 0. -1.
    9900012    2    1    2    0    0  0.24747746179E+02  0.56525695608E+01  0.31761002686E+02  0.50528883247E+02  0.30000071116E+02 0.  0.
         12    1    1    2    0    0 -0.24747746179E+02 -0.56525695608E+01 -0.31761002686E+02  0.40659116753E+02  0.00000000000E+00 0. -1.
         11    1    3    3    0    0  0.74976540385E+01 -0.59184206484E+01  0.21322111944E+02  0.23363967494E+02  0.51100000000E-03 0.  1.
        -11    1    3    3    0    0  0.72466760332E+01 -0.26286124679E+01  0.30970460697E+01  0.83075635210E+01  0.51100000000E-03 0. -1.
        -12    1    3    3    0    0  0.10003416107E+02  0.14199602677E+02  0.73418446722E+01  0.18857352232E+02  0.00000000000E+00 0.  1.
</event>
<event>
 7    1  0.2575978E-011  0.5052884E+02  0.7816164E-02  0.1300439E+00
        -11   -1    0    0    0    0  0.00000000000E+00  0.00000000000E+00  0.45593999997E+02  0.45594000000E+02  0.51100000000E-03 0. -1.
         11   -1    0    0    0    0 -0.00000000000E+00 -0.00000000000E+00 -0.45593999997E+02  0.45594000000E+02  0.51100000000E-03 0.  1.
    9900012    2    1    2    0    0 -0.38176323805E+01 -0.40202579582E+02  0.47271055054E+01  0.50528840534E+02  0.29999941288E+02 0.  0.
         12    1    1    2    0    0  0.38176323805E+01  0.40202579582E+02 -0.47271055054E+01  0.40659159466E+02  0.00000000000E+00 0. -1.
         11    1    3    3    0    0  0.75406641665E+01 -0.42509894867E+00  0.16346731398E+01  0.77275145890E+01  0.51100000000E-03 0. -1.
        -11    1    3    3    0    0 -0.99906454936E+00 -0.36248575782E+01 -0.28620030168E+01  0.47253342702E+01  0.51100000000E-03 0.  1.
        -12    1    3    3    0    0 -0.10359231998E+02 -0.36152623055E+02  0.59544353823E+01  0.38075991675E+02  0.00000000000E+00 0.  1.
</event>
<event>
 7    1  0.2575978E-011  0.5052886E+02  0.7816164E-02  0.1300439E+00
        -11   -1    0    0    0    0  0.00000000000E+00  0.00000000000E+00  0.45593999997E+02  0.45594000000E+02  0.51100000000E-03 0. -1.
         11   -1    0    0    0    0 -0.00000000000E+00 -0.00000000000E+00 -0.45593999997E+02  0.45594000000E+02  0.51100000000E-03 0.  1.
    9900012    2    1    2    0    0  0.12989208480E+02  0.38438968971E+02 -0.26252816754E+01  0.50528856178E+02  0.29999988838E+02 0.  0.
         12    1    1    2    0    0 -0.12989208480E+02 -0.38438968971E+02  0.26252816754E+01  0.40659143822E+02  0.00000000000E+00 0. -1.
         11    1    3    3    0    0  0.50949000285E+01  0.10807889143E+01 -0.25849378938E+01  0.58144660248E+01  0.51100000000E-03 0. -1.
        -11    1    3    3    0    0  0.15791632003E+02  0.21890227527E+02 -0.27709890329E+01  0.27133670651E+02  0.51100000000E-03 0.  1.
        -12    1    3    3    0    0 -0.78973235514E+01  0.15467952529E+02  0.27306452513E+01  0.17580719502E+02  0.00000000000E+00 0.  1.
</event>
<event>
 7    1  0.2575978E-011  0.5052886E+02  0.7816164E-02  0.1300439E+00
        -11   -1    0    0    0    0  0.00000000000E+00  0.00000000000E+00  0.45593999997E+02  0.45594000000E+02  0.51100000000E-03 0. -1.
         11   -1    0    0    0    0 -0.00000000000E+00 -0.00000000000E+00 -0.45593999997E+02  0.45594000000E+02  0.51100000000E-03 0.  1.
    9900012    2    1    2    0    0 -0.14351717292E+02  0.15992603401E+02 -0.34517103970E+02  0.50528860569E+02  0.30000002185E+02 0.  0.
         12    1    1    2    0    0  0.14351717292E+02 -0.15992603401E+02  0.34517103970E+02  0.40659139431E+02  0.00000000000E+00 0. -1.
         11    1    3    3    0    0 -0.51631307469E+01 -0.77880071638E+00 -0.16540341725E+01  0.54772510414E+01  0.51100000000E-03 0. -1.
        -11    1    3    3    0    0 -0.44803255290E+01  0.11617896512E+02 -0.10660678142E+01  0.12497413215E+02  0.51100000000E-03 0.  1.
        -12    1    3    3    0    0 -0.47082610165E+01  0.51535076051E+01 -0.31797001983E+02  0.32554196313E+02  0.00000000000E+00 0.  1.
</event>
<event>
 7    1  0.2575978E-011  0.5052886E+02  0.7816164E-02  0.1300439E+00
        -11   -1    0    0    0    0  0.00000000000E+00  0.00000000000E+00  0.45593999997E+02  0.45594000000E+02  0.51100000000E-03 0.  1.
         11   -1    0    0    0    0 -0.00000000000E+00 -0.00000000000E+00 -0.45593999997E+02  0.45594000000E+02  0.51100000000E-03 0. -1.
    9900012    2    1    2    0    0  0.43544735392E+01 -0.23142814499E+02  0.33145353101E+02  0.50528859147E+02  0.29999997862E+02 0.  0.
         12    1    1    2    0    0 -0.43544735392E+01  0.23142814499E+02 -0.33145353101E+02  0.40659140853E+02  0.00000000000E+00 0. -1.
         11    1    3    3    0    0  0.17642844693E+01  0.40103620574E+01  0.36821065006E+01  0.57230771498E+01  0.51100000000E-03 0. -1.
        -11    1    3    3    0    0 -0.34772371419E+00  0.32112461323E+01  0.23820861976E+01  0.40133961202E+01  0.51100000000E-03 0.  1.
        -12    1    3    3    0    0  0.29379127841E+01 -0.30364422689E+02  0.27081160403E+02  0.40792385877E+02  0.00000000000E+00 0.  1.
</event>
<event>
 7    1  0.2575978E-011  0.5052887E+02  0.7816164E-02  0.1300439E+00
        -11   -1    0    0    0    0  0.00000000000E+00  0.00000000000E+00  0.45593999997E+02  0.45594000000E+02  0.51100000000E-03 0.  1.
         11   -1    0    0    0    0 -0.00000000000E+00 -0.00000000000E+00 -0.45593999997E+02  0.45594000000E+02  0.51100000000E-03 0. -1.
    9900012    2    1    2    0    0 -0.38991259777E+02  0.79963285060E+01 -0.83009267363E+01  0.50528868267E+02  0.30000025584E+02 0.  0.
         12    1    1    2    0    0  0.38991259777E+02 -0.79963285060E+01  0.83009267363E+01  0.40659131733E+02  0.00000000000E+00 0. -1.
         11    1    3    3    0    0 -0.14770314112E+01  0.74178074556E+01  0.48001357402E+01  0.89580574135E+01  0.51100000000E-03 0. -1.
        -11    1    3    3    0    0 -0.21998809926E+02  0.36486306866E+01 -0.22984387116E+01  0.22417470081E+02  0.51100000000E-03 0.  1.
        -12    1    3    3    0    0 -0.15515418440E+02 -0.30701096362E+01 -0.10802623765E+02  0.19153340773E+02  0.00000000000E+00 0.  1.
</event>
<event>
 7    1  0.2575978E-011  0.5052886E+02  0.7816164E-02  0.1300439E+00
        -11   -1    0    0    0    0  0.00000000000E+00  0.00000000000E+00  0.45593999997E+02  0.45594000000E+02  0.51100000000E-03 0. -1.
         11   -1    0    0    0    0 -0.00000000000E+00 -0.00000000000E+00 -0.45593999997E+02  0.45594000000E+02  0.51100000000E-03 0.  1.
    9900012    2    1    2    0    0  0.57115408884E+01  0.39975605641E+02 -0.47428676419E+01  0.50528861555E+02  0.30000005182E+02 0.  0.
         12    1    1    2    0    0 -0.57115408884E+01 -0.39975605641E+02  0.47428676419E+01  0.40659138445E+02  0.00000000000E+00 0. -1.
         11    1    3    3    0    0  0.12447952765E+01  0.10961650003E+02 -0.15935837918E+01  0.11146604669E+02  0.51100000000E-03 0. -1.
        -11    1    3    3    0    0 -0.23689779786E+01  0.25178898107E+02 -0.11628402194E+02  0.27835385832E+02  0.51100000000E-03 0.  1.
         12    1    3    3    0    0  0.68357235904E+01  0.38350575297E+01  0.84791183434E+01  0.11546871054E+02  0.00000000000E+00 0. -1.
</event>
<event>
 7    1  0.2575978E-011  0.5052886E+02  0.7816164E-02  0.1300439E+00
        -11   -1    0    0    0    0  0.00000000000E+00  0.00000000000E+00  0.45593999997E+02  0.45594000000E+02  0.51100000000E-03 0. -1.
         11   -1    0    0    0    0 -0.00000000000E+00 -0.00000000000E+00 -0.45593999997E+02  0.45594000000E+02  0.51100000000E-03 0.  1.
    9900012    2    1    2    0    0  0.15703274925E+02 -0.38952527317E+01 -0.37301470393E+02  0.50528861658E+02  0.30000005497E+02 0.  0.
         12    1    1    2    0    0 -0.15703274925E+02  0.38952527317E+01  0.37301470393E+02  0.40659138342E+02  0.00000000000E+00 0. -1.
         11    1    3    3    0    0 -0.24783754409E+00 -0.61243878619E+00  0.48083020282E+01  0.48534805419E+01  0.51100000000E-03 0. -1.
        -11    1    3    3    0    0  0.25656905764E+00 -0.83786090065E+00 -0.26207775142E+00  0.91461662957E+00  0.51100000000E-03 0.  1.
        -12    1    3    3    0    0  0.15694543412E+02 -0.24449530449E+01 -0.41847694670E+02  0.44760764487E+02  0.00000000000E+00 0.  1.
</event>
<event>
 7    1  0.2575978E-011  0.5052876E+02  0.7816164E-02  0.1300439E+00
        -11   -1    0    0    0    0  0.00000000000E+00  0.00000000000E+00  0.45593999997E+02  0.45594000000E+02  0.51100000000E-03 0. -1.
         11   -1    0    0    0    0 -0.00000000000E+00 -0.00000000000E+00 -0.45593999997E+02  0.45594000000E+02  0.51100000000E-03 0.  1.
    9900012    2    1    2    0    0  0.34402989108E+01 -0.39537153566E+02 -0.88403188501E+01  0.50528764812E+02  0.29999711120E+02 0.  0.
         12    1    1    2    0    0 -0.34402989108E+01  0.39537153566E+02  0.88403188501E+01  0.40659235188E+02  0.00000000000E+00 0. -1.
         11    1    3    3    0    0  0.11456944737E+02 -0.20718202543E+02 -0.37579355951E+01  0.23971390855E+02  0.51100000000E-03 0. -1.
        -11    1    3    3    0    0  0.38554999259E+01 -0.11462944070E+02 -0.20694895057E+01  0.12269749529E+02  0.51100000000E-03 0.  1.
         12    1    3    3    0    0 -0.11872145752E+02 -0.73560069533E+01 -0.30128937493E+01  0.14287624428E+02  0.00000000000E+00 0. -1.
</event>
<event>
 7    1  0.2575978E-011  0.5052886E+02  0.7816164E-02  0.1300439E+00
        -11   -1    0    0    0    0  0.00000000000E+00  0.00000000000E+00  0.45593999997E+02  0.45594000000E+02  0.51100000000E-03 0.  1.
         11   -1    0    0    0    0 -0.00000000000E+00 -0.00000000000E+00 -0.45593999997E+02  0.45594000000E+02  0.51100000000E-03 0. -1.
    9900012    2    1    2    0    0  0.78759169169E+01  0.19365639353E+02  0.34872735761E+02  0.50528858909E+02  0.29999997139E+02 0.  0.
         12    1    1    2    0    0 -0.78759169169E+01 -0.19365639353E+02 -0.34872735761E+02  0.40659141091E+02  0.00000000000E+00 0. -1.
         11    1    3    3    0    0  0.94489614598E+01  0.17267375180E+02  0.65389257430E+01  0.20741327547E+02  0.51100000000E-03 0. -1.
        -11    1    3    3    0    0 -0.31752815058E+01  0.40009703448E+01  0.94634623943E+01  0.10753943327E+02  0.51100000000E-03 0.  1.
        -12    1    3    3    0    0  0.16022369629E+01 -0.19027061711E+01  0.18870347623E+02  0.19033588035E+02  0.00000000000E+00 0.  1.
</event>
<event>
 7    1  0.2575978E-011  0.5052886E+02  0.7816164E-02  0.1300439E+00
        -11   -1    0    0    0    0  0.00000000000E+00  0.00000000000E+00  0.45593999997E+02  0.45594000000E+02  0.51100000000E-03 0.  1.
         11   -1    0    0    0    0 -0.00000000000E+00 -0.00000000000E+00 -0.45593999997E+02  0.45594000000E+02  0.51100000000E-03 0. -1.
    9900012    2    1    2    0    0 -0.17802174958E+02 -0.36465684913E+02  0.25499424344E+01  0.50528858152E+02  0.29999994839E+02 0.  0.
         12    1    1    2    0    0  0.17802174958E+02  0.36465684913E+02 -0.25499424344E+01  0.40659141848E+02  0.00000000000E+00 0. -1.
         11    1    3    3    0    0  0.40188602175E+00 -0.15810826449E+02  0.83631447287E+00  0.15838029156E+02  0.51100000000E-03 0. -1.
        -11    1    3    3    0    0 -0.55245080689E+01 -0.19270747709E+02  0.64894155444E+01  0.21071175123E+02  0.51100000000E-03 0.  1.
         12    1    3    3    0    0 -0.12679552911E+02 -0.13841107539E+01 -0.47757875829E+01  0.13619653873E+02  0.00000000000E+00 0. -1.
</event>
<event>
 7    1  0.2575978E-011  0.5052886E+02  0.7816164E-02  0.1300439E+00
        -11   -1    0    0    0    0  0.00000000000E+00  0.00000000000E+00  0.45593999997E+02  0.45594000000E+02  0.51100000000E-03 0.  1.
         11   -1    0    0    0    0 -0.00000000000E+00 -0.00000000000E+00 -0.45593999997E+02  0.45594000000E+02  0.51100000000E-03 0. -1.
    9900012    2    1    2    0    0 -0.28361434367E+02  0.14241175150E+02  0.25416209831E+02  0.50528858947E+02  0.29999997255E+02 0.  0.
         12    1    1    2    0    0  0.28361434367E+02 -0.14241175150E+02 -0.25416209831E+02  0.40659141053E+02  0.00000000000E+00 0. -1.
         11    1    3    3    0    0 -0.37128875948E+01  0.21863172574E+01 -0.42324994783E+01  0.60398319130E+01  0.51100000000E-03 0. -1.
        -11    1    3    3    0    0  0.60196438926E+00  0.69971757172E+01  0.37300091085E+01  0.79520938974E+01  0.51100000000E-03 0.  1.
        -12    1    3    3    0    0 -0.25250511161E+02  0.50576821755E+01  0.25918700201E+02  0.36536933136E+02  0.00000000000E+00 0.  1.
</event>
<event>
 7    1  0.2575978E-011  0.5052885E+02  0.7816164E-02  0.1300439E+00
        -11   -1    0    0    0    0  0.00000000000E+00  0.00000000000E+00  0.45593999997E+02  0.45594000000E+02  0.51100000000E-03 0. -1.
         11   -1    0    0    0    0 -0.00000000000E+00 -0.00000000000E+00 -0.45593999997E+02  0.45594000000E+02  0.51100000000E-03 0.  1.
    9900012    2    1    2    0    0 -0.21649700101E+02 -0.13594509939E+02  0.31617177617E+02  0.50528854222E+02  0.29999982893E+02 0.  0.
         12    1    1    2    0    0  0.21649700101E+02  0.13594509939E+02 -0.31617177617E+02  0.40659145778E+02  0.00000000000E+00 0. -1.
         11    1    3    3    0    0 -0.99343626838E+00 -0.65637883258E+01  0.18149381002E+02  0.19325378749E+02  0.51100000000E-03 0. -1.
        -11    1    3    3    0    0 -0.56224583736E+01  0.59963257180E+01  0.32398767079E+01  0.88354265105E+01  0.51100000000E-03 0.  1.
        -12    1    3    3    0    0 -0.15033805459E+02 -0.13027047331E+02  0.10227919908E+02  0.22368048962E+02  0.00000000000E+00 0.  1.
</event>
<event>
 7    1  0.2575978E-011  0.5052887E+02  0.7816164E-02  0.1300439E+00
        -11   -1    0    0    0    0  0.00000000000E+00  0.00000000000E+00  0.45593999997E+02  0.45594000000E+02  0.51100000000E-03 0. -1.
         11   -1    0    0    0    0 -0.00000000000E+00 -0.00000000000E+00 -0.45593999997E+02  0.45594000000E+02  0.51100000000E-03 0.  1.
    9900012    2    1    2    0    0 -0.70959526017E+00 -0.35944465215E+02 -0.18990959647E+02  0.50528872448E+02  0.30000038293E+02 0.  0.
         12    1    1    2    0    0  0.70959526017E+00  0.35944465215E+02  0.18990959647E+02  0.40659127552E+02  0.00000000000E+00 0. -1.
         11    1    3    3    0    0  0.45749661283E+01 -0.10899003185E+01  0.13056200878E+01  0.48808648674E+01  0.51100000000E-03 0. -1.
        -11    1    3    3    0    0  0.46835760176E+01 -0.88712797531E+01  0.17001393507E+01  0.10174770899E+02  0.51100000000E-03 0.  1.
        -12    1    3    3    0    0 -0.99681374061E+01 -0.25983285143E+02 -0.21996719085E+02  0.35473236682E+02  0.00000000000E+00 0.  1.
</event>
<event>
 7    1  0.2575978E-011  0.5052886E+02  0.7816164E-02  0.1300439E+00
        -11   -1    0    0    0    0  0.00000000000E+00  0.00000000000E+00  0.45593999997E+02  0.45594000000E+02  0.51100000000E-03 0. -1.
         11   -1    0    0    0    0 -0.00000000000E+00 -0.00000000000E+00 -0.45593999997E+02  0.45594000000E+02  0.51100000000E-03 0.  1.
    9900012    2    1    2    0    0 -0.40541726206E+02  0.29593903617E+00  0.30735297079E+01  0.50528859225E+02  0.29999998100E+02 0.  0.
         12    1    1    2    0    0  0.40541726206E+02 -0.29593903617E+00 -0.30735297079E+01  0.40659140775E+02  0.00000000000E+00 0. -1.
         11    1    3    3    0    0 -0.18070170908E+02  0.25797506809E+01  0.17973545915E+01  0.18341664974E+02  0.51100000000E-03 0. -1.
        -11    1    3    3    0    0 -0.82990839632E+01  0.18131094554E+01 -0.10360192601E+02  0.13397602454E+02  0.51100000000E-03 0.  1.
         12    1    3    3    0    0 -0.14172471335E+02 -0.40969211001E+01  0.11636367718E+02  0.18789591797E+02  0.00000000000E+00 0. -1.
</event>
<event>
 7    1  0.2575978E-011  0.5052885E+02  0.7816164E-02  0.1300439E+00
        -11   -1    0    0    0    0  0.00000000000E+00  0.00000000000E+00  0.45593999997E+02  0.45594000000E+02  0.51100000000E-03 0.  1.
         11   -1    0    0    0    0 -0.00000000000E+00 -0.00000000000E+00 -0.45593999997E+02  0.45594000000E+02  0.51100000000E-03 0. -1.
    9900012    2    1    2    0    0  0.16563120179E+02  0.33220899036E+02  0.16589184512E+02  0.50528854343E+02  0.29999983260E+02 0.  0.
         12    1    1    2    0    0 -0.16563120179E+02 -0.33220899036E+02 -0.16589184512E+02  0.40659145657E+02  0.00000000000E+00 0. -1.
         11    1    3    3    0    0  0.19082381662E+02  0.86494502505E+01  0.82755331640E+01  0.22526311925E+02  0.51100000000E-03 0. -1.
        -11    1    3    3    0    0  0.35045527652E+01  0.72254212043E+01  0.46460593633E+01  0.92776327548E+01  0.51100000000E-03 0.  1.
        -12    1    3    3    0    0 -0.60238142478E+01  0.17346027581E+02  0.36675919849E+01  0.18724909663E+02  0.00000000000E+00 0.  1.
</event>
<event>
 7    1  0.2575978E-011  0.5052887E+02  0.7816164E-02  0.1300439E+00
        -11   -1    0    0    0    0  0.00000000000E+00  0.00000000000E+00  0.45593999997E+02  0.45594000000E+02  0.51100000000E-03 0. -1.
         11   -1    0    0    0    0 -0.00000000000E+00 -0.00000000000E+00 -0.45593999997E+02  0.45594000000E+02  0.51100000000E-03 0.  1.
    9900012    2    1    2    0    0 -0.28720337536E+02  0.25106523599E+02 -0.14070158387E+02  0.50528872213E+02  0.30000037577E+02 0.  0.
         12    1    1    2    0    0  0.28720337536E+02 -0.25106523599E+02  0.14070158387E+02  0.40659127787E+02  0.00000000000E+00 0. -1.
         11    1    3    3    0    0  0.11720266716E+01  0.46803856036E+01  0.41179676657E+00  0.48424407849E+01  0.51100000000E-03 0. -1.
        -11    1    3    3    0    0 -0.14975444824E+02  0.22990035535E+02 -0.51832811798E+01  0.27922608862E+02  0.51100000000E-03 0.  1.
         12    1    3    3    0    0 -0.14916919383E+02 -0.25638975399E+01 -0.92986739738E+01  0.17763822566E+02  0.00000000000E+00 0. -1.
</event>
<event>
 7    1  0.2575978E-011  0.5052886E+02  0.7816164E-02  0.1300439E+00
        -11   -1    0    0    0    0  0.00000000000E+00  0.00000000000E+00  0.45593999997E+02  0.45594000000E+02  0.51100000000E-03 0.  1.
         11   -1    0    0    0    0 -0.00000000000E+00 -0.00000000000E+00 -0.45593999997E+02  0.45594000000E+02  0.51100000000E-03 0. -1.
    9900012    2    1    2    0    0  0.63568455472E+00  0.36327856787E+02  0.18249607493E+02  0.50528862684E+02  0.30000008615E+02 0.  0.
         12    1    1    2    0    0 -0.63568455472E+00 -0.36327856787E+02 -0.18249607493E+02  0.40659137316E+02  0.00000000000E+00 0. -1.
         11    1    3    3    0    0  0.31382286730E+01 -0.94291356169E-01  0.35646506548E+01  0.47501689039E+01  0.51100000000E-03 0. -1.
        -11    1    3    3    0    0  0.74832637075E+01  0.95111784942E+01  0.11845724615E+02  0.16934666928E+02  0.51100000000E-03 0.  1.
         12    1    3    3    0    0 -0.99858078258E+01  0.26910969649E+02  0.28392322236E+01  0.28844026852E+02  0.00000000000E+00 0. -1.
</event>
<event>
 7    1  0.2575978E-011  0.5052886E+02  0.7816164E-02  0.1300439E+00
        -11   -1    0    0    0    0  0.00000000000E+00  0.00000000000E+00  0.45593999997E+02  0.45594000000E+02  0.51100000000E-03 0.  1.
         11   -1    0    0    0    0 -0.00000000000E+00 -0.00000000000E+00 -0.45593999997E+02  0.45594000000E+02  0.51100000000E-03 0. -1.
    9900012    2    1    2    0    0 -0.17299510035E+02  0.15378129966E+02  0.33427621261E+02  0.50528858447E+02  0.29999995734E+02 0.  0.
         12    1    1    2    0    0  0.17299510035E+02 -0.15378129966E+02 -0.33427621261E+02  0.40659141553E+02  0.00000000000E+00 0. -1.
         11    1    3    3    0    0 -0.13521757347E+02 -0.37391818552E+00  0.49370464622E+01  0.14399727935E+02  0.51100000000E-03 0. -1.
        -11    1    3    3    0    0  0.47030534562E+00  0.60456769685E+01  0.36598559018E+00  0.60749767768E+01  0.51100000000E-03 0.  1.
        -12    1    3    3    0    0 -0.42480580341E+01  0.97063711828E+01  0.28124589208E+02  0.30054153735E+02  0.00000000000E+00 0.  1.
</event>
<event>
 7    1  0.2575978E-011  0.5052886E+02  0.7816164E-02  0.1300439E+00
        -11   -1    0    0    0    0  0.00000000000E+00  0.00000000000E+00  0.45593999997E+02  0.45594000000E+02  0.51100000000E-03 0.  1.
         11   -1    0    0    0    0 -0.00000000000E+00 -0.00000000000E+00 -0.45593999997E+02  0.45594000000E+02  0.51100000000E-03 0. -1.
    9900012    2    1    2    0    0 -0.38664514239E+01  0.39160043344E+02  0.10232650302E+02  0.50528861132E+02  0.30000003897E+02 0.  0.
         12    1    1    2    0    0  0.38664514239E+01 -0.39160043344E+02 -0.10232650302E+02  0.40659138868E+02  0.00000000000E+00 0. -1.
         11    1    3    3    0    0 -0.58102211152E+01  0.84845714308E+01 -0.50146913554E+01  0.11440880710E+02  0.51100000000E-03 0. -1.
        -11    1    3    3    0    0 -0.44302478879E+01  0.87376812188E-01  0.27199422865E+00  0.44394495354E+01  0.51100000000E-03 0.  1.
        -12    1    3    3    0    0  0.63740175792E+01  0.30588095101E+02  0.14975347428E+02  0.34648530886E+02  0.00000000000E+00 0.  1.
</event>
<event>
 7    1  0.2575978E-011  0.5052886E+02  0.7816164E-02  0.1300439E+00
        -11   -1    0    0    0    0  0.00000000000E+00  0.00000000000E+00  0.45593999997E+02  0.45594000000E+02  0.51100000000E-03 0.  1.
         11   -1    0    0    0    0 -0.00000000000E+00 -0.00000000000E+00 -0.45593999997E+02  0.45594000000E+02  0.51100000000E-03 0. -1.
    9900012    2    1    2    0    0  0.95178958696E+01 -0.18347342391E+02  0.35013578108E+02  0.50528856299E+02  0.29999989207E+02 0.  0.
         12    1    1    2    0    0 -0.95178958696E+01  0.18347342391E+02 -0.35013578108E+02  0.40659143701E+02  0.00000000000E+00 0. -1.
         11    1    3    3    0    0  0.57671931253E+00  0.87391109635E+00  0.19916393618E+01  0.22501007485E+01  0.51100000000E-03 0. -1.
        -11    1    3    3    0    0 -0.66433593103E+01 -0.16467061838E+02  0.10112091355E+02  0.20434107280E+02  0.51100000000E-03 0.  1.
         12    1    3    3    0    0  0.15584535867E+02 -0.27541916493E+01  0.22909847391E+02  0.27844648271E+02  0.00000000000E+00 0. -1.
</event>
<event>
 7    1  0.2575978E-011  0.5052886E+02  0.7816164E-02  0.1300439E+00
        -11   -1    0    0    0    0  0.00000000000E+00  0.00000000000E+00  0.45593999997E+02  0.45594000000E+02  0.51100000000E-03 0. -1.
         11   -1    0    0    0    0 -0.00000000000E+00 -0.00000000000E+00 -0.45593999997E+02  0.45594000000E+02  0.51100000000E-03 0.  1.
    9900012    2    1    2    0    0 -0.13586757995E+02  0.30668876752E+02 -0.22977931786E+02  0.50528863964E+02  0.30000012505E+02 0.  0.
         12    1    1    2    0    0  0.13586757995E+02 -0.30668876752E+02  0.22977931786E+02  0.40659136036E+02  0.00000000000E+00 0. -1.
         11    1    3    3    0    0  0.37861967366E+01  0.39578712207E+01 -0.23800835127E-01  0.54772800794E+01  0.51100000000E-03 0. -1.
        -11    1    3    3    0    0 -0.47497457812E+01  0.18476612510E+02 -0.19178766754E+01  0.19173511573E+02  0.51100000000E-03 0.  1.
        -12    1    3    3    0    0 -0.12623208950E+02  0.82343930213E+01 -0.21036254276E+02  0.25878072312E+02  0.00000000000E+00 0.  1.
</event>
<event>
 7    1  0.2575978E-011  0.5052886E+02  0.7816164E-02  0.1300439E+00
        -11   -1    0    0    0    0  0.00000000000E+00  0.00000000000E+00  0.45593999997E+02  0.45594000000E+02  0.51100000000E-03 0. -1.
         11   -1    0    0    0    0 -0.00000000000E+00 -0.00000000000E+00 -0.45593999997E+02  0.45594000000E+02  0.51100000000E-03 0.  1.
    9900012    2    1    2    0    0 -0.57941555326E+01  0.11294237964E+02 -0.38626847314E+02  0.50528863475E+02  0.30000011018E+02 0.  0.
         12    1    1    2    0    0  0.57941555326E+01 -0.11294237964E+02  0.38626847314E+02  0.40659136525E+02  0.00000000000E+00 0. -1.
         11    1    3    3    0    0  0.58336669285E+01  0.95403528983E+01 -0.63843532342E+01  0.12876722011E+02  0.51100000000E-03 0. -1.
        -11    1    3    3    0    0  0.35675459160E+01 -0.38290916938E+00 -0.32121879113E+01  0.48158233703E+01  0.51100000000E-03 0.  1.
        -12    1    3    3    0    0 -0.15195368377E+02  0.21367942351E+01 -0.29030306169E+02  0.32836318094E+02  0.00000000000E+00 0.  1.
</event>
<event>
 7    1  0.2575978E-011  0.5052885E+02  0.7816164E-02  0.1300439E+00
        -11   -1    0    0    0    0  0.00000000000E+00  0.00000000000E+00  0.45593999997E+02  0.45594000000E+02  0.51100000000E-03 0. -1.
         11   -1    0    0    0    0 -0.00000000000E+00 -0.00000000000E+00 -0.45593999997E+02  0.45594000000E+02  0.51100000000E-03 0.  1.
    9900012    2    1    2    0    0  0.70167543918E+01 -0.39499387915E+02  0.66128524563E+01  0.50528852130E+02  0.29999976535E+02 0.  0.
         12    1    1    2    0    0 -0.70167543918E+01  0.39499387915E+02 -0.66128524563E+01  0.40659147870E+02  0.00000000000E+00 0. -1.
         11    1    3    3    0    0 -0.24135793992E+01 -0.41424050045E+01  0.10655362703E+02  0.11684247487E+02  0.51100000000E-03 0. -1.
        -11    1    3    3    0    0  0.48190837169E+00 -0.53464322462E+01  0.37808610023E+01  0.65659335681E+01  0.51100000000E-03 0.  1.
        -12    1    3    3    0    0  0.89484254193E+01 -0.30010550665E+02 -0.78233712492E+01  0.32278671075E+02  0.00000000000E+00 0.  1.
</event>
<event>
 7    1  0.2575978E-011  0.5052886E+02  0.7816164E-02  0.1300439E+00
        -11   -1    0    0    0    0  0.00000000000E+00  0.00000000000E+00  0.45593999997E+02  0.45594000000E+02  0.51100000000E-03 0. -1.
         11   -1    0    0    0    0 -0.00000000000E+00 -0.00000000000E+00 -0.45593999997E+02  0.45594000000E+02  0.51100000000E-03 0.  1.
    9900012    2    1    2    0    0  0.29342004592E+01 -0.40238823083E+02 -0.50391644693E+01  0.50528860880E+02  0.30000003131E+02 0.  0.
         12    1    1    2    0    0 -0.29342004592E+01  0.40238823083E+02  0.50391644693E+01  0.40659139120E+02  0.00000000000E+00 0. -1.
         11    1    3    3    0    0  0.35718855781E+01 -0.50369887040E+01 -0.17203278375E+00  0.61773147343E+01  0.51100000000E-03 0. -1.
        -11    1    3    3    0    0  0.64619306631E+01 -0.32164002994E+02 -0.10880717924E+02  0.34563993683E+02  0.51100000000E-03 0.  1.
         12    1    3    3    0    0 -0.70996157820E+01 -0.30378313845E+01  0.60135862381E+01  0.97875524630E+01  0.00000000000E+00 0. -1.
</event>
<event>
 7    1  0.2575978E-011  0.5052886E+02  0.7816164E-02  0.1300439E+00
        -11   -1    0    0    0    0  0.00000000000E+00  0.00000000000E+00  0.45593999997E+02  0.45594000000E+02  0.51100000000E-03 0.  1.
         11   -1    0    0    0    0 -0.00000000000E+00 -0.00000000000E+00 -0.45593999997E+02  0.45594000000E+02  0.51100000000E-03 0. -1.
    9900012    2    1    2    0    0 -0.89819388515E+01 -0.33765316580E+02  0.20794085684E+02  0.50528857993E+02  0.29999994357E+02 0.  0.
         12    1    1    2    0    0  0.89819388515E+01  0.33765316580E+02 -0.20794085684E+02  0.40659142007E+02  0.00000000000E+00 0. -1.
         11    1    3    3    0    0 -0.91584232283E-01 -0.20800985357E+02 -0.26716382534E+00  0.20802902593E+02  0.51100000000E-03 0. -1.
        -11    1    3    3    0    0  0.35726007557E+01 -0.10737915146E+01  0.32452044094E+01  0.49444773532E+01  0.51100000000E-03 0.  1.
         12    1    3    3    0    0 -0.12462955375E+02 -0.11890539708E+02  0.17816045100E+02  0.24781478048E+02  0.00000000000E+00 0. -1.
</event>
<event>
 7    1  0.2575978E-011  0.5052886E+02  0.7816164E-02  0.1300439E+00
        -11   -1    0    0    0    0  0.00000000000E+00  0.00000000000E+00  0.45593999997E+02  0.45594000000E+02  0.51100000000E-03 0.  1.
         11   -1    0    0    0    0 -0.00000000000E+00 -0.00000000000E+00 -0.45593999997E+02  0.45594000000E+02  0.51100000000E-03 0. -1.
    9900012    2    1    2    0    0 -0.41177738930E+00 -0.37741881208E+02  0.15117767220E+02  0.50528855352E+02  0.29999986329E+02 0.  0.
         12    1    1    2    0    0  0.41177738930E+00  0.37741881208E+02 -0.15117767220E+02  0.40659144648E+02  0.00000000000E+00 0. -1.
         11    1    3    3    0    0  0.12012636382E+02 -0.20601156162E+02  0.10403172239E+02  0.26018014162E+02  0.51100000000E-03 0. -1.
        -11    1    3    3    0    0  0.16832862387E+00 -0.84951636911E+01  0.34942185407E+01  0.91872577048E+01  0.51100000000E-03 0.  1.
         12    1    3    3    0    0 -0.12592742395E+02 -0.86455613551E+01  0.12203764403E+01  0.15323583485E+02  0.00000000000E+00 0. -1.
</event>
<event>
 7    1  0.2575978E-011  0.5052886E+02  0.7816164E-02  0.1300439E+00
        -11   -1    0    0    0    0  0.00000000000E+00  0.00000000000E+00  0.45593999997E+02  0.45594000000E+02  0.51100000000E-03 0.  1.
         11   -1    0    0    0    0 -0.00000000000E+00 -0.00000000000E+00 -0.45593999997E+02  0.45594000000E+02  0.51100000000E-03 0. -1.
    9900012    2    1    2    0    0  0.12152893561E+02  0.34560629200E+02 -0.17636208643E+02  0.50528858741E+02  0.29999996630E+02 0.  0.
         12    1    1    2    0    0 -0.12152893561E+02 -0.34560629200E+02  0.17636208643E+02  0.40659141259E+02  0.00000000000E+00 0. -1.
         11    1    3    3    0    0  0.32634068055E+01  0.34648060790E-01 -0.84212086244E+01  0.90314882175E+01  0.51100000000E-03 0. -1.
        -11    1    3    3    0    0 -0.42475336178E+01  0.31393846790E+01 -0.48913212356E+01  0.71987708457E+01  0.51100000000E-03 0.  1.
        -12    1    3    3    0    0  0.13137020373E+02  0.31386596460E+02 -0.43236787829E+01  0.34298599678E+02  0.00000000000E+00 0.  1.
</event>
<event>
 7    1  0.2575978E-011  0.5052885E+02  0.7816164E-02  0.1300439E+00
        -11   -1    0    0    0    0  0.00000000000E+00  0.00000000000E+00  0.45593999997E+02  0.45594000000E+02  0.51100000000E-03 0.  1.
         11   -1    0    0    0    0 -0.00000000000E+00 -0.00000000000E+00 -0.45593999997E+02  0.45594000000E+02  0.51100000000E-03 0. -1.
    9900012    2    1    2    0    0 -0.39527177391E+02 -0.68914029416E+01  0.65785314881E+01  0.50528852646E+02  0.29999978102E+02 0.  0.
         12    1    1    2    0    0  0.39527177391E+02  0.68914029416E+01 -0.65785314881E+01  0.40659147354E+02  0.00000000000E+00 0. -1.
         11    1    3    3    0    0 -0.31719746793E+01 -0.91732564087E+01  0.38751958321E+01  0.10451181728E+02  0.51100000000E-03 0. -1.
        -11    1    3    3    0    0 -0.21292159793E+02 -0.59958296397E+01 -0.21321335301E+01  0.22222781900E+02  0.51100000000E-03 0.  1.
        -12    1    3    3    0    0 -0.15063042919E+02  0.82776831068E+01  0.48354691860E+01  0.17854889018E+02  0.00000000000E+00 0.  1.
</event>
<event>
 7    1  0.2575978E-011  0.5052887E+02  0.7816164E-02  0.1300439E+00
        -11   -1    0    0    0    0  0.00000000000E+00  0.00000000000E+00  0.45593999997E+02  0.45594000000E+02  0.51100000000E-03 0.  1.
         11   -1    0    0    0    0 -0.00000000000E+00 -0.00000000000E+00 -0.45593999997E+02  0.45594000000E+02  0.51100000000E-03 0. -1.
    9900012    2    1    2    0    0 -0.30841975876E+02  0.11152850392E+02  0.24032305381E+02  0.50528865113E+02  0.30000015998E+02 0.  0.
         12    1    1    2    0    0  0.30841975876E+02 -0.11152850392E+02 -0.24032305381E+02  0.40659134887E+02  0.00000000000E+00 0. -1.
         11    1    3    3    0    0 -0.96192856690E-01 -0.70441935838E+01  0.62585666042E+01  0.94233525092E+01  0.51100000000E-03 0. -1.
        -11    1    3    3    0    0 -0.99820323581E+01  0.10243698144E+02  0.10383743558E+02  0.17674740513E+02  0.51100000000E-03 0.  1.
        -12    1    3    3    0    0 -0.20763750661E+02  0.79533458315E+01  0.73899952192E+01  0.23430772091E+02  0.00000000000E+00 0.  1.
</event>
<event>
 7    1  0.2575978E-011  0.5052887E+02  0.7816164E-02  0.1300439E+00
        -11   -1    0    0    0    0  0.00000000000E+00  0.00000000000E+00  0.45593999997E+02  0.45594000000E+02  0.51100000000E-03 0.  1.
         11   -1    0    0    0    0 -0.00000000000E+00 -0.00000000000E+00 -0.45593999997E+02  0.45594000000E+02  0.51100000000E-03 0. -1.
    9900012    2    1    2    0    0  0.28291278634E+02  0.28223695051E+02  0.74961141066E+01  0.50528866515E+02  0.30000020259E+02 0.  0.
         12    1    1    2    0    0 -0.28291278634E+02 -0.28223695051E+02 -0.74961141066E+01  0.40659133485E+02  0.00000000000E+00 0. -1.
         11    1    3    3    0    0  0.33035755205E+01  0.10018923406E+02 -0.80523975124E+01  0.13271531313E+02  0.51100000000E-03 0. -1.
        -11    1    3    3    0    0  0.16792117255E+02  0.17373186127E+02  0.65006796598E+01  0.25021223679E+02  0.51100000000E-03 0.  1.
         12    1    3    3    0    0  0.81955858579E+01  0.83158551816E+00  0.90478319592E+01  0.12236111523E+02  0.00000000000E+00 0. -1.
</event>
<event>
 7    1  0.2575978E-011  0.5052887E+02  0.7816164E-02  0.1300439E+00
        -11   -1    0    0    0    0  0.00000000000E+00  0.00000000000E+00  0.45593999997E+02  0.45594000000E+02  0.51100000000E-03 0. -1.
         11   -1    0    0    0    0 -0.00000000000E+00 -0.00000000000E+00 -0.45593999997E+02  0.45594000000E+02  0.51100000000E-03 0.  1.
    9900012    2    1    2    0    0  0.78081470883E+00  0.33408944050E+02 -0.23160253937E+02  0.50528873391E+02  0.30000041160E+02 0.  0.
         12    1    1    2    0    0 -0.78081470883E+00 -0.33408944050E+02  0.23160253937E+02  0.40659126609E+02  0.00000000000E+00 0. -1.
         11    1    3    3    0    0 -0.17083051877E+01  0.33768509391E+02 -0.13415626737E+02  0.36375947741E+02  0.51100000000E-03 0. -1.
        -11    1    3    3    0    0  0.12294943522E+01  0.46152107717E+01 -0.65557080149E+01  0.81110501581E+01  0.51100000000E-03 0.  1.
         12    1    3    3    0    0  0.12596255443E+01 -0.49747761126E+01 -0.31889191858E+01  0.60418754916E+01  0.00000000000E+00 0. -1.
</event>
<event>
 7    1  0.2575978E-011  0.5052887E+02  0.7816164E-02  0.1300439E+00
        -11   -1    0    0    0    0  0.00000000000E+00  0.00000000000E+00  0.45593999997E+02  0.45594000000E+02  0.51100000000E-03 0.  1.
         11   -1    0    0    0    0 -0.00000000000E+00 -0.00000000000E+00 -0.45593999997E+02  0.45594000000E+02  0.51100000000E-03 0. -1.
    9900012    2    1    2    0    0  0.40624101315E+02 -0.16689453115E+01  0.24917894413E+00  0.50528867247E+02  0.30000022483E+02 0.  0.
         12    1    1    2    0    0 -0.40624101315E+02  0.16689453115E+01 -0.24917894413E+00  0.40659132753E+02  0.00000000000E+00 0. -1.
         11    1    3    3    0    0  0.11763483702E+01 -0.55697463277E+01  0.59693690261E+01  0.82485899689E+01  0.51100000000E-03 0. -1.
        -11    1    3    3    0    0  0.27898832678E+01  0.26446980706E+01  0.26359188173E+01  0.46611098255E+01  0.51100000000E-03 0.  1.
         12    1    3    3    0    0  0.36657869677E+02  0.12561029456E+01 -0.83561088993E+01  0.37619167452E+02  0.00000000000E+00 0. -1.
</event>
<event>
 7    1  0.2575978E-011  0.5052886E+02  0.7816164E-02  0.1300439E+00
        -11   -1    0    0    0    0  0.00000000000E+00  0.00000000000E+00  0.45593999997E+02  0.45594000000E+02  0.51100000000E-03 0.  1.
         11   -1    0    0    0    0 -0.00000000000E+00 -0.00000000000E+00 -0.45593999997E+02  0.45594000000E+02  0.51100000000E-03 0. -1.
    9900012    2    1    2    0    0 -0.36686806436E+02 -0.17479206479E+02  0.13119339145E+01  0.50528860853E+02  0.30000003047E+02 0.  0.
         12    1    1    2    0    0  0.36686806436E+02  0.17479206479E+02 -0.13119339145E+01  0.40659139147E+02  0.00000000000E+00 0. -1.
         11    1    3    3    0    0 -0.16714122640E+02  0.58072298712E+01  0.16297003090E+01  0.17769123157E+02  0.51100000000E-03 0. -1.
        -11    1    3    3    0    0 -0.53558228756E+01 -0.51963059257E+00  0.16632919094E+01  0.56321749675E+01  0.51100000000E-03 0.  1.
        -12    1    3    3    0    0 -0.14616860921E+02 -0.22766805758E+02 -0.19810583039E+01  0.27127562728E+02  0.00000000000E+00 0.  1.
</event>
<event>
 7    1  0.2575978E-011  0.5052888E+02  0.7816164E-02  0.1300439E+00
        -11   -1    0    0    0    0  0.00000000000E+00  0.00000000000E+00  0.45593999997E+02  0.45594000000E+02  0.51100000000E-03 0.  1.
         11   -1    0    0    0    0 -0.00000000000E+00 -0.00000000000E+00 -0.45593999997E+02  0.45594000000E+02  0.51100000000E-03 0. -1.
    9900012    2    1    2    0    0  0.21572604026E+02 -0.32690178625E+02  0.10915079354E+02  0.50528880723E+02  0.30000063447E+02 0.  0.
         12    1    1    2    0    0 -0.21572604026E+02  0.32690178625E+02 -0.10915079354E+02  0.40659119277E+02  0.00000000000E+00 0. -1.
         11    1    3    3    0    0  0.65739904391E+01 -0.75981253825E+01 -0.37314148851E+01  0.10717850387E+02  0.51100000000E-03 0. -1.
        -11    1    3    3    0    0  0.94995933961E+01 -0.48422331489E+01 -0.43409490582E+01  0.11512312346E+02  0.51100000000E-03 0.  1.
        -12    1    3    3    0    0  0.54990201911E+01 -0.20249820094E+02  0.18987443298E+02  0.28298717990E+02  0.00000000000E+00 0.  1.
</event>
<event>
 7    1  0.2575978E-011  0.5052887E+02  0.7816164E-02  0.1300439E+00
        -11   -1    0    0    0    0  0.00000000000E+00  0.00000000000E+00  0.45593999997E+02  0.45594000000E+02  0.51100000000E-03 0. -1.
         11   -1    0    0    0    0 -0.00000000000E+00 -0.00000000000E+00 -0.45593999997E+02  0.45594000000E+02  0.51100000000E-03 0.  1.
    9900012    2    1    2    0    0  0.15384394756E+02  0.27856620837E+02 -0.25307984881E+02  0.50528867875E+02  0.30000024393E+02 0.  0.
         12    1    1    2    0    0 -0.15384394756E+02 -0.27856620837E+02  0.25307984881E+02  0.40659132125E+02  0.00000000000E+00 0. -1.
         11    1    3    3    0    0  0.56614645509E+01  0.63500317615E+01 -0.66904649905E+01  0.10823003570E+02  0.51100000000E-03 0. -1.
        -11    1    3    3    0    0  0.18607287405E+02  0.13795298073E+02 -0.14015926875E+02  0.27073743737E+02  0.51100000000E-03 0.  1.
         12    1    3    3    0    0 -0.88843571997E+01  0.77112910020E+01 -0.46015930150E+01  0.12632120568E+02  0.00000000000E+00 0. -1.
</event>
<event>
 7    1  0.2575978E-011  0.5052887E+02  0.7816164E-02  0.1300439E+00
        -11   -1    0    0    0    0  0.00000000000E+00  0.00000000000E+00  0.45593999997E+02  0.45594000000E+02  0.51100000000E-03 0.  1.
         11   -1    0    0    0    0 -0.00000000000E+00 -0.00000000000E+00 -0.45593999997E+02  0.45594000000E+02  0.51100000000E-03 0. -1.
    9900012    2    1    2    0    0  0.23802901511E+00 -0.29908602937E+02  0.27542402653E+02  0.50528866569E+02  0.30000020424E+02 0.  0.
         12    1    1    2    0    0 -0.23802901511E+00  0.29908602937E+02 -0.27542402653E+02  0.40659133431E+02  0.00000000000E+00 0. -1.
         11    1    3    3    0    0 -0.75148732738E+00 -0.91842192139E+01  0.14993390824E+01  0.93360930649E+01  0.51100000000E-03 0. -1.
        -11    1    3    3    0    0 -0.27034984807E+01 -0.11345665224E+02 -0.15970230994E+01  0.11772149611E+02  0.51100000000E-03 0.  1.
         12    1    3    3    0    0  0.36930148232E+01 -0.93787184986E+01  0.27640086670E+02  0.29420623893E+02  0.00000000000E+00 0. -1.
</event>
<event>
 7    1  0.2575978E-011  0.5052884E+02  0.7816164E-02  0.1300439E+00
        -11   -1    0    0    0    0  0.00000000000E+00  0.00000000000E+00  0.45593999997E+02  0.45594000000E+02  0.51100000000E-03 0.  1.
         11   -1    0    0    0    0 -0.00000000000E+00 -0.00000000000E+00 -0.45593999997E+02  0.45594000000E+02  0.51100000000E-03 0. -1.
    9900012    2    1    2    0    0 -0.83487683087E+01 -0.19116546168E+02  0.34900182401E+02  0.50528843574E+02  0.29999950527E+02 0.  0.
         12    1    1    2    0    0  0.83487683087E+01  0.19116546168E+02 -0.34900182401E+02  0.40659156426E+02  0.00000000000E+00 0. -1.
         11    1    3    3    0    0 -0.58905797435E-01 -0.65225480600E+01  0.31996654920E+01  0.72653260498E+01  0.51100000000E-03 0. -1.
        -11    1    3    3    0    0 -0.18150285508E+01 -0.18317803858E+02  0.28737875070E+02  0.34127726713E+02  0.51100000000E-03 0.  1.
         12    1    3    3    0    0 -0.64748339604E+01  0.57238057494E+01  0.29626418385E+01  0.91357908106E+01  0.00000000000E+00 0. -1.
</event>
<event>
 7    1  0.2575978E-011  0.5052886E+02  0.7816164E-02  0.1300439E+00
        -11   -1    0    0    0    0  0.00000000000E+00  0.00000000000E+00  0.45593999997E+02  0.45594000000E+02  0.51100000000E-03 0. -1.
         11   -1    0    0    0    0 -0.00000000000E+00 -0.00000000000E+00 -0.45593999997E+02  0.45594000000E+02  0.51100000000E-03 0.  1.
    9900012    2    1    2    0    0 -0.17641967330E+02  0.29325048121E+00 -0.36631141394E+02  0.50528861704E+02  0.30000005637E+02 0.  0.
         12    1    1    2    0    0  0.17641967330E+02 -0.29325048121E+00  0.36631141394E+02  0.40659138296E+02  0.00000000000E+00 0. -1.
         11    1    3    3    0    0  0.35890824104E+01 -0.44839064341E+01 -0.16972696092E+01  0.59889609988E+01  0.51100000000E-03 0. -1.
        -11    1    3    3    0    0 -0.15486719028E+02 -0.49560276233E+01 -0.22129053847E+02  0.27460802983E+02  0.51100000000E-03 0.  1.
         12    1    3    3    0    0 -0.57443307129E+01  0.97331845386E+01 -0.12804817938E+02  0.17079097723E+02  0.00000000000E+00 0. -1.
</event>
<event>
 7    1  0.2575978E-011  0.5052886E+02  0.7816164E-02  0.1300439E+00
        -11   -1    0    0    0    0  0.00000000000E+00  0.00000000000E+00  0.45593999997E+02  0.45594000000E+02  0.51100000000E-03 0.  1.
         11   -1    0    0    0    0 -0.00000000000E+00 -0.00000000000E+00 -0.45593999997E+02  0.45594000000E+02  0.51100000000E-03 0. -1.
    9900012    2    1    2    0    0  0.25599796095E+02  0.15489490422E+02  0.27529828815E+02  0.50528863903E+02  0.30000012318E+02 0.  0.
         12    1    1    2    0    0 -0.25599796095E+02 -0.15489490422E+02 -0.27529828815E+02  0.40659136097E+02  0.00000000000E+00 0. -1.
         11    1    3    3    0    0  0.40045845364E+01 -0.21068341813E+01  0.27698675188E+00  0.45334500657E+01  0.51100000000E-03 0. -1.
        -11    1    3    3    0    0 -0.20901436848E+01 -0.42549051049E+01  0.24903909095E+01  0.53549010465E+01  0.51100000000E-03 0.  1.
        -12    1    3    3    0    0  0.23685355243E+02  0.21851229708E+02  0.24762451154E+02  0.40640512790E+02  0.00000000000E+00 0.  1.
</event>
<event>
 7    1  0.2575978E-011  0.5052887E+02  0.7816164E-02  0.1300439E+00
        -11   -1    0    0    0    0  0.00000000000E+00  0.00000000000E+00  0.45593999997E+02  0.45594000000E+02  0.51100000000E-03 0.  1.
         11   -1    0    0    0    0 -0.00000000000E+00 -0.00000000000E+00 -0.45593999997E+02  0.45594000000E+02  0.51100000000E-03 0. -1.
    9900012    2    1    2    0    0  0.28543339897E+02 -0.13104835139E+02  0.25820646503E+02  0.50528871353E+02  0.30000034964E+02 0.  0.
         12    1    1    2    0    0 -0.28543339897E+02  0.13104835139E+02 -0.25820646503E+02  0.40659128647E+02  0.00000000000E+00 0. -1.
         11    1    3    3    0    0 -0.11187308445E+01  0.37680607310E+01  0.31838666159E+00  0.39435023396E+01  0.51100000000E-03 0. -1.
        -11    1    3    3    0    0 -0.12896324048E+00 -0.53235309194E+01  0.94054053685E+01  0.10808249783E+02  0.51100000000E-03 0.  1.
        -12    1    3    3    0    0  0.29791033982E+02 -0.11549364951E+02  0.16096854473E+02  0.35777119230E+02  0.00000000000E+00 0.  1.
</event>
<event>
 7    1  0.2575978E-011  0.5052886E+02  0.7816164E-02  0.1300439E+00
        -11   -1    0    0    0    0  0.00000000000E+00  0.00000000000E+00  0.45593999997E+02  0.45594000000E+02  0.51100000000E-03 0.  1.
         11   -1    0    0    0    0 -0.00000000000E+00 -0.00000000000E+00 -0.45593999997E+02  0.45594000000E+02  0.51100000000E-03 0. -1.
    9900012    2    1    2    0    0  0.21209321184E+02 -0.14996467274E+02  0.31279965934E+02  0.50528860750E+02  0.30000002735E+02 0.  0.
         12    1    1    2    0    0 -0.21209321184E+02  0.14996467274E+02 -0.31279965934E+02  0.40659139250E+02  0.00000000000E+00 0. -1.
         11    1    3    3    0    0  0.19517777269E+02 -0.10702220183E+02  0.13620138992E+02  0.26095772316E+02  0.51100000000E-03 0. -1.
        -11    1    3    3    0    0  0.38455827271E+01 -0.87054218114E+01  0.16996354519E+02  0.19479449238E+02  0.51100000000E-03 0.  1.
         12    1    3    3    0    0 -0.21540388125E+01  0.44111747203E+01  0.66347242276E+00  0.49536391950E+01  0.00000000000E+00 0. -1.
</event>
<event>
 7    1  0.2575978E-011  0.5052886E+02  0.7816164E-02  0.1300439E+00
        -11   -1    0    0    0    0  0.00000000000E+00  0.00000000000E+00  0.45593999997E+02  0.45594000000E+02  0.51100000000E-03 0. -1.
         11   -1    0    0    0    0 -0.00000000000E+00 -0.00000000000E+00 -0.45593999997E+02  0.45594000000E+02  0.51100000000E-03 0.  1.
    9900012    2    1    2    0    0 -0.31487550830E+02 -0.25712066939E+02 -0.76786492625E+00  0.50528857607E+02  0.29999993183E+02 0.  0.
         12    1    1    2    0    0  0.31487550830E+02  0.25712066939E+02  0.76786492625E+00  0.40659142393E+02  0.00000000000E+00 0. -1.
         11    1    3    3    0    0 -0.16369880269E+02 -0.17825237503E+02  0.23913656998E+01  0.24319348310E+02  0.51100000000E-03 0. -1.
        -11    1    3    3    0    0 -0.12790506940E+02 -0.86954425170E+01 -0.10348973943E+02  0.18609380707E+02  0.51100000000E-03 0.  1.
        -12    1    3    3    0    0 -0.23271636205E+01  0.80861308084E+00  0.71897433167E+01  0.76001285904E+01  0.00000000000E+00 0.  1.
</event>
<event>
 7    1  0.2575978E-011  0.5052888E+02  0.7816164E-02  0.1300439E+00
        -11   -1    0    0    0    0  0.00000000000E+00  0.00000000000E+00  0.45593999997E+02  0.45594000000E+02  0.51100000000E-03 0.  1.
         11   -1    0    0    0    0 -0.00000000000E+00 -0.00000000000E+00 -0.45593999997E+02  0.45594000000E+02  0.51100000000E-03 0. -1.
    9900012    2    1    2    0    0 -0.19541930822E+02  0.29629780647E+02  0.19833124676E+02  0.50528882992E+02  0.30000070341E+02 0.  0.
         12    1    1    2    0    0  0.19541930822E+02 -0.29629780647E+02 -0.19833124676E+02  0.40659117008E+02  0.00000000000E+00 0. -1.
         11    1    3    3    0    0  0.28434551059E+01  0.36841591114E+01 -0.17701041315E+01  0.49791097794E+01  0.51100000000E-03 0. -1.
        -11    1    3    3    0    0 -0.23741276258E+01  0.62421573684E+01 -0.37980715037E+01  0.76828613162E+01  0.51100000000E-03 0.  1.
        -12    1    3    3    0    0 -0.20011258302E+02  0.19703464168E+02  0.25401300311E+02  0.37866911896E+02  0.00000000000E+00 0.  1.
</event>
<event>
 7    1  0.2575978E-011  0.5052886E+02  0.7816164E-02  0.1300439E+00
        -11   -1    0    0    0    0  0.00000000000E+00  0.00000000000E+00  0.45593999997E+02  0.45594000000E+02  0.51100000000E-03 0. -1.
         11   -1    0    0    0    0 -0.00000000000E+00 -0.00000000000E+00 -0.45593999997E+02  0.45594000000E+02  0.51100000000E-03 0.  1.
    9900012    2    1    2    0    0 -0.38770669662E+02  0.12247415262E+02 -0.41651427179E-01  0.50528859066E+02  0.29999997618E+02 0.  0.
         12    1    1    2    0    0  0.38770669662E+02 -0.12247415262E+02  0.41651427179E-01  0.40659140934E+02  0.00000000000E+00 0. -1.
         11    1    3    3    0    0 -0.13236498136E+02  0.81743808135E+01  0.33698127540E+01  0.15917946565E+02  0.51100000000E-03 0. -1.
        -11    1    3    3    0    0 -0.16108381301E+02  0.13352123006E+02 -0.42788776187E+01  0.21355747022E+02  0.51100000000E-03 0.  1.
         12    1    3    3    0    0 -0.94257902248E+01 -0.92790885579E+01  0.86741343754E+00  0.13255165480E+02  0.00000000000E+00 0. -1.
</event>
<event>
 7    1  0.2575978E-011  0.5052885E+02  0.7816164E-02  0.1300439E+00
        -11   -1    0    0    0    0  0.00000000000E+00  0.00000000000E+00  0.45593999997E+02  0.45594000000E+02  0.51100000000E-03 0. -1.
         11   -1    0    0    0    0 -0.00000000000E+00 -0.00000000000E+00 -0.45593999997E+02  0.45594000000E+02  0.51100000000E-03 0.  1.
    9900012    2    1    2    0    0  0.31156274698E+02 -0.22104157459E+02  0.13923337631E+02  0.50528848991E+02  0.29999966992E+02 0.  0.
         12    1    1    2    0    0 -0.31156274698E+02  0.22104157459E+02 -0.13923337631E+02  0.40659151009E+02  0.00000000000E+00 0. -1.
         11    1    3    3    0    0  0.11122614353E+02 -0.13017057946E+02 -0.11622130096E+01  0.17161208785E+02  0.51100000000E-03 0. -1.
        -11    1    3    3    0    0  0.19011780780E+02 -0.10950073190E+02  0.42776596875E+01  0.22352858519E+02  0.51100000000E-03 0.  1.
         12    1    3    3    0    0  0.10218795653E+01  0.18629736770E+01  0.10807890953E+02  0.11014781687E+02  0.00000000000E+00 0. -1.
</event>
<event>
 7    1  0.2575978E-011  0.5052887E+02  0.7816164E-02  0.1300439E+00
        -11   -1    0    0    0    0  0.00000000000E+00  0.00000000000E+00  0.45593999997E+02  0.45594000000E+02  0.51100000000E-03 0.  1.
         11   -1    0    0    0    0 -0.00000000000E+00 -0.00000000000E+00 -0.45593999997E+02  0.45594000000E+02  0.51100000000E-03 0. -1.
    9900012    2    1    2    0    0 -0.20905652997E+02 -0.55964949252E+01  0.34420886006E+02  0.50528874627E+02  0.30000044916E+02 0.  0.
         12    1    1    2    0    0  0.20905652997E+02  0.55964949252E+01 -0.34420886006E+02  0.40659125373E+02  0.00000000000E+00 0. -1.
         11    1    3    3    0    0 -0.27698964509E+00 -0.52085568873E+01 -0.36184856561E+01  0.63481672013E+01  0.51100000000E-03 0. -1.
        -11    1    3    3    0    0 -0.20588905510E+01  0.23673708818E+00  0.27188702982E+00  0.20902147181E+01  0.51100000000E-03 0.  1.
        -12    1    3    3    0    0 -0.18569772801E+02 -0.62467512612E+00  0.37767484632E+02  0.42090492707E+02  0.00000000000E+00 0.  1.
</event>
<event>
 7    1  0.2575978E-011  0.5052886E+02  0.7816164E-02  0.1300439E+00
        -11   -1    0    0    0    0  0.00000000000E+00  0.00000000000E+00  0.45593999997E+02  0.45594000000E+02  0.51100000000E-03 0.  1.
         11   -1    0    0    0    0 -0.00000000000E+00 -0.00000000000E+00 -0.45593999997E+02  0.45594000000E+02  0.51100000000E-03 0. -1.
    9900012    2    1    2    0    0 -0.28340351667E+02  0.91604439952E+01  0.27678090548E+02  0.50528856340E+02  0.29999989331E+02 0.  0.
         12    1    1    2    0    0  0.28340351667E+02 -0.91604439952E+01 -0.27678090548E+02  0.40659143660E+02  0.00000000000E+00 0. -1.
         11    1    3    3    0    0 -0.73412899790E+01  0.54206952465E+01  0.10242680699E+02  0.13718271891E+02  0.51100000000E-03 0. -1.
        -11    1    3    3    0    0 -0.17300259148E+02 -0.87319999940E+01  0.11228390257E+02  0.22396953777E+02  0.51100000000E-03 0.  1.
         12    1    3    3    0    0 -0.36988025400E+01  0.12471748743E+02  0.62070195919E+01  0.14413630672E+02  0.00000000000E+00 0. -1.
</event>
<event>
 7    1  0.2575978E-011  0.5052886E+02  0.7816164E-02  0.1300439E+00
        -11   -1    0    0    0    0  0.00000000000E+00  0.00000000000E+00  0.45593999997E+02  0.45594000000E+02  0.51100000000E-03 0. -1.
         11   -1    0    0    0    0 -0.00000000000E+00 -0.00000000000E+00 -0.45593999997E+02  0.45594000000E+02  0.51100000000E-03 0.  1.
    9900012    2    1    2    0    0  0.18422081132E+02  0.23676427627E+02 -0.27444840707E+02  0.50528861054E+02  0.30000003659E+02 0.  0.
         12    1    1    2    0    0 -0.18422081132E+02 -0.23676427627E+02  0.27444840707E+02  0.40659138946E+02  0.00000000000E+00 0. -1.
         11    1    3    3    0    0  0.81855015403E+01  0.99544460245E+01 -0.12903578400E+02  0.18237208309E+02  0.51100000000E-03 0. -1.
        -11    1    3    3    0    0  0.15438743500E+02  0.16415609496E+02 -0.13701935209E+02  0.26373662331E+02  0.51100000000E-03 0.  1.
         12    1    3    3    0    0 -0.52021639088E+01 -0.26936278938E+01 -0.83932709824E+00  0.59179904142E+01  0.00000000000E+00 0. -1.
</event>
<event>
 7    1  0.2575978E-011  0.5052887E+02  0.7816164E-02  0.1300439E+00
        -11   -1    0    0    0    0  0.00000000000E+00  0.00000000000E+00  0.45593999997E+02  0.45594000000E+02  0.51100000000E-03 0. -1.
         11   -1    0    0    0    0 -0.00000000000E+00 -0.00000000000E+00 -0.45593999997E+02  0.45594000000E+02  0.51100000000E-03 0.  1.
    9900012    2    1    2    0    0  0.87484244835E+01 -0.39010205334E+02 -0.74049822868E+01  0.50528870474E+02  0.30000032292E+02 0.  0.
         12    1    1    2    0    0 -0.87484244835E+01  0.39010205334E+02  0.74049822868E+01  0.40659129526E+02  0.00000000000E+00 0. -1.
         11    1    3    3    0    0 -0.36007936930E+01 -0.20344601059E+02 -0.63929805622E+01  0.21627267700E+02  0.51100000000E-03 0. -1.
        -11    1    3    3    0    0  0.10585165680E+02 -0.22197995708E+02 -0.24160612868E+01  0.24711011682E+02  0.51100000000E-03 0.  1.
         12    1    3    3    0    0  0.17640524970E+01  0.35323914326E+01  0.14040595621E+01  0.41905910919E+01  0.00000000000E+00 0. -1.
</event>
<event>
 7    1  0.2575978E-011  0.5052886E+02  0.7816164E-02  0.1300439E+00
        -11   -1    0    0    0    0  0.00000000000E+00  0.00000000000E+00  0.45593999997E+02  0.45594000000E+02  0.51100000000E-03 0.  1.
         11   -1    0    0    0    0 -0.00000000000E+00 -0.00000000000E+00 -0.45593999997E+02  0.45594000000E+02  0.51100000000E-03 0. -1.
    9900012    2    1    2    0    0 -0.22416265587E+02 -0.18297550366E+02  0.28563555754E+02  0.50528855524E+02  0.29999986850E+02 0.  0.
         12    1    1    2    0    0  0.22416265587E+02  0.18297550366E+02 -0.28563555754E+02  0.40659144476E+02  0.00000000000E+00 0. -1.
         11    1    3    3    0    0 -0.13746140816E+02 -0.44974712582E+01  0.16174937428E+02  0.21698208131E+02  0.51100000000E-03 0. -1.
        -11    1    3    3    0    0 -0.10205967243E+02 -0.63925415372E+01  0.16337999015E+02  0.20296713201E+02  0.51100000000E-03 0.  1.
         12    1    3    3    0    0  0.15358424726E+01 -0.74075375704E+01 -0.39493806894E+01  0.85339341916E+01  0.00000000000E+00 0. -1.
</event>
<event>
 7    1  0.2575978E-011  0.5052886E+02  0.7816164E-02  0.1300439E+00
        -11   -1    0    0    0    0  0.00000000000E+00  0.00000000000E+00  0.45593999997E+02  0.45594000000E+02  0.51100000000E-03 0. -1.
         11   -1    0    0    0    0 -0.00000000000E+00 -0.00000000000E+00 -0.45593999997E+02  0.45594000000E+02  0.51100000000E-03 0.  1.
    9900012    2    1    2    0    0 -0.55454386253E+01  0.64133489769E+01 -0.39765345947E+02  0.50528859909E+02  0.30000000180E+02 0.  0.
         12    1    1    2    0    0  0.55454386253E+01 -0.64133489769E+01  0.39765345947E+02  0.40659140091E+02  0.00000000000E+00 0. -1.
         11    1    3    3    0    0 -0.22345951512E+01  0.45965059460E+01 -0.88241146806E+01  0.10197366452E+02  0.51100000000E-03 0.  1.
        -11    1    3    3    0    0 -0.88023936064E+01  0.92522033990E+01 -0.27758903270E+02  0.30555557792E+02  0.51100000000E-03 0. -1.
         12    1    3    3    0    0  0.54915501323E+01 -0.74353603681E+01 -0.31823279963E+01  0.97759356655E+01  0.00000000000E+00 0. -1.
</event>
<event>
 7    1  0.2575978E-011  0.5052886E+02  0.7816164E-02  0.1300439E+00
        -11   -1    0    0    0    0  0.00000000000E+00  0.00000000000E+00  0.45593999997E+02  0.45594000000E+02  0.51100000000E-03 0. -1.
         11   -1    0    0    0    0 -0.00000000000E+00 -0.00000000000E+00 -0.45593999997E+02  0.45594000000E+02  0.51100000000E-03 0.  1.
    9900012    2    1    2    0    0  0.63340407552E+01 -0.32700709572E+02  0.23317571691E+02  0.50528860457E+02  0.30000001845E+02 0.  0.
         12    1    1    2    0    0 -0.63340407552E+01  0.32700709572E+02 -0.23317571691E+02  0.40659139543E+02  0.00000000000E+00 0. -1.
         11    1    3    3    0    0 -0.98134939115E+00 -0.11748395971E+02  0.21243394699E+02  0.24295466102E+02  0.51100000000E-03 0. -1.
        -11    1    3    3    0    0 -0.24136689053E+01 -0.91058593311E+01  0.49420305762E+01  0.10637957427E+02  0.51100000000E-03 0.  1.
         12    1    3    3    0    0  0.97290590516E+01 -0.11846454270E+02 -0.28678535841E+01  0.15595436928E+02  0.00000000000E+00 0. -1.
</event>
<event>
 7    1  0.2575978E-011  0.5052887E+02  0.7816164E-02  0.1300439E+00
        -11   -1    0    0    0    0  0.00000000000E+00  0.00000000000E+00  0.45593999997E+02  0.45594000000E+02  0.51100000000E-03 0.  1.
         11   -1    0    0    0    0 -0.00000000000E+00 -0.00000000000E+00 -0.45593999997E+02  0.45594000000E+02  0.51100000000E-03 0. -1.
    9900012    2    1    2    0    0 -0.24339386653E+02 -0.97116264583E+01  0.31087676230E+02  0.50528867637E+02  0.30000023669E+02 0.  0.
         12    1    1    2    0    0  0.24339386653E+02  0.97116264583E+01 -0.31087676230E+02  0.40659132363E+02  0.00000000000E+00 0. -1.
         11    1    3    3    0    0 -0.10996643151E+02 -0.74617272039E+01  0.11167462206E+02  0.17358448831E+02  0.51100000000E-03 0. -1.
        -11    1    3    3    0    0 -0.87469388578E+01 -0.10693833675E+02  0.19029389501E+02  0.23515626360E+02  0.51100000000E-03 0.  1.
         12    1    3    3    0    0 -0.45958046442E+01  0.84439344209E+01  0.89082452332E+00  0.96547924454E+01  0.00000000000E+00 0. -1.
</event>
<event>
 7    1  0.2575978E-011  0.5052885E+02  0.7816164E-02  0.1300439E+00
        -11   -1    0    0    0    0  0.00000000000E+00  0.00000000000E+00  0.45593999997E+02  0.45594000000E+02  0.51100000000E-03 0. -1.
         11   -1    0    0    0    0 -0.00000000000E+00 -0.00000000000E+00 -0.45593999997E+02  0.45594000000E+02  0.51100000000E-03 0.  1.
    9900012    2    1    2    0    0  0.37597739327E+02  0.69866190563E+01  0.13811720677E+02  0.50528850028E+02  0.29999970146E+02 0.  0.
         12    1    1    2    0    0 -0.37597739327E+02 -0.69866190563E+01 -0.13811720677E+02  0.40659149972E+02  0.00000000000E+00 0. -1.
         11    1    3    3    0    0  0.25364273179E+02 -0.23095361282E+01  0.63394730749E+01  0.26246318412E+02  0.51100000000E-03 0. -1.
        -11    1    3    3    0    0  0.80375136109E+01 -0.31932905483E+01 -0.86346854962E+00  0.86916228502E+01  0.51100000000E-03 0.  1.
         12    1    3    3    0    0  0.41959525373E+01  0.12489445733E+02  0.83357161518E+01  0.15590908767E+02  0.00000000000E+00 0. -1.
</event>
<event>
 7    1  0.2575978E-011  0.5052886E+02  0.7816164E-02  0.1300439E+00
        -11   -1    0    0    0    0  0.00000000000E+00  0.00000000000E+00  0.45593999997E+02  0.45594000000E+02  0.51100000000E-03 0.  1.
         11   -1    0    0    0    0 -0.00000000000E+00 -0.00000000000E+00 -0.45593999997E+02  0.45594000000E+02  0.51100000000E-03 0. -1.
    9900012    2    1    2    0    0 -0.12471826117E+02  0.11324993251E+02  0.37004913282E+02  0.50528861718E+02  0.30000005677E+02 0.  0.
         12    1    1    2    0    0  0.12471826117E+02 -0.11324993251E+02 -0.37004913282E+02  0.40659138282E+02  0.00000000000E+00 0. -1.
         11    1    3    3    0    0 -0.13854044786E+01  0.16979936515E+02  0.14267139516E+02  0.22221360441E+02  0.51100000000E-03 0. -1.
        -11    1    3    3    0    0 -0.98407043790E+00 -0.51919199968E+01  0.13923150434E+02  0.14892231067E+02  0.51100000000E-03 0.  1.
        -12    1    3    3    0    0 -0.10102351200E+02 -0.46302326655E+00  0.88146233321E+01  0.13415270210E+02  0.00000000000E+00 0.  1.
</event>
<event>
 7    1  0.2575978E-011  0.5052886E+02  0.7816164E-02  0.1300439E+00
        -11   -1    0    0    0    0  0.00000000000E+00  0.00000000000E+00  0.45593999997E+02  0.45594000000E+02  0.51100000000E-03 0. -1.
         11   -1    0    0    0    0 -0.00000000000E+00 -0.00000000000E+00 -0.45593999997E+02  0.45594000000E+02  0.51100000000E-03 0.  1.
    9900012    2    1    2    0    0  0.61258549224E+01 -0.26659038819E+02 -0.30082140373E+02  0.50528860576E+02  0.30000002208E+02 0.  0.
         12    1    1    2    0    0 -0.61258549224E+01  0.26659038819E+02  0.30082140373E+02  0.40659139424E+02  0.00000000000E+00 0. -1.
         11    1    3    3    0    0 -0.68151616376E+01 -0.29919947615E+01 -0.47433033558E+01  0.88259496818E+01  0.51100000000E-03 0. -1.
        -11    1    3    3    0    0 -0.46838888927E+00 -0.65855904361E+01  0.18969699536E+01  0.68693438413E+01  0.51100000000E-03 0.  1.
        -12    1    3    3    0    0  0.13409405449E+02 -0.17081453621E+02 -0.27235806971E+02  0.34833567053E+02  0.00000000000E+00 0.  1.
</event>
<event>
 7    1  0.2575978E-011  0.5052885E+02  0.7816164E-02  0.1300439E+00
        -11   -1    0    0    0    0  0.00000000000E+00  0.00000000000E+00  0.45593999997E+02  0.45594000000E+02  0.51100000000E-03 0. -1.
         11   -1    0    0    0    0 -0.00000000000E+00 -0.00000000000E+00 -0.45593999997E+02  0.45594000000E+02  0.51100000000E-03 0.  1.
    9900012    2    1    2    0    0 -0.37617554479E+02  0.15316337611E+02 -0.18696342762E+01  0.50528854225E+02  0.29999982903E+02 0.  0.
         12    1    1    2    0    0  0.37617554479E+02 -0.15316337611E+02  0.18696342762E+01  0.40659145775E+02  0.00000000000E+00 0. -1.
         11    1    3    3    0    0 -0.20204477498E+02  0.13442467609E+01  0.69328425488E+01  0.21403088945E+02  0.51100000000E-03 0. -1.
        -11    1    3    3    0    0 -0.10022148046E+02  0.16980085155E+02 -0.71737852843E+01  0.20981657201E+02  0.51100000000E-03 0.  1.
         12    1    3    3    0    0 -0.73909289355E+01 -0.30079943055E+01 -0.16286915407E+01  0.81441080793E+01  0.00000000000E+00 0. -1.
</event>
<event>
 7    1  0.2575978E-011  0.5052886E+02  0.7816164E-02  0.1300439E+00
        -11   -1    0    0    0    0  0.00000000000E+00  0.00000000000E+00  0.45593999997E+02  0.45594000000E+02  0.51100000000E-03 0.  1.
         11   -1    0    0    0    0 -0.00000000000E+00 -0.00000000000E+00 -0.45593999997E+02  0.45594000000E+02  0.51100000000E-03 0. -1.
    9900012    2    1    2    0    0  0.22567685353E+02  0.35010293070E+01  0.33639379704E+02  0.50528862094E+02  0.30000006820E+02 0.  0.
         12    1    1    2    0    0 -0.22567685353E+02 -0.35010293070E+01 -0.33639379704E+02  0.40659137906E+02  0.00000000000E+00 0. -1.
         11    1    3    3    0    0  0.12138893884E+01 -0.65121023711E+01  0.10889950227E+02  0.12746451308E+02  0.51100000000E-03 0. -1.
        -11    1    3    3    0    0  0.38292427158E+01 -0.17210379747E+01  0.14567927635E+02  0.15160791118E+02  0.51100000000E-03 0.  1.
        -12    1    3    3    0    0  0.17524553249E+02  0.11734169653E+02  0.81815018428E+01  0.22621619668E+02  0.00000000000E+00 0.  1.
</event>
<event>
 7    1  0.2575978E-011  0.5052886E+02  0.7816164E-02  0.1300439E+00
        -11   -1    0    0    0    0  0.00000000000E+00  0.00000000000E+00  0.45593999997E+02  0.45594000000E+02  0.51100000000E-03 0.  1.
         11   -1    0    0    0    0 -0.00000000000E+00 -0.00000000000E+00 -0.45593999997E+02  0.45594000000E+02  0.51100000000E-03 0. -1.
    9900012    2    1    2    0    0  0.21624264354E+02  0.21008713666E+02  0.27279856074E+02  0.50528863189E+02  0.30000010150E+02 0.  0.
         12    1    1    2    0    0 -0.21624264354E+02 -0.21008713666E+02 -0.27279856074E+02  0.40659136811E+02  0.00000000000E+00 0. -1.
         11    1    3    3    0    0  0.15406570122E+02  0.19727651647E+01  0.18683307124E+00  0.15533483582E+02  0.51100000000E-03 0. -1.
        -11    1    3    3    0    0 -0.44023395898E+00  0.33015591098E+01  0.47284188540E+00  0.33641757094E+01  0.51100000000E-03 0.  1.
        -12    1    3    3    0    0  0.66579281912E+01  0.15734389392E+02  0.26620181118E+02  0.31631203898E+02  0.00000000000E+00 0.  1.
</event>
<event>
 7    1  0.2575978E-011  0.5052886E+02  0.7816164E-02  0.1300439E+00
        -11   -1    0    0    0    0  0.00000000000E+00  0.00000000000E+00  0.45593999997E+02  0.45594000000E+02  0.51100000000E-03 0. -1.
         11   -1    0    0    0    0 -0.00000000000E+00 -0.00000000000E+00 -0.45593999997E+02  0.45594000000E+02  0.51100000000E-03 0.  1.
    9900012    2    1    2    0    0 -0.22272550124E+02 -0.33832010004E+02 -0.35347392397E+01  0.50528858697E+02  0.29999996497E+02 0.  0.
         12    1    1    2    0    0  0.22272550124E+02  0.33832010004E+02  0.35347392397E+01  0.40659141303E+02  0.00000000000E+00 0. -1.
         11    1    3    3    0    0 -0.34187458339E+01 -0.37310152855E+01  0.64357011213E+01  0.81869742471E+01  0.51100000000E-03 0. -1.
        -11    1    3    3    0    0  0.34601406696E+01  0.23487894982E+00 -0.43961608221E+00  0.34958552795E+01  0.51100000000E-03 0.  1.
        -12    1    3    3    0    0 -0.22313944960E+02 -0.30335873669E+02 -0.95308242788E+01  0.38846029171E+02  0.00000000000E+00 0.  1.
</event>
<event>
 7    1  0.2575978E-011  0.5052887E+02  0.7816164E-02  0.1300439E+00
        -11   -1    0    0    0    0  0.00000000000E+00  0.00000000000E+00  0.45593999997E+02  0.45594000000E+02  0.51100000000E-03 0.  1.
         11   -1    0    0    0    0 -0.00000000000E+00 -0.00000000000E+00 -0.45593999997E+02  0.45594000000E+02  0.51100000000E-03 0. -1.
    9900012    2    1    2    0    0 -0.31286978343E+02 -0.25717027402E+02  0.35950589308E+01  0.50528868664E+02  0.30000026792E+02 0.  0.
         12    1    1    2    0    0  0.31286978343E+02  0.25717027402E+02 -0.35950589308E+01  0.40659131336E+02  0.00000000000E+00 0. -1.
         11    1    3    3    0    0  0.62559957754E+00 -0.12569333310E+01  0.59844046658E+01  0.61468980547E+01  0.51100000000E-03 0. -1.
        -11    1    3    3    0    0  0.39915441973E+00  0.11683956270E+01  0.25622351416E+01  0.28442084618E+01  0.51100000000E-03 0.  1.
        -12    1    3    3    0    0 -0.32311732340E+02 -0.25628489698E+02 -0.49515808766E+01  0.41537762148E+02  0.00000000000E+00 0.  1.
</event>
<event>
 7    1  0.2575978E-011  0.5052887E+02  0.7816164E-02  0.1300439E+00
        -11   -1    0    0    0    0  0.00000000000E+00  0.00000000000E+00  0.45593999997E+02  0.45594000000E+02  0.51100000000E-03 0.  1.
         11   -1    0    0    0    0 -0.00000000000E+00 -0.00000000000E+00 -0.45593999997E+02  0.45594000000E+02  0.51100000000E-03 0. -1.
    9900012    2    1    2    0    0 -0.28051059506E+02  0.25099123853E+02  0.15373264848E+02  0.50528865360E+02  0.30000016749E+02 0.  0.
         12    1    1    2    0    0  0.28051059506E+02 -0.25099123853E+02 -0.15373264848E+02  0.40659134640E+02  0.00000000000E+00 0. -1.
         11    1    3    3    0    0 -0.21405934419E+02  0.12378912163E+02  0.25951496466E+01  0.24863352482E+02  0.51100000000E-03 0. -1.
        -11    1    3    3    0    0 -0.79586065874E+01  0.22342521766E+00  0.31589950846E+00  0.79680066768E+01  0.51100000000E-03 0.  1.
         12    1    3    3    0    0  0.13134815005E+01  0.12496786473E+02  0.12462215693E+02  0.17697506202E+02  0.00000000000E+00 0. -1.
</event>
<event>
 7    1  0.2575978E-011  0.5052886E+02  0.7816164E-02  0.1300439E+00
        -11   -1    0    0    0    0  0.00000000000E+00  0.00000000000E+00  0.45593999997E+02  0.45594000000E+02  0.51100000000E-03 0. -1.
         11   -1    0    0    0    0 -0.00000000000E+00 -0.00000000000E+00 -0.45593999997E+02  0.45594000000E+02  0.51100000000E-03 0.  1.
    9900012    2    1    2    0    0  0.29998476521E+02  0.27416847305E+02  0.12543425419E+01  0.50528862221E+02  0.30000007208E+02 0.  0.
         12    1    1    2    0    0 -0.29998476521E+02 -0.27416847305E+02 -0.12543425419E+01  0.40659137779E+02  0.00000000000E+00 0. -1.
         11    1    3    3    0    0  0.12518095079E+01 -0.30869561864E+00  0.17014601601E+00  0.13004883532E+01  0.51100000000E-03 0. -1.
        -11    1    3    3    0    0  0.16053987463E+02  0.27537123419E+02  0.10348814216E+02  0.33513006962E+02  0.51100000000E-03 0.  1.
        -12    1    3    3    0    0  0.12692679549E+02  0.18841950451E+00 -0.92646176905E+01  0.15715366906E+02  0.00000000000E+00 0.  1.
</event>
<event>
 7    1  0.2575978E-011  0.5052886E+02  0.7816164E-02  0.1300439E+00
        -11   -1    0    0    0    0  0.00000000000E+00  0.00000000000E+00  0.45593999997E+02  0.45594000000E+02  0.51100000000E-03 0.  1.
         11   -1    0    0    0    0 -0.00000000000E+00 -0.00000000000E+00 -0.45593999997E+02  0.45594000000E+02  0.51100000000E-03 0. -1.
    9900012    2    1    2    0    0  0.17190956743E+02  0.19549368832E+02  0.31232335731E+02  0.50528860675E+02  0.30000002506E+02 0.  0.
         12    1    1    2    0    0 -0.17190956743E+02 -0.19549368832E+02 -0.31232335731E+02  0.40659139325E+02  0.00000000000E+00 0. -1.
         11    1    3    3    0    0  0.83227473971E+01  0.76309484512E+00  0.21321085911E+02  0.22900636294E+02  0.51100000000E-03 0. -1.
        -11    1    3    3    0    0 -0.90549002172E+00 -0.11040093836E+01  0.46308339574E+01  0.48459645377E+01  0.51100000000E-03 0.  1.
         12    1    3    3    0    0  0.97736993674E+01  0.19890283370E+02  0.52804158628E+01  0.22782259843E+02  0.00000000000E+00 0. -1.
</event>
<event>
 7    1  0.2575978E-011  0.5052885E+02  0.7816164E-02  0.1300439E+00
        -11   -1    0    0    0    0  0.00000000000E+00  0.00000000000E+00  0.45593999997E+02  0.45594000000E+02  0.51100000000E-03 0.  1.
         11   -1    0    0    0    0 -0.00000000000E+00 -0.00000000000E+00 -0.45593999997E+02  0.45594000000E+02  0.51100000000E-03 0. -1.
    9900012    2    1    2    0    0  0.33288263247E+02 -0.18476694108E+02  0.14271278632E+02  0.50528854793E+02  0.29999984630E+02 0.  0.
         12    1    1    2    0    0 -0.33288263247E+02  0.18476694108E+02 -0.14271278632E+02  0.40659145207E+02  0.00000000000E+00 0. -1.
         11    1    3    3    0    0  0.42667380433E+01 -0.21895248353E+01 -0.69139044345E+01  0.84143417642E+01  0.51100000000E-03 0. -1.
        -11    1    3    3    0    0  0.34024785601E-01 -0.51167901069E+01  0.14799591501E+01  0.53266291434E+01  0.51100000000E-03 0.  1.
        -12    1    3    3    0    0  0.28987500418E+02 -0.11170379166E+02  0.19705223917E+02  0.36787883886E+02  0.00000000000E+00 0.  1.
</event>
<event>
 7    1  0.2575978E-011  0.5052886E+02  0.7816164E-02  0.1300439E+00
        -11   -1    0    0    0    0  0.00000000000E+00  0.00000000000E+00  0.45593999997E+02  0.45594000000E+02  0.51100000000E-03 0. -1.
         11   -1    0    0    0    0 -0.00000000000E+00 -0.00000000000E+00 -0.45593999997E+02  0.45594000000E+02  0.51100000000E-03 0.  1.
    9900012    2    1    2    0    0  0.16456350744E+01  0.40319681380E+02 -0.49780154954E+01  0.50528862532E+02  0.30000008151E+02 0.  0.
         12    1    1    2    0    0 -0.16456350744E+01 -0.40319681380E+02  0.49780154954E+01  0.40659137468E+02  0.00000000000E+00 0. -1.
         11    1    3    3    0    0  0.10203813425E+01  0.21629005568E+02  0.92436108164E+01  0.23543563901E+02  0.51100000000E-03 0. -1.
        -11    1    3    3    0    0 -0.57609460239E+01  0.43115085421E+01 -0.42176711568E+01  0.83406447741E+01  0.51100000000E-03 0.  1.
        -12    1    3    3    0    0  0.63861997558E+01  0.14379167270E+02 -0.10003955155E+02  0.18644653857E+02  0.00000000000E+00 0.  1.
</event>
<event>
 7    1  0.2575978E-011  0.5052886E+02  0.7816164E-02  0.1300439E+00
        -11   -1    0    0    0    0  0.00000000000E+00  0.00000000000E+00  0.45593999997E+02  0.45594000000E+02  0.51100000000E-03 0. -1.
         11   -1    0    0    0    0 -0.00000000000E+00 -0.00000000000E+00 -0.45593999997E+02  0.45594000000E+02  0.51100000000E-03 0.  1.
    9900012    2    1    2    0    0  0.32888816625E+02 -0.91673972065E+01 -0.22078276618E+02  0.50528859220E+02  0.29999998086E+02 0.  0.
         12    1    1    2    0    0 -0.32888816625E+02  0.91673972065E+01  0.22078276618E+02  0.40659140780E+02  0.00000000000E+00 0. -1.
         11    1    3    3    0    0  0.78749231554E+00 -0.12476110799E+01  0.44035888021E+01  0.46441653882E+01  0.51100000000E-03 0. -1.
        -11    1    3    3    0    0  0.80144267211E+01 -0.85248796334E+01 -0.15460934385E+02  0.19389303771E+02  0.51100000000E-03 0.  1.
        -12    1    3    3    0    0  0.24086897588E+02  0.60509350680E+00 -0.11020931036E+02  0.26495390061E+02  0.00000000000E+00 0.  1.
</event>
<event>
 7    1  0.2575978E-011  0.5052884E+02  0.7816164E-02  0.1300439E+00
        -11   -1    0    0    0    0  0.00000000000E+00  0.00000000000E+00  0.45593999997E+02  0.45594000000E+02  0.51100000000E-03 0.  1.
         11   -1    0    0    0    0 -0.00000000000E+00 -0.00000000000E+00 -0.45593999997E+02  0.45594000000E+02  0.51100000000E-03 0. -1.
    9900012    2    1    2    0    0  0.31488206758E+02 -0.25183679169E+01  0.25599185189E+02  0.50528835914E+02  0.29999927245E+02 0.  0.
         12    1    1    2    0    0 -0.31488206758E+02  0.25183679169E+01 -0.25599185189E+02  0.40659164086E+02  0.00000000000E+00 0. -1.
         11    1    3    3    0    0  0.10962910318E+02 -0.57962229144E+01  0.55800782032E+01  0.13598487994E+02  0.51100000000E-03 0. -1.
        -11    1    3    3    0    0  0.23295663635E+02 -0.29371232904E+01  0.18659135045E+02  0.29991298043E+02  0.51100000000E-03 0.  1.
         12    1    3    3    0    0 -0.27703671951E+01  0.62149782879E+01  0.13599719404E+01  0.69390498769E+01  0.00000000000E+00 0. -1.
</event>
<event>
 7    1  0.2575978E-011  0.5052885E+02  0.7816164E-02  0.1300439E+00
        -11   -1    0    0    0    0  0.00000000000E+00  0.00000000000E+00  0.45593999997E+02  0.45594000000E+02  0.51100000000E-03 0.  1.
         11   -1    0    0    0    0 -0.00000000000E+00 -0.00000000000E+00 -0.45593999997E+02  0.45594000000E+02  0.51100000000E-03 0. -1.
    9900012    2    1    2    0    0 -0.69900512943E+01  0.66367908411E+01  0.39500104945E+02  0.50528854652E+02  0.29999984201E+02 0.  0.
         12    1    1    2    0    0  0.69900512943E+01 -0.66367908411E+01 -0.39500104945E+02  0.40659145348E+02  0.00000000000E+00 0. -1.
         11    1    3    3    0    0 -0.90816574370E+01  0.60993559568E+01  0.56001063337E+01  0.12289826528E+02  0.51100000000E-03 0. -1.
        -11    1    3    3    0    0 -0.71593294047E-01  0.81460167425E+01  0.91267537598E+01  0.12233574654E+02  0.51100000000E-03 0.  1.
        -12    1    3    3    0    0  0.21631994368E+01 -0.76085818582E+01  0.24773244851E+02  0.26005453470E+02  0.00000000000E+00 0.  1.
</event>
<event>
 7    1  0.2575978E-011  0.5052887E+02  0.7816164E-02  0.1300439E+00
        -11   -1    0    0    0    0  0.00000000000E+00  0.00000000000E+00  0.45593999997E+02  0.45594000000E+02  0.51100000000E-03 0.  1.
         11   -1    0    0    0    0 -0.00000000000E+00 -0.00000000000E+00 -0.45593999997E+02  0.45594000000E+02  0.51100000000E-03 0. -1.
    9900012    2    1    2    0    0 -0.20276093925E+02 -0.32893897900E+02 -0.12650558092E+02  0.50528866660E+02  0.30000020701E+02 0.  0.
         12    1    1    2    0    0  0.20276093925E+02  0.32893897900E+02  0.12650558092E+02  0.40659133340E+02  0.00000000000E+00 0. -1.
         11    1    3    3    0    0 -0.40994004825E+01 -0.27957153151E+01  0.47828784766E+01  0.68918092851E+01  0.51100000000E-03 0. -1.
        -11    1    3    3    0    0 -0.38422231403E+01 -0.23396940955E+02 -0.36968381478E+01  0.23996794312E+02  0.51100000000E-03 0.  1.
         12    1    3    3    0    0 -0.12334470302E+02 -0.67012416296E+01 -0.13736598421E+02  0.19640263063E+02  0.00000000000E+00 0. -1.
</event>
<event>
 7    1  0.2575978E-011  0.5052886E+02  0.7816164E-02  0.1300439E+00
        -11   -1    0    0    0    0  0.00000000000E+00  0.00000000000E+00  0.45593999997E+02  0.45594000000E+02  0.51100000000E-03 0. -1.
         11   -1    0    0    0    0 -0.00000000000E+00 -0.00000000000E+00 -0.45593999997E+02  0.45594000000E+02  0.51100000000E-03 0.  1.
    9900012    2    1    2    0    0  0.35757150485E+01  0.30580464226E+02 -0.26555881699E+02  0.50528863472E+02  0.30000011010E+02 0.  0.
         12    1    1    2    0    0 -0.35757150485E+01 -0.30580464226E+02  0.26555881699E+02  0.40659136528E+02  0.00000000000E+00 0. -1.
         11    1    3    3    0    0  0.36622534723E+01  0.29874754138E+01 -0.39698351535E+01  0.61722525264E+01  0.51100000000E-03 0. -1.
        -11    1    3    3    0    0 -0.53317924256E+01  0.37539499046E+01 -0.18489905144E+02  0.19606038428E+02  0.51100000000E-03 0.  1.
         12    1    3    3    0    0  0.52452540018E+01  0.23839038907E+02 -0.40961414022E+01  0.24750572518E+02  0.00000000000E+00 0. -1.
</event>
<event>
 7    1  0.2575978E-011  0.5052885E+02  0.7816164E-02  0.1300439E+00
        -11   -1    0    0    0    0  0.00000000000E+00  0.00000000000E+00  0.45593999997E+02  0.45594000000E+02  0.51100000000E-03 0.  1.
         11   -1    0    0    0    0 -0.00000000000E+00 -0.00000000000E+00 -0.45593999997E+02  0.45594000000E+02  0.51100000000E-03 0. -1.
    9900012    2    1    2    0    0  0.36758969421E+02 -0.17274407385E+02  0.18812533979E+01  0.50528854685E+02  0.29999984300E+02 0.  0.
         12    1    1    2    0    0 -0.36758969421E+02  0.17274407385E+02 -0.18812533979E+01  0.40659145315E+02  0.00000000000E+00 0. -1.
         11    1    3    3    0    0  0.52975986460E+01 -0.12250072305E+02  0.18261841734E+01  0.13470848963E+02  0.51100000000E-03 0. -1.
        -11    1    3    3    0    0  0.11394139033E+02 -0.10777826246E+02  0.30219897461E+01  0.15972487758E+02  0.51100000000E-03 0.  1.
         12    1    3    3    0    0  0.20067231743E+02  0.57534911660E+01 -0.29669205216E+01  0.21085517964E+02  0.00000000000E+00 0. -1.
</event>
<event>
 7    1  0.2575978E-011  0.5052885E+02  0.7816164E-02  0.1300439E+00
        -11   -1    0    0    0    0  0.00000000000E+00  0.00000000000E+00  0.45593999997E+02  0.45594000000E+02  0.51100000000E-03 0.  1.
         11   -1    0    0    0    0 -0.00000000000E+00 -0.00000000000E+00 -0.45593999997E+02  0.45594000000E+02  0.51100000000E-03 0. -1.
    9900012    2    1    2    0    0  0.80228871420E+00 -0.40092000080E+02 -0.67196959969E+01  0.50528850330E+02  0.29999971064E+02 0.  0.
         12    1    1    2    0    0 -0.80228871420E+00  0.40092000080E+02  0.67196959969E+01  0.40659149670E+02  0.00000000000E+00 0. -1.
         11    1    3    3    0    0  0.77773517138E+01 -0.79461320841E+01 -0.11367330310E+02  0.15901082146E+02  0.51100000000E-03 0. -1.
        -11    1    3    3    0    0 -0.61995730162E+00 -0.19100489383E+02  0.60595845388E+01  0.20048232012E+02  0.51100000000E-03 0.  1.
        -12    1    3    3    0    0 -0.63551056980E+01 -0.13045378612E+02 -0.14119502253E+01  0.14579536172E+02  0.00000000000E+00 0.  1.
</event>
<event>
 7    1  0.2575978E-011  0.5052887E+02  0.7816164E-02  0.1300439E+00
        -11   -1    0    0    0    0  0.00000000000E+00  0.00000000000E+00  0.45593999997E+02  0.45594000000E+02  0.51100000000E-03 0.  1.
         11   -1    0    0    0    0 -0.00000000000E+00 -0.00000000000E+00 -0.45593999997E+02  0.45594000000E+02  0.51100000000E-03 0. -1.
    9900012    2    1    2    0    0  0.21931592921E+02  0.77567750711E+01  0.33346704267E+02  0.50528868024E+02  0.30000024845E+02 0.  0.
         12    1    1    2    0    0 -0.21931592921E+02 -0.77567750711E+01 -0.33346704267E+02  0.40659131976E+02  0.00000000000E+00 0. -1.
         11    1    3    3    0    0  0.56061773857E+00  0.14809892473E+01 -0.16850053665E+01  0.23123288576E+01  0.51100000000E-03 0. -1.
        -11    1    3    3    0    0 -0.52078784209E+01  0.24111611514E+01  0.32114047413E+01  0.65763832323E+01  0.51100000000E-03 0.  1.
        -12    1    3    3    0    0  0.26578853604E+02  0.38646246725E+01  0.31820304892E+02  0.41640155934E+02  0.00000000000E+00 0.  1.
</event>
<event>
 7    1  0.2575978E-011  0.5052887E+02  0.7816164E-02  0.1300439E+00
        -11   -1    0    0    0    0  0.00000000000E+00  0.00000000000E+00  0.45593999997E+02  0.45594000000E+02  0.51100000000E-03 0. -1.
         11   -1    0    0    0    0 -0.00000000000E+00 -0.00000000000E+00 -0.45593999997E+02  0.45594000000E+02  0.51100000000E-03 0.  1.
    9900012    2    1    2    0    0  0.38628390740E+02 -0.12430490364E+02  0.25486062383E+01  0.50528867501E+02  0.30000023255E+02 0.  0.
         12    1    1    2    0    0 -0.38628390740E+02  0.12430490364E+02 -0.25486062383E+01  0.40659132499E+02  0.00000000000E+00 0. -1.
         11    1    3    3    0    0  0.18491403766E+02  0.37646180466E+01 -0.40625373643E+01  0.19303071579E+02  0.51100000000E-03 0. -1.
        -11    1    3    3    0    0  0.74978934827E+01  0.24942428333E+01  0.25358997203E+01  0.82988217020E+01  0.51100000000E-03 0.  1.
        -12    1    3    3    0    0  0.12639093491E+02 -0.18689351244E+02  0.40752438823E+01  0.22926974220E+02  0.00000000000E+00 0.  1.
</event>
<event>
 7    1  0.2575978E-011  0.5052886E+02  0.7816164E-02  0.1300439E+00
        -11   -1    0    0    0    0  0.00000000000E+00  0.00000000000E+00  0.45593999997E+02  0.45594000000E+02  0.51100000000E-03 0. -1.
         11   -1    0    0    0    0 -0.00000000000E+00 -0.00000000000E+00 -0.45593999997E+02  0.45594000000E+02  0.51100000000E-03 0.  1.
    9900012    2    1    2    0    0 -0.37703552091E+02  0.14548359324E+02 -0.44668934980E+01  0.50528859123E+02  0.29999997791E+02 0.  0.
         12    1    1    2    0    0  0.37703552091E+02 -0.14548359324E+02  0.44668934980E+01  0.40659140877E+02  0.00000000000E+00 0. -1.
         11    1    3    3    0    0 -0.16851026341E+00  0.62684504756E+00 -0.12658958615E+01  0.14226113369E+01  0.51100000000E-03 0.  1.
        -11    1    3    3    0    0 -0.63121980416E+01 -0.58514291626E+01  0.66290700658E+01  0.10864052539E+02  0.51100000000E-03 0. -1.
        -12    1    3    3    0    0 -0.31222843786E+02  0.19772943439E+02 -0.98300677023E+01  0.38242195248E+02  0.00000000000E+00 0.  1.
</event>
<event>
 7    1  0.2575978E-011  0.5052886E+02  0.7816164E-02  0.1300439E+00
        -11   -1    0    0    0    0  0.00000000000E+00  0.00000000000E+00  0.45593999997E+02  0.45594000000E+02  0.51100000000E-03 0.  1.
         11   -1    0    0    0    0 -0.00000000000E+00 -0.00000000000E+00 -0.45593999997E+02  0.45594000000E+02  0.51100000000E-03 0. -1.
    9900012    2    1    2    0    0 -0.21002055824E+02 -0.94714359171E+01  0.33501804105E+02  0.50528864182E+02  0.30000013168E+02 0.  0.
         12    1    1    2    0    0  0.21002055824E+02  0.94714359171E+01 -0.33501804105E+02  0.40659135818E+02  0.00000000000E+00 0. -1.
         11    1    3    3    0    0  0.43529947207E+01  0.36970309823E+00 -0.76966894359E+00  0.44359479216E+01  0.51100000000E-03 0.  1.
        -11    1    3    3    0    0 -0.38024024522E+01  0.22869669876E+01  0.85227546924E+00  0.45182802201E+01  0.51100000000E-03 0. -1.
        -12    1    3    3    0    0 -0.21552648093E+02 -0.12128106003E+02  0.33419197579E+02  0.41574636040E+02  0.00000000000E+00 0.  1.
</event>
<event>
 7    1  0.2575978E-011  0.5052886E+02  0.7816164E-02  0.1300439E+00
        -11   -1    0    0    0    0  0.00000000000E+00  0.00000000000E+00  0.45593999997E+02  0.45594000000E+02  0.51100000000E-03 0. -1.
         11   -1    0    0    0    0 -0.00000000000E+00 -0.00000000000E+00 -0.45593999997E+02  0.45594000000E+02  0.51100000000E-03 0.  1.
    9900012    2    1    2    0    0  0.24054068822E+02  0.21261856939E+02  0.24949975357E+02  0.50528855178E+02  0.29999985798E+02 0.  0.
         12    1    1    2    0    0 -0.24054068822E+02 -0.21261856939E+02 -0.24949975357E+02  0.40659144822E+02  0.00000000000E+00 0. -1.
         11    1    3    3    0    0  0.16086479819E+01  0.26878690094E+01  0.12407901244E+02  0.12797202885E+02  0.51100000000E-03 0. -1.
        -11    1    3    3    0    0  0.60920525609E+01  0.81113296889E+00  0.12113600006E+02  0.13583458561E+02  0.51100000000E-03 0.  1.
        -12    1    3    3    0    0  0.16353368279E+02  0.17762854961E+02  0.42847410612E+00  0.24148193732E+02  0.00000000000E+00 0.  1.
</event>
<event>
 7    1  0.2575978E-011  0.5052886E+02  0.7816164E-02  0.1300439E+00
        -11   -1    0    0    0    0  0.00000000000E+00  0.00000000000E+00  0.45593999997E+02  0.45594000000E+02  0.51100000000E-03 0.  1.
         11   -1    0    0    0    0 -0.00000000000E+00 -0.00000000000E+00 -0.45593999997E+02  0.45594000000E+02  0.51100000000E-03 0. -1.
    9900012    2    1    2    0    0  0.33694233278E+02 -0.22746905625E+02  0.66521111335E+00  0.50528861082E+02  0.30000003745E+02 0.  0.
         12    1    1    2    0    0 -0.33694233278E+02  0.22746905625E+02 -0.66521111335E+00  0.40659138918E+02  0.00000000000E+00 0. -1.
         11    1    3    3    0    0  0.21274489013E+01 -0.42075225004E+01  0.38661261661E+01  0.60972302083E+01  0.51100000000E-03 0. -1.
        -11    1    3    3    0    0  0.21294246492E+02 -0.73676234606E+01  0.96814563317E+01  0.24524628561E+02  0.51100000000E-03 0.  1.
         12    1    3    3    0    0  0.10272537885E+02 -0.11171759664E+02 -0.12882371384E+02  0.19907002313E+02  0.00000000000E+00 0. -1.
</event>
<event>
 7    1  0.2575978E-011  0.5052887E+02  0.7816164E-02  0.1300439E+00
        -11   -1    0    0    0    0  0.00000000000E+00  0.00000000000E+00  0.45593999997E+02  0.45594000000E+02  0.51100000000E-03 0.  1.
         11   -1    0    0    0    0 -0.00000000000E+00 -0.00000000000E+00 -0.45593999997E+02  0.45594000000E+02  0.51100000000E-03 0. -1.
    9900012    2    1    2    0    0  0.13749525727E+02 -0.36928465982E+02  0.10020178861E+02  0.50528867669E+02  0.30000023766E+02 0.  0.
         12    1    1    2    0    0 -0.13749525727E+02  0.36928465982E+02 -0.10020178861E+02  0.40659132331E+02  0.00000000000E+00 0. -1.
         11    1    3    3    0    0  0.64781857441E+01 -0.13343920754E+01 -0.52958236128E+01  0.84730892091E+01  0.51100000000E-03 0. -1.
        -11    1    3    3    0    0  0.59123567641E+01 -0.54885337576E+01  0.72804052615E+01  0.10866658472E+02  0.51100000000E-03 0.  1.
        -12    1    3    3    0    0  0.13589832189E+01 -0.30105540149E+02  0.80355972121E+01  0.31189119988E+02  0.00000000000E+00 0.  1.
</event>
<event>
 7    1  0.2575978E-011  0.5052886E+02  0.7816164E-02  0.1300439E+00
        -11   -1    0    0    0    0  0.00000000000E+00  0.00000000000E+00  0.45593999997E+02  0.45594000000E+02  0.51100000000E-03 0. -1.
         11   -1    0    0    0    0 -0.00000000000E+00 -0.00000000000E+00 -0.45593999997E+02  0.45594000000E+02  0.51100000000E-03 0.  1.
    9900012    2    1    2    0    0 -0.12836660407E+02 -0.38701842822E+01 -0.38384987243E+02  0.50528862990E+02  0.30000009544E+02 0.  0.
         12    1    1    2    0    0  0.12836660407E+02  0.38701842822E+01  0.38384987243E+02  0.40659137010E+02  0.00000000000E+00 0. -1.
         11    1    3    3    0    0  0.18262633691E+01 -0.64538903393E+01  0.97223983437E+00  0.67774028183E+01  0.51100000000E-03 0. -1.
        -11    1    3    3    0    0 -0.72719487513E+01 -0.45372117357E+01 -0.14274072658E+02  0.16649825209E+02  0.51100000000E-03 0.  1.
         12    1    3    3    0    0 -0.73909750252E+01  0.71209177929E+01 -0.25083154419E+02  0.27101634963E+02  0.00000000000E+00 0. -1.
</event>
<event>
 7    1  0.2575978E-011  0.5052888E+02  0.7816164E-02  0.1300439E+00
        -11   -1    0    0    0    0  0.00000000000E+00  0.00000000000E+00  0.45593999997E+02  0.45594000000E+02  0.51100000000E-03 0.  1.
         11   -1    0    0    0    0 -0.00000000000E+00 -0.00000000000E+00 -0.45593999997E+02  0.45594000000E+02  0.51100000000E-03 0. -1.
    9900012    2    1    2    0    0  0.15288115345E+02 -0.22075715088E+02  0.30530321819E+02  0.50528877803E+02  0.30000054570E+02 0.  0.
         12    1    1    2    0    0 -0.15288115345E+02  0.22075715088E+02 -0.30530321819E+02  0.40659122197E+02  0.00000000000E+00 0. -1.
         11    1    3    3    0    0  0.41406277094E+01 -0.44411479890E+01  0.13236354212E+01  0.62145477934E+01  0.51100000000E-03 0. -1.
        -11    1    3    3    0    0  0.11405981657E+02 -0.24053195345E+02  0.25670820610E+02  0.36981666470E+02  0.51100000000E-03 0.  1.
        -12    1    3    3    0    0 -0.25849402158E+00  0.64186282457E+01  0.35358657880E+01  0.73326635398E+01  0.00000000000E+00 0.  1.
</event>
<event>
 7    1  0.2575978E-011  0.5052887E+02  0.7816164E-02  0.1300439E+00
        -11   -1    0    0    0    0  0.00000000000E+00  0.00000000000E+00  0.45593999997E+02  0.45594000000E+02  0.51100000000E-03 0.  1.
         11   -1    0    0    0    0 -0.00000000000E+00 -0.00000000000E+00 -0.45593999997E+02  0.45594000000E+02  0.51100000000E-03 0. -1.
    9900012    2    1    2    0    0 -0.39139272754E+02  0.15950539201E+01 -0.10896690712E+02  0.50528871417E+02  0.30000035158E+02 0.  0.
         12    1    1    2    0    0  0.39139272754E+02 -0.15950539201E+01  0.10896690712E+02  0.40659128583E+02  0.00000000000E+00 0. -1.
         11    1    3    3    0    0 -0.23054653864E+00 -0.18427047528E+01 -0.50262632894E+01  0.53583612633E+01  0.51100000000E-03 0. -1.
        -11    1    3    3    0    0 -0.59760725272E+01 -0.72520587256E+01 -0.47472130303E+01  0.10528144681E+02  0.51100000000E-03 0.  1.
        -12    1    3    3    0    0 -0.32932653688E+02  0.10689817398E+02 -0.11232143920E+01  0.34642365472E+02  0.00000000000E+00 0.  1.
</event>
<event>
 7    1  0.2575978E-011  0.5052885E+02  0.7816164E-02  0.1300439E+00
        -11   -1    0    0    0    0  0.00000000000E+00  0.00000000000E+00  0.45593999997E+02  0.45594000000E+02  0.51100000000E-03 0. -1.
         11   -1    0    0    0    0 -0.00000000000E+00 -0.00000000000E+00 -0.45593999997E+02  0.45594000000E+02  0.51100000000E-03 0.  1.
    9900012    2    1    2    0    0 -0.15870030170E+02 -0.14171934924E+02 -0.34647722496E+02  0.50528852551E+02  0.29999977815E+02 0.  0.
         12    1    1    2    0    0  0.15870030170E+02  0.14171934924E+02  0.34647722496E+02  0.40659147449E+02  0.00000000000E+00 0. -1.
         11    1    3    3    0    0 -0.44625530160E+01 -0.67282469605E+01 -0.13150113709E+02  0.15430786675E+02  0.51100000000E-03 0. -1.
        -11    1    3    3    0    0 -0.15880660169E+02 -0.87064543039E+01 -0.23803158314E+02  0.29909664992E+02  0.51100000000E-03 0.  1.
         12    1    3    3    0    0  0.44731830150E+01  0.12627663403E+01  0.23055495272E+01  0.51884008845E+01  0.00000000000E+00 0. -1.
</event>
<event>
 7    1  0.2575978E-011  0.5052887E+02  0.7816164E-02  0.1300439E+00
        -11   -1    0    0    0    0  0.00000000000E+00  0.00000000000E+00  0.45593999997E+02  0.45594000000E+02  0.51100000000E-03 0. -1.
         11   -1    0    0    0    0 -0.00000000000E+00 -0.00000000000E+00 -0.45593999997E+02  0.45594000000E+02  0.51100000000E-03 0.  1.
    9900012    2    1    2    0    0 -0.12294695473E+02  0.17759056583E+02 -0.34447370319E+02  0.50528868807E+02  0.30000027225E+02 0.  0.
         12    1    1    2    0    0  0.12294695473E+02 -0.17759056583E+02  0.34447370319E+02  0.40659131193E+02  0.00000000000E+00 0. -1.
         11    1    3    3    0    0  0.21447173148E+01 -0.44455876794E+01 -0.13891367138E+01  0.51276469502E+01  0.51100000000E-03 0. -1.
        -11    1    3    3    0    0 -0.61849403068E+01  0.39442128874E+01 -0.20448746576E+02  0.21724675802E+02  0.51100000000E-03 0.  1.
        -12    1    3    3    0    0 -0.82544724813E+01  0.18260431375E+02 -0.12609487029E+02  0.23676546055E+02  0.00000000000E+00 0.  1.
</event>
<event>
 7    1  0.2575978E-011  0.5052886E+02  0.7816164E-02  0.1300439E+00
        -11   -1    0    0    0    0  0.00000000000E+00  0.00000000000E+00  0.45593999997E+02  0.45594000000E+02  0.51100000000E-03 0.  1.
         11   -1    0    0    0    0 -0.00000000000E+00 -0.00000000000E+00 -0.45593999997E+02  0.45594000000E+02  0.51100000000E-03 0. -1.
    9900012    2    1    2    0    0 -0.30929077337E+02 -0.19334744426E+02  0.17964561076E+02  0.50528860541E+02  0.30000002100E+02 0.  0.
         12    1    1    2    0    0  0.30929077337E+02  0.19334744426E+02 -0.17964561076E+02  0.40659139459E+02  0.00000000000E+00 0. -1.
         11    1    3    3    0    0 -0.17592699212E+01 -0.27105343723E+01 -0.16084086203E+01  0.36095714136E+01  0.51100000000E-03 0. -1.
        -11    1    3    3    0    0  0.46656087710E+01 -0.26210314840E+01  0.55436608510E+01  0.77051857301E+01  0.51100000000E-03 0.  1.
        -12    1    3    3    0    0 -0.33835416187E+02 -0.14003178570E+02  0.14029308845E+02  0.39214103397E+02  0.00000000000E+00 0.  1.
</event>
<event>
 7    1  0.2575978E-011  0.5052887E+02  0.7816164E-02  0.1300439E+00
        -11   -1    0    0    0    0  0.00000000000E+00  0.00000000000E+00  0.45593999997E+02  0.45594000000E+02  0.51100000000E-03 0.  1.
         11   -1    0    0    0    0 -0.00000000000E+00 -0.00000000000E+00 -0.45593999997E+02  0.45594000000E+02  0.51100000000E-03 0. -1.
    9900012    2    1    2    0    0 -0.14621713213E+01  0.24975510048E+02  0.32050757705E+02  0.50528866750E+02  0.30000020974E+02 0.  0.
         12    1    1    2    0    0  0.14621713213E+01 -0.24975510048E+02 -0.32050757705E+02  0.40659133250E+02  0.00000000000E+00 0. -1.
         11    1    3    3    0    0  0.10010589658E+01  0.10928345381E+02  0.47547425281E+01  0.11959867416E+02  0.51100000000E-03 0. -1.
        -11    1    3    3    0    0 -0.59337680513E+01  0.19080532511E+02  0.15522387443E+02  0.25302585568E+02  0.51100000000E-03 0.  1.
         12    1    3    3    0    0  0.34705377642E+01 -0.50333678441E+01  0.11773627734E+02  0.13266413767E+02  0.00000000000E+00 0. -1.
</event>
<event>
 7    1  0.2575978E-011  0.5052883E+02  0.7816164E-02  0.1300439E+00
        -11   -1    0    0    0    0  0.00000000000E+00  0.00000000000E+00  0.45593999997E+02  0.45594000000E+02  0.51100000000E-03 0.  1.
         11   -1    0    0    0    0 -0.00000000000E+00 -0.00000000000E+00 -0.45593999997E+02  0.45594000000E+02  0.51100000000E-03 0. -1.
    9900012    2    1    2    0    0 -0.17016948783E+02 -0.21937984767E+02  0.29703810332E+02  0.50528830434E+02  0.29999910588E+02 0.  0.
         12    1    1    2    0    0  0.17016948783E+02  0.21937984767E+02 -0.29703810332E+02  0.40659169566E+02  0.00000000000E+00 0. -1.
         11    1    3    3    0    0 -0.13071245905E+02 -0.74575930637E+01  0.12701469541E+02  0.19692650725E+02  0.51100000000E-03 0.  1.
        -11    1    3    3    0    0 -0.10602998816E+02 -0.15174116980E+01  0.10059727266E+02  0.14694360655E+02  0.51100000000E-03 0. -1.
        -12    1    3    3    0    0  0.66572959372E+01 -0.12962980006E+02  0.69426135250E+01  0.16141819054E+02  0.00000000000E+00 0.  1.
</event>
<event>
 7    1  0.2575978E-011  0.5052886E+02  0.7816164E-02  0.1300439E+00
        -11   -1    0    0    0    0  0.00000000000E+00  0.00000000000E+00  0.45593999997E+02  0.45594000000E+02  0.51100000000E-03 0. -1.
         11   -1    0    0    0    0 -0.00000000000E+00 -0.00000000000E+00 -0.45593999997E+02  0.45594000000E+02  0.51100000000E-03 0.  1.
    9900012    2    1    2    0    0  0.24749784646E+02  0.26641319641E+02 -0.18189401171E+02  0.50528855060E+02  0.29999985441E+02 0.  0.
         12    1    1    2    0    0 -0.24749784646E+02 -0.26641319641E+02  0.18189401171E+02  0.40659144940E+02  0.00000000000E+00 0. -1.
         11    1    3    3    0    0  0.22972613415E+02  0.14123684732E+02 -0.36859467115E+01  0.27217744964E+02  0.51100000000E-03 0. -1.
        -11    1    3    3    0    0  0.39420637225E+01  0.13234875563E+01 -0.10388272599E+02  0.11189624370E+02  0.51100000000E-03 0.  1.
        -12    1    3    3    0    0 -0.21648924909E+01  0.11194147353E+02 -0.41151818614E+01  0.12121485726E+02  0.00000000000E+00 0.  1.
</event>
<event>
 7    1  0.2575978E-011  0.5052886E+02  0.7816164E-02  0.1300439E+00
        -11   -1    0    0    0    0  0.00000000000E+00  0.00000000000E+00  0.45593999997E+02  0.45594000000E+02  0.51100000000E-03 0.  1.
         11   -1    0    0    0    0 -0.00000000000E+00 -0.00000000000E+00 -0.45593999997E+02  0.45594000000E+02  0.51100000000E-03 0. -1.
    9900012    2    1    2    0    0 -0.20661646641E+02 -0.97420836359E+01  0.33635606300E+02  0.50528857773E+02  0.29999993687E+02 0.  0.
         12    1    1    2    0    0  0.20661646641E+02  0.97420836359E+01 -0.33635606300E+02  0.40659142227E+02  0.00000000000E+00 0. -1.
         11    1    3    3    0    0 -0.13163387301E+01  0.85554747550E+01  0.76502889890E+01  0.11552307900E+02  0.51100000000E-03 0. -1.
        -11    1    3    3    0    0 -0.14737817327E+02 -0.11361756532E+02  0.10429384267E+02  0.21332248534E+02  0.51100000000E-03 0.  1.
        -12    1    3    3    0    0 -0.46074905843E+01 -0.69358018588E+01  0.15555933044E+02  0.17644301340E+02  0.00000000000E+00 0.  1.
</event>
<event>
 7    1  0.2575978E-011  0.5052888E+02  0.7816164E-02  0.1300439E+00
        -11   -1    0    0    0    0  0.00000000000E+00  0.00000000000E+00  0.45593999997E+02  0.45594000000E+02  0.51100000000E-03 0.  1.
         11   -1    0    0    0    0 -0.00000000000E+00 -0.00000000000E+00 -0.45593999997E+02  0.45594000000E+02  0.51100000000E-03 0. -1.
    9900012    2    1    2    0    0 -0.12622197490E+02 -0.38366352723E+02  0.46762605910E+01  0.50528876745E+02  0.30000051354E+02 0.  0.
         12    1    1    2    0    0  0.12622197490E+02  0.38366352723E+02 -0.46762605910E+01  0.40659123255E+02  0.00000000000E+00 0. -1.
         11    1    3    3    0    0 -0.30945662067E+01 -0.85323928306E+00  0.92554825274E+00  0.33408078530E+01  0.51100000000E-03 0. -1.
        -11    1    3    3    0    0 -0.17057421724E+02 -0.35271849447E+02  0.29365483129E+01  0.39289722772E+02  0.51100000000E-03 0.  1.
         12    1    3    3    0    0  0.75297904406E+01 -0.22412639931E+01  0.81416402540E+00  0.78983461197E+01  0.00000000000E+00 0. -1.
</event>
<event>
 7    1  0.2575978E-011  0.5052886E+02  0.7816164E-02  0.1300439E+00
        -11   -1    0    0    0    0  0.00000000000E+00  0.00000000000E+00  0.45593999997E+02  0.45594000000E+02  0.51100000000E-03 0.  1.
         11   -1    0    0    0    0 -0.00000000000E+00 -0.00000000000E+00 -0.45593999997E+02  0.45594000000E+02  0.51100000000E-03 0. -1.
    9900012    2    1    2    0    0 -0.34206695695E+02  0.20918954686E+02 -0.67427536581E+01  0.50528862990E+02  0.30000009544E+02 0.  0.
         12    1    1    2    0    0  0.34206695695E+02 -0.20918954686E+02  0.67427536581E+01  0.40659137010E+02  0.00000000000E+00 0. -1.
         11    1    3    3    0    0 -0.24443825746E+02  0.47542212220E+01 -0.73536458348E+01  0.25964963776E+02  0.51100000000E-03 0. -1.
        -11    1    3    3    0    0 -0.70119148754E+01 -0.10192987366E+01  0.10054239895E+01  0.71565912133E+01  0.51100000000E-03 0.  1.
         12    1    3    3    0    0 -0.27509550731E+01  0.17184032201E+02 -0.39453181275E+00  0.17407308001E+02  0.00000000000E+00 0. -1.
</event>
<event>
 7    1  0.2575978E-011  0.5052886E+02  0.7816164E-02  0.1300439E+00
        -11   -1    0    0    0    0  0.00000000000E+00  0.00000000000E+00  0.45593999997E+02  0.45594000000E+02  0.51100000000E-03 0. -1.
         11   -1    0    0    0    0 -0.00000000000E+00 -0.00000000000E+00 -0.45593999997E+02  0.45594000000E+02  0.51100000000E-03 0.  1.
    9900012    2    1    2    0    0  0.62219015221E+01 -0.37559424132E+02 -0.14273859131E+02  0.50528862600E+02  0.30000008358E+02 0.  0.
         12    1    1    2    0    0 -0.62219015221E+01  0.37559424132E+02  0.14273859131E+02  0.40659137400E+02  0.00000000000E+00 0. -1.
         11    1    3    3    0    0  0.35494952710E+01 -0.97685613862E+01 -0.13372887382E+02  0.16936877676E+02  0.51100000000E-03 0. -1.
        -11    1    3    3    0    0  0.38781839682E+01 -0.23265360467E+01 -0.60808043510E+01  0.75782097281E+01  0.51100000000E-03 0.  1.
         12    1    3    3    0    0 -0.12057777171E+01 -0.25464326699E+02  0.51798326019E+01  0.26013775195E+02  0.00000000000E+00 0. -1.
</event>
<event>
 7    1  0.2575978E-011  0.5052887E+02  0.7816164E-02  0.1300439E+00
        -11   -1    0    0    0    0  0.00000000000E+00  0.00000000000E+00  0.45593999997E+02  0.45594000000E+02  0.51100000000E-03 0.  1.
         11   -1    0    0    0    0 -0.00000000000E+00 -0.00000000000E+00 -0.45593999997E+02  0.45594000000E+02  0.51100000000E-03 0. -1.
    9900012    2    1    2    0    0 -0.47235845827E+01 -0.18884919472E+02  0.35696115834E+02  0.50528866704E+02  0.30000020832E+02 0.  0.
         12    1    1    2    0    0  0.47235845827E+01  0.18884919472E+02 -0.35696115834E+02  0.40659133296E+02  0.00000000000E+00 0. -1.
         11    1    3    3    0    0 -0.52613095744E+01 -0.20471554837E+02  0.14138491723E+02  0.25429567128E+02  0.51100000000E-03 0. -1.
        -11    1    3    3    0    0 -0.14579067569E+01 -0.12737759382E+01 -0.10648790948E+01  0.22095169156E+01  0.51100000000E-03 0.  1.
        -12    1    3    3    0    0  0.19956317486E+01  0.28604113031E+01  0.22622503206E+02  0.22889782660E+02  0.00000000000E+00 0.  1.
</event>
<event>
 7    1  0.2575978E-011  0.5052886E+02  0.7816164E-02  0.1300439E+00
        -11   -1    0    0    0    0  0.00000000000E+00  0.00000000000E+00  0.45593999997E+02  0.45594000000E+02  0.51100000000E-03 0.  1.
         11   -1    0    0    0    0 -0.00000000000E+00 -0.00000000000E+00 -0.45593999997E+02  0.45594000000E+02  0.51100000000E-03 0. -1.
    9900012    2    1    2    0    0  0.18825999306E+02 -0.27774954212E+02  0.22963000129E+02  0.50528859499E+02  0.29999998934E+02 0.  0.
         12    1    1    2    0    0 -0.18825999306E+02  0.27774954212E+02 -0.22963000129E+02  0.40659140501E+02  0.00000000000E+00 0. -1.
         11    1    3    3    0    0  0.11062551938E+02 -0.82303830440E+01 -0.23807600436E+00  0.13790429322E+02  0.51100000000E-03 0. -1.
        -11    1    3    3    0    0  0.13257604205E+02 -0.11449116516E+02  0.19664406291E+02  0.26335056736E+02  0.51100000000E-03 0.  1.
         12    1    3    3    0    0 -0.54941568379E+01 -0.80954546523E+01  0.35366698416E+01  0.10403373441E+02  0.00000000000E+00 0. -1.
</event>
<event>
 7    1  0.2575978E-011  0.5052887E+02  0.7816164E-02  0.1300439E+00
        -11   -1    0    0    0    0  0.00000000000E+00  0.00000000000E+00  0.45593999997E+02  0.45594000000E+02  0.51100000000E-03 0.  1.
         11   -1    0    0    0    0 -0.00000000000E+00 -0.00000000000E+00 -0.45593999997E+02  0.45594000000E+02  0.51100000000E-03 0. -1.
    9900012    2    1    2    0    0 -0.27337031299E+02  0.29751214344E+02  0.45515305953E+01  0.50528874752E+02  0.30000045297E+02 0.  0.
         12    1    1    2    0    0  0.27337031299E+02 -0.29751214344E+02 -0.45515305953E+01  0.40659125248E+02  0.00000000000E+00 0. -1.
         11    1    3    3    0    0  0.30768247315E+01  0.47840003215E+01 -0.14434107201E+01  0.58682999474E+01  0.51100000000E-03 0. -1.
        -11    1    3    3    0    0 -0.36974205331E+01  0.15240490001E+02  0.42615680008E+00  0.15688373528E+02  0.51100000000E-03 0.  1.
        -12    1    3    3    0    0 -0.26716435497E+02  0.97267240215E+01  0.55687845153E+01  0.28972201277E+02  0.00000000000E+00 0.  1.
</event>
<event>
 7    1  0.2575978E-011  0.5052886E+02  0.7816164E-02  0.1300439E+00
        -11   -1    0    0    0    0  0.00000000000E+00  0.00000000000E+00  0.45593999997E+02  0.45594000000E+02  0.51100000000E-03 0.  1.
         11   -1    0    0    0    0 -0.00000000000E+00 -0.00000000000E+00 -0.45593999997E+02  0.45594000000E+02  0.51100000000E-03 0. -1.
    9900012    2    1    2    0    0  0.34118531094E+02 -0.55613859050E+01  0.21404725363E+02  0.50528862711E+02  0.30000008697E+02 0.  0.
         12    1    1    2    0    0 -0.34118531094E+02  0.55613859050E+01 -0.21404725363E+02  0.40659137289E+02  0.00000000000E+00 0. -1.
         11    1    3    3    0    0  0.24227078209E+02 -0.42067423325E+01  0.23631265542E+02  0.34104027783E+02  0.51100000000E-03 0. -1.
        -11    1    3    3    0    0  0.13322269642E+01 -0.55572279848E+00  0.49939251569E+01  0.51983598612E+01  0.51100000000E-03 0.  1.
         12    1    3    3    0    0  0.85592259205E+01 -0.79892077400E+00 -0.72204653362E+01  0.11226475067E+02  0.00000000000E+00 0. -1.
</event>
<event>
 7    1  0.2575978E-011  0.5052885E+02  0.7816164E-02  0.1300439E+00
        -11   -1    0    0    0    0  0.00000000000E+00  0.00000000000E+00  0.45593999997E+02  0.45594000000E+02  0.51100000000E-03 0.  1.
         11   -1    0    0    0    0 -0.00000000000E+00 -0.00000000000E+00 -0.45593999997E+02  0.45594000000E+02  0.51100000000E-03 0. -1.
    9900012    2    1    2    0    0  0.11832239034E+02 -0.24919666546E+02  0.29869290767E+02  0.50528853523E+02  0.29999980770E+02 0.  0.
         12    1    1    2    0    0 -0.11832239034E+02  0.24919666546E+02 -0.29869290767E+02  0.40659146477E+02  0.00000000000E+00 0. -1.
         11    1    3    3    0    0 -0.41225344543E+01 -0.12378843555E+01 -0.13327598240E+01  0.45059845777E+01  0.51100000000E-03 0. -1.
        -11    1    3    3    0    0  0.72696681940E+01 -0.16510361111E+02  0.70407238029E+01  0.19365223768E+02  0.51100000000E-03 0.  1.
         12    1    3    3    0    0  0.86851052943E+01 -0.71714210793E+01  0.24161326788E+02  0.26657645178E+02  0.00000000000E+00 0. -1.
</event>
<event>
 7    1  0.2575978E-011  0.5052889E+02  0.7816164E-02  0.1300439E+00
        -11   -1    0    0    0    0  0.00000000000E+00  0.00000000000E+00  0.45593999997E+02  0.45594000000E+02  0.51100000000E-03 0.  1.
         11   -1    0    0    0    0 -0.00000000000E+00 -0.00000000000E+00 -0.45593999997E+02  0.45594000000E+02  0.51100000000E-03 0. -1.
    9900012    2    1    2    0    0  0.33383852137E+02  0.23209454038E+02  0.55935755028E-01  0.50528887011E+02  0.30000082558E+02 0.  0.
         12    1    1    2    0    0 -0.33383852137E+02 -0.23209454038E+02 -0.55935755028E-01  0.40659112989E+02  0.00000000000E+00 0. -1.
         11    1    3    3    0    0  0.13608030778E+02  0.38955866307E+01 -0.46654780652E+01  0.14903717076E+02  0.51100000000E-03 0. -1.
        -11    1    3    3    0    0  0.24494934055E+02  0.15427688825E+02  0.22655132011E+01  0.29037009611E+02  0.51100000000E-03 0.  1.
        -12    1    3    3    0    0 -0.47191126950E+01  0.38861785825E+01  0.24559006191E+01  0.65881603240E+01  0.00000000000E+00 0.  1.
</event>
<event>
 7    1  0.2575978E-011  0.5052887E+02  0.7816164E-02  0.1300439E+00
        -11   -1    0    0    0    0  0.00000000000E+00  0.00000000000E+00  0.45593999997E+02  0.45594000000E+02  0.51100000000E-03 0.  1.
         11   -1    0    0    0    0 -0.00000000000E+00 -0.00000000000E+00 -0.45593999997E+02  0.45594000000E+02  0.51100000000E-03 0. -1.
    9900012    2    1    2    0    0  0.27759271572E+02 -0.13227174431E+02  0.26601314439E+02  0.50528865337E+02  0.30000016678E+02 0.  0.
         12    1    1    2    0    0 -0.27759271572E+02  0.13227174431E+02 -0.26601314439E+02  0.40659134663E+02  0.00000000000E+00 0. -1.
         11    1    3    3    0    0  0.70536017801E+01 -0.94986166212E+01  0.15184157087E+02  0.19249302390E+02  0.51100000000E-03 0. -1.
        -11    1    3    3    0    0  0.63055097353E+01 -0.58322656413E+01  0.14072135854E+02  0.16486351424E+02  0.51100000000E-03 0.  1.
         12    1    3    3    0    0  0.14400160057E+02  0.21037078317E+01 -0.26549785022E+01  0.14793211523E+02  0.00000000000E+00 0. -1.
</event>
<event>
 7    1  0.2575978E-011  0.5052886E+02  0.7816164E-02  0.1300439E+00
        -11   -1    0    0    0    0  0.00000000000E+00  0.00000000000E+00  0.45593999997E+02  0.45594000000E+02  0.51100000000E-03 0.  1.
         11   -1    0    0    0    0 -0.00000000000E+00 -0.00000000000E+00 -0.45593999997E+02  0.45594000000E+02  0.51100000000E-03 0. -1.
    9900012    2    1    2    0    0  0.81769543021E+01  0.36801766155E+02 -0.15229358982E+02  0.50528856517E+02  0.29999989868E+02 0.  0.
         12    1    1    2    0    0 -0.81769543021E+01 -0.36801766155E+02  0.15229358982E+02  0.40659143483E+02  0.00000000000E+00 0. -1.
         11    1    3    3    0    0  0.10680642976E+02  0.13971984256E+02 -0.10994213064E+02  0.20740424287E+02  0.51100000000E-03 0. -1.
        -11    1    3    3    0    0  0.60691102499E+01  0.19249801606E+02 -0.32891489809E+01  0.20450121329E+02  0.51100000000E-03 0.  1.
        -12    1    3    3    0    0 -0.85727989234E+01  0.35799802934E+01 -0.94599693698E+00  0.93383109012E+01  0.00000000000E+00 0.  1.
</event>
<event>
 7    1  0.2575978E-011  0.5052885E+02  0.7816164E-02  0.1300439E+00
        -11   -1    0    0    0    0  0.00000000000E+00  0.00000000000E+00  0.45593999997E+02  0.45594000000E+02  0.51100000000E-03 0.  1.
         11   -1    0    0    0    0 -0.00000000000E+00 -0.00000000000E+00 -0.45593999997E+02  0.45594000000E+02  0.51100000000E-03 0. -1.
    9900012    2    1    2    0    0 -0.11014877721E+02  0.38613493971E+02  0.63903948652E+01  0.50528848577E+02  0.29999965736E+02 0.  0.
         12    1    1    2    0    0  0.11014877721E+02 -0.38613493971E+02 -0.63903948652E+01  0.40659151423E+02  0.00000000000E+00 0. -1.
         11    1    3    3    0    0 -0.12402120644E+02  0.92549121525E+01 -0.71195279939E+00  0.15491057822E+02  0.51100000000E-03 0. -1.
        -11    1    3    3    0    0 -0.55951178202E+01  0.16256136017E+02  0.10031601051E+02  0.19904781374E+02  0.51100000000E-03 0.  1.
        -12    1    3    3    0    0  0.69823607427E+01  0.13102445802E+02 -0.29292533867E+01  0.15133009381E+02  0.00000000000E+00 0.  1.
</event>
<event>
 7    1  0.2575978E-011  0.5052887E+02  0.7816164E-02  0.1300439E+00
        -11   -1    0    0    0    0  0.00000000000E+00  0.00000000000E+00  0.45593999997E+02  0.45594000000E+02  0.51100000000E-03 0. -1.
         11   -1    0    0    0    0 -0.00000000000E+00 -0.00000000000E+00 -0.45593999997E+02  0.45594000000E+02  0.51100000000E-03 0.  1.
    9900012    2    1    2    0    0 -0.24587709221E+02  0.22090613883E+02 -0.23677296444E+02  0.50528867774E+02  0.30000024086E+02 0.  0.
         12    1    1    2    0    0  0.24587709221E+02 -0.22090613883E+02  0.23677296444E+02  0.40659132226E+02  0.00000000000E+00 0. -1.
         11    1    3    3    0    0  0.38797879007E+01  0.46662419729E+01 -0.10393466228E+02  0.12035394003E+02  0.51100000000E-03 0.  1.
        -11    1    3    3    0    0 -0.84955868937E+01 -0.12744211282E+01 -0.48436097979E+01  0.98620333611E+01  0.51100000000E-03 0. -1.
         12    1    3    3    0    0 -0.19971910228E+02  0.18698793039E+02 -0.84402204177E+01  0.28631440410E+02  0.00000000000E+00 0. -1.
</event>
<event>
 7    1  0.2575978E-011  0.5052887E+02  0.7816164E-02  0.1300439E+00
        -11   -1    0    0    0    0  0.00000000000E+00  0.00000000000E+00  0.45593999997E+02  0.45594000000E+02  0.51100000000E-03 0.  1.
         11   -1    0    0    0    0 -0.00000000000E+00 -0.00000000000E+00 -0.45593999997E+02  0.45594000000E+02  0.51100000000E-03 0. -1.
    9900012    2    1    2    0    0 -0.15701204993E+01  0.65486903301E+00  0.40623528514E+02  0.50528865716E+02  0.30000017830E+02 0.  0.
         12    1    1    2    0    0  0.15701204993E+01 -0.65486903301E+00 -0.40623528514E+02  0.40659134284E+02  0.00000000000E+00 0. -1.
         11    1    3    3    0    0  0.35853549308E+00  0.56023028264E+01  0.34711002679E+01  0.66002183289E+01  0.51100000000E-03 0. -1.
        -11    1    3    3    0    0 -0.16800667476E+01  0.17971046617E+01 -0.26163108603E+01  0.35912800254E+01  0.51100000000E-03 0.  1.
        -12    1    3    3    0    0 -0.24858924477E+00 -0.67445384551E+01  0.39768739106E+02  0.40337367362E+02  0.00000000000E+00 0.  1.
</event>
<event>
 7    1  0.2575978E-011  0.5052887E+02  0.7816164E-02  0.1300439E+00
        -11   -1    0    0    0    0  0.00000000000E+00  0.00000000000E+00  0.45593999997E+02  0.45594000000E+02  0.51100000000E-03 0.  1.
         11   -1    0    0    0    0 -0.00000000000E+00 -0.00000000000E+00 -0.45593999997E+02  0.45594000000E+02  0.51100000000E-03 0. -1.
    9900012    2    1    2    0    0  0.33721556597E+02  0.65238646331E+01  0.21759151155E+02  0.50528870052E+02  0.30000031011E+02 0.  0.
         12    1    1    2    0    0 -0.33721556597E+02 -0.65238646331E+01 -0.21759151155E+02  0.40659129948E+02  0.00000000000E+00 0. -1.
         11    1    3    3    0    0  0.57701349274E+01 -0.23644727969E+01 -0.18885954728E+01  0.65155185372E+01  0.51100000000E-03 0. -1.
        -11    1    3    3    0    0 -0.39703885345E+01  0.35046716649E+00  0.16317009374E+01  0.43068852504E+01  0.51100000000E-03 0.  1.
        -12    1    3    3    0    0  0.31921810205E+02  0.85378702635E+01  0.22016045691E+02  0.39706466265E+02  0.00000000000E+00 0.  1.
</event>
<event>
 7    1  0.2575978E-011  0.5052887E+02  0.7816164E-02  0.1300439E+00
        -11   -1    0    0    0    0  0.00000000000E+00  0.00000000000E+00  0.45593999997E+02  0.45594000000E+02  0.51100000000E-03 0. -1.
         11   -1    0    0    0    0 -0.00000000000E+00 -0.00000000000E+00 -0.45593999997E+02  0.45594000000E+02  0.51100000000E-03 0.  1.
    9900012    2    1    2    0    0  0.28647298960E+02  0.25721288571E+02  0.13073347314E+02  0.50528870233E+02  0.30000031559E+02 0.  0.
         12    1    1    2    0    0 -0.28647298960E+02 -0.25721288571E+02 -0.13073347314E+02  0.40659129767E+02  0.00000000000E+00 0. -1.
         11    1    3    3    0    0  0.56382588019E+01  0.10496763196E+02 -0.86624044641E+01  0.14731233868E+02  0.51100000000E-03 0. -1.
        -11    1    3    3    0    0  0.63239087574E+00  0.26775353677E+01  0.15805110003E+01  0.31728739572E+01  0.51100000000E-03 0.  1.
        -12    1    3    3    0    0  0.22376649282E+02  0.12546990007E+02  0.20155240778E+02  0.32624762408E+02  0.00000000000E+00 0.  1.
</event>
<event>
 7    1  0.2575978E-011  0.5052885E+02  0.7816164E-02  0.1300439E+00
        -11   -1    0    0    0    0  0.00000000000E+00  0.00000000000E+00  0.45593999997E+02  0.45594000000E+02  0.51100000000E-03 0.  1.
         11   -1    0    0    0    0 -0.00000000000E+00 -0.00000000000E+00 -0.45593999997E+02  0.45594000000E+02  0.51100000000E-03 0. -1.
    9900012    2    1    2    0    0  0.61729011436E+01 -0.31453349902E+02  0.25014965413E+02  0.50528850683E+02  0.29999972136E+02 0.  0.
         12    1    1    2    0    0 -0.61729011436E+01  0.31453349902E+02 -0.25014965413E+02  0.40659149317E+02  0.00000000000E+00 0. -1.
         11    1    3    3    0    0 -0.63495579682E+01 -0.21646124774E+01  0.11369106664E+01  0.68040428933E+01  0.51100000000E-03 0. -1.
        -11    1    3    3    0    0 -0.16326155098E+01 -0.16149864009E+02  0.16224900160E+02  0.22950619303E+02  0.51100000000E-03 0.  1.
         12    1    3    3    0    0  0.14155074622E+02 -0.13138873415E+02  0.76531545870E+01  0.20774188487E+02  0.00000000000E+00 0. -1.
</event>
<event>
 7    1  0.2575978E-011  0.5052888E+02  0.7816164E-02  0.1300439E+00
        -11   -1    0    0    0    0  0.00000000000E+00  0.00000000000E+00  0.45593999997E+02  0.45594000000E+02  0.51100000000E-03 0.  1.
         11   -1    0    0    0    0 -0.00000000000E+00 -0.00000000000E+00 -0.45593999997E+02  0.45594000000E+02  0.51100000000E-03 0. -1.
    9900012    2    1    2    0    0 -0.58755904194E+01  0.10634784798E+02  0.38801320315E+02  0.50528884556E+02  0.30000075096E+02 0.  0.
         12    1    1    2    0    0  0.58755904194E+01 -0.10634784798E+02 -0.38801320315E+02  0.40659115444E+02  0.00000000000E+00 0. -1.
         11    1    3    3    0    0  0.50291898340E+01  0.95417816120E+01  0.49729772381E+01  0.11877240824E+02  0.51100000000E-03 0. -1.
        -11    1    3    3    0    0  0.14258348466E+01  0.41887177077E+01  0.31155587497E+01  0.54115679455E+01  0.51100000000E-03 0.  1.
         12    1    3    3    0    0 -0.12330615100E+02 -0.30957145220E+01  0.30712784328E+02  0.33240075787E+02  0.00000000000E+00 0. -1.
</event>
<event>
 7    1  0.2575978E-011  0.5052886E+02  0.7816164E-02  0.1300439E+00
        -11   -1    0    0    0    0  0.00000000000E+00  0.00000000000E+00  0.45593999997E+02  0.45594000000E+02  0.51100000000E-03 0.  1.
         11   -1    0    0    0    0 -0.00000000000E+00 -0.00000000000E+00 -0.45593999997E+02  0.45594000000E+02  0.51100000000E-03 0. -1.
    9900012    2    1    2    0    0 -0.12278649593E+02  0.38306529507E+02 -0.59169395644E+01  0.50528860652E+02  0.30000002438E+02 0.  0.
         12    1    1    2    0    0  0.12278649593E+02 -0.38306529507E+02  0.59169395644E+01  0.40659139348E+02  0.00000000000E+00 0. -1.
         11    1    3    3    0    0 -0.95236580683E+01  0.58709875536E+01 -0.39005797655E+01  0.11848336618E+02  0.51100000000E-03 0. -1.
        -11    1    3    3    0    0  0.43659367593E+01 -0.93158690745E+00  0.36427453348E+00  0.44790572836E+01  0.51100000000E-03 0.  1.
        -12    1    3    3    0    0 -0.71209282837E+01  0.33367128861E+02 -0.23806343324E+01  0.34201466750E+02  0.00000000000E+00 0.  1.
</event>
<event>
 7    1  0.2575978E-011  0.5052886E+02  0.7816164E-02  0.1300439E+00
        -11   -1    0    0    0    0  0.00000000000E+00  0.00000000000E+00  0.45593999997E+02  0.45594000000E+02  0.51100000000E-03 0. -1.
         11   -1    0    0    0    0 -0.00000000000E+00 -0.00000000000E+00 -0.45593999997E+02  0.45594000000E+02  0.51100000000E-03 0.  1.
    9900012    2    1    2    0    0 -0.16014934108E+02 -0.42292515029E+01 -0.37132212596E+02  0.50528857178E+02  0.29999991877E+02 0.  0.
         12    1    1    2    0    0  0.16014934108E+02  0.42292515029E+01  0.37132212596E+02  0.40659142822E+02  0.00000000000E+00 0. -1.
         11    1    3    3    0    0 -0.79341973975E+01  0.11496527610E+01  0.56901017682E+00  0.80372235664E+01  0.51100000000E-03 0. -1.
        -11    1    3    3    0    0 -0.67907218767E+01  0.48505869804E+01 -0.10569472852E+02  0.13466842774E+02  0.51100000000E-03 0.  1.
        -12    1    3    3    0    0 -0.12900148334E+01 -0.10229491244E+02 -0.27131749921E+02  0.29024790838E+02  0.00000000000E+00 0.  1.
</event>
<event>
 7    1  0.2575978E-011  0.5052886E+02  0.7816164E-02  0.1300439E+00
        -11   -1    0    0    0    0  0.00000000000E+00  0.00000000000E+00  0.45593999997E+02  0.45594000000E+02  0.51100000000E-03 0. -1.
         11   -1    0    0    0    0 -0.00000000000E+00 -0.00000000000E+00 -0.45593999997E+02  0.45594000000E+02  0.51100000000E-03 0.  1.
    9900012    2    1    2    0    0 -0.27482662230E+02  0.27295914860E+02 -0.12361308665E+02  0.50528860274E+02  0.30000001289E+02 0.  0.
         12    1    1    2    0    0  0.27482662230E+02 -0.27295914860E+02  0.12361308665E+02  0.40659139726E+02  0.00000000000E+00 0. -1.
         11    1    3    3    0    0 -0.28595626532E+01 -0.37839136964E+01  0.46176805973E-03  0.47429001575E+01  0.51100000000E-03 0. -1.
        -11    1    3    3    0    0 -0.23716784315E+00 -0.11010869269E+01 -0.45155154347E+01  0.46538716042E+01  0.51100000000E-03 0.  1.
        -12    1    3    3    0    0 -0.24385931734E+02  0.32180915483E+02 -0.78462549987E+01  0.41132088512E+02  0.00000000000E+00 0.  1.
</event>
<event>
 7    1  0.2575978E-011  0.5052885E+02  0.7816164E-02  0.1300439E+00
        -11   -1    0    0    0    0  0.00000000000E+00  0.00000000000E+00  0.45593999997E+02  0.45594000000E+02  0.51100000000E-03 0.  1.
         11   -1    0    0    0    0 -0.00000000000E+00 -0.00000000000E+00 -0.45593999997E+02  0.45594000000E+02  0.51100000000E-03 0. -1.
    9900012    2    1    2    0    0 -0.12580820769E+02  0.28402796348E+02  0.26233005695E+02  0.50528849992E+02  0.29999970035E+02 0.  0.
         12    1    1    2    0    0  0.12580820769E+02 -0.28402796348E+02 -0.26233005695E+02  0.40659150008E+02  0.00000000000E+00 0. -1.
         11    1    3    3    0    0  0.55438906955E+01  0.65634210362E+01  0.24579512943E+01  0.89361481953E+01  0.51100000000E-03 0. -1.
        -11    1    3    3    0    0 -0.11334692546E+02  0.24292070327E+02  0.20005021025E+02  0.33448180853E+02  0.51100000000E-03 0.  1.
        -12    1    3    3    0    0 -0.67900189184E+01 -0.24526950151E+01  0.37700333756E+01  0.81445209438E+01  0.00000000000E+00 0.  1.
</event>
<event>
 7    1  0.2575978E-011  0.5052887E+02  0.7816164E-02  0.1300439E+00
        -11   -1    0    0    0    0  0.00000000000E+00  0.00000000000E+00  0.45593999997E+02  0.45594000000E+02  0.51100000000E-03 0.  1.
         11   -1    0    0    0    0 -0.00000000000E+00 -0.00000000000E+00 -0.45593999997E+02  0.45594000000E+02  0.51100000000E-03 0. -1.
    9900012    2    1    2    0    0  0.39151486063E+02  0.92197107085E+01  0.59433237574E+01  0.50528867892E+02  0.30000024444E+02 0.  0.
         12    1    1    2    0    0 -0.39151486063E+02 -0.92197107085E+01 -0.59433237574E+01  0.40659132108E+02  0.00000000000E+00 0. -1.
         11    1    3    3    0    0  0.11472236222E+02  0.11161728805E+02  0.10033735850E+02  0.18891062681E+02  0.51100000000E-03 0.  1.
        -11    1    3    3    0    0  0.97308041010E+01 -0.75872016809E+00 -0.86936472631E+01  0.13070719481E+02  0.51100000000E-03 0. -1.
        -12    1    3    3    0    0  0.17948445740E+02 -0.11832979286E+01  0.46032351705E+01  0.18567085730E+02  0.00000000000E+00 0.  1.
</event>
<event>
 7    1  0.2575978E-011  0.5052886E+02  0.7816164E-02  0.1300439E+00
        -11   -1    0    0    0    0  0.00000000000E+00  0.00000000000E+00  0.45593999997E+02  0.45594000000E+02  0.51100000000E-03 0.  1.
         11   -1    0    0    0    0 -0.00000000000E+00 -0.00000000000E+00 -0.45593999997E+02  0.45594000000E+02  0.51100000000E-03 0. -1.
    9900012    2    1    2    0    0  0.37852375822E+02  0.13713654303E+02  0.56832285446E+01  0.50528858882E+02  0.29999997059E+02 0.  0.
         12    1    1    2    0    0 -0.37852375822E+02 -0.13713654303E+02 -0.56832285446E+01  0.40659141118E+02  0.00000000000E+00 0. -1.
         11    1    3    3    0    0  0.80451603286E+01 -0.23034618083E+01  0.24012228402E+00  0.83718695635E+01  0.51100000000E-03 0. -1.
        -11    1    3    3    0    0  0.28655488292E+02  0.89148180343E+01  0.12097221364E+02  0.32356664767E+02  0.51100000000E-03 0.  1.
         12    1    3    3    0    0  0.11517272017E+01  0.71022980767E+01 -0.66541151032E+01  0.98003245520E+01  0.00000000000E+00 0. -1.
</event>
<event>
 7    1  0.2575978E-011  0.5052886E+02  0.7816164E-02  0.1300439E+00
        -11   -1    0    0    0    0  0.00000000000E+00  0.00000000000E+00  0.45593999997E+02  0.45594000000E+02  0.51100000000E-03 0.  1.
         11   -1    0    0    0    0 -0.00000000000E+00 -0.00000000000E+00 -0.45593999997E+02  0.45594000000E+02  0.51100000000E-03 0. -1.
    9900012    2    1    2    0    0 -0.36738242225E+02 -0.13694529534E+02  0.10766953405E+02  0.50528857528E+02  0.29999992941E+02 0.  0.
         12    1    1    2    0    0  0.36738242225E+02  0.13694529534E+02 -0.10766953405E+02  0.40659142472E+02  0.00000000000E+00 0. -1.
         11    1    3    3    0    0 -0.42377852793E+00 -0.64149203537E+01 -0.15739429765E+01  0.66187678717E+01  0.51100000000E-03 0. -1.
        -11    1    3    3    0    0 -0.23893462050E+01  0.28794656316E+01 -0.34922588037E+01  0.51182193607E+01  0.51100000000E-03 0.  1.
        -12    1    3    3    0    0 -0.33925117492E+02 -0.10159074812E+02  0.15833155185E+02  0.38791870295E+02  0.00000000000E+00 0.  1.
</event>
<event>
 7    1  0.2575978E-011  0.5052883E+02  0.7816164E-02  0.1300439E+00
        -11   -1    0    0    0    0  0.00000000000E+00  0.00000000000E+00  0.45593999997E+02  0.45594000000E+02  0.51100000000E-03 0.  1.
         11   -1    0    0    0    0 -0.00000000000E+00 -0.00000000000E+00 -0.45593999997E+02  0.45594000000E+02  0.51100000000E-03 0. -1.
    9900012    2    1    2    0    0  0.18431468427E+02  0.76805757241E+01  0.35418323547E+02  0.50528832341E+02  0.29999916385E+02 0.  0.
         12    1    1    2    0    0 -0.18431468427E+02 -0.76805757241E+01 -0.35418323547E+02  0.40659167659E+02  0.00000000000E+00 0. -1.
         11    1    3    3    0    0 -0.27559483571E+01  0.44339330215E+01 -0.16461375106E+00  0.52232280569E+01  0.51100000000E-03 0. -1.
        -11    1    3    3    0    0  0.16380505104E+02  0.38991285401E+01  0.10691180970E+02  0.19945563458E+02  0.51100000000E-03 0.  1.
        -12    1    3    3    0    0  0.48069116796E+01 -0.65248583754E+00  0.24891756328E+02  0.25360040827E+02  0.00000000000E+00 0.  1.
</event>
<event>
 7    1  0.2575978E-011  0.5052885E+02  0.7816164E-02  0.1300439E+00
        -11   -1    0    0    0    0  0.00000000000E+00  0.00000000000E+00  0.45593999997E+02  0.45594000000E+02  0.51100000000E-03 0. -1.
         11   -1    0    0    0    0 -0.00000000000E+00 -0.00000000000E+00 -0.45593999997E+02  0.45594000000E+02  0.51100000000E-03 0.  1.
    9900012    2    1    2    0    0  0.26710606502E+02  0.24394981112E+02 -0.18563268756E+02  0.50528849123E+02  0.29999967393E+02 0.  0.
         12    1    1    2    0    0 -0.26710606502E+02 -0.24394981112E+02  0.18563268756E+02  0.40659150877E+02  0.00000000000E+00 0. -1.
         11    1    3    3    0    0  0.93201682955E+01  0.13709567380E+02 -0.45709308914E+00  0.16583929243E+02  0.51100000000E-03 0.  1.
        -11    1    3    3    0    0  0.46639881918E+01 -0.52863590006E+01 -0.65110921853E+00  0.70797119159E+01  0.51100000000E-03 0. -1.
         12    1    3    3    0    0  0.12726450015E+02  0.15971772733E+02 -0.17455066448E+02  0.26865207964E+02  0.00000000000E+00 0. -1.
</event>
<event>
 7    1  0.2575978E-011  0.5052887E+02  0.7816164E-02  0.1300439E+00
        -11   -1    0    0    0    0  0.00000000000E+00  0.00000000000E+00  0.45593999997E+02  0.45594000000E+02  0.51100000000E-03 0.  1.
         11   -1    0    0    0    0 -0.00000000000E+00 -0.00000000000E+00 -0.45593999997E+02  0.45594000000E+02  0.51100000000E-03 0. -1.
    9900012    2    1    2    0    0  0.24325628959E+02 -0.87063559129E+01  0.31394714164E+02  0.50528868984E+02  0.30000027764E+02 0.  0.
         12    1    1    2    0    0 -0.24325628959E+02  0.87063559129E+01 -0.31394714164E+02  0.40659131016E+02  0.00000000000E+00 0. -1.
         11    1    3    3    0    0  0.70852796516E+01 -0.50314628409E+00  0.24234150876E+00  0.71072549970E+01  0.51100000000E-03 0. -1.
        -11    1    3    3    0    0  0.20483497364E+02 -0.95640540591E+01  0.15575268868E+02  0.27452391424E+02  0.51100000000E-03 0.  1.
         12    1    3    3    0    0 -0.32431480570E+01  0.13608444303E+01  0.15577103787E+02  0.15969222563E+02  0.00000000000E+00 0. -1.
</event>
<event>
 7    1  0.2575978E-011  0.5052886E+02  0.7816164E-02  0.1300439E+00
        -11   -1    0    0    0    0  0.00000000000E+00  0.00000000000E+00  0.45593999997E+02  0.45594000000E+02  0.51100000000E-03 0. -1.
         11   -1    0    0    0    0 -0.00000000000E+00 -0.00000000000E+00 -0.45593999997E+02  0.45594000000E+02  0.51100000000E-03 0.  1.
    9900012    2    1    2    0    0 -0.11375072011E+02  0.27650060434E+02 -0.27554451807E+02  0.50528856875E+02  0.29999990959E+02 0.  0.
         12    1    1    2    0    0  0.11375072011E+02 -0.27650060434E+02  0.27554451807E+02  0.40659143125E+02  0.00000000000E+00 0. -1.
         11    1    3    3    0    0 -0.13076691818E+01 -0.40096841458E+01 -0.37586773398E+01  0.56493558256E+01  0.51100000000E-03 0. -1.
        -11    1    3    3    0    0 -0.70604081523E+01  0.86818310985E+00 -0.44175333359E+01  0.83736316031E+01  0.51100000000E-03 0.  1.
         12    1    3    3    0    0 -0.30069946765E+01  0.30791561470E+02 -0.19378241131E+02  0.36505869447E+02  0.00000000000E+00 0. -1.
</event>
<event>
 7    1  0.2575978E-011  0.5052886E+02  0.7816164E-02  0.1300439E+00
        -11   -1    0    0    0    0  0.00000000000E+00  0.00000000000E+00  0.45593999997E+02  0.45594000000E+02  0.51100000000E-03 0.  1.
         11   -1    0    0    0    0 -0.00000000000E+00 -0.00000000000E+00 -0.45593999997E+02  0.45594000000E+02  0.51100000000E-03 0. -1.
    9900012    2    1    2    0    0 -0.33561715806E+02 -0.11792833524E+02  0.19690248356E+02  0.50528861167E+02  0.30000004002E+02 0.  0.
         12    1    1    2    0    0  0.33561715806E+02  0.11792833524E+02 -0.19690248356E+02  0.40659138833E+02  0.00000000000E+00 0. -1.
         11    1    3    3    0    0 -0.42740352298E+01 -0.31118664015E+01  0.86666809446E-01  0.52875893414E+01  0.51100000000E-03 0. -1.
        -11    1    3    3    0    0 -0.14132016602E+02 -0.10969454343E+02  0.23395689142E+02  0.29451673849E+02  0.51100000000E-03 0.  1.
        -12    1    3    3    0    0 -0.15155663974E+02  0.22884872200E+01 -0.37921075954E+01  0.15789597976E+02  0.00000000000E+00 0.  1.
</event>
<event>
 7    1  0.2575978E-011  0.5052886E+02  0.7816164E-02  0.1300439E+00
        -11   -1    0    0    0    0  0.00000000000E+00  0.00000000000E+00  0.45593999997E+02  0.45594000000E+02  0.51100000000E-03 0.  1.
         11   -1    0    0    0    0 -0.00000000000E+00 -0.00000000000E+00 -0.45593999997E+02  0.45594000000E+02  0.51100000000E-03 0. -1.
    9900012    2    1    2    0    0  0.82129450044E+01  0.16936771555E+02  0.36039682476E+02  0.50528863150E+02  0.30000010032E+02 0.  0.
         12    1    1    2    0    0 -0.82129450044E+01 -0.16936771555E+02 -0.36039682476E+02  0.40659136850E+02  0.00000000000E+00 0. -1.
         11    1    3    3    0    0 -0.27072073527E+01  0.14591676627E+02  0.23465388759E+02  0.27764554171E+02  0.51100000000E-03 0. -1.
        -11    1    3    3    0    0 -0.38703520215E+01  0.13146505057E+01  0.35015313720E+01  0.53822535180E+01  0.51100000000E-03 0.  1.
         12    1    3    3    0    0  0.14790504379E+02  0.10304444226E+01  0.90727623448E+01  0.17382055461E+02  0.00000000000E+00 0. -1.
</event>
<event>
 7    1  0.2575978E-011  0.5052886E+02  0.7816164E-02  0.1300439E+00
        -11   -1    0    0    0    0  0.00000000000E+00  0.00000000000E+00  0.45593999997E+02  0.45594000000E+02  0.51100000000E-03 0.  1.
         11   -1    0    0    0    0 -0.00000000000E+00 -0.00000000000E+00 -0.45593999997E+02  0.45594000000E+02  0.51100000000E-03 0. -1.
    9900012    2    1    2    0    0  0.76612666865E+01 -0.22043401124E+02  0.33295036061E+02  0.50528856297E+02  0.29999989200E+02 0.  0.
         12    1    1    2    0    0 -0.76612666865E+01  0.22043401124E+02 -0.33295036061E+02  0.40659143703E+02  0.00000000000E+00 0. -1.
         11    1    3    3    0    0  0.87603588379E+01 -0.78163491795E+01  0.26453603744E+01  0.12034830004E+02  0.51100000000E-03 0. -1.
        -11    1    3    3    0    0  0.29804722963E+01 -0.91398942685E+01  0.29777961658E+01  0.10064201539E+02  0.51100000000E-03 0.  1.
        -12    1    3    3    0    0 -0.40795644478E+01 -0.50871576764E+01  0.27671879521E+02  0.28429824754E+02  0.00000000000E+00 0.  1.
</event>
<event>
 7    1  0.2575978E-011  0.5052886E+02  0.7816164E-02  0.1300439E+00
        -11   -1    0    0    0    0  0.00000000000E+00  0.00000000000E+00  0.45593999997E+02  0.45594000000E+02  0.51100000000E-03 0.  1.
         11   -1    0    0    0    0 -0.00000000000E+00 -0.00000000000E+00 -0.45593999997E+02  0.45594000000E+02  0.51100000000E-03 0. -1.
    9900012    2    1    2    0    0  0.13569538161E+02 -0.37887844868E+02  0.57917691158E+01  0.50528859034E+02  0.29999997519E+02 0.  0.
         12    1    1    2    0    0 -0.13569538161E+02  0.37887844868E+02 -0.57917691158E+01  0.40659140966E+02  0.00000000000E+00 0. -1.
         11    1    3    3    0    0 -0.16378882490E+01 -0.79077954791E+00  0.48240964537E+01  0.51555714587E+01  0.51100000000E-03 0. -1.
        -11    1    3    3    0    0  0.78405919905E+01 -0.11485683780E+02  0.10116204592E+02  0.17196901182E+02  0.51100000000E-03 0.  1.
         12    1    3    3    0    0  0.73668344193E+01 -0.25611381539E+02 -0.91485319294E+01  0.28176386393E+02  0.00000000000E+00 0. -1.
</event>
<event>
 7    1  0.2575978E-011  0.5052886E+02  0.7816164E-02  0.1300439E+00
        -11   -1    0    0    0    0  0.00000000000E+00  0.00000000000E+00  0.45593999997E+02  0.45594000000E+02  0.51100000000E-03 0.  1.
         11   -1    0    0    0    0 -0.00000000000E+00 -0.00000000000E+00 -0.45593999997E+02  0.45594000000E+02  0.51100000000E-03 0. -1.
    9900012    2    1    2    0    0  0.23637305538E+02 -0.29397854048E+02  0.15172655332E+02  0.50528861968E+02  0.30000006437E+02 0.  0.
         12    1    1    2    0    0 -0.23637305538E+02  0.29397854048E+02 -0.15172655332E+02  0.40659138032E+02  0.00000000000E+00 0. -1.
         11    1    3    3    0    0  0.14022948138E+02 -0.20339046650E+02  0.37202754730E+01  0.24983201215E+02  0.51100000000E-03 0. -1.
        -11    1    3    3    0    0  0.66040094299E+01 -0.12033331684E+02  0.42376120124E+00  0.13732937988E+02  0.51100000000E-03 0.  1.
         12    1    3    3    0    0  0.30103479699E+01  0.29745242855E+01  0.11028618657E+02  0.11812722765E+02  0.00000000000E+00 0. -1.
</event>
<event>
 7    1  0.2575978E-011  0.5052886E+02  0.7816164E-02  0.1300439E+00
        -11   -1    0    0    0    0  0.00000000000E+00  0.00000000000E+00  0.45593999997E+02  0.45594000000E+02  0.51100000000E-03 0.  1.
         11   -1    0    0    0    0 -0.00000000000E+00 -0.00000000000E+00 -0.45593999997E+02  0.45594000000E+02  0.51100000000E-03 0. -1.
    9900012    2    1    2    0    0 -0.13842393823E+02 -0.24983293079E+02  0.28937668393E+02  0.50528862628E+02  0.30000008444E+02 0.  0.
         12    1    1    2    0    0  0.13842393823E+02  0.24983293079E+02 -0.28937668393E+02  0.40659137372E+02  0.00000000000E+00 0. -1.
         11    1    3    3    0    0 -0.58441456661E+01 -0.10616593633E+02  0.87661944906E+01  0.14957013908E+02  0.51100000000E-03 0. -1.
        -11    1    3    3    0    0 -0.10601906367E+02 -0.20147627818E+02  0.14017053726E+02  0.26735839630E+02  0.51100000000E-03 0.  1.
         12    1    3    3    0    0  0.26036582107E+01  0.57809283726E+01  0.61544201762E+01  0.88360090897E+01  0.00000000000E+00 0. -1.
</event>
<event>
 7    1  0.2575978E-011  0.5052886E+02  0.7816164E-02  0.1300439E+00
        -11   -1    0    0    0    0  0.00000000000E+00  0.00000000000E+00  0.45593999997E+02  0.45594000000E+02  0.51100000000E-03 0.  1.
         11   -1    0    0    0    0 -0.00000000000E+00 -0.00000000000E+00 -0.45593999997E+02  0.45594000000E+02  0.51100000000E-03 0. -1.
    9900012    2    1    2    0    0  0.11733493389E+02 -0.14068314432E+02  0.36298397418E+02  0.50528855971E+02  0.29999988209E+02 0.  0.
         12    1    1    2    0    0 -0.11733493389E+02  0.14068314432E+02 -0.36298397418E+02  0.40659144029E+02  0.00000000000E+00 0. -1.
         11    1    3    3    0    0 -0.23050586764E+01  0.19295189674E+01 -0.13702847888E+01  0.33036373304E+01  0.51100000000E-03 0. -1.
        -11    1    3    3    0    0  0.38615040832E+01  0.42928571197E+01  0.71622027135E+01  0.91998360858E+01  0.51100000000E-03 0.  1.
        -12    1    3    3    0    0  0.10177047982E+02 -0.20290690519E+02  0.30506479493E+02  0.38025382555E+02  0.00000000000E+00 0.  1.
</event>
<event>
 7    1  0.2575978E-011  0.5052887E+02  0.7816164E-02  0.1300439E+00
        -11   -1    0    0    0    0  0.00000000000E+00  0.00000000000E+00  0.45593999997E+02  0.45594000000E+02  0.51100000000E-03 0. -1.
         11   -1    0    0    0    0 -0.00000000000E+00 -0.00000000000E+00 -0.45593999997E+02  0.45594000000E+02  0.51100000000E-03 0.  1.
    9900012    2    1    2    0    0  0.11556375524E+02 -0.29677077937E+02 -0.25276201897E+02  0.50528866309E+02  0.30000019633E+02 0.  0.
         12    1    1    2    0    0 -0.11556375524E+02  0.29677077937E+02  0.25276201897E+02  0.40659133691E+02  0.00000000000E+00 0. -1.
         11    1    3    3    0    0 -0.11437342047E+00 -0.57863005381E+01 -0.68752442649E+01  0.89868425579E+01  0.51100000000E-03 0. -1.
        -11    1    3    3    0    0  0.37893689808E+01 -0.11468684290E+02 -0.23126170580E+02  0.26090415915E+02  0.51100000000E-03 0.  1.
         12    1    3    3    0    0  0.78813799638E+01 -0.12422093108E+02  0.47252129480E+01  0.15451607837E+02  0.00000000000E+00 0. -1.
</event>
<event>
 7    1  0.2575978E-011  0.5052886E+02  0.7816164E-02  0.1300439E+00
        -11   -1    0    0    0    0  0.00000000000E+00  0.00000000000E+00  0.45593999997E+02  0.45594000000E+02  0.51100000000E-03 0.  1.
         11   -1    0    0    0    0 -0.00000000000E+00 -0.00000000000E+00 -0.45593999997E+02  0.45594000000E+02  0.51100000000E-03 0. -1.
    9900012    2    1    2    0    0  0.23956118972E+02  0.71101591236E+01  0.32073594868E+02  0.50528862199E+02  0.30000007141E+02 0.  0.
         12    1    1    2    0    0 -0.23956118972E+02 -0.71101591236E+01 -0.32073594868E+02  0.40659137801E+02  0.00000000000E+00 0. -1.
         11    1    3    3    0    0  0.79005364082E+01 -0.15288640703E+01  0.11585848038E+02  0.14106302701E+02  0.51100000000E-03 0. -1.
        -11    1    3    3    0    0  0.98572938159E+01 -0.75250568994E+01  0.11518065297E+02  0.16925086445E+02  0.51100000000E-03 0.  1.
         12    1    3    3    0    0  0.61982887477E+01  0.16164080093E+02  0.89696815328E+01  0.19497473053E+02  0.00000000000E+00 0. -1.
</event>
<event>
 7    1  0.2575978E-011  0.5052886E+02  0.7816164E-02  0.1300439E+00
        -11   -1    0    0    0    0  0.00000000000E+00  0.00000000000E+00  0.45593999997E+02  0.45594000000E+02  0.51100000000E-03 0. -1.
         11   -1    0    0    0    0 -0.00000000000E+00 -0.00000000000E+00 -0.45593999997E+02  0.45594000000E+02  0.51100000000E-03 0.  1.
    9900012    2    1    2    0    0  0.31572153142E+02 -0.17877087675E+02 -0.18351419724E+02  0.50528859286E+02  0.29999998285E+02 0.  0.
         12    1    1    2    0    0 -0.31572153142E+02  0.17877087675E+02  0.18351419724E+02  0.40659140714E+02  0.00000000000E+00 0. -1.
         11    1    3    3    0    0  0.62381963785E+01  0.23997076207E+00 -0.16042103729E+01  0.64456319477E+01  0.51100000000E-03 0. -1.
        -11    1    3    3    0    0  0.14178542138E+02  0.48967562565E+01 -0.40918767139E+01  0.15548399734E+02  0.51100000000E-03 0.  1.
        -12    1    3    3    0    0  0.11155414625E+02 -0.23013814694E+02 -0.12655332637E+02  0.28534827604E+02  0.00000000000E+00 0.  1.
</event>
<event>
 7    1  0.2575978E-011  0.5052888E+02  0.7816164E-02  0.1300439E+00
        -11   -1    0    0    0    0  0.00000000000E+00  0.00000000000E+00  0.45593999997E+02  0.45594000000E+02  0.51100000000E-03 0.  1.
         11   -1    0    0    0    0 -0.00000000000E+00 -0.00000000000E+00 -0.45593999997E+02  0.45594000000E+02  0.51100000000E-03 0. -1.
    9900012    2    1    2    0    0  0.38951945701E+02  0.17296135086E+01 -0.11529018045E+02  0.50528881787E+02  0.30000066679E+02 0.  0.
         12    1    1    2    0    0 -0.38951945701E+02 -0.17296135086E+01  0.11529018045E+02  0.40659118213E+02  0.00000000000E+00 0. -1.
         11    1    3    3    0    0  0.62787888541E+01 -0.26499236664E+01 -0.40974250104E-01  0.68152009554E+01  0.51100000000E-03 0. -1.
        -11    1    3    3    0    0  0.17040628165E+02  0.77520114456E+01  0.63386270309E+01  0.19764991339E+02  0.51100000000E-03 0.  1.
        -12    1    3    3    0    0  0.15632528682E+02 -0.33724742706E+01 -0.17826670826E+02  0.23948689493E+02  0.00000000000E+00 0.  1.
</event>
<event>
 7    1  0.2575978E-011  0.5052886E+02  0.7816164E-02  0.1300439E+00
        -11   -1    0    0    0    0  0.00000000000E+00  0.00000000000E+00  0.45593999997E+02  0.45594000000E+02  0.51100000000E-03 0.  1.
         11   -1    0    0    0    0 -0.00000000000E+00 -0.00000000000E+00 -0.45593999997E+02  0.45594000000E+02  0.51100000000E-03 0. -1.
    9900012    2    1    2    0    0 -0.39243978765E+02  0.10162310485E+02  0.31310019920E+01  0.50528860841E+02  0.30000003011E+02 0.  0.
         12    1    1    2    0    0  0.39243978765E+02 -0.10162310485E+02 -0.31310019920E+01  0.40659139159E+02  0.00000000000E+00 0. -1.
         11    1    3    3    0    0 -0.61318808293E+01 -0.50647712279E+01 -0.36112369367E+01  0.87345808468E+01  0.51100000000E-03 0. -1.
        -11    1    3    3    0    0  0.12771653580E+00 -0.23056169390E+01  0.33396564246E+01  0.40602322937E+01  0.51100000000E-03 0.  1.
         12    1    3    3    0    0 -0.33239814472E+02  0.17532698652E+02  0.34025825040E+01  0.37734047700E+02  0.00000000000E+00 0. -1.
</event>
<event>
 7    1  0.2575978E-011  0.5052885E+02  0.7816164E-02  0.1300439E+00
        -11   -1    0    0    0    0  0.00000000000E+00  0.00000000000E+00  0.45593999997E+02  0.45594000000E+02  0.51100000000E-03 0. -1.
         11   -1    0    0    0    0 -0.00000000000E+00 -0.00000000000E+00 -0.45593999997E+02  0.45594000000E+02  0.51100000000E-03 0.  1.
    9900012    2    1    2    0    0  0.16767598308E+02  0.36834596575E+02 -0.39020863251E+01  0.50528854220E+02  0.29999982888E+02 0.  0.
         12    1    1    2    0    0 -0.16767598308E+02 -0.36834596575E+02  0.39020863251E+01  0.40659145780E+02  0.00000000000E+00 0. -1.
         11    1    3    3    0    0  0.27399942786E+01  0.23584546563E+01 -0.10978727730E+02  0.11558647838E+02  0.51100000000E-03 0. -1.
        -11    1    3    3    0    0  0.81299555518E+01  0.92097718161E+01  0.10196774523E+01  0.12327036000E+02  0.51100000000E-03 0.  1.
        -12    1    3    3    0    0  0.58976484776E+01  0.25266370102E+02  0.60569639522E+01  0.26643170383E+02  0.00000000000E+00 0.  1.
</event>
<event>
 7    1  0.2575978E-011  0.5052886E+02  0.7816164E-02  0.1300439E+00
        -11   -1    0    0    0    0  0.00000000000E+00  0.00000000000E+00  0.45593999997E+02  0.45594000000E+02  0.51100000000E-03 0. -1.
         11   -1    0    0    0    0 -0.00000000000E+00 -0.00000000000E+00 -0.45593999997E+02  0.45594000000E+02  0.51100000000E-03 0.  1.
    9900012    2    1    2    0    0  0.33854050143E+02 -0.10936833152E+02  0.19683868012E+02  0.50528859694E+02  0.29999999526E+02 0.  0.
         12    1    1    2    0    0 -0.33854050143E+02  0.10936833152E+02 -0.19683868012E+02  0.40659140306E+02  0.00000000000E+00 0. -1.
         11    1    3    3    0    0  0.86589767481E+01 -0.11984922615E+02  0.90366838142E+01  0.17328528588E+02  0.51100000000E-03 0. -1.
        -11    1    3    3    0    0  0.19416681409E+02 -0.18184392531E+00 -0.17209466739E+01  0.19493646192E+02  0.51100000000E-03 0.  1.
         12    1    3    3    0    0  0.57783919866E+01  0.12299333880E+01  0.12368130871E+02  0.13706684914E+02  0.00000000000E+00 0. -1.
</event>
<event>
 7    1  0.2575978E-011  0.5052886E+02  0.7816164E-02  0.1300439E+00
        -11   -1    0    0    0    0  0.00000000000E+00  0.00000000000E+00  0.45593999997E+02  0.45594000000E+02  0.51100000000E-03 0.  1.
         11   -1    0    0    0    0 -0.00000000000E+00 -0.00000000000E+00 -0.45593999997E+02  0.45594000000E+02  0.51100000000E-03 0. -1.
    9900012    2    1    2    0    0  0.20187279257E+02 -0.39787542121E+01  0.35068633043E+02  0.50528858932E+02  0.29999997209E+02 0.  0.
         12    1    1    2    0    0 -0.20187279257E+02  0.39787542121E+01 -0.35068633043E+02  0.40659141068E+02  0.00000000000E+00 0. -1.
         11    1    3    3    0    0 -0.36687932761E+01  0.13876631708E+01  0.85198383032E+01  0.93794081984E+01  0.51100000000E-03 0. -1.
        -11    1    3    3    0    0  0.67643456096E+01  0.27355679886E+01  0.19741882445E+02  0.21047128699E+02  0.51100000000E-03 0.  1.
        -12    1    3    3    0    0  0.17091726923E+02 -0.81019853714E+01  0.68069122953E+01  0.20102322034E+02  0.00000000000E+00 0.  1.
</event>
<event>
 7    1  0.2575978E-011  0.5052886E+02  0.7816164E-02  0.1300439E+00
        -11   -1    0    0    0    0  0.00000000000E+00  0.00000000000E+00  0.45593999997E+02  0.45594000000E+02  0.51100000000E-03 0.  1.
         11   -1    0    0    0    0 -0.00000000000E+00 -0.00000000000E+00 -0.45593999997E+02  0.45594000000E+02  0.51100000000E-03 0. -1.
    9900012    2    1    2    0    0  0.25907122834E+02  0.92468351413E+01  0.29941317757E+02  0.50528862249E+02  0.30000007291E+02 0.  0.
         12    1    1    2    0    0 -0.25907122834E+02 -0.92468351413E+01 -0.29941317757E+02  0.40659137751E+02  0.00000000000E+00 0. -1.
         11    1    3    3    0    0 -0.34858656374E+01  0.18916923714E-01  0.28751942255E+01  0.45186678555E+01  0.51100000000E-03 0. -1.
        -11    1    3    3    0    0  0.21374632536E+02 -0.86506426127E+00  0.25085946622E+02  0.32968590665E+02  0.51100000000E-03 0.  1.
         12    1    3    3    0    0  0.80183559352E+01  0.10092982479E+02  0.19801769097E+01  0.13041603729E+02  0.00000000000E+00 0. -1.
</event>
<event>
 7    1  0.2575978E-011  0.5052887E+02  0.7816164E-02  0.1300439E+00
        -11   -1    0    0    0    0  0.00000000000E+00  0.00000000000E+00  0.45593999997E+02  0.45594000000E+02  0.51100000000E-03 0.  1.
         11   -1    0    0    0    0 -0.00000000000E+00 -0.00000000000E+00 -0.45593999997E+02  0.45594000000E+02  0.51100000000E-03 0. -1.
    9900012    2    1    2    0    0 -0.16215199210E+01 -0.40525119262E+02 -0.28722522045E+01  0.50528874938E+02  0.30000045862E+02 0.  0.
         12    1    1    2    0    0  0.16215199210E+01  0.40525119262E+02  0.28722522045E+01  0.40659125062E+02  0.00000000000E+00 0. -1.
         11    1    3    3    0    0 -0.81068428161E+01 -0.40505429086E+01  0.36198745638E+01  0.97586520800E+01  0.51100000000E-03 0. -1.
        -11    1    3    3    0    0  0.72969948289E+01 -0.82163163656E+01  0.21740681565E+01  0.11201810602E+02  0.51100000000E-03 0.  1.
         12    1    3    3    0    0 -0.81167193383E+00 -0.28258259988E+02 -0.86661949249E+01  0.29568412256E+02  0.00000000000E+00 0. -1.
</event>
<event>
 7    1  0.2575978E-011  0.5052885E+02  0.7816164E-02  0.1300439E+00
        -11   -1    0    0    0    0  0.00000000000E+00  0.00000000000E+00  0.45593999997E+02  0.45594000000E+02  0.51100000000E-03 0.  1.
         11   -1    0    0    0    0 -0.00000000000E+00 -0.00000000000E+00 -0.45593999997E+02  0.45594000000E+02  0.51100000000E-03 0. -1.
    9900012    2    1    2    0    0  0.17512121799E+02  0.65161934081E+00  0.36688797014E+02  0.50528845508E+02  0.29999956407E+02 0.  0.
         12    1    1    2    0    0 -0.17512121799E+02 -0.65161934081E+00 -0.36688797014E+02  0.40659154492E+02  0.00000000000E+00 0. -1.
         11    1    3    3    0    0  0.63515184371E+01 -0.43887328389E+01  0.10353467679E+02  0.12914993443E+02  0.51100000000E-03 0. -1.
        -11    1    3    3    0    0 -0.41637595538E+00 -0.59962812972E+01  0.19164839478E+02  0.20085313809E+02  0.51100000000E-03 0.  1.
         12    1    3    3    0    0  0.11576979318E+02  0.11036633477E+02  0.71704898572E+01  0.17528538257E+02  0.00000000000E+00 0. -1.
</event>
<event>
 7    1  0.2575978E-011  0.5052886E+02  0.7816164E-02  0.1300439E+00
        -11   -1    0    0    0    0  0.00000000000E+00  0.00000000000E+00  0.45593999997E+02  0.45594000000E+02  0.51100000000E-03 0.  1.
         11   -1    0    0    0    0 -0.00000000000E+00 -0.00000000000E+00 -0.45593999997E+02  0.45594000000E+02  0.51100000000E-03 0. -1.
    9900012    2    1    2    0    0 -0.80371746757E+01  0.57325274076E+01  0.39442454692E+02  0.50528864749E+02  0.30000014892E+02 0.  0.
         12    1    1    2    0    0  0.80371746757E+01 -0.57325274076E+01 -0.39442454692E+02  0.40659135251E+02  0.00000000000E+00 0. -1.
         11    1    3    3    0    0  0.78817821307E+01  0.24539566140E+01  0.21496705867E+01  0.85302682555E+01  0.51100000000E-03 0. -1.
        -11    1    3    3    0    0 -0.66857604915E+01  0.94110191372E+00  0.51992389587E+01  0.85215698186E+01  0.51100000000E-03 0.  1.
        -12    1    3    3    0    0 -0.92331963148E+01  0.23374688799E+01  0.32093545146E+02  0.33477026675E+02  0.00000000000E+00 0.  1.
</event>
<event>
 7    1  0.2575978E-011  0.5052886E+02  0.7816164E-02  0.1300439E+00
        -11   -1    0    0    0    0  0.00000000000E+00  0.00000000000E+00  0.45593999997E+02  0.45594000000E+02  0.51100000000E-03 0.  1.
         11   -1    0    0    0    0 -0.00000000000E+00 -0.00000000000E+00 -0.45593999997E+02  0.45594000000E+02  0.51100000000E-03 0. -1.
    9900012    2    1    2    0    0 -0.14042822117E+02  0.31792637032E+02  0.21099606614E+02  0.50528855620E+02  0.29999987142E+02 0.  0.
         12    1    1    2    0    0  0.14042822117E+02 -0.31792637032E+02 -0.21099606614E+02  0.40659144380E+02  0.00000000000E+00 0. -1.
         11    1    3    3    0    0 -0.46446696956E+01  0.15535496123E+01  0.83494843221E+01  0.96798947146E+01  0.51100000000E-03 0. -1.
        -11    1    3    3    0    0 -0.44427238265E+01 -0.25901020132E+01 -0.35543617628E+00  0.51548771638E+01  0.51100000000E-03 0.  1.
        -12    1    3    3    0    0 -0.49554285954E+01  0.32829189433E+02  0.13105558468E+02  0.35694083741E+02  0.00000000000E+00 0.  1.
</event>
<event>
 7    1  0.2575978E-011  0.5052887E+02  0.7816164E-02  0.1300439E+00
        -11   -1    0    0    0    0  0.00000000000E+00  0.00000000000E+00  0.45593999997E+02  0.45594000000E+02  0.51100000000E-03 0.  1.
         11   -1    0    0    0    0 -0.00000000000E+00 -0.00000000000E+00 -0.45593999997E+02  0.45594000000E+02  0.51100000000E-03 0. -1.
    9900012    2    1    2    0    0 -0.72332913938E+01 -0.31645907729E+02  0.24482263956E+02  0.50528865371E+02  0.30000016781E+02 0.  0.
         12    1    1    2    0    0  0.72332913938E+01  0.31645907729E+02 -0.24482263956E+02  0.40659134629E+02  0.00000000000E+00 0. -1.
         11    1    3    3    0    0  0.13788478747E+01 -0.53297660607E+01  0.10016636937E+01  0.55956195492E+01  0.51100000000E-03 0.  1.
        -11    1    3    3    0    0  0.71759890287E+00 -0.28587701971E+02  0.16060035019E+02  0.32797810555E+02  0.51100000000E-03 0. -1.
         12    1    3    3    0    0 -0.93297381713E+01  0.22715603029E+01  0.74205652441E+01  0.12135435266E+02  0.00000000000E+00 0. -1.
</event>
<event>
 7    1  0.2575978E-011  0.5052887E+02  0.7816164E-02  0.1300439E+00
        -11   -1    0    0    0    0  0.00000000000E+00  0.00000000000E+00  0.45593999997E+02  0.45594000000E+02  0.51100000000E-03 0.  1.
         11   -1    0    0    0    0 -0.00000000000E+00 -0.00000000000E+00 -0.45593999997E+02  0.45594000000E+02  0.51100000000E-03 0. -1.
    9900012    2    1    2    0    0  0.30180261375E+02  0.66685154164E+00  0.27237331304E+02  0.50528867149E+02  0.30000022186E+02 0.  0.
         12    1    1    2    0    0 -0.30180261375E+02 -0.66685154164E+00 -0.27237331304E+02  0.40659132851E+02  0.00000000000E+00 0. -1.
         11    1    3    3    0    0 -0.26887184584E+01 -0.31831460016E+01  0.11435582074E+00  0.41682973660E+01  0.51100000000E-03 0. -1.
        -11    1    3    3    0    0 -0.18173097884E+01  0.31962731143E+00  0.43273321503E+01  0.47043150708E+01  0.51100000000E-03 0.  1.
        -12    1    3    3    0    0  0.34686289622E+02  0.35303702318E+01  0.22795643333E+02  0.41656254712E+02  0.00000000000E+00 0.  1.
</event>
<event>
 7    1  0.2575978E-011  0.5052887E+02  0.7816164E-02  0.1300439E+00
        -11   -1    0    0    0    0  0.00000000000E+00  0.00000000000E+00  0.45593999997E+02  0.45594000000E+02  0.51100000000E-03 0. -1.
         11   -1    0    0    0    0 -0.00000000000E+00 -0.00000000000E+00 -0.45593999997E+02  0.45594000000E+02  0.51100000000E-03 0.  1.
    9900012    2    1    2    0    0  0.48856427699E+00 -0.32376185416E+02 -0.24590830950E+02  0.50528867644E+02  0.30000023692E+02 0.  0.
         12    1    1    2    0    0 -0.48856427699E+00  0.32376185416E+02  0.24590830950E+02  0.40659132356E+02  0.00000000000E+00 0. -1.
         11    1    3    3    0    0 -0.65998077044E+01 -0.81478587458E+01 -0.16735749704E+02  0.19749186877E+02  0.51100000000E-03 0. -1.
        -11    1    3    3    0    0 -0.43543882107E+01 -0.78940128161E+01  0.77576071571E+00  0.90486429911E+01  0.51100000000E-03 0.  1.
        -12    1    3    3    0    0  0.11442760192E+02 -0.16334313854E+02 -0.86308419614E+01  0.21731037777E+02  0.00000000000E+00 0.  1.
</event>
<event>
 7    1  0.2575978E-011  0.5052886E+02  0.7816164E-02  0.1300439E+00
        -11   -1    0    0    0    0  0.00000000000E+00  0.00000000000E+00  0.45593999997E+02  0.45594000000E+02  0.51100000000E-03 0. -1.
         11   -1    0    0    0    0 -0.00000000000E+00 -0.00000000000E+00 -0.45593999997E+02  0.45594000000E+02  0.51100000000E-03 0.  1.
    9900012    2    1    2    0    0  0.13185469641E+02 -0.15687032516E+02 -0.35117321335E+02  0.50528857651E+02  0.29999993314E+02 0.  0.
         12    1    1    2    0    0 -0.13185469641E+02  0.15687032516E+02  0.35117321335E+02  0.40659142349E+02  0.00000000000E+00 0. -1.
         11    1    3    3    0    0 -0.38045916405E+01 -0.74331905487E+01 -0.93645510737E+01  0.12546794665E+02  0.51100000000E-03 0. -1.
        -11    1    3    3    0    0 -0.47493599524E+01 -0.27611414915E+01 -0.48854431282E+01  0.73517261315E+01  0.51100000000E-03 0.  1.
        -12    1    3    3    0    0  0.21739421234E+02 -0.54927004759E+01 -0.20867327134E+02  0.30630336854E+02  0.00000000000E+00 0.  1.
</event>
<event>
 7    1  0.2575978E-011  0.5052886E+02  0.7816164E-02  0.1300439E+00
        -11   -1    0    0    0    0  0.00000000000E+00  0.00000000000E+00  0.45593999997E+02  0.45594000000E+02  0.51100000000E-03 0. -1.
         11   -1    0    0    0    0 -0.00000000000E+00 -0.00000000000E+00 -0.45593999997E+02  0.45594000000E+02  0.51100000000E-03 0.  1.
    9900012    2    1    2    0    0 -0.39826352736E+01  0.25515191563E+02 -0.31405078451E+02  0.50528864043E+02  0.30000012746E+02 0.  0.
         12    1    1    2    0    0  0.39826352736E+01 -0.25515191563E+02  0.31405078451E+02  0.40659135957E+02  0.00000000000E+00 0. -1.
         11    1    3    3    0    0  0.12502667031E+01  0.41023353816E+01 -0.32879786199E+01  0.54039916800E+01  0.51100000000E-03 0.  1.
        -11    1    3    3    0    0  0.80024152874E+01  0.20462593146E+02 -0.18718978109E+02  0.28864450634E+02  0.51100000000E-03 0. -1.
        -12    1    3    3    0    0 -0.13235317264E+02  0.95026303595E+00 -0.93981217223E+01  0.16260421730E+02  0.00000000000E+00 0.  1.
</event>
<event>
 7    1  0.2575978E-011  0.5052887E+02  0.7816164E-02  0.1300439E+00
        -11   -1    0    0    0    0  0.00000000000E+00  0.00000000000E+00  0.45593999997E+02  0.45594000000E+02  0.51100000000E-03 0. -1.
         11   -1    0    0    0    0 -0.00000000000E+00 -0.00000000000E+00 -0.45593999997E+02  0.45594000000E+02  0.51100000000E-03 0.  1.
    9900012    2    1    2    0    0  0.28046804322E+02  0.29118121985E+02  0.43216862526E+01  0.50528865323E+02  0.30000016636E+02 0.  0.
         12    1    1    2    0    0 -0.28046804322E+02 -0.29118121985E+02 -0.43216862526E+01  0.40659134677E+02  0.00000000000E+00 0. -1.
         11    1    3    3    0    0  0.16106022937E+01  0.68088679540E+01 -0.27445127429E+00  0.70021458373E+01  0.51100000000E-03 0. -1.
        -11    1    3    3    0    0  0.18174697022E+02  0.27854276837E+02  0.24600327057E+01  0.33350144095E+02  0.51100000000E-03 0.  1.
         12    1    3    3    0    0  0.82615050063E+01 -0.55450228060E+01  0.21361048212E+01  0.10176575391E+02  0.00000000000E+00 0. -1.
</event>
<event>
 7    1  0.2575978E-011  0.5052886E+02  0.7816164E-02  0.1300439E+00
        -11   -1    0    0    0    0  0.00000000000E+00  0.00000000000E+00  0.45593999997E+02  0.45594000000E+02  0.51100000000E-03 0.  1.
         11   -1    0    0    0    0 -0.00000000000E+00 -0.00000000000E+00 -0.45593999997E+02  0.45594000000E+02  0.51100000000E-03 0. -1.
    9900012    2    1    2    0    0 -0.14590378997E+02  0.37947698062E+02 -0.50897958419E+00  0.50528855792E+02  0.29999987666E+02 0.  0.
         12    1    1    2    0    0  0.14590378997E+02 -0.37947698062E+02  0.50897958419E+00  0.40659144208E+02  0.00000000000E+00 0. -1.
         11    1    3    3    0    0  0.24177163338E+01  0.14881301187E+02  0.46594237051E+00  0.15083619587E+02  0.51100000000E-03 0.  1.
        -11    1    3    3    0    0 -0.14780263849E+01 -0.37296637046E+01 -0.19459163836E+01  0.44588725231E+01  0.51100000000E-03 0. -1.
         12    1    3    3    0    0 -0.15530068946E+02  0.26796060580E+02  0.97099442887E+00  0.30986363682E+02  0.00000000000E+00 0. -1.
</event>
<event>
 7    1  0.2575978E-011  0.5052886E+02  0.7816164E-02  0.1300439E+00
        -11   -1    0    0    0    0  0.00000000000E+00  0.00000000000E+00  0.45593999997E+02  0.45594000000E+02  0.51100000000E-03 0.  1.
         11   -1    0    0    0    0 -0.00000000000E+00 -0.00000000000E+00 -0.45593999997E+02  0.45594000000E+02  0.51100000000E-03 0. -1.
    9900012    2    1    2    0    0 -0.19779536527E+02  0.32829767252E+02  0.13569885290E+02  0.50528862407E+02  0.30000007773E+02 0.  0.
         12    1    1    2    0    0  0.19779536527E+02 -0.32829767252E+02 -0.13569885290E+02  0.40659137593E+02  0.00000000000E+00 0. -1.
         11    1    3    3    0    0 -0.12518813228E+01 -0.22904497603E+01 -0.92377019388E+00  0.27688839960E+01  0.51100000000E-03 0. -1.
        -11    1    3    3    0    0 -0.21597092027E+02  0.19057285169E+02  0.12061666362E+02  0.31226563976E+02  0.51100000000E-03 0.  1.
         12    1    3    3    0    0  0.30694368230E+01  0.16062931843E+02  0.24319891211E+01  0.16533414435E+02  0.00000000000E+00 0. -1.
</event>
<event>
 7    1  0.2575978E-011  0.5052886E+02  0.7816164E-02  0.1300439E+00
        -11   -1    0    0    0    0  0.00000000000E+00  0.00000000000E+00  0.45593999997E+02  0.45594000000E+02  0.51100000000E-03 0.  1.
         11   -1    0    0    0    0 -0.00000000000E+00 -0.00000000000E+00 -0.45593999997E+02  0.45594000000E+02  0.51100000000E-03 0. -1.
    9900012    2    1    2    0    0  0.34375838103E+02 -0.26734473791E+01  0.21548092120E+02  0.50528857852E+02  0.29999993926E+02 0.  0.
         12    1    1    2    0    0 -0.34375838103E+02  0.26734473791E+01 -0.21548092120E+02  0.40659142148E+02  0.00000000000E+00 0. -1.
         11    1    3    3    0    0 -0.28350320235E+01 -0.19517087171E+01  0.51842623251E+01  0.62227927498E+01  0.51100000000E-03 0. -1.
        -11    1    3    3    0    0  0.15838222215E+02 -0.59959507511E+01  0.14355354316E+02  0.22200831204E+02  0.51100000000E-03 0.  1.
         12    1    3    3    0    0  0.21372647912E+02  0.52742120891E+01  0.20084754789E+01  0.22105233898E+02  0.00000000000E+00 0. -1.
</event>
<event>
 7    1  0.2575978E-011  0.5052885E+02  0.7816164E-02  0.1300439E+00
        -11   -1    0    0    0    0  0.00000000000E+00  0.00000000000E+00  0.45593999997E+02  0.45594000000E+02  0.51100000000E-03 0. -1.
         11   -1    0    0    0    0 -0.00000000000E+00 -0.00000000000E+00 -0.45593999997E+02  0.45594000000E+02  0.51100000000E-03 0.  1.
    9900012    2    1    2    0    0  0.10885470406E+02  0.19656009869E+02 -0.33886785320E+02  0.50528850854E+02  0.29999972656E+02 0.  0.
         12    1    1    2    0    0 -0.10885470406E+02 -0.19656009869E+02  0.33886785320E+02  0.40659149146E+02  0.00000000000E+00 0. -1.
         11    1    3    3    0    0  0.66415279898E+01 -0.36845814940E+01 -0.65158165711E+01  0.10007092519E+02  0.51100000000E-03 0. -1.
        -11    1    3    3    0    0  0.88825958912E+01  0.14997734875E+02 -0.85419323823E+01  0.19411264004E+02  0.51100000000E-03 0.  1.
        -12    1    3    3    0    0 -0.46386534749E+01  0.83428564886E+01 -0.18829036366E+02  0.21110494332E+02  0.00000000000E+00 0.  1.
</event>
<event>
 7    1  0.2575978E-011  0.5052886E+02  0.7816164E-02  0.1300439E+00
        -11   -1    0    0    0    0  0.00000000000E+00  0.00000000000E+00  0.45593999997E+02  0.45594000000E+02  0.51100000000E-03 0.  1.
         11   -1    0    0    0    0 -0.00000000000E+00 -0.00000000000E+00 -0.45593999997E+02  0.45594000000E+02  0.51100000000E-03 0. -1.
    9900012    2    1    2    0    0  0.25096854399E+02  0.20131930563E+02  0.24859984950E+02  0.50528861044E+02  0.30000003629E+02 0.  0.
         12    1    1    2    0    0 -0.25096854399E+02 -0.20131930563E+02 -0.24859984950E+02  0.40659138956E+02  0.00000000000E+00 0. -1.
         11    1    3    3    0    0 -0.22373785305E+01  0.13003173563E+02  0.24250201388E+01  0.13415256551E+02  0.51100000000E-03 0. -1.
        -11    1    3    3    0    0  0.84284267606E+01  0.58932663895E+01  0.10629684624E+02  0.14790509182E+02  0.51100000000E-03 0.  1.
        -12    1    3    3    0    0  0.18905806169E+02  0.12354906108E+01  0.11805280188E+02  0.22323095311E+02  0.00000000000E+00 0.  1.
</event>
<event>
 7    1  0.2575978E-011  0.5052887E+02  0.7816164E-02  0.1300439E+00
        -11   -1    0    0    0    0  0.00000000000E+00  0.00000000000E+00  0.45593999997E+02  0.45594000000E+02  0.51100000000E-03 0.  1.
         11   -1    0    0    0    0 -0.00000000000E+00 -0.00000000000E+00 -0.45593999997E+02  0.45594000000E+02  0.51100000000E-03 0. -1.
    9900012    2    1    2    0    0 -0.38379519238E+02 -0.59976586545E+01  0.12008571484E+02  0.50528865782E+02  0.30000018031E+02 0.  0.
         12    1    1    2    0    0  0.38379519238E+02  0.59976586545E+01 -0.12008571484E+02  0.40659134218E+02  0.00000000000E+00 0. -1.
         11    1    3    3    0    0 -0.12278716382E+02  0.34706712024E+01 -0.32219876351E+01  0.13160305436E+02  0.51100000000E-03 0. -1.
        -11    1    3    3    0    0  0.11981928570E+00 -0.66011710975E+00 -0.37580786181E+01  0.38174947834E+01  0.51100000000E-03 0.  1.
        -12    1    3    3    0    0 -0.26220622141E+02 -0.88082127471E+01  0.18988637737E+02  0.33551065563E+02  0.00000000000E+00 0.  1.
</event>
<event>
 7    1  0.2575978E-011  0.5052886E+02  0.7816164E-02  0.1300439E+00
        -11   -1    0    0    0    0  0.00000000000E+00  0.00000000000E+00  0.45593999997E+02  0.45594000000E+02  0.51100000000E-03 0.  1.
         11   -1    0    0    0    0 -0.00000000000E+00 -0.00000000000E+00 -0.45593999997E+02  0.45594000000E+02  0.51100000000E-03 0. -1.
    9900012    2    1    2    0    0  0.11034920265E+02  0.36025375857E+02  0.15282950857E+02  0.50528858866E+02  0.29999997008E+02 0.  0.
         12    1    1    2    0    0 -0.11034920265E+02 -0.36025375857E+02 -0.15282950857E+02  0.40659141134E+02  0.00000000000E+00 0. -1.
         11    1    3    3    0    0  0.34358023276E+01  0.41631516260E+01  0.30068624039E+01  0.61788179187E+01  0.51100000000E-03 0. -1.
        -11    1    3    3    0    0 -0.17162764588E+01  0.33166468710E+02  0.95315738081E+01  0.34551572339E+02  0.51100000000E-03 0.  1.
         12    1    3    3    0    0  0.93153943964E+01 -0.13042444794E+01  0.27445146452E+01  0.97984686079E+01  0.00000000000E+00 0. -1.
</event>
<event>
 7    1  0.2575978E-011  0.5052887E+02  0.7816164E-02  0.1300439E+00
        -11   -1    0    0    0    0  0.00000000000E+00  0.00000000000E+00  0.45593999997E+02  0.45594000000E+02  0.51100000000E-03 0.  1.
         11   -1    0    0    0    0 -0.00000000000E+00 -0.00000000000E+00 -0.45593999997E+02  0.45594000000E+02  0.51100000000E-03 0. -1.
    9900012    2    1    2    0    0 -0.28627154242E+02 -0.13202590601E+02  0.25677663322E+02  0.50528871231E+02  0.30000034593E+02 0.  0.
         12    1    1    2    0    0  0.28627154242E+02  0.13202590601E+02 -0.25677663322E+02  0.40659128769E+02  0.00000000000E+00 0. -1.
         11    1    3    3    0    0 -0.11159182899E+02  0.22243289144E+01  0.17830400242E+01  0.11517561985E+02  0.51100000000E-03 0. -1.
        -11    1    3    3    0    0 -0.10330245356E+02  0.31989916388E+01  0.97266795343E+01  0.14544958290E+02  0.51100000000E-03 0.  1.
        -12    1    3    3    0    0 -0.71377259870E+01 -0.18625911155E+02  0.14167943764E+02  0.24466350956E+02  0.00000000000E+00 0.  1.
</event>
<event>
 7    1  0.2575978E-011  0.5052886E+02  0.7816164E-02  0.1300439E+00
        -11   -1    0    0    0    0  0.00000000000E+00  0.00000000000E+00  0.45593999997E+02  0.45594000000E+02  0.51100000000E-03 0. -1.
         11   -1    0    0    0    0 -0.00000000000E+00 -0.00000000000E+00 -0.45593999997E+02  0.45594000000E+02  0.51100000000E-03 0.  1.
    9900012    2    1    2    0    0 -0.25591975265E+02  0.31592198290E+02 -0.38708874768E+00  0.50528855537E+02  0.29999986891E+02 0.  0.
         12    1    1    2    0    0  0.25591975265E+02 -0.31592198290E+02  0.38708874768E+00  0.40659144463E+02  0.00000000000E+00 0. -1.
         11    1    3    3    0    0 -0.46478755382E+01  0.14430608970E+02  0.16009991525E+01  0.15244947386E+02  0.51100000000E-03 0. -1.
        -11    1    3    3    0    0 -0.24855740302E+02  0.17508653259E+02  0.88810960866E+00  0.30416270380E+02  0.51100000000E-03 0.  1.
        -12    1    3    3    0    0  0.39116405742E+01 -0.34706393950E+00 -0.28761975089E+01  0.48676377710E+01  0.00000000000E+00 0.  1.
</event>
<event>
 7    1  0.2575978E-011  0.5052886E+02  0.7816164E-02  0.1300439E+00
        -11   -1    0    0    0    0  0.00000000000E+00  0.00000000000E+00  0.45593999997E+02  0.45594000000E+02  0.51100000000E-03 0.  1.
         11   -1    0    0    0    0 -0.00000000000E+00 -0.00000000000E+00 -0.45593999997E+02  0.45594000000E+02  0.51100000000E-03 0. -1.
    9900012    2    1    2    0    0 -0.32391783111E+02 -0.23267926187E+02 -0.79083198800E+01  0.50528861722E+02  0.30000005690E+02 0.  0.
         12    1    1    2    0    0  0.32391783111E+02  0.23267926187E+02  0.79083198800E+01  0.40659138278E+02  0.00000000000E+00 0. -1.
         11    1    3    3    0    0  0.46182978395E+01 -0.21065690870E+01 -0.12528991251E+01  0.52283902620E+01  0.51100000000E-03 0. -1.
        -11    1    3    3    0    0 -0.42990148731E+01 -0.79708205660E+01 -0.40896209499E+01  0.99368259092E+01  0.51100000000E-03 0.  1.
         12    1    3    3    0    0 -0.32711066078E+02 -0.13190536534E+02 -0.25657998050E+01  0.35363645551E+02  0.00000000000E+00 0. -1.
</event>
<event>
 7    1  0.2575978E-011  0.5052890E+02  0.7816164E-02  0.1300439E+00
        -11   -1    0    0    0    0  0.00000000000E+00  0.00000000000E+00  0.45593999997E+02  0.45594000000E+02  0.51100000000E-03 0.  1.
         11   -1    0    0    0    0 -0.00000000000E+00 -0.00000000000E+00 -0.45593999997E+02  0.45594000000E+02  0.51100000000E-03 0. -1.
    9900012    2    1    2    0    0  0.31398220706E+02  0.10018796197E+02  0.23810459705E+02  0.50528898533E+02  0.30000117580E+02 0.  0.
         12    1    1    2    0    0 -0.31398220706E+02 -0.10018796197E+02 -0.23810459705E+02  0.40659101467E+02  0.00000000000E+00 0. -1.
         11    1    3    3    0    0  0.15995931014E+02 -0.50352999302E+01  0.74739532867E+01  0.18359848376E+02  0.51100000000E-03 0. -1.
        -11    1    3    3    0    0  0.11734194671E+02  0.93401600853E+01  0.19563884339E+02  0.24651074737E+02  0.51100000000E-03 0.  1.
         12    1    3    3    0    0  0.36680950202E+01  0.57139360419E+01 -0.32273779204E+01  0.75179754195E+01  0.00000000000E+00 0. -1.
</event>
<event>
 7    1  0.2575978E-011  0.5052886E+02  0.7816164E-02  0.1300439E+00
        -11   -1    0    0    0    0  0.00000000000E+00  0.00000000000E+00  0.45593999997E+02  0.45594000000E+02  0.51100000000E-03 0.  1.
         11   -1    0    0    0    0 -0.00000000000E+00 -0.00000000000E+00 -0.45593999997E+02  0.45594000000E+02  0.51100000000E-03 0. -1.
    9900012    2    1    2    0    0 -0.22762394988E+02 -0.10005738850E+02  0.32170237145E+02  0.50528860886E+02  0.30000003148E+02 0.  0.
         12    1    1    2    0    0  0.22762394988E+02  0.10005738850E+02 -0.32170237145E+02  0.40659139114E+02  0.00000000000E+00 0. -1.
         11    1    3    3    0    0 -0.68578863364E+01  0.76904356857E+01  0.11230970524E+02  0.15241656905E+02  0.51100000000E-03 0. -1.
        -11    1    3    3    0    0 -0.67822433742E+01 -0.85216164554E+00  0.12724875175E+02  0.14444634060E+02  0.51100000000E-03 0.  1.
         12    1    3    3    0    0 -0.91222652778E+01 -0.16844012890E+02  0.82143914463E+01  0.20842569920E+02  0.00000000000E+00 0. -1.
</event>
<event>
 7    1  0.2575978E-011  0.5052887E+02  0.7816164E-02  0.1300439E+00
        -11   -1    0    0    0    0  0.00000000000E+00  0.00000000000E+00  0.45593999997E+02  0.45594000000E+02  0.51100000000E-03 0. -1.
         11   -1    0    0    0    0 -0.00000000000E+00 -0.00000000000E+00 -0.45593999997E+02  0.45594000000E+02  0.51100000000E-03 0.  1.
    9900012    2    1    2    0    0 -0.33799123998E+02  0.42276329979E+01 -0.22201608661E+02  0.50528867066E+02  0.30000021934E+02 0.  0.
         12    1    1    2    0    0  0.33799123998E+02 -0.42276329979E+01  0.22201608661E+02  0.40659132934E+02  0.00000000000E+00 0. -1.
         11    1    3    3    0    0 -0.12273623710E+02  0.81961386833E+01 -0.48470436715E+01  0.15534231905E+02  0.51100000000E-03 0. -1.
        -11    1    3    3    0    0 -0.53400069142E+01  0.70277915418E+01 -0.11643221277E+02  0.14610617022E+02  0.51100000000E-03 0.  1.
         12    1    3    3    0    0 -0.16185493374E+02 -0.10996297227E+02 -0.57113437125E+01  0.20384018139E+02  0.00000000000E+00 0. -1.
</event>
<event>
 7    1  0.2575978E-011  0.5052884E+02  0.7816164E-02  0.1300439E+00
        -11   -1    0    0    0    0  0.00000000000E+00  0.00000000000E+00  0.45593999997E+02  0.45594000000E+02  0.51100000000E-03 0.  1.
         11   -1    0    0    0    0 -0.00000000000E+00 -0.00000000000E+00 -0.45593999997E+02  0.45594000000E+02  0.51100000000E-03 0. -1.
    9900012    2    1    2    0    0 -0.25272071079E+02  0.24939024805E+02  0.19812490896E+02  0.50528839528E+02  0.29999938229E+02 0.  0.
         12    1    1    2    0    0  0.25272071079E+02 -0.24939024805E+02 -0.19812490896E+02  0.40659160472E+02  0.00000000000E+00 0. -1.
         11    1    3    3    0    0  0.33931359292E+01 -0.13153964245E+01  0.17594185184E+01  0.40421767616E+01  0.51100000000E-03 0. -1.
        -11    1    3    3    0    0 -0.16641422491E+02  0.15940906433E+02  0.20017067759E+02  0.30524292659E+02  0.51100000000E-03 0.  1.
         12    1    3    3    0    0 -0.12023784517E+02  0.10313514797E+02 -0.19639953820E+01  0.15962370107E+02  0.00000000000E+00 0. -1.
</event>
<event>
 7    1  0.2575978E-011  0.5052882E+02  0.7816164E-02  0.1300439E+00
        -11   -1    0    0    0    0  0.00000000000E+00  0.00000000000E+00  0.45593999997E+02  0.45594000000E+02  0.51100000000E-03 0. -1.
         11   -1    0    0    0    0 -0.00000000000E+00 -0.00000000000E+00 -0.45593999997E+02  0.45594000000E+02  0.51100000000E-03 0.  1.
    9900012    2    1    2    0    0  0.39710988139E+02  0.67538582585E+01 -0.55309503330E+01  0.50528824013E+02  0.29999891071E+02 0.  0.
         12    1    1    2    0    0 -0.39710988139E+02 -0.67538582585E+01  0.55309503330E+01  0.40659175987E+02  0.00000000000E+00 0. -1.
         11    1    3    3    0    0  0.58333280540E+01  0.14172517990E+01 -0.38982184188E+01  0.71576830015E+01  0.51100000000E-03 0. -1.
        -11    1    3    3    0    0  0.21743452632E+02  0.10888790633E+02 -0.11377582962E+02  0.26847586263E+02  0.51100000000E-03 0.  1.
         12    1    3    3    0    0  0.12134207452E+02 -0.55521841734E+01  0.97448510483E+01  0.16523554749E+02  0.00000000000E+00 0. -1.
</event>
<event>
 7    1  0.2575978E-011  0.5052886E+02  0.7816164E-02  0.1300439E+00
        -11   -1    0    0    0    0  0.00000000000E+00  0.00000000000E+00  0.45593999997E+02  0.45594000000E+02  0.51100000000E-03 0. -1.
         11   -1    0    0    0    0 -0.00000000000E+00 -0.00000000000E+00 -0.45593999997E+02  0.45594000000E+02  0.51100000000E-03 0.  1.
    9900012    2    1    2    0    0  0.13072981928E+02  0.18068247896E+02 -0.33997075979E+02  0.50528860638E+02  0.30000002395E+02 0.  0.
         12    1    1    2    0    0 -0.13072981928E+02 -0.18068247896E+02  0.33997075979E+02  0.40659139362E+02  0.00000000000E+00 0. -1.
         11    1    3    3    0    0 -0.61257631635E+01 -0.63617104019E-02 -0.84684480541E+01  0.10451776285E+02  0.51100000000E-03 0. -1.
        -11    1    3    3    0    0  0.92236833420E+01  0.58130680518E+01 -0.20955874959E+02  0.23622379010E+02  0.51100000000E-03 0.  1.
        -12    1    3    3    0    0  0.99750617495E+01  0.12261541555E+02 -0.45727529665E+01  0.16454705342E+02  0.00000000000E+00 0.  1.
</event>
<event>
 7    1  0.2575978E-011  0.5052885E+02  0.7816164E-02  0.1300439E+00
        -11   -1    0    0    0    0  0.00000000000E+00  0.00000000000E+00  0.45593999997E+02  0.45594000000E+02  0.51100000000E-03 0.  1.
         11   -1    0    0    0    0 -0.00000000000E+00 -0.00000000000E+00 -0.45593999997E+02  0.45594000000E+02  0.51100000000E-03 0. -1.
    9900012    2    1    2    0    0  0.14272769512E+02 -0.66730606515E+01  0.37482321694E+02  0.50528854318E+02  0.29999983184E+02 0.  0.
         12    1    1    2    0    0 -0.14272769512E+02  0.66730606515E+01 -0.37482321694E+02  0.40659145682E+02  0.00000000000E+00 0. -1.
         11    1    3    3    0    0  0.30859323360E+01  0.36026607379E+01  0.20015704255E+01  0.51486335278E+01  0.51100000000E-03 0. -1.
        -11    1    3    3    0    0  0.75514857907E+01  0.41050823447E+01  0.26909115209E+02  0.28248488815E+02  0.51100000000E-03 0.  1.
        -12    1    3    3    0    0  0.36353513854E+01 -0.14380803734E+02  0.85716360598E+01  0.17131731975E+02  0.00000000000E+00 0.  1.
</event>
<event>
 7    1  0.2575978E-011  0.5052886E+02  0.7816164E-02  0.1300439E+00
        -11   -1    0    0    0    0  0.00000000000E+00  0.00000000000E+00  0.45593999997E+02  0.45594000000E+02  0.51100000000E-03 0.  1.
         11   -1    0    0    0    0 -0.00000000000E+00 -0.00000000000E+00 -0.45593999997E+02  0.45594000000E+02  0.51100000000E-03 0. -1.
    9900012    2    1    2    0    0  0.95803980735E+00  0.93023579512E+01  0.39569104239E+02  0.50528859404E+02  0.29999998644E+02 0.  0.
         12    1    1    2    0    0 -0.95803980735E+00 -0.93023579512E+01 -0.39569104239E+02  0.40659140596E+02  0.00000000000E+00 0. -1.
         11    1    3    3    0    0  0.54620972529E+01  0.70641713456E+01  0.25681106152E+02  0.27189266938E+02  0.51100000000E-03 0. -1.
        -11    1    3    3    0    0  0.12753155004E+01  0.53366248378E+01  0.15621243531E+02  0.16556848855E+02  0.51100000000E-03 0.  1.
         12    1    3    3    0    0 -0.57793729459E+01 -0.30984382321E+01 -0.17332454435E+01  0.67827436111E+01  0.00000000000E+00 0. -1.
</event>
<event>
 7    1  0.2575978E-011  0.5052884E+02  0.7816164E-02  0.1300439E+00
        -11   -1    0    0    0    0  0.00000000000E+00  0.00000000000E+00  0.45593999997E+02  0.45594000000E+02  0.51100000000E-03 0.  1.
         11   -1    0    0    0    0 -0.00000000000E+00 -0.00000000000E+00 -0.45593999997E+02  0.45594000000E+02  0.51100000000E-03 0. -1.
    9900012    2    1    2    0    0  0.18863231480E+02  0.44369676315E+00  0.36015953783E+02  0.50528839955E+02  0.29999939528E+02 0.  0.
         12    1    1    2    0    0 -0.18863231480E+02 -0.44369676315E+00 -0.36015953783E+02  0.40659160045E+02  0.00000000000E+00 0. -1.
         11    1    3    3    0    0  0.27823780006E+01 -0.53507335551E+01  0.44149813443E+01  0.74742248727E+01  0.51100000000E-03 0. -1.
        -11    1    3    3    0    0  0.13827795938E+02 -0.75160481485E+01  0.16680183861E+02  0.22933108254E+02  0.51100000000E-03 0.  1.
        -12    1    3    3    0    0  0.22530575413E+01  0.13310478467E+02  0.14920788577E+02  0.20121506829E+02  0.00000000000E+00 0.  1.
</event>
<event>
 7    1  0.2575978E-011  0.5052886E+02  0.7816164E-02  0.1300439E+00
        -11   -1    0    0    0    0  0.00000000000E+00  0.00000000000E+00  0.45593999997E+02  0.45594000000E+02  0.51100000000E-03 0. -1.
         11   -1    0    0    0    0 -0.00000000000E+00 -0.00000000000E+00 -0.45593999997E+02  0.45594000000E+02  0.51100000000E-03 0.  1.
    9900012    2    1    2    0    0  0.22663226408E+02  0.33725757103E+02  0.14550915836E+01  0.50528858164E+02  0.29999994874E+02 0.  0.
         12    1    1    2    0    0 -0.22663226408E+02 -0.33725757103E+02 -0.14550915836E+01  0.40659141836E+02  0.00000000000E+00 0. -1.
         11    1    3    3    0    0  0.88285147726E+01  0.36491325534E+01 -0.60105235760E+01  0.11286506785E+02  0.51100000000E-03 0. -1.
        -11    1    3    3    0    0  0.89143744453E+01  0.60610872374E+01 -0.48356709024E+01  0.11814675772E+02  0.51100000000E-03 0.  1.
        -12    1    3    3    0    0  0.49203371896E+01  0.24015537312E+02  0.12301286062E+02  0.27427675607E+02  0.00000000000E+00 0.  1.
</event>
<event>
 7    1  0.2575978E-011  0.5052888E+02  0.7816164E-02  0.1300439E+00
        -11   -1    0    0    0    0  0.00000000000E+00  0.00000000000E+00  0.45593999997E+02  0.45594000000E+02  0.51100000000E-03 0.  1.
         11   -1    0    0    0    0 -0.00000000000E+00 -0.00000000000E+00 -0.45593999997E+02  0.45594000000E+02  0.51100000000E-03 0. -1.
    9900012    2    1    2    0    0  0.14809841364E+02  0.34923169202E+02  0.14635751536E+02  0.50528875915E+02  0.30000048831E+02 0.  0.
         12    1    1    2    0    0 -0.14809841364E+02 -0.34923169202E+02 -0.14635751536E+02  0.40659124085E+02  0.00000000000E+00 0. -1.
         11    1    3    3    0    0 -0.88347614707E-01  0.29362112900E+01  0.19149347658E+01  0.35065820195E+01  0.51100000000E-03 0. -1.
        -11    1    3    3    0    0  0.20853044114E+02  0.13357782854E+02  0.23253268704E+01  0.24873418681E+02  0.51100000000E-03 0.  1.
         12    1    3    3    0    0 -0.59548551346E+01  0.18629175058E+02  0.10395489899E+02  0.22148875214E+02  0.00000000000E+00 0. -1.
</event>
<event>
 7    1  0.2575978E-011  0.5052887E+02  0.7816164E-02  0.1300439E+00
        -11   -1    0    0    0    0  0.00000000000E+00  0.00000000000E+00  0.45593999997E+02  0.45594000000E+02  0.51100000000E-03 0.  1.
         11   -1    0    0    0    0 -0.00000000000E+00 -0.00000000000E+00 -0.45593999997E+02  0.45594000000E+02  0.51100000000E-03 0. -1.
    9900012    2    1    2    0    0  0.36454111204E+02 -0.17912362609E+02  0.18466756365E+01  0.50528866108E+02  0.30000019022E+02 0.  0.
         12    1    1    2    0    0 -0.36454111204E+02  0.17912362609E+02 -0.18466756365E+01  0.40659133892E+02  0.00000000000E+00 0. -1.
         11    1    3    3    0    0  0.90849980142E+01 -0.64517247225E+01  0.73654213522E+01  0.13357072013E+02  0.51100000000E-03 0. -1.
        -11    1    3    3    0    0  0.20422852565E+02  0.30708819055E+01 -0.32377226359E+01  0.20904690160E+02  0.51100000000E-03 0.  1.
         12    1    3    3    0    0  0.69462606252E+01 -0.14531519792E+02 -0.22810230798E+01  0.16267103935E+02  0.00000000000E+00 0. -1.
</event>
<event>
 7    1  0.2575978E-011  0.5052886E+02  0.7816164E-02  0.1300439E+00
        -11   -1    0    0    0    0  0.00000000000E+00  0.00000000000E+00  0.45593999997E+02  0.45594000000E+02  0.51100000000E-03 0. -1.
         11   -1    0    0    0    0 -0.00000000000E+00 -0.00000000000E+00 -0.45593999997E+02  0.45594000000E+02  0.51100000000E-03 0.  1.
    9900012    2    1    2    0    0  0.51359763173E+01 -0.16319742450E+02 -0.36884325340E+02  0.50528859549E+02  0.29999999086E+02 0.  0.
         12    1    1    2    0    0 -0.51359763173E+01  0.16319742450E+02  0.36884325340E+02  0.40659140451E+02  0.00000000000E+00 0. -1.
         11    1    3    3    0    0 -0.10979031944E+01  0.20770879426E+01  0.90650413843E+00  0.25182207528E+01  0.51100000000E-03 0. -1.
        -11    1    3    3    0    0 -0.78881443991E+00  0.13386998676E+01  0.23007629838E+01  0.27763025997E+01  0.51100000000E-03 0.  1.
        -12    1    3    3    0    0  0.70226939516E+01 -0.19735530261E+02 -0.40091592462E+02  0.45234336197E+02  0.00000000000E+00 0.  1.
</event>
<event>
 7    1  0.2575978E-011  0.5052887E+02  0.7816164E-02  0.1300439E+00
        -11   -1    0    0    0    0  0.00000000000E+00  0.00000000000E+00  0.45593999997E+02  0.45594000000E+02  0.51100000000E-03 0.  1.
         11   -1    0    0    0    0 -0.00000000000E+00 -0.00000000000E+00 -0.45593999997E+02  0.45594000000E+02  0.51100000000E-03 0. -1.
    9900012    2    1    2    0    0  0.54374017387E+01  0.12126207582E+02  0.38425965563E+02  0.50528867232E+02  0.30000022439E+02 0.  0.
         12    1    1    2    0    0 -0.54374017387E+01 -0.12126207582E+02 -0.38425965563E+02  0.40659132768E+02  0.00000000000E+00 0. -1.
         11    1    3    3    0    0  0.25363143718E+01  0.33931191819E+00 -0.18457630778E+01  0.31551330829E+01  0.51100000000E-03 0. -1.
        -11    1    3    3    0    0  0.10244028182E+02  0.59400889146E+01  0.94371435558E+01  0.15142141475E+02  0.51100000000E-03 0.  1.
         12    1    3    3    0    0 -0.73429408148E+01  0.58468067494E+01  0.30834585085E+02  0.32231592674E+02  0.00000000000E+00 0. -1.
</event>
<event>
 7    1  0.2575978E-011  0.5052885E+02  0.7816164E-02  0.1300439E+00
        -11   -1    0    0    0    0  0.00000000000E+00  0.00000000000E+00  0.45593999997E+02  0.45594000000E+02  0.51100000000E-03 0.  1.
         11   -1    0    0    0    0 -0.00000000000E+00 -0.00000000000E+00 -0.45593999997E+02  0.45594000000E+02  0.51100000000E-03 0. -1.
    9900012    2    1    2    0    0 -0.11294848445E+02  0.10554345316E+02  0.37605829223E+02  0.50528853453E+02  0.29999980555E+02 0.  0.
         12    1    1    2    0    0  0.11294848445E+02 -0.10554345316E+02 -0.37605829223E+02  0.40659146547E+02  0.00000000000E+00 0. -1.
         11    1    3    3    0    0 -0.74262758786E+00  0.52898064758E+01  0.30857701779E+01  0.61689161235E+01  0.51100000000E-03 0. -1.
        -11    1    3    3    0    0 -0.14601543129E+02  0.12684675971E+02  0.22597862738E+02  0.29745074665E+02  0.51100000000E-03 0.  1.
        -12    1    3    3    0    0  0.40493222724E+01 -0.74201371311E+01  0.11922196307E+02  0.14614862664E+02  0.00000000000E+00 0.  1.
</event>
<event>
 7    1  0.2575978E-011  0.5052885E+02  0.7816164E-02  0.1300439E+00
        -11   -1    0    0    0    0  0.00000000000E+00  0.00000000000E+00  0.45593999997E+02  0.45594000000E+02  0.51100000000E-03 0.  1.
         11   -1    0    0    0    0 -0.00000000000E+00 -0.00000000000E+00 -0.45593999997E+02  0.45594000000E+02  0.51100000000E-03 0. -1.
    9900012    2    1    2    0    0 -0.34426577823E+02  0.20614119091E+02  0.65601160873E+01  0.50528852326E+02  0.29999977130E+02 0.  0.
         12    1    1    2    0    0  0.34426577823E+02 -0.20614119091E+02 -0.65601160873E+01  0.40659147674E+02  0.00000000000E+00 0. -1.
         11    1    3    3    0    0 -0.95802327049E+01  0.17961813663E+02  0.43143863130E+00  0.20361575290E+02  0.51100000000E-03 0. -1.
        -11    1    3    3    0    0  0.24289305366E+00 -0.33381593024E+01 -0.83453652100E+00  0.34494573529E+01  0.51100000000E-03 0.  1.
        -12    1    3    3    0    0 -0.25089238172E+02  0.59904647311E+01  0.69632139770E+01  0.26717819683E+02  0.00000000000E+00 0.  1.
</event>
<event>
 7    1  0.2575978E-011  0.5052889E+02  0.7816164E-02  0.1300439E+00
        -11   -1    0    0    0    0  0.00000000000E+00  0.00000000000E+00  0.45593999997E+02  0.45594000000E+02  0.51100000000E-03 0. -1.
         11   -1    0    0    0    0 -0.00000000000E+00 -0.00000000000E+00 -0.45593999997E+02  0.45594000000E+02  0.51100000000E-03 0.  1.
    9900012    2    1    2    0    0  0.36085517476E+02 -0.12011643550E+02 -0.14377715561E+02  0.50528894538E+02  0.30000105436E+02 0.  0.
         12    1    1    2    0    0 -0.36085517476E+02  0.12011643550E+02  0.14377715561E+02  0.40659105462E+02  0.00000000000E+00 0. -1.
         11    1    3    3    0    0 -0.15537628058E+01 -0.98553317900E+00 -0.30744895371E+01  0.35830072116E+01  0.51100000000E-03 0. -1.
        -11    1    3    3    0    0  0.77047260518E+00  0.77466388607E-01  0.50525708296E+01  0.51115654477E+01  0.51100000000E-03 0.  1.
        -12    1    3    3    0    0  0.36868807676E+02 -0.11103576759E+02 -0.16355796854E+02  0.41834321878E+02  0.00000000000E+00 0.  1.
</event>
<event>
 7    1  0.2575978E-011  0.5052886E+02  0.7816164E-02  0.1300439E+00
        -11   -1    0    0    0    0  0.00000000000E+00  0.00000000000E+00  0.45593999997E+02  0.45594000000E+02  0.51100000000E-03 0.  1.
         11   -1    0    0    0    0 -0.00000000000E+00 -0.00000000000E+00 -0.45593999997E+02  0.45594000000E+02  0.51100000000E-03 0. -1.
    9900012    2    1    2    0    0  0.15381764135E+02  0.13405195983E+02  0.35169132094E+02  0.50528858353E+02  0.29999995448E+02 0.  0.
         12    1    1    2    0    0 -0.15381764135E+02 -0.13405195983E+02 -0.35169132094E+02  0.40659141647E+02  0.00000000000E+00 0. -1.
         11    1    3    3    0    0  0.46803187133E+01 -0.83272987828E+01  0.14968730929E+02  0.17757032245E+02  0.51100000000E-03 0. -1.
        -11    1    3    3    0    0  0.48042156598E+01  0.58469140374E+01  0.18416182291E+01  0.77883534736E+01  0.51100000000E-03 0.  1.
        -12    1    3    3    0    0  0.58972297618E+01  0.15885580728E+02  0.18358782936E+02  0.24983472634E+02  0.00000000000E+00 0.  1.
</event>
<event>
 7    1  0.2575978E-011  0.5052888E+02  0.7816164E-02  0.1300439E+00
        -11   -1    0    0    0    0  0.00000000000E+00  0.00000000000E+00  0.45593999997E+02  0.45594000000E+02  0.51100000000E-03 0.  1.
         11   -1    0    0    0    0 -0.00000000000E+00 -0.00000000000E+00 -0.45593999997E+02  0.45594000000E+02  0.51100000000E-03 0. -1.
    9900012    2    1    2    0    0  0.67790495554E+01  0.39498484424E+02  0.68613799559E+01  0.50528876552E+02  0.30000050766E+02 0.  0.
         12    1    1    2    0    0 -0.67790495554E+01 -0.39498484424E+02 -0.68613799559E+01  0.40659123448E+02  0.00000000000E+00 0. -1.
         11    1    3    3    0    0 -0.37452925226E+01  0.16484450001E+02 -0.57156305997E+01  0.17844683839E+02  0.51100000000E-03 0. -1.
        -11    1    3    3    0    0  0.30965652107E+01  0.47459774359E+01 -0.39882206288E+01  0.69295686713E+01  0.51100000000E-03 0.  1.
        -12    1    3    3    0    0  0.74277768674E+01  0.18268056987E+02  0.16565231184E+02  0.25754624041E+02  0.00000000000E+00 0.  1.
</event>
<event>
 7    1  0.2575978E-011  0.5052888E+02  0.7816164E-02  0.1300439E+00
        -11   -1    0    0    0    0  0.00000000000E+00  0.00000000000E+00  0.45593999997E+02  0.45594000000E+02  0.51100000000E-03 0.  1.
         11   -1    0    0    0    0 -0.00000000000E+00 -0.00000000000E+00 -0.45593999997E+02  0.45594000000E+02  0.51100000000E-03 0. -1.
    9900012    2    1    2    0    0 -0.26166292643E+02  0.13720187409E+02  0.27932878455E+02  0.50528879105E+02  0.30000058526E+02 0.  0.
         12    1    1    2    0    0  0.26166292643E+02 -0.13720187409E+02 -0.27932878455E+02  0.40659120895E+02  0.00000000000E+00 0. -1.
         11    1    3    3    0    0 -0.80644441801E+01  0.66023269024E+01  0.37829314790E-01  0.10422447495E+02  0.51100000000E-03 0. -1.
        -11    1    3    3    0    0 -0.73603591569E+01  0.13275854568E+02  0.94161749784E+01  0.17863021942E+02  0.51100000000E-03 0.  1.
         12    1    3    3    0    0 -0.10741489306E+02 -0.61579940611E+01  0.18478874162E+02  0.22243409668E+02  0.00000000000E+00 0. -1.
</event>
<event>
 7    1  0.2575978E-011  0.5052886E+02  0.7816164E-02  0.1300439E+00
        -11   -1    0    0    0    0  0.00000000000E+00  0.00000000000E+00  0.45593999997E+02  0.45594000000E+02  0.51100000000E-03 0. -1.
         11   -1    0    0    0    0 -0.00000000000E+00 -0.00000000000E+00 -0.45593999997E+02  0.45594000000E+02  0.51100000000E-03 0.  1.
    9900012    2    1    2    0    0 -0.11350785829E+02  0.18016880821E+02 -0.34636940456E+02  0.50528856162E+02  0.29999988791E+02 0.  0.
         12    1    1    2    0    0  0.11350785829E+02 -0.18016880821E+02  0.34636940456E+02  0.40659143838E+02  0.00000000000E+00 0. -1.
         11    1    3    3    0    0  0.21490068954E+01  0.40217674892E+01 -0.47546769048E+00  0.45846389344E+01  0.51100000000E-03 0. -1.
        -11    1    3    3    0    0  0.75779692872E+00  0.60962539078E+00  0.34326182870E+01  0.35677398823E+01  0.51100000000E-03 0.  1.
        -12    1    3    3    0    0 -0.14257589653E+02  0.13385487941E+02 -0.37594091053E+02  0.42376477345E+02  0.00000000000E+00 0.  1.
</event>
<event>
 7    1  0.2575978E-011  0.5052889E+02  0.7816164E-02  0.1300439E+00
        -11   -1    0    0    0    0  0.00000000000E+00  0.00000000000E+00  0.45593999997E+02  0.45594000000E+02  0.51100000000E-03 0.  1.
         11   -1    0    0    0    0 -0.00000000000E+00 -0.00000000000E+00 -0.45593999997E+02  0.45594000000E+02  0.51100000000E-03 0. -1.
    9900012    2    1    2    0    0 -0.22377383688E+02  0.10057274249E+02  0.32423246873E+02  0.50528892732E+02  0.30000099949E+02 0.  0.
         12    1    1    2    0    0  0.22377383688E+02 -0.10057274249E+02 -0.32423246873E+02  0.40659107268E+02  0.00000000000E+00 0. -1.
         11    1    3    3    0    0  0.95248755565E+00 -0.12466403234E+01  0.51060538117E+01  0.53416411737E+01  0.51100000000E-03 0. -1.
        -11    1    3    3    0    0 -0.11617179518E+02  0.16067241068E+02  0.25670981524E+02  0.32436312802E+02  0.51100000000E-03 0.  1.
         12    1    3    3    0    0 -0.11712691725E+02 -0.47633264958E+01  0.16462115369E+01  0.12750938757E+02  0.00000000000E+00 0. -1.
</event>
<event>
 7    1  0.2575978E-011  0.5052886E+02  0.7816164E-02  0.1300439E+00
        -11   -1    0    0    0    0  0.00000000000E+00  0.00000000000E+00  0.45593999997E+02  0.45594000000E+02  0.51100000000E-03 0.  1.
         11   -1    0    0    0    0 -0.00000000000E+00 -0.00000000000E+00 -0.45593999997E+02  0.45594000000E+02  0.51100000000E-03 0. -1.
    9900012    2    1    2    0    0  0.16670254340E+02 -0.17019752198E+02  0.32948390828E+02  0.50528858312E+02  0.29999995324E+02 0.  0.
         12    1    1    2    0    0 -0.16670254340E+02  0.17019752198E+02 -0.32948390828E+02  0.40659141688E+02  0.00000000000E+00 0. -1.
         11    1    3    3    0    0  0.10579038361E+02 -0.79319056895E+01  0.71575363318E+01  0.15035341936E+02  0.51100000000E-03 0. -1.
        -11    1    3    3    0    0  0.72570179825E+01 -0.13432656577E+01 -0.11212508217E+01  0.74649766438E+01  0.51100000000E-03 0.  1.
        -12    1    3    3    0    0 -0.11658020037E+01 -0.77445808503E+01  0.26912105318E+02  0.28028539732E+02  0.00000000000E+00 0.  1.
</event>
<event>
 7    1  0.2575978E-011  0.5052886E+02  0.7816164E-02  0.1300439E+00
        -11   -1    0    0    0    0  0.00000000000E+00  0.00000000000E+00  0.45593999997E+02  0.45594000000E+02  0.51100000000E-03 0. -1.
         11   -1    0    0    0    0 -0.00000000000E+00 -0.00000000000E+00 -0.45593999997E+02  0.45594000000E+02  0.51100000000E-03 0.  1.
    9900012    2    1    2    0    0 -0.39877644902E+02 -0.92511969062E+00 -0.78793150535E+01  0.50528855702E+02  0.29999987391E+02 0.  0.
         12    1    1    2    0    0  0.39877644902E+02  0.92511969062E+00  0.78793150535E+01  0.40659144298E+02  0.00000000000E+00 0. -1.
         11    1    3    3    0    0 -0.11722110612E+02 -0.80501481288E+01  0.31839166030E+01  0.14572236866E+02  0.51100000000E-03 0. -1.
        -11    1    3    3    0    0 -0.20127636730E+02 -0.29531535649E+01 -0.25240561874E+01  0.20499115499E+02  0.51100000000E-03 0.  1.
        -12    1    3    3    0    0 -0.80278975595E+01  0.10078182003E+02 -0.85391754691E+01  0.15457503337E+02  0.00000000000E+00 0.  1.
</event>
<event>
 7    1  0.2575978E-011  0.5052887E+02  0.7816164E-02  0.1300439E+00
        -11   -1    0    0    0    0  0.00000000000E+00  0.00000000000E+00  0.45593999997E+02  0.45594000000E+02  0.51100000000E-03 0.  1.
         11   -1    0    0    0    0 -0.00000000000E+00 -0.00000000000E+00 -0.45593999997E+02  0.45594000000E+02  0.51100000000E-03 0. -1.
    9900012    2    1    2    0    0  0.38012079408E+02 -0.39571530488E+01  0.13877582738E+02  0.50528873795E+02  0.30000042386E+02 0.  0.
         12    1    1    2    0    0 -0.38012079408E+02  0.39571530488E+01 -0.13877582738E+02  0.40659126205E+02  0.00000000000E+00 0. -1.
         11    1    3    3    0    0  0.26317910355E+01  0.34672323620E+00  0.10792917565E+02  0.11114567508E+02  0.51100000000E-03 0. -1.
        -11    1    3    3    0    0  0.10283412597E+02 -0.52979912211E+01  0.76739886789E+01  0.13881908663E+02  0.51100000000E-03 0.  1.
         12    1    3    3    0    0  0.25096875775E+02  0.99411493611E+00 -0.45893235062E+01  0.25532397624E+02  0.00000000000E+00 0. -1.
</event>
<event>
 7    1  0.2575978E-011  0.5052885E+02  0.7816164E-02  0.1300439E+00
        -11   -1    0    0    0    0  0.00000000000E+00  0.00000000000E+00  0.45593999997E+02  0.45594000000E+02  0.51100000000E-03 0.  1.
         11   -1    0    0    0    0 -0.00000000000E+00 -0.00000000000E+00 -0.45593999997E+02  0.45594000000E+02  0.51100000000E-03 0. -1.
    9900012    2    1    2    0    0 -0.33654185866E+02 -0.17438057455E+02  0.14713126039E+02  0.50528854018E+02  0.29999982274E+02 0.  0.
         12    1    1    2    0    0  0.33654185866E+02  0.17438057455E+02 -0.14713126039E+02  0.40659145982E+02  0.00000000000E+00 0. -1.
         11    1    3    3    0    0  0.21917503108E+01 -0.35978774032E+01  0.17690471801E+01  0.45692471393E+01  0.51100000000E-03 0. -1.
        -11    1    3    3    0    0 -0.12485497670E+02 -0.75813517359E+01 -0.54336309931E+01  0.15584893078E+02  0.51100000000E-03 0.  1.
         12    1    3    3    0    0 -0.23360438507E+02 -0.62588283158E+01  0.18377709852E+02  0.30374713802E+02  0.00000000000E+00 0. -1.
</event>
<event>
 7    1  0.2575978E-011  0.5052887E+02  0.7816164E-02  0.1300439E+00
        -11   -1    0    0    0    0  0.00000000000E+00  0.00000000000E+00  0.45593999997E+02  0.45594000000E+02  0.51100000000E-03 0. -1.
         11   -1    0    0    0    0 -0.00000000000E+00 -0.00000000000E+00 -0.45593999997E+02  0.45594000000E+02  0.51100000000E-03 0.  1.
    9900012    2    1    2    0    0  0.29365189572E+02  0.56423310931E+01 -0.27550216879E+02  0.50528871765E+02  0.30000036217E+02 0.  0.
         12    1    1    2    0    0 -0.29365189572E+02 -0.56423310931E+01  0.27550216879E+02  0.40659128235E+02  0.00000000000E+00 0. -1.
         11    1    3    3    0    0  0.20690603686E+02  0.10181512925E+02 -0.19625266381E+02  0.30280610415E+02  0.51100000000E-03 0. -1.
        -11    1    3    3    0    0  0.14458784067E+01  0.52106718085E+01 -0.57938467727E+01  0.79252965717E+01  0.51100000000E-03 0.  1.
         12    1    3    3    0    0  0.72287074791E+01 -0.97498536404E+01 -0.21311037253E+01  0.12322964778E+02  0.00000000000E+00 0. -1.
</event>
<event>
 7    1  0.2575978E-011  0.5052885E+02  0.7816164E-02  0.1300439E+00
        -11   -1    0    0    0    0  0.00000000000E+00  0.00000000000E+00  0.45593999997E+02  0.45594000000E+02  0.51100000000E-03 0. -1.
         11   -1    0    0    0    0 -0.00000000000E+00 -0.00000000000E+00 -0.45593999997E+02  0.45594000000E+02  0.51100000000E-03 0.  1.
    9900012    2    1    2    0    0  0.37377451475E+02 -0.53662700271E+01 -0.15076323569E+02  0.50528852626E+02  0.29999978043E+02 0.  0.
         12    1    1    2    0    0 -0.37377451475E+02  0.53662700271E+01  0.15076323569E+02  0.40659147374E+02  0.00000000000E+00 0. -1.
         11    1    3    3    0    0  0.14896550422E+02 -0.69383856793E+01  0.22250974946E+01  0.16583107955E+02  0.51100000000E-03 0. -1.
        -11    1    3    3    0    0  0.10045837998E+02 -0.56736430176E+01 -0.12655948650E+00  0.11537985255E+02  0.51100000000E-03 0.  1.
         12    1    3    3    0    0  0.12435063055E+02  0.72457586698E+01 -0.17174861577E+02  0.22407759417E+02  0.00000000000E+00 0. -1.
</event>
<event>
 7    1  0.2575978E-011  0.5052884E+02  0.7816164E-02  0.1300439E+00
        -11   -1    0    0    0    0  0.00000000000E+00  0.00000000000E+00  0.45593999997E+02  0.45594000000E+02  0.51100000000E-03 0.  1.
         11   -1    0    0    0    0 -0.00000000000E+00 -0.00000000000E+00 -0.45593999997E+02  0.45594000000E+02  0.51100000000E-03 0. -1.
    9900012    2    1    2    0    0  0.39448917871E+02 -0.65537726960E+01 -0.73483717194E+01  0.50528835908E+02  0.29999927226E+02 0.  0.
         12    1    1    2    0    0 -0.39448917871E+02  0.65537726960E+01  0.73483717194E+01  0.40659164092E+02  0.00000000000E+00 0. -1.
         11    1    3    3    0    0  0.52824334423E+01  0.27472319715E+01 -0.83271838885E+01  0.10236863697E+02  0.51100000000E-03 0. -1.
        -11    1    3    3    0    0  0.16563440800E+02 -0.12695713836E+02 -0.48785558745E+01  0.21431962780E+02  0.51100000000E-03 0.  1.
        -12    1    3    3    0    0  0.17603043629E+02  0.33947091685E+01  0.58573680436E+01  0.18860009431E+02  0.00000000000E+00 0.  1.
</event>
<event>
 7    1  0.2575978E-011  0.5052885E+02  0.7816164E-02  0.1300439E+00
        -11   -1    0    0    0    0  0.00000000000E+00  0.00000000000E+00  0.45593999997E+02  0.45594000000E+02  0.51100000000E-03 0.  1.
         11   -1    0    0    0    0 -0.00000000000E+00 -0.00000000000E+00 -0.45593999997E+02  0.45594000000E+02  0.51100000000E-03 0. -1.
    9900012    2    1    2    0    0 -0.35977707692E+02 -0.74957879921E+01  0.17394936219E+02  0.50528854726E+02  0.29999984424E+02 0.  0.
         12    1    1    2    0    0  0.35977707692E+02  0.74957879921E+01 -0.17394936219E+02  0.40659145274E+02  0.00000000000E+00 0. -1.
         11    1    3    3    0    0 -0.15901376754E+02  0.80865903150E+01  0.45626668508E+01  0.18413708335E+02  0.51100000000E-03 0. -1.
        -11    1    3    3    0    0 -0.13907292113E+02 -0.14050857872E+01  0.61963500036E+01  0.15289924579E+02  0.51100000000E-03 0.  1.
        -12    1    3    3    0    0 -0.61690388243E+01 -0.14177292520E+02  0.66359193645E+01  0.16825221812E+02  0.00000000000E+00 0.  1.
</event>
<event>
 7    1  0.2575978E-011  0.5052885E+02  0.7816164E-02  0.1300439E+00
        -11   -1    0    0    0    0  0.00000000000E+00  0.00000000000E+00  0.45593999997E+02  0.45594000000E+02  0.51100000000E-03 0.  1.
         11   -1    0    0    0    0 -0.00000000000E+00 -0.00000000000E+00 -0.45593999997E+02  0.45594000000E+02  0.51100000000E-03 0. -1.
    9900012    2    1    2    0    0  0.14348865462E+01 -0.11797865004E+02  0.38883390597E+02  0.50528848725E+02  0.29999966186E+02 0.  0.
         12    1    1    2    0    0 -0.14348865462E+01  0.11797865004E+02 -0.38883390597E+02  0.40659151275E+02  0.00000000000E+00 0. -1.
         11    1    3    3    0    0  0.36186112907E+01  0.76662289418E+01  0.12116346126E+02  0.14787537238E+02  0.51100000000E-03 0. -1.
        -11    1    3    3    0    0  0.56647579983E+00 -0.57260188305E+01  0.18719615773E+02  0.19583978182E+02  0.51100000000E-03 0.  1.
         12    1    3    3    0    0 -0.27502005443E+01 -0.13738075115E+02  0.80474286985E+01  0.16157333306E+02  0.00000000000E+00 0. -1.
</event>
<event>
 7    1  0.2575978E-011  0.5052886E+02  0.7816164E-02  0.1300439E+00
        -11   -1    0    0    0    0  0.00000000000E+00  0.00000000000E+00  0.45593999997E+02  0.45594000000E+02  0.51100000000E-03 0. -1.
         11   -1    0    0    0    0 -0.00000000000E+00 -0.00000000000E+00 -0.45593999997E+02  0.45594000000E+02  0.51100000000E-03 0.  1.
    9900012    2    1    2    0    0 -0.32486765751E+02  0.36375581755E+01 -0.24177343135E+02  0.50528859582E+02  0.29999999186E+02 0.  0.
         12    1    1    2    0    0  0.32486765751E+02 -0.36375581755E+01  0.24177343135E+02  0.40659140418E+02  0.00000000000E+00 0. -1.
         11    1    3    3    0    0  0.22059968279E+01 -0.22535874504E+01 -0.24534325617E+01  0.39955487729E+01  0.51100000000E-03 0. -1.
        -11    1    3    3    0    0 -0.42977097027E+00  0.49191948517E+01  0.14635704567E+01  0.51502640533E+01  0.51100000000E-03 0.  1.
        -12    1    3    3    0    0 -0.34262991609E+02  0.97195077415E+00 -0.23187481030E+02  0.41383046756E+02  0.00000000000E+00 0.  1.
</event>
<event>
 7    1  0.2575978E-011  0.5052886E+02  0.7816164E-02  0.1300439E+00
        -11   -1    0    0    0    0  0.00000000000E+00  0.00000000000E+00  0.45593999997E+02  0.45594000000E+02  0.51100000000E-03 0. -1.
         11   -1    0    0    0    0 -0.00000000000E+00 -0.00000000000E+00 -0.45593999997E+02  0.45594000000E+02  0.51100000000E-03 0.  1.
    9900012    2    1    2    0    0 -0.32514237066E+02  0.74212485284E+01 -0.23257582530E+02  0.50528859738E+02  0.29999999659E+02 0.  0.
         12    1    1    2    0    0  0.32514237066E+02 -0.74212485284E+01  0.23257582530E+02  0.40659140262E+02  0.00000000000E+00 0. -1.
         11    1    3    3    0    0 -0.24033103381E+02 -0.15717908575E+01 -0.92795759879E+01  0.25810290882E+02  0.51100000000E-03 0.  1.
        -11    1    3    3    0    0 -0.64290317942E+01 -0.37296266948E+01 -0.41591233797E+01  0.85170929690E+01  0.51100000000E-03 0. -1.
        -12    1    3    3    0    0 -0.20521018914E+01  0.12722666081E+02 -0.98188831622E+01  0.16201475887E+02  0.00000000000E+00 0.  1.
</event>
<event>
 7    1  0.2575978E-011  0.5052886E+02  0.7816164E-02  0.1300439E+00
        -11   -1    0    0    0    0  0.00000000000E+00  0.00000000000E+00  0.45593999997E+02  0.45594000000E+02  0.51100000000E-03 0.  1.
         11   -1    0    0    0    0 -0.00000000000E+00 -0.00000000000E+00 -0.45593999997E+02  0.45594000000E+02  0.51100000000E-03 0. -1.
    9900012    2    1    2    0    0  0.54980057298E-01  0.38392291871E+02  0.13386349371E+02  0.50528862682E+02  0.30000008609E+02 0.  0.
         12    1    1    2    0    0 -0.54980057298E-01 -0.38392291871E+02 -0.13386349371E+02  0.40659137318E+02  0.00000000000E+00 0. -1.
         11    1    3    3    0    0 -0.51011272247E+01  0.13960200523E+02 -0.13957677322E+01  0.14928391254E+02  0.51100000000E-03 0. -1.
        -11    1    3    3    0    0 -0.27313306130E+01  0.19136563072E+00 -0.33436012745E+01  0.43216267152E+01  0.51100000000E-03 0.  1.
        -12    1    3    3    0    0  0.78874378950E+01  0.24240725717E+02  0.18125718378E+02  0.31278844713E+02  0.00000000000E+00 0.  1.
</event>
<event>
 7    1  0.2575978E-011  0.5052885E+02  0.7816164E-02  0.1300439E+00
        -11   -1    0    0    0    0  0.00000000000E+00  0.00000000000E+00  0.45593999997E+02  0.45594000000E+02  0.51100000000E-03 0.  1.
         11   -1    0    0    0    0 -0.00000000000E+00 -0.00000000000E+00 -0.45593999997E+02  0.45594000000E+02  0.51100000000E-03 0. -1.
    9900012    2    1    2    0    0  0.24781272908E+02 -0.33080336767E+01  0.32064186577E+02  0.50528848083E+02  0.29999964232E+02 0.  0.
         12    1    1    2    0    0 -0.24781272908E+02  0.33080336767E+01 -0.32064186577E+02  0.40659151917E+02  0.00000000000E+00 0. -1.
         11    1    3    3    0    0 -0.19418633772E+01 -0.30802844074E+01  0.10757606162E+01  0.37968732624E+01  0.51100000000E-03 0. -1.
        -11    1    3    3    0    0  0.14196732414E+02 -0.98345572689E+01  0.23750048705E+02  0.29365465119E+02  0.51100000000E-03 0.  1.
         12    1    3    3    0    0  0.12526403872E+02  0.96068079996E+01  0.72383772558E+01  0.17366509701E+02  0.00000000000E+00 0. -1.
</event>
<event>
 7    1  0.2575978E-011  0.5052886E+02  0.7816164E-02  0.1300439E+00
        -11   -1    0    0    0    0  0.00000000000E+00  0.00000000000E+00  0.45593999997E+02  0.45594000000E+02  0.51100000000E-03 0. -1.
         11   -1    0    0    0    0 -0.00000000000E+00 -0.00000000000E+00 -0.45593999997E+02  0.45594000000E+02  0.51100000000E-03 0.  1.
    9900012    2    1    2    0    0 -0.84201182386E+01  0.28096257638E+01 -0.39678370914E+02  0.50528861956E+02  0.30000006401E+02 0.  0.
         12    1    1    2    0    0  0.84201182386E+01 -0.28096257638E+01  0.39678370914E+02  0.40659138044E+02  0.00000000000E+00 0. -1.
         11    1    3    3    0    0  0.43562964779E+01  0.62334420335E+01 -0.13991512789E+01  0.77324474231E+01  0.51100000000E-03 0. -1.
        -11    1    3    3    0    0 -0.29702677829E+01 -0.51110383813E+01 -0.40892934822E+01  0.71880126239E+01  0.51100000000E-03 0.  1.
        -12    1    3    3    0    0 -0.98061469336E+01  0.16872221116E+01 -0.34189926153E+02  0.35608401909E+02  0.00000000000E+00 0.  1.
</event>
<event>
 7    1  0.2575978E-011  0.5052886E+02  0.7816164E-02  0.1300439E+00
        -11   -1    0    0    0    0  0.00000000000E+00  0.00000000000E+00  0.45593999997E+02  0.45594000000E+02  0.51100000000E-03 0. -1.
         11   -1    0    0    0    0 -0.00000000000E+00 -0.00000000000E+00 -0.45593999997E+02  0.45594000000E+02  0.51100000000E-03 0.  1.
    9900012    2    1    2    0    0 -0.75564724052E+01  0.38117175471E+02 -0.11964389118E+02  0.50528856526E+02  0.29999989896E+02 0.  0.
         12    1    1    2    0    0  0.75564724052E+01 -0.38117175471E+02  0.11964389118E+02  0.40659143474E+02  0.00000000000E+00 0. -1.
         11    1    3    3    0    0  0.89154092705E+00  0.11249590380E+02  0.62919831657E+01  0.12920417229E+02  0.51100000000E-03 0. -1.
        -11    1    3    3    0    0  0.32350444431E+01  0.14063442948E+02 -0.35108302469E+01  0.14851662176E+02  0.51100000000E-03 0.  1.
        -12    1    3    3    0    0 -0.11683057775E+02  0.12804142142E+02 -0.14745542037E+02  0.22756777121E+02  0.00000000000E+00 0.  1.
</event>
<event>
 7    1  0.2575978E-011  0.5052886E+02  0.7816164E-02  0.1300439E+00
        -11   -1    0    0    0    0  0.00000000000E+00  0.00000000000E+00  0.45593999997E+02  0.45594000000E+02  0.51100000000E-03 0. -1.
         11   -1    0    0    0    0 -0.00000000000E+00 -0.00000000000E+00 -0.45593999997E+02  0.45594000000E+02  0.51100000000E-03 0.  1.
    9900012    2    1    2    0    0  0.13621615626E+02  0.18089735094E+02 -0.33769494653E+02  0.50528859612E+02  0.29999999275E+02 0.  0.
         12    1    1    2    0    0 -0.13621615626E+02 -0.18089735094E+02  0.33769494653E+02  0.40659140388E+02  0.00000000000E+00 0. -1.
         11    1    3    3    0    0  0.23406110172E+01  0.84910116066E+01 -0.13895241270E+02  0.16451549114E+02  0.51100000000E-03 0. -1.
        -11    1    3    3    0    0  0.27488098553E+01  0.14705023468E+02 -0.18874026811E+02  0.24083657512E+02  0.51100000000E-03 0.  1.
         12    1    3    3    0    0  0.85321947538E+01 -0.51062999806E+01 -0.10002265715E+01  0.99936529859E+01  0.00000000000E+00 0. -1.
</event>
<event>
 7    1  0.2575978E-011  0.5052886E+02  0.7816164E-02  0.1300439E+00
        -11   -1    0    0    0    0  0.00000000000E+00  0.00000000000E+00  0.45593999997E+02  0.45594000000E+02  0.51100000000E-03 0.  1.
         11   -1    0    0    0    0 -0.00000000000E+00 -0.00000000000E+00 -0.45593999997E+02  0.45594000000E+02  0.51100000000E-03 0. -1.
    9900012    2    1    2    0    0 -0.13238467688E+02 -0.35820377479E+02  0.13957404395E+02  0.50528860721E+02  0.30000002648E+02 0.  0.
         12    1    1    2    0    0  0.13238467688E+02  0.35820377479E+02 -0.13957404395E+02  0.40659139279E+02  0.00000000000E+00 0. -1.
         11    1    3    3    0    0 -0.20490681674E+01 -0.36216291580E+01 -0.29040047850E+00  0.41712361251E+01  0.51100000000E-03 0. -1.
        -11    1    3    3    0    0  0.32465345145E+01 -0.59072309191E+00  0.10969115968E+02  0.11454712808E+02  0.51100000000E-03 0.  1.
        -12    1    3    3    0    0 -0.14435934035E+02 -0.31608025229E+02  0.32786889054E+01  0.34902911788E+02  0.00000000000E+00 0.  1.
</event>
<event>
 7    1  0.2575978E-011  0.5052888E+02  0.7816164E-02  0.1300439E+00
        -11   -1    0    0    0    0  0.00000000000E+00  0.00000000000E+00  0.45593999997E+02  0.45594000000E+02  0.51100000000E-03 0.  1.
         11   -1    0    0    0    0 -0.00000000000E+00 -0.00000000000E+00 -0.45593999997E+02  0.45594000000E+02  0.51100000000E-03 0. -1.
    9900012    2    1    2    0    0 -0.20596254471E+02  0.34973032660E+02 -0.24177907531E+01  0.50528875270E+02  0.30000046872E+02 0.  0.
         12    1    1    2    0    0  0.20596254471E+02 -0.34973032660E+02  0.24177907531E+01  0.40659124730E+02  0.00000000000E+00 0. -1.
         11    1    3    3    0    0 -0.10664290085E+01 -0.14099075036E+01 -0.23724555169E+00  0.17836467452E+01  0.51100000000E-03 0. -1.
        -11    1    3    3    0    0 -0.55064329856E+01 -0.28699216298E+01 -0.33314737920E+01  0.70466993887E+01  0.51100000000E-03 0.  1.
        -12    1    3    3    0    0 -0.14023392477E+02  0.39252861793E+02  0.11509285906E+01  0.41698529136E+02  0.00000000000E+00 0.  1.
</event>
<event>
 7    1  0.2575978E-011  0.5052886E+02  0.7816164E-02  0.1300439E+00
        -11   -1    0    0    0    0  0.00000000000E+00  0.00000000000E+00  0.45593999997E+02  0.45594000000E+02  0.51100000000E-03 0.  1.
         11   -1    0    0    0    0 -0.00000000000E+00 -0.00000000000E+00 -0.45593999997E+02  0.45594000000E+02  0.51100000000E-03 0. -1.
    9900012    2    1    2    0    0 -0.95216713397E+00 -0.17316177455E+02  0.36775118255E+02  0.50528856544E+02  0.29999989950E+02 0.  0.
         12    1    1    2    0    0  0.95216713397E+00  0.17316177455E+02 -0.36775118255E+02  0.40659143456E+02  0.00000000000E+00 0. -1.
         11    1    3    3    0    0  0.47059900007E+01 -0.36758635503E+01  0.81283440703E+01  0.10086044433E+02  0.51100000000E-03 0.  1.
        -11    1    3    3    0    0  0.75828378758E+01  0.10909981109E+01  0.34747679046E+01  0.84121174137E+01  0.51100000000E-03 0. -1.
        -12    1    3    3    0    0 -0.13240995011E+02 -0.14731312016E+02  0.25172006280E+02  0.32030694697E+02  0.00000000000E+00 0.  1.
</event>
<event>
 7    1  0.2575978E-011  0.5052886E+02  0.7816164E-02  0.1300439E+00
        -11   -1    0    0    0    0  0.00000000000E+00  0.00000000000E+00  0.45593999997E+02  0.45594000000E+02  0.51100000000E-03 0.  1.
         11   -1    0    0    0    0 -0.00000000000E+00 -0.00000000000E+00 -0.45593999997E+02  0.45594000000E+02  0.51100000000E-03 0. -1.
    9900012    2    1    2    0    0  0.23828087732E+02  0.25562168985E+02  0.20783734468E+02  0.50528857528E+02  0.29999992941E+02 0.  0.
         12    1    1    2    0    0 -0.23828087732E+02 -0.25562168985E+02 -0.20783734468E+02  0.40659142472E+02  0.00000000000E+00 0. -1.
         11    1    3    3    0    0  0.88854315857E+01  0.39088975267E+01  0.12349404599E+02  0.15707901469E+02  0.51100000000E-03 0. -1.
        -11    1    3    3    0    0  0.82718438410E+00  0.69984731179E+01  0.12237271165E+02  0.14121390364E+02  0.51100000000E-03 0.  1.
         12    1    3    3    0    0  0.14115471762E+02  0.14654798340E+02 -0.38029412961E+01  0.20699565695E+02  0.00000000000E+00 0. -1.
</event>
<event>
 7    1  0.2575978E-011  0.5052888E+02  0.7816164E-02  0.1300439E+00
        -11   -1    0    0    0    0  0.00000000000E+00  0.00000000000E+00  0.45593999997E+02  0.45594000000E+02  0.51100000000E-03 0.  1.
         11   -1    0    0    0    0 -0.00000000000E+00 -0.00000000000E+00 -0.45593999997E+02  0.45594000000E+02  0.51100000000E-03 0. -1.
    9900012    2    1    2    0    0  0.39568646450E+02  0.88566912328E+01  0.30074935397E+01  0.50528883201E+02  0.30000070977E+02 0.  0.
         12    1    1    2    0    0 -0.39568646450E+02 -0.88566912328E+01 -0.30074935397E+01  0.40659116799E+02  0.00000000000E+00 0. -1.
         11    1    3    3    0    0  0.27027740519E+02  0.81842883310E+01  0.12729832555E+01  0.28268389053E+02  0.51100000000E-03 0. -1.
        -11    1    3    3    0    0  0.15865625413E+02 -0.28094491423E+01 -0.19059217116E+01  0.16224783883E+02  0.51100000000E-03 0.  1.
         12    1    3    3    0    0 -0.33247194811E+01  0.34818520441E+01  0.36404319959E+01  0.60357102649E+01  0.00000000000E+00 0. -1.
</event>
<event>
 7    1  0.2575978E-011  0.5052886E+02  0.7816164E-02  0.1300439E+00
        -11   -1    0    0    0    0  0.00000000000E+00  0.00000000000E+00  0.45593999997E+02  0.45594000000E+02  0.51100000000E-03 0.  1.
         11   -1    0    0    0    0 -0.00000000000E+00 -0.00000000000E+00 -0.45593999997E+02  0.45594000000E+02  0.51100000000E-03 0. -1.
    9900012    2    1    2    0    0 -0.20784541803E+02  0.11111715305E+02  0.33131534066E+02  0.50528856569E+02  0.29999990028E+02 0.  0.
         12    1    1    2    0    0  0.20784541803E+02 -0.11111715305E+02 -0.33131534066E+02  0.40659143431E+02  0.00000000000E+00 0. -1.
         11    1    3    3    0    0 -0.14301606017E+02 -0.81819894663E+00  0.23387780006E+02  0.27426148801E+02  0.51100000000E-03 0.  1.
        -11    1    3    3    0    0 -0.19005135885E+01 -0.34987051904E+01  0.48612462066E+01  0.62836776534E+01  0.51100000000E-03 0. -1.
         12    1    3    3    0    0 -0.45824221970E+01  0.15428619442E+02  0.48825078536E+01  0.16819030115E+02  0.00000000000E+00 0. -1.
</event>
<event>
 7    1  0.2575978E-011  0.5052886E+02  0.7816164E-02  0.1300439E+00
        -11   -1    0    0    0    0  0.00000000000E+00  0.00000000000E+00  0.45593999997E+02  0.45594000000E+02  0.51100000000E-03 0. -1.
         11   -1    0    0    0    0 -0.00000000000E+00 -0.00000000000E+00 -0.45593999997E+02  0.45594000000E+02  0.51100000000E-03 0.  1.
    9900012    2    1    2    0    0 -0.62951533309E+01  0.39201111451E+02  0.87641099349E+01  0.50528859362E+02  0.29999998517E+02 0.  0.
         12    1    1    2    0    0  0.62951533309E+01 -0.39201111451E+02 -0.87641099349E+01  0.40659140638E+02  0.00000000000E+00 0. -1.
         11    1    3    3    0    0  0.77228146933E-01  0.46082481063E+00  0.47283975802E+01  0.47514279570E+01  0.51100000000E-03 0. -1.
        -11    1    3    3    0    0 -0.13244036123E+02  0.24570643422E+02  0.88967292823E+01  0.29296293336E+02  0.51100000000E-03 0.  1.
         12    1    3    3    0    0  0.68716546455E+01  0.14169643218E+02 -0.48610169276E+01  0.16481138069E+02  0.00000000000E+00 0. -1.
</event>
<event>
 7    1  0.2575978E-011  0.5052886E+02  0.7816164E-02  0.1300439E+00
        -11   -1    0    0    0    0  0.00000000000E+00  0.00000000000E+00  0.45593999997E+02  0.45594000000E+02  0.51100000000E-03 0.  1.
         11   -1    0    0    0    0 -0.00000000000E+00 -0.00000000000E+00 -0.45593999997E+02  0.45594000000E+02  0.51100000000E-03 0. -1.
    9900012    2    1    2    0    0 -0.39952816562E+00 -0.19562382104E+02  0.35641534189E+02  0.50528863564E+02  0.30000011290E+02 0.  0.
         12    1    1    2    0    0  0.39952816562E+00  0.19562382104E+02 -0.35641534189E+02  0.40659136436E+02  0.00000000000E+00 0. -1.
         11    1    3    3    0    0  0.12155350685E+01  0.14176928745E+01  0.59882609830E+01  0.62726906866E+01  0.51100000000E-03 0. -1.
        -11    1    3    3    0    0 -0.41152007247E+01  0.31614016241E+01 -0.86772147657E+00  0.52613950674E+01  0.51100000000E-03 0.  1.
         12    1    3    3    0    0  0.25001374906E+01 -0.24141476603E+02  0.30520994683E+02  0.38994777810E+02  0.00000000000E+00 0. -1.
</event>
<event>
 7    1  0.2575978E-011  0.5052887E+02  0.7816164E-02  0.1300439E+00
        -11   -1    0    0    0    0  0.00000000000E+00  0.00000000000E+00  0.45593999997E+02  0.45594000000E+02  0.51100000000E-03 0.  1.
         11   -1    0    0    0    0 -0.00000000000E+00 -0.00000000000E+00 -0.45593999997E+02  0.45594000000E+02  0.51100000000E-03 0. -1.
    9900012    2    1    2    0    0 -0.16799679514E+02  0.25855491243E+02  0.26503380961E+02  0.50528869887E+02  0.30000030510E+02 0.  0.
         12    1    1    2    0    0  0.16799679514E+02 -0.25855491243E+02 -0.26503380961E+02  0.40659130113E+02  0.00000000000E+00 0. -1.
         11    1    3    3    0    0 -0.85743384103E+01  0.77491175437E+01  0.47157763946E+01  0.12482253368E+02  0.51100000000E-03 0. -1.
        -11    1    3    3    0    0 -0.16667366555E+02  0.10070281578E+02  0.12460380750E+02  0.23118667082E+02  0.51100000000E-03 0.  1.
         12    1    3    3    0    0  0.84420254515E+01  0.80360921207E+01  0.93272238162E+01  0.14927949438E+02  0.00000000000E+00 0. -1.
</event>
<event>
 7    1  0.2575978E-011  0.5052886E+02  0.7816164E-02  0.1300439E+00
        -11   -1    0    0    0    0  0.00000000000E+00  0.00000000000E+00  0.45593999997E+02  0.45594000000E+02  0.51100000000E-03 0.  1.
         11   -1    0    0    0    0 -0.00000000000E+00 -0.00000000000E+00 -0.45593999997E+02  0.45594000000E+02  0.51100000000E-03 0. -1.
    9900012    2    1    2    0    0 -0.20683600890E+02 -0.22879495313E-01  0.35005054310E+02  0.50528859619E+02  0.29999999298E+02 0.  0.
         12    1    1    2    0    0  0.20683600890E+02  0.22879495313E-01 -0.35005054310E+02  0.40659140381E+02  0.00000000000E+00 0. -1.
         11    1    3    3    0    0 -0.68782942218E+01 -0.22151228283E+01  0.27058995636E+02  0.28007265943E+02  0.51100000000E-03 0. -1.
        -11    1    3    3    0    0  0.29571004931E+01  0.20865445899E+01 -0.65985115241E+00  0.36787926629E+01  0.51100000000E-03 0.  1.
         12    1    3    3    0    0 -0.16762407161E+02  0.10569874307E+00  0.86059098271E+01  0.18842801013E+02  0.00000000000E+00 0. -1.
</event>
<event>
 7    1  0.2575978E-011  0.5052888E+02  0.7816164E-02  0.1300439E+00
        -11   -1    0    0    0    0  0.00000000000E+00  0.00000000000E+00  0.45593999997E+02  0.45594000000E+02  0.51100000000E-03 0. -1.
         11   -1    0    0    0    0 -0.00000000000E+00 -0.00000000000E+00 -0.45593999997E+02  0.45594000000E+02  0.51100000000E-03 0.  1.
    9900012    2    1    2    0    0 -0.35131864518E+02  0.20237523693E+02  0.30591739668E+01  0.50528882756E+02  0.30000069624E+02 0.  0.
         12    1    1    2    0    0  0.35131864518E+02 -0.20237523693E+02 -0.30591739668E+01  0.40659117244E+02  0.00000000000E+00 0. -1.
         11    1    3    3    0    0 -0.13711238625E+01 -0.46107796485E+01 -0.22705687434E+01  0.53192811820E+01  0.51100000000E-03 0. -1.
        -11    1    3    3    0    0 -0.15103209779E+02  0.75741953942E+01 -0.52163451123E+01  0.17682919388E+02  0.51100000000E-03 0.  1.
         12    1    3    3    0    0 -0.18657530876E+02  0.17274107947E+02  0.10546087822E+02  0.27526682185E+02  0.00000000000E+00 0. -1.
</event>
<event>
 7    1  0.2575978E-011  0.5052888E+02  0.7816164E-02  0.1300439E+00
        -11   -1    0    0    0    0  0.00000000000E+00  0.00000000000E+00  0.45593999997E+02  0.45594000000E+02  0.51100000000E-03 0.  1.
         11   -1    0    0    0    0 -0.00000000000E+00 -0.00000000000E+00 -0.45593999997E+02  0.45594000000E+02  0.51100000000E-03 0. -1.
    9900012    2    1    2    0    0  0.86780832897E+01  0.36384006495E+02  0.15939218281E+02  0.50528883708E+02  0.30000072519E+02 0.  0.
         12    1    1    2    0    0 -0.86780832897E+01 -0.36384006495E+02 -0.15939218281E+02  0.40659116292E+02  0.00000000000E+00 0. -1.
         11    1    3    3    0    0 -0.18005566619E+01  0.26428810821E+01 -0.14481756966E+01  0.35105608977E+01  0.51100000000E-03 0. -1.
        -11    1    3    3    0    0  0.91160740263E+00 -0.16839203518E+01  0.92324019950E+01  0.94288844868E+01  0.51100000000E-03 0.  1.
        -12    1    3    3    0    0  0.95670325489E+01  0.35425045765E+02  0.81549919823E+01  0.37589438324E+02  0.00000000000E+00 0.  1.
</event>
<event>
 7    1  0.2575978E-011  0.5052886E+02  0.7816164E-02  0.1300439E+00
        -11   -1    0    0    0    0  0.00000000000E+00  0.00000000000E+00  0.45593999997E+02  0.45594000000E+02  0.51100000000E-03 0.  1.
         11   -1    0    0    0    0 -0.00000000000E+00 -0.00000000000E+00 -0.45593999997E+02  0.45594000000E+02  0.51100000000E-03 0. -1.
    9900012    2    1    2    0    0  0.48253121627E+01 -0.27697379489E+01  0.40276671914E+02  0.50528863435E+02  0.30000010896E+02 0.  0.
         12    1    1    2    0    0 -0.48253121627E+01  0.27697379489E+01 -0.40276671914E+02  0.40659136565E+02  0.00000000000E+00 0. -1.
         11    1    3    3    0    0  0.36892808147E+01 -0.49789328557E+01  0.20674774567E+02  0.21583486024E+02  0.51100000000E-03 0. -1.
        -11    1    3    3    0    0  0.40095047672E+01  0.10570824447E+02  0.15534744959E+02  0.19213192321E+02  0.51100000000E-03 0.  1.
         12    1    3    3    0    0 -0.28734734192E+01 -0.83616295404E+01  0.40671523883E+01  0.97321850893E+01  0.00000000000E+00 0. -1.
</event>
<event>
 7    1  0.2575978E-011  0.5052891E+02  0.7816164E-02  0.1300439E+00
        -11   -1    0    0    0    0  0.00000000000E+00  0.00000000000E+00  0.45593999997E+02  0.45594000000E+02  0.51100000000E-03 0.  1.
         11   -1    0    0    0    0 -0.00000000000E+00 -0.00000000000E+00 -0.45593999997E+02  0.45594000000E+02  0.51100000000E-03 0. -1.
    9900012    2    1    2    0    0 -0.20863781144E+02 -0.27195078308E+02  0.21869882248E+02  0.50528912488E+02  0.30000159998E+02 0.  0.
         12    1    1    2    0    0  0.20863781144E+02  0.27195078308E+02 -0.21869882248E+02  0.40659087512E+02  0.00000000000E+00 0. -1.
         11    1    3    3    0    0 -0.21422815255E+02 -0.20866942198E+02  0.10312377907E+02  0.31634023274E+02  0.51100000000E-03 0. -1.
        -11    1    3    3    0    0 -0.62294234408E+01 -0.23772477159E+01  0.31010442429E+01  0.73534684853E+01  0.51100000000E-03 0.  1.
        -12    1    3    3    0    0  0.67884575524E+01 -0.39508883940E+01  0.84564600981E+01  0.11541420729E+02  0.00000000000E+00 0.  1.
</event>
<event>
 7    1  0.2575978E-011  0.5052885E+02  0.7816164E-02  0.1300439E+00
        -11   -1    0    0    0    0  0.00000000000E+00  0.00000000000E+00  0.45593999997E+02  0.45594000000E+02  0.51100000000E-03 0. -1.
         11   -1    0    0    0    0 -0.00000000000E+00 -0.00000000000E+00 -0.45593999997E+02  0.45594000000E+02  0.51100000000E-03 0.  1.
    9900012    2    1    2    0    0 -0.24941279475E+02 -0.32106143478E+02  0.54271280459E+00  0.50528850869E+02  0.29999972701E+02 0.  0.
         12    1    1    2    0    0  0.24941279475E+02  0.32106143478E+02 -0.54271280459E+00  0.40659149131E+02  0.00000000000E+00 0. -1.
         11    1    3    3    0    0 -0.81259670778E+01  0.18830563975E+00 -0.67431965125E+01  0.10561131541E+02  0.51100000000E-03 0. -1.
        -11    1    3    3    0    0  0.23393469230E+01 -0.71300018307E+01 -0.44605302446E-01  0.75040962165E+01  0.51100000000E-03 0.  1.
         12    1    3    3    0    0 -0.19154659320E+02 -0.25164447287E+02  0.73305146195E+01  0.32463623111E+02  0.00000000000E+00 0. -1.
</event>
<event>
 7    1  0.2575978E-011  0.5052880E+02  0.7816164E-02  0.1300439E+00
        -11   -1    0    0    0    0  0.00000000000E+00  0.00000000000E+00  0.45593999997E+02  0.45594000000E+02  0.51100000000E-03 0. -1.
         11   -1    0    0    0    0 -0.00000000000E+00 -0.00000000000E+00 -0.45593999997E+02  0.45594000000E+02  0.51100000000E-03 0.  1.
    9900012    2    1    2    0    0  0.14422440708E+02 -0.21566182707E+02  0.31305961189E+02  0.50528803765E+02  0.29999829522E+02 0.  0.
         12    1    1    2    0    0 -0.14422440708E+02  0.21566182707E+02 -0.31305961189E+02  0.40659196235E+02  0.00000000000E+00 0. -1.
         11    1    3    3    0    0 -0.37683499003E+01 -0.25936477012E+01  0.36795742361E+01  0.58708377757E+01  0.51100000000E-03 0. -1.
        -11    1    3    3    0    0 -0.38163889584E+01 -0.10266429337E+02  0.12261609793E+02  0.16441151754E+02  0.51100000000E-03 0.  1.
        -12    1    3    3    0    0  0.22007179567E+02 -0.87061056692E+01  0.15364777160E+02  0.28216814235E+02  0.00000000000E+00 0.  1.
</event>
<event>
 7    1  0.2575978E-011  0.5052886E+02  0.7816164E-02  0.1300439E+00
        -11   -1    0    0    0    0  0.00000000000E+00  0.00000000000E+00  0.45593999997E+02  0.45594000000E+02  0.51100000000E-03 0. -1.
         11   -1    0    0    0    0 -0.00000000000E+00 -0.00000000000E+00 -0.45593999997E+02  0.45594000000E+02  0.51100000000E-03 0.  1.
    9900012    2    1    2    0    0  0.58920611879E+01  0.31633822907E+02 -0.24854592835E+02  0.50528856849E+02  0.29999990878E+02 0.  0.
         12    1    1    2    0    0 -0.58920611879E+01 -0.31633822907E+02  0.24854592835E+02  0.40659143151E+02  0.00000000000E+00 0. -1.
         11    1    3    3    0    0 -0.66861074488E+01  0.11346106549E+02 -0.24049040005E+01  0.13387372040E+02  0.51100000000E-03 0. -1.
        -11    1    3    3    0    0 -0.13501549989E+00  0.14745987762E+02 -0.68240885443E+01  0.16249017478E+02  0.51100000000E-03 0.  1.
         12    1    3    3    0    0  0.12713184137E+02  0.55417285962E+01 -0.15625600291E+02  0.20892467331E+02  0.00000000000E+00 0. -1.
</event>
<event>
 7    1  0.2575978E-011  0.5052886E+02  0.7816164E-02  0.1300439E+00
        -11   -1    0    0    0    0  0.00000000000E+00  0.00000000000E+00  0.45593999997E+02  0.45594000000E+02  0.51100000000E-03 0. -1.
         11   -1    0    0    0    0 -0.00000000000E+00 -0.00000000000E+00 -0.45593999997E+02  0.45594000000E+02  0.51100000000E-03 0.  1.
    9900012    2    1    2    0    0 -0.33335629436E+02 -0.21398376251E+02 -0.91657643609E+01  0.50528856718E+02  0.29999990481E+02 0.  0.
         12    1    1    2    0    0  0.33335629436E+02  0.21398376251E+02  0.91657643609E+01  0.40659143282E+02  0.00000000000E+00 0. -1.
         11    1    3    3    0    0 -0.58774489335E+01  0.37198935183E+01  0.60253949911E+01  0.92025756620E+01  0.51100000000E-03 0. -1.
        -11    1    3    3    0    0 -0.86641191516E+01 -0.72205266782E+01 -0.95244865052E+01  0.14762073351E+02  0.51100000000E-03 0.  1.
        -12    1    3    3    0    0 -0.18794061351E+02 -0.17897743091E+02 -0.56666728469E+01  0.26564207705E+02  0.00000000000E+00 0.  1.
</event>
<event>
 7    1  0.2575978E-011  0.5052885E+02  0.7816164E-02  0.1300439E+00
        -11   -1    0    0    0    0  0.00000000000E+00  0.00000000000E+00  0.45593999997E+02  0.45594000000E+02  0.51100000000E-03 0.  1.
         11   -1    0    0    0    0 -0.00000000000E+00 -0.00000000000E+00 -0.45593999997E+02  0.45594000000E+02  0.51100000000E-03 0. -1.
    9900012    2    1    2    0    0 -0.88788714073E+01  0.18167615547E+02  0.35274213036E+02  0.50528847064E+02  0.29999961136E+02 0.  0.
         12    1    1    2    0    0  0.88788714073E+01 -0.18167615547E+02 -0.35274213036E+02  0.40659152936E+02  0.00000000000E+00 0. -1.
         11    1    3    3    0    0 -0.58360024049E+01  0.72667131683E+01  0.18500610447E+02  0.20715613230E+02  0.51100000000E-03 0.  1.
        -11    1    3    3    0    0 -0.14297930327E+01 -0.75946735402E+00  0.17913723256E+02  0.17986733442E+02  0.51100000000E-03 0. -1.
         12    1    3    3    0    0 -0.16130759697E+01  0.11660369732E+02 -0.11401206662E+01  0.11826500392E+02  0.00000000000E+00 0. -1.
</event>
<event>
 7    1  0.2575978E-011  0.5052886E+02  0.7816164E-02  0.1300439E+00
        -11   -1    0    0    0    0  0.00000000000E+00  0.00000000000E+00  0.45593999997E+02  0.45594000000E+02  0.51100000000E-03 0.  1.
         11   -1    0    0    0    0 -0.00000000000E+00 -0.00000000000E+00 -0.45593999997E+02  0.45594000000E+02  0.51100000000E-03 0. -1.
    9900012    2    1    2    0    0  0.15961060152E+02  0.36288830006E+02  0.90294471303E+01  0.50528861546E+02  0.30000005155E+02 0.  0.
         12    1    1    2    0    0 -0.15961060152E+02 -0.36288830006E+02 -0.90294471303E+01  0.40659138454E+02  0.00000000000E+00 0. -1.
         11    1    3    3    0    0  0.82522990134E+00  0.43908703243E+01 -0.60880327282E+01  0.75514825932E+01  0.51100000000E-03 0. -1.
        -11    1    3    3    0    0  0.57914854283E+01  0.26586011065E+02  0.39799063394E+01  0.27499035302E+02  0.51100000000E-03 0.  1.
         12    1    3    3    0    0  0.93443448224E+01  0.53119486161E+01  0.11137573519E+02  0.15478343650E+02  0.00000000000E+00 0. -1.
</event>
<event>
 7    1  0.2575978E-011  0.5052886E+02  0.7816164E-02  0.1300439E+00
        -11   -1    0    0    0    0  0.00000000000E+00  0.00000000000E+00  0.45593999997E+02  0.45594000000E+02  0.51100000000E-03 0.  1.
         11   -1    0    0    0    0 -0.00000000000E+00 -0.00000000000E+00 -0.45593999997E+02  0.45594000000E+02  0.51100000000E-03 0. -1.
    9900012    2    1    2    0    0  0.15326812301E+02 -0.19425712253E+02  0.32262926050E+02  0.50528857496E+02  0.29999992845E+02 0.  0.
         12    1    1    2    0    0 -0.15326812301E+02  0.19425712253E+02 -0.32262926050E+02  0.40659142504E+02  0.00000000000E+00 0. -1.
         11    1    3    3    0    0 -0.25819833561E+01 -0.20633718006E+01 -0.31298168082E+01  0.45519111099E+01  0.51100000000E-03 0. -1.
        -11    1    3    3    0    0  0.66543250168E+01  0.42758948116E+00  0.16085158358E+02  0.17412501080E+02  0.51100000000E-03 0.  1.
         12    1    3    3    0    0  0.11254470641E+02 -0.17789929933E+02  0.19307584500E+02  0.28564445306E+02  0.00000000000E+00 0. -1.
</event>
<event>
 7    1  0.2575978E-011  0.5052888E+02  0.7816164E-02  0.1300439E+00
        -11   -1    0    0    0    0  0.00000000000E+00  0.00000000000E+00  0.45593999997E+02  0.45594000000E+02  0.51100000000E-03 0.  1.
         11   -1    0    0    0    0 -0.00000000000E+00 -0.00000000000E+00 -0.45593999997E+02  0.45594000000E+02  0.51100000000E-03 0. -1.
    9900012    2    1    2    0    0 -0.21727473602E+02 -0.16236805098E+02  0.30289393959E+02  0.50528876358E+02  0.30000050178E+02 0.  0.
         12    1    1    2    0    0  0.21727473602E+02  0.16236805098E+02 -0.30289393959E+02  0.40659123642E+02  0.00000000000E+00 0. -1.
         11    1    3    3    0    0 -0.11908276925E+02 -0.13921057960E+02  0.13946083137E+02  0.23023816998E+02  0.51100000000E-03 0. -1.
        -11    1    3    3    0    0 -0.14184383072E+02 -0.69015390803E+01  0.12150648204E+02  0.19911459435E+02  0.51100000000E-03 0.  1.
        -12    1    3    3    0    0  0.43651863947E+01  0.45857919413E+01  0.41926626183E+01  0.75935999250E+01  0.00000000000E+00 0.  1.
</event>
<event>
 7    1  0.2575978E-011  0.5052886E+02  0.7816164E-02  0.1300439E+00
        -11   -1    0    0    0    0  0.00000000000E+00  0.00000000000E+00  0.45593999997E+02  0.45594000000E+02  0.51100000000E-03 0.  1.
         11   -1    0    0    0    0 -0.00000000000E+00 -0.00000000000E+00 -0.45593999997E+02  0.45594000000E+02  0.51100000000E-03 0. -1.
    9900012    2    1    2    0    0 -0.28785334807E+02  0.24817102151E+02  0.14445827514E+02  0.50528855990E+02  0.29999988266E+02 0.  0.
         12    1    1    2    0    0  0.28785334807E+02 -0.24817102151E+02 -0.14445827514E+02  0.40659144010E+02  0.00000000000E+00 0. -1.
         11    1    3    3    0    0 -0.91001752526E+00  0.38309024220E+01 -0.26468479764E+01  0.47444440912E+01  0.51100000000E-03 0. -1.
        -11    1    3    3    0    0 -0.10841158941E+01  0.11985494951E+02 -0.12376298228E+01  0.12097897517E+02  0.51100000000E-03 0.  1.
        -12    1    3    3    0    0 -0.26791201387E+02  0.90007047773E+01  0.18330305314E+02  0.33686514381E+02  0.00000000000E+00 0.  1.
</event>
<event>
 7    1  0.2575978E-011  0.5052885E+02  0.7816164E-02  0.1300439E+00
        -11   -1    0    0    0    0  0.00000000000E+00  0.00000000000E+00  0.45593999997E+02  0.45594000000E+02  0.51100000000E-03 0.  1.
         11   -1    0    0    0    0 -0.00000000000E+00 -0.00000000000E+00 -0.45593999997E+02  0.45594000000E+02  0.51100000000E-03 0. -1.
    9900012    2    1    2    0    0  0.43422201331E+01 -0.15223098523E+02  0.37450881276E+02  0.50528854502E+02  0.29999983743E+02 0.  0.
         12    1    1    2    0    0 -0.43422201331E+01  0.15223098523E+02 -0.37450881276E+02  0.40659145498E+02  0.00000000000E+00 0. -1.
         11    1    3    3    0    0 -0.61173724930E+00 -0.31202442031E+01 -0.23459220223E+01  0.39513917478E+01  0.51100000000E-03 0. -1.
        -11    1    3    3    0    0  0.72257501755E+01 -0.59076123278E+01  0.39607885257E+01  0.10138993787E+02  0.51100000000E-03 0.  1.
        -12    1    3    3    0    0 -0.22717927931E+01 -0.61952419917E+01  0.35836014773E+02  0.36438468966E+02  0.00000000000E+00 0.  1.
</event>
<event>
 7    1  0.2575978E-011  0.5052889E+02  0.7816164E-02  0.1300439E+00
        -11   -1    0    0    0    0  0.00000000000E+00  0.00000000000E+00  0.45593999997E+02  0.45594000000E+02  0.51100000000E-03 0.  1.
         11   -1    0    0    0    0 -0.00000000000E+00 -0.00000000000E+00 -0.45593999997E+02  0.45594000000E+02  0.51100000000E-03 0. -1.
    9900012    2    1    2    0    0 -0.33709496781E+02 -0.21837444450E+02  0.63213169491E+01  0.50528890303E+02  0.30000092565E+02 0.  0.
         12    1    1    2    0    0  0.33709496781E+02  0.21837444450E+02 -0.63213169491E+01  0.40659109697E+02  0.00000000000E+00 0. -1.
         11    1    3    3    0    0 -0.21269293180E+02 -0.17661307836E+02  0.14048388018E+02  0.31010672889E+02  0.51100000000E-03 0.  1.
        -11    1    3    3    0    0 -0.13146433601E+01  0.68742951990E+00  0.29804336994E+01  0.33292389230E+01  0.51100000000E-03 0. -1.
        -12    1    3    3    0    0 -0.11125560242E+02 -0.48635661341E+01 -0.10707504768E+02  0.16188978491E+02  0.00000000000E+00 0.  1.
</event>
<event>
 7    1  0.2575978E-011  0.5052885E+02  0.7816164E-02  0.1300439E+00
        -11   -1    0    0    0    0  0.00000000000E+00  0.00000000000E+00  0.45593999997E+02  0.45594000000E+02  0.51100000000E-03 0.  1.
         11   -1    0    0    0    0 -0.00000000000E+00 -0.00000000000E+00 -0.45593999997E+02  0.45594000000E+02  0.51100000000E-03 0. -1.
    9900012    2    1    2    0    0 -0.29155656098E+02 -0.15026288050E+02  0.24027579142E+02  0.50528853742E+02  0.29999981433E+02 0.  0.
         12    1    1    2    0    0  0.29155656098E+02  0.15026288050E+02 -0.24027579142E+02  0.40659146258E+02  0.00000000000E+00 0. -1.
         11    1    3    3    0    0 -0.17291263700E+02 -0.58782541450E+01  0.40051115181E+01  0.18697127872E+02  0.51100000000E-03 0. -1.
        -11    1    3    3    0    0 -0.11563599742E+02  0.18741145706E+01  0.39934658534E+01  0.12376466144E+02  0.51100000000E-03 0.  1.
         12    1    3    3    0    0 -0.30079265535E+00 -0.11022148476E+02  0.16029001770E+02  0.19455259726E+02  0.00000000000E+00 0. -1.
</event>
<event>
 7    1  0.2575978E-011  0.5052887E+02  0.7816164E-02  0.1300439E+00
        -11   -1    0    0    0    0  0.00000000000E+00  0.00000000000E+00  0.45593999997E+02  0.45594000000E+02  0.51100000000E-03 0.  1.
         11   -1    0    0    0    0 -0.00000000000E+00 -0.00000000000E+00 -0.45593999997E+02  0.45594000000E+02  0.51100000000E-03 0. -1.
    9900012    2    1    2    0    0 -0.14452327338E+02 -0.37415121904E+02  0.66636398748E+01  0.50528865615E+02  0.30000017523E+02 0.  0.
         12    1    1    2    0    0  0.14452327338E+02  0.37415121904E+02 -0.66636398748E+01  0.40659134385E+02  0.00000000000E+00 0. -1.
         11    1    3    3    0    0 -0.30687863261E+01 -0.21748263608E+01 -0.28652334852E+01  0.47283065045E+01  0.51100000000E-03 0. -1.
        -11    1    3    3    0    0 -0.15111543588E+02 -0.37469493182E+02  0.79359384757E+01  0.41174030513E+02  0.51100000000E-03 0.  1.
         12    1    3    3    0    0  0.37280025761E+01  0.22291976387E+01  0.15929348844E+01  0.46265285977E+01  0.00000000000E+00 0. -1.
</event>
<event>
 7    1  0.2575978E-011  0.5052886E+02  0.7816164E-02  0.1300439E+00
        -11   -1    0    0    0    0  0.00000000000E+00  0.00000000000E+00  0.45593999997E+02  0.45594000000E+02  0.51100000000E-03 0. -1.
         11   -1    0    0    0    0 -0.00000000000E+00 -0.00000000000E+00 -0.45593999997E+02  0.45594000000E+02  0.51100000000E-03 0.  1.
    9900012    2    1    2    0    0  0.38841744320E+02  0.78858937570E+01 -0.90717718133E+01  0.50528862453E+02  0.30000007913E+02 0.  0.
         12    1    1    2    0    0 -0.38841744320E+02 -0.78858937570E+01  0.90717718133E+01  0.40659137547E+02  0.00000000000E+00 0. -1.
         11    1    3    3    0    0  0.10021579661E+02  0.93613896965E+01 -0.47462113470E+01  0.14511864055E+02  0.51100000000E-03 0. -1.
        -11    1    3    3    0    0  0.13692202105E+02  0.96207998932E+01 -0.42087364341E+01  0.17255423834E+02  0.51100000000E-03 0.  1.
         12    1    3    3    0    0  0.15127962554E+02 -0.11096295833E+02 -0.11682403222E+00  0.18761574564E+02  0.00000000000E+00 0. -1.
</event>
<event>
 7    1  0.2575978E-011  0.5052885E+02  0.7816164E-02  0.1300439E+00
        -11   -1    0    0    0    0  0.00000000000E+00  0.00000000000E+00  0.45593999997E+02  0.45594000000E+02  0.51100000000E-03 0.  1.
         11   -1    0    0    0    0 -0.00000000000E+00 -0.00000000000E+00 -0.45593999997E+02  0.45594000000E+02  0.51100000000E-03 0. -1.
    9900012    2    1    2    0    0  0.31165158996E+02 -0.12240736345E+02  0.23066500119E+02  0.50528853560E+02  0.29999980880E+02 0.  0.
         12    1    1    2    0    0 -0.31165158996E+02  0.12240736345E+02 -0.23066500119E+02  0.40659146440E+02  0.00000000000E+00 0. -1.
         11    1    3    3    0    0 -0.19478054554E+01 -0.50532297309E+01  0.75142340776E+01  0.92624397887E+01  0.51100000000E-03 0. -1.
        -11    1    3    3    0    0  0.69847413660E+01 -0.29663807332E+01  0.12501169240E+02  0.14624132768E+02  0.51100000000E-03 0.  1.
         12    1    3    3    0    0  0.26128223086E+02 -0.42211258807E+01  0.30510968013E+01  0.26642281002E+02  0.00000000000E+00 0. -1.
</event>
<event>
 7    1  0.2575978E-011  0.5052887E+02  0.7816164E-02  0.1300439E+00
        -11   -1    0    0    0    0  0.00000000000E+00  0.00000000000E+00  0.45593999997E+02  0.45594000000E+02  0.51100000000E-03 0. -1.
         11   -1    0    0    0    0 -0.00000000000E+00 -0.00000000000E+00 -0.45593999997E+02  0.45594000000E+02  0.51100000000E-03 0.  1.
    9900012    2    1    2    0    0  0.37902186862E+02  0.69857330139E+01  0.12953329457E+02  0.50528868446E+02  0.30000026130E+02 0.  0.
         12    1    1    2    0    0 -0.37902186862E+02 -0.69857330139E+01 -0.12953329457E+02  0.40659131554E+02  0.00000000000E+00 0. -1.
         11    1    3    3    0    0  0.13769086237E+02  0.14443041445E+01  0.25143607619E+01  0.14071096636E+02  0.51100000000E-03 0. -1.
        -11    1    3    3    0    0  0.15714100021E+02 -0.38136933994E+01 -0.46341115629E+01  0.16821182689E+02  0.51100000000E-03 0.  1.
         12    1    3    3    0    0  0.84190006045E+01  0.93551222687E+01  0.15073080258E+02  0.19636589121E+02  0.00000000000E+00 0. -1.
</event>
<event>
 7    1  0.2575978E-011  0.5052886E+02  0.7816164E-02  0.1300439E+00
        -11   -1    0    0    0    0  0.00000000000E+00  0.00000000000E+00  0.45593999997E+02  0.45594000000E+02  0.51100000000E-03 0.  1.
         11   -1    0    0    0    0 -0.00000000000E+00 -0.00000000000E+00 -0.45593999997E+02  0.45594000000E+02  0.51100000000E-03 0. -1.
    9900012    2    1    2    0    0  0.26578905929E+02 -0.37575076839E+01  0.30538635549E+02  0.50528863689E+02  0.30000011668E+02 0.  0.
         12    1    1    2    0    0 -0.26578905929E+02  0.37575076839E+01 -0.30538635549E+02  0.40659136311E+02  0.00000000000E+00 0. -1.
         11    1    3    3    0    0  0.69513880710E+01  0.16227586901E+01 -0.26545568698E+01  0.76158922206E+01  0.51100000000E-03 0. -1.
        -11    1    3    3    0    0 -0.42441433427E-02  0.48857586069E+01  0.43344116898E+01  0.65312923787E+01  0.51100000000E-03 0.  1.
        -12    1    3    3    0    0  0.19631762002E+02 -0.10266024981E+02  0.28858780729E+02  0.36381679089E+02  0.00000000000E+00 0.  1.
</event>
<event>
 7    1  0.2575978E-011  0.5052886E+02  0.7816164E-02  0.1300439E+00
        -11   -1    0    0    0    0  0.00000000000E+00  0.00000000000E+00  0.45593999997E+02  0.45594000000E+02  0.51100000000E-03 0. -1.
         11   -1    0    0    0    0 -0.00000000000E+00 -0.00000000000E+00 -0.45593999997E+02  0.45594000000E+02  0.51100000000E-03 0.  1.
    9900012    2    1    2    0    0 -0.25649595470E+02  0.10303109987E+02 -0.29817948299E+02  0.50528857560E+02  0.29999993040E+02 0.  0.
         12    1    1    2    0    0  0.25649595470E+02 -0.10303109987E+02  0.29817948299E+02  0.40659142440E+02  0.00000000000E+00 0. -1.
         11    1    3    3    0    0 -0.76499859148E+00 -0.64528289898E+01 -0.54387467752E+00  0.65207380520E+01  0.51100000000E-03 0. -1.
        -11    1    3    3    0    0 -0.42804501015E+01  0.92900432782E+01 -0.13813447219E+02  0.17188323988E+02  0.51100000000E-03 0.  1.
        -12    1    3    3    0    0 -0.20604146777E+02  0.74658956987E+01 -0.15460626403E+02  0.26819795520E+02  0.00000000000E+00 0.  1.
</event>
<event>
 7    1  0.2575978E-011  0.5052886E+02  0.7816164E-02  0.1300439E+00
        -11   -1    0    0    0    0  0.00000000000E+00  0.00000000000E+00  0.45593999997E+02  0.45594000000E+02  0.51100000000E-03 0. -1.
         11   -1    0    0    0    0 -0.00000000000E+00 -0.00000000000E+00 -0.45593999997E+02  0.45594000000E+02  0.51100000000E-03 0.  1.
    9900012    2    1    2    0    0 -0.33654039285E+02 -0.22485537725E+02  0.38693818030E+01  0.50528857332E+02  0.29999992347E+02 0.  0.
         12    1    1    2    0    0  0.33654039285E+02  0.22485537725E+02 -0.38693818030E+01  0.40659142668E+02  0.00000000000E+00 0. -1.
         11    1    3    3    0    0 -0.17093345712E+02 -0.11798471665E+02  0.11245081501E+02  0.23618599864E+02  0.51100000000E-03 0. -1.
        -11    1    3    3    0    0 -0.13968330845E+02 -0.93015808231E+01  0.21705442601E+01  0.16921729671E+02  0.51100000000E-03 0.  1.
         12    1    3    3    0    0 -0.25923627270E+01 -0.13854852364E+01 -0.95462439585E+01  0.99885277976E+01  0.00000000000E+00 0. -1.
</event>
<event>
 7    1  0.2575978E-011  0.5052884E+02  0.7816164E-02  0.1300439E+00
        -11   -1    0    0    0    0  0.00000000000E+00  0.00000000000E+00  0.45593999997E+02  0.45594000000E+02  0.51100000000E-03 0.  1.
         11   -1    0    0    0    0 -0.00000000000E+00 -0.00000000000E+00 -0.45593999997E+02  0.45594000000E+02  0.51100000000E-03 0. -1.
    9900012    2    1    2    0    0 -0.19465576569E+02  0.29433607591E+02  0.20197069342E+02  0.50528836986E+02  0.29999930503E+02 0.  0.
         12    1    1    2    0    0  0.19465576569E+02 -0.29433607591E+02 -0.20197069342E+02  0.40659163014E+02  0.00000000000E+00 0. -1.
         11    1    3    3    0    0  0.41454485756E+01 -0.16491487291E+01  0.27737871497E+01  0.52534113523E+01  0.51100000000E-03 0. -1.
        -11    1    3    3    0    0 -0.37868731487E+01  0.11333787123E+02  0.11679672393E+02  0.16709574688E+02  0.51100000000E-03 0.  1.
         12    1    3    3    0    0 -0.19824151996E+02  0.19748969198E+02  0.57436097988E+01  0.28565850946E+02  0.00000000000E+00 0. -1.
</event>
<event>
 7    1  0.2575978E-011  0.5052885E+02  0.7816164E-02  0.1300439E+00
        -11   -1    0    0    0    0  0.00000000000E+00  0.00000000000E+00  0.45593999997E+02  0.45594000000E+02  0.51100000000E-03 0. -1.
         11   -1    0    0    0    0 -0.00000000000E+00 -0.00000000000E+00 -0.45593999997E+02  0.45594000000E+02  0.51100000000E-03 0.  1.
    9900012    2    1    2    0    0 -0.30093905040E+02  0.18750851251E+02 -0.19897960637E+02  0.50528851206E+02  0.29999973725E+02 0.  0.
         12    1    1    2    0    0  0.30093905040E+02 -0.18750851251E+02  0.19897960637E+02  0.40659148794E+02  0.00000000000E+00 0. -1.
         11    1    3    3    0    0 -0.20349959755E+02 -0.26098339091E+00 -0.22714355087E+01  0.20477997800E+02  0.51100000000E-03 0. -1.
        -11    1    3    3    0    0 -0.11233933395E+02  0.97539223651E+01 -0.12012314804E+02  0.19121609980E+02  0.51100000000E-03 0.  1.
         12    1    3    3    0    0  0.14899881104E+01  0.92579122766E+01 -0.56142103242E+01  0.10929243426E+02  0.00000000000E+00 0. -1.
</event>
<event>
 7    1  0.2575978E-011  0.5052886E+02  0.7816164E-02  0.1300439E+00
        -11   -1    0    0    0    0  0.00000000000E+00  0.00000000000E+00  0.45593999997E+02  0.45594000000E+02  0.51100000000E-03 0.  1.
         11   -1    0    0    0    0 -0.00000000000E+00 -0.00000000000E+00 -0.45593999997E+02  0.45594000000E+02  0.51100000000E-03 0. -1.
    9900012    2    1    2    0    0  0.22275101030E+01 -0.23874503504E+02  0.32836133158E+02  0.50528863762E+02  0.30000011891E+02 0.  0.
         12    1    1    2    0    0 -0.22275101030E+01  0.23874503504E+02 -0.32836133158E+02  0.40659136238E+02  0.00000000000E+00 0. -1.
         11    1    3    3    0    0  0.33395125570E+01  0.14806572409E+01  0.23889811646E+01  0.43648506560E+01  0.51100000000E-03 0. -1.
        -11    1    3    3    0    0  0.73692957388E+01 -0.43562511940E+01  0.18888506738E+02  0.20737867084E+02  0.51100000000E-03 0.  1.
        -12    1    3    3    0    0 -0.84812981929E+01 -0.20998909551E+02  0.11558645256E+02  0.25426146022E+02  0.00000000000E+00 0.  1.
</event>
<event>
 7    1  0.2575978E-011  0.5052884E+02  0.7816164E-02  0.1300439E+00
        -11   -1    0    0    0    0  0.00000000000E+00  0.00000000000E+00  0.45593999997E+02  0.45594000000E+02  0.51100000000E-03 0. -1.
         11   -1    0    0    0    0 -0.00000000000E+00 -0.00000000000E+00 -0.45593999997E+02  0.45594000000E+02  0.51100000000E-03 0.  1.
    9900012    2    1    2    0    0  0.49453174581E+01 -0.11748065079E+02 -0.38609503257E+02  0.50528844333E+02  0.29999952833E+02 0.  0.
         12    1    1    2    0    0 -0.49453174581E+01  0.11748065079E+02  0.38609503257E+02  0.40659155667E+02  0.00000000000E+00 0. -1.
         11    1    3    3    0    0 -0.80413778425E+01  0.61324472649E-01 -0.10752689760E+02  0.13427131326E+02  0.51100000000E-03 0. -1.
        -11    1    3    3    0    0 -0.21786964208E+01 -0.63648854649E+01 -0.15165586083E+02  0.16590765099E+02  0.51100000000E-03 0.  1.
        -12    1    3    3    0    0  0.15165391721E+02 -0.54445040867E+01 -0.12691227414E+02  0.20510947908E+02  0.00000000000E+00 0.  1.
</event>
<event>
 7    1  0.2575978E-011  0.5052886E+02  0.7816164E-02  0.1300439E+00
        -11   -1    0    0    0    0  0.00000000000E+00  0.00000000000E+00  0.45593999997E+02  0.45594000000E+02  0.51100000000E-03 0.  1.
         11   -1    0    0    0    0 -0.00000000000E+00 -0.00000000000E+00 -0.45593999997E+02  0.45594000000E+02  0.51100000000E-03 0. -1.
    9900012    2    1    2    0    0  0.11327014723E+02  0.26862670430E+02 -0.28341866412E+02  0.50528859369E+02  0.29999998538E+02 0.  0.
         12    1    1    2    0    0 -0.11327014723E+02 -0.26862670430E+02  0.28341866412E+02  0.40659140631E+02  0.00000000000E+00 0. -1.
         11    1    3    3    0    0  0.40090882304E+01  0.21478124521E+02 -0.16174910896E+02  0.27184745063E+02  0.51100000000E-03 0. -1.
        -11    1    3    3    0    0  0.91566059115E+01  0.99283236611E+01 -0.12537609443E+02  0.18428420804E+02  0.51100000000E-03 0.  1.
         12    1    3    3    0    0 -0.18386794191E+01 -0.45437777522E+01  0.37065392786E+00  0.49156935016E+01  0.00000000000E+00 0. -1.
</event>
<event>
 7    1  0.2575978E-011  0.5052886E+02  0.7816164E-02  0.1300439E+00
        -11   -1    0    0    0    0  0.00000000000E+00  0.00000000000E+00  0.45593999997E+02  0.45594000000E+02  0.51100000000E-03 0.  1.
         11   -1    0    0    0    0 -0.00000000000E+00 -0.00000000000E+00 -0.45593999997E+02  0.45594000000E+02  0.51100000000E-03 0. -1.
    9900012    2    1    2    0    0 -0.21600594642E+02  0.34156072236E+02  0.44657270969E+01  0.50528859847E+02  0.29999999991E+02 0.  0.
         12    1    1    2    0    0  0.21600594642E+02 -0.34156072236E+02 -0.44657270969E+01  0.40659140153E+02  0.00000000000E+00 0. -1.
         11    1    3    3    0    0  0.48532079922E+01  0.34129926377E+01 -0.36391645929E+01  0.69602920740E+01  0.51100000000E-03 0. -1.
        -11    1    3    3    0    0 -0.15533958490E+00 -0.78586506444E+00  0.18783416136E+01  0.20420288354E+01  0.51100000000E-03 0.  1.
        -12    1    3    3    0    0 -0.26298463049E+02  0.31528944663E+02  0.62265500761E+01  0.41526538938E+02  0.00000000000E+00 0.  1.
</event>
<event>
 7    1  0.2575978E-011  0.5052886E+02  0.7816164E-02  0.1300439E+00
        -11   -1    0    0    0    0  0.00000000000E+00  0.00000000000E+00  0.45593999997E+02  0.45594000000E+02  0.51100000000E-03 0. -1.
         11   -1    0    0    0    0 -0.00000000000E+00 -0.00000000000E+00 -0.45593999997E+02  0.45594000000E+02  0.51100000000E-03 0.  1.
    9900012    2    1    2    0    0 -0.75254247212E+01 -0.16605712401E+02 -0.36342592004E+02  0.50528859636E+02  0.29999999348E+02 0.  0.
         12    1    1    2    0    0  0.75254247212E+01  0.16605712401E+02  0.36342592004E+02  0.40659140364E+02  0.00000000000E+00 0. -1.
         11    1    3    3    0    0  0.23775259045E+01 -0.13175990068E+01 -0.30530382647E+01  0.40877548210E+01  0.51100000000E-03 0. -1.
        -11    1    3    3    0    0  0.30557633750E+01  0.56388444985E+00  0.32873430452E+01  0.45235251778E+01  0.51100000000E-03 0.  1.
        -12    1    3    3    0    0 -0.12958714001E+02 -0.15851997844E+02 -0.36576896785E+02  0.41917579637E+02  0.00000000000E+00 0.  1.
</event>
<event>
 7    1  0.2575978E-011  0.5052886E+02  0.7816164E-02  0.1300439E+00
        -11   -1    0    0    0    0  0.00000000000E+00  0.00000000000E+00  0.45593999997E+02  0.45594000000E+02  0.51100000000E-03 0.  1.
         11   -1    0    0    0    0 -0.00000000000E+00 -0.00000000000E+00 -0.45593999997E+02  0.45594000000E+02  0.51100000000E-03 0. -1.
    9900012    2    1    2    0    0 -0.36320285468E+02  0.14673604556E+02 -0.10894378158E+02  0.50528864709E+02  0.30000014770E+02 0.  0.
         12    1    1    2    0    0  0.36320285468E+02 -0.14673604556E+02  0.10894378158E+02  0.40659135291E+02  0.00000000000E+00 0. -1.
         11    1    3    3    0    0 -0.20848180315E+01  0.40924250147E+00  0.52799532319E+01  0.56913840181E+01  0.51100000000E-03 0. -1.
        -11    1    3    3    0    0 -0.83499471893E+01  0.12027202946E+02 -0.11078378127E+02  0.18360438202E+02  0.51100000000E-03 0.  1.
        -12    1    3    3    0    0 -0.25885520247E+02  0.22371591091E+01 -0.50959532623E+01  0.26477042490E+02  0.00000000000E+00 0.  1.
</event>
<event>
 7    1  0.2575978E-011  0.5052887E+02  0.7816164E-02  0.1300439E+00
        -11   -1    0    0    0    0  0.00000000000E+00  0.00000000000E+00  0.45593999997E+02  0.45594000000E+02  0.51100000000E-03 0. -1.
         11   -1    0    0    0    0 -0.00000000000E+00 -0.00000000000E+00 -0.45593999997E+02  0.45594000000E+02  0.51100000000E-03 0.  1.
    9900012    2    1    2    0    0 -0.17367523611E+02  0.16385400676E+02 -0.32909769630E+02  0.50528866109E+02  0.30000019024E+02 0.  0.
         12    1    1    2    0    0  0.17367523611E+02 -0.16385400676E+02  0.32909769630E+02  0.40659133891E+02  0.00000000000E+00 0. -1.
         11    1    3    3    0    0 -0.64936737301E+01  0.26475380089E+01 -0.21010569563E+02  0.22149972678E+02  0.51100000000E-03 0. -1.
        -11    1    3    3    0    0  0.23633689928E+01  0.55736116096E+00 -0.91874298075E+01  0.95028959369E+01  0.51100000000E-03 0.  1.
         12    1    3    3    0    0 -0.13237218873E+02  0.13180501506E+02 -0.27117702599E+01  0.18875997494E+02  0.00000000000E+00 0. -1.
</event>
<event>
 7    1  0.2575978E-011  0.5052886E+02  0.7816164E-02  0.1300439E+00
        -11   -1    0    0    0    0  0.00000000000E+00  0.00000000000E+00  0.45593999997E+02  0.45594000000E+02  0.51100000000E-03 0. -1.
         11   -1    0    0    0    0 -0.00000000000E+00 -0.00000000000E+00 -0.45593999997E+02  0.45594000000E+02  0.51100000000E-03 0.  1.
    9900012    2    1    2    0    0  0.22624338973E+02  0.21321003482E+02 -0.26205334233E+02  0.50528862704E+02  0.30000008674E+02 0.  0.
         12    1    1    2    0    0 -0.22624338973E+02 -0.21321003482E+02  0.26205334233E+02  0.40659137296E+02  0.00000000000E+00 0. -1.
         11    1    3    3    0    0  0.13631895787E+02 -0.21301235530E+01 -0.11173957132E+02  0.17754529770E+02  0.51100000000E-03 0. -1.
        -11    1    3    3    0    0  0.66275572391E+01  0.29757322195E+01 -0.84365157189E+01  0.11133476319E+02  0.51100000000E-03 0.  1.
         12    1    3    3    0    0  0.23648859468E+01  0.20475394816E+02 -0.65948613818E+01  0.21640856615E+02  0.00000000000E+00 0. -1.
</event>
<event>
 7    1  0.2575978E-011  0.5052886E+02  0.7816164E-02  0.1300439E+00
        -11   -1    0    0    0    0  0.00000000000E+00  0.00000000000E+00  0.45593999997E+02  0.45594000000E+02  0.51100000000E-03 0.  1.
         11   -1    0    0    0    0 -0.00000000000E+00 -0.00000000000E+00 -0.45593999997E+02  0.45594000000E+02  0.51100000000E-03 0. -1.
    9900012    2    1    2    0    0 -0.16503924219E+01  0.32946076150E+02 -0.23769682988E+02  0.50528861320E+02  0.30000004470E+02 0.  0.
         12    1    1    2    0    0  0.16503924219E+01 -0.32946076150E+02  0.23769682988E+02  0.40659138680E+02  0.00000000000E+00 0. -1.
         11    1    3    3    0    0 -0.54062680884E+01  0.16320928541E+02 -0.77254973257E+01  0.18848972181E+02  0.51100000000E-03 0. -1.
        -11    1    3    3    0    0 -0.58443389562E+01  0.11672387774E+02 -0.90943670600E+00  0.13085412090E+02  0.51100000000E-03 0.  1.
        -12    1    3    3    0    0  0.96002146228E+01  0.49527598351E+01 -0.15134748956E+02  0.18594477050E+02  0.00000000000E+00 0.  1.
</event>
<event>
 7    1  0.2575978E-011  0.5052887E+02  0.7816164E-02  0.1300439E+00
        -11   -1    0    0    0    0  0.00000000000E+00  0.00000000000E+00  0.45593999997E+02  0.45594000000E+02  0.51100000000E-03 0.  1.
         11   -1    0    0    0    0 -0.00000000000E+00 -0.00000000000E+00 -0.45593999997E+02  0.45594000000E+02  0.51100000000E-03 0. -1.
    9900012    2    1    2    0    0 -0.34920373017E+02 -0.20816733239E+02 -0.62936625080E+00  0.50528868968E+02  0.30000027715E+02 0.  0.
         12    1    1    2    0    0  0.34920373017E+02  0.20816733239E+02  0.62936625080E+00  0.40659131032E+02  0.00000000000E+00 0. -1.
         11    1    3    3    0    0 -0.13936604707E+02  0.13894414200E+01  0.68771425614E+01  0.15603031381E+02  0.51100000000E-03 0. -1.
        -11    1    3    3    0    0 -0.50709228761E+01 -0.41979987017E+01 -0.86464490137E+01  0.10867314881E+02  0.51100000000E-03 0.  1.
        -12    1    3    3    0    0 -0.15912845434E+02 -0.18008175957E+02  0.11399402015E+01  0.24058522706E+02  0.00000000000E+00 0.  1.
</event>
<event>
 7    1  0.2575978E-011  0.5052886E+02  0.7816164E-02  0.1300439E+00
        -11   -1    0    0    0    0  0.00000000000E+00  0.00000000000E+00  0.45593999997E+02  0.45594000000E+02  0.51100000000E-03 0. -1.
         11   -1    0    0    0    0 -0.00000000000E+00 -0.00000000000E+00 -0.45593999997E+02  0.45594000000E+02  0.51100000000E-03 0.  1.
    9900012    2    1    2    0    0 -0.15504156742E+02  0.12919577970E+02 -0.35296907641E+02  0.50528855147E+02  0.29999985703E+02 0.  0.
         12    1    1    2    0    0  0.15504156742E+02 -0.12919577970E+02  0.35296907641E+02  0.40659144853E+02  0.00000000000E+00 0. -1.
         11    1    3    3    0    0 -0.48683597288E+00 -0.14774325832E+01 -0.12256964934E+02  0.12355282512E+02  0.51100000000E-03 0. -1.
        -11    1    3    3    0    0  0.49606490825E+01  0.57519848719E+01 -0.10789655507E+02  0.13195076184E+02  0.51100000000E-03 0.  1.
         12    1    3    3    0    0 -0.19977969852E+02  0.86450256816E+01 -0.12250287200E+02  0.24978496450E+02  0.00000000000E+00 0. -1.
</event>
<event>
 7    1  0.2575978E-011  0.5052884E+02  0.7816164E-02  0.1300439E+00
        -11   -1    0    0    0    0  0.00000000000E+00  0.00000000000E+00  0.45593999997E+02  0.45594000000E+02  0.51100000000E-03 0.  1.
         11   -1    0    0    0    0 -0.00000000000E+00 -0.00000000000E+00 -0.45593999997E+02  0.45594000000E+02  0.51100000000E-03 0. -1.
    9900012    2    1    2    0    0 -0.30259674764E+02  0.19433853254E+02  0.18969569001E+02  0.50528842148E+02  0.29999946193E+02 0.  0.
         12    1    1    2    0    0  0.30259674764E+02 -0.19433853254E+02 -0.18969569001E+02  0.40659157852E+02  0.00000000000E+00 0. -1.
         11    1    3    3    0    0 -0.26068834452E+02  0.20466730237E+01  0.15439003277E+02  0.30366689358E+02  0.51100000000E-03 0.  1.
        -11    1    3    3    0    0 -0.79522036348E+00 -0.38038354661E+00 -0.11769954249E+01  0.14705052059E+01  0.51100000000E-03 0. -1.
        -12    1    3    3    0    0 -0.33956199490E+01  0.17767563777E+02  0.47075611492E+01  0.18691647584E+02  0.00000000000E+00 0.  1.
</event>
<event>
 7    1  0.2575978E-011  0.5052888E+02  0.7816164E-02  0.1300439E+00
        -11   -1    0    0    0    0  0.00000000000E+00  0.00000000000E+00  0.45593999997E+02  0.45594000000E+02  0.51100000000E-03 0. -1.
         11   -1    0    0    0    0 -0.00000000000E+00 -0.00000000000E+00 -0.45593999997E+02  0.45594000000E+02  0.51100000000E-03 0.  1.
    9900012    2    1    2    0    0  0.22434030389E+02  0.14072887385E+02  0.30851781346E+02  0.50528876902E+02  0.30000051832E+02 0.  0.
         12    1    1    2    0    0 -0.22434030389E+02 -0.14072887385E+02 -0.30851781346E+02  0.40659123098E+02  0.00000000000E+00 0. -1.
         11    1    3    3    0    0  0.11894578560E+02  0.12776393723E+02  0.12395277854E+02  0.21409347235E+02  0.51100000000E-03 0.  1.
        -11    1    3    3    0    0 -0.11879718191E+01  0.20212377362E+01  0.17136139962E+02  0.17295779025E+02  0.51100000000E-03 0. -1.
         12    1    3    3    0    0  0.11727423648E+02 -0.72474407449E+00  0.13203635307E+01  0.11823750643E+02  0.00000000000E+00 0. -1.
</event>
<event>
 7    1  0.2575978E-011  0.5052889E+02  0.7816164E-02  0.1300439E+00
        -11   -1    0    0    0    0  0.00000000000E+00  0.00000000000E+00  0.45593999997E+02  0.45594000000E+02  0.51100000000E-03 0.  1.
         11   -1    0    0    0    0 -0.00000000000E+00 -0.00000000000E+00 -0.45593999997E+02  0.45594000000E+02  0.51100000000E-03 0. -1.
    9900012    2    1    2    0    0 -0.55542471967E+01 -0.54699886298E+00  0.40274239705E+02  0.50528889662E+02  0.30000090617E+02 0.  0.
         12    1    1    2    0    0  0.55542471967E+01  0.54699886298E+00 -0.40274239705E+02  0.40659110338E+02  0.00000000000E+00 0. -1.
         11    1    3    3    0    0  0.74217139282E+01 -0.75481757269E+01  0.15346556386E+02  0.18643325551E+02  0.51100000000E-03 0. -1.
        -11    1    3    3    0    0  0.24674420647E+00 -0.14825858865E+01  0.10334422662E+02  0.10443142996E+02  0.51100000000E-03 0.  1.
        -12    1    3    3    0    0 -0.13222705331E+02  0.84837627505E+01  0.14593260657E+02  0.21442421115E+02  0.00000000000E+00 0.  1.
</event>
<event>
 7    1  0.2575978E-011  0.5052885E+02  0.7816164E-02  0.1300439E+00
        -11   -1    0    0    0    0  0.00000000000E+00  0.00000000000E+00  0.45593999997E+02  0.45594000000E+02  0.51100000000E-03 0. -1.
         11   -1    0    0    0    0 -0.00000000000E+00 -0.00000000000E+00 -0.45593999997E+02  0.45594000000E+02  0.51100000000E-03 0.  1.
    9900012    2    1    2    0    0  0.21261286299E+02 -0.27989464496E+02 -0.20438055733E+02  0.50528849247E+02  0.29999967770E+02 0.  0.
         12    1    1    2    0    0 -0.21261286299E+02  0.27989464496E+02  0.20438055733E+02  0.40659150753E+02  0.00000000000E+00 0. -1.
         11    1    3    3    0    0  0.15741783401E+01  0.13136033398E+01 -0.33157543905E+01  0.38984379718E+01  0.51100000000E-03 0. -1.
        -11    1    3    3    0    0  0.68913106006E+01 -0.61413919139E+00  0.47151603470E+01  0.83725782229E+01  0.51100000000E-03 0.  1.
         12    1    3    3    0    0  0.12795797358E+02 -0.28688928644E+02 -0.21837461690E+02  0.38257833052E+02  0.00000000000E+00 0. -1.
</event>
<event>
 7    1  0.2575978E-011  0.5052886E+02  0.7816164E-02  0.1300439E+00
        -11   -1    0    0    0    0  0.00000000000E+00  0.00000000000E+00  0.45593999997E+02  0.45594000000E+02  0.51100000000E-03 0.  1.
         11   -1    0    0    0    0 -0.00000000000E+00 -0.00000000000E+00 -0.45593999997E+02  0.45594000000E+02  0.51100000000E-03 0. -1.
    9900012    2    1    2    0    0  0.13902654461E+02  0.36219089208E+02  0.12167962848E+02  0.50528861495E+02  0.30000005001E+02 0.  0.
         12    1    1    2    0    0 -0.13902654461E+02 -0.36219089208E+02 -0.12167962848E+02  0.40659138505E+02  0.00000000000E+00 0. -1.
         11    1    3    3    0    0  0.18211973746E+01  0.11873472317E+02  0.36473256748E+01  0.12553847601E+02  0.51100000000E-03 0. -1.
        -11    1    3    3    0    0  0.12439969124E+02  0.28708747003E+02  0.37693156612E+01  0.31514325744E+02  0.51100000000E-03 0.  1.
         12    1    3    3    0    0 -0.35851203829E+00 -0.43631301125E+01  0.47513215124E+01  0.64606881502E+01  0.00000000000E+00 0. -1.
</event>
<event>
 7    1  0.2575978E-011  0.5052886E+02  0.7816164E-02  0.1300439E+00
        -11   -1    0    0    0    0  0.00000000000E+00  0.00000000000E+00  0.45593999997E+02  0.45594000000E+02  0.51100000000E-03 0. -1.
         11   -1    0    0    0    0 -0.00000000000E+00 -0.00000000000E+00 -0.45593999997E+02  0.45594000000E+02  0.51100000000E-03 0.  1.
    9900012    2    1    2    0    0 -0.37566218709E+02  0.14466927486E+02 -0.57142832931E+01  0.50528858192E+02  0.29999994962E+02 0.  0.
         12    1    1    2    0    0  0.37566218709E+02 -0.14466927486E+02  0.57142832931E+01  0.40659141808E+02  0.00000000000E+00 0. -1.
         11    1    3    3    0    0 -0.18441205565E+02 -0.20306831903E+01 -0.27293480860E+01  0.18752361935E+02  0.51100000000E-03 0.  1.
        -11    1    3    3    0    0 -0.44269447505E+01  0.92345163970E+01  0.71611309552E+01  0.12496236623E+02  0.51100000000E-03 0. -1.
         12    1    3    3    0    0 -0.14698068394E+02  0.72630942790E+01 -0.10146066162E+02  0.19280259635E+02  0.00000000000E+00 0. -1.
</event>
<event>
 7    1  0.2575978E-011  0.5052886E+02  0.7816164E-02  0.1300439E+00
        -11   -1    0    0    0    0  0.00000000000E+00  0.00000000000E+00  0.45593999997E+02  0.45594000000E+02  0.51100000000E-03 0. -1.
         11   -1    0    0    0    0 -0.00000000000E+00 -0.00000000000E+00 -0.45593999997E+02  0.45594000000E+02  0.51100000000E-03 0.  1.
    9900012    2    1    2    0    0  0.14291247695E+02  0.91142149353E+01 -0.36957497482E+02  0.50528864561E+02  0.30000014319E+02 0.  0.
         12    1    1    2    0    0 -0.14291247695E+02 -0.91142149353E+01  0.36957497482E+02  0.40659135439E+02  0.00000000000E+00 0. -1.
         11    1    3    3    0    0 -0.46578057775E-01  0.77726326222E+01 -0.22816024620E+02  0.24103671237E+02  0.51100000000E-03 0. -1.
        -11    1    3    3    0    0  0.20665464235E+01  0.75463679899E+00 -0.13966423710E+02  0.14138637923E+02  0.51100000000E-03 0.  1.
        -12    1    3    3    0    0  0.12271279329E+02  0.58694551407E+00 -0.17504915232E+00  0.12286555400E+02  0.00000000000E+00 0.  1.
</event>
<event>
 7    1  0.2575978E-011  0.5052885E+02  0.7816164E-02  0.1300439E+00
        -11   -1    0    0    0    0  0.00000000000E+00  0.00000000000E+00  0.45593999997E+02  0.45594000000E+02  0.51100000000E-03 0.  1.
         11   -1    0    0    0    0 -0.00000000000E+00 -0.00000000000E+00 -0.45593999997E+02  0.45594000000E+02  0.51100000000E-03 0. -1.
    9900012    2    1    2    0    0  0.14913387505E+02  0.33611537740E+02  0.17349975296E+02  0.50528852949E+02  0.29999979024E+02 0.  0.
         12    1    1    2    0    0 -0.14913387505E+02 -0.33611537740E+02 -0.17349975296E+02  0.40659147051E+02  0.00000000000E+00 0. -1.
         11    1    3    3    0    0  0.87747957541E+01  0.63103781187E+01  0.19085223917E+01  0.10975443978E+02  0.51100000000E-03 0. -1.
        -11    1    3    3    0    0  0.13672833482E+02  0.24576218949E+02  0.99142061616E+01  0.29819932886E+02  0.51100000000E-03 0.  1.
        -12    1    3    3    0    0 -0.75342417314E+01  0.27249406722E+01  0.55272467432E+01  0.97334760848E+01  0.00000000000E+00 0.  1.
</event>
<event>
 7    1  0.2575978E-011  0.5052886E+02  0.7816164E-02  0.1300439E+00
        -11   -1    0    0    0    0  0.00000000000E+00  0.00000000000E+00  0.45593999997E+02  0.45594000000E+02  0.51100000000E-03 0.  1.
         11   -1    0    0    0    0 -0.00000000000E+00 -0.00000000000E+00 -0.45593999997E+02  0.45594000000E+02  0.51100000000E-03 0. -1.
    9900012    2    1    2    0    0  0.25524214041E+01  0.33116851957E+02  0.23450471533E+02  0.50528863835E+02  0.30000012113E+02 0.  0.
         12    1    1    2    0    0 -0.25524214041E+01 -0.33116851957E+02 -0.23450471533E+02  0.40659136165E+02  0.00000000000E+00 0. -1.
         11    1    3    3    0    0  0.96281136382E+01  0.22365756699E+02  0.90323841146E+01  0.25971361305E+02  0.51100000000E-03 0. -1.
        -11    1    3    3    0    0 -0.21294120733E+01  0.10684589531E+02  0.16006145529E+02  0.19362116211E+02  0.51100000000E-03 0.  1.
        -12    1    3    3    0    0 -0.49462801608E+01  0.66505726620E-01 -0.15880581106E+01  0.51953863190E+01  0.00000000000E+00 0.  1.
</event>
<event>
 7    1  0.2575978E-011  0.5052886E+02  0.7816164E-02  0.1300439E+00
        -11   -1    0    0    0    0  0.00000000000E+00  0.00000000000E+00  0.45593999997E+02  0.45594000000E+02  0.51100000000E-03 0.  1.
         11   -1    0    0    0    0 -0.00000000000E+00 -0.00000000000E+00 -0.45593999997E+02  0.45594000000E+02  0.51100000000E-03 0. -1.
    9900012    2    1    2    0    0 -0.36414165005E+02 -0.79743500920E+00 -0.18070373737E+02  0.50528859298E+02  0.29999998322E+02 0.  0.
         12    1    1    2    0    0  0.36414165005E+02  0.79743500920E+00  0.18070373737E+02  0.40659140702E+02  0.00000000000E+00 0. -1.
         11    1    3    3    0    0 -0.32616948323E+01  0.77946435020E+01 -0.11995883534E+01  0.85342915922E+01  0.51100000000E-03 0. -1.
        -11    1    3    3    0    0 -0.26568003845E+02  0.11179421902E+01 -0.10072874623E+02  0.28435390387E+02  0.51100000000E-03 0.  1.
         12    1    3    3    0    0 -0.65844663278E+01 -0.97100207014E+01 -0.67979107606E+01  0.13559177318E+02  0.00000000000E+00 0. -1.
</event>
<event>
 7    1  0.2575978E-011  0.5052886E+02  0.7816164E-02  0.1300439E+00
        -11   -1    0    0    0    0  0.00000000000E+00  0.00000000000E+00  0.45593999997E+02  0.45594000000E+02  0.51100000000E-03 0.  1.
         11   -1    0    0    0    0 -0.00000000000E+00 -0.00000000000E+00 -0.45593999997E+02  0.45594000000E+02  0.51100000000E-03 0. -1.
    9900012    2    1    2    0    0 -0.17009019970E+02 -0.11043517048E+02  0.35240601655E+02  0.50528855467E+02  0.29999986678E+02 0.  0.
         12    1    1    2    0    0  0.17009019970E+02  0.11043517048E+02 -0.35240601655E+02  0.40659144533E+02  0.00000000000E+00 0. -1.
         11    1    3    3    0    0 -0.87087243264E+01 -0.14542202323E+02  0.19676160209E+02  0.25970537319E+02  0.51100000000E-03 0.  1.
        -11    1    3    3    0    0 -0.11960086636E+02 -0.14313370914E+01  0.13471710377E+02  0.18071507379E+02  0.51100000000E-03 0. -1.
         12    1    3    3    0    0  0.36597909919E+01  0.49300223665E+01  0.20927310693E+01  0.64868107701E+01  0.00000000000E+00 0. -1.
</event>
<event>
 7    1  0.2575978E-011  0.5052872E+02  0.7816164E-02  0.1300439E+00
        -11   -1    0    0    0    0  0.00000000000E+00  0.00000000000E+00  0.45593999997E+02  0.45594000000E+02  0.51100000000E-03 0. -1.
         11   -1    0    0    0    0 -0.00000000000E+00 -0.00000000000E+00 -0.45593999997E+02  0.45594000000E+02  0.51100000000E-03 0.  1.
    9900012    2    1    2    0    0  0.27235977358E+02 -0.12147778465E+02 -0.27637108365E+02  0.50528723776E+02  0.29999586387E+02 0.  0.
         12    1    1    2    0    0 -0.27235977358E+02  0.12147778465E+02  0.27637108365E+02  0.40659276224E+02  0.00000000000E+00 0. -1.
         11    1    3    3    0    0 -0.19946843749E+01  0.52812056381E+01 -0.49778088038E+01  0.75265184179E+01  0.51100000000E-03 0. -1.
        -11    1    3    3    0    0 -0.13336502877E+01  0.53062065973E-02 -0.53106758041E+00  0.14355083705E+01  0.51100000000E-03 0.  1.
        -12    1    3    3    0    0  0.30564312020E+02 -0.17434290310E+02 -0.22128231981E+02  0.41566696988E+02  0.00000000000E+00 0.  1.
</event>
<event>
 7    1  0.2575978E-011  0.5052886E+02  0.7816164E-02  0.1300439E+00
        -11   -1    0    0    0    0  0.00000000000E+00  0.00000000000E+00  0.45593999997E+02  0.45594000000E+02  0.51100000000E-03 0.  1.
         11   -1    0    0    0    0 -0.00000000000E+00 -0.00000000000E+00 -0.45593999997E+02  0.45594000000E+02  0.51100000000E-03 0. -1.
    9900012    2    1    2    0    0  0.16764477171E+02 -0.33867315181E+02  0.15004098271E+02  0.50528859609E+02  0.29999999269E+02 0.  0.
         12    1    1    2    0    0 -0.16764477171E+02  0.33867315181E+02 -0.15004098271E+02  0.40659140391E+02  0.00000000000E+00 0. -1.
         11    1    3    3    0    0  0.49275586959E+01 -0.10445780622E+01  0.40948071539E+01  0.64914885749E+01  0.51100000000E-03 0. -1.
        -11    1    3    3    0    0  0.16146887541E+02 -0.21450674081E+02  0.15542911664E+02  0.31023144571E+02  0.51100000000E-03 0.  1.
         12    1    3    3    0    0 -0.43099690656E+01 -0.11372063038E+02 -0.46336205474E+01  0.13014226464E+02  0.00000000000E+00 0. -1.
</event>
<event>
 7    1  0.2680779E-011  0.5052894E+02  0.7816164E-02  0.1300439E+00
        -11   -1    0    0    0    0  0.00000000000E+00  0.00000000000E+00  0.45593999997E+02  0.45594000000E+02  0.51100000000E-03 0. -1.
         11   -1    0    0    0    0 -0.00000000000E+00 -0.00000000000E+00 -0.45593999997E+02  0.45594000000E+02  0.51100000000E-03 0.  1.
    9900012    2    1    2    0    0  0.17761687903E+02  0.11842103853E+02 -0.34604139958E+02  0.50528936028E+02  0.30000231551E+02 0.  0.
         12    1    1    2    0    0 -0.17761687903E+02 -0.11842103853E+02  0.34604139958E+02  0.40659063972E+02  0.00000000000E+00 0. -1.
         11    1    3    3    0    0  0.47254334847E+01  0.90927117206E-01  0.43492443227E+01  0.64229211267E+01  0.51100000000E-03 0. -1.
        -11    1    3    3    0    0  0.58356987131E+01  0.11912400542E+01 -0.48327294834E+01  0.76700525981E+01  0.51100000000E-03 0.  1.
        -12    1    3    3    0    0  0.72005557046E+01  0.10559936681E+02 -0.34120654798E+02  0.36435962304E+02  0.00000000000E+00 0.  1.
</event>
<event>
 7    1  0.2575978E-011  0.5052886E+02  0.7816164E-02  0.1300439E+00
        -11   -1    0    0    0    0  0.00000000000E+00  0.00000000000E+00  0.45593999997E+02  0.45594000000E+02  0.51100000000E-03 0.  1.
         11   -1    0    0    0    0 -0.00000000000E+00 -0.00000000000E+00 -0.45593999997E+02  0.45594000000E+02  0.51100000000E-03 0. -1.
    9900012    2    1    2    0    0 -0.73404891967E+01 -0.24099969352E+02  0.31913548098E+02  0.50528857651E+02  0.29999993314E+02 0.  0.
         12    1    1    2    0    0  0.73404891967E+01  0.24099969352E+02 -0.31913548098E+02  0.40659142349E+02  0.00000000000E+00 0. -1.
         11    1    3    3    0    0  0.36043386707E+00 -0.18389766006E+01  0.40527629896E+01  0.44650459819E+01  0.51100000000E-03 0.  1.
        -11    1    3    3    0    0  0.33515691197E+01 -0.24668791558E+02  0.22457156620E+02  0.33527692676E+02  0.51100000000E-03 0. -1.
         12    1    3    3    0    0 -0.11052492183E+02  0.24077988059E+01  0.54036284878E+01  0.12536118992E+02  0.00000000000E+00 0. -1.
</event>
<event>
 7    1  0.2575978E-011  0.5052888E+02  0.7816164E-02  0.1300439E+00
        -11   -1    0    0    0    0  0.00000000000E+00  0.00000000000E+00  0.45593999997E+02  0.45594000000E+02  0.51100000000E-03 0. -1.
         11   -1    0    0    0    0 -0.00000000000E+00 -0.00000000000E+00 -0.45593999997E+02  0.45594000000E+02  0.51100000000E-03 0.  1.
    9900012    2    1    2    0    0  0.34276116280E+02 -0.21676941230E+02  0.29021046093E+01  0.50528878766E+02  0.30000057498E+02 0.  0.
         12    1    1    2    0    0 -0.34276116280E+02  0.21676941230E+02 -0.29021046093E+01  0.40659121234E+02  0.00000000000E+00 0. -1.
         11    1    3    3    0    0 -0.16366274869E+01 -0.71175976522E+01  0.27809480648E+01  0.78148844054E+01  0.51100000000E-03 0. -1.
        -11    1    3    3    0    0  0.24026349824E+02 -0.61698383279E+01  0.81327880396E+01  0.26105069094E+02  0.51100000000E-03 0.  1.
         12    1    3    3    0    0  0.11886393943E+02 -0.83895052501E+01 -0.80116314951E+01  0.16608925267E+02  0.00000000000E+00 0. -1.
</event>
<event>
 7    1  0.2575978E-011  0.5052886E+02  0.7816164E-02  0.1300439E+00
        -11   -1    0    0    0    0  0.00000000000E+00  0.00000000000E+00  0.45593999997E+02  0.45594000000E+02  0.51100000000E-03 0.  1.
         11   -1    0    0    0    0 -0.00000000000E+00 -0.00000000000E+00 -0.45593999997E+02  0.45594000000E+02  0.51100000000E-03 0. -1.
    9900012    2    1    2    0    0 -0.91619942337E+01  0.17267619355E+02  0.35651829070E+02  0.50528859176E+02  0.29999997951E+02 0.  0.
         12    1    1    2    0    0  0.91619942337E+01 -0.17267619355E+02 -0.35651829070E+02  0.40659140824E+02  0.00000000000E+00 0. -1.
         11    1    3    3    0    0 -0.10221375332E+02  0.15662906349E+02  0.78574731840E+01  0.20286523459E+02  0.51100000000E-03 0. -1.
        -11    1    3    3    0    0 -0.45869218390E+01  0.12248592600E+01  0.56184704754E+01  0.73557693621E+01  0.51100000000E-03 0.  1.
         12    1    3    3    0    0  0.56463029378E+01  0.37985374586E+00  0.22175885411E+02  0.22886566354E+02  0.00000000000E+00 0. -1.
</event>
<event>
 7    1  0.2575978E-011  0.5052891E+02  0.7816164E-02  0.1300439E+00
        -11   -1    0    0    0    0  0.00000000000E+00  0.00000000000E+00  0.45593999997E+02  0.45594000000E+02  0.51100000000E-03 0.  1.
         11   -1    0    0    0    0 -0.00000000000E+00 -0.00000000000E+00 -0.45593999997E+02  0.45594000000E+02  0.51100000000E-03 0. -1.
    9900012    2    1    2    0    0  0.25559589820E+02  0.18716238036E+01  0.31565267688E+02  0.50528908377E+02  0.30000147503E+02 0.  0.
         12    1    1    2    0    0 -0.25559589820E+02 -0.18716238036E+01 -0.31565267688E+02  0.40659091623E+02  0.00000000000E+00 0. -1.
         11    1    3    3    0    0  0.14649790127E+02 -0.17808876584E+01  0.15722463254E+02  0.21563482155E+02  0.51100000000E-03 0. -1.
        -11    1    3    3    0    0  0.14839038921E+02 -0.29623449491E+01  0.14861324145E+02  0.21209231936E+02  0.51100000000E-03 0.  1.
         12    1    3    3    0    0 -0.39292392283E+01  0.66148564111E+01  0.98148028862E+00  0.77561942865E+01  0.00000000000E+00 0. -1.
</event>
<event>
 7    1  0.2575978E-011  0.5052885E+02  0.7816164E-02  0.1300439E+00
        -11   -1    0    0    0    0  0.00000000000E+00  0.00000000000E+00  0.45593999997E+02  0.45594000000E+02  0.51100000000E-03 0. -1.
         11   -1    0    0    0    0 -0.00000000000E+00 -0.00000000000E+00 -0.45593999997E+02  0.45594000000E+02  0.51100000000E-03 0.  1.
    9900012    2    1    2    0    0  0.32421635974E+02  0.22656445665E+02 -0.94175208394E+01  0.50528847178E+02  0.29999961483E+02 0.  0.
         12    1    1    2    0    0 -0.32421635974E+02 -0.22656445665E+02  0.94175208394E+01  0.40659152822E+02  0.00000000000E+00 0. -1.
         11    1    3    3    0    0  0.19966536311E+02  0.18770056679E+02 -0.13211817956E+02  0.30422520178E+02  0.51100000000E-03 0. -1.
        -11    1    3    3    0    0  0.10917140924E+02  0.57195688914E+01 -0.31838814634E+01  0.12729278679E+02  0.51100000000E-03 0.  1.
         12    1    3    3    0    0  0.15379587388E+01 -0.18331799054E+01  0.69781785797E+01  0.73770483215E+01  0.00000000000E+00 0. -1.
</event>
<event>
 7    1  0.2575978E-011  0.5052886E+02  0.7816164E-02  0.1300439E+00
        -11   -1    0    0    0    0  0.00000000000E+00  0.00000000000E+00  0.45593999997E+02  0.45594000000E+02  0.51100000000E-03 0.  1.
         11   -1    0    0    0    0 -0.00000000000E+00 -0.00000000000E+00 -0.45593999997E+02  0.45594000000E+02  0.51100000000E-03 0. -1.
    9900012    2    1    2    0    0  0.36742040578E+02  0.17410196452E+02  0.27062356198E+00  0.50528859288E+02  0.29999998292E+02 0.  0.
         12    1    1    2    0    0 -0.36742040578E+02 -0.17410196452E+02 -0.27062356198E+00  0.40659140712E+02  0.00000000000E+00 0. -1.
         11    1    3    3    0    0  0.20076935823E+02  0.16424724831E+01 -0.35306733663E+01  0.20451081208E+02  0.51100000000E-03 0. -1.
        -11    1    3    3    0    0  0.21761692355E+01  0.49427275494E+01 -0.71302617972E+01  0.89446577200E+01  0.51100000000E-03 0.  1.
        -12    1    3    3    0    0  0.14488935519E+02  0.10824996420E+02  0.10931558725E+02  0.21133120360E+02  0.00000000000E+00 0.  1.
</event>
<event>
 7    1  0.2575978E-011  0.5052886E+02  0.7816164E-02  0.1300439E+00
        -11   -1    0    0    0    0  0.00000000000E+00  0.00000000000E+00  0.45593999997E+02  0.45594000000E+02  0.51100000000E-03 0. -1.
         11   -1    0    0    0    0 -0.00000000000E+00 -0.00000000000E+00 -0.45593999997E+02  0.45594000000E+02  0.51100000000E-03 0.  1.
    9900012    2    1    2    0    0 -0.96655325570E+01 -0.13193827427E+02 -0.37224533723E+02  0.50528861880E+02  0.30000006170E+02 0.  0.
         12    1    1    2    0    0  0.96655325570E+01  0.13193827427E+02  0.37224533723E+02  0.40659138120E+02  0.00000000000E+00 0. -1.
         11    1    3    3    0    0  0.65145111602E+01  0.20804120154E+00 -0.15111636961E+01  0.66907213942E+01  0.51100000000E-03 0. -1.
        -11    1    3    3    0    0  0.24334374380E+01  0.71472505482E-01 -0.38061027880E+01  0.45180908333E+01  0.51100000000E-03 0.  1.
        -12    1    3    3    0    0 -0.18613481155E+02 -0.13473341134E+02 -0.31907267239E+02  0.39320049652E+02  0.00000000000E+00 0.  1.
</event>
<event>
 7    1  0.2575978E-011  0.5052897E+02  0.7816164E-02  0.1300438E+00
        -11   -1    0    0    0    0  0.00000000000E+00  0.00000000000E+00  0.45593999997E+02  0.45594000000E+02  0.51100000000E-03 0. -1.
         11   -1    0    0    0    0 -0.00000000000E+00 -0.00000000000E+00 -0.45593999997E+02  0.45594000000E+02  0.51100000000E-03 0.  1.
    9900012    2    1    2    0    0  0.24169202134E+02  0.29549241275E+02 -0.13994588267E+02  0.50528972805E+02  0.30000343335E+02 0.  0.
         12    1    1    2    0    0 -0.24169202134E+02 -0.29549241275E+02  0.13994588267E+02  0.40659027195E+02  0.00000000000E+00 0. -1.
         11    1    3    3    0    0  0.20030065964E+02  0.10035431376E+02  0.28273530885E+01  0.22581128209E+02  0.51100000000E-03 0. -1.
        -11    1    3    3    0    0  0.12596907412E+01  0.54083816433E+01  0.32026040546E+00  0.55623717739E+01  0.51100000000E-03 0.  1.
         12    1    3    3    0    0  0.28794454285E+01  0.14105428255E+02 -0.17142201761E+02  0.22385472822E+02  0.00000000000E+00 0. -1.
</event>
<event>
 7    1  0.2575978E-011  0.5052894E+02  0.7816164E-02  0.1300438E+00
        -11   -1    0    0    0    0  0.00000000000E+00  0.00000000000E+00  0.45593999997E+02  0.45594000000E+02  0.51100000000E-03 0.  1.
         11   -1    0    0    0    0 -0.00000000000E+00 -0.00000000000E+00 -0.45593999997E+02  0.45594000000E+02  0.51100000000E-03 0. -1.
    9900012    2    1    2    0    0  0.13411533278E+02 -0.19640946323E+02  0.32977612134E+02  0.50528943206E+02  0.30000253369E+02 0.  0.
         12    1    1    2    0    0 -0.13411533278E+02  0.19640946323E+02 -0.32977612134E+02  0.40659056794E+02  0.00000000000E+00 0. -1.
         11    1    3    3    0    0 -0.12547086636E+01  0.58883221433E+00 -0.10146425947E+01  0.17177069201E+01  0.51100000000E-03 0. -1.
        -11    1    3    3    0    0 -0.17244131997E+01  0.24721013719E+00  0.18015213017E+02  0.18099243466E+02  0.51100000000E-03 0.  1.
        -12    1    3    3    0    0  0.16390655142E+02 -0.20476988674E+02  0.15977041711E+02  0.30711992820E+02  0.00000000000E+00 0.  1.
</event>
<event>
 7    1  0.2575978E-011  0.5052886E+02  0.7816164E-02  0.1300439E+00
        -11   -1    0    0    0    0  0.00000000000E+00  0.00000000000E+00  0.45593999997E+02  0.45594000000E+02  0.51100000000E-03 0. -1.
         11   -1    0    0    0    0 -0.00000000000E+00 -0.00000000000E+00 -0.45593999997E+02  0.45594000000E+02  0.51100000000E-03 0.  1.
    9900012    2    1    2    0    0 -0.50242798038E+01  0.10785585131E+02 -0.38879219340E+02  0.50528856740E+02  0.29999990547E+02 0.  0.
         12    1    1    2    0    0  0.50242798038E+01 -0.10785585131E+02  0.38879219340E+02  0.40659143260E+02  0.00000000000E+00 0. -1.
         11    1    3    3    0    0 -0.58401442158E+01 -0.78061259254E+01 -0.13354566029E+02  0.16534428340E+02  0.51100000000E-03 0. -1.
        -11    1    3    3    0    0 -0.16880345641E+01 -0.14436940296E+01 -0.31741406926E+01  0.38741299073E+01  0.51100000000E-03 0.  1.
        -12    1    3    3    0    0  0.25038989761E+01  0.20035405086E+02 -0.22350512618E+02  0.30120298493E+02  0.00000000000E+00 0.  1.
</event>
<event>
 7    1  0.2575978E-011  0.5052886E+02  0.7816164E-02  0.1300439E+00
        -11   -1    0    0    0    0  0.00000000000E+00  0.00000000000E+00  0.45593999997E+02  0.45594000000E+02  0.51100000000E-03 0.  1.
         11   -1    0    0    0    0 -0.00000000000E+00 -0.00000000000E+00 -0.45593999997E+02  0.45594000000E+02  0.51100000000E-03 0. -1.
    9900012    2    1    2    0    0 -0.40469832427E+02  0.74417067749E-01 -0.39183117342E+01  0.50528855377E+02  0.29999986405E+02 0.  0.
         12    1    1    2    0    0  0.40469832427E+02 -0.74417067749E-01  0.39183117342E+01  0.40659144623E+02  0.00000000000E+00 0. -1.
         11    1    3    3    0    0 -0.74397834179E+01  0.19789057774E+00 -0.77700024941E+01  0.10759297236E+02  0.51100000000E-03 0. -1.
        -11    1    3    3    0    0 -0.24432871852E+02  0.12583438854E+01 -0.73834852861E+01  0.25555126912E+02  0.51100000000E-03 0.  1.
        -12    1    3    3    0    0 -0.85971771575E+01 -0.13818173954E+01  0.11235176046E+02  0.14214431229E+02  0.00000000000E+00 0.  1.
</event>
<event>
 7    1  0.2575978E-011  0.5052887E+02  0.7816164E-02  0.1300439E+00
        -11   -1    0    0    0    0  0.00000000000E+00  0.00000000000E+00  0.45593999997E+02  0.45594000000E+02  0.51100000000E-03 0.  1.
         11   -1    0    0    0    0 -0.00000000000E+00 -0.00000000000E+00 -0.45593999997E+02  0.45594000000E+02  0.51100000000E-03 0. -1.
    9900012    2    1    2    0    0  0.35210329898E+02  0.44346072997E+01  0.19842682750E+02  0.50528866560E+02  0.30000020395E+02 0.  0.
         12    1    1    2    0    0 -0.35210329898E+02 -0.44346072997E+01 -0.19842682750E+02  0.40659133440E+02  0.00000000000E+00 0. -1.
         11    1    3    3    0    0  0.12313378407E+02  0.29152401421E+01  0.16094197661E+02  0.20472936075E+02  0.51100000000E-03 0. -1.
        -11    1    3    3    0    0  0.87794155179E+01  0.33719138347E+01  0.10670907066E+02  0.14223789847E+02  0.51100000000E-03 0.  1.
         12    1    3    3    0    0  0.14117535973E+02 -0.18525466770E+01 -0.69224219780E+01  0.15832140638E+02  0.00000000000E+00 0. -1.
</event>
<event>
 7    1  0.2575978E-011  0.5052885E+02  0.7816164E-02  0.1300439E+00
        -11   -1    0    0    0    0  0.00000000000E+00  0.00000000000E+00  0.45593999997E+02  0.45594000000E+02  0.51100000000E-03 0. -1.
         11   -1    0    0    0    0 -0.00000000000E+00 -0.00000000000E+00 -0.45593999997E+02  0.45594000000E+02  0.51100000000E-03 0.  1.
    9900012    2    1    2    0    0  0.70203554654E+01 -0.40015446982E+02 -0.16263137567E+01  0.50528852388E+02  0.29999977320E+02 0.  0.
         12    1    1    2    0    0 -0.70203554654E+01  0.40015446982E+02  0.16263137567E+01  0.40659147612E+02  0.00000000000E+00 0. -1.
         11    1    3    3    0    0 -0.20265434700E+01 -0.24090094306E+02 -0.79505389389E+00  0.24188254031E+02  0.51100000000E-03 0. -1.
        -11    1    3    3    0    0 -0.55191655459E+01 -0.78489767140E+01  0.66530058501E+00  0.96182248315E+01  0.51100000000E-03 0.  1.
         12    1    3    3    0    0  0.14566064481E+02 -0.80763759620E+01 -0.14965604478E+01  0.16722373526E+02  0.00000000000E+00 0. -1.
</event>
<event>
 7    1  0.2575978E-011  0.5052883E+02  0.7816164E-02  0.1300439E+00
        -11   -1    0    0    0    0  0.00000000000E+00  0.00000000000E+00  0.45593999997E+02  0.45594000000E+02  0.51100000000E-03 0.  1.
         11   -1    0    0    0    0 -0.00000000000E+00 -0.00000000000E+00 -0.45593999997E+02  0.45594000000E+02  0.51100000000E-03 0. -1.
    9900012    2    1    2    0    0  0.31486439200E+02 -0.23910414696E+02 -0.94902169200E+01  0.50528831272E+02  0.29999913135E+02 0.  0.
         12    1    1    2    0    0 -0.31486439200E+02  0.23910414696E+02  0.94902169200E+01  0.40659168728E+02  0.00000000000E+00 0. -1.
         11    1    3    3    0    0 -0.27122739979E+00 -0.70897383354E+01 -0.16658128079E+01  0.72878588446E+01  0.51100000000E-03 0. -1.
        -11    1    3    3    0    0  0.70128936934E+01 -0.70311406336E+01 -0.12767509188E+02  0.16174885091E+02  0.51100000000E-03 0.  1.
        -12    1    3    3    0    0  0.24744772906E+02 -0.97895357272E+01  0.49431050758E+01  0.27066087337E+02  0.00000000000E+00 0.  1.
</event>
<event>
 7    1  0.2575978E-011  0.5052886E+02  0.7816164E-02  0.1300439E+00
        -11   -1    0    0    0    0  0.00000000000E+00  0.00000000000E+00  0.45593999997E+02  0.45594000000E+02  0.51100000000E-03 0.  1.
         11   -1    0    0    0    0 -0.00000000000E+00 -0.00000000000E+00 -0.45593999997E+02  0.45594000000E+02  0.51100000000E-03 0. -1.
    9900012    2    1    2    0    0 -0.77564662483E+01  0.34523611489E+02  0.20028064633E+02  0.50528857217E+02  0.29999991995E+02 0.  0.
         12    1    1    2    0    0  0.77564662483E+01 -0.34523611489E+02 -0.20028064633E+02  0.40659142783E+02  0.00000000000E+00 0. -1.
         11    1    3    3    0    0 -0.60449901400E-01 -0.51408021544E+00  0.39579932833E+01  0.39916968510E+01  0.51100000000E-03 0. -1.
        -11    1    3    3    0    0 -0.79101299141E+01  0.31422705085E-02  0.64464575698E+01  0.10204262864E+02  0.51100000000E-03 0.  1.
         12    1    3    3    0    0  0.21411356720E+00  0.35034549434E+02  0.96236137802E+01  0.36332897502E+02  0.00000000000E+00 0. -1.
</event>
<event>
 7    1  0.2575978E-011  0.5052885E+02  0.7816164E-02  0.1300439E+00
        -11   -1    0    0    0    0  0.00000000000E+00  0.00000000000E+00  0.45593999997E+02  0.45594000000E+02  0.51100000000E-03 0.  1.
         11   -1    0    0    0    0 -0.00000000000E+00 -0.00000000000E+00 -0.45593999997E+02  0.45594000000E+02  0.51100000000E-03 0. -1.
    9900012    2    1    2    0    0 -0.36544250364E+02  0.61819207289E+01  0.16717289199E+02  0.50528854205E+02  0.29999982842E+02 0.  0.
         12    1    1    2    0    0  0.36544250364E+02 -0.61819207289E+01 -0.16717289199E+02  0.40659145795E+02  0.00000000000E+00 0. -1.
         11    1    3    3    0    0 -0.80288136011E+01  0.67076745531E+01  0.10947800944E+02  0.15142955178E+02  0.51100000000E-03 0. -1.
        -11    1    3    3    0    0 -0.15023498586E+02  0.83684805885E+01  0.81868024817E+01  0.19046278173E+02  0.51100000000E-03 0.  1.
         12    1    3    3    0    0 -0.13491938178E+02 -0.88942344128E+01 -0.24173142270E+01  0.16339620854E+02  0.00000000000E+00 0. -1.
</event>
<event>
 7    1  0.2575978E-011  0.5052883E+02  0.7816164E-02  0.1300439E+00
        -11   -1    0    0    0    0  0.00000000000E+00  0.00000000000E+00  0.45593999997E+02  0.45594000000E+02  0.51100000000E-03 0.  1.
         11   -1    0    0    0    0 -0.00000000000E+00 -0.00000000000E+00 -0.45593999997E+02  0.45594000000E+02  0.51100000000E-03 0. -1.
    9900012    2    1    2    0    0 -0.12331972085E+02 -0.63132058896E+01  0.38226091959E+02  0.50528828703E+02  0.29999905325E+02 0.  0.
         12    1    1    2    0    0  0.12331972085E+02  0.63132058896E+01 -0.38226091959E+02  0.40659171297E+02  0.00000000000E+00 0. -1.
         11    1    3    3    0    0 -0.90417929115E+00 -0.60911905009E+01  0.16947536985E+02  0.18031615347E+02  0.51100000000E-03 0. -1.
        -11    1    3    3    0    0 -0.12160977658E+02 -0.73490127065E+01  0.20964112014E+02  0.25325705482E+02  0.51100000000E-03 0.  1.
         12    1    3    3    0    0  0.73318486403E+00  0.71269973178E+01  0.31444296065E+00  0.71715078741E+01  0.00000000000E+00 0. -1.
</event>
<event>
 7    1  0.2575978E-011  0.5052888E+02  0.7816164E-02  0.1300439E+00
        -11   -1    0    0    0    0  0.00000000000E+00  0.00000000000E+00  0.45593999997E+02  0.45594000000E+02  0.51100000000E-03 0.  1.
         11   -1    0    0    0    0 -0.00000000000E+00 -0.00000000000E+00 -0.45593999997E+02  0.45594000000E+02  0.51100000000E-03 0. -1.
    9900012    2    1    2    0    0 -0.71651120003E+01  0.88468106524E+01  0.39032799250E+02  0.50528876719E+02  0.30000051275E+02 0.  0.
         12    1    1    2    0    0  0.71651120003E+01 -0.88468106524E+01 -0.39032799250E+02  0.40659123281E+02  0.00000000000E+00 0. -1.
         11    1    3    3    0    0  0.48176334723E+01 -0.37729502549E+01  0.37577382028E+01  0.71809012360E+01  0.51100000000E-03 0. -1.
        -11    1    3    3    0    0  0.30392281376E+01  0.56703046844E+01  0.30478926156E+01  0.71189123147E+01  0.51100000000E-03 0.  1.
        -12    1    3    3    0    0 -0.15021973610E+02  0.69494562229E+01  0.32227168431E+02  0.36229063168E+02  0.00000000000E+00 0.  1.
</event>
<event>
 7    1  0.2575978E-011  0.5052885E+02  0.7816164E-02  0.1300439E+00
        -11   -1    0    0    0    0  0.00000000000E+00  0.00000000000E+00  0.45593999997E+02  0.45594000000E+02  0.51100000000E-03 0.  1.
         11   -1    0    0    0    0 -0.00000000000E+00 -0.00000000000E+00 -0.45593999997E+02  0.45594000000E+02  0.51100000000E-03 0. -1.
    9900012    2    1    2    0    0  0.81317968806E+01 -0.18053680985E+01  0.39796741071E+02  0.50528854973E+02  0.29999985175E+02 0.  0.
         12    1    1    2    0    0 -0.81317968806E+01  0.18053680985E+01 -0.39796741071E+02  0.40659145027E+02  0.00000000000E+00 0. -1.
         11    1    3    3    0    0  0.22789505473E+01  0.29516261536E+01  0.10818341806E+02  0.11442999267E+02  0.51100000000E-03 0. -1.
        -11    1    3    3    0    0 -0.24766185426E+01 -0.16230787975E+01  0.29983862349E+02  0.30129719976E+02  0.51100000000E-03 0.  1.
         12    1    3    3    0    0  0.83294648759E+01 -0.31339154546E+01 -0.10054630837E+01  0.89561357296E+01  0.00000000000E+00 0. -1.
</event>
<event>
 7    1  0.2575978E-011  0.5052887E+02  0.7816164E-02  0.1300439E+00
        -11   -1    0    0    0    0  0.00000000000E+00  0.00000000000E+00  0.45593999997E+02  0.45594000000E+02  0.51100000000E-03 0.  1.
         11   -1    0    0    0    0 -0.00000000000E+00 -0.00000000000E+00 -0.45593999997E+02  0.45594000000E+02  0.51100000000E-03 0. -1.
    9900012    2    1    2    0    0  0.33115758796E+02 -0.15976313874E+02  0.17357086687E+02  0.50528873793E+02  0.30000042381E+02 0.  0.
         12    1    1    2    0    0 -0.33115758796E+02  0.15976313874E+02 -0.17357086687E+02  0.40659126207E+02  0.00000000000E+00 0. -1.
         11    1    3    3    0    0  0.97603487285E+01 -0.11264192232E+02  0.50854168078E+01  0.15748266517E+02  0.51100000000E-03 0. -1.
        -11    1    3    3    0    0  0.15154897457E+02 -0.11685237474E+02  0.14219535460E+02  0.23841369103E+02  0.51100000000E-03 0.  1.
        -12    1    3    3    0    0  0.82005126110E+01  0.69731158309E+01 -0.19478655808E+01  0.10939238173E+02  0.00000000000E+00 0.  1.
</event>
<event>
 7    1  0.2575978E-011  0.5052887E+02  0.7816164E-02  0.1300439E+00
        -11   -1    0    0    0    0  0.00000000000E+00  0.00000000000E+00  0.45593999997E+02  0.45594000000E+02  0.51100000000E-03 0.  1.
         11   -1    0    0    0    0 -0.00000000000E+00 -0.00000000000E+00 -0.45593999997E+02  0.45594000000E+02  0.51100000000E-03 0. -1.
    9900012    2    1    2    0    0  0.28898685971E+01 -0.30011920067E+02  0.27278167682E+02  0.50528866724E+02  0.30000020896E+02 0.  0.
         12    1    1    2    0    0 -0.28898685971E+01  0.30011920067E+02 -0.27278167682E+02  0.40659133276E+02  0.00000000000E+00 0. -1.
         11    1    3    3    0    0  0.55030348416E+01 -0.56932085814E+01  0.12827337762E+02  0.15074369331E+02  0.51100000000E-03 0. -1.
        -11    1    3    3    0    0  0.74034491753E+01 -0.13791141661E+02  0.10510287462E+01  0.15687935163E+02  0.51100000000E-03 0.  1.
        -12    1    3    3    0    0 -0.10016615420E+02 -0.10527569825E+02  0.13399801174E+02  0.19766562230E+02  0.00000000000E+00 0.  1.
</event>
<event>
 7    1  0.2575978E-011  0.5052886E+02  0.7816164E-02  0.1300439E+00
        -11   -1    0    0    0    0  0.00000000000E+00  0.00000000000E+00  0.45593999997E+02  0.45594000000E+02  0.51100000000E-03 0. -1.
         11   -1    0    0    0    0 -0.00000000000E+00 -0.00000000000E+00 -0.45593999997E+02  0.45594000000E+02  0.51100000000E-03 0.  1.
    9900012    2    1    2    0    0  0.21705874056E+02  0.21039771157E+02 -0.27190962911E+02  0.50528863229E+02  0.30000010272E+02 0.  0.
         12    1    1    2    0    0 -0.21705874056E+02 -0.21039771157E+02  0.27190962911E+02  0.40659136771E+02  0.00000000000E+00 0. -1.
         11    1    3    3    0    0  0.50020097478E-01  0.11262499697E+02 -0.31959243990E+01  0.11707276987E+02  0.51100000000E-03 0. -1.
        -11    1    3    3    0    0  0.88043285715E+01 -0.26730062789E+01 -0.40092985939E+00  0.92098810619E+01  0.51100000000E-03 0.  1.
        -12    1    3    3    0    0  0.12851525387E+02  0.12450277740E+02 -0.23594108653E+02  0.29611705180E+02  0.00000000000E+00 0.  1.
</event>
<event>
 7    1  0.2575978E-011  0.5052886E+02  0.7816164E-02  0.1300439E+00
        -11   -1    0    0    0    0  0.00000000000E+00  0.00000000000E+00  0.45593999997E+02  0.45594000000E+02  0.51100000000E-03 0. -1.
         11   -1    0    0    0    0 -0.00000000000E+00 -0.00000000000E+00 -0.45593999997E+02  0.45594000000E+02  0.51100000000E-03 0.  1.
    9900012    2    1    2    0    0  0.21430559217E+02  0.49946415400E+00 -0.34549202863E+02  0.50528858946E+02  0.29999997252E+02 0.  0.
         12    1    1    2    0    0 -0.21430559217E+02 -0.49946415400E+00  0.34549202863E+02  0.40659141054E+02  0.00000000000E+00 0. -1.
         11    1    3    3    0    0  0.62835146487E+01 -0.71849388750E+01 -0.25172158631E+01  0.98712855769E+01  0.51100000000E-03 0. -1.
        -11    1    3    3    0    0  0.11206431686E+02 -0.29351978150E+01 -0.24367483830E+02  0.26980988971E+02  0.51100000000E-03 0.  1.
         12    1    3    3    0    0  0.39406128816E+01  0.10619600844E+02 -0.76645031694E+01  0.13676584398E+02  0.00000000000E+00 0. -1.
</event>
<event>
 7    1  0.2575978E-011  0.5052885E+02  0.7816164E-02  0.1300439E+00
        -11   -1    0    0    0    0  0.00000000000E+00  0.00000000000E+00  0.45593999997E+02  0.45594000000E+02  0.51100000000E-03 0.  1.
         11   -1    0    0    0    0 -0.00000000000E+00 -0.00000000000E+00 -0.45593999997E+02  0.45594000000E+02  0.51100000000E-03 0. -1.
    9900012    2    1    2    0    0  0.18521857644E+01  0.31113205053E+02  0.26109463308E+02  0.50528853489E+02  0.29999980666E+02 0.  0.
         12    1    1    2    0    0 -0.18521857644E+01 -0.31113205053E+02 -0.26109463308E+02  0.40659146511E+02  0.00000000000E+00 0. -1.
         11    1    3    3    0    0 -0.90652681022E+01  0.67974935655E+01  0.68381582361E+01  0.13234251504E+02  0.51100000000E-03 0. -1.
        -11    1    3    3    0    0 -0.43735897093E+01  0.79893622394E+01  0.85368561641E+01  0.12483433397E+02  0.51100000000E-03 0.  1.
        -12    1    3    3    0    0  0.15291043576E+02  0.16326349248E+02  0.10734448908E+02  0.24811168589E+02  0.00000000000E+00 0.  1.
</event>
<event>
 7    1  0.2575978E-011  0.5052886E+02  0.7816164E-02  0.1300439E+00
        -11   -1    0    0    0    0  0.00000000000E+00  0.00000000000E+00  0.45593999997E+02  0.45594000000E+02  0.51100000000E-03 0.  1.
         11   -1    0    0    0    0 -0.00000000000E+00 -0.00000000000E+00 -0.45593999997E+02  0.45594000000E+02  0.51100000000E-03 0. -1.
    9900012    2    1    2    0    0  0.37658042502E+02  0.15327960408E+02 -0.30192218252E+00  0.50528859670E+02  0.29999999454E+02 0.  0.
         12    1    1    2    0    0 -0.37658042502E+02 -0.15327960408E+02  0.30192218252E+00  0.40659140330E+02  0.00000000000E+00 0. -1.
         11    1    3    3    0    0  0.17055590366E+02  0.18896175106E+02  0.48978075010E+01  0.25921942731E+02  0.51100000000E-03 0.  1.
        -11    1    3    3    0    0  0.48834947042E+00 -0.35830461745E+01  0.61745265872E+00  0.36685082991E+01  0.51100000000E-03 0. -1.
        -12    1    3    3    0    0  0.20114102665E+02  0.14831477201E-01 -0.58171823422E+01  0.20938408640E+02  0.00000000000E+00 0.  1.
</event>
<event>
 7    1  0.2575978E-011  0.5052884E+02  0.7816164E-02  0.1300439E+00
        -11   -1    0    0    0    0  0.00000000000E+00  0.00000000000E+00  0.45593999997E+02  0.45594000000E+02  0.51100000000E-03 0. -1.
         11   -1    0    0    0    0 -0.00000000000E+00 -0.00000000000E+00 -0.45593999997E+02  0.45594000000E+02  0.51100000000E-03 0.  1.
    9900012    2    1    2    0    0  0.40158503369E+02 -0.51706257809E+01 -0.37049060950E+01  0.50528842446E+02  0.29999947099E+02 0.  0.
         12    1    1    2    0    0 -0.40158503369E+02  0.51706257809E+01  0.37049060950E+01  0.40659157554E+02  0.00000000000E+00 0. -1.
         11    1    3    3    0    0  0.18859871278E+02 -0.92421315340E+01  0.79336266105E+01  0.22451150781E+02  0.51100000000E-03 0. -1.
        -11    1    3    3    0    0  0.12965512061E+01 -0.33762740106E+01  0.28753025947E+00  0.36280773333E+01  0.51100000000E-03 0.  1.
        -12    1    3    3    0    0  0.20002080885E+02  0.74477797638E+01 -0.11926062965E+02  0.24449614332E+02  0.00000000000E+00 0.  1.
</event>
<event>
 7    1  0.2575978E-011  0.5052885E+02  0.7816164E-02  0.1300439E+00
        -11   -1    0    0    0    0  0.00000000000E+00  0.00000000000E+00  0.45593999997E+02  0.45594000000E+02  0.51100000000E-03 0.  1.
         11   -1    0    0    0    0 -0.00000000000E+00 -0.00000000000E+00 -0.45593999997E+02  0.45594000000E+02  0.51100000000E-03 0. -1.
    9900012    2    1    2    0    0 -0.38263497759E+02 -0.12639894589E+02  0.54133376588E+01  0.50528850715E+02  0.29999972235E+02 0.  0.
         12    1    1    2    0    0  0.38263497759E+02  0.12639894589E+02 -0.54133376588E+01  0.40659149285E+02  0.00000000000E+00 0. -1.
         11    1    3    3    0    0  0.20914353535E+01 -0.24006115200E+01  0.41849340875E+01  0.52583943448E+01  0.51100000000E-03 0. -1.
        -11    1    3    3    0    0 -0.54244902803E+01 -0.87204530147E+01 -0.29045823770E+00  0.10274033377E+02  0.51100000000E-03 0.  1.
        -12    1    3    3    0    0 -0.34930442832E+02 -0.15188300538E+01  0.15188618091E+01  0.34996422994E+02  0.00000000000E+00 0.  1.
</event>
<event>
 7    1  0.2575978E-011  0.5052884E+02  0.7816164E-02  0.1300439E+00
        -11   -1    0    0    0    0  0.00000000000E+00  0.00000000000E+00  0.45593999997E+02  0.45594000000E+02  0.51100000000E-03 0.  1.
         11   -1    0    0    0    0 -0.00000000000E+00 -0.00000000000E+00 -0.45593999997E+02  0.45594000000E+02  0.51100000000E-03 0. -1.
    9900012    2    1    2    0    0 -0.15657638417E+02 -0.67476805852E+01  0.36911712144E+02  0.50528839562E+02  0.29999938334E+02 0.  0.
         12    1    1    2    0    0  0.15657638417E+02  0.67476805852E+01 -0.36911712144E+02  0.40659160438E+02  0.00000000000E+00 0. -1.
         11    1    3    3    0    0 -0.19253219119E+02 -0.30653715391E+01  0.24931493020E+02  0.31649048858E+02  0.51100000000E-03 0. -1.
        -11    1    3    3    0    0  0.22615408518E+01  0.21291309056E+01  0.12513657035E+02  0.12893385052E+02  0.51100000000E-03 0.  1.
        -12    1    3    3    0    0  0.13340398503E+01 -0.58114399518E+01 -0.53343791151E+00  0.59864056529E+01  0.00000000000E+00 0.  1.
</event>
<event>
 7    1  0.2575978E-011  0.5052886E+02  0.7816164E-02  0.1300439E+00
        -11   -1    0    0    0    0  0.00000000000E+00  0.00000000000E+00  0.45593999997E+02  0.45594000000E+02  0.51100000000E-03 0.  1.
         11   -1    0    0    0    0 -0.00000000000E+00 -0.00000000000E+00 -0.45593999997E+02  0.45594000000E+02  0.51100000000E-03 0. -1.
    9900012    2    1    2    0    0 -0.13837701469E+02  0.37926171731E+02  0.48258774834E+01  0.50528861081E+02  0.30000003743E+02 0.  0.
         12    1    1    2    0    0  0.13837701469E+02 -0.37926171731E+02 -0.48258774834E+01  0.40659138919E+02  0.00000000000E+00 0. -1.
         11    1    3    3    0    0  0.26491605990E+01  0.49876134009E+01  0.49380518044E+01  0.75019127694E+01  0.51100000000E-03 0. -1.
        -11    1    3    3    0    0 -0.33629762844E+01  0.12876860259E+02  0.10360658741E+02  0.16866131430E+02  0.51100000000E-03 0.  1.
         12    1    3    3    0    0 -0.13123885784E+02  0.20061698072E+02 -0.10472833062E+02  0.26160816882E+02  0.00000000000E+00 0. -1.
</event>
<event>
 7    1  0.2575978E-011  0.5052886E+02  0.7816164E-02  0.1300439E+00
        -11   -1    0    0    0    0  0.00000000000E+00  0.00000000000E+00  0.45593999997E+02  0.45594000000E+02  0.51100000000E-03 0. -1.
         11   -1    0    0    0    0 -0.00000000000E+00 -0.00000000000E+00 -0.45593999997E+02  0.45594000000E+02  0.51100000000E-03 0.  1.
    9900012    2    1    2    0    0  0.40429178355E+02  0.43115213876E+01 -0.24087245008E+00  0.50528859592E+02  0.29999999217E+02 0.  0.
         12    1    1    2    0    0 -0.40429178355E+02 -0.43115213876E+01  0.24087245008E+00  0.40659140408E+02  0.00000000000E+00 0. -1.
         11    1    3    3    0    0 -0.87017345680E+00 -0.33286764554E+01 -0.75947605144E-01  0.34413743025E+01  0.51100000000E-03 0. -1.
        -11    1    3    3    0    0  0.35968245092E+02 -0.91359600296E+00  0.39597308848E+01  0.36197082501E+02  0.51100000000E-03 0.  1.
         12    1    3    3    0    0  0.53311067204E+01  0.85537938459E+01 -0.41246557297E+01  0.10890402789E+02  0.00000000000E+00 0. -1.
</event>
<event>
 7    1  0.2575978E-011  0.5052886E+02  0.7816164E-02  0.1300439E+00
        -11   -1    0    0    0    0  0.00000000000E+00  0.00000000000E+00  0.45593999997E+02  0.45594000000E+02  0.51100000000E-03 0.  1.
         11   -1    0    0    0    0 -0.00000000000E+00 -0.00000000000E+00 -0.45593999997E+02  0.45594000000E+02  0.51100000000E-03 0. -1.
    9900012    2    1    2    0    0  0.23438598083E+02 -0.29401201709E+02  0.15471492399E+02  0.50528860571E+02  0.30000002193E+02 0.  0.
         12    1    1    2    0    0 -0.23438598083E+02  0.29401201709E+02 -0.15471492399E+02  0.40659139429E+02  0.00000000000E+00 0. -1.
         11    1    3    3    0    0  0.74455226984E+01 -0.47806317867E+01 -0.67257490839E+01  0.11114222849E+02  0.51100000000E-03 0. -1.
        -11    1    3    3    0    0  0.14598794694E+01 -0.83234096776E+01  0.24861469959E+00  0.84541236244E+01  0.51100000000E-03 0.  1.
         12    1    3    3    0    0  0.14533195915E+02 -0.16297160245E+02  0.21948626783E+02  0.30960514098E+02  0.00000000000E+00 0. -1.
</event>
<event>
 7    1  0.2575978E-011  0.5052886E+02  0.7816164E-02  0.1300439E+00
        -11   -1    0    0    0    0  0.00000000000E+00  0.00000000000E+00  0.45593999997E+02  0.45594000000E+02  0.51100000000E-03 0. -1.
         11   -1    0    0    0    0 -0.00000000000E+00 -0.00000000000E+00 -0.45593999997E+02  0.45594000000E+02  0.51100000000E-03 0.  1.
    9900012    2    1    2    0    0  0.27251225625E+02  0.27190094337E+02  0.13085685517E+02  0.50528859656E+02  0.29999999409E+02 0.  0.
         12    1    1    2    0    0 -0.27251225625E+02 -0.27190094337E+02 -0.13085685517E+02  0.40659140344E+02  0.00000000000E+00 0. -1.
         11    1    3    3    0    0 -0.14384433629E+01  0.87601943234E+01  0.95188711502E+01  0.13016106642E+02  0.51100000000E-03 0. -1.
        -11    1    3    3    0    0  0.85710939532E+01  0.14386321441E+02  0.27922313033E+01  0.16977233346E+02  0.51100000000E-03 0.  1.
        -12    1    3    3    0    0  0.20118575035E+02  0.40435785722E+01  0.77458306358E+00  0.20535519668E+02  0.00000000000E+00 0.  1.
</event>
<event>
 7    1  0.2575978E-011  0.5052885E+02  0.7816164E-02  0.1300439E+00
        -11   -1    0    0    0    0  0.00000000000E+00  0.00000000000E+00  0.45593999997E+02  0.45594000000E+02  0.51100000000E-03 0.  1.
         11   -1    0    0    0    0 -0.00000000000E+00 -0.00000000000E+00 -0.45593999997E+02  0.45594000000E+02  0.51100000000E-03 0. -1.
    9900012    2    1    2    0    0 -0.21470579690E+02  0.18888972260E+02  0.28903065895E+02  0.50528852402E+02  0.29999977362E+02 0.  0.
         12    1    1    2    0    0  0.21470579690E+02 -0.18888972260E+02 -0.28903065895E+02  0.40659147598E+02  0.00000000000E+00 0. -1.
         11    1    3    3    0    0  0.27561364004E+01 -0.67688841479E+00  0.11853134991E+02  0.12188161271E+02  0.51100000000E-03 0. -1.
        -11    1    3    3    0    0 -0.72412358310E+01  0.82090393254E+01  0.13859056471E+02  0.17660613509E+02  0.51100000000E-03 0.  1.
         12    1    3    3    0    0 -0.16985480259E+02  0.11356821349E+02  0.31908744327E+01  0.20680077622E+02  0.00000000000E+00 0. -1.
</event>
<event>
 7    1  0.2575978E-011  0.5052886E+02  0.7816164E-02  0.1300439E+00
        -11   -1    0    0    0    0  0.00000000000E+00  0.00000000000E+00  0.45593999997E+02  0.45594000000E+02  0.51100000000E-03 0.  1.
         11   -1    0    0    0    0 -0.00000000000E+00 -0.00000000000E+00 -0.45593999997E+02  0.45594000000E+02  0.51100000000E-03 0. -1.
    9900012    2    1    2    0    0 -0.16866585700E+02  0.21287374113E+02  0.30257759627E+02  0.50528855550E+02  0.29999986929E+02 0.  0.
         12    1    1    2    0    0  0.16866585700E+02 -0.21287374113E+02 -0.30257759627E+02  0.40659144450E+02  0.00000000000E+00 0. -1.
         11    1    3    3    0    0  0.89432770767E-01  0.11720154516E+02  0.83890184681E+01  0.14413384447E+02  0.51100000000E-03 0. -1.
        -11    1    3    3    0    0  0.90589493552E+00  0.66863091930E+01  0.15550454797E+02  0.16951224762E+02  0.51100000000E-03 0.  1.
         12    1    3    3    0    0 -0.17861913406E+02  0.28809104040E+01  0.63182863615E+01  0.19164246341E+02  0.00000000000E+00 0. -1.
</event>
<event>
 7    1  0.2575978E-011  0.5052880E+02  0.7816164E-02  0.1300439E+00
        -11   -1    0    0    0    0  0.00000000000E+00  0.00000000000E+00  0.45593999997E+02  0.45594000000E+02  0.51100000000E-03 0. -1.
         11   -1    0    0    0    0 -0.00000000000E+00 -0.00000000000E+00 -0.45593999997E+02  0.45594000000E+02  0.51100000000E-03 0.  1.
    9900012    2    1    2    0    0 -0.32866910976E+02  0.99535269299E-01 -0.23935884743E+02  0.50528802728E+02  0.29999826372E+02 0.  0.
         12    1    1    2    0    0  0.32866910976E+02 -0.99535269299E-01  0.23935884743E+02  0.40659197272E+02  0.00000000000E+00 0. -1.
         11    1    3    3    0    0 -0.24330123556E+02 -0.76049346933E+01 -0.15782535907E+02  0.29981300570E+02  0.51100000000E-03 0. -1.
        -11    1    3    3    0    0 -0.90502843645E+01  0.38458870510E+00 -0.94562120539E+01  0.13094865491E+02  0.51100000000E-03 0.  1.
         12    1    3    3    0    0  0.51349694494E+00  0.73198812575E+01  0.13028632176E+01  0.74526366677E+01  0.00000000000E+00 0. -1.
</event>
<event>
 7    1  0.2575978E-011  0.5052888E+02  0.7816164E-02  0.1300439E+00
        -11   -1    0    0    0    0  0.00000000000E+00  0.00000000000E+00  0.45593999997E+02  0.45594000000E+02  0.51100000000E-03 0.  1.
         11   -1    0    0    0    0 -0.00000000000E+00 -0.00000000000E+00 -0.45593999997E+02  0.45594000000E+02  0.51100000000E-03 0. -1.
    9900012    2    1    2    0    0 -0.41833121880E+00  0.38621541454E+02  0.12702989699E+02  0.50528875408E+02  0.30000047289E+02 0.  0.
         12    1    1    2    0    0  0.41833121880E+00 -0.38621541454E+02 -0.12702989699E+02  0.40659124592E+02  0.00000000000E+00 0. -1.
         11    1    3    3    0    0 -0.32336465823E+01  0.19961997595E+01  0.13535274106E+01  0.40340203781E+01  0.51100000000E-03 0. -1.
        -11    1    3    3    0    0 -0.43199364491E+01  0.34334105024E+02  0.15511820554E+02  0.37922410207E+02  0.51100000000E-03 0.  1.
         12    1    3    3    0    0  0.71352518126E+01  0.22912366709E+01 -0.41623582658E+01  0.85724448230E+01  0.00000000000E+00 0. -1.
</event>
<event>
 7    1  0.2575978E-011  0.5052886E+02  0.7816164E-02  0.1300439E+00
        -11   -1    0    0    0    0  0.00000000000E+00  0.00000000000E+00  0.45593999997E+02  0.45594000000E+02  0.51100000000E-03 0. -1.
         11   -1    0    0    0    0 -0.00000000000E+00 -0.00000000000E+00 -0.45593999997E+02  0.45594000000E+02  0.51100000000E-03 0.  1.
    9900012    2    1    2    0    0  0.17959123264E+02 -0.57114193599E+01  0.36027983936E+02  0.50528855321E+02  0.29999986235E+02 0.  0.
         12    1    1    2    0    0 -0.17959123264E+02  0.57114193599E+01 -0.36027983936E+02  0.40659144679E+02  0.00000000000E+00 0. -1.
         11    1    3    3    0    0  0.15502753476E+02 -0.83108664319E+01  0.28930023280E+02  0.33857822042E+02  0.51100000000E-03 0. -1.
        -11    1    3    3    0    0  0.18163953195E+01 -0.29175270749E+01 -0.33748025709E+01  0.48166948048E+01  0.51100000000E-03 0.  1.
        -12    1    3    3    0    0  0.63997446788E+00  0.55169741469E+01  0.10472763227E+02  0.11854338475E+02  0.00000000000E+00 0.  1.
</event>
<event>
 7    1  0.2575978E-011  0.5052886E+02  0.7816164E-02  0.1300439E+00
        -11   -1    0    0    0    0  0.00000000000E+00  0.00000000000E+00  0.45593999997E+02  0.45594000000E+02  0.51100000000E-03 0. -1.
         11   -1    0    0    0    0 -0.00000000000E+00 -0.00000000000E+00 -0.45593999997E+02  0.45594000000E+02  0.51100000000E-03 0.  1.
    9900012    2    1    2    0    0 -0.39477266465E+01  0.37817466832E+02 -0.14402092868E+02  0.50528860532E+02  0.30000002075E+02 0.  0.
         12    1    1    2    0    0  0.39477266465E+01 -0.37817466832E+02  0.14402092868E+02  0.40659139468E+02  0.00000000000E+00 0. -1.
         11    1    3    3    0    0  0.30049482097E+01  0.67317646933E+01 -0.79234001025E+01  0.10822506136E+02  0.51100000000E-03 0. -1.
        -11    1    3    3    0    0 -0.40653675700E+01  0.25798918989E+02 -0.14345797983E+02  0.29797875000E+02  0.51100000000E-03 0.  1.
         12    1    3    3    0    0 -0.28873072862E+01  0.52867831499E+01  0.78671052177E+01  0.99084793962E+01  0.00000000000E+00 0. -1.
</event>
<event>
 7    1  0.2575978E-011  0.5052886E+02  0.7816164E-02  0.1300439E+00
        -11   -1    0    0    0    0  0.00000000000E+00  0.00000000000E+00  0.45593999997E+02  0.45594000000E+02  0.51100000000E-03 0.  1.
         11   -1    0    0    0    0 -0.00000000000E+00 -0.00000000000E+00 -0.45593999997E+02  0.45594000000E+02  0.51100000000E-03 0. -1.
    9900012    2    1    2    0    0 -0.12931740354E+02 -0.12914513689E+02  0.36320118077E+02  0.50528861426E+02  0.30000004792E+02 0.  0.
         12    1    1    2    0    0  0.12931740354E+02  0.12914513689E+02 -0.36320118077E+02  0.40659138574E+02  0.00000000000E+00 0. -1.
         11    1    3    3    0    0 -0.96543738162E+01 -0.83780371090E+01  0.17495572566E+02  0.21667798672E+02  0.51100000000E-03 0. -1.
        -11    1    3    3    0    0  0.81411736610E+01 -0.55941932836E+01  0.11898255307E+02  0.15464222796E+02  0.51100000000E-03 0.  1.
         12    1    3    3    0    0 -0.11418540199E+02  0.10577167034E+01  0.69262902038E+01  0.13396839959E+02  0.00000000000E+00 0. -1.
</event>
<event>
 7    1  0.2575978E-011  0.5052885E+02  0.7816164E-02  0.1300439E+00
        -11   -1    0    0    0    0  0.00000000000E+00  0.00000000000E+00  0.45593999997E+02  0.45594000000E+02  0.51100000000E-03 0. -1.
         11   -1    0    0    0    0 -0.00000000000E+00 -0.00000000000E+00 -0.45593999997E+02  0.45594000000E+02  0.51100000000E-03 0.  1.
    9900012    2    1    2    0    0 -0.20043607185E+02 -0.34565348818E+02  0.75270687156E+01  0.50528852304E+02  0.29999977063E+02 0.  0.
         12    1    1    2    0    0  0.20043607185E+02  0.34565348818E+02 -0.75270687156E+01  0.40659147696E+02  0.00000000000E+00 0. -1.
         11    1    3    3    0    0 -0.17136283381E+02 -0.31649466280E+02  0.50269652612E+01  0.36340216069E+02  0.51100000000E-03 0. -1.
        -11    1    3    3    0    0 -0.70023876007E+01 -0.47287156990E+01  0.41529926195E+01  0.94149632093E+01  0.51100000000E-03 0.  1.
        -12    1    3    3    0    0  0.40950637963E+01  0.18128331610E+01 -0.16528891650E+01  0.47736730258E+01  0.00000000000E+00 0.  1.
</event>
<event>
 7    1  0.2575978E-011  0.5052886E+02  0.7816164E-02  0.1300439E+00
        -11   -1    0    0    0    0  0.00000000000E+00  0.00000000000E+00  0.45593999997E+02  0.45594000000E+02  0.51100000000E-03 0.  1.
         11   -1    0    0    0    0 -0.00000000000E+00 -0.00000000000E+00 -0.45593999997E+02  0.45594000000E+02  0.51100000000E-03 0. -1.
    9900012    2    1    2    0    0 -0.19158695761E+01  0.74169206129E+00  0.40607207528E+02  0.50528856298E+02  0.29999989204E+02 0.  0.
         12    1    1    2    0    0  0.19158695761E+01 -0.74169206129E+00 -0.40607207528E+02  0.40659143702E+02  0.00000000000E+00 0. -1.
         11    1    3    3    0    0  0.79202027740E+00  0.41935485345E+01  0.18592308731E+02  0.19075824744E+02  0.51100000000E-03 0. -1.
        -11    1    3    3    0    0 -0.55538255681E+01 -0.71872993067E+00  0.25549234075E+02  0.26155781641E+02  0.51100000000E-03 0.  1.
         12    1    3    3    0    0  0.28459357146E+01 -0.27331265425E+01 -0.35343352785E+01  0.52972499138E+01  0.00000000000E+00 0. -1.
</event>
<event>
 7    1  0.2575978E-011  0.5052886E+02  0.7816164E-02  0.1300439E+00
        -11   -1    0    0    0    0  0.00000000000E+00  0.00000000000E+00  0.45593999997E+02  0.45594000000E+02  0.51100000000E-03 0.  1.
         11   -1    0    0    0    0 -0.00000000000E+00 -0.00000000000E+00 -0.45593999997E+02  0.45594000000E+02  0.51100000000E-03 0. -1.
    9900012    2    1    2    0    0 -0.48613036340E+01  0.20848447821E+01  0.40313608556E+02  0.50528857294E+02  0.29999992230E+02 0.  0.
         12    1    1    2    0    0  0.48613036340E+01 -0.20848447821E+01 -0.40313608556E+02  0.40659142706E+02  0.00000000000E+00 0. -1.
         11    1    3    3    0    0 -0.50043987827E+01  0.34838286121E+01  0.18136665891E+02  0.19134255117E+02  0.51100000000E-03 0.  1.
        -11    1    3    3    0    0  0.93937419629E+01  0.50422650593E+01  0.13305588560E+02  0.17050088333E+02  0.51100000000E-03 0. -1.
         12    1    3    3    0    0 -0.92506468143E+01 -0.64412488893E+01  0.88713541054E+01  0.14344513843E+02  0.00000000000E+00 0. -1.
</event>
<event>
 7    1  0.2575978E-011  0.5052886E+02  0.7816164E-02  0.1300439E+00
        -11   -1    0    0    0    0  0.00000000000E+00  0.00000000000E+00  0.45593999997E+02  0.45594000000E+02  0.51100000000E-03 0.  1.
         11   -1    0    0    0    0 -0.00000000000E+00 -0.00000000000E+00 -0.45593999997E+02  0.45594000000E+02  0.51100000000E-03 0. -1.
    9900012    2    1    2    0    0 -0.16979383007E+02 -0.16851097172E+02  0.32877151655E+02  0.50528855591E+02  0.29999987053E+02 0.  0.
         12    1    1    2    0    0  0.16979383007E+02  0.16851097172E+02 -0.32877151655E+02  0.40659144409E+02  0.00000000000E+00 0. -1.
         11    1    3    3    0    0  0.46372069233E+01 -0.32190074509E+01  0.13595363435E+02  0.14720720234E+02  0.51100000000E-03 0. -1.
        -11    1    3    3    0    0 -0.75118373239E+01  0.22693521681E+01  0.12739427070E+01  0.79498798434E+01  0.51100000000E-03 0.  1.
        -12    1    3    3    0    0 -0.14104752606E+02 -0.15901441889E+02  0.18007845512E+02  0.27858255513E+02  0.00000000000E+00 0.  1.
</event>
<event>
 7    1  0.2575978E-011  0.5052885E+02  0.7816164E-02  0.1300439E+00
        -11   -1    0    0    0    0  0.00000000000E+00  0.00000000000E+00  0.45593999997E+02  0.45594000000E+02  0.51100000000E-03 0. -1.
         11   -1    0    0    0    0 -0.00000000000E+00 -0.00000000000E+00 -0.45593999997E+02  0.45594000000E+02  0.51100000000E-03 0.  1.
    9900012    2    1    2    0    0  0.35580118775E+02  0.19208477961E+02 -0.42726654013E+01  0.50528854076E+02  0.29999982450E+02 0.  0.
         12    1    1    2    0    0 -0.35580118775E+02 -0.19208477961E+02  0.42726654013E+01  0.40659145924E+02  0.00000000000E+00 0. -1.
         11    1    3    3    0    0  0.79967455928E+01 -0.48658588328E+01  0.54715667138E+01  0.10842627210E+02  0.51100000000E-03 0. -1.
        -11    1    3    3    0    0  0.33136413848E+00 -0.65061722449E+00 -0.19375318380E+01  0.20705397484E+01  0.51100000000E-03 0.  1.
        -12    1    3    3    0    0  0.27252009044E+02  0.24724954018E+02 -0.78067002770E+01  0.37615687118E+02  0.00000000000E+00 0.  1.
</event>
<event>
 7    1  0.2575978E-011  0.5052886E+02  0.7816164E-02  0.1300439E+00
        -11   -1    0    0    0    0  0.00000000000E+00  0.00000000000E+00  0.45593999997E+02  0.45594000000E+02  0.51100000000E-03 0.  1.
         11   -1    0    0    0    0 -0.00000000000E+00 -0.00000000000E+00 -0.45593999997E+02  0.45594000000E+02  0.51100000000E-03 0. -1.
    9900012    2    1    2    0    0 -0.23455213456E+02  0.69935331316E+01  0.32467052506E+02  0.50528855366E+02  0.29999986371E+02 0.  0.
         12    1    1    2    0    0  0.23455213456E+02 -0.69935331316E+01 -0.32467052506E+02  0.40659144634E+02  0.00000000000E+00 0. -1.
         11    1    3    3    0    0 -0.10183374710E+02  0.12409244523E+02  0.12460531278E+02  0.20321301880E+02  0.51100000000E-03 0. -1.
        -11    1    3    3    0    0 -0.13831519605E+02  0.30372051388E+01  0.12467385902E+02  0.18867200671E+02  0.51100000000E-03 0.  1.
         12    1    3    3    0    0  0.55968085943E+00 -0.84529165298E+01  0.75391353253E+01  0.11340352815E+02  0.00000000000E+00 0. -1.
</event>
<event>
 7    1  0.2575978E-011  0.5052884E+02  0.7816164E-02  0.1300439E+00
        -11   -1    0    0    0    0  0.00000000000E+00  0.00000000000E+00  0.45593999997E+02  0.45594000000E+02  0.51100000000E-03 0.  1.
         11   -1    0    0    0    0 -0.00000000000E+00 -0.00000000000E+00 -0.45593999997E+02  0.45594000000E+02  0.51100000000E-03 0. -1.
    9900012    2    1    2    0    0  0.20012395017E+02 -0.28082799915E+01  0.35281511764E+02  0.50528837893E+02  0.29999933261E+02 0.  0.
         12    1    1    2    0    0 -0.20012395017E+02  0.28082799915E+01 -0.35281511764E+02  0.40659162107E+02  0.00000000000E+00 0. -1.
         11    1    3    3    0    0  0.54433143843E+00  0.83690605201E+01  0.30177487315E+01  0.89131519885E+01  0.51100000000E-03 0. -1.
        -11    1    3    3    0    0 -0.12670616592E+01 -0.65444386195E+00  0.75468752090E+01  0.76804340827E+01  0.51100000000E-03 0.  1.
        -12    1    3    3    0    0  0.20735125238E+02 -0.10522896650E+02  0.24716887824E+02  0.33935251822E+02  0.00000000000E+00 0.  1.
</event>
<event>
 7    1  0.2575978E-011  0.5052886E+02  0.7816164E-02  0.1300439E+00
        -11   -1    0    0    0    0  0.00000000000E+00  0.00000000000E+00  0.45593999997E+02  0.45594000000E+02  0.51100000000E-03 0.  1.
         11   -1    0    0    0    0 -0.00000000000E+00 -0.00000000000E+00 -0.45593999997E+02  0.45594000000E+02  0.51100000000E-03 0. -1.
    9900012    2    1    2    0    0  0.14604195855E+01  0.11823241596E+02  0.38874714746E+02  0.50528864325E+02  0.30000013603E+02 0.  0.
         12    1    1    2    0    0 -0.14604195855E+01 -0.11823241596E+02 -0.38874714746E+02  0.40659135675E+02  0.00000000000E+00 0. -1.
         11    1    3    3    0    0  0.26729667494E+01 -0.35320112668E+01  0.53781438629E+01  0.69673729987E+01  0.51100000000E-03 0. -1.
        -11    1    3    3    0    0 -0.91594633973E+01  0.16692553052E+02  0.27789315220E+02  0.33686542384E+02  0.51100000000E-03 0.  1.
         12    1    3    3    0    0  0.79469162334E+01 -0.13373001891E+01  0.57072556636E+01  0.98749489430E+01  0.00000000000E+00 0. -1.
</event>
<event>
 7    1  0.2575978E-011  0.5052883E+02  0.7816164E-02  0.1300439E+00
        -11   -1    0    0    0    0  0.00000000000E+00  0.00000000000E+00  0.45593999997E+02  0.45594000000E+02  0.51100000000E-03 0.  1.
         11   -1    0    0    0    0 -0.00000000000E+00 -0.00000000000E+00 -0.45593999997E+02  0.45594000000E+02  0.51100000000E-03 0. -1.
    9900012    2    1    2    0    0  0.26750436570E+02  0.94930074484E+01  0.29111253105E+02  0.50528830008E+02  0.29999909292E+02 0.  0.
         12    1    1    2    0    0 -0.26750436570E+02 -0.94930074484E+01 -0.29111253105E+02  0.40659169992E+02  0.00000000000E+00 0. -1.
         11    1    3    3    0    0  0.79263473963E+00 -0.18458074537E+01  0.11955602488E+02  0.12123188776E+02  0.51100000000E-03 0. -1.
        -11    1    3    3    0    0  0.79301927246E+01  0.55098795680E+01  0.16891971356E+02  0.19457271804E+02  0.51100000000E-03 0.  1.
        -12    1    3    3    0    0  0.18027609106E+02  0.58289353340E+01  0.26367926047E+00  0.18948369427E+02  0.00000000000E+00 0.  1.
</event>
<event>
 7    1  0.2575978E-011  0.5052886E+02  0.7816164E-02  0.1300439E+00
        -11   -1    0    0    0    0  0.00000000000E+00  0.00000000000E+00  0.45593999997E+02  0.45594000000E+02  0.51100000000E-03 0.  1.
         11   -1    0    0    0    0 -0.00000000000E+00 -0.00000000000E+00 -0.45593999997E+02  0.45594000000E+02  0.51100000000E-03 0. -1.
    9900012    2    1    2    0    0 -0.19027854190E+02 -0.15695124748E+01  0.35897677053E+02  0.50528858073E+02  0.29999994598E+02 0.  0.
         12    1    1    2    0    0  0.19027854190E+02  0.15695124748E+01 -0.35897677053E+02  0.40659141927E+02  0.00000000000E+00 0. -1.
         11    1    3    3    0    0 -0.10441739791E+02  0.74629770547E+01  0.11663650128E+02  0.17342626414E+02  0.51100000000E-03 0. -1.
        -11    1    3    3    0    0  0.50334385005E+01  0.14553235207E+01  0.78582138156E+01  0.94448395604E+01  0.51100000000E-03 0.  1.
        -12    1    3    3    0    0 -0.13619552900E+02 -0.10487813050E+02  0.16375813109E+02  0.23741392098E+02  0.00000000000E+00 0.  1.
</event>
<event>
 7    1  0.2575978E-011  0.5052885E+02  0.7816164E-02  0.1300439E+00
        -11   -1    0    0    0    0  0.00000000000E+00  0.00000000000E+00  0.45593999997E+02  0.45594000000E+02  0.51100000000E-03 0.  1.
         11   -1    0    0    0    0 -0.00000000000E+00 -0.00000000000E+00 -0.45593999997E+02  0.45594000000E+02  0.51100000000E-03 0. -1.
    9900012    2    1    2    0    0  0.12624107022E+02  0.14619775449E+02  0.35777932033E+02  0.50528851794E+02  0.29999975512E+02 0.  0.
         12    1    1    2    0    0 -0.12624107022E+02 -0.14619775449E+02 -0.35777932033E+02  0.40659148206E+02  0.00000000000E+00 0. -1.
         11    1    3    3    0    0 -0.56981764922E+01  0.29644449706E+01  0.32610187795E+01  0.72035680785E+01  0.51100000000E-03 0. -1.
        -11    1    3    3    0    0  0.35850082790E+00  0.79544410552E+01  0.28705998619E+01  0.84641596849E+01  0.51100000000E-03 0.  1.
        -12    1    3    3    0    0  0.17963782686E+02  0.37008894232E+01  0.29646313392E+02  0.34861124030E+02  0.00000000000E+00 0.  1.
</event>
<event>
 7    1  0.2575978E-011  0.5052886E+02  0.7816164E-02  0.1300439E+00
        -11   -1    0    0    0    0  0.00000000000E+00  0.00000000000E+00  0.45593999997E+02  0.45594000000E+02  0.51100000000E-03 0.  1.
         11   -1    0    0    0    0 -0.00000000000E+00 -0.00000000000E+00 -0.45593999997E+02  0.45594000000E+02  0.51100000000E-03 0. -1.
    9900012    2    1    2    0    0  0.21910836371E+02 -0.91984021891E+01  0.32991975768E+02  0.50528858120E+02  0.29999994743E+02 0.  0.
         12    1    1    2    0    0 -0.21910836371E+02  0.91984021891E+01 -0.32991975768E+02  0.40659141880E+02  0.00000000000E+00 0. -1.
         11    1    3    3    0    0  0.95474771273E+01 -0.87531939698E+01  0.11697090307E+02  0.17452640089E+02  0.51100000000E-03 0. -1.
        -11    1    3    3    0    0  0.68843147293E+01 -0.76069756166E+01  0.21749113698E+02  0.24047532394E+02  0.51100000000E-03 0.  1.
         12    1    3    3    0    0  0.54790445140E+01  0.71617673973E+01 -0.45422823729E+00  0.90286856369E+01  0.00000000000E+00 0. -1.
</event>
<event>
 7    1  0.2575978E-011  0.5052885E+02  0.7816164E-02  0.1300439E+00
        -11   -1    0    0    0    0  0.00000000000E+00  0.00000000000E+00  0.45593999997E+02  0.45594000000E+02  0.51100000000E-03 0.  1.
         11   -1    0    0    0    0 -0.00000000000E+00 -0.00000000000E+00 -0.45593999997E+02  0.45594000000E+02  0.51100000000E-03 0. -1.
    9900012    2    1    2    0    0  0.28833721998E+01  0.39155135642E+02  0.10570137848E+02  0.50528852240E+02  0.29999976869E+02 0.  0.
         12    1    1    2    0    0 -0.28833721998E+01 -0.39155135642E+02 -0.10570137848E+02  0.40659147760E+02  0.00000000000E+00 0. -1.
         11    1    3    3    0    0  0.34922531298E+00 -0.25181189578E+01  0.19029657373E+01  0.31755566856E+01  0.51100000000E-03 0. -1.
        -11    1    3    3    0    0  0.15455666147E+01 -0.24447254509E+00  0.50284809191E+01  0.52663235374E+01  0.51100000000E-03 0.  1.
        -12    1    3    3    0    0  0.98858027203E+00  0.41917727145E+02  0.36386911919E+01  0.42086972017E+02  0.00000000000E+00 0.  1.
</event>
<event>
 7    1  0.2575978E-011  0.5052887E+02  0.7816164E-02  0.1300439E+00
        -11   -1    0    0    0    0  0.00000000000E+00  0.00000000000E+00  0.45593999997E+02  0.45594000000E+02  0.51100000000E-03 0.  1.
         11   -1    0    0    0    0 -0.00000000000E+00 -0.00000000000E+00 -0.45593999997E+02  0.45594000000E+02  0.51100000000E-03 0. -1.
    9900012    2    1    2    0    0 -0.23537116084E+02  0.13790470144E+02  0.30149487419E+02  0.50528874432E+02  0.30000044324E+02 0.  0.
         12    1    1    2    0    0  0.23537116084E+02 -0.13790470144E+02 -0.30149487419E+02  0.40659125568E+02  0.00000000000E+00 0. -1.
         11    1    3    3    0    0 -0.11939492373E+02  0.91888707007E+00  0.95596691194E+01  0.15322633765E+02  0.51100000000E-03 0. -1.
        -11    1    3    3    0    0 -0.17939177918E+02  0.12920893996E+02  0.17231746104E+02  0.28030281484E+02  0.51100000000E-03 0.  1.
         12    1    3    3    0    0  0.63415542068E+01 -0.49310922292E-01  0.33580721955E+01  0.71759591829E+01  0.00000000000E+00 0. -1.
</event>
<event>
 7    1  0.2575978E-011  0.5052888E+02  0.7816164E-02  0.1300439E+00
        -11   -1    0    0    0    0  0.00000000000E+00  0.00000000000E+00  0.45593999997E+02  0.45594000000E+02  0.51100000000E-03 0.  1.
         11   -1    0    0    0    0 -0.00000000000E+00 -0.00000000000E+00 -0.45593999997E+02  0.45594000000E+02  0.51100000000E-03 0. -1.
    9900012    2    1    2    0    0  0.20627800468E+02  0.17509435795E+02  0.30349260879E+02  0.50528878885E+02  0.30000057858E+02 0.  0.
         12    1    1    2    0    0 -0.20627800468E+02 -0.17509435795E+02 -0.30349260879E+02  0.40659121115E+02  0.00000000000E+00 0. -1.
         11    1    3    3    0    0  0.79775959770E+01  0.16243904247E+02  0.26579830153E+02  0.32155774505E+02  0.51100000000E-03 0.  1.
        -11    1    3    3    0    0 -0.22031079359E+01  0.36445386584E+00  0.26282396558E+01  0.34487903890E+01  0.51100000000E-03 0. -1.
        -12    1    3    3    0    0  0.14853312427E+02  0.90107768137E+00  0.11411910695E+01  0.14924313991E+02  0.00000000000E+00 0.  1.
</event>
<event>
 7    1  0.2801992E-011  0.5052886E+02  0.7816164E-02  0.1300439E+00
        -11   -1    0    0    0    0  0.00000000000E+00  0.00000000000E+00  0.45593999997E+02  0.45594000000E+02  0.51100000000E-03 0.  1.
         11   -1    0    0    0    0 -0.00000000000E+00 -0.00000000000E+00 -0.45593999997E+02  0.45594000000E+02  0.51100000000E-03 0. -1.
    9900012    2    1    2    0    0  0.35376503269E+02 -0.56990357606E+01  0.19214315530E+02  0.50528856952E+02  0.29999991190E+02 0.  0.
         12    1    1    2    0    0 -0.35376503269E+02  0.56990357606E+01 -0.19214315530E+02  0.40659143048E+02  0.00000000000E+00 0. -1.
         11    1    3    3    0    0 -0.35373365671E+01  0.12552793239E+01 -0.19413000863E+01  0.42257688598E+01  0.51100000000E-03 0. -1.
        -11    1    3    3    0    0  0.19477695693E+02  0.17003524200E+01  0.70879802549E+01  0.20796905833E+02  0.51100000000E-03 0.  1.
        -12    1    3    3    0    0  0.19436144143E+02 -0.86546675045E+01  0.14067635361E+02  0.25506182259E+02  0.00000000000E+00 0.  1.
</event>
<event>
 7    1  0.2575978E-011  0.5052886E+02  0.7816164E-02  0.1300439E+00
        -11   -1    0    0    0    0  0.00000000000E+00  0.00000000000E+00  0.45593999997E+02  0.45594000000E+02  0.51100000000E-03 0.  1.
         11   -1    0    0    0    0 -0.00000000000E+00 -0.00000000000E+00 -0.45593999997E+02  0.45594000000E+02  0.51100000000E-03 0. -1.
    9900012    2    1    2    0    0 -0.77560732807E+01 -0.39788735094E+02  0.31409493722E+01  0.50528859870E+02  0.30000000062E+02 0.  0.
         12    1    1    2    0    0  0.77560732807E+01  0.39788735094E+02 -0.31409493722E+01  0.40659140130E+02  0.00000000000E+00 0. -1.
         11    1    3    3    0    0 -0.37878830810E+01 -0.18464554757E+01  0.19660020917E+01  0.46500129618E+01  0.51100000000E-03 0.  1.
        -11    1    3    3    0    0 -0.62253642983E+01 -0.99917785979E+01 -0.10240170195E+02  0.15602944789E+02  0.51100000000E-03 0. -1.
        -12    1    3    3    0    0  0.22571740986E+01 -0.27950501020E+02  0.11415117475E+02  0.30275902120E+02  0.00000000000E+00 0.  1.
</event>
<event>
 7    1  0.2575978E-011  0.5052883E+02  0.7816164E-02  0.1300439E+00
        -11   -1    0    0    0    0  0.00000000000E+00  0.00000000000E+00  0.45593999997E+02  0.45594000000E+02  0.51100000000E-03 0.  1.
         11   -1    0    0    0    0 -0.00000000000E+00 -0.00000000000E+00 -0.45593999997E+02  0.45594000000E+02  0.51100000000E-03 0. -1.
    9900012    2    1    2    0    0  0.34624092761E+02  0.11907273060E+01  0.21281966446E+02  0.50528834651E+02  0.29999923405E+02 0.  0.
         12    1    1    2    0    0 -0.34624092761E+02 -0.11907273060E+01 -0.21281966446E+02  0.40659165349E+02  0.00000000000E+00 0. -1.
         11    1    3    3    0    0  0.20489582186E+00 -0.15321265236E+01 -0.14398615407E+01  0.21124856212E+01  0.51100000000E-03 0. -1.
        -11    1    3    3    0    0 -0.21946754783E+01  0.98219743934E+00 -0.28454346248E+01  0.37252933750E+01  0.51100000000E-03 0.  1.
        -12    1    3    3    0    0  0.36613872418E+02  0.17406563902E+01  0.25567262612E+02  0.44691055655E+02  0.00000000000E+00 0.  1.
</event>
<event>
 7    1  0.2575978E-011  0.5052886E+02  0.7816164E-02  0.1300439E+00
        -11   -1    0    0    0    0  0.00000000000E+00  0.00000000000E+00  0.45593999997E+02  0.45594000000E+02  0.51100000000E-03 0.  1.
         11   -1    0    0    0    0 -0.00000000000E+00 -0.00000000000E+00 -0.45593999997E+02  0.45594000000E+02  0.51100000000E-03 0. -1.
    9900012    2    1    2    0    0 -0.20523622993E+02 -0.28135401989E+02  0.20984415506E+02  0.50528860314E+02  0.30000001411E+02 0.  0.
         12    1    1    2    0    0  0.20523622993E+02  0.28135401989E+02 -0.20984415506E+02  0.40659139686E+02  0.00000000000E+00 0. -1.
         11    1    3    3    0    0 -0.78718220078E+01 -0.23370439142E+00 -0.20468289721E+01  0.81369348386E+01  0.51100000000E-03 0. -1.
        -11    1    3    3    0    0 -0.75638136478E+01 -0.13006670434E+01  0.92011577212E+01  0.11981832720E+02  0.51100000000E-03 0.  1.
        -12    1    3    3    0    0 -0.50879873375E+01 -0.26601030554E+02  0.13830086757E+02  0.30410092756E+02  0.00000000000E+00 0.  1.
</event>
<event>
 7    1  0.2575978E-011  0.5052886E+02  0.7816164E-02  0.1300439E+00
        -11   -1    0    0    0    0  0.00000000000E+00  0.00000000000E+00  0.45593999997E+02  0.45594000000E+02  0.51100000000E-03 0. -1.
         11   -1    0    0    0    0 -0.00000000000E+00 -0.00000000000E+00 -0.45593999997E+02  0.45594000000E+02  0.51100000000E-03 0.  1.
    9900012    2    1    2    0    0 -0.29729418395E+02 -0.18442430776E+01 -0.27675367116E+02  0.50528862089E+02  0.30000006805E+02 0.  0.
         12    1    1    2    0    0  0.29729418395E+02  0.18442430776E+01  0.27675367116E+02  0.40659137911E+02  0.00000000000E+00 0. -1.
         11    1    3    3    0    0 -0.19941927355E+01  0.25384453354E+01 -0.10700701909E+02  0.11177009036E+02  0.51100000000E-03 0.  1.
        -11    1    3    3    0    0 -0.22088302475E+02 -0.11325998056E+02 -0.66700545231E+01  0.25703325967E+02  0.51100000000E-03 0. -1.
         12    1    3    3    0    0 -0.56469231852E+01  0.69433096427E+01 -0.10304610684E+02  0.13648527085E+02  0.00000000000E+00 0. -1.
</event>
<event>
 7    1  0.2575978E-011  0.5052886E+02  0.7816164E-02  0.1300439E+00
        -11   -1    0    0    0    0  0.00000000000E+00  0.00000000000E+00  0.45593999997E+02  0.45594000000E+02  0.51100000000E-03 0. -1.
         11   -1    0    0    0    0 -0.00000000000E+00 -0.00000000000E+00 -0.45593999997E+02  0.45594000000E+02  0.51100000000E-03 0.  1.
    9900012    2    1    2    0    0 -0.99680193706E+01  0.21679387171E+02 -0.32921245251E+02  0.50528860472E+02  0.30000001890E+02 0.  0.
         12    1    1    2    0    0  0.99680193706E+01 -0.21679387171E+02  0.32921245251E+02  0.40659139528E+02  0.00000000000E+00 0. -1.
         11    1    3    3    0    0  0.13407139788E+01  0.43319717652E+01 -0.11336634248E+02  0.12209945524E+02  0.51100000000E-03 0. -1.
        -11    1    3    3    0    0 -0.75509690454E+01  0.21872876046E+02 -0.22605384984E+02  0.32348775411E+02  0.51100000000E-03 0.  1.
        -12    1    3    3    0    0 -0.37577643040E+01 -0.45254606403E+01  0.10207739809E+01  0.59701395370E+01  0.00000000000E+00 0.  1.
</event>
<event>
 7    1  0.2575978E-011  0.5052886E+02  0.7816164E-02  0.1300439E+00
        -11   -1    0    0    0    0  0.00000000000E+00  0.00000000000E+00  0.45593999997E+02  0.45594000000E+02  0.51100000000E-03 0.  1.
         11   -1    0    0    0    0 -0.00000000000E+00 -0.00000000000E+00 -0.45593999997E+02  0.45594000000E+02  0.51100000000E-03 0. -1.
    9900012    2    1    2    0    0 -0.38733628873E+02  0.11712469414E+02  0.39610595039E+01  0.50528856651E+02  0.29999990276E+02 0.  0.
         12    1    1    2    0    0  0.38733628873E+02 -0.11712469414E+02 -0.39610595039E+01  0.40659143349E+02  0.00000000000E+00 0. -1.
         11    1    3    3    0    0 -0.52816713313E+01  0.10500475466E+02 -0.34456452878E+01  0.12248612525E+02  0.51100000000E-03 0. -1.
        -11    1    3    3    0    0 -0.21605459849E+02  0.82362673427E+01  0.80750616299E+01  0.24491602961E+02  0.51100000000E-03 0.  1.
        -12    1    3    3    0    0 -0.11846497694E+02 -0.70242733947E+01 -0.66835683820E+00  0.13788641166E+02  0.00000000000E+00 0.  1.
</event>
<event>
 7    1  0.2575978E-011  0.5052886E+02  0.7816164E-02  0.1300439E+00
        -11   -1    0    0    0    0  0.00000000000E+00  0.00000000000E+00  0.45593999997E+02  0.45594000000E+02  0.51100000000E-03 0. -1.
         11   -1    0    0    0    0 -0.00000000000E+00 -0.00000000000E+00 -0.45593999997E+02  0.45594000000E+02  0.51100000000E-03 0.  1.
    9900012    2    1    2    0    0 -0.27060315328E+02  0.11351019790E+02 -0.28143552682E+02  0.50528857443E+02  0.29999992684E+02 0.  0.
         12    1    1    2    0    0  0.27060315328E+02 -0.11351019790E+02  0.28143552682E+02  0.40659142557E+02  0.00000000000E+00 0. -1.
         11    1    3    3    0    0 -0.17464396454E+02 -0.24743507487E+01 -0.15190752850E+02  0.23278456296E+02  0.51100000000E-03 0.  1.
        -11    1    3    3    0    0 -0.77312692565E+01  0.93464793551E+01  0.12956013849E+01  0.12198679595E+02  0.51100000000E-03 0. -1.
         12    1    3    3    0    0 -0.18646496174E+01  0.44788911837E+01 -0.14248401217E+02  0.15051721552E+02  0.00000000000E+00 0. -1.
</event>
<event>
 7    1  0.2575978E-011  0.5052887E+02  0.7816164E-02  0.1300439E+00
        -11   -1    0    0    0    0  0.00000000000E+00  0.00000000000E+00  0.45593999997E+02  0.45594000000E+02  0.51100000000E-03 0. -1.
         11   -1    0    0    0    0 -0.00000000000E+00 -0.00000000000E+00 -0.45593999997E+02  0.45594000000E+02  0.51100000000E-03 0.  1.
    9900012    2    1    2    0    0 -0.33159456423E+02  0.92946160232E+01 -0.21615397371E+02  0.50528870143E+02  0.30000031285E+02 0.  0.
         12    1    1    2    0    0  0.33159456423E+02 -0.92946160232E+01  0.21615397371E+02  0.40659129857E+02  0.00000000000E+00 0. -1.
         11    1    3    3    0    0 -0.85369459677E+00  0.11782653525E+01 -0.12048335184E+02  0.12135875934E+02  0.51100000000E-03 0. -1.
        -11    1    3    3    0    0 -0.87836239988E+01 -0.14142715300E+01 -0.94970463563E+01  0.13013304894E+02  0.51100000000E-03 0.  1.
         12    1    3    3    0    0 -0.23522137827E+02  0.95306222007E+01 -0.70015830034E-01  0.25379689315E+02  0.00000000000E+00 0. -1.
</event>
<event>
 7    1  0.2575978E-011  0.5052886E+02  0.7816164E-02  0.1300439E+00
        -11   -1    0    0    0    0  0.00000000000E+00  0.00000000000E+00  0.45593999997E+02  0.45594000000E+02  0.51100000000E-03 0.  1.
         11   -1    0    0    0    0 -0.00000000000E+00 -0.00000000000E+00 -0.45593999997E+02  0.45594000000E+02  0.51100000000E-03 0. -1.
    9900012    2    1    2    0    0 -0.16121221641E+02 -0.24132320423E+01  0.37248466711E+02  0.50528858981E+02  0.29999997358E+02 0.  0.
         12    1    1    2    0    0  0.16121221641E+02  0.24132320423E+01 -0.37248466711E+02  0.40659141019E+02  0.00000000000E+00 0. -1.
         11    1    3    3    0    0 -0.87086750220E+01 -0.47051135956E+01  0.10189480003E+02  0.14205795211E+02  0.51100000000E-03 0. -1.
        -11    1    3    3    0    0  0.13115251972E+01  0.23584457253E+01  0.27457354111E+02  0.27589647689E+02  0.51100000000E-03 0.  1.
         12    1    3    3    0    0 -0.87240718167E+01 -0.66564171981E-01 -0.39836740265E+00  0.87334160807E+01  0.00000000000E+00 0. -1.
</event>
<event>
 7    1  0.2575978E-011  0.5052886E+02  0.7816164E-02  0.1300439E+00
        -11   -1    0    0    0    0  0.00000000000E+00  0.00000000000E+00  0.45593999997E+02  0.45594000000E+02  0.51100000000E-03 0.  1.
         11   -1    0    0    0    0 -0.00000000000E+00 -0.00000000000E+00 -0.45593999997E+02  0.45594000000E+02  0.51100000000E-03 0. -1.
    9900012    2    1    2    0    0 -0.11120150150E+02 -0.50891045694E+00  0.39105612998E+02  0.50528859611E+02  0.29999999274E+02 0.  0.
         12    1    1    2    0    0  0.11120150150E+02  0.50891045694E+00 -0.39105612998E+02  0.40659140389E+02  0.00000000000E+00 0. -1.
         11    1    3    3    0    0  0.46512392906E+01  0.23287751442E+01  0.15312341897E+02  0.16171735690E+02  0.51100000000E-03 0. -1.
        -11    1    3    3    0    0 -0.20841237284E+01  0.63920260875E+01  0.12993598510E+02  0.14629940934E+02  0.51100000000E-03 0.  1.
        -12    1    3    3    0    0 -0.13687265712E+02 -0.92297116887E+01  0.10799672591E+02  0.19727182987E+02  0.00000000000E+00 0.  1.
</event>
<event>
 7    1  0.2575978E-011  0.5052886E+02  0.7816164E-02  0.1300439E+00
        -11   -1    0    0    0    0  0.00000000000E+00  0.00000000000E+00  0.45593999997E+02  0.45594000000E+02  0.51100000000E-03 0.  1.
         11   -1    0    0    0    0 -0.00000000000E+00 -0.00000000000E+00 -0.45593999997E+02  0.45594000000E+02  0.51100000000E-03 0. -1.
    9900012    2    1    2    0    0 -0.60674951597E+01 -0.51985213111E+01  0.39866357778E+02  0.50528860759E+02  0.30000002763E+02 0.  0.
         12    1    1    2    0    0  0.60674951597E+01  0.51985213111E+01 -0.39866357778E+02  0.40659139241E+02  0.00000000000E+00 0. -1.
         11    1    3    3    0    0 -0.37236666497E+01 -0.83184045775E+01  0.12661495848E+02  0.15600481576E+02  0.51100000000E-03 0. -1.
        -11    1    3    3    0    0  0.40327436217E+01 -0.66862394018E+01  0.19275635010E+02  0.20797089310E+02  0.51100000000E-03 0.  1.
         12    1    3    3    0    0 -0.63765721317E+01  0.98061226683E+01  0.79292269196E+01  0.14131289873E+02  0.00000000000E+00 0. -1.
</event>
<event>
 7    1  0.2575978E-011  0.5052887E+02  0.7816164E-02  0.1300439E+00
        -11   -1    0    0    0    0  0.00000000000E+00  0.00000000000E+00  0.45593999997E+02  0.45594000000E+02  0.51100000000E-03 0.  1.
         11   -1    0    0    0    0 -0.00000000000E+00 -0.00000000000E+00 -0.45593999997E+02  0.45594000000E+02  0.51100000000E-03 0. -1.
    9900012    2    1    2    0    0 -0.29007620098E+02 -0.24085752068E+02  0.15218393073E+02  0.50528868625E+02  0.30000026673E+02 0.  0.
         12    1    1    2    0    0  0.29007620098E+02  0.24085752068E+02 -0.15218393073E+02  0.40659131375E+02  0.00000000000E+00 0. -1.
         11    1    3    3    0    0 -0.35053656606E+01 -0.30869887732E+01 -0.55002481154E+01  0.72159419131E+01  0.51100000000E-03 0. -1.
        -11    1    3    3    0    0 -0.21758644917E+01  0.33326209225E+01  0.51030066704E+00  0.40126245191E+01  0.51100000000E-03 0.  1.
        -12    1    3    3    0    0 -0.23326389946E+02 -0.24331384218E+02  0.20208340521E+02  0.39300302193E+02  0.00000000000E+00 0.  1.
</event>
<event>
 7    1  0.2575978E-011  0.5052893E+02  0.7816164E-02  0.1300439E+00
        -11   -1    0    0    0    0  0.00000000000E+00  0.00000000000E+00  0.45593999997E+02  0.45594000000E+02  0.51100000000E-03 0.  1.
         11   -1    0    0    0    0 -0.00000000000E+00 -0.00000000000E+00 -0.45593999997E+02  0.45594000000E+02  0.51100000000E-03 0. -1.
    9900012    2    1    2    0    0 -0.23034058303E+02  0.55754560579E+01  0.33037958480E+02  0.50528926564E+02  0.30000202783E+02 0.  0.
         12    1    1    2    0    0  0.23034058303E+02 -0.55754560579E+01 -0.33037958480E+02  0.40659073436E+02  0.00000000000E+00 0. -1.
         11    1    3    3    0    0  0.13619781445E+01 -0.41321109643E+00 -0.34996561521E+01  0.37780049392E+01  0.51100000000E-03 0. -1.
        -11    1    3    3    0    0 -0.57212693838E+01  0.24004614246E+01  0.78277484543E+00  0.62536289571E+01  0.51100000000E-03 0.  1.
        -12    1    3    3    0    0 -0.18674767063E+02  0.35882057298E+01  0.35754839787E+02  0.40497292668E+02  0.00000000000E+00 0.  1.
</event>
<event>
 7    1  0.2575978E-011  0.5052887E+02  0.7816164E-02  0.1300439E+00
        -11   -1    0    0    0    0  0.00000000000E+00  0.00000000000E+00  0.45593999997E+02  0.45594000000E+02  0.51100000000E-03 0. -1.
         11   -1    0    0    0    0 -0.00000000000E+00 -0.00000000000E+00 -0.45593999997E+02  0.45594000000E+02  0.51100000000E-03 0.  1.
    9900012    2    1    2    0    0 -0.15897976465E+02 -0.28923543452E+02 -0.23745480006E+02  0.50528870124E+02  0.30000031230E+02 0.  0.
         12    1    1    2    0    0  0.15897976465E+02  0.28923543452E+02  0.23745480006E+02  0.40659129876E+02  0.00000000000E+00 0. -1.
         11    1    3    3    0    0  0.52750008110E+01 -0.51105518057E+01 -0.95948218612E+01  0.12083210671E+02  0.51100000000E-03 0. -1.
        -11    1    3    3    0    0 -0.16920769926E+02 -0.13298961241E+02 -0.16178676205E+02  0.26924419937E+02  0.51100000000E-03 0.  1.
        -12    1    3    3    0    0 -0.42522073504E+01 -0.10514030406E+02  0.20280180599E+01  0.11521239516E+02  0.00000000000E+00 0.  1.
</event>
<event>
 7    1  0.2575978E-011  0.5052887E+02  0.7816164E-02  0.1300439E+00
        -11   -1    0    0    0    0  0.00000000000E+00  0.00000000000E+00  0.45593999997E+02  0.45594000000E+02  0.51100000000E-03 0.  1.
         11   -1    0    0    0    0 -0.00000000000E+00 -0.00000000000E+00 -0.45593999997E+02  0.45594000000E+02  0.51100000000E-03 0. -1.
    9900012    2    1    2    0    0  0.63902377237E+01  0.18346020645E+02  0.35717688878E+02  0.50528869285E+02  0.30000028680E+02 0.  0.
         12    1    1    2    0    0 -0.63902377237E+01 -0.18346020645E+02 -0.35717688878E+02  0.40659130715E+02  0.00000000000E+00 0. -1.
         11    1    3    3    0    0  0.26299627549E+00 -0.92210038389E+00  0.34686651021E+01  0.35987600657E+01  0.51100000000E-03 0. -1.
        -11    1    3    3    0    0 -0.34657030582E+00 -0.64623493316E+01  0.11700744611E+02  0.13371218889E+02  0.51100000000E-03 0.  1.
         12    1    3    3    0    0  0.64738117540E+01  0.25730470360E+02  0.20548279165E+02  0.33558890331E+02  0.00000000000E+00 0. -1.
</event>
<event>
 7    1  0.2575978E-011  0.5052884E+02  0.7816164E-02  0.1300439E+00
        -11   -1    0    0    0    0  0.00000000000E+00  0.00000000000E+00  0.45593999997E+02  0.45594000000E+02  0.51100000000E-03 0. -1.
         11   -1    0    0    0    0 -0.00000000000E+00 -0.00000000000E+00 -0.45593999997E+02  0.45594000000E+02  0.51100000000E-03 0.  1.
    9900012    2    1    2    0    0 -0.13223986200E+01  0.32076473005E+02 -0.24950324665E+02  0.50528836710E+02  0.29999929664E+02 0.  0.
         12    1    1    2    0    0  0.13223986200E+01 -0.32076473005E+02  0.24950324665E+02  0.40659163290E+02  0.00000000000E+00 0. -1.
         11    1    3    3    0    0 -0.49453300468E+01  0.43670637446E+01 -0.12376351560E+01  0.67126206553E+01  0.51100000000E-03 0.  1.
        -11    1    3    3    0    0 -0.65469163919E+01  0.23909767659E+02 -0.11062676517E+02  0.27146305748E+02  0.51100000000E-03 0. -1.
        -12    1    3    3    0    0  0.10169847819E+02  0.37996416009E+01 -0.12650012992E+02  0.16669910307E+02  0.00000000000E+00 0.  1.
</event>
<event>
 7    1  0.2575978E-011  0.5052886E+02  0.7816164E-02  0.1300439E+00
        -11   -1    0    0    0    0  0.00000000000E+00  0.00000000000E+00  0.45593999997E+02  0.45594000000E+02  0.51100000000E-03 0.  1.
         11   -1    0    0    0    0 -0.00000000000E+00 -0.00000000000E+00 -0.45593999997E+02  0.45594000000E+02  0.51100000000E-03 0. -1.
    9900012    2    1    2    0    0  0.28154375832E+02  0.28265948317E+02  0.78443125663E+01  0.50528856472E+02  0.29999989733E+02 0.  0.
         12    1    1    2    0    0 -0.28154375832E+02 -0.28265948317E+02 -0.78443125663E+01  0.40659143528E+02  0.00000000000E+00 0. -1.
         11    1    3    3    0    0  0.73744682492E+01  0.84324673071E+01  0.22747440904E+01  0.11430824458E+02  0.51100000000E-03 0. -1.
        -11    1    3    3    0    0  0.63663699932E+01  0.22317205514E+02  0.73981945553E+01  0.24358193935E+02  0.51100000000E-03 0.  1.
        -12    1    3    3    0    0  0.14413537590E+02 -0.24837245039E+01 -0.18286260793E+01  0.14739838080E+02  0.00000000000E+00 0.  1.
</event>
<event>
 7    1  0.2575978E-011  0.5052885E+02  0.7816164E-02  0.1300439E+00
        -11   -1    0    0    0    0  0.00000000000E+00  0.00000000000E+00  0.45593999997E+02  0.45594000000E+02  0.51100000000E-03 0. -1.
         11   -1    0    0    0    0 -0.00000000000E+00 -0.00000000000E+00 -0.45593999997E+02  0.45594000000E+02  0.51100000000E-03 0.  1.
    9900012    2    1    2    0    0  0.36149443781E+02 -0.93529914816E+01 -0.16090552895E+02  0.50528848166E+02  0.29999964487E+02 0.  0.
         12    1    1    2    0    0 -0.36149443781E+02  0.93529914816E+01  0.16090552895E+02  0.40659151834E+02  0.00000000000E+00 0. -1.
         11    1    3    3    0    0  0.26367903676E+02 -0.56196079747E+01 -0.19454442519E+01  0.27030188524E+02  0.51100000000E-03 0. -1.
        -11    1    3    3    0    0  0.13196868753E+02 -0.17566999050E+01 -0.63250805629E+01  0.14739402425E+02  0.51100000000E-03 0.  1.
         12    1    3    3    0    0 -0.34153286475E+01 -0.19766836019E+01 -0.78200280804E+01  0.87592572180E+01  0.00000000000E+00 0. -1.
</event>
<event>
 7    1  0.2575978E-011  0.5052886E+02  0.7816164E-02  0.1300439E+00
        -11   -1    0    0    0    0  0.00000000000E+00  0.00000000000E+00  0.45593999997E+02  0.45594000000E+02  0.51100000000E-03 0.  1.
         11   -1    0    0    0    0 -0.00000000000E+00 -0.00000000000E+00 -0.45593999997E+02  0.45594000000E+02  0.51100000000E-03 0. -1.
    9900012    2    1    2    0    0  0.56069812822E+01  0.40189769028E+02  0.25514097510E+01  0.50528862462E+02  0.30000007940E+02 0.  0.
         12    1    1    2    0    0 -0.56069812822E+01 -0.40189769028E+02 -0.25514097510E+01  0.40659137538E+02  0.00000000000E+00 0. -1.
         11    1    3    3    0    0 -0.24082116899E+01  0.47196596857E+01  0.56111351478E-01  0.52988508035E+01  0.51100000000E-03 0. -1.
        -11    1    3    3    0    0 -0.73417408433E+01  0.23948609106E+01 -0.31290309127E+01  0.83323077298E+01  0.51100000000E-03 0.  1.
        -12    1    3    3    0    0  0.15356933815E+02  0.33075248431E+02  0.56243293122E+01  0.36897703929E+02  0.00000000000E+00 0.  1.
</event>
<event>
 7    1  0.2575978E-011  0.5052887E+02  0.7816164E-02  0.1300439E+00
        -11   -1    0    0    0    0  0.00000000000E+00  0.00000000000E+00  0.45593999997E+02  0.45594000000E+02  0.51100000000E-03 0. -1.
         11   -1    0    0    0    0 -0.00000000000E+00 -0.00000000000E+00 -0.45593999997E+02  0.45594000000E+02  0.51100000000E-03 0.  1.
    9900012    2    1    2    0    0  0.23087097679E+02  0.31503879502E+02  0.11298505410E+02  0.50528871536E+02  0.30000035521E+02 0.  0.
         12    1    1    2    0    0 -0.23087097679E+02 -0.31503879502E+02 -0.11298505410E+02  0.40659128464E+02  0.00000000000E+00 0. -1.
         11    1    3    3    0    0  0.11139640011E+02  0.25918690224E+02  0.16390495680E+01  0.28258743183E+02  0.51100000000E-03 0.  1.
        -11    1    3    3    0    0 -0.34746752681E+01  0.11031914916E+01  0.24473396699E+00  0.36538055040E+01  0.51100000000E-03 0. -1.
         12    1    3    3    0    0  0.15422132936E+02  0.44819977864E+01  0.94147218750E+01  0.18616322849E+02  0.00000000000E+00 0. -1.
</event>
<event>
 7    1  0.2575978E-011  0.5052886E+02  0.7816164E-02  0.1300439E+00
        -11   -1    0    0    0    0  0.00000000000E+00  0.00000000000E+00  0.45593999997E+02  0.45594000000E+02  0.51100000000E-03 0. -1.
         11   -1    0    0    0    0 -0.00000000000E+00 -0.00000000000E+00 -0.45593999997E+02  0.45594000000E+02  0.51100000000E-03 0.  1.
    9900012    2    1    2    0    0 -0.40520489702E+02 -0.32125752856E+01 -0.96707790958E+00  0.50528856313E+02  0.29999989248E+02 0.  0.
         12    1    1    2    0    0  0.40520489702E+02  0.32125752856E+01  0.96707790958E+00  0.40659143687E+02  0.00000000000E+00 0. -1.
         11    1    3    3    0    0 -0.29937973101E+02 -0.83906234308E+01 -0.46471648398E+01  0.31436935860E+02  0.51100000000E-03 0. -1.
        -11    1    3    3    0    0  0.10616148750E+01 -0.46052945082E+00 -0.39199959426E+01  0.40872340242E+01  0.51100000000E-03 0.  1.
        -12    1    3    3    0    0 -0.11644131476E+02  0.56385775960E+01  0.76000828728E+01  0.15004686428E+02  0.00000000000E+00 0.  1.
</event>
<event>
 7    1  0.2575978E-011  0.5052887E+02  0.7816164E-02  0.1300439E+00
        -11   -1    0    0    0    0  0.00000000000E+00  0.00000000000E+00  0.45593999997E+02  0.45594000000E+02  0.51100000000E-03 0.  1.
         11   -1    0    0    0    0 -0.00000000000E+00 -0.00000000000E+00 -0.45593999997E+02  0.45594000000E+02  0.51100000000E-03 0. -1.
    9900012    2    1    2    0    0 -0.19291666518E+01 -0.24111919264E+01  0.40541702676E+02  0.50528865893E+02  0.30000018367E+02 0.  0.
         12    1    1    2    0    0  0.19291666518E+01  0.24111919264E+01 -0.40541702676E+02  0.40659134107E+02  0.00000000000E+00 0. -1.
         11    1    3    3    0    0 -0.63714729978E+01  0.38862046019E+01  0.12998464705E+02  0.14988606984E+02  0.51100000000E-03 0.  1.
        -11    1    3    3    0    0  0.82939686270E+01  0.30892602720E+01  0.36346568344E+01  0.95678720299E+01  0.51100000000E-03 0. -1.
        -12    1    3    3    0    0 -0.38516622810E+01 -0.93866568004E+01  0.23908581136E+02  0.25972386879E+02  0.00000000000E+00 0.  1.
</event>
<event>
 7    1  0.2575978E-011  0.5052886E+02  0.7816164E-02  0.1300439E+00
        -11   -1    0    0    0    0  0.00000000000E+00  0.00000000000E+00  0.45593999997E+02  0.45594000000E+02  0.51100000000E-03 0. -1.
         11   -1    0    0    0    0 -0.00000000000E+00 -0.00000000000E+00 -0.45593999997E+02  0.45594000000E+02  0.51100000000E-03 0.  1.
    9900012    2    1    2    0    0  0.11923095888E+02 -0.26121978854E+02 -0.28786246303E+02  0.50528856243E+02  0.29999989037E+02 0.  0.
         12    1    1    2    0    0 -0.11923095888E+02  0.26121978854E+02  0.28786246303E+02  0.40659143757E+02  0.00000000000E+00 0. -1.
         11    1    3    3    0    0 -0.25490248587E+00 -0.26922394373E+01  0.27702632145E+01  0.38713675883E+01  0.51100000000E-03 0. -1.
        -11    1    3    3    0    0  0.11282739728E+02 -0.94179931391E+01 -0.32378876444E+01  0.15049343082E+02  0.51100000000E-03 0.  1.
        -12    1    3    3    0    0  0.89525864638E+00 -0.14011746277E+02 -0.28318621873E+02  0.31608145573E+02  0.00000000000E+00 0.  1.
</event>
<event>
 7    1  0.2575978E-011  0.5052886E+02  0.7816164E-02  0.1300439E+00
        -11   -1    0    0    0    0  0.00000000000E+00  0.00000000000E+00  0.45593999997E+02  0.45594000000E+02  0.51100000000E-03 0.  1.
         11   -1    0    0    0    0 -0.00000000000E+00 -0.00000000000E+00 -0.45593999997E+02  0.45594000000E+02  0.51100000000E-03 0. -1.
    9900012    2    1    2    0    0 -0.32830078166E+02  0.92721319369E+01  0.22121914647E+02  0.50528861166E+02  0.30000004001E+02 0.  0.
         12    1    1    2    0    0  0.32830078166E+02 -0.92721319369E+01 -0.22121914647E+02  0.40659138834E+02  0.00000000000E+00 0. -1.
         11    1    3    3    0    0 -0.27022127623E+02  0.77442998650E+01  0.29423379991E+01  0.28263526228E+02  0.51100000000E-03 0.  1.
        -11    1    3    3    0    0  0.12134359696E+01  0.24727158141E+01  0.13250206646E+01  0.30565389532E+01  0.51100000000E-03 0. -1.
        -12    1    3    3    0    0 -0.70213865128E+01 -0.94488374228E+00  0.17854555983E+02  0.19208795985E+02  0.00000000000E+00 0.  1.
</event>
<event>
 7    1  0.2575978E-011  0.5052886E+02  0.7816164E-02  0.1300439E+00
        -11   -1    0    0    0    0  0.00000000000E+00  0.00000000000E+00  0.45593999997E+02  0.45594000000E+02  0.51100000000E-03 0. -1.
         11   -1    0    0    0    0 -0.00000000000E+00 -0.00000000000E+00 -0.45593999997E+02  0.45594000000E+02  0.51100000000E-03 0.  1.
    9900012    2    1    2    0    0  0.21610943491E+00  0.32328103293E+02 -0.24657908363E+02  0.50528863134E+02  0.30000009983E+02 0.  0.
         12    1    1    2    0    0 -0.21610943491E+00 -0.32328103293E+02  0.24657908363E+02  0.40659136866E+02  0.00000000000E+00 0. -1.
         11    1    3    3    0    0 -0.31721092154E+01  0.68928443826E+01 -0.11843211061E+01  0.76795961678E+01  0.51100000000E-03 0. -1.
        -11    1    3    3    0    0 -0.57522431190E+01  0.25934534090E+02 -0.15831099158E+02  0.30924295629E+02  0.51100000000E-03 0.  1.
         12    1    3    3    0    0  0.91404617693E+01 -0.49927517870E+00 -0.76424880989E+01  0.11924971338E+02  0.00000000000E+00 0. -1.
</event>
<event>
 7    1  0.2575978E-011  0.5052886E+02  0.7816164E-02  0.1300439E+00
        -11   -1    0    0    0    0  0.00000000000E+00  0.00000000000E+00  0.45593999997E+02  0.45594000000E+02  0.51100000000E-03 0. -1.
         11   -1    0    0    0    0 -0.00000000000E+00 -0.00000000000E+00 -0.45593999997E+02  0.45594000000E+02  0.51100000000E-03 0.  1.
    9900012    2    1    2    0    0 -0.14386870982E+00  0.39837831300E+02  0.81296994536E+01  0.50528861862E+02  0.30000006116E+02 0.  0.
         12    1    1    2    0    0  0.14386870982E+00 -0.39837831300E+02 -0.81296994536E+01  0.40659138138E+02  0.00000000000E+00 0. -1.
         11    1    3    3    0    0  0.57515842309E+01  0.21007235371E+02  0.12774153110E+02  0.25250022714E+02  0.51100000000E-03 0.  1.
        -11    1    3    3    0    0  0.16553416647E+01  0.23021257913E+01 -0.64224461205E+01  0.70205237424E+01  0.51100000000E-03 0. -1.
         12    1    3    3    0    0 -0.75507946054E+01  0.16528470138E+02  0.17779924645E+01  0.18258315406E+02  0.00000000000E+00 0. -1.
</event>
<event>
 7    1  0.2575978E-011  0.5052888E+02  0.7816164E-02  0.1300439E+00
        -11   -1    0    0    0    0  0.00000000000E+00  0.00000000000E+00  0.45593999997E+02  0.45594000000E+02  0.51100000000E-03 0. -1.
         11   -1    0    0    0    0 -0.00000000000E+00 -0.00000000000E+00 -0.45593999997E+02  0.45594000000E+02  0.51100000000E-03 0.  1.
    9900012    2    1    2    0    0  0.21894011410E+02 -0.28647174460E+02  0.18792437949E+02  0.50528879692E+02  0.30000060311E+02 0.  0.
         12    1    1    2    0    0 -0.21894011410E+02  0.28647174460E+02 -0.18792437949E+02  0.40659120308E+02  0.00000000000E+00 0. -1.
         11    1    3    3    0    0  0.10896720040E+02 -0.12204774028E+02  0.15163956560E+02  0.22307859501E+02  0.51100000000E-03 0. -1.
        -11    1    3    3    0    0  0.15075594853E+02 -0.11454786670E+02  0.78734585116E+01  0.20505536985E+02  0.51100000000E-03 0.  1.
         12    1    3    3    0    0 -0.40783034831E+01 -0.49876137616E+01 -0.42449771222E+01  0.77154832060E+01  0.00000000000E+00 0. -1.
</event>
<event>
 7    1  0.2575978E-011  0.5052883E+02  0.7816164E-02  0.1300439E+00
        -11   -1    0    0    0    0  0.00000000000E+00  0.00000000000E+00  0.45593999997E+02  0.45594000000E+02  0.51100000000E-03 0. -1.
         11   -1    0    0    0    0 -0.00000000000E+00 -0.00000000000E+00 -0.45593999997E+02  0.45594000000E+02  0.51100000000E-03 0.  1.
    9900012    2    1    2    0    0 -0.32379887719E+02 -0.48648818907E+01  0.24104849066E+02  0.50528831870E+02  0.29999914951E+02 0.  0.
         12    1    1    2    0    0  0.32379887719E+02  0.48648818907E+01 -0.24104849066E+02  0.40659168130E+02  0.00000000000E+00 0. -1.
         11    1    3    3    0    0 -0.34395545938E+01  0.34907550741E+00  0.89736255587E+01  0.96165661981E+01  0.51100000000E-03 0. -1.
        -11    1    3    3    0    0 -0.91245841249E+01 -0.59389770538E+01  0.17839444907E+02  0.20899169332E+02  0.51100000000E-03 0.  1.
        -12    1    3    3    0    0 -0.19815749001E+02  0.72501965578E+00 -0.27082213998E+01  0.20013096340E+02  0.00000000000E+00 0.  1.
</event>
<event>
 7    1  0.2575978E-011  0.5052886E+02  0.7816164E-02  0.1300439E+00
        -11   -1    0    0    0    0  0.00000000000E+00  0.00000000000E+00  0.45593999997E+02  0.45594000000E+02  0.51100000000E-03 0.  1.
         11   -1    0    0    0    0 -0.00000000000E+00 -0.00000000000E+00 -0.45593999997E+02  0.45594000000E+02  0.51100000000E-03 0. -1.
    9900012    2    1    2    0    0  0.32715405445E+02 -0.13098045463E+02  0.20280749795E+02  0.50528863750E+02  0.30000011853E+02 0.  0.
         12    1    1    2    0    0 -0.32715405445E+02  0.13098045463E+02 -0.20280749795E+02  0.40659136250E+02  0.00000000000E+00 0. -1.
         11    1    3    3    0    0  0.16132195679E+02 -0.69919569273E+01  0.12563116371E+02  0.21609421378E+02  0.51100000000E-03 0. -1.
        -11    1    3    3    0    0  0.74878293539E+01  0.73316047233E+01  0.71438648850E+01  0.12682855436E+02  0.51100000000E-03 0.  1.
         12    1    3    3    0    0  0.90953804127E+01 -0.13437693259E+02  0.57376853901E+00  0.16236586936E+02  0.00000000000E+00 0. -1.
</event>
<event>
 7    1  0.2575978E-011  0.5052885E+02  0.7816164E-02  0.1300439E+00
        -11   -1    0    0    0    0  0.00000000000E+00  0.00000000000E+00  0.45593999997E+02  0.45594000000E+02  0.51100000000E-03 0.  1.
         11   -1    0    0    0    0 -0.00000000000E+00 -0.00000000000E+00 -0.45593999997E+02  0.45594000000E+02  0.51100000000E-03 0. -1.
    9900012    2    1    2    0    0  0.29588422641E+02  0.23745267502E+02  0.14623744128E+02  0.50528851270E+02  0.29999973921E+02 0.  0.
         12    1    1    2    0    0 -0.29588422641E+02 -0.23745267502E+02 -0.14623744128E+02  0.40659148730E+02  0.00000000000E+00 0. -1.
         11    1    3    3    0    0  0.14058155588E+01  0.23912277587E+01  0.43898160318E+01  0.51927615614E+01  0.51100000000E-03 0. -1.
        -11    1    3    3    0    0  0.20985842825E+02 -0.26832436814E+00  0.79124944146E+01  0.22429560075E+02  0.51100000000E-03 0.  1.
         12    1    3    3    0    0  0.71967642575E+01  0.21622364111E+02  0.23214336816E+01  0.22906529634E+02  0.00000000000E+00 0. -1.
</event>
<event>
 7    1  0.2575978E-011  0.5052885E+02  0.7816164E-02  0.1300439E+00
        -11   -1    0    0    0    0  0.00000000000E+00  0.00000000000E+00  0.45593999997E+02  0.45594000000E+02  0.51100000000E-03 0. -1.
         11   -1    0    0    0    0 -0.00000000000E+00 -0.00000000000E+00 -0.45593999997E+02  0.45594000000E+02  0.51100000000E-03 0.  1.
    9900012    2    1    2    0    0  0.19571808018E+02  0.31521263221E+02 -0.16628915557E+02  0.50528849287E+02  0.29999967892E+02 0.  0.
         12    1    1    2    0    0 -0.19571808018E+02 -0.31521263221E+02  0.16628915557E+02  0.40659150713E+02  0.00000000000E+00 0. -1.
         11    1    3    3    0    0  0.70026283944E+01  0.11452747710E+01 -0.82169168951E+01  0.10856619283E+02  0.51100000000E-03 0. -1.
        -11    1    3    3    0    0  0.12057731361E+02  0.66988009693E+01 -0.80826150410E+01  0.15987228845E+02  0.51100000000E-03 0.  1.
         12    1    3    3    0    0  0.51144826261E+00  0.23677187480E+02 -0.32938362138E+00  0.23685001159E+02  0.00000000000E+00 0. -1.
</event>
<event>
 7    1  0.2575978E-011  0.5052886E+02  0.7816164E-02  0.1300439E+00
        -11   -1    0    0    0    0  0.00000000000E+00  0.00000000000E+00  0.45593999997E+02  0.45594000000E+02  0.51100000000E-03 0.  1.
         11   -1    0    0    0    0 -0.00000000000E+00 -0.00000000000E+00 -0.45593999997E+02  0.45594000000E+02  0.51100000000E-03 0. -1.
    9900012    2    1    2    0    0 -0.16629812982E+02 -0.26761962367E+00  0.37101800287E+02  0.50528857306E+02  0.29999992266E+02 0.  0.
         12    1    1    2    0    0  0.16629812982E+02  0.26761962367E+00 -0.37101800287E+02  0.40659142694E+02  0.00000000000E+00 0. -1.
         11    1    3    3    0    0  0.29885880421E+01 -0.43743103630E-01  0.18424141388E+01  0.35111340140E+01  0.51100000000E-03 0. -1.
        -11    1    3    3    0    0  0.44218297295E+00  0.88607296334E+01  0.12699449460E+02  0.15491419311E+02  0.51100000000E-03 0.  1.
        -12    1    3    3    0    0 -0.20060583997E+02 -0.90846061534E+01  0.22559936688E+02  0.31526303980E+02  0.00000000000E+00 0.  1.
</event>
<event>
 7    1  0.2575978E-011  0.5052885E+02  0.7816164E-02  0.1300439E+00
        -11   -1    0    0    0    0  0.00000000000E+00  0.00000000000E+00  0.45593999997E+02  0.45594000000E+02  0.51100000000E-03 0. -1.
         11   -1    0    0    0    0 -0.00000000000E+00 -0.00000000000E+00 -0.45593999997E+02  0.45594000000E+02  0.51100000000E-03 0.  1.
    9900012    2    1    2    0    0  0.99232851871E+01  0.21167490746E+01 -0.39372764326E+02  0.50528846219E+02  0.29999958567E+02 0.  0.
         12    1    1    2    0    0 -0.99232851871E+01 -0.21167490746E+01  0.39372764326E+02  0.40659153781E+02  0.00000000000E+00 0. -1.
         11    1    3    3    0    0  0.68790871790E+01 -0.13540784613E+01  0.97312970928E+00  0.70783013914E+01  0.51100000000E-03 0. -1.
        -11    1    3    3    0    0  0.40182870792E+01 -0.46642999782E+01 -0.27747504632E+02  0.28422285955E+02  0.51100000000E-03 0.  1.
        -12    1    3    3    0    0 -0.97408907116E+00  0.81351275141E+01 -0.12598389403E+02  0.15028258873E+02  0.00000000000E+00 0.  1.
</event>
<event>
 7    1  0.2575978E-011  0.5052886E+02  0.7816164E-02  0.1300439E+00
        -11   -1    0    0    0    0  0.00000000000E+00  0.00000000000E+00  0.45593999997E+02  0.45594000000E+02  0.51100000000E-03 0. -1.
         11   -1    0    0    0    0 -0.00000000000E+00 -0.00000000000E+00 -0.45593999997E+02  0.45594000000E+02  0.51100000000E-03 0.  1.
    9900012    2    1    2    0    0 -0.36226766803E+02  0.17627042986E+02 -0.54840420389E+01  0.50528855955E+02  0.29999988160E+02 0.  0.
         12    1    1    2    0    0  0.36226766803E+02 -0.17627042986E+02  0.54840420389E+01  0.40659144045E+02  0.00000000000E+00 0. -1.
         11    1    3    3    0    0 -0.41347171918E+01 -0.31981879540E+01  0.20615899361E+00  0.52313281523E+01  0.51100000000E-03 0. -1.
        -11    1    3    3    0    0 -0.97448751775E+01 -0.39099627061E+01  0.28616596684E+01  0.10882991175E+02  0.51100000000E-03 0.  1.
        -12    1    3    3    0    0 -0.22347174433E+02  0.24735193646E+02 -0.85518607009E+01  0.34414536628E+02  0.00000000000E+00 0.  1.
</event>
<event>
 7    1  0.2575978E-011  0.5052887E+02  0.7816164E-02  0.1300439E+00
        -11   -1    0    0    0    0  0.00000000000E+00  0.00000000000E+00  0.45593999997E+02  0.45594000000E+02  0.51100000000E-03 0. -1.
         11   -1    0    0    0    0 -0.00000000000E+00 -0.00000000000E+00 -0.45593999997E+02  0.45594000000E+02  0.51100000000E-03 0.  1.
    9900012    2    1    2    0    0 -0.29294592532E+02 -0.36290298317E+01 -0.27961083694E+02  0.50528865596E+02  0.30000017465E+02 0.  0.
         12    1    1    2    0    0  0.29294592532E+02  0.36290298317E+01  0.27961083694E+02  0.40659134404E+02  0.00000000000E+00 0. -1.
         11    1    3    3    0    0 -0.35609470301E+01 -0.55152264573E+01 -0.39343069499E+01  0.76535506834E+01  0.51100000000E-03 0. -1.
        -11    1    3    3    0    0 -0.15824857475E+02 -0.87133576125E+01 -0.46246138779E+01  0.18647674621E+02  0.51100000000E-03 0.  1.
        -12    1    3    3    0    0 -0.99087880273E+01  0.10599554238E+02 -0.19402162866E+02  0.24227640292E+02  0.00000000000E+00 0.  1.
</event>
<event>
 7    1  0.2575978E-011  0.5052886E+02  0.7816164E-02  0.1300439E+00
        -11   -1    0    0    0    0  0.00000000000E+00  0.00000000000E+00  0.45593999997E+02  0.45594000000E+02  0.51100000000E-03 0.  1.
         11   -1    0    0    0    0 -0.00000000000E+00 -0.00000000000E+00 -0.45593999997E+02  0.45594000000E+02  0.51100000000E-03 0. -1.
    9900012    2    1    2    0    0  0.71556708751E+00  0.40301841081E+02  0.53306081421E+01  0.50528858176E+02  0.29999994910E+02 0.  0.
         12    1    1    2    0    0 -0.71556708751E+00 -0.40301841081E+02 -0.53306081421E+01  0.40659141824E+02  0.00000000000E+00 0. -1.
         11    1    3    3    0    0  0.22076735014E+01  0.36797040147E+00 -0.92555473020E+00  0.24219571270E+01  0.51100000000E-03 0. -1.
        -11    1    3    3    0    0  0.17762869481E+00  0.14964862845E+01 -0.71938649559E+01  0.73500147223E+01  0.51100000000E-03 0.  1.
        -12    1    3    3    0    0 -0.16697351087E+01  0.38437384395E+02  0.13450027828E+02  0.40756886326E+02  0.00000000000E+00 0.  1.
</event>
<event>
 7    1  0.2575978E-011  0.5052886E+02  0.7816164E-02  0.1300439E+00
        -11   -1    0    0    0    0  0.00000000000E+00  0.00000000000E+00  0.45593999997E+02  0.45594000000E+02  0.51100000000E-03 0.  1.
         11   -1    0    0    0    0 -0.00000000000E+00 -0.00000000000E+00 -0.45593999997E+02  0.45594000000E+02  0.51100000000E-03 0. -1.
    9900012    2    1    2    0    0 -0.30768033560E+01 -0.39916956370E+02  0.70947799941E+01  0.50528855544E+02  0.29999986912E+02 0.  0.
         12    1    1    2    0    0  0.30768033560E+01  0.39916956370E+02 -0.70947799941E+01  0.40659144456E+02  0.00000000000E+00 0. -1.
         11    1    3    3    0    0 -0.52007748133E+01 -0.11334277164E+02  0.27255144386E+01  0.12764886474E+02  0.51100000000E-03 0. -1.
        -11    1    3    3    0    0 -0.99663550877E+01 -0.20585441754E+02  0.10632609359E+01  0.22895833027E+02  0.51100000000E-03 0.  1.
         12    1    3    3    0    0  0.12090326545E+02 -0.79972374523E+01  0.33060046196E+01  0.14868136042E+02  0.00000000000E+00 0. -1.
</event>
<event>
 7    1  0.2575978E-011  0.5052886E+02  0.7816164E-02  0.1300439E+00
        -11   -1    0    0    0    0  0.00000000000E+00  0.00000000000E+00  0.45593999997E+02  0.45594000000E+02  0.51100000000E-03 0.  1.
         11   -1    0    0    0    0 -0.00000000000E+00 -0.00000000000E+00 -0.45593999997E+02  0.45594000000E+02  0.51100000000E-03 0. -1.
    9900012    2    1    2    0    0 -0.25465380979E+02  0.68792216573E+01  0.30941179273E+02  0.50528857192E+02  0.29999991922E+02 0.  0.
         12    1    1    2    0    0  0.25465380979E+02 -0.68792216573E+01 -0.30941179273E+02  0.40659142808E+02  0.00000000000E+00 0. -1.
         11    1    3    3    0    0 -0.16785214492E+01  0.47242391729E+01 -0.41636522969E+01  0.65170446315E+01  0.51100000000E-03 0. -1.
        -11    1    3    3    0    0 -0.15519783708E+02  0.41252128673E+01  0.14165746229E+02  0.21413767395E+02  0.51100000000E-03 0.  1.
        -12    1    3    3    0    0 -0.82670758215E+01 -0.19702303829E+01  0.20939085341E+02  0.22598045166E+02  0.00000000000E+00 0.  1.
</event>
<event>
 7    1  0.2575978E-011  0.5052886E+02  0.7816164E-02  0.1300439E+00
        -11   -1    0    0    0    0  0.00000000000E+00  0.00000000000E+00  0.45593999997E+02  0.45594000000E+02  0.51100000000E-03 0.  1.
         11   -1    0    0    0    0 -0.00000000000E+00 -0.00000000000E+00 -0.45593999997E+02  0.45594000000E+02  0.51100000000E-03 0. -1.
    9900012    2    1    2    0    0  0.35437066497E+02 -0.92298624556E+01  0.17668880302E+02  0.50528863585E+02  0.30000011354E+02 0.  0.
         12    1    1    2    0    0 -0.35437066497E+02  0.92298624556E+01 -0.17668880302E+02  0.40659136415E+02  0.00000000000E+00 0. -1.
         11    1    3    3    0    0  0.69539117507E+01  0.32776360976E+01  0.16726529024E+01  0.78674999217E+01  0.51100000000E-03 0. -1.
        -11    1    3    3    0    0 -0.43082295540E+00  0.53794579789E+01  0.35294929602E+01  0.64483716846E+01  0.51100000000E-03 0.  1.
         12    1    3    3    0    0  0.28913977701E+02 -0.17886956532E+02  0.12466734440E+02  0.36212991979E+02  0.00000000000E+00 0. -1.
</event>
<event>
 7    1  0.2575978E-011  0.5052886E+02  0.7816164E-02  0.1300439E+00
        -11   -1    0    0    0    0  0.00000000000E+00  0.00000000000E+00  0.45593999997E+02  0.45594000000E+02  0.51100000000E-03 0.  1.
         11   -1    0    0    0    0 -0.00000000000E+00 -0.00000000000E+00 -0.45593999997E+02  0.45594000000E+02  0.51100000000E-03 0. -1.
    9900012    2    1    2    0    0  0.33232086360E+02  0.45208413428E+01  0.22985993762E+02  0.50528862287E+02  0.30000007408E+02 0.  0.
         12    1    1    2    0    0 -0.33232086360E+02 -0.45208413428E+01 -0.22985993762E+02  0.40659137713E+02  0.00000000000E+00 0. -1.
         11    1    3    3    0    0 -0.94859822029E+00 -0.26097017540E+01  0.47385392691E+01  0.54921886798E+01  0.51100000000E-03 0. -1.
        -11    1    3    3    0    0  0.11408684429E+02 -0.25669834236E+01  0.16500668594E+02  0.20224231719E+02  0.51100000000E-03 0.  1.
         12    1    3    3    0    0  0.22772000151E+02  0.96975265204E+01  0.17467858991E+01  0.24812441889E+02  0.00000000000E+00 0. -1.
</event>
<event>
 7    1  0.2575978E-011  0.5052886E+02  0.7816164E-02  0.1300439E+00
        -11   -1    0    0    0    0  0.00000000000E+00  0.00000000000E+00  0.45593999997E+02  0.45594000000E+02  0.51100000000E-03 0.  1.
         11   -1    0    0    0    0 -0.00000000000E+00 -0.00000000000E+00 -0.45593999997E+02  0.45594000000E+02  0.51100000000E-03 0. -1.
    9900012    2    1    2    0    0  0.34329196378E+02  0.13652364770E+02  0.16978946976E+02  0.50528862919E+02  0.30000009328E+02 0.  0.
         12    1    1    2    0    0 -0.34329196378E+02 -0.13652364770E+02 -0.16978946976E+02  0.40659137081E+02  0.00000000000E+00 0. -1.
         11    1    3    3    0    0  0.29566572649E+01 -0.65109136664E+01 -0.13962654569E+00  0.71521545555E+01  0.51100000000E-03 0. -1.
        -11    1    3    3    0    0  0.30609865061E+01 -0.21917085422E+01  0.12445946501E+01  0.39651280974E+01  0.51100000000E-03 0.  1.
         12    1    3    3    0    0  0.28311552607E+02  0.22354986978E+02  0.15873978872E+02  0.39411580266E+02  0.00000000000E+00 0. -1.
</event>
<event>
 7    1  0.2575978E-011  0.5052886E+02  0.7816164E-02  0.1300439E+00
        -11   -1    0    0    0    0  0.00000000000E+00  0.00000000000E+00  0.45593999997E+02  0.45594000000E+02  0.51100000000E-03 0.  1.
         11   -1    0    0    0    0 -0.00000000000E+00 -0.00000000000E+00 -0.45593999997E+02  0.45594000000E+02  0.51100000000E-03 0. -1.
    9900012    2    1    2    0    0 -0.22737335840E+02  0.26654004755E+02  0.20633554154E+02  0.50528856285E+02  0.29999989165E+02 0.  0.
         12    1    1    2    0    0  0.22737335840E+02 -0.26654004755E+02 -0.20633554154E+02  0.40659143715E+02  0.00000000000E+00 0. -1.
         11    1    3    3    0    0 -0.89336226970E+01  0.17941814274E+02 -0.27979888560E+01  0.20237268982E+02  0.51100000000E-03 0. -1.
        -11    1    3    3    0    0 -0.59711088561E+01 -0.10429336343E+01  0.42965155630E+01  0.74297979637E+01  0.51100000000E-03 0.  1.
        -12    1    3    3    0    0 -0.78326042873E+01  0.97551241150E+01  0.19135027447E+02  0.22861789340E+02  0.00000000000E+00 0.  1.
</event>
<event>
 7    1  0.2575978E-011  0.5052887E+02  0.7816164E-02  0.1300439E+00
        -11   -1    0    0    0    0  0.00000000000E+00  0.00000000000E+00  0.45593999997E+02  0.45594000000E+02  0.51100000000E-03 0.  1.
         11   -1    0    0    0    0 -0.00000000000E+00 -0.00000000000E+00 -0.45593999997E+02  0.45594000000E+02  0.51100000000E-03 0. -1.
    9900012    2    1    2    0    0 -0.28933002170E+02 -0.28346610427E+02 -0.35378001462E+01  0.50528868589E+02  0.30000026562E+02 0.  0.
         12    1    1    2    0    0  0.28933002170E+02  0.28346610427E+02  0.35378001462E+01  0.40659131411E+02  0.00000000000E+00 0. -1.
         11    1    3    3    0    0 -0.84730074247E+01 -0.20625135558E+02 -0.61524144923E+01  0.23130937636E+02  0.51100000000E-03 0. -1.
        -11    1    3    3    0    0 -0.82509322774E+01 -0.63586358214E+01 -0.63412093435E+01  0.12195124811E+02  0.51100000000E-03 0.  1.
        -12    1    3    3    0    0 -0.12209062468E+02 -0.13628390482E+01  0.89558236896E+01  0.15202806141E+02  0.00000000000E+00 0.  1.
</event>
<event>
 7    1  0.2575978E-011  0.5052888E+02  0.7816164E-02  0.1300439E+00
        -11   -1    0    0    0    0  0.00000000000E+00  0.00000000000E+00  0.45593999997E+02  0.45594000000E+02  0.51100000000E-03 0.  1.
         11   -1    0    0    0    0 -0.00000000000E+00 -0.00000000000E+00 -0.45593999997E+02  0.45594000000E+02  0.51100000000E-03 0. -1.
    9900012    2    1    2    0    0 -0.81933050519E+01 -0.10518959312E+02  0.38410739826E+02  0.50528884335E+02  0.30000074424E+02 0.  0.
         12    1    1    2    0    0  0.81933050519E+01  0.10518959312E+02 -0.38410739826E+02  0.40659115665E+02  0.00000000000E+00 0. -1.
         11    1    3    3    0    0  0.11330543855E+01 -0.12277339606E+02  0.13760406099E+02  0.18476083360E+02  0.51100000000E-03 0. -1.
        -11    1    3    3    0    0 -0.75879085502E+01 -0.70581185769E+01  0.78517135153E+01  0.13001646027E+02  0.51100000000E-03 0.  1.
         12    1    3    3    0    0 -0.17384508872E+01  0.88164988715E+01  0.16798620212E+02  0.19051154949E+02  0.00000000000E+00 0. -1.
</event>
<event>
 7    1  0.2575978E-011  0.5052880E+02  0.7816164E-02  0.1300439E+00
        -11   -1    0    0    0    0  0.00000000000E+00  0.00000000000E+00  0.45593999997E+02  0.45594000000E+02  0.51100000000E-03 0.  1.
         11   -1    0    0    0    0 -0.00000000000E+00 -0.00000000000E+00 -0.45593999997E+02  0.45594000000E+02  0.51100000000E-03 0. -1.
    9900012    2    1    2    0    0 -0.28916792524E+01 -0.38497280573E+02  0.12758066380E+02  0.50528798358E+02  0.29999813088E+02 0.  0.
         12    1    1    2    0    0  0.28916792524E+01  0.38497280573E+02 -0.12758066380E+02  0.40659201642E+02  0.00000000000E+00 0. -1.
         11    1    3    3    0    0  0.54010278300E+01 -0.28558145364E+01 -0.12959549416E+00  0.61109388428E+01  0.51100000000E-03 0. -1.
        -11    1    3    3    0    0 -0.79155069856E+01 -0.39928767891E+01 -0.25189150030E+01  0.92164661853E+01  0.51100000000E-03 0.  1.
        -12    1    3    3    0    0 -0.37720009682E+00 -0.31648589248E+02  0.15406576877E+02  0.35201393330E+02  0.00000000000E+00 0.  1.
</event>
<event>
 7    1  0.2575978E-011  0.5052886E+02  0.7816164E-02  0.1300439E+00
        -11   -1    0    0    0    0  0.00000000000E+00  0.00000000000E+00  0.45593999997E+02  0.45594000000E+02  0.51100000000E-03 0. -1.
         11   -1    0    0    0    0 -0.00000000000E+00 -0.00000000000E+00 -0.45593999997E+02  0.45594000000E+02  0.51100000000E-03 0.  1.
    9900012    2    1    2    0    0  0.23138965921E+02  0.33428212662E+02  0.55552749610E+00  0.50528858882E+02  0.29999997058E+02 0.  0.
         12    1    1    2    0    0 -0.23138965921E+02 -0.33428212662E+02 -0.55552749610E+00  0.40659141118E+02  0.00000000000E+00 0. -1.
         11    1    3    3    0    0  0.39964059961E+01  0.16807853606E+02  0.49304584639E+01  0.17966207854E+02  0.51100000000E-03 0. -1.
        -11    1    3    3    0    0  0.14897707023E+02  0.35861876021E+01  0.48117979278E+01  0.16061002946E+02  0.51100000000E-03 0.  1.
        -12    1    3    3    0    0  0.42448529017E+01  0.13034171453E+02 -0.91867288956E+01  0.16501648082E+02  0.00000000000E+00 0.  1.
</event>
<event>
 7    1  0.2575978E-011  0.5052893E+02  0.7816164E-02  0.1300439E+00
        -11   -1    0    0    0    0  0.00000000000E+00  0.00000000000E+00  0.45593999997E+02  0.45594000000E+02  0.51100000000E-03 0.  1.
         11   -1    0    0    0    0 -0.00000000000E+00 -0.00000000000E+00 -0.45593999997E+02  0.45594000000E+02  0.51100000000E-03 0. -1.
    9900012    2    1    2    0    0  0.29989685147E+01 -0.19244845482E+02  0.35690363820E+02  0.50528930171E+02  0.30000213746E+02 0.  0.
         12    1    1    2    0    0 -0.29989685147E+01  0.19244845482E+02 -0.35690363820E+02  0.40659069829E+02  0.00000000000E+00 0. -1.
         11    1    3    3    0    0  0.31729391704E+01 -0.16654648612E+00  0.21672428711E+02  0.21904096585E+02  0.51100000000E-03 0. -1.
        -11    1    3    3    0    0 -0.17059921964E+01 -0.36258300213E+01  0.12377755848E+02  0.13010222627E+02  0.51100000000E-03 0.  1.
        -12    1    3    3    0    0  0.15320215407E+01 -0.15452468974E+02  0.16401792620E+01  0.15614610959E+02  0.00000000000E+00 0.  1.
</event>
<event>
 7    1  0.2575978E-011  0.5052886E+02  0.7816164E-02  0.1300439E+00
        -11   -1    0    0    0    0  0.00000000000E+00  0.00000000000E+00  0.45593999997E+02  0.45594000000E+02  0.51100000000E-03 0.  1.
         11   -1    0    0    0    0 -0.00000000000E+00 -0.00000000000E+00 -0.45593999997E+02  0.45594000000E+02  0.51100000000E-03 0. -1.
    9900012    2    1    2    0    0  0.30949102921E+02 -0.14437030423E+01  0.26329351139E+02  0.50528856115E+02  0.29999988646E+02 0.  0.
         12    1    1    2    0    0 -0.30949102921E+02  0.14437030423E+01 -0.26329351139E+02  0.40659143885E+02  0.00000000000E+00 0. -1.
         11    1    3    3    0    0  0.52359138597E+00 -0.66328859808E+01  0.83203763871E+01  0.10653543441E+02  0.51100000000E-03 0. -1.
        -11    1    3    3    0    0 -0.10261694354E+01  0.31979474967E+01  0.44312070846E+01  0.55601698166E+01  0.51100000000E-03 0.  1.
        -12    1    3    3    0    0  0.31451680970E+02  0.19912354418E+01  0.13577767668E+02  0.34315142857E+02  0.00000000000E+00 0.  1.
</event>
<event>
 7    1  0.2575978E-011  0.5052885E+02  0.7816164E-02  0.1300439E+00
        -11   -1    0    0    0    0  0.00000000000E+00  0.00000000000E+00  0.45593999997E+02  0.45594000000E+02  0.51100000000E-03 0.  1.
         11   -1    0    0    0    0 -0.00000000000E+00 -0.00000000000E+00 -0.45593999997E+02  0.45594000000E+02  0.51100000000E-03 0. -1.
    9900012    2    1    2    0    0  0.19916960001E+02 -0.16051430420E+02  0.31604312991E+02  0.50528852027E+02  0.29999976222E+02 0.  0.
         12    1    1    2    0    0 -0.19916960001E+02  0.16051430420E+02 -0.31604312991E+02  0.40659147973E+02  0.00000000000E+00 0. -1.
         11    1    3    3    0    0  0.63306248253E+01 -0.19430171735E+01  0.15523684594E+02  0.16877112018E+02  0.51100000000E-03 0. -1.
        -11    1    3    3    0    0  0.70773197446E+01 -0.76799140996E+01  0.20861368044E+02  0.23329513760E+02  0.51100000000E-03 0.  1.
        -12    1    3    3    0    0  0.65090154316E+01 -0.64284991466E+01 -0.47807396473E+01  0.10322226249E+02  0.00000000000E+00 0.  1.
</event>
<event>
 7    1  0.2575978E-011  0.5052886E+02  0.7816164E-02  0.1300439E+00
        -11   -1    0    0    0    0  0.00000000000E+00  0.00000000000E+00  0.45593999997E+02  0.45594000000E+02  0.51100000000E-03 0.  1.
         11   -1    0    0    0    0 -0.00000000000E+00 -0.00000000000E+00 -0.45593999997E+02  0.45594000000E+02  0.51100000000E-03 0. -1.
    9900012    2    1    2    0    0 -0.24000162846E+02  0.11011776333E+02  0.30917609777E+02  0.50528860450E+02  0.30000001823E+02 0.  0.
         12    1    1    2    0    0  0.24000162846E+02 -0.11011776333E+02 -0.30917609777E+02  0.40659139550E+02  0.00000000000E+00 0. -1.
         11    1    3    3    0    0 -0.35799365744E+01 -0.41789492988E+01  0.49246614363E+01  0.73845686158E+01  0.51100000000E-03 0. -1.
        -11    1    3    3    0    0 -0.13314310360E+02 -0.30873043072E+01  0.16290749373E+02  0.21264778946E+02  0.51100000000E-03 0.  1.
        -12    1    3    3    0    0 -0.71059159115E+01  0.18278029939E+02  0.97021989682E+01  0.21879512888E+02  0.00000000000E+00 0.  1.
</event>
<event>
 7    1  0.2575978E-011  0.5052886E+02  0.7816164E-02  0.1300439E+00
        -11   -1    0    0    0    0  0.00000000000E+00  0.00000000000E+00  0.45593999997E+02  0.45594000000E+02  0.51100000000E-03 0. -1.
         11   -1    0    0    0    0 -0.00000000000E+00 -0.00000000000E+00 -0.45593999997E+02  0.45594000000E+02  0.51100000000E-03 0.  1.
    9900012    2    1    2    0    0 -0.23125383215E+02 -0.33441296177E+02 -0.24924229524E+00  0.50528858831E+02  0.29999996903E+02 0.  0.
         12    1    1    2    0    0  0.23125383215E+02  0.33441296177E+02  0.24924229524E+00  0.40659141169E+02  0.00000000000E+00 0. -1.
         11    1    3    3    0    0 -0.14302032467E+01  0.11402748881E+01 -0.13659684758E+01  0.22828881456E+01  0.51100000000E-03 0. -1.
        -11    1    3    3    0    0 -0.15130854334E+02 -0.40790441010E+01  0.57709814483E+01  0.16699867688E+02  0.51100000000E-03 0.  1.
         12    1    3    3    0    0 -0.65643256345E+01 -0.30502526964E+02 -0.46542552677E+01  0.31546102998E+02  0.00000000000E+00 0. -1.
</event>
<event>
 7    1  0.2575978E-011  0.5052886E+02  0.7816164E-02  0.1300439E+00
        -11   -1    0    0    0    0  0.00000000000E+00  0.00000000000E+00  0.45593999997E+02  0.45594000000E+02  0.51100000000E-03 0.  1.
         11   -1    0    0    0    0 -0.00000000000E+00 -0.00000000000E+00 -0.45593999997E+02  0.45594000000E+02  0.51100000000E-03 0. -1.
    9900012    2    1    2    0    0 -0.15803906762E+02  0.19196478311E+02  0.32169822353E+02  0.50528859346E+02  0.29999998469E+02 0.  0.
         12    1    1    2    0    0  0.15803906762E+02 -0.19196478311E+02 -0.32169822353E+02  0.40659140654E+02  0.00000000000E+00 0. -1.
         11    1    3    3    0    0  0.39565725440E+01  0.30313391370E+01  0.13964499755E+02  0.14827364463E+02  0.51100000000E-03 0. -1.
        -11    1    3    3    0    0 -0.15583559121E+01  0.39289053782E+01  0.12273388572E+02  0.12980787261E+02  0.51100000000E-03 0.  1.
         12    1    3    3    0    0 -0.18202123394E+02  0.12236233796E+02  0.59319340261E+01  0.22720707622E+02  0.00000000000E+00 0. -1.
</event>
<event>
 7    1  0.2575978E-011  0.5052886E+02  0.7816164E-02  0.1300439E+00
        -11   -1    0    0    0    0  0.00000000000E+00  0.00000000000E+00  0.45593999997E+02  0.45594000000E+02  0.51100000000E-03 0. -1.
         11   -1    0    0    0    0 -0.00000000000E+00 -0.00000000000E+00 -0.45593999997E+02  0.45594000000E+02  0.51100000000E-03 0.  1.
    9900012    2    1    2    0    0 -0.81758634871E+00  0.35243115063E+02  0.20258833893E+02  0.50528856410E+02  0.29999989543E+02 0.  0.
         12    1    1    2    0    0  0.81758634871E+00 -0.35243115063E+02 -0.20258833893E+02  0.40659143590E+02  0.00000000000E+00 0. -1.
         11    1    3    3    0    0 -0.44506691584E+01 -0.44968430148E+01  0.22479589333E+01  0.67144152898E+01  0.51100000000E-03 0. -1.
        -11    1    3    3    0    0  0.32998289524E+00  0.29008467165E+01  0.85297861732E+00  0.30416070040E+01  0.51100000000E-03 0.  1.
         12    1    3    3    0    0  0.33030999145E+01  0.36839111361E+02  0.17157896342E+02  0.40772834116E+02  0.00000000000E+00 0. -1.
</event>
<event>
 7    1  0.2575978E-011  0.5052886E+02  0.7816164E-02  0.1300439E+00
        -11   -1    0    0    0    0  0.00000000000E+00  0.00000000000E+00  0.45593999997E+02  0.45594000000E+02  0.51100000000E-03 0.  1.
         11   -1    0    0    0    0 -0.00000000000E+00 -0.00000000000E+00 -0.45593999997E+02  0.45594000000E+02  0.51100000000E-03 0. -1.
    9900012    2    1    2    0    0  0.23500737796E+02  0.74920136448E+01  0.32322603693E+02  0.50528860131E+02  0.30000000853E+02 0.  0.
         12    1    1    2    0    0 -0.23500737796E+02 -0.74920136448E+01 -0.32322603693E+02  0.40659139869E+02  0.00000000000E+00 0. -1.
         11    1    3    3    0    0  0.40465454806E-01 -0.51017501434E+01  0.13293859348E+01  0.52722631955E+01  0.51100000000E-03 0. -1.
        -11    1    3    3    0    0  0.22172590041E+01 -0.17135660801E+01  0.14557459039E+02  0.14824714504E+02  0.51100000000E-03 0.  1.
        -12    1    3    3    0    0  0.21243013337E+02  0.14307329868E+02  0.16435758719E+02  0.30431882431E+02  0.00000000000E+00 0.  1.
</event>
<event>
 7    1  0.2575978E-011  0.5052884E+02  0.7816164E-02  0.1300439E+00
        -11   -1    0    0    0    0  0.00000000000E+00  0.00000000000E+00  0.45593999997E+02  0.45594000000E+02  0.51100000000E-03 0. -1.
         11   -1    0    0    0    0 -0.00000000000E+00 -0.00000000000E+00 -0.45593999997E+02  0.45594000000E+02  0.51100000000E-03 0.  1.
    9900012    2    1    2    0    0  0.69373632901E+01  0.39931757221E+02  0.32395703179E+01  0.50528842852E+02  0.29999948332E+02 0.  0.
         12    1    1    2    0    0 -0.69373632901E+01 -0.39931757221E+02 -0.32395703179E+01  0.40659157148E+02  0.00000000000E+00 0. -1.
         11    1    3    3    0    0  0.11329008269E+02  0.14497665359E+02  0.96507844828E+01  0.20776582265E+02  0.51100000000E-03 0. -1.
        -11    1    3    3    0    0  0.17176743868E+01  0.98617340760E+01 -0.81850975396E+01  0.12930584916E+02  0.51100000000E-03 0.  1.
        -12    1    3    3    0    0 -0.61093193656E+01  0.15572357786E+02  0.17738833747E+01  0.16821675671E+02  0.00000000000E+00 0.  1.
</event>
<event>
 7    1  0.2575978E-011  0.5052883E+02  0.7816164E-02  0.1300439E+00
        -11   -1    0    0    0    0  0.00000000000E+00  0.00000000000E+00  0.45593999997E+02  0.45594000000E+02  0.51100000000E-03 0.  1.
         11   -1    0    0    0    0 -0.00000000000E+00 -0.00000000000E+00 -0.45593999997E+02  0.45594000000E+02  0.51100000000E-03 0. -1.
    9900012    2    1    2    0    0  0.41450296914E+01  0.17669178899E+02  0.36383877861E+02  0.50528834707E+02  0.29999923575E+02 0.  0.
         12    1    1    2    0    0 -0.41450296914E+01 -0.17669178899E+02 -0.36383877861E+02  0.40659165293E+02  0.00000000000E+00 0. -1.
         11    1    3    3    0    0  0.81369975960E+00  0.10339581999E+00  0.25558631146E+00  0.85914062766E+00  0.51100000000E-03 0. -1.
        -11    1    3    3    0    0  0.90227729173E+01  0.15974978631E+02  0.65101173463E+01  0.19467716906E+02  0.51100000000E-03 0.  1.
         12    1    3    3    0    0 -0.56914429856E+01  0.15908044479E+01  0.29618174203E+02  0.30201977174E+02  0.00000000000E+00 0. -1.
</event>
<event>
 7    1  0.2575978E-011  0.5052885E+02  0.7816164E-02  0.1300439E+00
        -11   -1    0    0    0    0  0.00000000000E+00  0.00000000000E+00  0.45593999997E+02  0.45594000000E+02  0.51100000000E-03 0.  1.
         11   -1    0    0    0    0 -0.00000000000E+00 -0.00000000000E+00 -0.45593999997E+02  0.45594000000E+02  0.51100000000E-03 0. -1.
    9900012    2    1    2    0    0 -0.29934158541E+02  0.94116894755E+01  0.25855992269E+02  0.50528854872E+02  0.29999984869E+02 0.  0.
         12    1    1    2    0    0  0.29934158541E+02 -0.94116894755E+01 -0.25855992269E+02  0.40659145128E+02  0.00000000000E+00 0. -1.
         11    1    3    3    0    0 -0.21017961818E+02  0.10574089300E+02  0.57767126067E+01  0.24226772223E+02  0.51100000000E-03 0. -1.
        -11    1    3    3    0    0 -0.21941663625E+01 -0.29254732979E+01 -0.12536296359E+01  0.38657919716E+01  0.51100000000E-03 0.  1.
         12    1    3    3    0    0 -0.67220303597E+01  0.17630734731E+01  0.21332909299E+02  0.22436290678E+02  0.00000000000E+00 0. -1.
</event>
<event>
 7    1  0.2575978E-011  0.5052886E+02  0.7816164E-02  0.1300439E+00
        -11   -1    0    0    0    0  0.00000000000E+00  0.00000000000E+00  0.45593999997E+02  0.45594000000E+02  0.51100000000E-03 0.  1.
         11   -1    0    0    0    0 -0.00000000000E+00 -0.00000000000E+00 -0.45593999997E+02  0.45594000000E+02  0.51100000000E-03 0. -1.
    9900012    2    1    2    0    0  0.18407409041E+02  0.34957012512E+02  0.96093650068E+01  0.50528864161E+02  0.30000013103E+02 0.  0.
         12    1    1    2    0    0 -0.18407409041E+02 -0.34957012512E+02 -0.96093650068E+01  0.40659135839E+02  0.00000000000E+00 0. -1.
         11    1    3    3    0    0  0.19664141356E+02  0.18925084512E+02  0.29439506437E+01  0.27450029594E+02  0.51100000000E-03 0. -1.
        -11    1    3    3    0    0  0.19308834079E+01  0.18160177945E+02  0.54974575967E+01  0.19072032246E+02  0.51100000000E-03 0.  1.
         12    1    3    3    0    0 -0.31876157229E+01 -0.21282499448E+01  0.11679567665E+01  0.40068023202E+01  0.00000000000E+00 0. -1.
</event>
<event>
 7    1  0.2575978E-011  0.5052885E+02  0.7816164E-02  0.1300439E+00
        -11   -1    0    0    0    0  0.00000000000E+00  0.00000000000E+00  0.45593999997E+02  0.45594000000E+02  0.51100000000E-03 0.  1.
         11   -1    0    0    0    0 -0.00000000000E+00 -0.00000000000E+00 -0.45593999997E+02  0.45594000000E+02  0.51100000000E-03 0. -1.
    9900012    2    1    2    0    0 -0.28186291163E+02  0.15246542513E+01  0.29263879038E+02  0.50528853471E+02  0.29999980610E+02 0.  0.
         12    1    1    2    0    0  0.28186291163E+02 -0.15246542513E+01 -0.29263879038E+02  0.40659146529E+02  0.00000000000E+00 0. -1.
         11    1    3    3    0    0 -0.18686419332E+01  0.36915802177E+01  0.13783299182E+01  0.43611215074E+01  0.51100000000E-03 0. -1.
        -11    1    3    3    0    0 -0.29014651609E+01 -0.48529293096E+01 -0.37001198398E+01  0.67572413050E+01  0.51100000000E-03 0.  1.
        -12    1    3    3    0    0 -0.23416184069E+02  0.26860033433E+01  0.31585668960E+02  0.39410490659E+02  0.00000000000E+00 0.  1.
</event>
<event>
 7    1  0.2575978E-011  0.5052885E+02  0.7816164E-02  0.1300439E+00
        -11   -1    0    0    0    0  0.00000000000E+00  0.00000000000E+00  0.45593999997E+02  0.45594000000E+02  0.51100000000E-03 0.  1.
         11   -1    0    0    0    0 -0.00000000000E+00 -0.00000000000E+00 -0.45593999997E+02  0.45594000000E+02  0.51100000000E-03 0. -1.
    9900012    2    1    2    0    0 -0.24616287386E+02 -0.30803700479E+02  0.99165046535E+01  0.50528848111E+02  0.29999964317E+02 0.  0.
         12    1    1    2    0    0  0.24616287386E+02  0.30803700479E+02 -0.99165046535E+01  0.40659151889E+02  0.00000000000E+00 0. -1.
         11    1    3    3    0    0 -0.24141911155E+01 -0.10623159163E+02 -0.49330924092E+01  0.11958897538E+02  0.51100000000E-03 0. -1.
        -11    1    3    3    0    0 -0.19605228864E+01 -0.14148232726E+02  0.40430073109E+01  0.14844596581E+02  0.51100000000E-03 0.  1.
         12    1    3    3    0    0 -0.20241573384E+02 -0.60323085887E+01  0.10806589752E+02  0.23725353992E+02  0.00000000000E+00 0. -1.
</event>
<event>
 7    1  0.2575978E-011  0.5052887E+02  0.7816164E-02  0.1300439E+00
        -11   -1    0    0    0    0  0.00000000000E+00  0.00000000000E+00  0.45593999997E+02  0.45594000000E+02  0.51100000000E-03 0. -1.
         11   -1    0    0    0    0 -0.00000000000E+00 -0.00000000000E+00 -0.45593999997E+02  0.45594000000E+02  0.51100000000E-03 0.  1.
    9900012    2    1    2    0    0 -0.40184019709E+02  0.48539218467E+00 -0.61784899926E+01  0.50528870839E+02  0.30000033403E+02 0.  0.
         12    1    1    2    0    0  0.40184019709E+02 -0.48539218467E+00  0.61784899926E+01  0.40659129161E+02  0.00000000000E+00 0. -1.
         11    1    3    3    0    0 -0.10276936223E+02 -0.45122497632E+01  0.56324640274E+01  0.12557884668E+02  0.51100000000E-03 0. -1.
        -11    1    3    3    0    0 -0.17237545954E+02 -0.71594804159E+00  0.31642139650E+01  0.17540177376E+02  0.51100000000E-03 0.  1.
        -12    1    3    3    0    0 -0.12669537532E+02  0.57135899895E+01 -0.14975167985E+02  0.20430808795E+02  0.00000000000E+00 0.  1.
</event>
<event>
 7    1  0.2575978E-011  0.5052886E+02  0.7816164E-02  0.1300439E+00
        -11   -1    0    0    0    0  0.00000000000E+00  0.00000000000E+00  0.45593999997E+02  0.45594000000E+02  0.51100000000E-03 0.  1.
         11   -1    0    0    0    0 -0.00000000000E+00 -0.00000000000E+00 -0.45593999997E+02  0.45594000000E+02  0.51100000000E-03 0. -1.
    9900012    2    1    2    0    0  0.21144950620E+02  0.17804877851E+02  0.29816825217E+02  0.50528859847E+02  0.29999999990E+02 0.  0.
         12    1    1    2    0    0 -0.21144950620E+02 -0.17804877851E+02 -0.29816825217E+02  0.40659140153E+02  0.00000000000E+00 0. -1.
         11    1    3    3    0    0  0.56748694040E+01  0.54813365903E+01  0.21233979470E+01  0.81705576719E+01  0.51100000000E-03 0. -1.
        -11    1    3    3    0    0  0.15565870220E+02  0.18245145928E+02  0.14831830620E+02  0.28198667796E+02  0.51100000000E-03 0.  1.
         12    1    3    3    0    0 -0.95789004143E-01 -0.59216046674E+01  0.12861596650E+02  0.14159634379E+02  0.00000000000E+00 0. -1.
</event>
<event>
 7    1  0.2575978E-011  0.5052887E+02  0.7816164E-02  0.1300439E+00
        -11   -1    0    0    0    0  0.00000000000E+00  0.00000000000E+00  0.45593999997E+02  0.45594000000E+02  0.51100000000E-03 0.  1.
         11   -1    0    0    0    0 -0.00000000000E+00 -0.00000000000E+00 -0.45593999997E+02  0.45594000000E+02  0.51100000000E-03 0. -1.
    9900012    2    1    2    0    0 -0.75517757765E+01  0.39750935430E+02  0.39998334659E+01  0.50528869996E+02  0.30000030841E+02 0.  0.
         12    1    1    2    0    0  0.75517757765E+01 -0.39750935430E+02 -0.39998334659E+01  0.40659130004E+02  0.00000000000E+00 0. -1.
         11    1    3    3    0    0 -0.10756326550E+02  0.27789058217E+02  0.13712925668E+02  0.32802052498E+02  0.51100000000E-03 0.  1.
        -11    1    3    3    0    0  0.20995448497E+01 -0.57814181705E+00 -0.20405786626E+01  0.29843421513E+01  0.51100000000E-03 0. -1.
        -12    1    3    3    0    0  0.11050059240E+01  0.12540019030E+02 -0.76725135391E+01  0.14742475347E+02  0.00000000000E+00 0.  1.
</event>
<event>
 7    1  0.2575978E-011  0.5052889E+02  0.7816164E-02  0.1300439E+00
        -11   -1    0    0    0    0  0.00000000000E+00  0.00000000000E+00  0.45593999997E+02  0.45594000000E+02  0.51100000000E-03 0.  1.
         11   -1    0    0    0    0 -0.00000000000E+00 -0.00000000000E+00 -0.45593999997E+02  0.45594000000E+02  0.51100000000E-03 0. -1.
    9900012    2    1    2    0    0  0.28550424277E+02 -0.21696756553E+02  0.19164740880E+02  0.50528889529E+02  0.30000090212E+02 0.  0.
         12    1    1    2    0    0 -0.28550424277E+02  0.21696756553E+02 -0.19164740880E+02  0.40659110471E+02  0.00000000000E+00 0. -1.
         11    1    3    3    0    0  0.87143013838E+00  0.34993572773E+01  0.25066971283E+00  0.36149311759E+01  0.51100000000E-03 0. -1.
        -11    1    3    3    0    0  0.15228600222E+02 -0.24594169441E+02  0.18703726754E+02  0.34447247059E+02  0.51100000000E-03 0.  1.
         12    1    3    3    0    0  0.12450393916E+02 -0.60194438906E+00  0.21034441356E+00  0.12466711294E+02  0.00000000000E+00 0. -1.
</event>
<event>
 7    1  0.2575978E-011  0.5052886E+02  0.7816164E-02  0.1300439E+00
        -11   -1    0    0    0    0  0.00000000000E+00  0.00000000000E+00  0.45593999997E+02  0.45594000000E+02  0.51100000000E-03 0.  1.
         11   -1    0    0    0    0 -0.00000000000E+00 -0.00000000000E+00 -0.45593999997E+02  0.45594000000E+02  0.51100000000E-03 0. -1.
    9900012    2    1    2    0    0  0.76756739738E+01 -0.39914048059E+02 -0.10577095546E+01  0.50528856466E+02  0.29999989713E+02 0.  0.
         12    1    1    2    0    0 -0.76756739738E+01  0.39914048059E+02  0.10577095546E+01  0.40659143534E+02  0.00000000000E+00 0. -1.
         11    1    3    3    0    0  0.74894536077E+01 -0.60989366844E+01  0.87618921097E+01  0.13040693909E+02  0.51100000000E-03 0. -1.
        -11    1    3    3    0    0 -0.28168075988E+01 -0.80310340967E+00 -0.47485051602E-01  0.29294428185E+01  0.51100000000E-03 0.  1.
        -12    1    3    3    0    0  0.30030279650E+01 -0.33012007965E+02 -0.97721166127E+01  0.34558719738E+02  0.00000000000E+00 0.  1.
</event>
<event>
 7    1  0.2575978E-011  0.5052884E+02  0.7816164E-02  0.1300439E+00
        -11   -1    0    0    0    0  0.00000000000E+00  0.00000000000E+00  0.45593999997E+02  0.45594000000E+02  0.51100000000E-03 0. -1.
         11   -1    0    0    0    0 -0.00000000000E+00 -0.00000000000E+00 -0.45593999997E+02  0.45594000000E+02  0.51100000000E-03 0.  1.
    9900012    2    1    2    0    0 -0.28390696831E+02 -0.26082833490E+02 -0.12915924087E+02  0.50528844028E+02  0.29999951906E+02 0.  0.
         12    1    1    2    0    0  0.28390696831E+02  0.26082833490E+02  0.12915924087E+02  0.40659155972E+02  0.00000000000E+00 0. -1.
         11    1    3    3    0    0  0.18569486852E+01 -0.27278565055E+01  0.36120785170E+01  0.48925015083E+01  0.51100000000E-03 0. -1.
        -11    1    3    3    0    0 -0.25576214728E+02 -0.24389127659E+02 -0.19134052154E+02  0.40188110927E+02  0.51100000000E-03 0.  1.
         12    1    3    3    0    0 -0.46714307881E+01  0.10341506751E+01  0.26060495503E+01  0.54482315924E+01  0.00000000000E+00 0. -1.
</event>
<event>
 7    1  0.2575978E-011  0.5052886E+02  0.7816164E-02  0.1300439E+00
        -11   -1    0    0    0    0  0.00000000000E+00  0.00000000000E+00  0.45593999997E+02  0.45594000000E+02  0.51100000000E-03 0.  1.
         11   -1    0    0    0    0 -0.00000000000E+00 -0.00000000000E+00 -0.45593999997E+02  0.45594000000E+02  0.51100000000E-03 0. -1.
    9900012    2    1    2    0    0 -0.28206306822E+02 -0.12681840600E+02  0.26395849819E+02  0.50528859414E+02  0.29999998674E+02 0.  0.
         12    1    1    2    0    0  0.28206306822E+02  0.12681840600E+02 -0.26395849819E+02  0.40659140586E+02  0.00000000000E+00 0. -1.
         11    1    3    3    0    0 -0.89649325675E+00  0.32682355252E+01  0.63540680623E+01  0.72013363211E+01  0.51100000000E-03 0. -1.
        -11    1    3    3    0    0 -0.71717474699E+01 -0.68776035009E+01  0.18728410131E+02  0.21201149449E+02  0.51100000000E-03 0.  1.
         12    1    3    3    0    0 -0.20138066095E+02 -0.90724726245E+01  0.13133716257E+01  0.22126373644E+02  0.00000000000E+00 0. -1.
</event>
<event>
 7    1  0.2575978E-011  0.5052887E+02  0.7816164E-02  0.1300439E+00
        -11   -1    0    0    0    0  0.00000000000E+00  0.00000000000E+00  0.45593999997E+02  0.45594000000E+02  0.51100000000E-03 0.  1.
         11   -1    0    0    0    0 -0.00000000000E+00 -0.00000000000E+00 -0.45593999997E+02  0.45594000000E+02  0.51100000000E-03 0. -1.
    9900012    2    1    2    0    0 -0.13710733052E+02 -0.81429700337E+01  0.37401508696E+02  0.50528868006E+02  0.30000024791E+02 0.  0.
         12    1    1    2    0    0  0.13710733052E+02  0.81429700337E+01 -0.37401508696E+02  0.40659131994E+02  0.00000000000E+00 0. -1.
         11    1    3    3    0    0 -0.41473472501E+01 -0.52307151376E+01  0.63045479994E+01  0.91819494554E+01  0.51100000000E-03 0. -1.
        -11    1    3    3    0    0 -0.16548273049E+02 -0.21749832674E+01  0.10827386092E+02  0.19894928574E+02  0.51100000000E-03 0.  1.
         12    1    3    3    0    0  0.69848872472E+01 -0.73727162870E+00  0.20269574605E+02  0.21451989977E+02  0.00000000000E+00 0. -1.
</event>
<event>
 7    1  0.2575978E-011  0.5052886E+02  0.7816164E-02  0.1300439E+00
        -11   -1    0    0    0    0  0.00000000000E+00  0.00000000000E+00  0.45593999997E+02  0.45594000000E+02  0.51100000000E-03 0. -1.
         11   -1    0    0    0    0 -0.00000000000E+00 -0.00000000000E+00 -0.45593999997E+02  0.45594000000E+02  0.51100000000E-03 0.  1.
    9900012    2    1    2    0    0 -0.38015042486E+02 -0.84675336852E+01 -0.11675763178E+02  0.50528855547E+02  0.29999986920E+02 0.  0.
         12    1    1    2    0    0  0.38015042486E+02  0.84675336852E+01  0.11675763178E+02  0.40659144453E+02  0.00000000000E+00 0. -1.
         11    1    3    3    0    0 -0.92757389033E+01  0.54721646518E+01 -0.14040767258E+02  0.17695396679E+02  0.51100000000E-03 0. -1.
        -11    1    3    3    0    0 -0.26303319033E+01  0.51217672212E+00  0.12854701955E+01  0.29721044398E+01  0.51100000000E-03 0.  1.
        -12    1    3    3    0    0 -0.26108971679E+02 -0.14451875059E+02  0.10795338849E+01  0.29861354428E+02  0.00000000000E+00 0.  1.
</event>
<event>
 7    1  0.2575978E-011  0.5052886E+02  0.7816164E-02  0.1300439E+00
        -11   -1    0    0    0    0  0.00000000000E+00  0.00000000000E+00  0.45593999997E+02  0.45594000000E+02  0.51100000000E-03 0.  1.
         11   -1    0    0    0    0 -0.00000000000E+00 -0.00000000000E+00 -0.45593999997E+02  0.45594000000E+02  0.51100000000E-03 0. -1.
    9900012    2    1    2    0    0 -0.35253460802E+02  0.17917791061E+02  0.94505159040E+01  0.50528856061E+02  0.29999988482E+02 0.  0.
         12    1    1    2    0    0  0.35253460802E+02 -0.17917791061E+02 -0.94505159040E+01  0.40659143939E+02  0.00000000000E+00 0. -1.
         11    1    3    3    0    0 -0.44013599188E+01 -0.42768591530E+01  0.21336029948E+01  0.64973652622E+01  0.51100000000E-03 0. -1.
        -11    1    3    3    0    0 -0.28517615458E+02  0.13285371645E+02 -0.12052946028E+01  0.31483459570E+02  0.51100000000E-03 0.  1.
         12    1    3    3    0    0 -0.23344854249E+01  0.89092785697E+01  0.85222075119E+01  0.12548031228E+02  0.00000000000E+00 0. -1.
</event>
<event>
 7    1  0.2575978E-011  0.5052882E+02  0.7816164E-02  0.1300439E+00
        -11   -1    0    0    0    0  0.00000000000E+00  0.00000000000E+00  0.45593999997E+02  0.45594000000E+02  0.51100000000E-03 0.  1.
         11   -1    0    0    0    0 -0.00000000000E+00 -0.00000000000E+00 -0.45593999997E+02  0.45594000000E+02  0.51100000000E-03 0. -1.
    9900012    2    1    2    0    0  0.15897837884E+02 -0.37420607102E+02 -0.35417390448E+00  0.50528824844E+02  0.29999893595E+02 0.  0.
         12    1    1    2    0    0 -0.15897837884E+02  0.37420607102E+02  0.35417390448E+00  0.40659175156E+02  0.00000000000E+00 0. -1.
         11    1    3    3    0    0  0.77281366126E+01 -0.17748693274E+02  0.91272638280E+01  0.21402036204E+02  0.51100000000E-03 0. -1.
        -11    1    3    3    0    0  0.36177126019E+00  0.24621601658E+00  0.38791556829E+01  0.39037609871E+01  0.51100000000E-03 0.  1.
         12    1    3    3    0    0  0.78079300112E+01 -0.19918129844E+02 -0.13360593415E+02  0.25223027652E+02  0.00000000000E+00 0. -1.
</event>
<event>
 7    1  0.2575978E-011  0.5052886E+02  0.7816164E-02  0.1300439E+00
        -11   -1    0    0    0    0  0.00000000000E+00  0.00000000000E+00  0.45593999997E+02  0.45594000000E+02  0.51100000000E-03 0.  1.
         11   -1    0    0    0    0 -0.00000000000E+00 -0.00000000000E+00 -0.45593999997E+02  0.45594000000E+02  0.51100000000E-03 0. -1.
    9900012    2    1    2    0    0  0.28771499407E+02 -0.69415254846E+01  0.27877977977E+02  0.50528860680E+02  0.30000002523E+02 0.  0.
         12    1    1    2    0    0 -0.28771499407E+02  0.69415254846E+01 -0.27877977977E+02  0.40659139320E+02  0.00000000000E+00 0. -1.
         11    1    3    3    0    0  0.87303295205E+01 -0.24483034338E+01 -0.36241349041E+01  0.97645889471E+01  0.51100000000E-03 0. -1.
        -11    1    3    3    0    0  0.93369223293E+00 -0.19229094602E+01 -0.14524444822E+01  0.25843678556E+01  0.51100000000E-03 0.  1.
        -12    1    3    3    0    0  0.19107477653E+02 -0.25703125906E+01  0.32954557363E+02  0.38179903877E+02  0.00000000000E+00 0.  1.
</event>
<event>
 7    1  0.2575978E-011  0.5052886E+02  0.7816164E-02  0.1300439E+00
        -11   -1    0    0    0    0  0.00000000000E+00  0.00000000000E+00  0.45593999997E+02  0.45594000000E+02  0.51100000000E-03 0.  1.
         11   -1    0    0    0    0 -0.00000000000E+00 -0.00000000000E+00 -0.45593999997E+02  0.45594000000E+02  0.51100000000E-03 0. -1.
    9900012    2    1    2    0    0  0.26525772580E+02  0.27097954127E+02  0.14671408124E+02  0.50528856562E+02  0.29999990005E+02 0.  0.
         12    1    1    2    0    0 -0.26525772580E+02 -0.27097954127E+02 -0.14671408124E+02  0.40659143438E+02  0.00000000000E+00 0. -1.
         11    1    3    3    0    0 -0.24888515955E+01  0.20641176016E+01  0.42291260250E+00  0.32609537053E+01  0.51100000000E-03 0.  1.
        -11    1    3    3    0    0  0.24154005162E+01 -0.11653771969E+01 -0.46910611264E+01  0.54035468368E+01  0.51100000000E-03 0. -1.
        -12    1    3    3    0    0  0.26599223659E+02  0.26199213722E+02  0.18939556647E+02  0.41864356020E+02  0.00000000000E+00 0.  1.
</event>
<event>
 7    1  0.2575978E-011  0.5052886E+02  0.7816164E-02  0.1300439E+00
        -11   -1    0    0    0    0  0.00000000000E+00  0.00000000000E+00  0.45593999997E+02  0.45594000000E+02  0.51100000000E-03 0.  1.
         11   -1    0    0    0    0 -0.00000000000E+00 -0.00000000000E+00 -0.45593999997E+02  0.45594000000E+02  0.51100000000E-03 0. -1.
    9900012    2    1    2    0    0  0.88182537039E+01  0.24852715483E+01  0.39613472036E+02  0.50528864006E+02  0.30000012633E+02 0.  0.
         12    1    1    2    0    0 -0.88182537039E+01 -0.24852715483E+01 -0.39613472036E+02  0.40659135994E+02  0.00000000000E+00 0. -1.
         11    1    3    3    0    0  0.63811914387E+01  0.64989333306E+01  0.72712661102E+01  0.11654486249E+02  0.51100000000E-03 0. -1.
        -11    1    3    3    0    0  0.80104696608E+01  0.58424709275E+01  0.11747079501E+02  0.15371921409E+02  0.51100000000E-03 0.  1.
        -12    1    3    3    0    0 -0.55734073956E+01 -0.98561327099E+01  0.20595126424E+02  0.23502456349E+02  0.00000000000E+00 0.  1.
</event>
<event>
 7    1  0.2575978E-011  0.5052887E+02  0.7816164E-02  0.1300439E+00
        -11   -1    0    0    0    0  0.00000000000E+00  0.00000000000E+00  0.45593999997E+02  0.45594000000E+02  0.51100000000E-03 0.  1.
         11   -1    0    0    0    0 -0.00000000000E+00 -0.00000000000E+00 -0.45593999997E+02  0.45594000000E+02  0.51100000000E-03 0. -1.
    9900012    2    1    2    0    0  0.19458004582E+01 -0.39091597875E+02  0.11010271654E+02  0.50528865162E+02  0.30000016148E+02 0.  0.
         12    1    1    2    0    0 -0.19458004582E+01  0.39091597875E+02 -0.11010271654E+02  0.40659134838E+02  0.00000000000E+00 0. -1.
         11    1    3    3    0    0  0.10366283673E+02 -0.80843463105E+01 -0.30309882141E+01  0.13490862918E+02  0.51100000000E-03 0. -1.
        -11    1    3    3    0    0 -0.54339773558E+01 -0.48360444476E+01  0.61906584902E+01  0.95519468490E+01  0.51100000000E-03 0.  1.
        -12    1    3    3    0    0 -0.29865058590E+01 -0.26171207117E+02  0.78506013775E+01  0.27486055395E+02  0.00000000000E+00 0.  1.
</event>
<event>
 7    1  0.2575978E-011  0.5052886E+02  0.7816164E-02  0.1300439E+00
        -11   -1    0    0    0    0  0.00000000000E+00  0.00000000000E+00  0.45593999997E+02  0.45594000000E+02  0.51100000000E-03 0. -1.
         11   -1    0    0    0    0 -0.00000000000E+00 -0.00000000000E+00 -0.45593999997E+02  0.45594000000E+02  0.51100000000E-03 0.  1.
    9900012    2    1    2    0    0  0.40612866227E+02  0.17235953195E+01  0.88885417742E+00  0.50528859014E+02  0.29999997458E+02 0.  0.
         12    1    1    2    0    0 -0.40612866227E+02 -0.17235953195E+01 -0.88885417742E+00  0.40659140986E+02  0.00000000000E+00 0. -1.
         11    1    3    3    0    0 -0.34343510514E+01 -0.54687647778E+00  0.30577540481E+01  0.46307344024E+01  0.51100000000E-03 0. -1.
        -11    1    3    3    0    0 -0.14261473181E+00  0.15969535747E+01  0.31279929680E+00  0.16335370649E+01  0.51100000000E-03 0.  1.
        -12    1    3    3    0    0  0.44189832010E+02  0.67351822261E+00 -0.24816991675E+01  0.44264587546E+02  0.00000000000E+00 0.  1.
</event>
<event>
 7    1  0.2575978E-011  0.5052888E+02  0.7816164E-02  0.1300439E+00
        -11   -1    0    0    0    0  0.00000000000E+00  0.00000000000E+00  0.45593999997E+02  0.45594000000E+02  0.51100000000E-03 0.  1.
         11   -1    0    0    0    0 -0.00000000000E+00 -0.00000000000E+00 -0.45593999997E+02  0.45594000000E+02  0.51100000000E-03 0. -1.
    9900012    2    1    2    0    0  0.38013915117E+02 -0.17105168917E+01  0.14324133904E+02  0.50528875284E+02  0.30000046914E+02 0.  0.
         12    1    1    2    0    0 -0.38013915117E+02  0.17105168917E+01 -0.14324133904E+02  0.40659124716E+02  0.00000000000E+00 0. -1.
         11    1    3    3    0    0  0.23124356629E+02 -0.68262686302E+01  0.92287763867E+01  0.25816741212E+02  0.51100000000E-03 0. -1.
        -11    1    3    3    0    0  0.13279154641E+02  0.67229239529E+01  0.10919131214E+02  0.18459715089E+02  0.51100000000E-03 0.  1.
         12    1    3    3    0    0  0.16104038472E+01 -0.16071722144E+01 -0.58237736967E+01  0.62524189838E+01  0.00000000000E+00 0. -1.
</event>
<event>
 7    1  0.2575978E-011  0.5052885E+02  0.7816164E-02  0.1300439E+00
        -11   -1    0    0    0    0  0.00000000000E+00  0.00000000000E+00  0.45593999997E+02  0.45594000000E+02  0.51100000000E-03 0.  1.
         11   -1    0    0    0    0 -0.00000000000E+00 -0.00000000000E+00 -0.45593999997E+02  0.45594000000E+02  0.51100000000E-03 0. -1.
    9900012    2    1    2    0    0  0.22620611296E+02  0.59847526332E+01  0.33251419975E+02  0.50528852814E+02  0.29999978615E+02 0.  0.
         12    1    1    2    0    0 -0.22620611296E+02 -0.59847526332E+01 -0.33251419975E+02  0.40659147186E+02  0.00000000000E+00 0. -1.
         11    1    3    3    0    0  0.70040369340E+01  0.84463173670E+01  0.32410257306E+01  0.11441200046E+02  0.51100000000E-03 0. -1.
        -11    1    3    3    0    0  0.14585059801E+02  0.39779382783E+01  0.10214314562E+02  0.18245004373E+02  0.51100000000E-03 0.  1.
        -12    1    3    3    0    0  0.10315145608E+01 -0.64395030121E+01  0.19796079683E+02  0.20842648396E+02  0.00000000000E+00 0.  1.
</event>
<event>
 7    1  0.2575978E-011  0.5052886E+02  0.7816164E-02  0.1300439E+00
        -11   -1    0    0    0    0  0.00000000000E+00  0.00000000000E+00  0.45593999997E+02  0.45594000000E+02  0.51100000000E-03 0.  1.
         11   -1    0    0    0    0 -0.00000000000E+00 -0.00000000000E+00 -0.45593999997E+02  0.45594000000E+02  0.51100000000E-03 0. -1.
    9900012    2    1    2    0    0 -0.13763822454E+02  0.37526794741E+02 -0.74473244913E+01  0.50528858664E+02  0.29999996396E+02 0.  0.
         12    1    1    2    0    0  0.13763822454E+02 -0.37526794741E+02  0.74473244913E+01  0.40659141336E+02  0.00000000000E+00 0. -1.
         11    1    3    3    0    0 -0.88006769925E+01  0.10199591761E+01 -0.32754497570E+01  0.94456764511E+01  0.51100000000E-03 0. -1.
        -11    1    3    3    0    0 -0.81340860549E+01  0.81205732707E+01  0.24748125609E+01  0.11757200503E+02  0.51100000000E-03 0.  1.
         12    1    3    3    0    0  0.31709405938E+01  0.28386262294E+02 -0.66466872951E+01  0.29325981710E+02  0.00000000000E+00 0. -1.
</event>
<event>
 7    1  0.2575978E-011  0.5052886E+02  0.7816164E-02  0.1300439E+00
        -11   -1    0    0    0    0  0.00000000000E+00  0.00000000000E+00  0.45593999997E+02  0.45594000000E+02  0.51100000000E-03 0. -1.
         11   -1    0    0    0    0 -0.00000000000E+00 -0.00000000000E+00 -0.45593999997E+02  0.45594000000E+02  0.51100000000E-03 0.  1.
    9900012    2    1    2    0    0  0.34938700207E+02  0.10639034545E+02 -0.17867959203E+02  0.50528858417E+02  0.29999995643E+02 0.  0.
         12    1    1    2    0    0 -0.34938700207E+02 -0.10639034545E+02  0.17867959203E+02  0.40659141583E+02  0.00000000000E+00 0. -1.
         11    1    3    3    0    0  0.94707809954E+01  0.89791967165E+01 -0.11713839360E+02  0.17536695788E+02  0.51100000000E-03 0. -1.
        -11    1    3    3    0    0  0.12414878597E+02  0.65954078135E+00 -0.13193534129E+02  0.18128252748E+02  0.51100000000E-03 0.  1.
        -12    1    3    3    0    0  0.13053040615E+02  0.10002970467E+01  0.70394142854E+01  0.14863909881E+02  0.00000000000E+00 0.  1.
</event>
<event>
 7    1  0.2575978E-011  0.5052886E+02  0.7816164E-02  0.1300439E+00
        -11   -1    0    0    0    0  0.00000000000E+00  0.00000000000E+00  0.45593999997E+02  0.45594000000E+02  0.51100000000E-03 0.  1.
         11   -1    0    0    0    0 -0.00000000000E+00 -0.00000000000E+00 -0.45593999997E+02  0.45594000000E+02  0.51100000000E-03 0. -1.
    9900012    2    1    2    0    0 -0.31558625650E+02 -0.96997813948E+01  0.23730418069E+02  0.50528863834E+02  0.30000012109E+02 0.  0.
         12    1    1    2    0    0  0.31558625650E+02  0.96997813948E+01 -0.23730418069E+02  0.40659136166E+02  0.00000000000E+00 0. -1.
         11    1    3    3    0    0 -0.59548715551E+01 -0.12261734536E+02  0.17004457888E+02  0.21793627908E+02  0.51100000000E-03 0. -1.
        -11    1    3    3    0    0 -0.67164390490E+01 -0.38566848647E+01  0.36107082139E+01  0.85452785626E+01  0.51100000000E-03 0.  1.
        -12    1    3    3    0    0 -0.18887315046E+02  0.64186380063E+01  0.31152519680E+01  0.20189957363E+02  0.00000000000E+00 0.  1.
</event>
<event>
 7    1  0.2575978E-011  0.5052874E+02  0.7816164E-02  0.1300439E+00
        -11   -1    0    0    0    0  0.00000000000E+00  0.00000000000E+00  0.45593999997E+02  0.45594000000E+02  0.51100000000E-03 0.  1.
         11   -1    0    0    0    0 -0.00000000000E+00 -0.00000000000E+00 -0.45593999997E+02  0.45594000000E+02  0.51100000000E-03 0. -1.
    9900012    2    1    2    0    0 -0.38937875234E+02  0.11684157644E+02 -0.70526509236E+00  0.50528744394E+02  0.29999649057E+02 0.  0.
         12    1    1    2    0    0  0.38937875234E+02 -0.11684157644E+02  0.70526509236E+00  0.40659255606E+02  0.00000000000E+00 0. -1.
         11    1    3    3    0    0 -0.10800579125E+02  0.57902184383E+00  0.86477424685E+01  0.13848148822E+02  0.51100000000E-03 0. -1.
        -11    1    3    3    0    0 -0.54790495173E+01 -0.48437672778E+01  0.35196531237E+00  0.73216080813E+01  0.51100000000E-03 0.  1.
         12    1    3    3    0    0 -0.22658246592E+02  0.15948903078E+02 -0.97049728732E+01  0.29358987491E+02  0.00000000000E+00 0. -1.
</event>
<event>
 7    1  0.2575978E-011  0.5052885E+02  0.7816164E-02  0.1300439E+00
        -11   -1    0    0    0    0  0.00000000000E+00  0.00000000000E+00  0.45593999997E+02  0.45594000000E+02  0.51100000000E-03 0. -1.
         11   -1    0    0    0    0 -0.00000000000E+00 -0.00000000000E+00 -0.45593999997E+02  0.45594000000E+02  0.51100000000E-03 0.  1.
    9900012    2    1    2    0    0 -0.21076830865E+02  0.59264382510E+01 -0.34260927223E+02  0.50528848461E+02  0.29999965383E+02 0.  0.
         12    1    1    2    0    0  0.21076830865E+02 -0.59264382510E+01  0.34260927223E+02  0.40659151539E+02  0.00000000000E+00 0. -1.
         11    1    3    3    0    0  0.21477207564E+01  0.12373235681E+01  0.16521603295E+01  0.29788098420E+01  0.51100000000E-03 0. -1.
        -11    1    3    3    0    0  0.92726759867E+00 -0.34015009114E+01 -0.51468841319E-02  0.35256290788E+01  0.51100000000E-03 0.  1.
        -12    1    3    3    0    0 -0.24151819220E+02  0.80906155942E+01 -0.35907940668E+02  0.44024409540E+02  0.00000000000E+00 0.  1.
</event>
<event>
 7    1  0.2575978E-011  0.5052879E+02  0.7816164E-02  0.1300439E+00
        -11   -1    0    0    0    0  0.00000000000E+00  0.00000000000E+00  0.45593999997E+02  0.45594000000E+02  0.51100000000E-03 0.  1.
         11   -1    0    0    0    0 -0.00000000000E+00 -0.00000000000E+00 -0.45593999997E+02  0.45594000000E+02  0.51100000000E-03 0. -1.
    9900012    2    1    2    0    0  0.12553923209E+02  0.14041790347E+01  0.38647106563E+02  0.50528787607E+02  0.29999780410E+02 0.  0.
         12    1    1    2    0    0 -0.12553923209E+02 -0.14041790347E+01 -0.38647106563E+02  0.40659212393E+02  0.00000000000E+00 0. -1.
         11    1    3    3    0    0 -0.91011502746E+00 -0.82392834542E+01  0.21083105013E+02  0.22654170001E+02  0.51100000000E-03 0.  1.
        -11    1    3    3    0    0 -0.21524252088E+01  0.48549744255E+01  0.42910244755E+01  0.68276351881E+01  0.51100000000E-03 0. -1.
        -12    1    3    3    0    0  0.15616463445E+02  0.47884880634E+01  0.13272977075E+02  0.21046982418E+02  0.00000000000E+00 0.  1.
</event>
<event>
 7    1  0.2575978E-011  0.5052888E+02  0.7816164E-02  0.1300439E+00
        -11   -1    0    0    0    0  0.00000000000E+00  0.00000000000E+00  0.45593999997E+02  0.45594000000E+02  0.51100000000E-03 0. -1.
         11   -1    0    0    0    0 -0.00000000000E+00 -0.00000000000E+00 -0.45593999997E+02  0.45594000000E+02  0.51100000000E-03 0.  1.
    9900012    2    1    2    0    0  0.75926798022E+01  0.32306291278E+02  0.23490831438E+02  0.50528875509E+02  0.30000047597E+02 0.  0.
         12    1    1    2    0    0 -0.75926798022E+01 -0.32306291278E+02 -0.23490831438E+02  0.40659124491E+02  0.00000000000E+00 0. -1.
         11    1    3    3    0    0 -0.37494194931E+01 -0.73850074281E+00  0.14793821196E+01  0.40978166869E+01  0.51100000000E-03 0. -1.
        -11    1    3    3    0    0  0.10213141548E+02  0.24252599995E+02  0.25743233810E+02  0.36813189947E+02  0.51100000000E-03 0.  1.
         12    1    3    3    0    0  0.11289577472E+01  0.87921920258E+01 -0.37317844915E+01  0.96178688754E+01  0.00000000000E+00 0. -1.
</event>
<event>
 7    1  0.2575978E-011  0.5052886E+02  0.7816164E-02  0.1300439E+00
        -11   -1    0    0    0    0  0.00000000000E+00  0.00000000000E+00  0.45593999997E+02  0.45594000000E+02  0.51100000000E-03 0.  1.
         11   -1    0    0    0    0 -0.00000000000E+00 -0.00000000000E+00 -0.45593999997E+02  0.45594000000E+02  0.51100000000E-03 0. -1.
    9900012    2    1    2    0    0 -0.25801693433E+02  0.31344579733E+02  0.22260411197E+01  0.50528864228E+02  0.30000013308E+02 0.  0.
         12    1    1    2    0    0  0.25801693433E+02 -0.31344579733E+02 -0.22260411197E+01  0.40659135772E+02  0.00000000000E+00 0. -1.
         11    1    3    3    0    0 -0.87013934051E+01  0.93556091926E+01  0.12047828852E+02  0.17561089114E+02  0.51100000000E-03 0.  1.
        -11    1    3    3    0    0 -0.17936858827E+01  0.65611277200E+00  0.31487026509E+01  0.36826785986E+01  0.51100000000E-03 0. -1.
         12    1    3    3    0    0 -0.15306614145E+02  0.21332857768E+02 -0.12970490384E+02  0.29285096516E+02  0.00000000000E+00 0. -1.
</event>
<event>
 7    1  0.2575978E-011  0.5052885E+02  0.7816164E-02  0.1300439E+00
        -11   -1    0    0    0    0  0.00000000000E+00  0.00000000000E+00  0.45593999997E+02  0.45594000000E+02  0.51100000000E-03 0.  1.
         11   -1    0    0    0    0 -0.00000000000E+00 -0.00000000000E+00 -0.45593999997E+02  0.45594000000E+02  0.51100000000E-03 0. -1.
    9900012    2    1    2    0    0 -0.20401305422E+02 -0.25189388162E+01  0.35080026381E+02  0.50528848920E+02  0.29999966777E+02 0.  0.
         12    1    1    2    0    0  0.20401305422E+02  0.25189388162E+01 -0.35080026381E+02  0.40659151080E+02  0.00000000000E+00 0. -1.
         11    1    3    3    0    0 -0.15564906914E+02 -0.54296997950E+01  0.19415782014E+02  0.25469993297E+02  0.51100000000E-03 0. -1.
        -11    1    3    3    0    0 -0.11587927178E+01  0.12828396499E+01  0.19455280683E+02  0.19531933464E+02  0.51100000000E-03 0.  1.
         12    1    3    3    0    0 -0.36776057899E+01  0.16279213288E+01 -0.37910363156E+01  0.55269221584E+01  0.00000000000E+00 0. -1.
</event>
<event>
 7    1  0.2575978E-011  0.5052886E+02  0.7816164E-02  0.1300439E+00
        -11   -1    0    0    0    0  0.00000000000E+00  0.00000000000E+00  0.45593999997E+02  0.45594000000E+02  0.51100000000E-03 0. -1.
         11   -1    0    0    0    0 -0.00000000000E+00 -0.00000000000E+00 -0.45593999997E+02  0.45594000000E+02  0.51100000000E-03 0.  1.
    9900012    2    1    2    0    0 -0.18833645049E+02  0.57490153610E+01 -0.35572577627E+02  0.50528860284E+02  0.30000001319E+02 0.  0.
         12    1    1    2    0    0  0.18833645049E+02 -0.57490153610E+01  0.35572577627E+02  0.40659139716E+02  0.00000000000E+00 0. -1.
         11    1    3    3    0    0 -0.41260620010E+01  0.55433025976E+01 -0.10108611591E+02  0.12244860958E+02  0.51100000000E-03 0.  1.
        -11    1    3    3    0    0 -0.11392644303E+02  0.11554519304E+02 -0.18308505841E+02  0.24464272868E+02  0.51100000000E-03 0. -1.
         12    1    3    3    0    0 -0.33149387451E+01 -0.11348806540E+02 -0.71554601946E+01  0.13819726458E+02  0.00000000000E+00 0. -1.
</event>
<event>
 7    1  0.2575978E-011  0.5052887E+02  0.7816164E-02  0.1300439E+00
        -11   -1    0    0    0    0  0.00000000000E+00  0.00000000000E+00  0.45593999997E+02  0.45594000000E+02  0.51100000000E-03 0.  1.
         11   -1    0    0    0    0 -0.00000000000E+00 -0.00000000000E+00 -0.45593999997E+02  0.45594000000E+02  0.51100000000E-03 0. -1.
    9900012    2    1    2    0    0 -0.35021324540E+02  0.20596976493E+01  0.20553087112E+02  0.50528869208E+02  0.30000028445E+02 0.  0.
         12    1    1    2    0    0  0.35021324540E+02 -0.20596976493E+01 -0.20553087112E+02  0.40659130792E+02  0.00000000000E+00 0. -1.
         11    1    3    3    0    0 -0.23606739194E+01  0.49722065493E+01  0.14011181325E+01  0.56796788294E+01  0.51100000000E-03 0. -1.
        -11    1    3    3    0    0  0.20923751652E+01  0.30287664722E+01  0.63496380734E+01  0.73395751989E+01  0.51100000000E-03 0.  1.
        -12    1    3    3    0    0 -0.34753025786E+02 -0.59412753722E+01  0.12802330906E+02  0.37509615180E+02  0.00000000000E+00 0.  1.
</event>
<event>
 7    1  0.2575978E-011  0.5052887E+02  0.7816164E-02  0.1300439E+00
        -11   -1    0    0    0    0  0.00000000000E+00  0.00000000000E+00  0.45593999997E+02  0.45594000000E+02  0.51100000000E-03 0.  1.
         11   -1    0    0    0    0 -0.00000000000E+00 -0.00000000000E+00 -0.45593999997E+02  0.45594000000E+02  0.51100000000E-03 0. -1.
    9900012    2    1    2    0    0  0.37251096226E+02 -0.92166480311E+01  0.13437794001E+02  0.50528867218E+02  0.30000022397E+02 0.  0.
         12    1    1    2    0    0 -0.37251096226E+02  0.92166480311E+01 -0.13437794001E+02  0.40659132782E+02  0.00000000000E+00 0. -1.
         11    1    3    3    0    0  0.16456596862E+02 -0.71160083338E+01  0.13311329313E+02  0.22330442074E+02  0.51100000000E-03 0.  1.
        -11    1    3    3    0    0 -0.23045995650E+01 -0.97887052501E+00  0.40304689298E+01  0.47448969130E+01  0.51100000000E-03 0. -1.
         12    1    3    3    0    0  0.23099098929E+02 -0.11217691723E+01 -0.39040042413E+01  0.23453528232E+02  0.00000000000E+00 0. -1.
</event>
<event>
 7    1  0.2575978E-011  0.5052885E+02  0.7816164E-02  0.1300439E+00
        -11   -1    0    0    0    0  0.00000000000E+00  0.00000000000E+00  0.45593999997E+02  0.45594000000E+02  0.51100000000E-03 0.  1.
         11   -1    0    0    0    0 -0.00000000000E+00 -0.00000000000E+00 -0.45593999997E+02  0.45594000000E+02  0.51100000000E-03 0. -1.
    9900012    2    1    2    0    0 -0.28358571394E+02  0.27578466992E+02  0.94013713134E+01  0.50528853480E+02  0.29999980639E+02 0.  0.
         12    1    1    2    0    0  0.28358571394E+02 -0.27578466992E+02 -0.94013713134E+01  0.40659146520E+02  0.00000000000E+00 0. -1.
         11    1    3    3    0    0 -0.12822564603E+02  0.51940513875E+01  0.51221601390E+00  0.13844085319E+02  0.51100000000E-03 0. -1.
        -11    1    3    3    0    0 -0.20455357874E+02  0.11733346131E+02  0.80689288719E+01  0.24923897981E+02  0.51100000000E-03 0.  1.
        -12    1    3    3    0    0  0.49193510827E+01  0.10651069474E+02  0.82022642760E+00  0.11760870180E+02  0.00000000000E+00 0.  1.
</event>
<event>
 7    1  0.2575978E-011  0.5052887E+02  0.7816164E-02  0.1300439E+00
        -11   -1    0    0    0    0  0.00000000000E+00  0.00000000000E+00  0.45593999997E+02  0.45594000000E+02  0.51100000000E-03 0.  1.
         11   -1    0    0    0    0 -0.00000000000E+00 -0.00000000000E+00 -0.45593999997E+02  0.45594000000E+02  0.51100000000E-03 0. -1.
    9900012    2    1    2    0    0  0.94453960922E+01 -0.12598512585E+02  0.37486356965E+02  0.50528868367E+02  0.30000025888E+02 0.  0.
         12    1    1    2    0    0 -0.94453960922E+01  0.12598512585E+02 -0.37486356965E+02  0.40659131633E+02  0.00000000000E+00 0. -1.
         11    1    3    3    0    0  0.10312554342E+02 -0.47074763428E+01  0.65710767022E+01  0.13102982861E+02  0.51100000000E-03 0. -1.
        -11    1    3    3    0    0 -0.63399581316E-04  0.32883348911E+00 -0.27455165859E+01  0.27651388848E+01  0.51100000000E-03 0.  1.
        -12    1    3    3    0    0 -0.86709484982E+00 -0.82198697312E+01  0.33660796848E+02  0.34660746621E+02  0.00000000000E+00 0.  1.
</event>
<event>
 7    1  0.2575978E-011  0.5052885E+02  0.7816164E-02  0.1300439E+00
        -11   -1    0    0    0    0  0.00000000000E+00  0.00000000000E+00  0.45593999997E+02  0.45594000000E+02  0.51100000000E-03 0. -1.
         11   -1    0    0    0    0 -0.00000000000E+00 -0.00000000000E+00 -0.45593999997E+02  0.45594000000E+02  0.51100000000E-03 0.  1.
    9900012    2    1    2    0    0 -0.14409818185E+02  0.37122283546E+02 -0.82134015502E+01  0.50528846531E+02  0.29999959516E+02 0.  0.
         12    1    1    2    0    0  0.14409818185E+02 -0.37122283546E+02  0.82134015502E+01  0.40659153469E+02  0.00000000000E+00 0. -1.
         11    1    3    3    0    0  0.14986498653E+01  0.48204024927E+01 -0.44464249211E+00  0.50675377470E+01  0.51100000000E-03 0. -1.
        -11    1    3    3    0    0  0.62106372189E+01  0.14302882826E+02  0.10041222128E+01  0.15625387467E+02  0.51100000000E-03 0.  1.
         12    1    3    3    0    0 -0.22119105269E+02  0.17998998227E+02 -0.87728812710E+01  0.29835921317E+02  0.00000000000E+00 0. -1.
</event>
<event>
 7    1  0.2575978E-011  0.5052888E+02  0.7816164E-02  0.1300439E+00
        -11   -1    0    0    0    0  0.00000000000E+00  0.00000000000E+00  0.45593999997E+02  0.45594000000E+02  0.51100000000E-03 0. -1.
         11   -1    0    0    0    0 -0.00000000000E+00 -0.00000000000E+00 -0.45593999997E+02  0.45594000000E+02  0.51100000000E-03 0.  1.
    9900012    2    1    2    0    0  0.22535041639E+02 -0.27042430300E+02 -0.20348034906E+02  0.50528884629E+02  0.30000075319E+02 0.  0.
         12    1    1    2    0    0 -0.22535041639E+02  0.27042430300E+02  0.20348034906E+02  0.40659115371E+02  0.00000000000E+00 0. -1.
         11    1    3    3    0    0 -0.56183417053E+00 -0.59485398871E+01 -0.10866796590E+02  0.12401131110E+02  0.51100000000E-03 0. -1.
        -11    1    3    3    0    0  0.11061419877E+02 -0.15674776743E+02 -0.14456773876E+02  0.24021905562E+02  0.51100000000E-03 0.  1.
        -12    1    3    3    0    0  0.12035455933E+02 -0.54191136692E+01  0.49755355603E+01  0.14105847957E+02  0.00000000000E+00 0.  1.
</event>
<event>
 7    1  0.2575978E-011  0.5052887E+02  0.7816164E-02  0.1300439E+00
        -11   -1    0    0    0    0  0.00000000000E+00  0.00000000000E+00  0.45593999997E+02  0.45594000000E+02  0.51100000000E-03 0. -1.
         11   -1    0    0    0    0 -0.00000000000E+00 -0.00000000000E+00 -0.45593999997E+02  0.45594000000E+02  0.51100000000E-03 0.  1.
    9900012    2    1    2    0    0  0.38300506598E+02 -0.91397996159E+00  0.13616186440E+02  0.50528871896E+02  0.30000036615E+02 0.  0.
         12    1    1    2    0    0 -0.38300506598E+02  0.91397996159E+00 -0.13616186440E+02  0.40659128104E+02  0.00000000000E+00 0. -1.
         11    1    3    3    0    0  0.17016879100E+02 -0.35476125696E+01 -0.12910794186E+01  0.17430622925E+02  0.51100000000E-03 0. -1.
        -11    1    3    3    0    0  0.14134556346E+02  0.56178165659E+01 -0.11668227044E+01  0.15254737675E+02  0.51100000000E-03 0.  1.
        -12    1    3    3    0    0  0.71490711523E+01 -0.29841839579E+01  0.16074088563E+02  0.17843511296E+02  0.00000000000E+00 0.  1.
</event>
<event>
 7    1  0.2575978E-011  0.5052888E+02  0.7816164E-02  0.1300439E+00
        -11   -1    0    0    0    0  0.00000000000E+00  0.00000000000E+00  0.45593999997E+02  0.45594000000E+02  0.51100000000E-03 0. -1.
         11   -1    0    0    0    0 -0.00000000000E+00 -0.00000000000E+00 -0.45593999997E+02  0.45594000000E+02  0.51100000000E-03 0.  1.
    9900012    2    1    2    0    0 -0.25024674840E+02 -0.15689372965E+01 -0.32007319898E+02  0.50528875045E+02  0.30000046186E+02 0.  0.
         12    1    1    2    0    0  0.25024674840E+02  0.15689372965E+01  0.32007319898E+02  0.40659124955E+02  0.00000000000E+00 0. -1.
         11    1    3    3    0    0 -0.95407640469E+01 -0.52227994295E+01 -0.57262365858E+01  0.12292013593E+02  0.51100000000E-03 0. -1.
        -11    1    3    3    0    0 -0.80146075420E+01 -0.53364781777E+01 -0.17126046226E+00  0.96302265706E+01  0.51100000000E-03 0.  1.
        -12    1    3    3    0    0 -0.74693032515E+01  0.89903403108E+01 -0.26109822850E+02  0.28606634881E+02  0.00000000000E+00 0.  1.
</event>
<event>
 7    1  0.2575978E-011  0.5052886E+02  0.7816164E-02  0.1300439E+00
        -11   -1    0    0    0    0  0.00000000000E+00  0.00000000000E+00  0.45593999997E+02  0.45594000000E+02  0.51100000000E-03 0. -1.
         11   -1    0    0    0    0 -0.00000000000E+00 -0.00000000000E+00 -0.45593999997E+02  0.45594000000E+02  0.51100000000E-03 0.  1.
    9900012    2    1    2    0    0  0.77347786337E+00 -0.34687376939E+02  0.21197950898E+02  0.50528861922E+02  0.30000006299E+02 0.  0.
         12    1    1    2    0    0 -0.77347786337E+00  0.34687376939E+02 -0.21197950898E+02  0.40659138078E+02  0.00000000000E+00 0. -1.
         11    1    3    3    0    0  0.18025088315E+01 -0.10317247082E+01 -0.23462017575E+01  0.31333938324E+01  0.51100000000E-03 0. -1.
        -11    1    3    3    0    0  0.36661529149E+01 -0.11452383890E+02 -0.30784868684E+01  0.12412689298E+02  0.51100000000E-03 0.  1.
         12    1    3    3    0    0 -0.46951838830E+01 -0.22203268341E+02  0.26622639524E+02  0.34982778791E+02  0.00000000000E+00 0. -1.
</event>
<event>
 7    1  0.2575978E-011  0.5052885E+02  0.7816164E-02  0.1300439E+00
        -11   -1    0    0    0    0  0.00000000000E+00  0.00000000000E+00  0.45593999997E+02  0.45594000000E+02  0.51100000000E-03 0.  1.
         11   -1    0    0    0    0 -0.00000000000E+00 -0.00000000000E+00 -0.45593999997E+02  0.45594000000E+02  0.51100000000E-03 0. -1.
    9900012    2    1    2    0    0 -0.75822179709E+01 -0.11441523100E+02  0.38272290237E+02  0.50528847523E+02  0.29999962530E+02 0.  0.
         12    1    1    2    0    0  0.75822179709E+01  0.11441523100E+02 -0.38272290237E+02  0.40659152477E+02  0.00000000000E+00 0. -1.
         11    1    3    3    0    0  0.14379792170E+01 -0.70279713771E+01  0.31009962845E+01  0.78151355793E+01  0.51100000000E-03 0. -1.
        -11    1    3    3    0    0 -0.59926252465E+01 -0.56722985548E+01  0.91632417675E+00  0.83021791415E+01  0.51100000000E-03 0.  1.
        -12    1    3    3    0    0 -0.30275719414E+01  0.12587468318E+01  0.34254969776E+02  0.34411532802E+02  0.00000000000E+00 0.  1.
</event>
<event>
 7    1  0.2575978E-011  0.5052882E+02  0.7816164E-02  0.1300439E+00
        -11   -1    0    0    0    0  0.00000000000E+00  0.00000000000E+00  0.45593999997E+02  0.45594000000E+02  0.51100000000E-03 0.  1.
         11   -1    0    0    0    0 -0.00000000000E+00 -0.00000000000E+00 -0.45593999997E+02  0.45594000000E+02  0.51100000000E-03 0. -1.
    9900012    2    1    2    0    0  0.15836755435E+02  0.37314247592E+02 -0.31643597142E+01  0.50528818153E+02  0.29999873258E+02 0.  0.
         12    1    1    2    0    0 -0.15836755435E+02 -0.37314247592E+02  0.31643597142E+01  0.40659181847E+02  0.00000000000E+00 0. -1.
         11    1    3    3    0    0 -0.78149388387E+00 -0.19641532900E+01 -0.80831600497E+00  0.22631848935E+01  0.51100000000E-03 0. -1.
        -11    1    3    3    0    0 -0.14628918182E+01  0.64806575156E+01 -0.79914985501E+01  0.10392450319E+02  0.51100000000E-03 0.  1.
        -12    1    3    3    0    0  0.18081141137E+02  0.32797743366E+02  0.56354548408E+01  0.37873182940E+02  0.00000000000E+00 0.  1.
</event>
<event>
 7    1  0.2575978E-011  0.5052886E+02  0.7816164E-02  0.1300439E+00
        -11   -1    0    0    0    0  0.00000000000E+00  0.00000000000E+00  0.45593999997E+02  0.45594000000E+02  0.51100000000E-03 0.  1.
         11   -1    0    0    0    0 -0.00000000000E+00 -0.00000000000E+00 -0.45593999997E+02  0.45594000000E+02  0.51100000000E-03 0. -1.
    9900012    2    1    2    0    0  0.21990918758E+02 -0.20146798719E+02  0.27634607247E+02  0.50528861739E+02  0.30000005740E+02 0.  0.
         12    1    1    2    0    0 -0.21990918758E+02  0.20146798719E+02 -0.27634607247E+02  0.40659138261E+02  0.00000000000E+00 0. -1.
         11    1    3    3    0    0  0.12628082674E+00  0.22030227021E+01  0.71790954515E+00  0.23204849168E+01  0.51100000000E-03 0. -1.
        -11    1    3    3    0    0  0.18303307310E+02 -0.10582311689E+01  0.10914788008E+02  0.21336904865E+02  0.51100000000E-03 0.  1.
        -12    1    3    3    0    0  0.35613306213E+01 -0.21291590252E+02  0.16001909694E+02  0.26871471957E+02  0.00000000000E+00 0.  1.
</event>
<event>
 7    1  0.2575978E-011  0.5052896E+02  0.7816164E-02  0.1300438E+00
        -11   -1    0    0    0    0  0.00000000000E+00  0.00000000000E+00  0.45593999997E+02  0.45594000000E+02  0.51100000000E-03 0. -1.
         11   -1    0    0    0    0 -0.00000000000E+00 -0.00000000000E+00 -0.45593999997E+02  0.45594000000E+02  0.51100000000E-03 0.  1.
    9900012    2    1    2    0    0  0.36102035862E+02 -0.76750889975E+01  0.17055613447E+02  0.50528955071E+02  0.30000289431E+02 0.  0.
         12    1    1    2    0    0 -0.36102035862E+02  0.76750889975E+01 -0.17055613447E+02  0.40659044929E+02  0.00000000000E+00 0. -1.
         11    1    3    3    0    0 -0.18321663314E+01 -0.40925591815E-01 -0.12803593602E+01  0.22355824123E+01  0.51100000000E-03 0. -1.
        -11    1    3    3    0    0  0.25708760134E+02 -0.16664114199E+01  0.37965980748E+00  0.25765508271E+02  0.51100000000E-03 0.  1.
         12    1    3    3    0    0  0.12225442060E+02 -0.59677519858E+01  0.17956312999E+02  0.22527864387E+02  0.00000000000E+00 0. -1.
</event>
<event>
 7    1  0.2575978E-011  0.5052886E+02  0.7816164E-02  0.1300439E+00
        -11   -1    0    0    0    0  0.00000000000E+00  0.00000000000E+00  0.45593999997E+02  0.45594000000E+02  0.51100000000E-03 0.  1.
         11   -1    0    0    0    0 -0.00000000000E+00 -0.00000000000E+00 -0.45593999997E+02  0.45594000000E+02  0.51100000000E-03 0. -1.
    9900012    2    1    2    0    0 -0.33013265769E+02  0.39100952200E+01  0.23409414824E+02  0.50528864940E+02  0.30000015473E+02 0.  0.
         12    1    1    2    0    0  0.33013265769E+02 -0.39100952200E+01 -0.23409414824E+02  0.40659135060E+02  0.00000000000E+00 0. -1.
         11    1    3    3    0    0 -0.46948182648E+01  0.35742706350E+01  0.48264583934E-01  0.59007676486E+01  0.51100000000E-03 0. -1.
        -11    1    3    3    0    0  0.46166079442E+01 -0.66848549730E+00  0.90099366677E+00  0.47509716500E+01  0.51100000000E-03 0.  1.
        -12    1    3    3    0    0 -0.32935055449E+02  0.10043100823E+01  0.22460156573E+02  0.39877125642E+02  0.00000000000E+00 0.  1.
</event>
<event>
 7    1  0.2575978E-011  0.5052886E+02  0.7816164E-02  0.1300439E+00
        -11   -1    0    0    0    0  0.00000000000E+00  0.00000000000E+00  0.45593999997E+02  0.45594000000E+02  0.51100000000E-03 0.  1.
         11   -1    0    0    0    0 -0.00000000000E+00 -0.00000000000E+00 -0.45593999997E+02  0.45594000000E+02  0.51100000000E-03 0. -1.
    9900012    2    1    2    0    0  0.25048404204E+02  0.33311897585E+00  0.32025493061E+02  0.50528859241E+02  0.29999998150E+02 0.  0.
         12    1    1    2    0    0 -0.25048404204E+02 -0.33311897585E+00 -0.32025493061E+02  0.40659140759E+02  0.00000000000E+00 0. -1.
         11    1    3    3    0    0  0.13542299284E+02 -0.77278772386E+01  0.80469933846E+01  0.17546169363E+02  0.51100000000E-03 0. -1.
        -11    1    3    3    0    0  0.11995871330E+02  0.89529624147E+01  0.80007698987E+01  0.16972589202E+02  0.51100000000E-03 0.  1.
        -12    1    3    3    0    0 -0.48976641045E+00 -0.89196620031E+00  0.15977729778E+02  0.16010100677E+02  0.00000000000E+00 0.  1.
</event>
<event>
 7    1  0.2575978E-011  0.5052887E+02  0.7816164E-02  0.1300439E+00
        -11   -1    0    0    0    0  0.00000000000E+00  0.00000000000E+00  0.45593999997E+02  0.45594000000E+02  0.51100000000E-03 0.  1.
         11   -1    0    0    0    0 -0.00000000000E+00 -0.00000000000E+00 -0.45593999997E+02  0.45594000000E+02  0.51100000000E-03 0. -1.
    9900012    2    1    2    0    0 -0.42044067259E+01 -0.34209328659E+02  0.21568719747E+02  0.50528869725E+02  0.30000030015E+02 0.  0.
         12    1    1    2    0    0  0.42044067259E+01  0.34209328659E+02 -0.21568719747E+02  0.40659130275E+02  0.00000000000E+00 0. -1.
         11    1    3    3    0    0 -0.99025599210E+00  0.22154364034E+01 -0.22734237495E+01  0.33252400204E+01  0.51100000000E-03 0. -1.
        -11    1    3    3    0    0  0.19169125712E+01 -0.73053126837E+01 -0.21314116421E+01  0.78476151193E+01  0.51100000000E-03 0.  1.
        -12    1    3    3    0    0 -0.51310633049E+01 -0.29119452379E+02  0.25973555138E+02  0.39356014585E+02  0.00000000000E+00 0.  1.
</event>
<event>
 7    1  0.2575978E-011  0.5052886E+02  0.7816164E-02  0.1300439E+00
        -11   -1    0    0    0    0  0.00000000000E+00  0.00000000000E+00  0.45593999997E+02  0.45594000000E+02  0.51100000000E-03 0.  1.
         11   -1    0    0    0    0 -0.00000000000E+00 -0.00000000000E+00 -0.45593999997E+02  0.45594000000E+02  0.51100000000E-03 0. -1.
    9900012    2    1    2    0    0 -0.40617541179E+02  0.36239964033E+00  0.18026686982E+01  0.50528860814E+02  0.30000002930E+02 0.  0.
         12    1    1    2    0    0  0.40617541179E+02 -0.36239964033E+00 -0.18026686982E+01  0.40659139186E+02  0.00000000000E+00 0. -1.
         11    1    3    3    0    0 -0.10929407399E+02 -0.36561663351E+01  0.47544647365E+01  0.12466933606E+02  0.51100000000E-03 0. -1.
        -11    1    3    3    0    0 -0.33292642644E+02  0.14956684465E+01 -0.39229031813E+01  0.33556314577E+02  0.51100000000E-03 0.  1.
         12    1    3    3    0    0  0.36045088640E+01  0.25228975290E+01  0.97110714294E+00  0.45056126305E+01  0.00000000000E+00 0. -1.
</event>
<event>
 7    1  0.2575978E-011  0.5052886E+02  0.7816164E-02  0.1300439E+00
        -11   -1    0    0    0    0  0.00000000000E+00  0.00000000000E+00  0.45593999997E+02  0.45594000000E+02  0.51100000000E-03 0. -1.
         11   -1    0    0    0    0 -0.00000000000E+00 -0.00000000000E+00 -0.45593999997E+02  0.45594000000E+02  0.51100000000E-03 0.  1.
    9900012    2    1    2    0    0  0.20023739324E+02  0.18808028226E+02 -0.29974549829E+02  0.50528859579E+02  0.29999999178E+02 0.  0.
         12    1    1    2    0    0 -0.20023739324E+02 -0.18808028226E+02  0.29974549829E+02  0.40659140421E+02  0.00000000000E+00 0. -1.
         11    1    3    3    0    0  0.10737949363E+02 -0.59978815418E+01 -0.89562870250E+01  0.15214901151E+02  0.51100000000E-03 0. -1.
        -11    1    3    3    0    0 -0.11610190153E+01  0.14589823862E+01 -0.44873338504E+01  0.48592962559E+01  0.51100000000E-03 0.  1.
         12    1    3    3    0    0  0.10446808977E+02  0.23346927381E+02 -0.16530928954E+02  0.30454662172E+02  0.00000000000E+00 0. -1.
</event>
<event>
 7    1  0.2575978E-011  0.5052888E+02  0.7816164E-02  0.1300439E+00
        -11   -1    0    0    0    0  0.00000000000E+00  0.00000000000E+00  0.45593999997E+02  0.45594000000E+02  0.51100000000E-03 0.  1.
         11   -1    0    0    0    0 -0.00000000000E+00 -0.00000000000E+00 -0.45593999997E+02  0.45594000000E+02  0.51100000000E-03 0. -1.
    9900012    2    1    2    0    0 -0.18143092301E+01  0.28236010603E+02  0.29199319054E+02  0.50528877457E+02  0.30000053517E+02 0.  0.
         12    1    1    2    0    0  0.18143092301E+01 -0.28236010603E+02 -0.29199319054E+02  0.40659122543E+02  0.00000000000E+00 0. -1.
         11    1    3    3    0    0  0.67372893602E+01  0.12374935348E+02  0.64527644841E+01  0.15497363083E+02  0.51100000000E-03 0. -1.
        -11    1    3    3    0    0  0.32185599926E+01  0.25909003734E+01  0.15205953356E+02  0.15757312933E+02  0.51100000000E-03 0.  1.
        -12    1    3    3    0    0 -0.11770158583E+02  0.13270174882E+02  0.75406012147E+01  0.19274201440E+02  0.00000000000E+00 0.  1.
</event>
<event>
 7    1  0.2575978E-011  0.5052885E+02  0.7816164E-02  0.1300439E+00
        -11   -1    0    0    0    0  0.00000000000E+00  0.00000000000E+00  0.45593999997E+02  0.45594000000E+02  0.51100000000E-03 0.  1.
         11   -1    0    0    0    0 -0.00000000000E+00 -0.00000000000E+00 -0.45593999997E+02  0.45594000000E+02  0.51100000000E-03 0. -1.
    9900012    2    1    2    0    0 -0.37139075489E+02 -0.81815019325E+01  0.14384661196E+02  0.50528851217E+02  0.29999973759E+02 0.  0.
         12    1    1    2    0    0  0.37139075489E+02  0.81815019325E+01 -0.14384661196E+02  0.40659148783E+02  0.00000000000E+00 0. -1.
         11    1    3    3    0    0 -0.22850800049E+02 -0.70887948995E+01  0.61766163509E+01  0.24709525811E+02  0.51100000000E-03 0. -1.
        -11    1    3    3    0    0 -0.18667117749E+02 -0.37109646887E+01  0.81838986158E+01  0.20717353614E+02  0.51100000000E-03 0.  1.
         12    1    3    3    0    0  0.43788423090E+01  0.26182576557E+01  0.24146229383E-01  0.51019717913E+01  0.00000000000E+00 0. -1.
</event>
<event>
 7    1  0.2575978E-011  0.5052887E+02  0.7816164E-02  0.1300439E+00
        -11   -1    0    0    0    0  0.00000000000E+00  0.00000000000E+00  0.45593999997E+02  0.45594000000E+02  0.51100000000E-03 0. -1.
         11   -1    0    0    0    0 -0.00000000000E+00 -0.00000000000E+00 -0.45593999997E+02  0.45594000000E+02  0.51100000000E-03 0.  1.
    9900012    2    1    2    0    0 -0.37679008654E+01 -0.40384323606E+02 -0.28415339567E+01  0.50528868366E+02  0.30000025884E+02 0.  0.
         12    1    1    2    0    0  0.37679008654E+01  0.40384323606E+02  0.28415339567E+01  0.40659131634E+02  0.00000000000E+00 0. -1.
         11    1    3    3    0    0  0.77914788600E+01 -0.19670149124E+02 -0.10697768685E+02  0.23707892451E+02  0.51100000000E-03 0.  1.
        -11    1    3    3    0    0  0.11265611172E+01 -0.11226558635E+00  0.13600239760E+01  0.17695787604E+01  0.51100000000E-03 0. -1.
         12    1    3    3    0    0 -0.12685940843E+02 -0.20601908896E+02  0.64962107527E+01  0.25051397154E+02  0.00000000000E+00 0. -1.
</event>
<event>
 7    1  0.2575978E-011  0.5052886E+02  0.7816164E-02  0.1300439E+00
        -11   -1    0    0    0    0  0.00000000000E+00  0.00000000000E+00  0.45593999997E+02  0.45594000000E+02  0.51100000000E-03 0. -1.
         11   -1    0    0    0    0 -0.00000000000E+00 -0.00000000000E+00 -0.45593999997E+02  0.45594000000E+02  0.51100000000E-03 0.  1.
    9900012    2    1    2    0    0  0.27977372567E+02  0.20929299022E+02 -0.20794148250E+02  0.50528861609E+02  0.30000005345E+02 0.  0.
         12    1    1    2    0    0 -0.27977372567E+02 -0.20929299022E+02  0.20794148250E+02  0.40659138391E+02  0.00000000000E+00 0. -1.
         11    1    3    3    0    0 -0.71396713088E+00  0.60225401594E+01 -0.47068774276E+01  0.76769417358E+01  0.51100000000E-03 0. -1.
        -11    1    3    3    0    0  0.10097629230E+02  0.17721068369E+02 -0.11801504530E+02  0.23564250245E+02  0.51100000000E-03 0.  1.
         12    1    3    3    0    0  0.18593710467E+02 -0.28143095062E+01 -0.42857662930E+01  0.19287669627E+02  0.00000000000E+00 0. -1.
</event>
<event>
 7    1  0.2575978E-011  0.5052886E+02  0.7816164E-02  0.1300439E+00
        -11   -1    0    0    0    0  0.00000000000E+00  0.00000000000E+00  0.45593999997E+02  0.45594000000E+02  0.51100000000E-03 0.  1.
         11   -1    0    0    0    0 -0.00000000000E+00 -0.00000000000E+00 -0.45593999997E+02  0.45594000000E+02  0.51100000000E-03 0. -1.
    9900012    2    1    2    0    0 -0.21625949871E+02 -0.16960561803E+02  0.29963698043E+02  0.50528861238E+02  0.30000004218E+02 0.  0.
         12    1    1    2    0    0  0.21625949871E+02  0.16960561803E+02 -0.29963698043E+02  0.40659138762E+02  0.00000000000E+00 0. -1.
         11    1    3    3    0    0 -0.16584422728E+02 -0.63848284910E+01  0.88330323687E+01  0.19845190177E+02  0.51100000000E-03 0. -1.
        -11    1    3    3    0    0 -0.90877012872E+01 -0.87502724049E+01  0.43792039970E+01  0.13354063417E+02  0.51100000000E-03 0.  1.
         12    1    3    3    0    0  0.40461741447E+01 -0.18254609074E+01  0.16751461677E+02  0.17329607643E+02  0.00000000000E+00 0. -1.
</event>
<event>
 7    1  0.2575978E-011  0.5052886E+02  0.7816164E-02  0.1300439E+00
        -11   -1    0    0    0    0  0.00000000000E+00  0.00000000000E+00  0.45593999997E+02  0.45594000000E+02  0.51100000000E-03 0.  1.
         11   -1    0    0    0    0 -0.00000000000E+00 -0.00000000000E+00 -0.45593999997E+02  0.45594000000E+02  0.51100000000E-03 0. -1.
    9900012    2    1    2    0    0 -0.33846374434E+02  0.11764895531E+02  0.19213943264E+02  0.50528862713E+02  0.30000008702E+02 0.  0.
         12    1    1    2    0    0  0.33846374434E+02 -0.11764895531E+02 -0.19213943264E+02  0.40659137287E+02  0.00000000000E+00 0. -1.
         11    1    3    3    0    0 -0.12055498725E+01 -0.10705543257E+00  0.64941529811E+01  0.66059696157E+01  0.51100000000E-03 0. -1.
        -11    1    3    3    0    0 -0.45442983293E+01  0.54133065296E+01  0.13329196192E+02  0.15087147055E+02  0.51100000000E-03 0.  1.
         12    1    3    3    0    0 -0.28096526232E+02  0.64586444336E+01 -0.60940590897E+00  0.28835746042E+02  0.00000000000E+00 0. -1.
</event>
<event>
 7    1  0.2575978E-011  0.5052886E+02  0.7816164E-02  0.1300439E+00
        -11   -1    0    0    0    0  0.00000000000E+00  0.00000000000E+00  0.45593999997E+02  0.45594000000E+02  0.51100000000E-03 0. -1.
         11   -1    0    0    0    0 -0.00000000000E+00 -0.00000000000E+00 -0.45593999997E+02  0.45594000000E+02  0.51100000000E-03 0.  1.
    9900012    2    1    2    0    0  0.28647646421E+02  0.28849410177E+02  0.43556687592E+00  0.50528857958E+02  0.29999994250E+02 0.  0.
         12    1    1    2    0    0 -0.28647646421E+02 -0.28849410177E+02 -0.43556687592E+00  0.40659142042E+02  0.00000000000E+00 0. -1.
         11    1    3    3    0    0  0.13005417372E+02  0.14916136441E+02  0.20417152676E+00  0.19790747677E+02  0.51100000000E-03 0. -1.
        -11    1    3    3    0    0  0.14000236536E+02  0.19904519779E+02 -0.12616807398E+01  0.24367773169E+02  0.51100000000E-03 0.  1.
         12    1    3    3    0    0  0.16419925130E+01 -0.59712460421E+01  0.14930760889E+01  0.63703371116E+01  0.00000000000E+00 0. -1.
</event>
<event>
 7    1  0.2575978E-011  0.5052886E+02  0.7816164E-02  0.1300439E+00
        -11   -1    0    0    0    0  0.00000000000E+00  0.00000000000E+00  0.45593999997E+02  0.45594000000E+02  0.51100000000E-03 0.  1.
         11   -1    0    0    0    0 -0.00000000000E+00 -0.00000000000E+00 -0.45593999997E+02  0.45594000000E+02  0.51100000000E-03 0. -1.
    9900012    2    1    2    0    0 -0.21066984227E+02  0.17955503069E+02  0.29781670450E+02  0.50528858228E+02  0.29999995070E+02 0.  0.
         12    1    1    2    0    0  0.21066984227E+02 -0.17955503069E+02 -0.29781670450E+02  0.40659141772E+02  0.00000000000E+00 0. -1.
         11    1    3    3    0    0  0.20218115818E+00  0.29091517645E+01 -0.16852616296E+01  0.33681075148E+01  0.51100000000E-03 0. -1.
        -11    1    3    3    0    0 -0.10782141306E+02  0.11896228917E+02  0.32411501124E+02  0.36170156745E+02  0.51100000000E-03 0.  1.
         12    1    3    3    0    0 -0.10487024079E+02  0.31501223880E+01 -0.94456904510E+00  0.10990593968E+02  0.00000000000E+00 0. -1.
</event>
<event>
 7    1  0.2575978E-011  0.5052887E+02  0.7816164E-02  0.1300439E+00
        -11   -1    0    0    0    0  0.00000000000E+00  0.00000000000E+00  0.45593999997E+02  0.45594000000E+02  0.51100000000E-03 0.  1.
         11   -1    0    0    0    0 -0.00000000000E+00 -0.00000000000E+00 -0.45593999997E+02  0.45594000000E+02  0.51100000000E-03 0. -1.
    9900012    2    1    2    0    0  0.23926962710E+02  0.14461650617E+02 -0.29521612921E+02  0.50528874179E+02  0.30000043554E+02 0.  0.
         12    1    1    2    0    0 -0.23926962710E+02 -0.14461650617E+02  0.29521612921E+02  0.40659125821E+02  0.00000000000E+00 0. -1.
         11    1    3    3    0    0  0.12089165498E+01  0.72985920934E+01 -0.14769541459E+02  0.16518785698E+02  0.51100000000E-03 0.  1.
        -11    1    3    3    0    0  0.33848161883E+01 -0.36319913876E+01  0.28488961632E+01  0.57240328159E+01  0.51100000000E-03 0. -1.
         12    1    3    3    0    0  0.19333229972E+02  0.10795049911E+02 -0.17600967625E+02  0.28286055665E+02  0.00000000000E+00 0. -1.
</event>
<event>
 7    1  0.2575978E-011  0.5052886E+02  0.7816164E-02  0.1300439E+00
        -11   -1    0    0    0    0  0.00000000000E+00  0.00000000000E+00  0.45593999997E+02  0.45594000000E+02  0.51100000000E-03 0.  1.
         11   -1    0    0    0    0 -0.00000000000E+00 -0.00000000000E+00 -0.45593999997E+02  0.45594000000E+02  0.51100000000E-03 0. -1.
    9900012    2    1    2    0    0 -0.35123351051E+02  0.18930912368E+02 -0.78189766516E+01  0.50528860462E+02  0.30000001859E+02 0.  0.
         12    1    1    2    0    0  0.35123351051E+02 -0.18930912368E+02  0.78189766516E+01  0.40659139538E+02  0.00000000000E+00 0. -1.
         11    1    3    3    0    0 -0.36241376810E+01  0.75912372206E+01 -0.61502621972E+01  0.10420507753E+02  0.51100000000E-03 0. -1.
        -11    1    3    3    0    0 -0.85207053863E+01  0.54983784768E+01 -0.10695600535E+02  0.14738740015E+02  0.51100000000E-03 0.  1.
        -12    1    3    3    0    0 -0.22978507983E+02  0.58412966709E+01  0.90268860807E+01  0.25369612694E+02  0.00000000000E+00 0.  1.
</event>
<event>
 7    1  0.2575978E-011  0.5052884E+02  0.7816164E-02  0.1300439E+00
        -11   -1    0    0    0    0  0.00000000000E+00  0.00000000000E+00  0.45593999997E+02  0.45594000000E+02  0.51100000000E-03 0.  1.
         11   -1    0    0    0    0 -0.00000000000E+00 -0.00000000000E+00 -0.45593999997E+02  0.45594000000E+02  0.51100000000E-03 0. -1.
    9900012    2    1    2    0    0  0.19288113513E+02  0.21741974263E+02  0.28432774662E+02  0.50528838145E+02  0.29999934025E+02 0.  0.
         12    1    1    2    0    0 -0.19288113513E+02 -0.21741974263E+02 -0.28432774662E+02  0.40659161855E+02  0.00000000000E+00 0. -1.
         11    1    3    3    0    0 -0.45363746351E+01  0.67694731610E+01  0.17664964292E+01  0.83381635629E+01  0.51100000000E-03 0. -1.
        -11    1    3    3    0    0  0.26203159833E+01  0.10625673005E+02  0.10586121156E+02  0.15226192697E+02  0.51100000000E-03 0.  1.
        -12    1    3    3    0    0  0.21204172165E+02  0.43468280975E+01  0.16080157077E+02  0.26964481885E+02  0.00000000000E+00 0.  1.
</event>
<event>
 7    1  0.2575978E-011  0.5052888E+02  0.7816164E-02  0.1300439E+00
        -11   -1    0    0    0    0  0.00000000000E+00  0.00000000000E+00  0.45593999997E+02  0.45594000000E+02  0.51100000000E-03 0. -1.
         11   -1    0    0    0    0 -0.00000000000E+00 -0.00000000000E+00 -0.45593999997E+02  0.45594000000E+02  0.51100000000E-03 0.  1.
    9900012    2    1    2    0    0  0.30266520953E+01  0.37023612660E+02 -0.16530438392E+02  0.50528881580E+02  0.30000066049E+02 0.  0.
         12    1    1    2    0    0 -0.30266520953E+01 -0.37023612660E+02  0.16530438392E+02  0.40659118420E+02  0.00000000000E+00 0. -1.
         11    1    3    3    0    0  0.33935623210E+01  0.40435416071E+01 -0.10797687046E+02  0.12019007437E+02  0.51100000000E-03 0.  1.
        -11    1    3    3    0    0 -0.76565974865E+01  0.66316702348E+01  0.14783533674E+01  0.10236604130E+02  0.51100000000E-03 0. -1.
        -12    1    3    3    0    0  0.72896872608E+01  0.26348400818E+02 -0.72111047130E+01  0.28273270013E+02  0.00000000000E+00 0.  1.
</event>
<event>
 7    1  0.2575978E-011  0.5052886E+02  0.7816164E-02  0.1300439E+00
        -11   -1    0    0    0    0  0.00000000000E+00  0.00000000000E+00  0.45593999997E+02  0.45594000000E+02  0.51100000000E-03 0. -1.
         11   -1    0    0    0    0 -0.00000000000E+00 -0.00000000000E+00 -0.45593999997E+02  0.45594000000E+02  0.51100000000E-03 0.  1.
    9900012    2    1    2    0    0  0.31255288827E+02  0.25818603071E+02 -0.31100967234E+01  0.50528855324E+02  0.29999986241E+02 0.  0.
         12    1    1    2    0    0 -0.31255288827E+02 -0.25818603071E+02  0.31100967234E+01  0.40659144676E+02  0.00000000000E+00 0. -1.
         11    1    3    3    0    0  0.21854688766E+01  0.48606428757E+01 -0.82801772688E+01  0.98470025510E+01  0.51100000000E-03 0. -1.
        -11    1    3    3    0    0  0.10526634451E+02  0.13620437952E+02 -0.54912188386E+01  0.18068753346E+02  0.51100000000E-03 0.  1.
        -12    1    3    3    0    0  0.18543185499E+02  0.73375222435E+01  0.10661299384E+02  0.22613099427E+02  0.00000000000E+00 0.  1.
</event>
<event>
 7    1  0.2575978E-011  0.5052886E+02  0.7816164E-02  0.1300439E+00
        -11   -1    0    0    0    0  0.00000000000E+00  0.00000000000E+00  0.45593999997E+02  0.45594000000E+02  0.51100000000E-03 0.  1.
         11   -1    0    0    0    0 -0.00000000000E+00 -0.00000000000E+00 -0.45593999997E+02  0.45594000000E+02  0.51100000000E-03 0. -1.
    9900012    2    1    2    0    0  0.84801884631E+01  0.25020927009E+01  0.39686161244E+02  0.50528862546E+02  0.30000008194E+02 0.  0.
         12    1    1    2    0    0 -0.84801884631E+01 -0.25020927009E+01 -0.39686161244E+02  0.40659137454E+02  0.00000000000E+00 0. -1.
         11    1    3    3    0    0  0.41370807332E+01 -0.14172476575E+01  0.71887184086E+01  0.84143746372E+01  0.51100000000E-03 0. -1.
        -11    1    3    3    0    0  0.73824484728E+01  0.45728728342E+01 -0.75526590410E+00  0.87167733857E+01  0.51100000000E-03 0.  1.
        -12    1    3    3    0    0 -0.30393407428E+01 -0.65353247584E+00  0.33252708739E+02  0.33397714523E+02  0.00000000000E+00 0.  1.
</event>
<event>
 7    1  0.2575978E-011  0.5052886E+02  0.7816164E-02  0.1300439E+00
        -11   -1    0    0    0    0  0.00000000000E+00  0.00000000000E+00  0.45593999997E+02  0.45594000000E+02  0.51100000000E-03 0. -1.
         11   -1    0    0    0    0 -0.00000000000E+00 -0.00000000000E+00 -0.45593999997E+02  0.45594000000E+02  0.51100000000E-03 0.  1.
    9900012    2    1    2    0    0 -0.23881059145E+02 -0.13619912148E+02 -0.29955950321E+02  0.50528856472E+02  0.29999989733E+02 0.  0.
         12    1    1    2    0    0  0.23881059145E+02  0.13619912148E+02  0.29955950321E+02  0.40659143528E+02  0.00000000000E+00 0. -1.
         11    1    3    3    0    0 -0.23300146523E+01 -0.64553760094E+01 -0.10214156956E+01  0.69385976960E+01  0.51100000000E-03 0. -1.
        -11    1    3    3    0    0  0.35150920838E+00 -0.47068034293E+00 -0.18351170447E+02  0.18360570681E+02  0.51100000000E-03 0.  1.
         12    1    3    3    0    0 -0.21902553701E+02 -0.66938557952E+01 -0.10583364178E+02  0.25229688095E+02  0.00000000000E+00 0. -1.
</event>
<event>
 7    1  0.2575978E-011  0.5052885E+02  0.7816164E-02  0.1300439E+00
        -11   -1    0    0    0    0  0.00000000000E+00  0.00000000000E+00  0.45593999997E+02  0.45594000000E+02  0.51100000000E-03 0. -1.
         11   -1    0    0    0    0 -0.00000000000E+00 -0.00000000000E+00 -0.45593999997E+02  0.45594000000E+02  0.51100000000E-03 0.  1.
    9900012    2    1    2    0    0 -0.13309439046E+02  0.35076979697E+02 -0.15672609805E+02  0.50528851331E+02  0.29999974105E+02 0.  0.
         12    1    1    2    0    0  0.13309439046E+02 -0.35076979697E+02  0.15672609805E+02  0.40659148669E+02  0.00000000000E+00 0. -1.
         11    1    3    3    0    0 -0.77716492061E+01  0.28754774605E+02 -0.73796293890E+00  0.29795640344E+02  0.51100000000E-03 0. -1.
        -11    1    3    3    0    0 -0.19597741623E+01  0.34342608584E+01  0.10575820162E+01  0.40930847039E+01  0.51100000000E-03 0.  1.
        -12    1    3    3    0    0 -0.35780156777E+01  0.28879442343E+01 -0.15992228882E+02  0.16640126283E+02  0.00000000000E+00 0.  1.
</event>
<event>
 7    1  0.2575978E-011  0.5052886E+02  0.7816164E-02  0.1300439E+00
        -11   -1    0    0    0    0  0.00000000000E+00  0.00000000000E+00  0.45593999997E+02  0.45594000000E+02  0.51100000000E-03 0.  1.
         11   -1    0    0    0    0 -0.00000000000E+00 -0.00000000000E+00 -0.45593999997E+02  0.45594000000E+02  0.51100000000E-03 0. -1.
    9900012    2    1    2    0    0 -0.30414493938E+01  0.17947073125E+02  0.36356814133E+02  0.50528858567E+02  0.29999996101E+02 0.  0.
         12    1    1    2    0    0  0.30414493938E+01 -0.17947073125E+02 -0.36356814133E+02  0.40659141433E+02  0.00000000000E+00 0. -1.
         11    1    3    3    0    0  0.84422531536E+01  0.79268994022E+01  0.36145813885E+01  0.12131470287E+02  0.51100000000E-03 0.  1.
        -11    1    3    3    0    0 -0.93362384050E+01  0.58248560200E+00  0.10063895694E+02  0.13739964841E+02  0.51100000000E-03 0. -1.
        -12    1    3    3    0    0 -0.21474641423E+01  0.94376881203E+01  0.22678337051E+02  0.24657423440E+02  0.00000000000E+00 0.  1.
</event>
<event>
 7    1  0.2575978E-011  0.5052886E+02  0.7816164E-02  0.1300439E+00
        -11   -1    0    0    0    0  0.00000000000E+00  0.00000000000E+00  0.45593999997E+02  0.45594000000E+02  0.51100000000E-03 0.  1.
         11   -1    0    0    0    0 -0.00000000000E+00 -0.00000000000E+00 -0.45593999997E+02  0.45594000000E+02  0.51100000000E-03 0. -1.
    9900012    2    1    2    0    0 -0.45240525320E+01 -0.18818934850E+02  0.35756763378E+02  0.50528862190E+02  0.30000007113E+02 0.  0.
         12    1    1    2    0    0  0.45240525320E+01  0.18818934850E+02 -0.35756763378E+02  0.40659137810E+02  0.00000000000E+00 0. -1.
         11    1    3    3    0    0 -0.27341375480E+01  0.67285721372E+00 -0.13468283171E+01  0.31212484263E+01  0.51100000000E-03 0. -1.
        -11    1    3    3    0    0 -0.22195798988E+00 -0.24781649335E+01 -0.29517462946E+01  0.38604887302E+01  0.51100000000E-03 0.  1.
        -12    1    3    3    0    0 -0.15679569941E+01 -0.17013627130E+02  0.40055337989E+02  0.43547125034E+02  0.00000000000E+00 0.  1.
</event>
<event>
 7    1  0.2575978E-011  0.5052885E+02  0.7816164E-02  0.1300439E+00
        -11   -1    0    0    0    0  0.00000000000E+00  0.00000000000E+00  0.45593999997E+02  0.45594000000E+02  0.51100000000E-03 0. -1.
         11   -1    0    0    0    0 -0.00000000000E+00 -0.00000000000E+00 -0.45593999997E+02  0.45594000000E+02  0.51100000000E-03 0.  1.
    9900012    2    1    2    0    0  0.96262704055E+01 -0.54207191090E+01 -0.39129489137E+02  0.50528853456E+02  0.29999980564E+02 0.  0.
         12    1    1    2    0    0 -0.96262704055E+01  0.54207191090E+01  0.39129489137E+02  0.40659146544E+02  0.00000000000E+00 0. -1.
         11    1    3    3    0    0 -0.16956030457E+01  0.40493710318E+01 -0.81212951026E+00  0.44645302154E+01  0.51100000000E-03 0.  1.
        -11    1    3    3    0    0 -0.42143228488E+00 -0.12644514901E+02 -0.13971437908E+02  0.18848406822E+02  0.51100000000E-03 0. -1.
        -12    1    3    3    0    0  0.11743305736E+02  0.31744247598E+01 -0.24345921719E+02  0.27215916419E+02  0.00000000000E+00 0.  1.
</event>
<event>
 7    1  0.2575978E-011  0.5052885E+02  0.7816164E-02  0.1300439E+00
        -11   -1    0    0    0    0  0.00000000000E+00  0.00000000000E+00  0.45593999997E+02  0.45594000000E+02  0.51100000000E-03 0. -1.
         11   -1    0    0    0    0 -0.00000000000E+00 -0.00000000000E+00 -0.45593999997E+02  0.45594000000E+02  0.51100000000E-03 0.  1.
    9900012    2    1    2    0    0  0.16636969433E+02  0.13209916299E+02 -0.34668077924E+02  0.50528852598E+02  0.29999977956E+02 0.  0.
         12    1    1    2    0    0 -0.16636969433E+02 -0.13209916299E+02  0.34668077924E+02  0.40659147402E+02  0.00000000000E+00 0. -1.
         11    1    3    3    0    0  0.14535095874E+02  0.83191930615E+01 -0.20915178284E+02  0.26794078976E+02  0.51100000000E-03 0. -1.
        -11    1    3    3    0    0  0.97997526469E+01  0.59958833053E+01 -0.92411328855E+01  0.14743958282E+02  0.51100000000E-03 0.  1.
        -12    1    3    3    0    0 -0.76978790879E+01 -0.11051600679E+01 -0.45117667544E+01  0.89908153398E+01  0.00000000000E+00 0.  1.
</event>
<event>
 7    1  0.2575978E-011  0.5052887E+02  0.7816164E-02  0.1300439E+00
        -11   -1    0    0    0    0  0.00000000000E+00  0.00000000000E+00  0.45593999997E+02  0.45594000000E+02  0.51100000000E-03 0.  1.
         11   -1    0    0    0    0 -0.00000000000E+00 -0.00000000000E+00 -0.45593999997E+02  0.45594000000E+02  0.51100000000E-03 0. -1.
    9900012    2    1    2    0    0  0.25030256599E+02 -0.29181078224E+02  0.13233139257E+02  0.50528867615E+02  0.30000023603E+02 0.  0.
         12    1    1    2    0    0 -0.25030256599E+02  0.29181078224E+02 -0.13233139257E+02  0.40659132385E+02  0.00000000000E+00 0. -1.
         11    1    3    3    0    0  0.71112115568E+01 -0.20265435061E+02 -0.45808068319E+01  0.21959985872E+02  0.51100000000E-03 0. -1.
        -11    1    3    3    0    0  0.32070357169E+01 -0.39209008831E+01  0.99275405114E+01  0.11145160505E+02  0.51100000000E-03 0.  1.
        -12    1    3    3    0    0  0.14712009325E+02 -0.49947422793E+01  0.78864055778E+01  0.17423721237E+02  0.00000000000E+00 0.  1.
</event>
<event>
 7    1  0.2575978E-011  0.5052886E+02  0.7816164E-02  0.1300439E+00
        -11   -1    0    0    0    0  0.00000000000E+00  0.00000000000E+00  0.45593999997E+02  0.45594000000E+02  0.51100000000E-03 0.  1.
         11   -1    0    0    0    0 -0.00000000000E+00 -0.00000000000E+00 -0.45593999997E+02  0.45594000000E+02  0.51100000000E-03 0. -1.
    9900012    2    1    2    0    0  0.34824550068E+02 -0.20951898309E+02 -0.11977124585E+01  0.50528857789E+02  0.29999993735E+02 0.  0.
         12    1    1    2    0    0 -0.34824550068E+02  0.20951898309E+02  0.11977124585E+01  0.40659142211E+02  0.00000000000E+00 0. -1.
         11    1    3    3    0    0  0.61537640321E+00 -0.33497522946E+01  0.92826073617E+00  0.35300420406E+01  0.51100000000E-03 0. -1.
        -11    1    3    3    0    0  0.36077561454E+01 -0.14981955855E+02  0.34290198924E+01  0.15787117639E+02  0.51100000000E-03 0.  1.
        -12    1    3    3    0    0  0.30601417520E+02 -0.26201901591E+01 -0.55549930871E+01  0.31211698109E+02  0.00000000000E+00 0.  1.
</event>
<event>
 7    1  0.2575978E-011  0.5052886E+02  0.7816164E-02  0.1300439E+00
        -11   -1    0    0    0    0  0.00000000000E+00  0.00000000000E+00  0.45593999997E+02  0.45594000000E+02  0.51100000000E-03 0.  1.
         11   -1    0    0    0    0 -0.00000000000E+00 -0.00000000000E+00 -0.45593999997E+02  0.45594000000E+02  0.51100000000E-03 0. -1.
    9900012    2    1    2    0    0  0.29614490574E+02  0.26387870721E+02  0.89346296098E+01  0.50528863519E+02  0.30000011151E+02 0.  0.
         12    1    1    2    0    0 -0.29614490574E+02 -0.26387870721E+02 -0.89346296098E+01  0.40659136481E+02  0.00000000000E+00 0. -1.
         11    1    3    3    0    0  0.68079132946E+01 -0.30832767241E+01  0.70238452366E+00  0.75065053830E+01  0.51100000000E-03 0. -1.
        -11    1    3    3    0    0  0.25876746795E+01 -0.18987212891E+01  0.44827421786E+01  0.55132731187E+01  0.51100000000E-03 0.  1.
        -12    1    3    3    0    0  0.20218902600E+02  0.31369868735E+02  0.37495029076E+01  0.37509085017E+02  0.00000000000E+00 0.  1.
</event>
<event>
 7    1  0.2575978E-011  0.5052886E+02  0.7816164E-02  0.1300439E+00
        -11   -1    0    0    0    0  0.00000000000E+00  0.00000000000E+00  0.45593999997E+02  0.45594000000E+02  0.51100000000E-03 0.  1.
         11   -1    0    0    0    0 -0.00000000000E+00 -0.00000000000E+00 -0.45593999997E+02  0.45594000000E+02  0.51100000000E-03 0. -1.
    9900012    2    1    2    0    0  0.26245175798E+02 -0.38786995228E+01  0.30810912240E+02  0.50528857416E+02  0.29999992601E+02 0.  0.
         12    1    1    2    0    0 -0.26245175798E+02  0.38786995228E+01 -0.30810912240E+02  0.40659142584E+02  0.00000000000E+00 0. -1.
         11    1    3    3    0    0 -0.21911612628E+01  0.35124191341E+01  0.81015749465E+00  0.42183683197E+01  0.51100000000E-03 0. -1.
        -11    1    3    3    0    0  0.67023421563E+01  0.29733356664E+00  0.20154933285E+02  0.21242201713E+02  0.51100000000E-03 0.  1.
        -12    1    3    3    0    0  0.21733994904E+02 -0.76884522235E+01  0.98458214602E+01  0.25068287383E+02  0.00000000000E+00 0.  1.
</event>
<event>
 7    1  0.2575978E-011  0.5052886E+02  0.7816164E-02  0.1300439E+00
        -11   -1    0    0    0    0  0.00000000000E+00  0.00000000000E+00  0.45593999997E+02  0.45594000000E+02  0.51100000000E-03 0.  1.
         11   -1    0    0    0    0 -0.00000000000E+00 -0.00000000000E+00 -0.45593999997E+02  0.45594000000E+02  0.51100000000E-03 0. -1.
    9900012    2    1    2    0    0  0.58765918262E+00 -0.39931743176E+02  0.76338821754E+01  0.50528860641E+02  0.30000002404E+02 0.  0.
         12    1    1    2    0    0 -0.58765918262E+00  0.39931743176E+02 -0.76338821754E+01  0.40659139359E+02  0.00000000000E+00 0. -1.
         11    1    3    3    0    0 -0.78666700238E+01 -0.17333922173E+02 -0.91956165871E+00  0.19057674283E+02  0.51100000000E-03 0. -1.
        -11    1    3    3    0    0 -0.41343260602E+01 -0.33374759773E+01  0.64633785944E+01  0.83669983259E+01  0.51100000000E-03 0.  1.
        -12    1    3    3    0    0  0.12588655267E+02 -0.19260345025E+02  0.20900652398E+01  0.23104188032E+02  0.00000000000E+00 0.  1.
</event>
<event>
 7    1  0.2575978E-011  0.5052887E+02  0.7816164E-02  0.1300439E+00
        -11   -1    0    0    0    0  0.00000000000E+00  0.00000000000E+00  0.45593999997E+02  0.45594000000E+02  0.51100000000E-03 0.  1.
         11   -1    0    0    0    0 -0.00000000000E+00 -0.00000000000E+00 -0.45593999997E+02  0.45594000000E+02  0.51100000000E-03 0. -1.
    9900012    2    1    2    0    0  0.30701127773E+02  0.25417968922E+02  0.80332103623E+01  0.50528869914E+02  0.30000030589E+02 0.  0.
         12    1    1    2    0    0 -0.30701127773E+02 -0.25417968922E+02 -0.80332103623E+01  0.40659130086E+02  0.00000000000E+00 0. -1.
         11    1    3    3    0    0  0.12848692588E+01 -0.46349875884E+01  0.31584815199E+01  0.57541293633E+01  0.51100000000E-03 0. -1.
        -11    1    3    3    0    0  0.77521711216E+01  0.10607518287E+02 -0.49656867107E+01  0.14045413702E+02  0.51100000000E-03 0.  1.
        -12    1    3    3    0    0  0.21664087392E+02  0.19445438224E+02  0.98404155531E+01  0.30729326848E+02  0.00000000000E+00 0.  1.
</event>
<event>
 7    1  0.2575978E-011  0.5052887E+02  0.7816164E-02  0.1300439E+00
        -11   -1    0    0    0    0  0.00000000000E+00  0.00000000000E+00  0.45593999997E+02  0.45594000000E+02  0.51100000000E-03 0.  1.
         11   -1    0    0    0    0 -0.00000000000E+00 -0.00000000000E+00 -0.45593999997E+02  0.45594000000E+02  0.51100000000E-03 0. -1.
    9900012    2    1    2    0    0 -0.18626205317E+02 -0.18891020009E+02  0.30811669060E+02  0.50528866810E+02  0.30000021157E+02 0.  0.
         12    1    1    2    0    0  0.18626205317E+02  0.18891020009E+02 -0.30811669060E+02  0.40659133190E+02  0.00000000000E+00 0. -1.
         11    1    3    3    0    0 -0.28611415701E+01 -0.11414419086E+02  0.28565575201E+01  0.12109294582E+02  0.51100000000E-03 0. -1.
        -11    1    3    3    0    0 -0.10143760050E+01 -0.75100894493E+01  0.93556825670E+00  0.76358162917E+01  0.51100000000E-03 0.  1.
        -12    1    3    3    0    0 -0.14750687742E+02  0.33488526647E-01  0.27019543283E+02  0.30783755937E+02  0.00000000000E+00 0.  1.
</event>
<event>
 7    1  0.2575978E-011  0.5052887E+02  0.7816164E-02  0.1300439E+00
        -11   -1    0    0    0    0  0.00000000000E+00  0.00000000000E+00  0.45593999997E+02  0.45594000000E+02  0.51100000000E-03 0. -1.
         11   -1    0    0    0    0 -0.00000000000E+00 -0.00000000000E+00 -0.45593999997E+02  0.45594000000E+02  0.51100000000E-03 0.  1.
    9900012    2    1    2    0    0  0.11214640741E+02 -0.30618183719E+02 -0.24288347835E+02  0.50528865949E+02  0.30000018539E+02 0.  0.
         12    1    1    2    0    0 -0.11214640741E+02  0.30618183719E+02  0.24288347835E+02  0.40659134051E+02  0.00000000000E+00 0. -1.
         11    1    3    3    0    0  0.89349534336E+01 -0.83332264180E+00  0.18298653300E+01  0.91583965230E+01  0.51100000000E-03 0. -1.
        -11    1    3    3    0    0 -0.15166481649E+01 -0.78155837348E+01 -0.14008311951E+01  0.80836810347E+01  0.51100000000E-03 0.  1.
         12    1    3    3    0    0  0.37963354721E+01 -0.21969277343E+02 -0.24717381970E+02  0.33286788391E+02  0.00000000000E+00 0. -1.
</event>
<event>
 7    1  0.2575978E-011  0.5052887E+02  0.7816164E-02  0.1300439E+00
        -11   -1    0    0    0    0  0.00000000000E+00  0.00000000000E+00  0.45593999997E+02  0.45594000000E+02  0.51100000000E-03 0.  1.
         11   -1    0    0    0    0 -0.00000000000E+00 -0.00000000000E+00 -0.45593999997E+02  0.45594000000E+02  0.51100000000E-03 0. -1.
    9900012    2    1    2    0    0  0.13083171780E+02  0.38100006399E+02 -0.55122258043E+01  0.50528874275E+02  0.30000043846E+02 0.  0.
         12    1    1    2    0    0 -0.13083171780E+02 -0.38100006399E+02  0.55122258043E+01  0.40659125725E+02  0.00000000000E+00 0. -1.
         11    1    3    3    0    0  0.10922362303E+02  0.31767644570E+02 -0.20224585202E+01  0.33653700815E+02  0.51100000000E-03 0. -1.
        -11    1    3    3    0    0  0.68708389985E+00  0.10284098440E+02  0.14180348029E+01  0.10404113992E+02  0.51100000000E-03 0.  1.
         12    1    3    3    0    0  0.14737255765E+01 -0.39517366103E+01 -0.49078020870E+01  0.64710594679E+01  0.00000000000E+00 0. -1.
</event>
<event>
 7    1  0.2575978E-011  0.5052886E+02  0.7816164E-02  0.1300439E+00
        -11   -1    0    0    0    0  0.00000000000E+00  0.00000000000E+00  0.45593999997E+02  0.45594000000E+02  0.51100000000E-03 0.  1.
         11   -1    0    0    0    0 -0.00000000000E+00 -0.00000000000E+00 -0.45593999997E+02  0.45594000000E+02  0.51100000000E-03 0. -1.
    9900012    2    1    2    0    0  0.33763997995E+01 -0.36867695076E+02  0.16808888007E+02  0.50528859185E+02  0.29999997978E+02 0.  0.
         12    1    1    2    0    0 -0.33763997995E+01  0.36867695076E+02 -0.16808888007E+02  0.40659140815E+02  0.00000000000E+00 0. -1.
         11    1    3    3    0    0 -0.90400737264E+00 -0.89873995497E+01  0.17973089227E+02  0.20115230961E+02  0.51100000000E-03 0. -1.
        -11    1    3    3    0    0  0.21340125728E+01 -0.19868438992E+02  0.43537027379E+01  0.20451493966E+02  0.51100000000E-03 0.  1.
        -12    1    3    3    0    0  0.21463945993E+01 -0.80118565337E+01 -0.55179039575E+01  0.99621342582E+01  0.00000000000E+00 0.  1.
</event>
<event>
 7    1  0.2575978E-011  0.5052888E+02  0.7816164E-02  0.1300439E+00
        -11   -1    0    0    0    0  0.00000000000E+00  0.00000000000E+00  0.45593999997E+02  0.45594000000E+02  0.51100000000E-03 0.  1.
         11   -1    0    0    0    0 -0.00000000000E+00 -0.00000000000E+00 -0.45593999997E+02  0.45594000000E+02  0.51100000000E-03 0. -1.
    9900012    2    1    2    0    0 -0.43882865247E+01  0.18633221011E+02  0.35870735929E+02  0.50528884417E+02  0.30000074674E+02 0.  0.
         12    1    1    2    0    0  0.43882865247E+01 -0.18633221011E+02 -0.35870735929E+02  0.40659115583E+02  0.00000000000E+00 0. -1.
         11    1    3    3    0    0 -0.59800534916E+01 -0.48691345467E+00  0.11449399228E+02  0.12926208548E+02  0.51100000000E-03 0. -1.
        -11    1    3    3    0    0 -0.76056911580E+01  0.72805033013E+00  0.95237232897E+01  0.12209746141E+02  0.51100000000E-03 0.  1.
         12    1    3    3    0    0  0.91974581249E+01  0.18392084136E+02  0.14897613412E+02  0.25392929728E+02  0.00000000000E+00 0. -1.
</event>
<event>
 7    1  0.2575978E-011  0.5052883E+02  0.7816164E-02  0.1300439E+00
        -11   -1    0    0    0    0  0.00000000000E+00  0.00000000000E+00  0.45593999997E+02  0.45594000000E+02  0.51100000000E-03 0. -1.
         11   -1    0    0    0    0 -0.00000000000E+00 -0.00000000000E+00 -0.45593999997E+02  0.45594000000E+02  0.51100000000E-03 0.  1.
    9900012    2    1    2    0    0 -0.62926754349E+01 -0.34791528663E+02  0.20077846959E+02  0.50528829210E+02  0.29999906866E+02 0.  0.
         12    1    1    2    0    0  0.62926754349E+01  0.34791528663E+02 -0.20077846959E+02  0.40659170790E+02  0.00000000000E+00 0. -1.
         11    1    3    3    0    0 -0.51870735589E+01 -0.32572228525E+02  0.16503860285E+02  0.36881339560E+02  0.51100000000E-03 0. -1.
        -11    1    3    3    0    0  0.15736758912E+01 -0.70719875430E+01  0.39118211784E+00  0.72555142705E+01  0.51100000000E-03 0.  1.
         12    1    3    3    0    0 -0.26792777672E+01  0.48526874048E+01  0.31828045565E+01  0.63919753791E+01  0.00000000000E+00 0. -1.
</event>
<event>
 7    1  0.2575978E-011  0.5052883E+02  0.7816164E-02  0.1300439E+00
        -11   -1    0    0    0    0  0.00000000000E+00  0.00000000000E+00  0.45593999997E+02  0.45594000000E+02  0.51100000000E-03 0.  1.
         11   -1    0    0    0    0 -0.00000000000E+00 -0.00000000000E+00 -0.45593999997E+02  0.45594000000E+02  0.51100000000E-03 0. -1.
    9900012    2    1    2    0    0 -0.20700684944E+02 -0.30811878996E+01  0.34859088541E+02  0.50528829695E+02  0.29999908341E+02 0.  0.
         12    1    1    2    0    0  0.20700684944E+02  0.30811878996E+01 -0.34859088541E+02  0.40659170305E+02  0.00000000000E+00 0. -1.
         11    1    3    3    0    0 -0.88369722206E+01  0.31220367232E-01  0.38920225935E+01  0.96561323969E+01  0.51100000000E-03 0. -1.
        -11    1    3    3    0    0 -0.15959377888E+02 -0.44913743567E+01  0.97791133484E+01  0.19248512783E+02  0.51100000000E-03 0.  1.
        -12    1    3    3    0    0  0.40956651654E+01  0.13789660899E+01  0.21187952599E+02  0.21624184515E+02  0.00000000000E+00 0.  1.
</event>
<event>
 7    1  0.2575978E-011  0.5052885E+02  0.7816164E-02  0.1300439E+00
        -11   -1    0    0    0    0  0.00000000000E+00  0.00000000000E+00  0.45593999997E+02  0.45594000000E+02  0.51100000000E-03 0. -1.
         11   -1    0    0    0    0 -0.00000000000E+00 -0.00000000000E+00 -0.45593999997E+02  0.45594000000E+02  0.51100000000E-03 0.  1.
    9900012    2    1    2    0    0 -0.80345463148E+01  0.20186226436E+02 -0.34367550499E+02  0.50528853434E+02  0.29999980498E+02 0.  0.
         12    1    1    2    0    0  0.80345463148E+01 -0.20186226436E+02  0.34367550499E+02  0.40659146566E+02  0.00000000000E+00 0. -1.
         11    1    3    3    0    0  0.31008248994E+01  0.33736848095E+01 -0.19953290570E+01  0.49978197804E+01  0.51100000000E-03 0. -1.
        -11    1    3    3    0    0  0.71559853191E+01  0.58842340423E+01 -0.41063094091E+01  0.10133810408E+02  0.51100000000E-03 0.  1.
        -12    1    3    3    0    0 -0.18291356533E+02  0.10928307584E+02 -0.28265912033E+02  0.35397223246E+02  0.00000000000E+00 0.  1.
</event>
<event>
 7    1  0.2575978E-011  0.5052885E+02  0.7816164E-02  0.1300439E+00
        -11   -1    0    0    0    0  0.00000000000E+00  0.00000000000E+00  0.45593999997E+02  0.45594000000E+02  0.51100000000E-03 0.  1.
         11   -1    0    0    0    0 -0.00000000000E+00 -0.00000000000E+00 -0.45593999997E+02  0.45594000000E+02  0.51100000000E-03 0. -1.
    9900012    2    1    2    0    0 -0.19173472785E+01 -0.15666682117E+02  0.37470588745E+02  0.50528853796E+02  0.29999981598E+02 0.  0.
         12    1    1    2    0    0  0.19173472785E+01  0.15666682117E+02 -0.37470588745E+02  0.40659146204E+02  0.00000000000E+00 0. -1.
         11    1    3    3    0    0 -0.72691637965E+01 -0.60471463822E+01  0.15969806605E+02  0.18559187615E+02  0.51100000000E-03 0.  1.
        -11    1    3    3    0    0 -0.33049306346E+01 -0.70837670278E+01  0.21576546737E+02  0.22948849451E+02  0.51100000000E-03 0. -1.
         12    1    3    3    0    0  0.86567471526E+01 -0.25357687074E+01 -0.75764596479E-01  0.90208167299E+01  0.00000000000E+00 0. -1.
</event>
<event>
 7    1  0.2575978E-011  0.5052883E+02  0.7816164E-02  0.1300439E+00
        -11   -1    0    0    0    0  0.00000000000E+00  0.00000000000E+00  0.45593999997E+02  0.45594000000E+02  0.51100000000E-03 0. -1.
         11   -1    0    0    0    0 -0.00000000000E+00 -0.00000000000E+00 -0.45593999997E+02  0.45594000000E+02  0.51100000000E-03 0.  1.
    9900012    2    1    2    0    0  0.29028274885E+01  0.24254784272E+02 -0.32503032428E+02  0.50528830253E+02  0.29999910036E+02 0.  0.
         12    1    1    2    0    0 -0.29028274885E+01 -0.24254784272E+02  0.32503032428E+02  0.40659169747E+02  0.00000000000E+00 0. -1.
         11    1    3    3    0    0 -0.45767617555E+01  0.17934769040E+02 -0.17099675364E+02  0.25199237815E+02  0.51100000000E-03 0. -1.
        -11    1    3    3    0    0 -0.50346067420E+01  0.56184278233E+01 -0.51251467768E+01  0.91203687423E+01  0.51100000000E-03 0.  1.
         12    1    3    3    0    0  0.12514195986E+02  0.70158740861E+00 -0.10278210288E+02  0.16209223695E+02  0.00000000000E+00 0. -1.
</event>
<event>
 7    1  0.2575978E-011  0.5052886E+02  0.7816164E-02  0.1300439E+00
        -11   -1    0    0    0    0  0.00000000000E+00  0.00000000000E+00  0.45593999997E+02  0.45594000000E+02  0.51100000000E-03 0.  1.
         11   -1    0    0    0    0 -0.00000000000E+00 -0.00000000000E+00 -0.45593999997E+02  0.45594000000E+02  0.51100000000E-03 0. -1.
    9900012    2    1    2    0    0  0.30413394003E+02  0.13548211141E+02  0.23337462662E+02  0.50528859288E+02  0.29999998293E+02 0.  0.
         12    1    1    2    0    0 -0.30413394003E+02 -0.13548211141E+02 -0.23337462662E+02  0.40659140712E+02  0.00000000000E+00 0. -1.
         11    1    3    3    0    0 -0.21467868586E+01 -0.32290747158E+01  0.31532394745E+01  0.49978532172E+01  0.51100000000E-03 0. -1.
        -11    1    3    3    0    0  0.50259052796E+01  0.15434274890E+01  0.11872063234E+02  0.12984135627E+02  0.51100000000E-03 0.  1.
         12    1    3    3    0    0  0.27534275582E+02  0.15233858368E+02  0.83121599540E+01  0.32546870444E+02  0.00000000000E+00 0. -1.
</event>
<event>
 7    1  0.2575978E-011  0.5052886E+02  0.7816164E-02  0.1300439E+00
        -11   -1    0    0    0    0  0.00000000000E+00  0.00000000000E+00  0.45593999997E+02  0.45594000000E+02  0.51100000000E-03 0.  1.
         11   -1    0    0    0    0 -0.00000000000E+00 -0.00000000000E+00 -0.45593999997E+02  0.45594000000E+02  0.51100000000E-03 0. -1.
    9900012    2    1    2    0    0 -0.25912304781E+02  0.15941030523E+02  0.26974091997E+02  0.50528860409E+02  0.30000001700E+02 0.  0.
         12    1    1    2    0    0  0.25912304781E+02 -0.15941030523E+02 -0.26974091997E+02  0.40659139591E+02  0.00000000000E+00 0. -1.
         11    1    3    3    0    0 -0.10006759285E+02  0.70335063013E+01  0.50061665992E+00  0.12241570960E+02  0.51100000000E-03 0. -1.
        -11    1    3    3    0    0 -0.70776156774E+01  0.14799008027E+01 -0.20527376858E+01  0.75164141936E+01  0.51100000000E-03 0.  1.
        -12    1    3    3    0    0 -0.88279298188E+01  0.74276234191E+01  0.28526213023E+02  0.30770875255E+02  0.00000000000E+00 0.  1.
</event>
<event>
 7    1  0.2575978E-011  0.5052888E+02  0.7816164E-02  0.1300439E+00
        -11   -1    0    0    0    0  0.00000000000E+00  0.00000000000E+00  0.45593999997E+02  0.45594000000E+02  0.51100000000E-03 0. -1.
         11   -1    0    0    0    0 -0.00000000000E+00 -0.00000000000E+00 -0.45593999997E+02  0.45594000000E+02  0.51100000000E-03 0.  1.
    9900012    2    1    2    0    0 -0.27441485571E+02  0.29159252989E+02  0.70616717844E+01  0.50528875887E+02  0.30000048747E+02 0.  0.
         12    1    1    2    0    0  0.27441485571E+02 -0.29159252989E+02 -0.70616717844E+01  0.40659124113E+02  0.00000000000E+00 0. -1.
         11    1    3    3    0    0 -0.16016773377E+01  0.99984248408E+01 -0.20463084936E+01  0.10330597674E+02  0.51100000000E-03 0.  1.
        -11    1    3    3    0    0 -0.94778002141E+01 -0.64087960868E+00 -0.51643891251E+01  0.10812508445E+02  0.51100000000E-03 0. -1.
        -12    1    3    3    0    0 -0.16362008020E+02  0.19801707756E+02  0.14272369403E+02  0.29385769769E+02  0.00000000000E+00 0.  1.
</event>
<event>
 7    1  0.2575978E-011  0.5052883E+02  0.7816164E-02  0.1300439E+00
        -11   -1    0    0    0    0  0.00000000000E+00  0.00000000000E+00  0.45593999997E+02  0.45594000000E+02  0.51100000000E-03 0.  1.
         11   -1    0    0    0    0 -0.00000000000E+00 -0.00000000000E+00 -0.45593999997E+02  0.45594000000E+02  0.51100000000E-03 0. -1.
    9900012    2    1    2    0    0 -0.11718872168E+02  0.73534335348E+01  0.38233014563E+02  0.50528826961E+02  0.29999900031E+02 0.  0.
         12    1    1    2    0    0  0.11718872168E+02 -0.73534335348E+01 -0.38233014563E+02  0.40659173039E+02  0.00000000000E+00 0. -1.
         11    1    3    3    0    0  0.11921645655E+01 -0.47073211217E+01  0.43171430879E+01  0.64975266984E+01  0.51100000000E-03 0. -1.
        -11    1    3    3    0    0 -0.17965589118E+01 -0.43617912263E+01  0.17988715218E+02  0.18596954646E+02  0.51100000000E-03 0.  1.
         12    1    3    3    0    0 -0.11114477822E+02  0.16422545883E+02  0.15927156257E+02  0.25434345617E+02  0.00000000000E+00 0. -1.
</event>
<event>
 7    1  0.2575978E-011  0.5052886E+02  0.7816164E-02  0.1300439E+00
        -11   -1    0    0    0    0  0.00000000000E+00  0.00000000000E+00  0.45593999997E+02  0.45594000000E+02  0.51100000000E-03 0. -1.
         11   -1    0    0    0    0 -0.00000000000E+00 -0.00000000000E+00 -0.45593999997E+02  0.45594000000E+02  0.51100000000E-03 0.  1.
    9900012    2    1    2    0    0  0.36691945481E+01 -0.38108992587E+02 -0.13689687921E+02  0.50528857608E+02  0.29999993187E+02 0.  0.
         12    1    1    2    0    0 -0.36691945481E+01  0.38108992587E+02  0.13689687921E+02  0.40659142392E+02  0.00000000000E+00 0. -1.
         11    1    3    3    0    0  0.12592364967E+02 -0.62510213455E+01 -0.37461609329E+01  0.14549111496E+02  0.51100000000E-03 0. -1.
        -11    1    3    3    0    0 -0.14971604123E+01 -0.21316843540E+02 -0.38309294355E+01  0.21710028291E+02  0.51100000000E-03 0.  1.
        -12    1    3    3    0    0 -0.74260100070E+01 -0.10541127702E+02 -0.61125975526E+01  0.14269717821E+02  0.00000000000E+00 0.  1.
</event>
<event>
 7    1  0.2575978E-011  0.5052884E+02  0.7816164E-02  0.1300439E+00
        -11   -1    0    0    0    0  0.00000000000E+00  0.00000000000E+00  0.45593999997E+02  0.45594000000E+02  0.51100000000E-03 0.  1.
         11   -1    0    0    0    0 -0.00000000000E+00 -0.00000000000E+00 -0.45593999997E+02  0.45594000000E+02  0.51100000000E-03 0. -1.
    9900012    2    1    2    0    0  0.29050110211E+02  0.91418868099E+01  0.26938525477E+02  0.50528841714E+02  0.29999944873E+02 0.  0.
         12    1    1    2    0    0 -0.29050110211E+02 -0.91418868099E+01 -0.26938525477E+02  0.40659158286E+02  0.00000000000E+00 0. -1.
         11    1    3    3    0    0  0.57161027667E+01 -0.33982368196E+01  0.24129622180E+01  0.70741947420E+01  0.51100000000E-03 0. -1.
        -11    1    3    3    0    0  0.12519213813E+02 -0.30494181015E+01  0.57320392090E+00  0.12897993187E+02  0.51100000000E-03 0.  1.
        -12    1    3    3    0    0  0.10814793631E+02  0.15589541731E+02  0.23952359338E+02  0.30556653785E+02  0.00000000000E+00 0.  1.
</event>
<event>
 7    1  0.2575978E-011  0.5052890E+02  0.7816164E-02  0.1300439E+00
        -11   -1    0    0    0    0  0.00000000000E+00  0.00000000000E+00  0.45593999997E+02  0.45594000000E+02  0.51100000000E-03 0.  1.
         11   -1    0    0    0    0 -0.00000000000E+00 -0.00000000000E+00 -0.45593999997E+02  0.45594000000E+02  0.51100000000E-03 0. -1.
    9900012    2    1    2    0    0  0.85302900827E+00  0.18961967007E+02  0.35956620830E+02  0.50528899754E+02  0.30000121293E+02 0.  0.
         12    1    1    2    0    0 -0.85302900827E+00 -0.18961967007E+02 -0.35956620830E+02  0.40659100246E+02  0.00000000000E+00 0. -1.
         11    1    3    3    0    0 -0.99246138230E+00  0.83524630814E+01  0.89651587141E+01  0.12293196905E+02  0.51100000000E-03 0. -1.
        -11    1    3    3    0    0  0.80253975226E+01  0.15153575130E+02  0.10655774893E+02  0.20188694446E+02  0.51100000000E-03 0.  1.
        -12    1    3    3    0    0 -0.61799071320E+01 -0.45440712035E+01  0.16335687223E+02  0.18047008403E+02  0.00000000000E+00 0.  1.
</event>
<event>
 7    1  0.2575978E-011  0.5052886E+02  0.7816164E-02  0.1300439E+00
        -11   -1    0    0    0    0  0.00000000000E+00  0.00000000000E+00  0.45593999997E+02  0.45594000000E+02  0.51100000000E-03 0. -1.
         11   -1    0    0    0    0 -0.00000000000E+00 -0.00000000000E+00 -0.45593999997E+02  0.45594000000E+02  0.51100000000E-03 0.  1.
    9900012    2    1    2    0    0 -0.59595691128E+01 -0.39778317348E+02  0.59442786906E+01  0.50528862722E+02  0.30000008729E+02 0.  0.
         12    1    1    2    0    0  0.59595691128E+01  0.39778317348E+02 -0.59442786906E+01  0.40659137278E+02  0.00000000000E+00 0. -1.
         11    1    3    3    0    0 -0.83313621548E+01 -0.36094478625E+01 -0.23977062510E+01  0.93908841306E+01  0.51100000000E-03 0.  1.
        -11    1    3    3    0    0 -0.21873902390E+01 -0.13996782188E+02  0.11546739244E+02  0.18276262613E+02  0.51100000000E-03 0. -1.
        -12    1    3    3    0    0  0.45591832810E+01 -0.22172087298E+02 -0.32047543020E+01  0.22861715978E+02  0.00000000000E+00 0.  1.
</event>
<event>
 7    1  0.2575978E-011  0.5052884E+02  0.7816164E-02  0.1300439E+00
        -11   -1    0    0    0    0  0.00000000000E+00  0.00000000000E+00  0.45593999997E+02  0.45594000000E+02  0.51100000000E-03 0.  1.
         11   -1    0    0    0    0 -0.00000000000E+00 -0.00000000000E+00 -0.45593999997E+02  0.45594000000E+02  0.51100000000E-03 0. -1.
    9900012    2    1    2    0    0  0.14161142367E+02  0.53320213428E+01  0.37738556587E+02  0.50528842877E+02  0.29999948408E+02 0.  0.
         12    1    1    2    0    0 -0.14161142367E+02 -0.53320213428E+01 -0.37738556587E+02  0.40659157123E+02  0.00000000000E+00 0. -1.
         11    1    3    3    0    0  0.10673476114E+01 -0.19367114767E+01  0.68469547889E+01  0.71951978715E+01  0.51100000000E-03 0. -1.
        -11    1    3    3    0    0 -0.81159134284E+01  0.34492289077E+01  0.96928399051E+01  0.13104059544E+02  0.51100000000E-03 0.  1.
         12    1    3    3    0    0  0.21209708184E+02  0.38195039119E+01  0.21198761893E+02  0.30229585461E+02  0.00000000000E+00 0. -1.
</event>
<event>
 7    1  0.2575978E-011  0.5052886E+02  0.7816164E-02  0.1300439E+00
        -11   -1    0    0    0    0  0.00000000000E+00  0.00000000000E+00  0.45593999997E+02  0.45594000000E+02  0.51100000000E-03 0.  1.
         11   -1    0    0    0    0 -0.00000000000E+00 -0.00000000000E+00 -0.45593999997E+02  0.45594000000E+02  0.51100000000E-03 0. -1.
    9900012    2    1    2    0    0  0.38560965063E+02  0.12677245226E+02  0.23462779203E+01  0.50528860890E+02  0.30000003160E+02 0.  0.
         12    1    1    2    0    0 -0.38560965063E+02 -0.12677245226E+02 -0.23462779203E+01  0.40659139110E+02  0.00000000000E+00 0. -1.
         11    1    3    3    0    0  0.60159917679E+00 -0.36329834750E+01  0.15131208550E+01  0.39812090478E+01  0.51100000000E-03 0. -1.
        -11    1    3    3    0    0  0.35162203395E+01  0.61649229725E+01  0.71677131957E+01  0.10086931815E+02  0.51100000000E-03 0.  1.
        -12    1    3    3    0    0  0.34443145547E+02  0.10145305729E+02 -0.63345561304E+01  0.36460720026E+02  0.00000000000E+00 0.  1.
</event>
<event>
 7    1  0.2575978E-011  0.5052889E+02  0.7816164E-02  0.1300439E+00
        -11   -1    0    0    0    0  0.00000000000E+00  0.00000000000E+00  0.45593999997E+02  0.45594000000E+02  0.51100000000E-03 0.  1.
         11   -1    0    0    0    0 -0.00000000000E+00 -0.00000000000E+00 -0.45593999997E+02  0.45594000000E+02  0.51100000000E-03 0. -1.
    9900012    2    1    2    0    0  0.23516444173E+02 -0.28784974715E+02  0.16479232299E+02  0.50528892619E+02  0.30000099605E+02 0.  0.
         12    1    1    2    0    0 -0.23516444173E+02  0.28784974715E+02 -0.16479232299E+02  0.40659107381E+02  0.00000000000E+00 0. -1.
         11    1    3    3    0    0  0.40726293866E+01 -0.39187693221E+01  0.46978733749E+00  0.56713105650E+01  0.51100000000E-03 0. -1.
        -11    1    3    3    0    0  0.68486196294E+01 -0.12567297520E+02 -0.69625932311E+01  0.15915975074E+02  0.51100000000E-03 0.  1.
         12    1    3    3    0    0  0.12595195157E+02 -0.12298907873E+02  0.22972038192E+02  0.28941606980E+02  0.00000000000E+00 0. -1.
</event>
<event>
 7    1  0.2575978E-011  0.5052885E+02  0.7816164E-02  0.1300439E+00
        -11   -1    0    0    0    0  0.00000000000E+00  0.00000000000E+00  0.45593999997E+02  0.45594000000E+02  0.51100000000E-03 0. -1.
         11   -1    0    0    0    0 -0.00000000000E+00 -0.00000000000E+00 -0.45593999997E+02  0.45594000000E+02  0.51100000000E-03 0.  1.
    9900012    2    1    2    0    0 -0.16018738881E+02 -0.26528344102E+02 -0.26321349328E+02  0.50528850149E+02  0.29999970513E+02 0.  0.
         12    1    1    2    0    0  0.16018738881E+02  0.26528344102E+02  0.26321349328E+02  0.40659149851E+02  0.00000000000E+00 0. -1.
         11    1    3    3    0    0 -0.80340524710E+01  0.27224844529E+00 -0.16296954940E+02  0.18171704898E+02  0.51100000000E-03 0. -1.
        -11    1    3    3    0    0 -0.73025958718E+01 -0.62607265041E+01 -0.62254465172E+01  0.11457782832E+02  0.51100000000E-03 0.  1.
         12    1    3    3    0    0 -0.68209053830E+00 -0.20539866044E+02 -0.37989478709E+01  0.20899362419E+02  0.00000000000E+00 0. -1.
</event>
<event>
 7    1  0.2575978E-011  0.5052884E+02  0.7816164E-02  0.1300439E+00
        -11   -1    0    0    0    0  0.00000000000E+00  0.00000000000E+00  0.45593999997E+02  0.45594000000E+02  0.51100000000E-03 0. -1.
         11   -1    0    0    0    0 -0.00000000000E+00 -0.00000000000E+00 -0.45593999997E+02  0.45594000000E+02  0.51100000000E-03 0.  1.
    9900012    2    1    2    0    0 -0.21221002391E+02  0.34680917000E+02  0.26502983443E+00  0.50528841286E+02  0.29999943574E+02 0.  0.
         12    1    1    2    0    0  0.21221002391E+02 -0.34680917000E+02 -0.26502983443E+00  0.40659158714E+02  0.00000000000E+00 0. -1.
         11    1    3    3    0    0 -0.83186392087E+01  0.14702792876E+02  0.89315420680E+01  0.19108749844E+02  0.51100000000E-03 0. -1.
        -11    1    3    3    0    0 -0.42070850940E+01  0.46151391846E+01  0.58560434765E+01  0.85610933963E+01  0.51100000000E-03 0.  1.
         12    1    3    3    0    0 -0.86952780888E+01  0.15362984940E+02 -0.14522555710E+02  0.22858998046E+02  0.00000000000E+00 0. -1.
</event>
<event>
 7    1  0.2575978E-011  0.5052887E+02  0.7816164E-02  0.1300439E+00
        -11   -1    0    0    0    0  0.00000000000E+00  0.00000000000E+00  0.45593999997E+02  0.45594000000E+02  0.51100000000E-03 0.  1.
         11   -1    0    0    0    0 -0.00000000000E+00 -0.00000000000E+00 -0.45593999997E+02  0.45594000000E+02  0.51100000000E-03 0. -1.
    9900012    2    1    2    0    0 -0.13746981824E+02 -0.24424656174E+02  0.29455409990E+02  0.50528874134E+02  0.30000043418E+02 0.  0.
         12    1    1    2    0    0  0.13746981824E+02  0.24424656174E+02 -0.29455409990E+02  0.40659125866E+02  0.00000000000E+00 0. -1.
         11    1    3    3    0    0  0.11997953249E-01  0.74757281410E+00  0.99473058908E+01  0.99753648459E+01  0.51100000000E-03 0. -1.
        -11    1    3    3    0    0 -0.53465877772E+00  0.34239398303E+01  0.44327486305E+01  0.56265873007E+01  0.51100000000E-03 0.  1.
        -12    1    3    3    0    0 -0.13224321000E+02 -0.28596168819E+02  0.15075355469E+02  0.34926921987E+02  0.00000000000E+00 0.  1.
</event>
<event>
 7    1  0.2575978E-011  0.5052886E+02  0.7816164E-02  0.1300439E+00
        -11   -1    0    0    0    0  0.00000000000E+00  0.00000000000E+00  0.45593999997E+02  0.45594000000E+02  0.51100000000E-03 0.  1.
         11   -1    0    0    0    0 -0.00000000000E+00 -0.00000000000E+00 -0.45593999997E+02  0.45594000000E+02  0.51100000000E-03 0. -1.
    9900012    2    1    2    0    0 -0.38943593906E+02 -0.70849591449E+01  0.92933003393E+01  0.50528861007E+02  0.30000003518E+02 0.  0.
         12    1    1    2    0    0  0.38943593906E+02  0.70849591449E+01 -0.92933003393E+01  0.40659138993E+02  0.00000000000E+00 0. -1.
         11    1    3    3    0    0 -0.13697558114E+02  0.72881998481E+01 -0.11059045751E+01  0.15555191433E+02  0.51100000000E-03 0. -1.
        -11    1    3    3    0    0 -0.17857068383E+02 -0.99955604689E+00  0.35700325574E+01  0.18237849003E+02  0.51100000000E-03 0.  1.
        -12    1    3    3    0    0 -0.73889674091E+01 -0.13373602946E+02  0.68291723570E+01  0.16735820572E+02  0.00000000000E+00 0.  1.
</event>
<event>
 7    1  0.2575978E-011  0.5052886E+02  0.7816164E-02  0.1300439E+00
        -11   -1    0    0    0    0  0.00000000000E+00  0.00000000000E+00  0.45593999997E+02  0.45594000000E+02  0.51100000000E-03 0.  1.
         11   -1    0    0    0    0 -0.00000000000E+00 -0.00000000000E+00 -0.45593999997E+02  0.45594000000E+02  0.51100000000E-03 0. -1.
    9900012    2    1    2    0    0 -0.21070285945E+01 -0.46141424018E+01  0.40341491074E+02  0.50528858571E+02  0.29999996114E+02 0.  0.
         12    1    1    2    0    0  0.21070285945E+01  0.46141424018E+01 -0.40341491074E+02  0.40659141429E+02  0.00000000000E+00 0. -1.
         11    1    3    3    0    0  0.28449000858E+01  0.44801323772E+01  0.91415263670E+01  0.10570361734E+02  0.51100000000E-03 0. -1.
        -11    1    3    3    0    0  0.64760920115E+01 -0.37493135020E+01  0.24614727786E+02  0.25727066365E+02  0.51100000000E-03 0.  1.
         12    1    3    3    0    0 -0.11428020692E+02 -0.53449612770E+01  0.65852369213E+01  0.14231430473E+02  0.00000000000E+00 0. -1.
</event>
<event>
 7    1  0.2575978E-011  0.5052886E+02  0.7816164E-02  0.1300439E+00
        -11   -1    0    0    0    0  0.00000000000E+00  0.00000000000E+00  0.45593999997E+02  0.45594000000E+02  0.51100000000E-03 0. -1.
         11   -1    0    0    0    0 -0.00000000000E+00 -0.00000000000E+00 -0.45593999997E+02  0.45594000000E+02  0.51100000000E-03 0.  1.
    9900012    2    1    2    0    0 -0.11615902269E+02  0.38798608625E+02 -0.35922815107E+01  0.50528859537E+02  0.29999999048E+02 0.  0.
         12    1    1    2    0    0  0.11615902269E+02 -0.38798608625E+02  0.35922815107E+01  0.40659140463E+02  0.00000000000E+00 0. -1.
         11    1    3    3    0    0  0.81694388366E+00  0.23218826446E+02  0.45909694503E+01  0.23682447078E+02  0.51100000000E-03 0. -1.
        -11    1    3    3    0    0 -0.13890566022E+02  0.16378970741E+02 -0.33505766718E+01  0.21735797001E+02  0.51100000000E-03 0.  1.
        -12    1    3    3    0    0  0.14577198695E+01 -0.79918856234E+00 -0.48326742893E+01  0.51106154583E+01  0.00000000000E+00 0.  1.
</event>
<event>
 7    1  0.2575978E-011  0.5052887E+02  0.7816164E-02  0.1300439E+00
        -11   -1    0    0    0    0  0.00000000000E+00  0.00000000000E+00  0.45593999997E+02  0.45594000000E+02  0.51100000000E-03 0.  1.
         11   -1    0    0    0    0 -0.00000000000E+00 -0.00000000000E+00 -0.45593999997E+02  0.45594000000E+02  0.51100000000E-03 0. -1.
    9900012    2    1    2    0    0  0.55036109639E+01  0.26194267390E+02  0.30606136740E+02  0.50528868383E+02  0.30000025935E+02 0.  0.
         12    1    1    2    0    0 -0.55036109639E+01 -0.26194267390E+02 -0.30606136740E+02  0.40659131617E+02  0.00000000000E+00 0. -1.
         11    1    3    3    0    0  0.13085358437E+02  0.55114146721E+01  0.12586044403E+02  0.18973950856E+02  0.51100000000E-03 0. -1.
        -11    1    3    3    0    0 -0.17291837204E+01  0.86439875294E+01  0.15648156204E+02  0.17960328215E+02  0.51100000000E-03 0.  1.
         12    1    3    3    0    0 -0.58525637531E+01  0.12038865189E+02  0.23719361327E+01  0.13594589311E+02  0.00000000000E+00 0. -1.
</event>
<event>
 7    1  0.2575978E-011  0.5052887E+02  0.7816164E-02  0.1300439E+00
        -11   -1    0    0    0    0  0.00000000000E+00  0.00000000000E+00  0.45593999997E+02  0.45594000000E+02  0.51100000000E-03 0.  1.
         11   -1    0    0    0    0 -0.00000000000E+00 -0.00000000000E+00 -0.45593999997E+02  0.45594000000E+02  0.51100000000E-03 0. -1.
    9900012    2    1    2    0    0 -0.24709692842E+02 -0.64675757329E+01  0.31634894250E+02  0.50528868303E+02  0.30000025692E+02 0.  0.
         12    1    1    2    0    0  0.24709692842E+02  0.64675757329E+01 -0.31634894250E+02  0.40659131697E+02  0.00000000000E+00 0. -1.
         11    1    3    3    0    0 -0.98873983871E+01 -0.24338881262E+01  0.21334021615E+02  0.23639478353E+02  0.51100000000E-03 0. -1.
        -11    1    3    3    0    0 -0.91200065080E+01 -0.28698510536E+01  0.16067181292E+02  0.18696654212E+02  0.51100000000E-03 0.  1.
         12    1    3    3    0    0 -0.57022879464E+01 -0.11638365532E+01 -0.57663086568E+01  0.81927357380E+01  0.00000000000E+00 0. -1.
</event>
<event>
 7    1  0.2575978E-011  0.5052887E+02  0.7816164E-02  0.1300439E+00
        -11   -1    0    0    0    0  0.00000000000E+00  0.00000000000E+00  0.45593999997E+02  0.45594000000E+02  0.51100000000E-03 0.  1.
         11   -1    0    0    0    0 -0.00000000000E+00 -0.00000000000E+00 -0.45593999997E+02  0.45594000000E+02  0.51100000000E-03 0. -1.
    9900012    2    1    2    0    0 -0.74384273067E+01 -0.36640356665E+02  0.15978709430E+02  0.50528867048E+02  0.30000021880E+02 0.  0.
         12    1    1    2    0    0  0.74384273067E+01  0.36640356665E+02 -0.15978709430E+02  0.40659132952E+02  0.00000000000E+00 0. -1.
         11    1    3    3    0    0 -0.48855497827E+01 -0.44353323725E+01 -0.31101975273E+01  0.72947994389E+01  0.51100000000E-03 0. -1.
        -11    1    3    3    0    0 -0.11305163873E+02 -0.20018792456E+02  0.72011117973E+01  0.24091799289E+02  0.51100000000E-03 0.  1.
        -12    1    3    3    0    0  0.87522863487E+01 -0.12186231837E+02  0.11887795159E+02  0.19142268321E+02  0.00000000000E+00 0.  1.
</event>
<event>
 7    1  0.2575978E-011  0.5052888E+02  0.7816164E-02  0.1300439E+00
        -11   -1    0    0    0    0  0.00000000000E+00  0.00000000000E+00  0.45593999997E+02  0.45594000000E+02  0.51100000000E-03 0.  1.
         11   -1    0    0    0    0 -0.00000000000E+00 -0.00000000000E+00 -0.45593999997E+02  0.45594000000E+02  0.51100000000E-03 0. -1.
    9900012    2    1    2    0    0 -0.22578396294E+02  0.51813709158E+01  0.33414574202E+02  0.50528876143E+02  0.30000049523E+02 0.  0.
         12    1    1    2    0    0  0.22578396294E+02 -0.51813709158E+01 -0.33414574202E+02  0.40659123857E+02  0.00000000000E+00 0. -1.
         11    1    3    3    0    0 -0.11829758382E+02 -0.30961849228E+01  0.17246150203E+02  0.21141410585E+02  0.51100000000E-03 0. -1.
        -11    1    3    3    0    0 -0.95060108517E+01 -0.52861627085E+01  0.63238548398E+01  0.12581689028E+02  0.51100000000E-03 0.  1.
         12    1    3    3    0    0 -0.12426270599E+01  0.13563718547E+02  0.98445691590E+01  0.16805776530E+02  0.00000000000E+00 0. -1.
</event>
<event>
 7    1  0.2575978E-011  0.5052887E+02  0.7816164E-02  0.1300439E+00
        -11   -1    0    0    0    0  0.00000000000E+00  0.00000000000E+00  0.45593999997E+02  0.45594000000E+02  0.51100000000E-03 0.  1.
         11   -1    0    0    0    0 -0.00000000000E+00 -0.00000000000E+00 -0.45593999997E+02  0.45594000000E+02  0.51100000000E-03 0. -1.
    9900012    2    1    2    0    0  0.12457459232E+02  0.14644204478E+02  0.35826305321E+02  0.50528866115E+02  0.30000019044E+02 0.  0.
         12    1    1    2    0    0 -0.12457459232E+02 -0.14644204478E+02 -0.35826305321E+02  0.40659133885E+02  0.00000000000E+00 0. -1.
         11    1    3    3    0    0 -0.31353039728E+01 -0.42765051966E+01  0.29071436250E+01  0.60473227147E+01  0.51100000000E-03 0.  1.
        -11    1    3    3    0    0  0.11771404453E+01  0.14369239720E+02  0.19616981130E+02  0.24345156781E+02  0.51100000000E-03 0. -1.
         12    1    3    3    0    0  0.14415622760E+02  0.45514699541E+01  0.13302180566E+02  0.20136386619E+02  0.00000000000E+00 0. -1.
</event>
<event>
 7    1  0.2575978E-011  0.5052886E+02  0.7816164E-02  0.1300439E+00
        -11   -1    0    0    0    0  0.00000000000E+00  0.00000000000E+00  0.45593999997E+02  0.45594000000E+02  0.51100000000E-03 0.  1.
         11   -1    0    0    0    0 -0.00000000000E+00 -0.00000000000E+00 -0.45593999997E+02  0.45594000000E+02  0.51100000000E-03 0. -1.
    9900012    2    1    2    0    0 -0.16321352082E+02  0.33056061143E+01  0.37092480853E+02  0.50528859559E+02  0.29999999116E+02 0.  0.
         12    1    1    2    0    0  0.16321352082E+02 -0.33056061143E+01 -0.37092480853E+02  0.40659140441E+02  0.00000000000E+00 0. -1.
         11    1    3    3    0    0 -0.51165632094E+01  0.47898897568E+01  0.32716482633E+01  0.77347233679E+01  0.51100000000E-03 0. -1.
        -11    1    3    3    0    0  0.42170274687E+01  0.67285078671E+01  0.60452755868E+01  0.99800549082E+01  0.51100000000E-03 0.  1.
         12    1    3    3    0    0 -0.15421816342E+02 -0.82127915096E+01  0.27775557003E+02  0.32814081283E+02  0.00000000000E+00 0. -1.
</event>
<event>
 7    1  0.2575978E-011  0.5052886E+02  0.7816164E-02  0.1300439E+00
        -11   -1    0    0    0    0  0.00000000000E+00  0.00000000000E+00  0.45593999997E+02  0.45594000000E+02  0.51100000000E-03 0.  1.
         11   -1    0    0    0    0 -0.00000000000E+00 -0.00000000000E+00 -0.45593999997E+02  0.45594000000E+02  0.51100000000E-03 0. -1.
    9900012    2    1    2    0    0  0.21162650493E+02  0.29128012939E+02  0.18890919223E+02  0.50528859051E+02  0.29999997570E+02 0.  0.
         12    1    1    2    0    0 -0.21162650493E+02 -0.29128012939E+02 -0.18890919223E+02  0.40659140949E+02  0.00000000000E+00 0. -1.
         11    1    3    3    0    0  0.81557527127E+01  0.13581468811E+02  0.75201602943E+01  0.17536402382E+02  0.51100000000E-03 0. -1.
        -11    1    3    3    0    0  0.11764766077E+02  0.19768770926E+02  0.14850741927E+02  0.27381719464E+02  0.51100000000E-03 0.  1.
         12    1    3    3    0    0  0.12421317031E+01 -0.42222267989E+01 -0.34799829980E+01  0.56107372043E+01  0.00000000000E+00 0. -1.
</event>
<event>
 7    1  0.2575978E-011  0.5052886E+02  0.7816164E-02  0.1300439E+00
        -11   -1    0    0    0    0  0.00000000000E+00  0.00000000000E+00  0.45593999997E+02  0.45594000000E+02  0.51100000000E-03 0.  1.
         11   -1    0    0    0    0 -0.00000000000E+00 -0.00000000000E+00 -0.45593999997E+02  0.45594000000E+02  0.51100000000E-03 0. -1.
    9900012    2    1    2    0    0  0.27811228413E+02 -0.96711233686E+01  0.28038736251E+02  0.50528858549E+02  0.29999996044E+02 0.  0.
         12    1    1    2    0    0 -0.27811228413E+02  0.96711233686E+01 -0.28038736251E+02  0.40659141451E+02  0.00000000000E+00 0. -1.
         11    1    3    3    0    0 -0.48816739878E+00 -0.38098293315E+01  0.48980885382E+01  0.62244982556E+01  0.51100000000E-03 0.  1.
        -11    1    3    3    0    0  0.24430717829E+02 -0.37009287527E+01  0.44642024193E+01  0.25109479302E+02  0.51100000000E-03 0. -1.
         12    1    3    3    0    0  0.38686779820E+01 -0.21603652844E+01  0.18676445293E+02  0.19194880991E+02  0.00000000000E+00 0. -1.
</event>
<event>
 7    1  0.2575978E-011  0.5052886E+02  0.7816164E-02  0.1300439E+00
        -11   -1    0    0    0    0  0.00000000000E+00  0.00000000000E+00  0.45593999997E+02  0.45594000000E+02  0.51100000000E-03 0.  1.
         11   -1    0    0    0    0 -0.00000000000E+00 -0.00000000000E+00 -0.45593999997E+02  0.45594000000E+02  0.51100000000E-03 0. -1.
    9900012    2    1    2    0    0 -0.16295651650E+02 -0.22014609025E+02  0.30049529503E+02  0.50528862078E+02  0.30000006772E+02 0.  0.
         12    1    1    2    0    0  0.16295651650E+02  0.22014609025E+02 -0.30049529503E+02  0.40659137922E+02  0.00000000000E+00 0. -1.
         11    1    3    3    0    0 -0.16108772975E+01  0.40000310006E+01 -0.10795396569E+01  0.44452873704E+01  0.51100000000E-03 0. -1.
        -11    1    3    3    0    0  0.22625765976E+01 -0.41985305184E+01  0.43598837048E+00  0.47892585537E+01  0.51100000000E-03 0.  1.
        -12    1    3    3    0    0 -0.16947350950E+02 -0.21816109507E+02  0.30693080789E+02  0.41294316154E+02  0.00000000000E+00 0.  1.
</event>
<event>
 7    1  0.2575978E-011  0.5052886E+02  0.7816164E-02  0.1300439E+00
        -11   -1    0    0    0    0  0.00000000000E+00  0.00000000000E+00  0.45593999997E+02  0.45594000000E+02  0.51100000000E-03 0.  1.
         11   -1    0    0    0    0 -0.00000000000E+00 -0.00000000000E+00 -0.45593999997E+02  0.45594000000E+02  0.51100000000E-03 0. -1.
    9900012    2    1    2    0    0  0.20128733461E+02  0.12779838807E+02  0.32934412985E+02  0.50528858969E+02  0.29999997323E+02 0.  0.
         12    1    1    2    0    0 -0.20128733461E+02 -0.12779838807E+02 -0.32934412985E+02  0.40659141031E+02  0.00000000000E+00 0. -1.
         11    1    3    3    0    0  0.47200859197E+01 -0.18948568303E+01  0.17952058677E+02  0.18658673706E+02  0.51100000000E-03 0. -1.
        -11    1    3    3    0    0  0.84901261328E+01  0.80325830617E+01  0.18306701493E+02  0.21719575323E+02  0.51100000000E-03 0.  1.
         12    1    3    3    0    0  0.69185214088E+01  0.66421125753E+01 -0.33243471846E+01  0.10150609940E+02  0.00000000000E+00 0. -1.
</event>
<event>
 7    1  0.2575978E-011  0.5052886E+02  0.7816164E-02  0.1300439E+00
        -11   -1    0    0    0    0  0.00000000000E+00  0.00000000000E+00  0.45593999997E+02  0.45594000000E+02  0.51100000000E-03 0. -1.
         11   -1    0    0    0    0 -0.00000000000E+00 -0.00000000000E+00 -0.45593999997E+02  0.45594000000E+02  0.51100000000E-03 0.  1.
    9900012    2    1    2    0    0 -0.33524241958E+02 -0.51475623922E+01 -0.22423058843E+02  0.50528858773E+02  0.29999996727E+02 0.  0.
         12    1    1    2    0    0  0.33524241958E+02  0.51475623922E+01  0.22423058843E+02  0.40659141227E+02  0.00000000000E+00 0. -1.
         11    1    3    3    0    0 -0.13374593795E+02 -0.53714853480E+01  0.41220196593E+01  0.14990785849E+02  0.51100000000E-03 0. -1.
        -11    1    3    3    0    0 -0.20622190885E+01 -0.38325727592E+01 -0.20262162212E+01  0.48007201501E+01  0.51100000000E-03 0.  1.
        -12    1    3    3    0    0 -0.18087429074E+02  0.40564957150E+01 -0.24518862281E+02  0.30737352774E+02  0.00000000000E+00 0.  1.
</event>
<event>
 7    1  0.2575978E-011  0.5052886E+02  0.7816164E-02  0.1300439E+00
        -11   -1    0    0    0    0  0.00000000000E+00  0.00000000000E+00  0.45593999997E+02  0.45594000000E+02  0.51100000000E-03 0. -1.
         11   -1    0    0    0    0 -0.00000000000E+00 -0.00000000000E+00 -0.45593999997E+02  0.45594000000E+02  0.51100000000E-03 0.  1.
    9900012    2    1    2    0    0  0.32277770713E+02 -0.71212908284E+00 -0.24714443911E+02  0.50528863907E+02  0.30000012331E+02 0.  0.
         12    1    1    2    0    0 -0.32277770713E+02  0.71212908284E+00  0.24714443911E+02  0.40659136093E+02  0.00000000000E+00 0. -1.
         11    1    3    3    0    0 -0.19127898004E+01 -0.22353638579E+00  0.16464999282E+00  0.19328329513E+01  0.51100000000E-03 0. -1.
        -11    1    3    3    0    0  0.18576753318E+02  0.61676601629E+01 -0.13994795632E+01  0.19623820704E+02  0.51100000000E-03 0.  1.
        -12    1    3    3    0    0  0.15613807195E+02 -0.66562528599E+01 -0.23479614341E+02  0.28972210252E+02  0.00000000000E+00 0.  1.
</event>
<event>
 7    1  0.2575978E-011  0.5052886E+02  0.7816164E-02  0.1300439E+00
        -11   -1    0    0    0    0  0.00000000000E+00  0.00000000000E+00  0.45593999997E+02  0.45594000000E+02  0.51100000000E-03 0.  1.
         11   -1    0    0    0    0 -0.00000000000E+00 -0.00000000000E+00 -0.45593999997E+02  0.45594000000E+02  0.51100000000E-03 0. -1.
    9900012    2    1    2    0    0  0.70740003425E+01  0.35722338394E+02  0.18084212630E+02  0.50528859728E+02  0.29999999630E+02 0.  0.
         12    1    1    2    0    0 -0.70740003425E+01 -0.35722338394E+02 -0.18084212630E+02  0.40659140272E+02  0.00000000000E+00 0. -1.
         11    1    3    3    0    0 -0.88767942184E+01  0.90931204748E+01 -0.15219939763E+01  0.12798389801E+02  0.51100000000E-03 0. -1.
        -11    1    3    3    0    0  0.48546892168E+01  0.39597767528E+01  0.73959802657E+01  0.96926964089E+01  0.51100000000E-03 0.  1.
        -12    1    3    3    0    0  0.11096105344E+02  0.22669441166E+02  0.12210226340E+02  0.28037773519E+02  0.00000000000E+00 0.  1.
</event>
<event>
 7    1  0.2575978E-011  0.5052886E+02  0.7816164E-02  0.1300439E+00
        -11   -1    0    0    0    0  0.00000000000E+00  0.00000000000E+00  0.45593999997E+02  0.45594000000E+02  0.51100000000E-03 0. -1.
         11   -1    0    0    0    0 -0.00000000000E+00 -0.00000000000E+00 -0.45593999997E+02  0.45594000000E+02  0.51100000000E-03 0.  1.
    9900012    2    1    2    0    0  0.12081996415E+02  0.24048519260E+02 -0.30477201242E+02  0.50528859435E+02  0.29999998738E+02 0.  0.
         12    1    1    2    0    0 -0.12081996415E+02 -0.24048519260E+02  0.30477201242E+02  0.40659140565E+02  0.00000000000E+00 0. -1.
         11    1    3    3    0    0  0.60344241183E+01 -0.14371560375E+01 -0.61695756028E+01  0.87489059485E+01  0.51100000000E-03 0. -1.
        -11    1    3    3    0    0 -0.15609196437E+01  0.28785960321E+01 -0.16289398708E+02  0.16615272967E+02  0.51100000000E-03 0.  1.
         12    1    3    3    0    0  0.76084919401E+01  0.22607079265E+02 -0.80182269317E+01  0.25164680519E+02  0.00000000000E+00 0. -1.
</event>
<event>
 7    1  0.2575978E-011  0.5052886E+02  0.7816164E-02  0.1300439E+00
        -11   -1    0    0    0    0  0.00000000000E+00  0.00000000000E+00  0.45593999997E+02  0.45594000000E+02  0.51100000000E-03 0. -1.
         11   -1    0    0    0    0 -0.00000000000E+00 -0.00000000000E+00 -0.45593999997E+02  0.45594000000E+02  0.51100000000E-03 0.  1.
    9900012    2    1    2    0    0  0.19181511914E+02  0.33013790682E+02  0.13975865754E+02  0.50528860830E+02  0.30000002979E+02 0.  0.
         12    1    1    2    0    0 -0.19181511914E+02 -0.33013790682E+02 -0.13975865754E+02  0.40659139170E+02  0.00000000000E+00 0. -1.
         11    1    3    3    0    0  0.15449967561E+02  0.14493871537E+02  0.70311673653E+01  0.22320643461E+02  0.51100000000E-03 0.  1.
        -11    1    3    3    0    0  0.10278153139E+02  0.39372612518E+01  0.50562404062E+01  0.12112308839E+02  0.51100000000E-03 0. -1.
        -12    1    3    3    0    0 -0.65466087860E+01  0.14582657893E+02  0.18884579830E+01  0.16095908529E+02  0.00000000000E+00 0.  1.
</event>
<event>
 7    1  0.2575978E-011  0.5052886E+02  0.7816164E-02  0.1300439E+00
        -11   -1    0    0    0    0  0.00000000000E+00  0.00000000000E+00  0.45593999997E+02  0.45594000000E+02  0.51100000000E-03 0.  1.
         11   -1    0    0    0    0 -0.00000000000E+00 -0.00000000000E+00 -0.45593999997E+02  0.45594000000E+02  0.51100000000E-03 0. -1.
    9900012    2    1    2    0    0  0.26199407987E+02  0.28662178672E+02 -0.12051386698E+02  0.50528863432E+02  0.30000010889E+02 0.  0.
         12    1    1    2    0    0 -0.26199407987E+02 -0.28662178672E+02  0.12051386698E+02  0.40659136568E+02  0.00000000000E+00 0. -1.
         11    1    3    3    0    0  0.14514648193E+02  0.50256790527E+01 -0.36421164920E+01  0.15785989829E+02  0.51100000000E-03 0.  1.
        -11    1    3    3    0    0 -0.18047542898E+01  0.77653971258E+01  0.55097028109E+01  0.96909935453E+01  0.51100000000E-03 0. -1.
         12    1    3    3    0    0  0.13489514084E+02  0.15871102493E+02 -0.13918973017E+02  0.25051880058E+02  0.00000000000E+00 0. -1.
</event>
<event>
 7    1  0.2575978E-011  0.5052888E+02  0.7816164E-02  0.1300439E+00
        -11   -1    0    0    0    0  0.00000000000E+00  0.00000000000E+00  0.45593999997E+02  0.45594000000E+02  0.51100000000E-03 0.  1.
         11   -1    0    0    0    0 -0.00000000000E+00 -0.00000000000E+00 -0.45593999997E+02  0.45594000000E+02  0.51100000000E-03 0. -1.
    9900012    2    1    2    0    0 -0.28889639962E+02  0.28053621185E+02  0.56166922531E+01  0.50528878138E+02  0.30000055588E+02 0.  0.
         12    1    1    2    0    0  0.28889639962E+02 -0.28053621185E+02 -0.56166922531E+01  0.40659121862E+02  0.00000000000E+00 0. -1.
         11    1    3    3    0    0 -0.89272338124E+01 -0.18588949132E+01 -0.44405828862E+01  0.10142473587E+02  0.51100000000E-03 0. -1.
        -11    1    3    3    0    0 -0.76512393236E+01  0.52180095707E+01  0.87832982025E+01  0.12763832287E+02  0.51100000000E-03 0.  1.
        -12    1    3    3    0    0 -0.12311166826E+02  0.24694506527E+02  0.12739769368E+01  0.27622572264E+02  0.00000000000E+00 0.  1.
</event>
<event>
 7    1  0.2575978E-011  0.5052886E+02  0.7816164E-02  0.1300439E+00
        -11   -1    0    0    0    0  0.00000000000E+00  0.00000000000E+00  0.45593999997E+02  0.45594000000E+02  0.51100000000E-03 0.  1.
         11   -1    0    0    0    0 -0.00000000000E+00 -0.00000000000E+00 -0.45593999997E+02  0.45594000000E+02  0.51100000000E-03 0. -1.
    9900012    2    1    2    0    0  0.32066793613E+02  0.20187359538E+01  0.24916087125E+02  0.50528856562E+02  0.29999990007E+02 0.  0.
         12    1    1    2    0    0 -0.32066793613E+02 -0.20187359538E+01 -0.24916087125E+02  0.40659143438E+02  0.00000000000E+00 0. -1.
         11    1    3    3    0    0  0.12732526474E+02 -0.69795943333E+00  0.15767713770E+02  0.20278687718E+02  0.51100000000E-03 0. -1.
        -11    1    3    3    0    0  0.45225611583E+00  0.38755134678E+00  0.11108394878E+02  0.11124350258E+02  0.51100000000E-03 0.  1.
         12    1    3    3    0    0  0.18882011023E+02  0.23291440403E+01 -0.19600215224E+01  0.19125818587E+02  0.00000000000E+00 0. -1.
</event>
<event>
 7    1  0.2575978E-011  0.5052886E+02  0.7816164E-02  0.1300439E+00
        -11   -1    0    0    0    0  0.00000000000E+00  0.00000000000E+00  0.45593999997E+02  0.45594000000E+02  0.51100000000E-03 0.  1.
         11   -1    0    0    0    0 -0.00000000000E+00 -0.00000000000E+00 -0.45593999997E+02  0.45594000000E+02  0.51100000000E-03 0. -1.
    9900012    2    1    2    0    0  0.23152760348E+02 -0.26589269511E+02  0.20251567642E+02  0.50528861337E+02  0.30000004520E+02 0.  0.
         12    1    1    2    0    0 -0.23152760348E+02  0.26589269511E+02 -0.20251567642E+02  0.40659138663E+02  0.00000000000E+00 0. -1.
         11    1    3    3    0    0  0.79271019012E+00 -0.84738962806E+01 -0.34763067876E+01  0.91934768593E+01  0.51100000000E-03 0. -1.
        -11    1    3    3    0    0  0.14644253446E+02 -0.14779744637E+02  0.59021073091E+01  0.21627063635E+02  0.51100000000E-03 0.  1.
         12    1    3    3    0    0  0.77157967122E+01 -0.33356285930E+01  0.17825767120E+02  0.19708320843E+02  0.00000000000E+00 0. -1.
</event>
<event>
 7    1  0.2575978E-011  0.5052886E+02  0.7816164E-02  0.1300439E+00
        -11   -1    0    0    0    0  0.00000000000E+00  0.00000000000E+00  0.45593999997E+02  0.45594000000E+02  0.51100000000E-03 0. -1.
         11   -1    0    0    0    0 -0.00000000000E+00 -0.00000000000E+00 -0.45593999997E+02  0.45594000000E+02  0.51100000000E-03 0.  1.
    9900012    2    1    2    0    0  0.13728365696E+02 -0.37574748948E+02 -0.72688350905E+01  0.50528859001E+02  0.29999997421E+02 0.  0.
         12    1    1    2    0    0 -0.13728365696E+02  0.37574748948E+02  0.72688350905E+01  0.40659140999E+02  0.00000000000E+00 0. -1.
         11    1    3    3    0    0  0.32072717708E+01 -0.10687781320E+02 -0.10084780669E+02  0.15040547302E+02  0.51100000000E-03 0. -1.
        -11    1    3    3    0    0  0.11639691414E+02 -0.46702383455E+01 -0.20748337716E+01  0.12712138996E+02  0.51100000000E-03 0.  1.
        -12    1    3    3    0    0 -0.11185974889E+01 -0.22216729282E+02  0.48907793499E+01  0.22776172703E+02  0.00000000000E+00 0.  1.
</event>
<event>
 7    1  0.2575978E-011  0.5052886E+02  0.7816164E-02  0.1300439E+00
        -11   -1    0    0    0    0  0.00000000000E+00  0.00000000000E+00  0.45593999997E+02  0.45594000000E+02  0.51100000000E-03 0.  1.
         11   -1    0    0    0    0 -0.00000000000E+00 -0.00000000000E+00 -0.45593999997E+02  0.45594000000E+02  0.51100000000E-03 0. -1.
    9900012    2    1    2    0    0 -0.24068723409E+02 -0.13604863570E+02  0.29812249456E+02  0.50528856170E+02  0.29999988816E+02 0.  0.
         12    1    1    2    0    0  0.24068723409E+02  0.13604863570E+02 -0.29812249456E+02  0.40659143830E+02  0.00000000000E+00 0. -1.
         11    1    3    3    0    0 -0.32142873897E+01 -0.60043524638E+01  0.75869996980E+01  0.10195413509E+02  0.51100000000E-03 0. -1.
        -11    1    3    3    0    0 -0.12326623494E+02 -0.39585062966E+01  0.26970441485E+02  0.29916887087E+02  0.51100000000E-03 0.  1.
         12    1    3    3    0    0 -0.85278125260E+01 -0.36420048099E+01 -0.47451917267E+01  0.10416555575E+02  0.00000000000E+00 0. -1.
</event>
<event>
 7    1  0.2575978E-011  0.5052887E+02  0.7816164E-02  0.1300439E+00
        -11   -1    0    0    0    0  0.00000000000E+00  0.00000000000E+00  0.45593999997E+02  0.45594000000E+02  0.51100000000E-03 0.  1.
         11   -1    0    0    0    0 -0.00000000000E+00 -0.00000000000E+00 -0.45593999997E+02  0.45594000000E+02  0.51100000000E-03 0. -1.
    9900012    2    1    2    0    0 -0.36655820763E+02  0.16276260221E+02  0.66782577454E+01  0.50528868564E+02  0.30000026487E+02 0.  0.
         12    1    1    2    0    0  0.36655820763E+02 -0.16276260221E+02 -0.66782577454E+01  0.40659131436E+02  0.00000000000E+00 0. -1.
         11    1    3    3    0    0 -0.24827593466E+02  0.13122975554E+02  0.11928108244E+02  0.30510680937E+02  0.51100000000E-03 0.  1.
        -11    1    3    3    0    0 -0.39136071092E+01 -0.66774459282E+00  0.50852258241E+01  0.64514901681E+01  0.51100000000E-03 0. -1.
         12    1    3    3    0    0 -0.79146201881E+01  0.38210292603E+01 -0.10335076323E+02  0.13566697459E+02  0.00000000000E+00 0. -1.
</event>
<event>
 7    1  0.2575978E-011  0.5052885E+02  0.7816164E-02  0.1300439E+00
        -11   -1    0    0    0    0  0.00000000000E+00  0.00000000000E+00  0.45593999997E+02  0.45594000000E+02  0.51100000000E-03 0. -1.
         11   -1    0    0    0    0 -0.00000000000E+00 -0.00000000000E+00 -0.45593999997E+02  0.45594000000E+02  0.51100000000E-03 0.  1.
    9900012    2    1    2    0    0 -0.24294832078E+02  0.57668698048E+01 -0.32088480665E+02  0.50528852882E+02  0.29999978819E+02 0.  0.
         12    1    1    2    0    0  0.24294832078E+02 -0.57668698048E+01  0.32088480665E+02  0.40659147118E+02  0.00000000000E+00 0. -1.
         11    1    3    3    0    0 -0.14007524954E+02  0.49158495595E+01 -0.85734476884E+01  0.17142938423E+02  0.51100000000E-03 0. -1.
        -11    1    3    3    0    0 -0.11529803304E+02  0.59428462648E+01 -0.24801851909E+02  0.27989027214E+02  0.51100000000E-03 0.  1.
        -12    1    3    3    0    0  0.12424961811E+01 -0.50918260195E+01  0.12868189330E+01  0.53968872454E+01  0.00000000000E+00 0.  1.
</event>
<event>
 7    1  0.2575978E-011  0.5052887E+02  0.7816164E-02  0.1300439E+00
        -11   -1    0    0    0    0  0.00000000000E+00  0.00000000000E+00  0.45593999997E+02  0.45594000000E+02  0.51100000000E-03 0.  1.
         11   -1    0    0    0    0 -0.00000000000E+00 -0.00000000000E+00 -0.45593999997E+02  0.45594000000E+02  0.51100000000E-03 0. -1.
    9900012    2    1    2    0    0 -0.20954413761E+02 -0.19408997369E+02  0.28937321664E+02  0.50528865479E+02  0.30000017110E+02 0.  0.
         12    1    1    2    0    0  0.20954413761E+02  0.19408997369E+02 -0.28937321664E+02  0.40659134521E+02  0.00000000000E+00 0. -1.
         11    1    3    3    0    0 -0.52777831142E+01  0.34704017058E+00  0.32553918508E+01  0.62107171763E+01  0.51100000000E-03 0. -1.
        -11    1    3    3    0    0 -0.18776527180E+02 -0.54314604317E+01  0.21542913283E+02  0.29088758109E+02  0.51100000000E-03 0.  1.
        -12    1    3    3    0    0  0.30998965334E+01 -0.14324577108E+02  0.41390165309E+01  0.15229390194E+02  0.00000000000E+00 0.  1.
</event>
<event>
 7    1  0.2575978E-011  0.5052886E+02  0.7816164E-02  0.1300439E+00
        -11   -1    0    0    0    0  0.00000000000E+00  0.00000000000E+00  0.45593999997E+02  0.45594000000E+02  0.51100000000E-03 0.  1.
         11   -1    0    0    0    0 -0.00000000000E+00 -0.00000000000E+00 -0.45593999997E+02  0.45594000000E+02  0.51100000000E-03 0. -1.
    9900012    2    1    2    0    0 -0.75602382092E+01 -0.75486215578E+01  0.39230430500E+02  0.50528861219E+02  0.30000004160E+02 0.  0.
         12    1    1    2    0    0  0.75602382092E+01  0.75486215578E+01 -0.39230430500E+02  0.40659138781E+02  0.00000000000E+00 0. -1.
         11    1    3    3    0    0  0.54021566064E+01 -0.64624628117E+01  0.44653800106E+01  0.95334327759E+01  0.51100000000E-03 0. -1.
        -11    1    3    3    0    0 -0.41999333092E+01 -0.82286061837E+01  0.22460237643E+02  0.24286038680E+02  0.51100000000E-03 0.  1.
         12    1    3    3    0    0 -0.87624615065E+01  0.71424474376E+01  0.12304812846E+02  0.16709389763E+02  0.00000000000E+00 0. -1.
</event>
<event>
 7    1  0.2575978E-011  0.5052886E+02  0.7816164E-02  0.1300439E+00
        -11   -1    0    0    0    0  0.00000000000E+00  0.00000000000E+00  0.45593999997E+02  0.45594000000E+02  0.51100000000E-03 0. -1.
         11   -1    0    0    0    0 -0.00000000000E+00 -0.00000000000E+00 -0.45593999997E+02  0.45594000000E+02  0.51100000000E-03 0.  1.
    9900012    2    1    2    0    0 -0.18581230639E+02 -0.71928206204E+01 -0.35442444225E+02  0.50528860152E+02  0.30000000917E+02 0.  0.
         12    1    1    2    0    0  0.18581230639E+02  0.71928206204E+01  0.35442444225E+02  0.40659139848E+02  0.00000000000E+00 0. -1.
         11    1    3    3    0    0 -0.94485689126E+00 -0.33762295242E+01  0.20620768356E+01  0.40674121358E+01  0.51100000000E-03 0. -1.
        -11    1    3    3    0    0 -0.20839218205E+02 -0.77333859478E+01 -0.28627736970E+02  0.36243973263E+02  0.51100000000E-03 0.  1.
         12    1    3    3    0    0  0.32028444569E+01  0.39167948517E+01 -0.88767840910E+01  0.10217474753E+02  0.00000000000E+00 0. -1.
</event>
<event>
 7    1  0.2575978E-011  0.5052886E+02  0.7816164E-02  0.1300439E+00
        -11   -1    0    0    0    0  0.00000000000E+00  0.00000000000E+00  0.45593999997E+02  0.45594000000E+02  0.51100000000E-03 0.  1.
         11   -1    0    0    0    0 -0.00000000000E+00 -0.00000000000E+00 -0.45593999997E+02  0.45594000000E+02  0.51100000000E-03 0. -1.
    9900012    2    1    2    0    0  0.37547777722E+02  0.12225712970E+02 -0.96882584019E+01  0.50528855637E+02  0.29999987195E+02 0.  0.
         12    1    1    2    0    0 -0.37547777722E+02 -0.12225712970E+02  0.96882584019E+01  0.40659144363E+02  0.00000000000E+00 0. -1.
         11    1    3    3    0    0  0.17712152409E+02  0.44536575264E+01 -0.40022206249E+01  0.18696876170E+02  0.51100000000E-03 0. -1.
        -11    1    3    3    0    0  0.54502557263E+01  0.52161894441E+00  0.86700305226E+01  0.10254111533E+02  0.51100000000E-03 0.  1.
         12    1    3    3    0    0  0.14385369586E+02  0.72504364996E+01 -0.14356068300E+02  0.21577867934E+02  0.00000000000E+00 0. -1.
</event>
<event>
 7    1  0.2575978E-011  0.5052886E+02  0.7816164E-02  0.1300439E+00
        -11   -1    0    0    0    0  0.00000000000E+00  0.00000000000E+00  0.45593999997E+02  0.45594000000E+02  0.51100000000E-03 0.  1.
         11   -1    0    0    0    0 -0.00000000000E+00 -0.00000000000E+00 -0.45593999997E+02  0.45594000000E+02  0.51100000000E-03 0. -1.
    9900012    2    1    2    0    0 -0.32438120185E+02  0.97636061187E+01  0.22485684554E+02  0.50528860124E+02  0.30000000834E+02 0.  0.
         12    1    1    2    0    0  0.32438120185E+02 -0.97636061187E+01 -0.22485684554E+02  0.40659139876E+02  0.00000000000E+00 0. -1.
         11    1    3    3    0    0 -0.71027410026E+01  0.11095391278E+02  0.98056422522E+01  0.16422766442E+02  0.51100000000E-03 0. -1.
        -11    1    3    3    0    0 -0.12418766771E+02 -0.29609434249E+00  0.16447463671E+02  0.20611465291E+02  0.51100000000E-03 0.  1.
         12    1    3    3    0    0 -0.12916612411E+02 -0.10356908169E+01 -0.37674213693E+01  0.13494628392E+02  0.00000000000E+00 0. -1.
</event>
<event>
 7    1  0.2575978E-011  0.5052887E+02  0.7816164E-02  0.1300439E+00
        -11   -1    0    0    0    0  0.00000000000E+00  0.00000000000E+00  0.45593999997E+02  0.45594000000E+02  0.51100000000E-03 0. -1.
         11   -1    0    0    0    0 -0.00000000000E+00 -0.00000000000E+00 -0.45593999997E+02  0.45594000000E+02  0.51100000000E-03 0.  1.
    9900012    2    1    2    0    0  0.34264840321E+02 -0.21036385727E+02 -0.60461920091E+01  0.50528865178E+02  0.30000016195E+02 0.  0.
         12    1    1    2    0    0 -0.34264840321E+02  0.21036385727E+02  0.60461920091E+01  0.40659134822E+02  0.00000000000E+00 0. -1.
         11    1    3    3    0    0  0.25655586071E+02 -0.43278664075E+01 -0.87599403657E+01  0.27453161562E+02  0.51100000000E-03 0. -1.
        -11    1    3    3    0    0  0.78026233049E+01 -0.55642796551E+01 -0.36053847512E+01  0.10239186393E+02  0.51100000000E-03 0.  1.
         12    1    3    3    0    0  0.80663094483E+00 -0.11144239664E+02  0.63191331079E+01  0.12836517223E+02  0.00000000000E+00 0. -1.
</event>
<event>
 7    1  0.2575978E-011  0.5052887E+02  0.7816164E-02  0.1300439E+00
        -11   -1    0    0    0    0  0.00000000000E+00  0.00000000000E+00  0.45593999997E+02  0.45594000000E+02  0.51100000000E-03 0. -1.
         11   -1    0    0    0    0 -0.00000000000E+00 -0.00000000000E+00 -0.45593999997E+02  0.45594000000E+02  0.51100000000E-03 0.  1.
    9900012    2    1    2    0    0 -0.11945608324E+02 -0.34597878640E+02 -0.17704625258E+02  0.50528874086E+02  0.30000043271E+02 0.  0.
         12    1    1    2    0    0  0.11945608324E+02  0.34597878640E+02  0.17704625258E+02  0.40659125914E+02  0.00000000000E+00 0. -1.
         11    1    3    3    0    0 -0.88555398213E+01 -0.14470975691E+02  0.27282729662E+01  0.17183515258E+02  0.51100000000E-03 0. -1.
        -11    1    3    3    0    0 -0.55353213184E+01 -0.18252656903E+01 -0.30839319966E-01  0.58285785800E+01  0.51100000000E-03 0.  1.
         12    1    3    3    0    0  0.24452528161E+01 -0.18301637258E+02 -0.20402058904E+02  0.27516780248E+02  0.00000000000E+00 0. -1.
</event>
<event>
 7    1  0.2575978E-011  0.5052885E+02  0.7816164E-02  0.1300439E+00
        -11   -1    0    0    0    0  0.00000000000E+00  0.00000000000E+00  0.45593999997E+02  0.45594000000E+02  0.51100000000E-03 0. -1.
         11   -1    0    0    0    0 -0.00000000000E+00 -0.00000000000E+00 -0.45593999997E+02  0.45594000000E+02  0.51100000000E-03 0.  1.
    9900012    2    1    2    0    0 -0.29333092881E+02  0.23591982514E+02  0.15367321614E+02  0.50528849118E+02  0.29999967378E+02 0.  0.
         12    1    1    2    0    0  0.29333092881E+02 -0.23591982514E+02 -0.15367321614E+02  0.40659150882E+02  0.00000000000E+00 0. -1.
         11    1    3    3    0    0 -0.13638889647E+02  0.21576053324E+02  0.87157103746E+01  0.26972374671E+02  0.51100000000E-03 0.  1.
        -11    1    3    3    0    0 -0.81832434357E+01  0.85386858891E+01  0.67312536687E+01  0.13608247722E+02  0.51100000000E-03 0. -1.
        -12    1    3    3    0    0 -0.75109597986E+01 -0.65227566987E+01 -0.79642429653E-01  0.99482267246E+01  0.00000000000E+00 0.  1.
</event>
<event>
 7    1  0.2575978E-011  0.5052886E+02  0.7816164E-02  0.1300439E+00
        -11   -1    0    0    0    0  0.00000000000E+00  0.00000000000E+00  0.45593999997E+02  0.45594000000E+02  0.51100000000E-03 0.  1.
         11   -1    0    0    0    0 -0.00000000000E+00 -0.00000000000E+00 -0.45593999997E+02  0.45594000000E+02  0.51100000000E-03 0. -1.
    9900012    2    1    2    0    0  0.10221725264E+02 -0.34645287251E+02  0.18665098049E+02  0.50528862267E+02  0.30000007345E+02 0.  0.
         12    1    1    2    0    0 -0.10221725264E+02  0.34645287251E+02 -0.18665098049E+02  0.40659137733E+02  0.00000000000E+00 0. -1.
         11    1    3    3    0    0  0.48692509015E+00  0.20133974936E+01  0.44817298801E+01  0.49372835133E+01  0.51100000000E-03 0. -1.
        -11    1    3    3    0    0 -0.18245868643E+01 -0.12859514596E+02 -0.38801355362E+01  0.13555503860E+02  0.51100000000E-03 0.  1.
        -12    1    3    3    0    0  0.11559387038E+02 -0.23799170148E+02  0.18063503705E+02  0.32036074893E+02  0.00000000000E+00 0.  1.
</event>
<event>
 7    1  0.2575978E-011  0.5052886E+02  0.7816164E-02  0.1300439E+00
        -11   -1    0    0    0    0  0.00000000000E+00  0.00000000000E+00  0.45593999997E+02  0.45594000000E+02  0.51100000000E-03 0.  1.
         11   -1    0    0    0    0 -0.00000000000E+00 -0.00000000000E+00 -0.45593999997E+02  0.45594000000E+02  0.51100000000E-03 0. -1.
    9900012    2    1    2    0    0 -0.37156298902E+02  0.16384336058E+02  0.20319165934E+01  0.50528859561E+02  0.29999999123E+02 0.  0.
         12    1    1    2    0    0  0.37156298902E+02 -0.16384336058E+02 -0.20319165934E+01  0.40659140439E+02  0.00000000000E+00 0. -1.
         11    1    3    3    0    0 -0.49275361066E-02 -0.47905275975E+00 -0.56546904913E+00  0.74112841929E+00  0.51100000000E-03 0. -1.
        -11    1    3    3    0    0 -0.38699594060E+02  0.13839667090E+02  0.94205921556E+01  0.42165655722E+02  0.51100000000E-03 0.  1.
        -12    1    3    3    0    0  0.15482226945E+01  0.30237217273E+01 -0.68232065131E+01  0.76220754205E+01  0.00000000000E+00 0.  1.
</event>
<event>
 7    1  0.2575978E-011  0.5052885E+02  0.7816164E-02  0.1300439E+00
        -11   -1    0    0    0    0  0.00000000000E+00  0.00000000000E+00  0.45593999997E+02  0.45594000000E+02  0.51100000000E-03 0.  1.
         11   -1    0    0    0    0 -0.00000000000E+00 -0.00000000000E+00 -0.45593999997E+02  0.45594000000E+02  0.51100000000E-03 0. -1.
    9900012    2    1    2    0    0  0.79744371989E+01 -0.39521229388E+02  0.52580414642E+01  0.50528853169E+02  0.29999979693E+02 0.  0.
         12    1    1    2    0    0 -0.79744371989E+01  0.39521229388E+02 -0.52580414642E+01  0.40659146831E+02  0.00000000000E+00 0. -1.
         11    1    3    3    0    0 -0.27898082083E+01  0.14783754386E+01  0.44868587122E+01  0.54863945484E+01  0.51100000000E-03 0. -1.
        -11    1    3    3    0    0 -0.93975772247E+00 -0.13278890515E+01 -0.30985823171E+01  0.34996637762E+01  0.51100000000E-03 0.  1.
        -12    1    3    3    0    0  0.11704003130E+02 -0.39671715775E+02  0.38697650691E+01  0.41542794844E+02  0.00000000000E+00 0.  1.
</event>
<event>
 7    1  0.2575978E-011  0.5052885E+02  0.7816164E-02  0.1300439E+00
        -11   -1    0    0    0    0  0.00000000000E+00  0.00000000000E+00  0.45593999997E+02  0.45594000000E+02  0.51100000000E-03 0.  1.
         11   -1    0    0    0    0 -0.00000000000E+00 -0.00000000000E+00 -0.45593999997E+02  0.45594000000E+02  0.51100000000E-03 0. -1.
    9900012    2    1    2    0    0  0.29605535703E+02  0.27289246823E+02  0.56546766616E+01  0.50528854601E+02  0.29999984045E+02 0.  0.
         12    1    1    2    0    0 -0.29605535703E+02 -0.27289246823E+02 -0.56546766616E+01  0.40659145399E+02  0.00000000000E+00 0. -1.
         11    1    3    3    0    0 -0.13503811182E+01  0.50666552469E+01 -0.38218561272E+01  0.64885367436E+01  0.51100000000E-03 0. -1.
        -11    1    3    3    0    0  0.87056106668E+01  0.12137322470E+02  0.12431386054E+02  0.19433003198E+02  0.51100000000E-03 0.  1.
         12    1    3    3    0    0  0.22250306155E+02  0.10085269106E+02 -0.29548532649E+01  0.24607314659E+02  0.00000000000E+00 0. -1.
</event>
<event>
 7    1  0.2575978E-011  0.5052886E+02  0.7816164E-02  0.1300439E+00
        -11   -1    0    0    0    0  0.00000000000E+00  0.00000000000E+00  0.45593999997E+02  0.45594000000E+02  0.51100000000E-03 0.  1.
         11   -1    0    0    0    0 -0.00000000000E+00 -0.00000000000E+00 -0.45593999997E+02  0.45594000000E+02  0.51100000000E-03 0. -1.
    9900012    2    1    2    0    0 -0.63020398014E+01 -0.39856633512E+02 -0.49898741792E+01  0.50528858532E+02  0.29999995994E+02 0.  0.
         12    1    1    2    0    0  0.63020398014E+01  0.39856633512E+02  0.49898741792E+01  0.40659141468E+02  0.00000000000E+00 0. -1.
         11    1    3    3    0    0 -0.75198132406E+01 -0.10903870378E+02 -0.80799299295E+01  0.15515387469E+02  0.51100000000E-03 0. -1.
        -11    1    3    3    0    0  0.85135868288E+00 -0.30925113413E+02 -0.45498459011E+00  0.30940175540E+02  0.51100000000E-03 0.  1.
        -12    1    3    3    0    0  0.36641475623E+00  0.19723502795E+01  0.35450403403E+01  0.40732955224E+01  0.00000000000E+00 0.  1.
</event>
<event>
 7    1  0.2575978E-011  0.5052887E+02  0.7816164E-02  0.1300439E+00
        -11   -1    0    0    0    0  0.00000000000E+00  0.00000000000E+00  0.45593999997E+02  0.45594000000E+02  0.51100000000E-03 0.  1.
         11   -1    0    0    0    0 -0.00000000000E+00 -0.00000000000E+00 -0.45593999997E+02  0.45594000000E+02  0.51100000000E-03 0. -1.
    9900012    2    1    2    0    0 -0.14644503205E+01 -0.16404179794E+02  0.37174222135E+02  0.50528874077E+02  0.30000043245E+02 0.  0.
         12    1    1    2    0    0  0.14644503205E+01  0.16404179794E+02 -0.37174222135E+02  0.40659125923E+02  0.00000000000E+00 0. -1.
         11    1    3    3    0    0  0.21970580735E+01 -0.34725171420E+01  0.14164669965E+02  0.14748671634E+02  0.51100000000E-03 0. -1.
        -11    1    3    3    0    0  0.37908461450E+01 -0.98581677137E+01  0.25286393264E+02  0.27403570383E+02  0.51100000000E-03 0.  1.
         12    1    3    3    0    0 -0.74523545391E+01 -0.30734949383E+01 -0.22768410938E+01  0.83766320606E+01  0.00000000000E+00 0. -1.
</event>
<event>
 7    1  0.2575978E-011  0.5052886E+02  0.7816164E-02  0.1300439E+00
        -11   -1    0    0    0    0  0.00000000000E+00  0.00000000000E+00  0.45593999997E+02  0.45594000000E+02  0.51100000000E-03 0.  1.
         11   -1    0    0    0    0 -0.00000000000E+00 -0.00000000000E+00 -0.45593999997E+02  0.45594000000E+02  0.51100000000E-03 0. -1.
    9900012    2    1    2    0    0 -0.12005611198E+02 -0.36487919141E+02 -0.13329023763E+02  0.50528858125E+02  0.29999994758E+02 0.  0.
         12    1    1    2    0    0  0.12005611198E+02  0.36487919141E+02  0.13329023763E+02  0.40659141875E+02  0.00000000000E+00 0. -1.
         11    1    3    3    0    0 -0.79159975696E+01 -0.93035066054E+00 -0.64000563529E+01  0.10222000365E+02  0.51100000000E-03 0. -1.
        -11    1    3    3    0    0  0.30375066202E+01  0.29641963069E+00 -0.13134111857E+01  0.33225532756E+01  0.51100000000E-03 0.  1.
        -12    1    3    3    0    0 -0.71271202485E+01 -0.35853988111E+02 -0.56155562249E+01  0.36984304485E+02  0.00000000000E+00 0.  1.
</event>
<event>
 7    1  0.2575978E-011  0.5052889E+02  0.7816164E-02  0.1300439E+00
        -11   -1    0    0    0    0  0.00000000000E+00  0.00000000000E+00  0.45593999997E+02  0.45594000000E+02  0.51100000000E-03 0.  1.
         11   -1    0    0    0    0 -0.00000000000E+00 -0.00000000000E+00 -0.45593999997E+02  0.45594000000E+02  0.51100000000E-03 0. -1.
    9900012    2    1    2    0    0  0.18262287285E+01  0.40505669132E+02 -0.30197943853E+01  0.50528886614E+02  0.30000081352E+02 0.  0.
         12    1    1    2    0    0 -0.18262287285E+01 -0.40505669132E+02  0.30197943853E+01  0.40659113386E+02  0.00000000000E+00 0. -1.
         11    1    3    3    0    0  0.28017429805E+01  0.76525470341E+01 -0.43042308733E+01  0.92161620813E+01  0.51100000000E-03 0. -1.
        -11    1    3    3    0    0 -0.79374718130E+00  0.16217829620E+02 -0.11862406673E+02  0.20108822057E+02  0.51100000000E-03 0.  1.
        -12    1    3    3    0    0 -0.18176707071E+00  0.16635292478E+02  0.13146843161E+02  0.21203902476E+02  0.00000000000E+00 0.  1.
</event>
<event>
 7    1  0.2575978E-011  0.5052885E+02  0.7816164E-02  0.1300439E+00
        -11   -1    0    0    0    0  0.00000000000E+00  0.00000000000E+00  0.45593999997E+02  0.45594000000E+02  0.51100000000E-03 0.  1.
         11   -1    0    0    0    0 -0.00000000000E+00 -0.00000000000E+00 -0.45593999997E+02  0.45594000000E+02  0.51100000000E-03 0. -1.
    9900012    2    1    2    0    0 -0.27277524278E+02 -0.16092790357E+02 -0.25497550090E+02  0.50528852287E+02  0.29999977011E+02 0.  0.
         12    1    1    2    0    0  0.27277524278E+02  0.16092790357E+02  0.25497550090E+02  0.40659147713E+02  0.00000000000E+00 0. -1.
         11    1    3    3    0    0  0.11805393954E+01 -0.11609804688E+01 -0.80224034672E+01  0.81914898868E+01  0.51100000000E-03 0. -1.
        -11    1    3    3    0    0 -0.46367482112E+01 -0.28578286470E+01 -0.14471426032E+02  0.15462496247E+02  0.51100000000E-03 0.  1.
        -12    1    3    3    0    0 -0.23821315462E+02 -0.12073981241E+02 -0.30037205907E+01  0.26874866153E+02  0.00000000000E+00 0.  1.
</event>
<event>
 7    1  0.2575978E-011  0.5052887E+02  0.7816164E-02  0.1300439E+00
        -11   -1    0    0    0    0  0.00000000000E+00  0.00000000000E+00  0.45593999997E+02  0.45594000000E+02  0.51100000000E-03 0.  1.
         11   -1    0    0    0    0 -0.00000000000E+00 -0.00000000000E+00 -0.45593999997E+02  0.45594000000E+02  0.51100000000E-03 0. -1.
    9900012    2    1    2    0    0 -0.40607344123E+02  0.20248880515E+01 -0.32950028231E+00  0.50528866478E+02  0.30000020146E+02 0.  0.
         12    1    1    2    0    0  0.40607344123E+02 -0.20248880515E+01  0.32950028231E+00  0.40659133522E+02  0.00000000000E+00 0. -1.
         11    1    3    3    0    0  0.13691356901E+01 -0.12062315465E+01  0.15061205608E+01  0.23659937630E+01  0.51100000000E-03 0. -1.
        -11    1    3    3    0    0 -0.34766735162E+01  0.78382118828E+01  0.30081605128E+01  0.90870156922E+01  0.51100000000E-03 0.  1.
         12    1    3    3    0    0 -0.38499806297E+02 -0.46070922848E+01 -0.48437813560E+01  0.39075857023E+02  0.00000000000E+00 0. -1.
</event>
<event>
 7    1  0.2575978E-011  0.5052886E+02  0.7816164E-02  0.1300439E+00
        -11   -1    0    0    0    0  0.00000000000E+00  0.00000000000E+00  0.45593999997E+02  0.45594000000E+02  0.51100000000E-03 0. -1.
         11   -1    0    0    0    0 -0.00000000000E+00 -0.00000000000E+00 -0.45593999997E+02  0.45594000000E+02  0.51100000000E-03 0.  1.
    9900012    2    1    2    0    0  0.16830847106E+02  0.16998323480E+02 -0.32877727701E+02  0.50528863336E+02  0.30000010596E+02 0.  0.
         12    1    1    2    0    0 -0.16830847106E+02 -0.16998323480E+02  0.32877727701E+02  0.40659136664E+02  0.00000000000E+00 0. -1.
         11    1    3    3    0    0  0.12118181094E+02  0.99612304497E+01 -0.26245546739E+02  0.30576218684E+02  0.51100000000E-03 0. -1.
        -11    1    3    3    0    0  0.51433223005E+01  0.34982446597E+01 -0.11995650717E+02  0.13512480023E+02  0.51100000000E-03 0.  1.
         12    1    3    3    0    0 -0.43065628886E+00  0.35388483711E+01  0.53634697552E+01  0.64401646289E+01  0.00000000000E+00 0. -1.
</event>
<event>
 7    1  0.2575978E-011  0.5052885E+02  0.7816164E-02  0.1300439E+00
        -11   -1    0    0    0    0  0.00000000000E+00  0.00000000000E+00  0.45593999997E+02  0.45594000000E+02  0.51100000000E-03 0. -1.
         11   -1    0    0    0    0 -0.00000000000E+00 -0.00000000000E+00 -0.45593999997E+02  0.45594000000E+02  0.51100000000E-03 0.  1.
    9900012    2    1    2    0    0  0.40402084185E+02  0.13712927161E+01  0.43540158207E+01  0.50528852149E+02  0.29999976591E+02 0.  0.
         12    1    1    2    0    0 -0.40402084185E+02 -0.13712927161E+01 -0.43540158207E+01  0.40659147851E+02  0.00000000000E+00 0. -1.
         11    1    3    3    0    0  0.61467135746E+01 -0.65920916332E+01  0.25177440020E+01  0.93582474315E+01  0.51100000000E-03 0. -1.
        -11    1    3    3    0    0  0.22038297388E+02  0.37416781058E+01  0.11398590356E+02  0.25092121656E+02  0.51100000000E-03 0.  1.
         12    1    3    3    0    0  0.12217073223E+02  0.42217062435E+01 -0.95623185378E+01  0.16078483061E+02  0.00000000000E+00 0. -1.
</event>
<event>
 7    1  0.2575978E-011  0.5052883E+02  0.7816164E-02  0.1300439E+00
        -11   -1    0    0    0    0  0.00000000000E+00  0.00000000000E+00  0.45593999997E+02  0.45594000000E+02  0.51100000000E-03 0.  1.
         11   -1    0    0    0    0 -0.00000000000E+00 -0.00000000000E+00 -0.45593999997E+02  0.45594000000E+02  0.51100000000E-03 0. -1.
    9900012    2    1    2    0    0  0.37668537089E+02 -0.15290815145E+02  0.66377019349E+00  0.50528827540E+02  0.29999901792E+02 0.  0.
         12    1    1    2    0    0 -0.37668537089E+02  0.15290815145E+02 -0.66377019349E+00  0.40659172460E+02  0.00000000000E+00 0. -1.
         11    1    3    3    0    0  0.10087032367E+02 -0.72993094697E+01 -0.79500243255E+01  0.14772644575E+02  0.51100000000E-03 0. -1.
        -11    1    3    3    0    0  0.24947752055E+02 -0.10382904580E+02  0.13100493991E+02  0.30030284434E+02  0.51100000000E-03 0.  1.
         12    1    3    3    0    0  0.26337526680E+01  0.23913989053E+01 -0.44866994722E+01  0.57258985316E+01  0.00000000000E+00 0. -1.
</event>
<event>
 7    1  0.2575978E-011  0.5052886E+02  0.7816164E-02  0.1300439E+00
        -11   -1    0    0    0    0  0.00000000000E+00  0.00000000000E+00  0.45593999997E+02  0.45594000000E+02  0.51100000000E-03 0.  1.
         11   -1    0    0    0    0 -0.00000000000E+00 -0.00000000000E+00 -0.45593999997E+02  0.45594000000E+02  0.51100000000E-03 0. -1.
    9900012    2    1    2    0    0 -0.10521060925E+02 -0.30270312828E+02  0.25023616519E+02  0.50528856559E+02  0.29999989997E+02 0.  0.
         12    1    1    2    0    0  0.10521060925E+02  0.30270312828E+02 -0.25023616519E+02  0.40659143441E+02  0.00000000000E+00 0. -1.
         11    1    3    3    0    0  0.26400858923E+01 -0.12194877113E+01 -0.26969646208E+01  0.39662100580E+01  0.51100000000E-03 0. -1.
        -11    1    3    3    0    0  0.16678722111E+01 -0.18984834779E+02  0.10753070767E+02  0.21882282342E+02  0.51100000000E-03 0.  1.
        -12    1    3    3    0    0 -0.14829019028E+02 -0.10065990337E+02  0.16967510372E+02  0.24680364160E+02  0.00000000000E+00 0.  1.
</event>
<event>
 7    1  0.2575978E-011  0.5052886E+02  0.7816164E-02  0.1300439E+00
        -11   -1    0    0    0    0  0.00000000000E+00  0.00000000000E+00  0.45593999997E+02  0.45594000000E+02  0.51100000000E-03 0.  1.
         11   -1    0    0    0    0 -0.00000000000E+00 -0.00000000000E+00 -0.45593999997E+02  0.45594000000E+02  0.51100000000E-03 0. -1.
    9900012    2    1    2    0    0 -0.23499070525E+02  0.26822107222E+02  0.19532894474E+02  0.50528859356E+02  0.29999998500E+02 0.  0.
         12    1    1    2    0    0  0.23499070525E+02 -0.26822107222E+02 -0.19532894474E+02  0.40659140644E+02  0.00000000000E+00 0. -1.
         11    1    3    3    0    0 -0.69082584414E+01  0.88191786878E+01  0.20829854656E+02  0.23651316933E+02  0.51100000000E-03 0. -1.
        -11    1    3    3    0    0 -0.24731141123E+01  0.60640202736E+00  0.31353486041E+01  0.40391122740E+01  0.51100000000E-03 0.  1.
        -12    1    3    3    0    0 -0.14117697971E+02  0.17396526507E+02 -0.44323087865E+01  0.22838430149E+02  0.00000000000E+00 0.  1.
</event>
<event>
 7    1  0.2575978E-011  0.5052886E+02  0.7816164E-02  0.1300439E+00
        -11   -1    0    0    0    0  0.00000000000E+00  0.00000000000E+00  0.45593999997E+02  0.45594000000E+02  0.51100000000E-03 0.  1.
         11   -1    0    0    0    0 -0.00000000000E+00 -0.00000000000E+00 -0.45593999997E+02  0.45594000000E+02  0.51100000000E-03 0. -1.
    9900012    2    1    2    0    0  0.36656365226E+02  0.35794689631E+00 -0.17588315018E+02  0.50528855116E+02  0.29999985611E+02 0.  0.
         12    1    1    2    0    0 -0.36656365226E+02 -0.35794689631E+00  0.17588315018E+02  0.40659144884E+02  0.00000000000E+00 0. -1.
         11    1    3    3    0    0  0.14911857080E+02  0.74571761946E+01 -0.13033792514E+02  0.21162530707E+02  0.51100000000E-03 0. -1.
        -11    1    3    3    0    0  0.11523349190E+02  0.14920681035E+00 -0.10414889288E+02  0.15533182493E+02  0.51100000000E-03 0.  1.
        -12    1    3    3    0    0  0.10221158956E+02 -0.72484361086E+01  0.58603667843E+01  0.13833141916E+02  0.00000000000E+00 0.  1.
</event>
<event>
 7    1  0.2575978E-011  0.5052887E+02  0.7816164E-02  0.1300439E+00
        -11   -1    0    0    0    0  0.00000000000E+00  0.00000000000E+00  0.45593999997E+02  0.45594000000E+02  0.51100000000E-03 0.  1.
         11   -1    0    0    0    0 -0.00000000000E+00 -0.00000000000E+00 -0.45593999997E+02  0.45594000000E+02  0.51100000000E-03 0. -1.
    9900012    2    1    2    0    0  0.15564334168E+02 -0.22468312690E+02  0.30101354004E+02  0.50528867125E+02  0.30000022114E+02 0.  0.
         12    1    1    2    0    0 -0.15564334168E+02  0.22468312690E+02 -0.30101354004E+02  0.40659132875E+02  0.00000000000E+00 0. -1.
         11    1    3    3    0    0  0.53897591360E+01 -0.63742254043E+00  0.46224618781E+01  0.71290227321E+01  0.51100000000E-03 0. -1.
        -11    1    3    3    0    0  0.16567699437E+02 -0.10406362364E+02  0.70543182521E+01  0.20797702963E+02  0.51100000000E-03 0.  1.
        -12    1    3    3    0    0 -0.63931244048E+01 -0.11424527785E+02  0.18424573874E+02  0.22602141430E+02  0.00000000000E+00 0.  1.
</event>
<event>
 7    1  0.2575978E-011  0.5052886E+02  0.7816164E-02  0.1300439E+00
        -11   -1    0    0    0    0  0.00000000000E+00  0.00000000000E+00  0.45593999997E+02  0.45594000000E+02  0.51100000000E-03 0. -1.
         11   -1    0    0    0    0 -0.00000000000E+00 -0.00000000000E+00 -0.45593999997E+02  0.45594000000E+02  0.51100000000E-03 0.  1.
    9900012    2    1    2    0    0  0.62156735282E+01  0.33963251065E+02 -0.21471577549E+02  0.50528860034E+02  0.30000000559E+02 0.  0.
         12    1    1    2    0    0 -0.62156735282E+01 -0.33963251065E+02  0.21471577549E+02  0.40659139966E+02  0.00000000000E+00 0. -1.
         11    1    3    3    0    0 -0.31605006975E+01  0.16550974797E+02 -0.18326970858E+02  0.24895810742E+02  0.51100000000E-03 0. -1.
        -11    1    3    3    0    0  0.12748921327E+01  0.10777184448E+02 -0.85804079885E+01  0.13834610804E+02  0.51100000000E-03 0.  1.
         12    1    3    3    0    0  0.81012820930E+01  0.66350918204E+01  0.54358012981E+01  0.11798438489E+02  0.00000000000E+00 0. -1.
</event>
<event>
 7    1  0.2575978E-011  0.5052885E+02  0.7816164E-02  0.1300439E+00
        -11   -1    0    0    0    0  0.00000000000E+00  0.00000000000E+00  0.45593999997E+02  0.45594000000E+02  0.51100000000E-03 0.  1.
         11   -1    0    0    0    0 -0.00000000000E+00 -0.00000000000E+00 -0.45593999997E+02  0.45594000000E+02  0.51100000000E-03 0. -1.
    9900012    2    1    2    0    0  0.18489722830E+02 -0.90696721339E+01  0.35057629217E+02  0.50528853806E+02  0.29999981628E+02 0.  0.
         12    1    1    2    0    0 -0.18489722830E+02  0.90696721339E+01 -0.35057629217E+02  0.40659146194E+02  0.00000000000E+00 0. -1.
         11    1    3    3    0    0  0.49481649097E+01  0.61701562136E+01  0.11519472191E+02  0.13973310399E+02  0.51100000000E-03 0. -1.
        -11    1    3    3    0    0  0.14972959655E+02 -0.25378253743E+01  0.12815857395E+02  0.19871494144E+02  0.51100000000E-03 0.  1.
         12    1    3    3    0    0 -0.14314017354E+01 -0.12702002973E+02  0.10722299631E+02  0.16684049264E+02  0.00000000000E+00 0. -1.
</event>
<event>
 7    1  0.2575978E-011  0.5052884E+02  0.7816164E-02  0.1300439E+00
        -11   -1    0    0    0    0  0.00000000000E+00  0.00000000000E+00  0.45593999997E+02  0.45594000000E+02  0.51100000000E-03 0.  1.
         11   -1    0    0    0    0 -0.00000000000E+00 -0.00000000000E+00 -0.45593999997E+02  0.45594000000E+02  0.51100000000E-03 0. -1.
    9900012    2    1    2    0    0  0.19437631365E+02  0.25764887443E+02  0.24728856691E+02  0.50528840008E+02  0.29999939687E+02 0.  0.
         12    1    1    2    0    0 -0.19437631365E+02 -0.25764887443E+02 -0.24728856691E+02  0.40659159992E+02  0.00000000000E+00 0. -1.
         11    1    3    3    0    0  0.20795923131E+01 -0.14708127645E+01  0.15092837659E+02  0.15306264836E+02  0.51100000000E-03 0. -1.
        -11    1    3    3    0    0  0.42436997628E+01  0.43895617988E+01  0.61228314345E+01  0.86467511528E+01  0.51100000000E-03 0.  1.
         12    1    3    3    0    0  0.13114339289E+02  0.22846138408E+02  0.35131875980E+01  0.26575824019E+02  0.00000000000E+00 0. -1.
</event>
<event>
 7    1  0.2575978E-011  0.5052886E+02  0.7816164E-02  0.1300439E+00
        -11   -1    0    0    0    0  0.00000000000E+00  0.00000000000E+00  0.45593999997E+02  0.45594000000E+02  0.51100000000E-03 0.  1.
         11   -1    0    0    0    0 -0.00000000000E+00 -0.00000000000E+00 -0.45593999997E+02  0.45594000000E+02  0.51100000000E-03 0. -1.
    9900012    2    1    2    0    0  0.23674303507E+02  0.17372000672E+02  0.28123061476E+02  0.50528860306E+02  0.30000001385E+02 0.  0.
         12    1    1    2    0    0 -0.23674303507E+02 -0.17372000672E+02 -0.28123061476E+02  0.40659139694E+02  0.00000000000E+00 0. -1.
         11    1    3    3    0    0  0.49361092344E+01  0.12144242656E+02  0.44160589799E+01  0.13832909356E+02  0.51100000000E-03 0. -1.
        -11    1    3    3    0    0  0.10412133695E+02 -0.35117005922E+00 -0.56783416914E+00  0.10433517355E+02  0.51100000000E-03 0.  1.
        -12    1    3    3    0    0  0.83260605776E+01  0.55789280754E+01  0.24274836665E+02  0.26262433595E+02  0.00000000000E+00 0.  1.
</event>
<event>
 7    1  0.2575978E-011  0.5052886E+02  0.7816164E-02  0.1300439E+00
        -11   -1    0    0    0    0  0.00000000000E+00  0.00000000000E+00  0.45593999997E+02  0.45594000000E+02  0.51100000000E-03 0.  1.
         11   -1    0    0    0    0 -0.00000000000E+00 -0.00000000000E+00 -0.45593999997E+02  0.45594000000E+02  0.51100000000E-03 0. -1.
    9900012    2    1    2    0    0  0.31182150215E+02 -0.25031662470E+02 -0.73658055465E+01  0.50528859461E+02  0.29999998818E+02 0.  0.
         12    1    1    2    0    0 -0.31182150215E+02  0.25031662470E+02  0.73658055465E+01  0.40659140539E+02  0.00000000000E+00 0. -1.
         11    1    3    3    0    0  0.10811796591E+02 -0.13424695241E+02 -0.24881334074E+00  0.17238889064E+02  0.51100000000E-03 0. -1.
        -11    1    3    3    0    0  0.30127582163E+01 -0.14277118234E+02 -0.57203376203E+01  0.15672749595E+02  0.51100000000E-03 0.  1.
         12    1    3    3    0    0  0.17357595408E+02  0.26701510049E+01 -0.13966545854E+01  0.17617220801E+02  0.00000000000E+00 0. -1.
</event>
<event>
 7    1  0.2575978E-011  0.5052885E+02  0.7816164E-02  0.1300439E+00
        -11   -1    0    0    0    0  0.00000000000E+00  0.00000000000E+00  0.45593999997E+02  0.45594000000E+02  0.51100000000E-03 0.  1.
         11   -1    0    0    0    0 -0.00000000000E+00 -0.00000000000E+00 -0.45593999997E+02  0.45594000000E+02  0.51100000000E-03 0. -1.
    9900012    2    1    2    0    0  0.17438810406E+01 -0.38249475721E+02  0.13678544235E+02  0.50528854825E+02  0.29999984725E+02 0.  0.
         12    1    1    2    0    0 -0.17438810406E+01  0.38249475721E+02 -0.13678544235E+02  0.40659145175E+02  0.00000000000E+00 0. -1.
         11    1    3    3    0    0  0.13455482945E+02 -0.30358717438E+02  0.98030655762E+01  0.34623717893E+02  0.51100000000E-03 0.  1.
        -11    1    3    3    0    0 -0.18731519439E+01 -0.44869012651E+01  0.20541598172E+00  0.48665364639E+01  0.51100000000E-03 0. -1.
         12    1    3    3    0    0 -0.98384499609E+01 -0.34038570175E+01  0.36700626772E+01  0.11038600468E+02  0.00000000000E+00 0. -1.
</event>
<event>
 7    1  0.2575978E-011  0.5052886E+02  0.7816164E-02  0.1300439E+00
        -11   -1    0    0    0    0  0.00000000000E+00  0.00000000000E+00  0.45593999997E+02  0.45594000000E+02  0.51100000000E-03 0.  1.
         11   -1    0    0    0    0 -0.00000000000E+00 -0.00000000000E+00 -0.45593999997E+02  0.45594000000E+02  0.51100000000E-03 0. -1.
    9900012    2    1    2    0    0 -0.17731639037E+02  0.58590534199E+01  0.36116838475E+02  0.50528861405E+02  0.30000004725E+02 0.  0.
         12    1    1    2    0    0  0.17731639037E+02 -0.58590534199E+01 -0.36116838475E+02  0.40659138595E+02  0.00000000000E+00 0. -1.
         11    1    3    3    0    0 -0.12158254493E+02 -0.10108630970E+02  0.15627881648E+02  0.22231469980E+02  0.51100000000E-03 0. -1.
        -11    1    3    3    0    0 -0.43088208570E+01  0.16788898164E+01  0.81750374176E+01  0.93923290633E+01  0.51100000000E-03 0.  1.
         12    1    3    3    0    0 -0.12645636872E+01  0.14288794573E+02  0.12313919409E+02  0.18905062361E+02  0.00000000000E+00 0. -1.
</event>
<event>
 7    1  0.2575978E-011  0.5052886E+02  0.7816164E-02  0.1300439E+00
        -11   -1    0    0    0    0  0.00000000000E+00  0.00000000000E+00  0.45593999997E+02  0.45594000000E+02  0.51100000000E-03 0.  1.
         11   -1    0    0    0    0 -0.00000000000E+00 -0.00000000000E+00 -0.45593999997E+02  0.45594000000E+02  0.51100000000E-03 0. -1.
    9900012    2    1    2    0    0  0.29819416548E+01 -0.17319711530E+02  0.36664714624E+02  0.50528859798E+02  0.29999999841E+02 0.  0.
         12    1    1    2    0    0 -0.29819416548E+01  0.17319711530E+02 -0.36664714624E+02  0.40659140202E+02  0.00000000000E+00 0. -1.
         11    1    3    3    0    0 -0.60864025123E+01 -0.97345492385E+01  0.97910552752E+01  0.15088754358E+02  0.51100000000E-03 0. -1.
        -11    1    3    3    0    0 -0.30294324219E+01  0.39388726160E+01  0.12312313375E+02  0.13277245166E+02  0.51100000000E-03 0.  1.
         12    1    3    3    0    0  0.12097776589E+02 -0.11524034907E+02  0.14561345973E+02  0.22162860274E+02  0.00000000000E+00 0. -1.
</event>
<event>
 7    1  0.2575978E-011  0.5052887E+02  0.7816164E-02  0.1300439E+00
        -11   -1    0    0    0    0  0.00000000000E+00  0.00000000000E+00  0.45593999997E+02  0.45594000000E+02  0.51100000000E-03 0.  1.
         11   -1    0    0    0    0 -0.00000000000E+00 -0.00000000000E+00 -0.45593999997E+02  0.45594000000E+02  0.51100000000E-03 0. -1.
    9900012    2    1    2    0    0 -0.13648851750E+02  0.16838531575E+02  0.34399673687E+02  0.50528870036E+02  0.30000030961E+02 0.  0.
         12    1    1    2    0    0  0.13648851750E+02 -0.16838531575E+02 -0.34399673687E+02  0.40659129964E+02  0.00000000000E+00 0. -1.
         11    1    3    3    0    0  0.19086731607E+00 -0.62682571279E+01  0.10452131268E+02  0.12189115065E+02  0.51100000000E-03 0. -1.
        -11    1    3    3    0    0  0.75366045651E+00  0.10603982094E+02  0.99989503807E+01  0.14594226574E+02  0.51100000000E-03 0.  1.
        -12    1    3    3    0    0 -0.14593379523E+02  0.12502806610E+02  0.13948592038E+02  0.23745528397E+02  0.00000000000E+00 0.  1.
</event>
<event>
 7    1  0.2575978E-011  0.5052886E+02  0.7816164E-02  0.1300439E+00
        -11   -1    0    0    0    0  0.00000000000E+00  0.00000000000E+00  0.45593999997E+02  0.45594000000E+02  0.51100000000E-03 0.  1.
         11   -1    0    0    0    0 -0.00000000000E+00 -0.00000000000E+00 -0.45593999997E+02  0.45594000000E+02  0.51100000000E-03 0. -1.
    9900012    2    1    2    0    0  0.38636023943E+02  0.76354863973E+00  0.12642808823E+02  0.50528856286E+02  0.29999989167E+02 0.  0.
         12    1    1    2    0    0 -0.38636023943E+02 -0.76354863973E+00 -0.12642808823E+02  0.40659143714E+02  0.00000000000E+00 0. -1.
         11    1    3    3    0    0  0.32843828746E+01 -0.91744955742E+00  0.35188360607E+01  0.49001114314E+01  0.51100000000E-03 0.  1.
        -11    1    3    3    0    0  0.23800761683E+02 -0.12119645174E+02  0.52558845113E+01  0.27221064969E+02  0.51100000000E-03 0. -1.
        -12    1    3    3    0    0  0.11550879386E+02  0.13800643371E+02  0.38680882505E+01  0.18407679885E+02  0.00000000000E+00 0.  1.
</event>
<event>
 7    1  0.2575978E-011  0.5052884E+02  0.7816164E-02  0.1300439E+00
        -11   -1    0    0    0    0  0.00000000000E+00  0.00000000000E+00  0.45593999997E+02  0.45594000000E+02  0.51100000000E-03 0.  1.
         11   -1    0    0    0    0 -0.00000000000E+00 -0.00000000000E+00 -0.45593999997E+02  0.45594000000E+02  0.51100000000E-03 0. -1.
    9900012    2    1    2    0    0 -0.30561872284E+00 -0.38848818537E+02  0.11993453497E+02  0.50528843204E+02  0.29999949403E+02 0.  0.
         12    1    1    2    0    0  0.30561872284E+00  0.38848818537E+02 -0.11993453497E+02  0.40659156796E+02  0.00000000000E+00 0. -1.
         11    1    3    3    0    0  0.16570344674E+01 -0.49792404913E+01  0.69578383297E+01  0.87149362349E+01  0.51100000000E-03 0. -1.
        -11    1    3    3    0    0  0.42617310585E+01 -0.14538646692E+02  0.13035749945E+02  0.19986629935E+02  0.51100000000E-03 0.  1.
         12    1    3    3    0    0 -0.62243842487E+01 -0.19330931354E+02 -0.80001347775E+01  0.21827277035E+02  0.00000000000E+00 0. -1.
</event>
<event>
 7    1  0.2575978E-011  0.5052886E+02  0.7816164E-02  0.1300439E+00
        -11   -1    0    0    0    0  0.00000000000E+00  0.00000000000E+00  0.45593999997E+02  0.45594000000E+02  0.51100000000E-03 0.  1.
         11   -1    0    0    0    0 -0.00000000000E+00 -0.00000000000E+00 -0.45593999997E+02  0.45594000000E+02  0.51100000000E-03 0. -1.
    9900012    2    1    2    0    0 -0.50491203410E+01 -0.34583575918E+02 -0.20776148871E+02  0.50528859559E+02  0.29999999116E+02 0.  0.
         12    1    1    2    0    0  0.50491203410E+01  0.34583575918E+02  0.20776148871E+02  0.40659140441E+02  0.00000000000E+00 0. -1.
         11    1    3    3    0    0  0.23188029109E+01 -0.89417764985E+01 -0.94342875522E+01  0.13203711439E+02  0.51100000000E-03 0. -1.
        -11    1    3    3    0    0 -0.41921129538E+01 -0.27622993320E+02 -0.15319175606E+02  0.31863469875E+02  0.51100000000E-03 0.  1.
        -12    1    3    3    0    0 -0.31758102980E+01  0.19811939007E+01  0.39773142864E+01  0.54616782452E+01  0.00000000000E+00 0.  1.
</event>
<event>
 7    1  0.2575978E-011  0.5052886E+02  0.7816164E-02  0.1300439E+00
        -11   -1    0    0    0    0  0.00000000000E+00  0.00000000000E+00  0.45593999997E+02  0.45594000000E+02  0.51100000000E-03 0.  1.
         11   -1    0    0    0    0 -0.00000000000E+00 -0.00000000000E+00 -0.45593999997E+02  0.45594000000E+02  0.51100000000E-03 0. -1.
    9900012    2    1    2    0    0  0.36577587354E+02 -0.17472045446E+02  0.31580558850E+01  0.50528860982E+02  0.30000003441E+02 0.  0.
         12    1    1    2    0    0 -0.36577587354E+02  0.17472045446E+02 -0.31580558850E+01  0.40659139018E+02  0.00000000000E+00 0. -1.
         11    1    3    3    0    0  0.50771490486E+01  0.70764597539E+01  0.37008201300E+01  0.94630753461E+01  0.51100000000E-03 0. -1.
        -11    1    3    3    0    0  0.25971039702E+01 -0.32543162266E+01  0.27884329370E+01  0.50110758965E+01  0.51100000000E-03 0.  1.
         12    1    3    3    0    0  0.28903334335E+02 -0.21294188973E+02 -0.33311971820E+01  0.36054709739E+02  0.00000000000E+00 0. -1.
</event>
<event>
 7    1  0.2575978E-011  0.5052886E+02  0.7816164E-02  0.1300439E+00
        -11   -1    0    0    0    0  0.00000000000E+00  0.00000000000E+00  0.45593999997E+02  0.45594000000E+02  0.51100000000E-03 0.  1.
         11   -1    0    0    0    0 -0.00000000000E+00 -0.00000000000E+00 -0.45593999997E+02  0.45594000000E+02  0.51100000000E-03 0. -1.
    9900012    2    1    2    0    0 -0.18578454847E+01 -0.39217160626E+02  0.10570154094E+02  0.50528862835E+02  0.30000009073E+02 0.  0.
         12    1    1    2    0    0  0.18578454847E+01  0.39217160626E+02 -0.10570154094E+02  0.40659137165E+02  0.00000000000E+00 0. -1.
         11    1    3    3    0    0  0.36454321707E+01 -0.11837893520E+02  0.15848925235E+02  0.20115002612E+02  0.51100000000E-03 0. -1.
        -11    1    3    3    0    0 -0.23284446540E+01 -0.48483029405E+01  0.30509731251E+01  0.61835372709E+01  0.51100000000E-03 0.  1.
         12    1    3    3    0    0 -0.31748330013E+01 -0.22530964166E+02 -0.83297442659E+01  0.24230322952E+02  0.00000000000E+00 0. -1.
</event>
<event>
 7    1  0.2575978E-011  0.5052886E+02  0.7816164E-02  0.1300439E+00
        -11   -1    0    0    0    0  0.00000000000E+00  0.00000000000E+00  0.45593999997E+02  0.45594000000E+02  0.51100000000E-03 0.  1.
         11   -1    0    0    0    0 -0.00000000000E+00 -0.00000000000E+00 -0.45593999997E+02  0.45594000000E+02  0.51100000000E-03 0. -1.
    9900012    2    1    2    0    0  0.14558425842E+02  0.21214382237E+02  0.31482820905E+02  0.50528858484E+02  0.29999995848E+02 0.  0.
         12    1    1    2    0    0 -0.14558425842E+02 -0.21214382237E+02 -0.31482820905E+02  0.40659141516E+02  0.00000000000E+00 0. -1.
         11    1    3    3    0    0  0.96311910937E+01  0.13774023627E+02  0.14358245165E+02  0.22105265736E+02  0.51100000000E-03 0. -1.
        -11    1    3    3    0    0  0.11251437533E+02  0.87766554230E+01  0.16670542105E+02  0.21943826041E+02  0.51100000000E-03 0.  1.
         12    1    3    3    0    0 -0.63242027853E+01 -0.13362968127E+01  0.45403363444E+00  0.64797667074E+01  0.00000000000E+00 0. -1.
</event>
<event>
 7    1  0.2575978E-011  0.5052885E+02  0.7816164E-02  0.1300439E+00
        -11   -1    0    0    0    0  0.00000000000E+00  0.00000000000E+00  0.45593999997E+02  0.45594000000E+02  0.51100000000E-03 0.  1.
         11   -1    0    0    0    0 -0.00000000000E+00 -0.00000000000E+00 -0.45593999997E+02  0.45594000000E+02  0.51100000000E-03 0. -1.
    9900012    2    1    2    0    0 -0.42088810423E+01 -0.31106829557E+02  0.25842152434E+02  0.50528851372E+02  0.29999974230E+02 0.  0.
         12    1    1    2    0    0  0.42088810423E+01  0.31106829557E+02 -0.25842152434E+02  0.40659148628E+02  0.00000000000E+00 0. -1.
         11    1    3    3    0    0  0.21392363382E+01 -0.44907132249E+01 -0.42134028997E+01  0.65188650573E+01  0.51100000000E-03 0. -1.
        -11    1    3    3    0    0 -0.10095717632E+02 -0.21174757181E+02  0.29030722336E+02  0.37323942661E+02  0.51100000000E-03 0.  1.
         12    1    3    3    0    0  0.37476002511E+01 -0.54413591517E+01  0.10248329973E+01  0.66860436532E+01  0.00000000000E+00 0. -1.
</event>
<event>
 7    1  0.2575978E-011  0.5052888E+02  0.7816164E-02  0.1300439E+00
        -11   -1    0    0    0    0  0.00000000000E+00  0.00000000000E+00  0.45593999997E+02  0.45594000000E+02  0.51100000000E-03 0.  1.
         11   -1    0    0    0    0 -0.00000000000E+00 -0.00000000000E+00 -0.45593999997E+02  0.45594000000E+02  0.51100000000E-03 0. -1.
    9900012    2    1    2    0    0 -0.34152553599E+02 -0.20345360295E+02 -0.85342591449E+01  0.50528878243E+02  0.30000055909E+02 0.  0.
         12    1    1    2    0    0  0.34152553599E+02  0.20345360295E+02  0.85342591449E+01  0.40659121757E+02  0.00000000000E+00 0. -1.
         11    1    3    3    0    0 -0.27444257057E+02 -0.15696873976E+02 -0.15927726269E+02  0.35401575705E+02  0.51100000000E-03 0. -1.
        -11    1    3    3    0    0 -0.88544327575E+00 -0.62766201775E+01  0.11614345867E+01  0.64442921417E+01  0.51100000000E-03 0.  1.
        -12    1    3    3    0    0 -0.58228532661E+01  0.16281338579E+01  0.62320325369E+01  0.86830103972E+01  0.00000000000E+00 0.  1.
</event>
<event>
 7    1  0.2575978E-011  0.5052887E+02  0.7816164E-02  0.1300439E+00
        -11   -1    0    0    0    0  0.00000000000E+00  0.00000000000E+00  0.45593999997E+02  0.45594000000E+02  0.51100000000E-03 0. -1.
         11   -1    0    0    0    0 -0.00000000000E+00 -0.00000000000E+00 -0.45593999997E+02  0.45594000000E+02  0.51100000000E-03 0.  1.
    9900012    2    1    2    0    0 -0.28870743274E+02  0.28619166594E+02  0.76704814088E+00  0.50528869702E+02  0.30000029947E+02 0.  0.
         12    1    1    2    0    0  0.28870743274E+02 -0.28619166594E+02 -0.76704814088E+00  0.40659130298E+02  0.00000000000E+00 0. -1.
         11    1    3    3    0    0 -0.10350274863E+00  0.52573234363E+00  0.45818710160E+01  0.46130954450E+01  0.51100000000E-03 0. -1.
        -11    1    3    3    0    0 -0.33433009082E+01 -0.35507898229E+01 -0.20346736077E+01  0.52844740779E+01  0.51100000000E-03 0.  1.
        -12    1    3    3    0    0 -0.25423939618E+02  0.31644224073E+02 -0.17801492675E+01  0.40631300179E+02  0.00000000000E+00 0.  1.
</event>
<event>
 7    1  0.2575978E-011  0.5052887E+02  0.7816164E-02  0.1300439E+00
        -11   -1    0    0    0    0  0.00000000000E+00  0.00000000000E+00  0.45593999997E+02  0.45594000000E+02  0.51100000000E-03 0.  1.
         11   -1    0    0    0    0 -0.00000000000E+00 -0.00000000000E+00 -0.45593999997E+02  0.45594000000E+02  0.51100000000E-03 0. -1.
    9900012    2    1    2    0    0 -0.25173049574E+02 -0.51097165415E+01  0.31517828635E+02  0.50528866341E+02  0.30000019731E+02 0.  0.
         12    1    1    2    0    0  0.25173049574E+02  0.51097165415E+01 -0.31517828635E+02  0.40659133659E+02  0.00000000000E+00 0. -1.
         11    1    3    3    0    0 -0.31947902699E+01  0.61105361991E+01  0.76418730840E+01  0.10292888905E+02  0.51100000000E-03 0. -1.
        -11    1    3    3    0    0 -0.92512449312E+01 -0.11038625687E+02  0.23426448454E+02  0.27499732313E+02  0.51100000000E-03 0.  1.
         12    1    3    3    0    0 -0.12727014373E+02 -0.18162705340E+00  0.44950709738E+00  0.12736245124E+02  0.00000000000E+00 0. -1.
</event>
<event>
 7    1  0.2575978E-011  0.5052886E+02  0.7816164E-02  0.1300439E+00
        -11   -1    0    0    0    0  0.00000000000E+00  0.00000000000E+00  0.45593999997E+02  0.45594000000E+02  0.51100000000E-03 0.  1.
         11   -1    0    0    0    0 -0.00000000000E+00 -0.00000000000E+00 -0.45593999997E+02  0.45594000000E+02  0.51100000000E-03 0. -1.
    9900012    2    1    2    0    0 -0.25464415661E+02 -0.26525610406E+02  0.17352852366E+02  0.50528856408E+02  0.29999989538E+02 0.  0.
         12    1    1    2    0    0  0.25464415661E+02  0.26525610406E+02 -0.17352852366E+02  0.40659143592E+02  0.00000000000E+00 0. -1.
         11    1    3    3    0    0 -0.21327057172E+02 -0.95236896053E+01  0.10393551282E+02  0.25565013980E+02  0.51100000000E-03 0. -1.
        -11    1    3    3    0    0 -0.10410416436E+02 -0.12306517302E+02  0.51513314039E+01  0.16922273900E+02  0.51100000000E-03 0.  1.
        -12    1    3    3    0    0  0.62730579463E+01 -0.46954034988E+01  0.18079696807E+01  0.80415685274E+01  0.00000000000E+00 0.  1.
</event>
<event>
 7    1  0.2575978E-011  0.5052885E+02  0.7816164E-02  0.1300439E+00
        -11   -1    0    0    0    0  0.00000000000E+00  0.00000000000E+00  0.45593999997E+02  0.45594000000E+02  0.51100000000E-03 0. -1.
         11   -1    0    0    0    0 -0.00000000000E+00 -0.00000000000E+00 -0.45593999997E+02  0.45594000000E+02  0.51100000000E-03 0.  1.
    9900012    2    1    2    0    0  0.37911536036E+02  0.14682243063E+02 -0.55981585882E+00  0.50528853184E+02  0.29999979740E+02 0.  0.
         12    1    1    2    0    0 -0.37911536036E+02 -0.14682243063E+02  0.55981585882E+00  0.40659146816E+02  0.00000000000E+00 0. -1.
         11    1    3    3    0    0  0.15423679812E+02  0.43449886478E+01  0.55369449387E+01  0.16953659924E+02  0.51100000000E-03 0. -1.
        -11    1    3    3    0    0  0.74276818871E+01 -0.66169235070E+01  0.49363632091E+00  0.99598098372E+01  0.51100000000E-03 0.  1.
        -12    1    3    3    0    0  0.15060174337E+02  0.16954177922E+02 -0.65903971184E+01  0.23615383423E+02  0.00000000000E+00 0.  1.
</event>
<event>
 7    1  0.2575978E-011  0.5052886E+02  0.7816164E-02  0.1300439E+00
        -11   -1    0    0    0    0  0.00000000000E+00  0.00000000000E+00  0.45593999997E+02  0.45594000000E+02  0.51100000000E-03 0.  1.
         11   -1    0    0    0    0 -0.00000000000E+00 -0.00000000000E+00 -0.45593999997E+02  0.45594000000E+02  0.51100000000E-03 0. -1.
    9900012    2    1    2    0    0  0.20063367049E+02  0.30540191862E+02  0.17830412147E+02  0.50528860638E+02  0.30000002396E+02 0.  0.
         12    1    1    2    0    0 -0.20063367049E+02 -0.30540191862E+02 -0.17830412147E+02  0.40659139362E+02  0.00000000000E+00 0. -1.
         11    1    3    3    0    0  0.15191634686E+01  0.85639809020E+01  0.46798321548E+01  0.98767634270E+01  0.51100000000E-03 0. -1.
        -11    1    3    3    0    0  0.13396263221E+02  0.23829319863E+02  0.10326135541E+01  0.27356217656E+02  0.51100000000E-03 0.  1.
        -12    1    3    3    0    0  0.51479403600E+01 -0.18531089035E+01  0.12117966438E+02  0.13295879555E+02  0.00000000000E+00 0.  1.
</event>
<event>
 7    1  0.2575978E-011  0.5052886E+02  0.7816164E-02  0.1300439E+00
        -11   -1    0    0    0    0  0.00000000000E+00  0.00000000000E+00  0.45593999997E+02  0.45594000000E+02  0.51100000000E-03 0.  1.
         11   -1    0    0    0    0 -0.00000000000E+00 -0.00000000000E+00 -0.45593999997E+02  0.45594000000E+02  0.51100000000E-03 0. -1.
    9900012    2    1    2    0    0  0.28900045464E+02  0.50300371364E+01  0.28154071387E+02  0.50528860350E+02  0.30000001520E+02 0.  0.
         12    1    1    2    0    0 -0.28900045464E+02 -0.50300371364E+01 -0.28154071387E+02  0.40659139650E+02  0.00000000000E+00 0. -1.
         11    1    3    3    0    0  0.38416889119E+01  0.43593762975E+01  0.96826091662E+01  0.11292283025E+02  0.51100000000E-03 0. -1.
        -11    1    3    3    0    0  0.10292991588E+02  0.91819022651E+01  0.17339086161E+02  0.22156193586E+02  0.51100000000E-03 0.  1.
         12    1    3    3    0    0  0.14765364964E+02 -0.85112414262E+01  0.11323760595E+01  0.17080383739E+02  0.00000000000E+00 0. -1.
</event>
<event>
 7    1  0.2575978E-011  0.5052886E+02  0.7816164E-02  0.1300439E+00
        -11   -1    0    0    0    0  0.00000000000E+00  0.00000000000E+00  0.45593999997E+02  0.45594000000E+02  0.51100000000E-03 0. -1.
         11   -1    0    0    0    0 -0.00000000000E+00 -0.00000000000E+00 -0.45593999997E+02  0.45594000000E+02  0.51100000000E-03 0.  1.
    9900012    2    1    2    0    0  0.13898676336E+01  0.18583976318E+02 -0.36136823183E+02  0.50528857146E+02  0.29999991782E+02 0.  0.
         12    1    1    2    0    0 -0.13898676336E+01 -0.18583976318E+02  0.36136823183E+02  0.40659142854E+02  0.00000000000E+00 0. -1.
         11    1    3    3    0    0 -0.84105624229E+01  0.99256179290E+00 -0.96541902297E+01  0.12842356810E+02  0.51100000000E-03 0. -1.
        -11    1    3    3    0    0 -0.20327587857E+01 -0.78112193353E+00 -0.10210850067E+02  0.10440484620E+02  0.51100000000E-03 0.  1.
         12    1    3    3    0    0  0.11833188842E+02  0.18372536458E+02 -0.16271782887E+02  0.27246015716E+02  0.00000000000E+00 0. -1.
</event>
<event>
 7    1  0.2575978E-011  0.5052888E+02  0.7816164E-02  0.1300439E+00
        -11   -1    0    0    0    0  0.00000000000E+00  0.00000000000E+00  0.45593999997E+02  0.45594000000E+02  0.51100000000E-03 0.  1.
         11   -1    0    0    0    0 -0.00000000000E+00 -0.00000000000E+00 -0.45593999997E+02  0.45594000000E+02  0.51100000000E-03 0. -1.
    9900012    2    1    2    0    0 -0.24245993029E+02  0.24578285471E+01  0.32546200306E+02  0.50528877365E+02  0.30000053237E+02 0.  0.
         12    1    1    2    0    0  0.24245993029E+02 -0.24578285471E+01 -0.32546200306E+02  0.40659122635E+02  0.00000000000E+00 0. -1.
         11    1    3    3    0    0 -0.90976711879E+01  0.83503467604E+01  0.12738707657E+02  0.17741775139E+02  0.51100000000E-03 0. -1.
        -11    1    3    3    0    0 -0.90169969629E+01  0.67759095845E+01  0.12814612217E+02  0.17071422654E+02  0.51100000000E-03 0.  1.
         12    1    3    3    0    0 -0.61313248783E+01 -0.12668427798E+02  0.69928804321E+01  0.15715679571E+02  0.00000000000E+00 0. -1.
</event>
<event>
 7    1  0.2575978E-011  0.5052886E+02  0.7816164E-02  0.1300439E+00
        -11   -1    0    0    0    0  0.00000000000E+00  0.00000000000E+00  0.45593999997E+02  0.45594000000E+02  0.51100000000E-03 0.  1.
         11   -1    0    0    0    0 -0.00000000000E+00 -0.00000000000E+00 -0.45593999997E+02  0.45594000000E+02  0.51100000000E-03 0. -1.
    9900012    2    1    2    0    0 -0.14648889987E+02 -0.37413980467E+02 -0.62265150923E+01  0.50528863236E+02  0.30000010292E+02 0.  0.
         12    1    1    2    0    0  0.14648889987E+02  0.37413980467E+02  0.62265150923E+01  0.40659136764E+02  0.00000000000E+00 0. -1.
         11    1    3    3    0    0 -0.93094846465E+01 -0.53486126320E+01 -0.46236601508E+01  0.11689841527E+02  0.51100000000E-03 0. -1.
        -11    1    3    3    0    0 -0.10845602123E+02 -0.64832018384E+01 -0.71954715317E+00  0.12656094968E+02  0.51100000000E-03 0.  1.
        -12    1    3    3    0    0  0.55061967821E+01 -0.25582165996E+02 -0.88330778833E+00  0.26182926741E+02  0.00000000000E+00 0.  1.
</event>
<event>
 7    1  0.2575978E-011  0.5052886E+02  0.7816164E-02  0.1300439E+00
        -11   -1    0    0    0    0  0.00000000000E+00  0.00000000000E+00  0.45593999997E+02  0.45594000000E+02  0.51100000000E-03 0.  1.
         11   -1    0    0    0    0 -0.00000000000E+00 -0.00000000000E+00 -0.45593999997E+02  0.45594000000E+02  0.51100000000E-03 0. -1.
    9900012    2    1    2    0    0 -0.19253505744E+02 -0.34049759487E+02  0.11094245839E+02  0.50528857175E+02  0.29999991869E+02 0.  0.
         12    1    1    2    0    0  0.19253505744E+02  0.34049759487E+02 -0.11094245839E+02  0.40659142825E+02  0.00000000000E+00 0. -1.
         11    1    3    3    0    0 -0.29162827684E+01  0.38732105972E+00 -0.79954412792E+00  0.30486052323E+01  0.51100000000E-03 0.  1.
        -11    1    3    3    0    0  0.60873924599E+01 -0.19307860958E+01  0.64574483145E+00  0.64188214306E+01  0.51100000000E-03 0. -1.
        -12    1    3    3    0    0 -0.22424615435E+02 -0.32506294451E+02  0.11248045135E+02  0.41061430512E+02  0.00000000000E+00 0.  1.
</event>
<event>
 7    1  0.2575978E-011  0.5052885E+02  0.7816164E-02  0.1300439E+00
        -11   -1    0    0    0    0  0.00000000000E+00  0.00000000000E+00  0.45593999997E+02  0.45594000000E+02  0.51100000000E-03 0.  1.
         11   -1    0    0    0    0 -0.00000000000E+00 -0.00000000000E+00 -0.45593999997E+02  0.45594000000E+02  0.51100000000E-03 0. -1.
    9900012    2    1    2    0    0 -0.25321612372E+02 -0.53466651174E+01  0.31359132563E+02  0.50528854951E+02  0.29999985109E+02 0.  0.
         12    1    1    2    0    0  0.25321612372E+02  0.53466651174E+01 -0.31359132563E+02  0.40659145049E+02  0.00000000000E+00 0. -1.
         11    1    3    3    0    0 -0.57604905597E+01 -0.36760354500E+01 -0.20232012896E+01  0.71266985230E+01  0.51100000000E-03 0. -1.
        -11    1    3    3    0    0 -0.10543950896E+02 -0.88327690328E+01  0.90006892100E+01  0.16437917015E+02  0.51100000000E-03 0.  1.
        -12    1    3    3    0    0 -0.90171709168E+01  0.71621393654E+01  0.24381644643E+02  0.26964239413E+02  0.00000000000E+00 0.  1.
</event>
<event>
 7    1  0.2575978E-011  0.5052887E+02  0.7816164E-02  0.1300439E+00
        -11   -1    0    0    0    0  0.00000000000E+00  0.00000000000E+00  0.45593999997E+02  0.45594000000E+02  0.51100000000E-03 0.  1.
         11   -1    0    0    0    0 -0.00000000000E+00 -0.00000000000E+00 -0.45593999997E+02  0.45594000000E+02  0.51100000000E-03 0. -1.
    9900012    2    1    2    0    0 -0.82264537688E+01 -0.18067445777E+02  0.35483208735E+02  0.50528865225E+02  0.30000016339E+02 0.  0.
         12    1    1    2    0    0  0.82264537688E+01  0.18067445777E+02 -0.35483208735E+02  0.40659134775E+02  0.00000000000E+00 0. -1.
         11    1    3    3    0    0 -0.24578752737E+01  0.50630299016E+01  0.13159427547E+02  0.14312440612E+02  0.51100000000E-03 0. -1.
        -11    1    3    3    0    0 -0.28454386683E+01 -0.10757409081E+02  0.20563993685E+02  0.23381535619E+02  0.51100000000E-03 0.  1.
         12    1    3    3    0    0 -0.29231398268E+01 -0.12373066597E+02  0.17597875031E+01  0.12834888995E+02  0.00000000000E+00 0. -1.
</event>
<event>
 7    1  0.2575978E-011  0.5052879E+02  0.7816164E-02  0.1300439E+00
        -11   -1    0    0    0    0  0.00000000000E+00  0.00000000000E+00  0.45593999997E+02  0.45594000000E+02  0.51100000000E-03 0.  1.
         11   -1    0    0    0    0 -0.00000000000E+00 -0.00000000000E+00 -0.45593999997E+02  0.45594000000E+02  0.51100000000E-03 0. -1.
    9900012    2    1    2    0    0  0.19946834568E+02  0.65460269273E+01  0.34820173310E+02  0.50528792591E+02  0.29999795558E+02 0.  0.
         12    1    1    2    0    0 -0.19946834568E+02 -0.65460269273E+01 -0.34820173310E+02  0.40659207409E+02  0.00000000000E+00 0. -1.
         11    1    3    3    0    0 -0.13612775221E+01  0.19829947268E+01  0.84921621905E+01  0.88262202278E+01  0.51100000000E-03 0. -1.
        -11    1    3    3    0    0 -0.11173483638E+01  0.91579685132E+01  0.54209209310E+01  0.10700618611E+02  0.51100000000E-03 0.  1.
        -12    1    3    3    0    0  0.22425460454E+02 -0.45949363128E+01  0.20907090188E+02  0.31001953752E+02  0.00000000000E+00 0.  1.
</event>
<event>
 7    1  0.2575978E-011  0.5052886E+02  0.7816164E-02  0.1300439E+00
        -11   -1    0    0    0    0  0.00000000000E+00  0.00000000000E+00  0.45593999997E+02  0.45594000000E+02  0.51100000000E-03 0.  1.
         11   -1    0    0    0    0 -0.00000000000E+00 -0.00000000000E+00 -0.45593999997E+02  0.45594000000E+02  0.51100000000E-03 0. -1.
    9900012    2    1    2    0    0 -0.39281989905E+02  0.65481322801E+01  0.81983488034E+01  0.50528859695E+02  0.29999999530E+02 0.  0.
         12    1    1    2    0    0  0.39281989905E+02 -0.65481322801E+01 -0.81983488034E+01  0.40659140305E+02  0.00000000000E+00 0. -1.
         11    1    3    3    0    0  0.81727973617E-01 -0.63985976309E+00 -0.90658656137E+00  0.11126542286E+01  0.51100000000E-03 0. -1.
        -11    1    3    3    0    0 -0.30034418831E+02 -0.53134349569E+01  0.13282901153E+02  0.33267617421E+02  0.51100000000E-03 0.  1.
        -12    1    3    3    0    0 -0.93292990471E+01  0.12501427000E+02 -0.41779657881E+01  0.16148588046E+02  0.00000000000E+00 0.  1.
</event>
<event>
 7    1  0.2575978E-011  0.5052886E+02  0.7816164E-02  0.1300439E+00
        -11   -1    0    0    0    0  0.00000000000E+00  0.00000000000E+00  0.45593999997E+02  0.45594000000E+02  0.51100000000E-03 0. -1.
         11   -1    0    0    0    0 -0.00000000000E+00 -0.00000000000E+00 -0.45593999997E+02  0.45594000000E+02  0.51100000000E-03 0.  1.
    9900012    2    1    2    0    0  0.40289211801E+02  0.45305704230E+01 -0.30690600233E+01  0.50528858527E+02  0.29999995979E+02 0.  0.
         12    1    1    2    0    0 -0.40289211801E+02 -0.45305704230E+01  0.30690600233E+01  0.40659141473E+02  0.00000000000E+00 0. -1.
         11    1    3    3    0    0  0.32581544168E+02  0.97647580651E+01  0.65482777354E+01  0.34637948294E+02  0.51100000000E-03 0. -1.
        -11    1    3    3    0    0  0.25936956065E+01  0.37262141434E+00  0.10303791759E+01  0.28156322780E+01  0.51100000000E-03 0.  1.
        -12    1    3    3    0    0  0.51139720261E+01 -0.56068090565E+01 -0.10647716935E+02  0.13075277955E+02  0.00000000000E+00 0.  1.
</event>
<event>
 7    1  0.2575978E-011  0.5052885E+02  0.7816164E-02  0.1300439E+00
        -11   -1    0    0    0    0  0.00000000000E+00  0.00000000000E+00  0.45593999997E+02  0.45594000000E+02  0.51100000000E-03 0. -1.
         11   -1    0    0    0    0 -0.00000000000E+00 -0.00000000000E+00 -0.45593999997E+02  0.45594000000E+02  0.51100000000E-03 0.  1.
    9900012    2    1    2    0    0 -0.11754412811E+02 -0.37893932730E+02 -0.88910330605E+01  0.50528845715E+02  0.29999957037E+02 0.  0.
         12    1    1    2    0    0  0.11754412811E+02  0.37893932730E+02  0.88910330605E+01  0.40659154285E+02  0.00000000000E+00 0. -1.
         11    1    3    3    0    0 -0.17773317116E+01 -0.20937023791E+02  0.32737150641E+01  0.21265819614E+02  0.51100000000E-03 0. -1.
        -11    1    3    3    0    0 -0.79506259932E+01 -0.13844420241E+02  0.59266930324E+00  0.15975972041E+02  0.51100000000E-03 0.  1.
        -12    1    3    3    0    0 -0.20264551059E+01 -0.31124886974E+01 -0.12757417428E+02  0.13287054061E+02  0.00000000000E+00 0.  1.
</event>
<event>
 7    1  0.2575978E-011  0.5052891E+02  0.7816164E-02  0.1300439E+00
        -11   -1    0    0    0    0  0.00000000000E+00  0.00000000000E+00  0.45593999997E+02  0.45594000000E+02  0.51100000000E-03 0. -1.
         11   -1    0    0    0    0 -0.00000000000E+00 -0.00000000000E+00 -0.45593999997E+02  0.45594000000E+02  0.51100000000E-03 0.  1.
    9900012    2    1    2    0    0  0.10372799369E+02  0.26110751477E+02 -0.29390397519E+02  0.50528907835E+02  0.30000145853E+02 0.  0.
         12    1    1    2    0    0 -0.10372799369E+02 -0.26110751477E+02  0.29390397519E+02  0.40659092165E+02  0.00000000000E+00 0. -1.
         11    1    3    3    0    0 -0.20043125879E+01 -0.22718235552E+01  0.28962234289E+01  0.41912482182E+01  0.51100000000E-03 0. -1.
        -11    1    3    3    0    0  0.16345343949E+01 -0.90984292239E+00 -0.30610997317E+01  0.35874571301E+01  0.51100000000E-03 0.  1.
        -12    1    3    3    0    0  0.10742577562E+02  0.29292417954E+02 -0.29225521216E+02  0.42750202486E+02  0.00000000000E+00 0.  1.
</event>
<event>
 7    1  0.2575978E-011  0.5052886E+02  0.7816164E-02  0.1300439E+00
        -11   -1    0    0    0    0  0.00000000000E+00  0.00000000000E+00  0.45593999997E+02  0.45594000000E+02  0.51100000000E-03 0.  1.
         11   -1    0    0    0    0 -0.00000000000E+00 -0.00000000000E+00 -0.45593999997E+02  0.45594000000E+02  0.51100000000E-03 0. -1.
    9900012    2    1    2    0    0 -0.10108172751E+02  0.33554662529E+02  0.20617358621E+02  0.50528855760E+02  0.29999987569E+02 0.  0.
         12    1    1    2    0    0  0.10108172751E+02 -0.33554662529E+02 -0.20617358621E+02  0.40659144240E+02  0.00000000000E+00 0. -1.
         11    1    3    3    0    0 -0.25959580524E+01  0.22273954394E+02  0.10133337772E+02  0.24607977918E+02  0.51100000000E-03 0. -1.
        -11    1    3    3    0    0 -0.67012243757E+01  0.15546959758E+02  0.28924647978E+01  0.17175002729E+02  0.51100000000E-03 0.  1.
         12    1    3    3    0    0 -0.81099032299E+00 -0.42662516236E+01  0.75915560515E+01  0.87458751136E+01  0.00000000000E+00 0. -1.
</event>
<event>
 7    1  0.2575978E-011  0.5052891E+02  0.7816164E-02  0.1300439E+00
        -11   -1    0    0    0    0  0.00000000000E+00  0.00000000000E+00  0.45593999997E+02  0.45594000000E+02  0.51100000000E-03 0. -1.
         11   -1    0    0    0    0 -0.00000000000E+00 -0.00000000000E+00 -0.45593999997E+02  0.45594000000E+02  0.51100000000E-03 0.  1.
    9900012    2    1    2    0    0 -0.24518278908E+02 -0.27775501035E+02  0.16749240841E+02  0.50528910892E+02  0.30000155146E+02 0.  0.
         12    1    1    2    0    0  0.24518278908E+02  0.27775501035E+02 -0.16749240841E+02  0.40659089108E+02  0.00000000000E+00 0. -1.
         11    1    3    3    0    0 -0.15148794553E+00  0.22859154878E+01  0.48448987197E+01  0.53592352141E+01  0.51100000000E-03 0. -1.
        -11    1    3    3    0    0 -0.12137565039E+02 -0.12891317388E+01  0.47545352743E+01  0.13099158433E+02  0.51100000000E-03 0.  1.
        -12    1    3    3    0    0 -0.12229225923E+02 -0.28772284785E+02  0.71498068471E+01  0.32070517245E+02  0.00000000000E+00 0.  1.
</event>
<event>
 7    1  0.2575978E-011  0.5052886E+02  0.7816164E-02  0.1300439E+00
        -11   -1    0    0    0    0  0.00000000000E+00  0.00000000000E+00  0.45593999997E+02  0.45594000000E+02  0.51100000000E-03 0.  1.
         11   -1    0    0    0    0 -0.00000000000E+00 -0.00000000000E+00 -0.45593999997E+02  0.45594000000E+02  0.51100000000E-03 0. -1.
    9900012    2    1    2    0    0  0.22078190376E+02  0.86395325785E+01  0.33031462812E+02  0.50528861433E+02  0.30000004813E+02 0.  0.
         12    1    1    2    0    0 -0.22078190376E+02 -0.86395325785E+01 -0.33031462812E+02  0.40659138567E+02  0.00000000000E+00 0. -1.
         11    1    3    3    0    0 -0.18520662823E+01  0.32471246139E+01 -0.57390842350E+00  0.37819755304E+01  0.51100000000E-03 0. -1.
        -11    1    3    3    0    0  0.34463380788E+01  0.88460071493E+00  0.22944828460E+02  0.23219063674E+02  0.51100000000E-03 0.  1.
         12    1    3    3    0    0  0.20483918579E+02  0.45078072496E+01  0.10660542776E+02  0.23527822229E+02  0.00000000000E+00 0. -1.
</event>
<event>
 7    1  0.2575978E-011  0.5052885E+02  0.7816164E-02  0.1300439E+00
        -11   -1    0    0    0    0  0.00000000000E+00  0.00000000000E+00  0.45593999997E+02  0.45594000000E+02  0.51100000000E-03 0.  1.
         11   -1    0    0    0    0 -0.00000000000E+00 -0.00000000000E+00 -0.45593999997E+02  0.45594000000E+02  0.51100000000E-03 0. -1.
    9900012    2    1    2    0    0 -0.17748250660E+02 -0.17169414012E+02  0.32301346563E+02  0.50528853812E+02  0.29999981646E+02 0.  0.
         12    1    1    2    0    0  0.17748250660E+02  0.17169414012E+02 -0.32301346563E+02  0.40659146188E+02  0.00000000000E+00 0. -1.
         11    1    3    3    0    0  0.17586050209E+01 -0.46025194283E+00  0.14892409844E+00  0.18239249214E+01  0.51100000000E-03 0. -1.
        -11    1    3    3    0    0  0.51843153060E+01 -0.95590548218E+01  0.98901442889E+01  0.14699238368E+02  0.51100000000E-03 0.  1.
        -12    1    3    3    0    0 -0.24691170987E+02 -0.71501072470E+01  0.22262278175E+02  0.34005690522E+02  0.00000000000E+00 0.  1.
</event>
<event>
 7    1  0.2575978E-011  0.5052886E+02  0.7816164E-02  0.1300439E+00
        -11   -1    0    0    0    0  0.00000000000E+00  0.00000000000E+00  0.45593999997E+02  0.45594000000E+02  0.51100000000E-03 0.  1.
         11   -1    0    0    0    0 -0.00000000000E+00 -0.00000000000E+00 -0.45593999997E+02  0.45594000000E+02  0.51100000000E-03 0. -1.
    9900012    2    1    2    0    0 -0.99691772097E+01  0.38096471692E+02 -0.10121255871E+02  0.50528862404E+02  0.30000007763E+02 0.  0.
         12    1    1    2    0    0  0.99691772097E+01 -0.38096471692E+02  0.10121255871E+02  0.40659137596E+02  0.00000000000E+00 0. -1.
         11    1    3    3    0    0  0.42882688220E+01  0.34068406092E+01 -0.77285306185E+00  0.55311042788E+01  0.51100000000E-03 0. -1.
        -11    1    3    3    0    0  0.58020347486E+01  0.59819912902E+01 -0.49713247139E+01  0.97037053073E+01  0.51100000000E-03 0.  1.
        -12    1    3    3    0    0 -0.20059480780E+02  0.28707639793E+02 -0.43770780958E+01  0.35294052818E+02  0.00000000000E+00 0.  1.
</event>
<event>
 7    1  0.2575978E-011  0.5052887E+02  0.7816164E-02  0.1300439E+00
        -11   -1    0    0    0    0  0.00000000000E+00  0.00000000000E+00  0.45593999997E+02  0.45594000000E+02  0.51100000000E-03 0.  1.
         11   -1    0    0    0    0 -0.00000000000E+00 -0.00000000000E+00 -0.45593999997E+02  0.45594000000E+02  0.51100000000E-03 0. -1.
    9900012    2    1    2    0    0  0.16419210964E+01 -0.34223056506E+02  0.21891815105E+02  0.50528867323E+02  0.30000022714E+02 0.  0.
         12    1    1    2    0    0 -0.16419210964E+01  0.34223056506E+02 -0.21891815105E+02  0.40659132677E+02  0.00000000000E+00 0. -1.
         11    1    3    3    0    0  0.82754488011E+00  0.10863340236E+01 -0.38306620813E+01  0.40668076401E+01  0.51100000000E-03 0. -1.
        -11    1    3    3    0    0 -0.44076297062E+01 -0.19665797999E+02  0.65926900316E+01  0.21204583766E+02  0.51100000000E-03 0.  1.
        -12    1    3    3    0    0  0.52220059225E+01 -0.15643592531E+02  0.19129787155E+02  0.25257475917E+02  0.00000000000E+00 0.  1.
</event>
<event>
 7    1  0.2575978E-011  0.5052887E+02  0.7816164E-02  0.1300439E+00
        -11   -1    0    0    0    0  0.00000000000E+00  0.00000000000E+00  0.45593999997E+02  0.45594000000E+02  0.51100000000E-03 0.  1.
         11   -1    0    0    0    0 -0.00000000000E+00 -0.00000000000E+00 -0.45593999997E+02  0.45594000000E+02  0.51100000000E-03 0. -1.
    9900012    2    1    2    0    0  0.23958774649E+02  0.22685116579E+02  0.23759783253E+02  0.50528871909E+02  0.30000036655E+02 0.  0.
         12    1    1    2    0    0 -0.23958774649E+02 -0.22685116579E+02 -0.23759783253E+02  0.40659128091E+02  0.00000000000E+00 0. -1.
         11    1    3    3    0    0 -0.78648698866E+00  0.81922005015E+01 -0.23954123416E+01  0.85713891166E+01  0.51100000000E-03 0. -1.
        -11    1    3    3    0    0  0.15220219422E+02  0.13988607423E+02  0.94693312819E+01  0.22737731902E+02  0.51100000000E-03 0.  1.
         12    1    3    3    0    0  0.95250422158E+01  0.50430865499E+00  0.16685864313E+02  0.19219750891E+02  0.00000000000E+00 0. -1.
</event>
<event>
 7    1  0.2575978E-011  0.5052883E+02  0.7816164E-02  0.1300439E+00
        -11   -1    0    0    0    0  0.00000000000E+00  0.00000000000E+00  0.45593999997E+02  0.45594000000E+02  0.51100000000E-03 0. -1.
         11   -1    0    0    0    0 -0.00000000000E+00 -0.00000000000E+00 -0.45593999997E+02  0.45594000000E+02  0.51100000000E-03 0.  1.
    9900012    2    1    2    0    0 -0.25567589240E+01  0.51188425806E+01 -0.40254543540E+02  0.50528833246E+02  0.29999919133E+02 0.  0.
         12    1    1    2    0    0  0.25567589240E+01 -0.51188425806E+01  0.40254543540E+02  0.40659166754E+02  0.00000000000E+00 0. -1.
         11    1    3    3    0    0 -0.36850200895E-01  0.81017390625E+01 -0.14658404170E+02  0.16748383410E+02  0.51100000000E-03 0.  1.
        -11    1    3    3    0    0 -0.60943654156E+01 -0.10309095550E+02 -0.80405398960E+01  0.14424597844E+02  0.51100000000E-03 0. -1.
         12    1    3    3    0    0  0.35744566925E+01  0.73261990683E+01 -0.17555599474E+02  0.19355851992E+02  0.00000000000E+00 0. -1.
</event>
<event>
 7    1  0.2575978E-011  0.5052887E+02  0.7816164E-02  0.1300439E+00
        -11   -1    0    0    0    0  0.00000000000E+00  0.00000000000E+00  0.45593999997E+02  0.45594000000E+02  0.51100000000E-03 0.  1.
         11   -1    0    0    0    0 -0.00000000000E+00 -0.00000000000E+00 -0.45593999997E+02  0.45594000000E+02  0.51100000000E-03 0. -1.
    9900012    2    1    2    0    0 -0.37688144350E+02  0.38749383805E+00  0.15251840153E+02  0.50528868134E+02  0.30000025182E+02 0.  0.
         12    1    1    2    0    0  0.37688144350E+02 -0.38749383805E+00 -0.15251840153E+02  0.40659131866E+02  0.00000000000E+00 0. -1.
         11    1    3    3    0    0 -0.33900655217E+01  0.46971796282E+01  0.87581869050E+00  0.58585919247E+01  0.51100000000E-03 0. -1.
        -11    1    3    3    0    0 -0.43247775297E+01  0.43004605334E+00  0.13639944937E+02  0.14315611703E+02  0.51100000000E-03 0.  1.
        -12    1    3    3    0    0 -0.29973301298E+02 -0.47397318435E+01  0.73607652583E+00  0.30354664507E+02  0.00000000000E+00 0.  1.
</event>
<event>
 7    1  0.2575978E-011  0.5052886E+02  0.7816164E-02  0.1300439E+00
        -11   -1    0    0    0    0  0.00000000000E+00  0.00000000000E+00  0.45593999997E+02  0.45594000000E+02  0.51100000000E-03 0.  1.
         11   -1    0    0    0    0 -0.00000000000E+00 -0.00000000000E+00 -0.45593999997E+02  0.45594000000E+02  0.51100000000E-03 0. -1.
    9900012    2    1    2    0    0  0.26650138622E+02 -0.22035621102E+02  0.21386149764E+02  0.50528857269E+02  0.29999992154E+02 0.  0.
         12    1    1    2    0    0 -0.26650138622E+02  0.22035621102E+02 -0.21386149764E+02  0.40659142731E+02  0.00000000000E+00 0. -1.
         11    1    3    3    0    0  0.17431927542E+02 -0.53747177971E+01 -0.69389101653E+00  0.18254894528E+02  0.51100000000E-03 0. -1.
        -11    1    3    3    0    0  0.81684258461E+01 -0.53849371270E+01  0.32658547488E+01  0.10314384915E+02  0.51100000000E-03 0.  1.
         12    1    3    3    0    0  0.10497852342E+01 -0.11275966178E+02  0.18814186031E+02  0.21959577826E+02  0.00000000000E+00 0. -1.
</event>
<event>
 7    1  0.2575978E-011  0.5052885E+02  0.7816164E-02  0.1300439E+00
        -11   -1    0    0    0    0  0.00000000000E+00  0.00000000000E+00  0.45593999997E+02  0.45594000000E+02  0.51100000000E-03 0. -1.
         11   -1    0    0    0    0 -0.00000000000E+00 -0.00000000000E+00 -0.45593999997E+02  0.45594000000E+02  0.51100000000E-03 0.  1.
    9900012    2    1    2    0    0  0.96292874883E+01  0.20126211335E+02 -0.33990859790E+02  0.50528854541E+02  0.29999983862E+02 0.  0.
         12    1    1    2    0    0 -0.96292874883E+01 -0.20126211335E+02  0.33990859790E+02  0.40659145459E+02  0.00000000000E+00 0. -1.
         11    1    3    3    0    0  0.30137677986E+00 -0.24318345073E+01  0.28467240541E+00  0.24669182544E+01  0.51100000000E-03 0. -1.
        -11    1    3    3    0    0  0.16382345599E+02  0.98895847803E+01 -0.18124206523E+02  0.26356630984E+02  0.51100000000E-03 0.  1.
         12    1    3    3    0    0 -0.70544348906E+01  0.12668461063E+02 -0.16151325672E+02  0.21705305303E+02  0.00000000000E+00 0. -1.
</event>
<event>
 7    1  0.2575978E-011  0.5052886E+02  0.7816164E-02  0.1300439E+00
        -11   -1    0    0    0    0  0.00000000000E+00  0.00000000000E+00  0.45593999997E+02  0.45594000000E+02  0.51100000000E-03 0.  1.
         11   -1    0    0    0    0 -0.00000000000E+00 -0.00000000000E+00 -0.45593999997E+02  0.45594000000E+02  0.51100000000E-03 0. -1.
    9900012    2    1    2    0    0 -0.27606992996E+02 -0.29678626474E+02 -0.31935539526E+01  0.50528859348E+02  0.29999998474E+02 0.  0.
         12    1    1    2    0    0  0.27606992996E+02  0.29678626474E+02  0.31935539526E+01  0.40659140652E+02  0.00000000000E+00 0. -1.
         11    1    3    3    0    0 -0.24709901816E+01 -0.34387042583E+01  0.97455291946E+01  0.10625714988E+02  0.51100000000E-03 0. -1.
        -11    1    3    3    0    0 -0.13532938862E+02 -0.69617718963E+01 -0.59737334559E+01  0.16349073180E+02  0.51100000000E-03 0.  1.
        -12    1    3    3    0    0 -0.11603063952E+02 -0.19278150320E+02 -0.69653496912E+01  0.23554071180E+02  0.00000000000E+00 0.  1.
</event>
<event>
 7    1  0.2575978E-011  0.5052886E+02  0.7816164E-02  0.1300439E+00
        -11   -1    0    0    0    0  0.00000000000E+00  0.00000000000E+00  0.45593999997E+02  0.45594000000E+02  0.51100000000E-03 0. -1.
         11   -1    0    0    0    0 -0.00000000000E+00 -0.00000000000E+00 -0.45593999997E+02  0.45594000000E+02  0.51100000000E-03 0.  1.
    9900012    2    1    2    0    0 -0.16286134315E+01  0.11600861655E+02 -0.38934985677E+02  0.50528862250E+02  0.30000007296E+02 0.  0.
         12    1    1    2    0    0  0.16286134315E+01 -0.11600861655E+02  0.38934985677E+02  0.40659137750E+02  0.00000000000E+00 0. -1.
         11    1    3    3    0    0 -0.48212385359E+00 -0.21991415364E+01  0.11141488966E+00  0.22541252064E+01  0.51100000000E-03 0. -1.
        -11    1    3    3    0    0  0.61844399146E+01 -0.44734202721E+01 -0.17472833693E+02  0.19067215411E+02  0.51100000000E-03 0.  1.
        -12    1    3    3    0    0 -0.73309294926E+01  0.18273423464E+02 -0.21573566874E+02  0.29207521633E+02  0.00000000000E+00 0.  1.
</event>
<event>
 7    1  0.2575978E-011  0.5052886E+02  0.7816164E-02  0.1300439E+00
        -11   -1    0    0    0    0  0.00000000000E+00  0.00000000000E+00  0.45593999997E+02  0.45594000000E+02  0.51100000000E-03 0.  1.
         11   -1    0    0    0    0 -0.00000000000E+00 -0.00000000000E+00 -0.45593999997E+02  0.45594000000E+02  0.51100000000E-03 0. -1.
    9900012    2    1    2    0    0 -0.26643071047E+02  0.30213132972E+02  0.55207670793E+01  0.50528861938E+02  0.30000006346E+02 0.  0.
         12    1    1    2    0    0  0.26643071047E+02 -0.30213132972E+02 -0.55207670793E+01  0.40659138062E+02  0.00000000000E+00 0. -1.
         11    1    3    3    0    0 -0.28312638727E+01  0.63623885815E+01 -0.15643037009E+01  0.71374428130E+01  0.51100000000E-03 0. -1.
        -11    1    3    3    0    0 -0.11025158297E+02  0.25728448122E+02  0.10707955999E+02  0.29969442440E+02  0.51100000000E-03 0.  1.
        -12    1    3    3    0    0 -0.12786648878E+02 -0.18777037313E+01 -0.36228852187E+01  0.13421976685E+02  0.00000000000E+00 0.  1.
</event>
<event>
 7    1  0.2575978E-011  0.5052886E+02  0.7816164E-02  0.1300439E+00
        -11   -1    0    0    0    0  0.00000000000E+00  0.00000000000E+00  0.45593999997E+02  0.45594000000E+02  0.51100000000E-03 0. -1.
         11   -1    0    0    0    0 -0.00000000000E+00 -0.00000000000E+00 -0.45593999997E+02  0.45594000000E+02  0.51100000000E-03 0.  1.
    9900012    2    1    2    0    0 -0.17204076576E+02  0.12821463302E+02 -0.34536865870E+02  0.50528864788E+02  0.30000015010E+02 0.  0.
         12    1    1    2    0    0  0.17204076576E+02 -0.12821463302E+02  0.34536865870E+02  0.40659135212E+02  0.00000000000E+00 0. -1.
         11    1    3    3    0    0 -0.67413046307E+01  0.27118810469E+01 -0.66106869879E+01  0.98234754364E+01  0.51100000000E-03 0. -1.
        -11    1    3    3    0    0 -0.14032324871E+02  0.14123494441E+02 -0.29049936908E+02  0.35217581846E+02  0.51100000000E-03 0.  1.
         12    1    3    3    0    0  0.35695529251E+01 -0.40139121851E+01  0.11237580261E+01  0.54878075054E+01  0.00000000000E+00 0. -1.
</event>
<event>
 7    1  0.2575978E-011  0.5052885E+02  0.7816164E-02  0.1300439E+00
        -11   -1    0    0    0    0  0.00000000000E+00  0.00000000000E+00  0.45593999997E+02  0.45594000000E+02  0.51100000000E-03 0.  1.
         11   -1    0    0    0    0 -0.00000000000E+00 -0.00000000000E+00 -0.45593999997E+02  0.45594000000E+02  0.51100000000E-03 0. -1.
    9900012    2    1    2    0    0 -0.38303434017E+02 -0.12758678297E+02 -0.48196630084E+01  0.50528854892E+02  0.29999984929E+02 0.  0.
         12    1    1    2    0    0  0.38303434017E+02  0.12758678297E+02  0.48196630084E+01  0.40659145108E+02  0.00000000000E+00 0. -1.
         11    1    3    3    0    0 -0.12520351893E+02 -0.11498151413E+02  0.95753691755E+01  0.19510366284E+02  0.51100000000E-03 0. -1.
        -11    1    3    3    0    0 -0.31212531901E+01  0.85823451210E+00  0.11728508807E+01  0.34430171948E+01  0.51100000000E-03 0.  1.
        -12    1    3    3    0    0 -0.22661828935E+02 -0.21187613960E+01 -0.15567883065E+02  0.27575471413E+02  0.00000000000E+00 0.  1.
</event>
<event>
 7    1  0.2575978E-011  0.5052886E+02  0.7816164E-02  0.1300439E+00
        -11   -1    0    0    0    0  0.00000000000E+00  0.00000000000E+00  0.45593999997E+02  0.45594000000E+02  0.51100000000E-03 0. -1.
         11   -1    0    0    0    0 -0.00000000000E+00 -0.00000000000E+00 -0.45593999997E+02  0.45594000000E+02  0.51100000000E-03 0.  1.
    9900012    2    1    2    0    0  0.13498790319E+02 -0.18567567448E+02 -0.33558810841E+02  0.50528859748E+02  0.29999999690E+02 0.  0.
         12    1    1    2    0    0 -0.13498790319E+02  0.18567567448E+02  0.33558810841E+02  0.40659140252E+02  0.00000000000E+00 0. -1.
         11    1    3    3    0    0 -0.92502833224E+00 -0.42648525130E+01 -0.10288668593E+02  0.11175927078E+02  0.51100000000E-03 0. -1.
        -11    1    3    3    0    0 -0.30460316967E+01  0.36941236799E+01 -0.97436026029E+01  0.10856456641E+02  0.51100000000E-03 0.  1.
        -12    1    3    3    0    0  0.17469850348E+02 -0.17996838615E+02 -0.13526539645E+02  0.28496476029E+02  0.00000000000E+00 0.  1.
</event>
<event>
 7    1  0.2575978E-011  0.5052888E+02  0.7816164E-02  0.1300439E+00
        -11   -1    0    0    0    0  0.00000000000E+00  0.00000000000E+00  0.45593999997E+02  0.45594000000E+02  0.51100000000E-03 0.  1.
         11   -1    0    0    0    0 -0.00000000000E+00 -0.00000000000E+00 -0.45593999997E+02  0.45594000000E+02  0.51100000000E-03 0. -1.
    9900012    2    1    2    0    0 -0.41680742834E+00  0.39204807680E+02  0.10769085796E+02  0.50528881926E+02  0.30000067103E+02 0.  0.
         12    1    1    2    0    0  0.41680742834E+00 -0.39204807680E+02 -0.10769085796E+02  0.40659118074E+02  0.00000000000E+00 0. -1.
         11    1    3    3    0    0 -0.45904998601E+01  0.80144237163E+00 -0.13948555552E+01  0.48642184492E+01  0.51100000000E-03 0. -1.
        -11    1    3    3    0    0  0.60865512570E+01  0.12196164256E+02 -0.47272590810E+01  0.14427040841E+02  0.51100000000E-03 0.  1.
        -12    1    3    3    0    0 -0.19128588252E+01  0.26207201052E+02  0.16891200433E+02  0.31237622636E+02  0.00000000000E+00 0.  1.
</event>
<event>
 7    1  0.2575978E-011  0.5052886E+02  0.7816164E-02  0.1300439E+00
        -11   -1    0    0    0    0  0.00000000000E+00  0.00000000000E+00  0.45593999997E+02  0.45594000000E+02  0.51100000000E-03 0.  1.
         11   -1    0    0    0    0 -0.00000000000E+00 -0.00000000000E+00 -0.45593999997E+02  0.45594000000E+02  0.51100000000E-03 0. -1.
    9900012    2    1    2    0    0 -0.10339138119E+02  0.82534857338E+01  0.38446692364E+02  0.50528856409E+02  0.29999989540E+02 0.  0.
         12    1    1    2    0    0  0.10339138119E+02 -0.82534857338E+01 -0.38446692364E+02  0.40659143591E+02  0.00000000000E+00 0. -1.
         11    1    3    3    0    0 -0.12014668636E+02  0.37900908450E+01  0.11729531305E+02  0.17213336573E+02  0.51100000000E-03 0. -1.
        -11    1    3    3    0    0 -0.81326528445E+01 -0.11826338512E+00  0.66155507942E+01  0.10484252052E+02  0.51100000000E-03 0.  1.
        -12    1    3    3    0    0  0.98081833620E+01  0.45816582739E+01  0.20101610265E+02  0.22831267784E+02  0.00000000000E+00 0.  1.
</event>
<event>
 7    1  0.2575978E-011  0.5052883E+02  0.7816164E-02  0.1300439E+00
        -11   -1    0    0    0    0  0.00000000000E+00  0.00000000000E+00  0.45593999997E+02  0.45594000000E+02  0.51100000000E-03 0.  1.
         11   -1    0    0    0    0 -0.00000000000E+00 -0.00000000000E+00 -0.45593999997E+02  0.45594000000E+02  0.51100000000E-03 0. -1.
    9900012    2    1    2    0    0  0.13784870448E+02  0.26495085315E+02  0.27589060384E+02  0.50528825734E+02  0.29999896300E+02 0.  0.
         12    1    1    2    0    0 -0.13784870448E+02 -0.26495085315E+02 -0.27589060384E+02  0.40659174266E+02  0.00000000000E+00 0. -1.
         11    1    3    3    0    0 -0.40770444423E+01  0.28111727714E+01  0.86734753448E+01  0.99877003636E+01  0.51100000000E-03 0. -1.
        -11    1    3    3    0    0 -0.13362085876E+01 -0.23767639476E+01 -0.53416418814E+00  0.27784513480E+01  0.51100000000E-03 0.  1.
        -12    1    3    3    0    0  0.19198123478E+02  0.26060676491E+02  0.19449749228E+02  0.37762674022E+02  0.00000000000E+00 0.  1.
</event>
<event>
 7    1  0.2575978E-011  0.5052886E+02  0.7816164E-02  0.1300439E+00
        -11   -1    0    0    0    0  0.00000000000E+00  0.00000000000E+00  0.45593999997E+02  0.45594000000E+02  0.51100000000E-03 0.  1.
         11   -1    0    0    0    0 -0.00000000000E+00 -0.00000000000E+00 -0.45593999997E+02  0.45594000000E+02  0.51100000000E-03 0. -1.
    9900012    2    1    2    0    0 -0.28447302457E+02  0.11719754324E+02  0.26581272861E+02  0.50528859263E+02  0.29999998217E+02 0.  0.
         12    1    1    2    0    0  0.28447302457E+02 -0.11719754324E+02 -0.26581272861E+02  0.40659140737E+02  0.00000000000E+00 0. -1.
         11    1    3    3    0    0  0.35242763113E+01  0.15832766296E+01  0.30173187668E+01  0.49021935096E+01  0.51100000000E-03 0. -1.
        -11    1    3    3    0    0  0.69531973377E+00  0.22365661092E+01  0.84635040128E+01  0.87816056578E+01  0.51100000000E-03 0.  1.
        -12    1    3    3    0    0 -0.32666898502E+02  0.78999115854E+01  0.15100450081E+02  0.36845060096E+02  0.00000000000E+00 0.  1.
</event>
<event>
 7    1  0.2575978E-011  0.5052886E+02  0.7816164E-02  0.1300439E+00
        -11   -1    0    0    0    0  0.00000000000E+00  0.00000000000E+00  0.45593999997E+02  0.45594000000E+02  0.51100000000E-03 0. -1.
         11   -1    0    0    0    0 -0.00000000000E+00 -0.00000000000E+00 -0.45593999997E+02  0.45594000000E+02  0.51100000000E-03 0.  1.
    9900012    2    1    2    0    0 -0.30971753014E+02  0.24898677900E+02 -0.86006824511E+01  0.50528863455E+02  0.30000010959E+02 0.  0.
         12    1    1    2    0    0  0.30971753014E+02 -0.24898677900E+02  0.86006824511E+01  0.40659136545E+02  0.00000000000E+00 0. -1.
         11    1    3    3    0    0 -0.16907121729E+02  0.90669436366E+01  0.47331402019E+01  0.19760132806E+02  0.51100000000E-03 0.  1.
        -11    1    3    3    0    0  0.84679466477E+00 -0.28217147817E+01  0.75540159258E+00  0.30413430160E+01  0.51100000000E-03 0. -1.
        -12    1    3    3    0    0 -0.14911425949E+02  0.18653449046E+02 -0.14089224246E+02  0.27727387633E+02  0.00000000000E+00 0.  1.
</event>
<event>
 7    1  0.2575978E-011  0.5052885E+02  0.7816164E-02  0.1300439E+00
        -11   -1    0    0    0    0  0.00000000000E+00  0.00000000000E+00  0.45593999997E+02  0.45594000000E+02  0.51100000000E-03 0.  1.
         11   -1    0    0    0    0 -0.00000000000E+00 -0.00000000000E+00 -0.45593999997E+02  0.45594000000E+02  0.51100000000E-03 0. -1.
    9900012    2    1    2    0    0 -0.38592258637E+02  0.35804613346E+01  0.12287574948E+02  0.50528848162E+02  0.29999964474E+02 0.  0.
         12    1    1    2    0    0  0.38592258637E+02 -0.35804613346E+01 -0.12287574948E+02  0.40659151838E+02  0.00000000000E+00 0. -1.
         11    1    3    3    0    0 -0.18727369035E+02  0.70376468743E+01 -0.27461782453E+01  0.20193670288E+02  0.51100000000E-03 0. -1.
        -11    1    3    3    0    0 -0.51194511581E+01  0.58865616114E+01  0.85919441676E+00  0.78484777550E+01  0.51100000000E-03 0.  1.
        -12    1    3    3    0    0 -0.14745438443E+02 -0.93437471511E+01  0.14174558777E+02  0.22486700119E+02  0.00000000000E+00 0.  1.
</event>
<event>
 7    1  0.2575978E-011  0.5052876E+02  0.7816164E-02  0.1300439E+00
        -11   -1    0    0    0    0  0.00000000000E+00  0.00000000000E+00  0.45593999997E+02  0.45594000000E+02  0.51100000000E-03 0.  1.
         11   -1    0    0    0    0 -0.00000000000E+00 -0.00000000000E+00 -0.45593999997E+02  0.45594000000E+02  0.51100000000E-03 0. -1.
    9900012    2    1    2    0    0  0.56942928220E+01 -0.38975567453E+02  0.10082367221E+02  0.50528758027E+02  0.29999690497E+02 0.  0.
         12    1    1    2    0    0 -0.56942928220E+01  0.38975567453E+02 -0.10082367221E+02  0.40659241973E+02  0.00000000000E+00 0. -1.
         11    1    3    3    0    0 -0.11536576392E+01  0.38901721324E+00 -0.15503771335E+01  0.19712762003E+01  0.51100000000E-03 0. -1.
        -11    1    3    3    0    0 -0.38612455804E+01  0.16976915599E+00  0.61070037968E+01  0.72272771245E+01  0.51100000000E-03 0.  1.
        -12    1    3    3    0    0  0.10709196042E+02 -0.39534353823E+02  0.55257405573E+01  0.41330204702E+02  0.00000000000E+00 0.  1.
</event>
<event>
 7    1  0.2575978E-011  0.5052889E+02  0.7816164E-02  0.1300439E+00
        -11   -1    0    0    0    0  0.00000000000E+00  0.00000000000E+00  0.45593999997E+02  0.45594000000E+02  0.51100000000E-03 0.  1.
         11   -1    0    0    0    0 -0.00000000000E+00 -0.00000000000E+00 -0.45593999997E+02  0.45594000000E+02  0.51100000000E-03 0. -1.
    9900012    2    1    2    0    0 -0.27778777153E+02  0.27845930220E+02  0.10300831915E+02  0.50528887515E+02  0.30000084091E+02 0.  0.
         12    1    1    2    0    0  0.27778777153E+02 -0.27845930220E+02 -0.10300831915E+02  0.40659112485E+02  0.00000000000E+00 0. -1.
         11    1    3    3    0    0 -0.29165188805E+02  0.19393544622E+02  0.45947902604E+01  0.35324636004E+02  0.51100000000E-03 0. -1.
        -11    1    3    3    0    0 -0.17242097057E+01  0.84304306700E+01  0.76686267185E+01  0.11526183080E+02  0.51100000000E-03 0.  1.
        -12    1    3    3    0    0  0.31106213578E+01  0.21954927871E-01 -0.19625850638E+01  0.36780684310E+01  0.00000000000E+00 0.  1.
</event>
<event>
 7    1  0.2575978E-011  0.5052884E+02  0.7816164E-02  0.1300439E+00
        -11   -1    0    0    0    0  0.00000000000E+00  0.00000000000E+00  0.45593999997E+02  0.45594000000E+02  0.51100000000E-03 0. -1.
         11   -1    0    0    0    0 -0.00000000000E+00 -0.00000000000E+00 -0.45593999997E+02  0.45594000000E+02  0.51100000000E-03 0.  1.
    9900012    2    1    2    0    0  0.20388967871E+02 -0.28487657835E+02  0.20637592892E+02  0.50528844818E+02  0.29999954310E+02 0.  0.
         12    1    1    2    0    0 -0.20388967871E+02  0.28487657835E+02 -0.20637592892E+02  0.40659155182E+02  0.00000000000E+00 0. -1.
         11    1    3    3    0    0  0.34558074394E+01 -0.88952702286E+01  0.94986577668E+01  0.13464506568E+02  0.51100000000E-03 0. -1.
        -11    1    3    3    0    0  0.66107904227E+01 -0.23362673998E+02  0.88246328515E+01  0.25833916304E+02  0.51100000000E-03 0.  1.
         12    1    3    3    0    0  0.10322370009E+02  0.37702863924E+01  0.23143022732E+01  0.11230421946E+02  0.00000000000E+00 0. -1.
</event>
<event>
 7    1  0.2575978E-011  0.5052886E+02  0.7816164E-02  0.1300439E+00
        -11   -1    0    0    0    0  0.00000000000E+00  0.00000000000E+00  0.45593999997E+02  0.45594000000E+02  0.51100000000E-03 0. -1.
         11   -1    0    0    0    0 -0.00000000000E+00 -0.00000000000E+00 -0.45593999997E+02  0.45594000000E+02  0.51100000000E-03 0.  1.
    9900012    2    1    2    0    0  0.28710870581E+02 -0.14921621329E+02 -0.24621057885E+02  0.50528863708E+02  0.30000011728E+02 0.  0.
         12    1    1    2    0    0 -0.28710870581E+02  0.14921621329E+02  0.24621057885E+02  0.40659136292E+02  0.00000000000E+00 0. -1.
         11    1    3    3    0    0  0.18010956117E+02  0.30996405297E+01 -0.18536821387E+01  0.18369497799E+02  0.51100000000E-03 0. -1.
        -11    1    3    3    0    0  0.26124460002E+01 -0.27894742733E+01 -0.29617964155E+00  0.38332445091E+01  0.51100000000E-03 0.  1.
        -12    1    3    3    0    0  0.80874684638E+01 -0.15231787585E+02 -0.22471196105E+02  0.28326121400E+02  0.00000000000E+00 0.  1.
</event>
<event>
 7    1  0.2575978E-011  0.5052886E+02  0.7816164E-02  0.1300439E+00
        -11   -1    0    0    0    0  0.00000000000E+00  0.00000000000E+00  0.45593999997E+02  0.45594000000E+02  0.51100000000E-03 0. -1.
         11   -1    0    0    0    0 -0.00000000000E+00 -0.00000000000E+00 -0.45593999997E+02  0.45594000000E+02  0.51100000000E-03 0.  1.
    9900012    2    1    2    0    0  0.19514862129E+02 -0.39920364985E+01 -0.35445720399E+02  0.50528864570E+02  0.30000014347E+02 0.  0.
         12    1    1    2    0    0 -0.19514862129E+02  0.39920364985E+01  0.35445720399E+02  0.40659135430E+02  0.00000000000E+00 0. -1.
         11    1    3    3    0    0  0.11177792612E+02 -0.21437216449E+01  0.11058298726E+00  0.11382039318E+02  0.51100000000E-03 0. -1.
        -11    1    3    3    0    0  0.37066203552E+01  0.43074186363E+01 -0.47938513097E+01  0.74346419152E+01  0.51100000000E-03 0.  1.
         12    1    3    3    0    0  0.46304491614E+01 -0.61557334899E+01 -0.30762452076E+02  0.31712183337E+02  0.00000000000E+00 0. -1.
</event>
<event>
 7    1  0.2575978E-011  0.5052889E+02  0.7816164E-02  0.1300439E+00
        -11   -1    0    0    0    0  0.00000000000E+00  0.00000000000E+00  0.45593999997E+02  0.45594000000E+02  0.51100000000E-03 0.  1.
         11   -1    0    0    0    0 -0.00000000000E+00 -0.00000000000E+00 -0.45593999997E+02  0.45594000000E+02  0.51100000000E-03 0. -1.
    9900012    2    1    2    0    0  0.48497817775E-01  0.40554176347E+02  0.29188427766E+01  0.50528890143E+02  0.30000092078E+02 0.  0.
         12    1    1    2    0    0 -0.48497817775E-01 -0.40554176347E+02 -0.29188427766E+01  0.40659109857E+02  0.00000000000E+00 0. -1.
         11    1    3    3    0    0  0.70103243420E+01  0.19137113557E+02  0.21474355909E+01  0.20493541484E+02  0.51100000000E-03 0. -1.
        -11    1    3    3    0    0 -0.81708411618E+01  0.23899246368E+02 -0.29200002178E+01  0.25425637136E+02  0.51100000000E-03 0.  1.
         12    1    3    3    0    0  0.12090146376E+01 -0.24821835777E+01  0.36914074035E+01  0.46097115231E+01  0.00000000000E+00 0. -1.
</event>
<event>
 7    1  0.2575978E-011  0.5052888E+02  0.7816164E-02  0.1300439E+00
        -11   -1    0    0    0    0  0.00000000000E+00  0.00000000000E+00  0.45593999997E+02  0.45594000000E+02  0.51100000000E-03 0.  1.
         11   -1    0    0    0    0 -0.00000000000E+00 -0.00000000000E+00 -0.45593999997E+02  0.45594000000E+02  0.51100000000E-03 0. -1.
    9900012    2    1    2    0    0 -0.18927104866E+02 -0.23477751586E+02  0.27271295114E+02  0.50528884720E+02  0.30000075595E+02 0.  0.
         12    1    1    2    0    0  0.18927104866E+02  0.23477751586E+02 -0.27271295114E+02  0.40659115280E+02  0.00000000000E+00 0. -1.
         11    1    3    3    0    0 -0.44211288292E+01  0.93971756487E+00  0.46985750227E+01  0.65196669187E+01  0.51100000000E-03 0. -1.
        -11    1    3    3    0    0  0.17294281069E+01  0.10361492254E+01 -0.35522113329E+01  0.40844500743E+01  0.51100000000E-03 0.  1.
        -12    1    3    3    0    0 -0.16235404144E+02 -0.25453618376E+02  0.26124931424E+02  0.39924767727E+02  0.00000000000E+00 0.  1.
</event>
<event>
 7    1  0.2575978E-011  0.5052886E+02  0.7816164E-02  0.1300439E+00
        -11   -1    0    0    0    0  0.00000000000E+00  0.00000000000E+00  0.45593999997E+02  0.45594000000E+02  0.51100000000E-03 0.  1.
         11   -1    0    0    0    0 -0.00000000000E+00 -0.00000000000E+00 -0.45593999997E+02  0.45594000000E+02  0.51100000000E-03 0. -1.
    9900012    2    1    2    0    0  0.33859353545E+02  0.10767974337E+02  0.19767668964E+02  0.50528857976E+02  0.29999994304E+02 0.  0.
         12    1    1    2    0    0 -0.33859353545E+02 -0.10767974337E+02 -0.19767668964E+02  0.40659142024E+02  0.00000000000E+00 0. -1.
         11    1    3    3    0    0  0.30074959648E+01  0.24894934339E+00 -0.36638386943E+01  0.47466537680E+01  0.51100000000E-03 0. -1.
        -11    1    3    3    0    0 -0.19787971305E+01  0.53636343033E+01  0.13260518489E+01  0.58687839277E+01  0.51100000000E-03 0.  1.
        -12    1    3    3    0    0  0.32830654711E+02  0.51553906907E+01  0.22105455810E+02  0.39913420280E+02  0.00000000000E+00 0.  1.
</event>
<event>
 7    1  0.2575978E-011  0.5052886E+02  0.7816164E-02  0.1300439E+00
        -11   -1    0    0    0    0  0.00000000000E+00  0.00000000000E+00  0.45593999997E+02  0.45594000000E+02  0.51100000000E-03 0. -1.
         11   -1    0    0    0    0 -0.00000000000E+00 -0.00000000000E+00 -0.45593999997E+02  0.45594000000E+02  0.51100000000E-03 0.  1.
    9900012    2    1    2    0    0  0.99071909136E+01 -0.36874131149E+02  0.13975406150E+02  0.50528856417E+02  0.29999989567E+02 0.  0.
         12    1    1    2    0    0 -0.99071909136E+01  0.36874131149E+02 -0.13975406150E+02  0.40659143583E+02  0.00000000000E+00 0. -1.
         11    1    3    3    0    0  0.13123975276E+01  0.82785872252E+00 -0.35804857337E+01  0.39022577676E+01  0.51100000000E-03 0. -1.
        -11    1    3    3    0    0  0.64712099392E+01 -0.13096831654E+01  0.40799947084E+01  0.77613262496E+01  0.51100000000E-03 0.  1.
        -12    1    3    3    0    0  0.21235834468E+01 -0.36392306706E+02  0.13475897175E+02  0.38865272400E+02  0.00000000000E+00 0.  1.
</event>
<event>
 7    1  0.2575978E-011  0.5052879E+02  0.7816164E-02  0.1300439E+00
        -11   -1    0    0    0    0  0.00000000000E+00  0.00000000000E+00  0.45593999997E+02  0.45594000000E+02  0.51100000000E-03 0.  1.
         11   -1    0    0    0    0 -0.00000000000E+00 -0.00000000000E+00 -0.45593999997E+02  0.45594000000E+02  0.51100000000E-03 0. -1.
    9900012    2    1    2    0    0 -0.23549180226E+02 -0.21832592743E+02  0.24938825911E+02  0.50528793994E+02  0.29999799824E+02 0.  0.
         12    1    1    2    0    0  0.23549180226E+02  0.21832592743E+02 -0.24938825911E+02  0.40659206006E+02  0.00000000000E+00 0. -1.
         11    1    3    3    0    0 -0.99098952000E+00 -0.66057365662E+01  0.19630234662E+01  0.69621316564E+01  0.51100000000E-03 0. -1.
        -11    1    3    3    0    0 -0.17689728218E+02 -0.14801149790E+02  0.33084298631E+01  0.23301206577E+02  0.51100000000E-03 0.  1.
        -12    1    3    3    0    0 -0.48684624881E+01 -0.42570638666E+00  0.19667372581E+02  0.20265455761E+02  0.00000000000E+00 0.  1.
</event>
<event>
 7    1  0.2575978E-011  0.5052886E+02  0.7816164E-02  0.1300439E+00
        -11   -1    0    0    0    0  0.00000000000E+00  0.00000000000E+00  0.45593999997E+02  0.45594000000E+02  0.51100000000E-03 0.  1.
         11   -1    0    0    0    0 -0.00000000000E+00 -0.00000000000E+00 -0.45593999997E+02  0.45594000000E+02  0.51100000000E-03 0. -1.
    9900012    2    1    2    0    0 -0.24191261162E+02  0.18227125308E+02  0.27124165320E+02  0.50528861324E+02  0.30000004480E+02 0.  0.
         12    1    1    2    0    0  0.24191261162E+02 -0.18227125308E+02 -0.27124165320E+02  0.40659138676E+02  0.00000000000E+00 0. -1.
         11    1    3    3    0    0 -0.87997113722E+01  0.22383066820E+00  0.17354537233E+01  0.89720020223E+01  0.51100000000E-03 0. -1.
        -11    1    3    3    0    0 -0.19595665731E+02  0.73604658804E+01  0.19834585149E+02  0.28837082753E+02  0.51100000000E-03 0.  1.
        -12    1    3    3    0    0  0.42041159410E+01  0.10642828759E+02  0.55541264473E+01  0.12719776548E+02  0.00000000000E+00 0.  1.
</event>
<event>
 7    1  0.2575978E-011  0.5052886E+02  0.7816164E-02  0.1300439E+00
        -11   -1    0    0    0    0  0.00000000000E+00  0.00000000000E+00  0.45593999997E+02  0.45594000000E+02  0.51100000000E-03 0.  1.
         11   -1    0    0    0    0 -0.00000000000E+00 -0.00000000000E+00 -0.45593999997E+02  0.45594000000E+02  0.51100000000E-03 0. -1.
    9900012    2    1    2    0    0 -0.34693149302E+01 -0.13847838650E+02  0.38070555606E+02  0.50528856065E+02  0.29999988495E+02 0.  0.
         12    1    1    2    0    0  0.34693149302E+01  0.13847838650E+02 -0.38070555606E+02  0.40659143935E+02  0.00000000000E+00 0. -1.
         11    1    3    3    0    0 -0.60901116016E+01  0.20271834085E+01  0.31375317414E+01  0.71444410265E+01  0.51100000000E-03 0. -1.
        -11    1    3    3    0    0 -0.50745330048E+01 -0.13324364516E+02  0.10685953669E+02  0.17817945477E+02  0.51100000000E-03 0.  1.
         12    1    3    3    0    0  0.76953296762E+01 -0.25506575429E+01  0.24247070196E+02  0.25566469561E+02  0.00000000000E+00 0. -1.
</event>
<event>
 7    1  0.2575978E-011  0.5052885E+02  0.7816164E-02  0.1300439E+00
        -11   -1    0    0    0    0  0.00000000000E+00  0.00000000000E+00  0.45593999997E+02  0.45594000000E+02  0.51100000000E-03 0.  1.
         11   -1    0    0    0    0 -0.00000000000E+00 -0.00000000000E+00 -0.45593999997E+02  0.45594000000E+02  0.51100000000E-03 0. -1.
    9900012    2    1    2    0    0 -0.22843367575E+02 -0.37643817720E+01  0.33424184331E+02  0.50528854528E+02  0.29999983824E+02 0.  0.
         12    1    1    2    0    0  0.22843367575E+02  0.37643817720E+01 -0.33424184331E+02  0.40659145472E+02  0.00000000000E+00 0. -1.
         11    1    3    3    0    0 -0.42196687076E+01 -0.11820528913E+02  0.50090966985E+01  0.13513754392E+02  0.51100000000E-03 0. -1.
        -11    1    3    3    0    0 -0.33486324106E+01 -0.31210016431E+01  0.37063953396E+01  0.58899369225E+01  0.51100000000E-03 0.  1.
        -12    1    3    3    0    0 -0.15275066457E+02  0.11177148784E+02  0.24708692293E+02  0.31125163213E+02  0.00000000000E+00 0.  1.
</event>
<event>
 7    1  0.2575978E-011  0.5052886E+02  0.7816164E-02  0.1300439E+00
        -11   -1    0    0    0    0  0.00000000000E+00  0.00000000000E+00  0.45593999997E+02  0.45594000000E+02  0.51100000000E-03 0.  1.
         11   -1    0    0    0    0 -0.00000000000E+00 -0.00000000000E+00 -0.45593999997E+02  0.45594000000E+02  0.51100000000E-03 0. -1.
    9900012    2    1    2    0    0 -0.25642353266E+02  0.31107888635E+02  0.52852910761E+01  0.50528864272E+02  0.30000013443E+02 0.  0.
         12    1    1    2    0    0  0.25642353266E+02 -0.31107888635E+02 -0.52852910761E+01  0.40659135728E+02  0.00000000000E+00 0. -1.
         11    1    3    3    0    0 -0.96802063312E+01  0.10679280255E+02  0.74827868437E+01  0.16240243859E+02  0.51100000000E-03 0. -1.
        -11    1    3    3    0    0 -0.15443931646E+02  0.23197983140E+02  0.33474253678E+01  0.28068963346E+02  0.51100000000E-03 0.  1.
         12    1    3    3    0    0 -0.51821528874E+00 -0.27693747600E+01 -0.55449211354E+01  0.62196570681E+01  0.00000000000E+00 0. -1.
</event>
<event>
 7    1  0.2575978E-011  0.5052887E+02  0.7816164E-02  0.1300439E+00
        -11   -1    0    0    0    0  0.00000000000E+00  0.00000000000E+00  0.45593999997E+02  0.45594000000E+02  0.51100000000E-03 0.  1.
         11   -1    0    0    0    0 -0.00000000000E+00 -0.00000000000E+00 -0.45593999997E+02  0.45594000000E+02  0.51100000000E-03 0. -1.
    9900012    2    1    2    0    0 -0.16880197768E+02  0.25885229191E+02  0.26423075339E+02  0.50528867233E+02  0.30000022442E+02 0.  0.
         12    1    1    2    0    0  0.16880197768E+02 -0.25885229191E+02 -0.26423075339E+02  0.40659132767E+02  0.00000000000E+00 0. -1.
         11    1    3    3    0    0 -0.10693904166E+01  0.36285985222E+01 -0.46808423970E+00  0.38117484460E+01  0.51100000000E-03 0. -1.
        -11    1    3    3    0    0 -0.12491109127E+02  0.19827896717E+02  0.43887567183E+01  0.23841864048E+02  0.51100000000E-03 0.  1.
         12    1    3    3    0    0 -0.33196982244E+01  0.24287339516E+01  0.22502402860E+02  0.22875254740E+02  0.00000000000E+00 0. -1.
</event>
<event>
 7    1  0.2575978E-011  0.5052886E+02  0.7816164E-02  0.1300439E+00
        -11   -1    0    0    0    0  0.00000000000E+00  0.00000000000E+00  0.45593999997E+02  0.45594000000E+02  0.51100000000E-03 0.  1.
         11   -1    0    0    0    0 -0.00000000000E+00 -0.00000000000E+00 -0.45593999997E+02  0.45594000000E+02  0.51100000000E-03 0. -1.
    9900012    2    1    2    0    0 -0.21147134333E+02  0.27227133396E+02  0.21555677543E+02  0.50528864276E+02  0.30000013454E+02 0.  0.
         12    1    1    2    0    0  0.21147134333E+02 -0.27227133396E+02 -0.21555677543E+02  0.40659135724E+02  0.00000000000E+00 0. -1.
         11    1    3    3    0    0 -0.10497251431E+02  0.49538722585E+01 -0.87025052351E+00  0.11640037551E+02  0.51100000000E-03 0. -1.
        -11    1    3    3    0    0 -0.91665061753E+01 -0.67713180314E-01  0.45269207767E+01  0.10223621302E+02  0.51100000000E-03 0.  1.
         12    1    3    3    0    0 -0.14833767265E+01  0.22340974318E+02  0.17899007290E+02  0.28665205423E+02  0.00000000000E+00 0. -1.
</event>
<event>
 7    1  0.2575978E-011  0.5052886E+02  0.7816164E-02  0.1300439E+00
        -11   -1    0    0    0    0  0.00000000000E+00  0.00000000000E+00  0.45593999997E+02  0.45594000000E+02  0.51100000000E-03 0.  1.
         11   -1    0    0    0    0 -0.00000000000E+00 -0.00000000000E+00 -0.45593999997E+02  0.45594000000E+02  0.51100000000E-03 0. -1.
    9900012    2    1    2    0    0  0.28279692261E+02  0.28805251008E+02  0.48664421322E+01  0.50528859096E+02  0.29999997708E+02 0.  0.
         12    1    1    2    0    0 -0.28279692261E+02 -0.28805251008E+02 -0.48664421322E+01  0.40659140904E+02  0.00000000000E+00 0. -1.
         11    1    3    3    0    0  0.60804135542E+01  0.11406136622E+02 -0.26198051565E+01  0.13188432847E+02  0.51100000000E-03 0. -1.
        -11    1    3    3    0    0  0.18983997488E+02  0.10572503327E+02 -0.54153685115E+01  0.22394110913E+02  0.51100000000E-03 0.  1.
         12    1    3    3    0    0  0.32152812187E+01  0.68266110590E+01  0.12901615800E+02  0.14946315336E+02  0.00000000000E+00 0. -1.
</event>
<event>
 7    1  0.2575978E-011  0.5052886E+02  0.7816164E-02  0.1300439E+00
        -11   -1    0    0    0    0  0.00000000000E+00  0.00000000000E+00  0.45593999997E+02  0.45594000000E+02  0.51100000000E-03 0.  1.
         11   -1    0    0    0    0 -0.00000000000E+00 -0.00000000000E+00 -0.45593999997E+02  0.45594000000E+02  0.51100000000E-03 0. -1.
    9900012    2    1    2    0    0  0.36322571111E+02 -0.16964341494E+02  0.67858385279E+01  0.50528860081E+02  0.30000000701E+02 0.  0.
         12    1    1    2    0    0 -0.36322571111E+02  0.16964341494E+02 -0.67858385279E+01  0.40659139919E+02  0.00000000000E+00 0. -1.
         11    1    3    3    0    0  0.14554992783E+01  0.33905965362E+01 -0.12358952395E+01  0.38912800368E+01  0.51100000000E-03 0. -1.
        -11    1    3    3    0    0  0.27561149230E+02 -0.67687643610E+01 -0.16538628677E+01  0.28428302456E+02  0.51100000000E-03 0.  1.
        -12    1    3    3    0    0  0.73059226029E+01 -0.13586173669E+02  0.96755966351E+01  0.18209277588E+02  0.00000000000E+00 0.  1.
</event>
<event>
 7    1  0.2575978E-011  0.5052886E+02  0.7816164E-02  0.1300439E+00
        -11   -1    0    0    0    0  0.00000000000E+00  0.00000000000E+00  0.45593999997E+02  0.45594000000E+02  0.51100000000E-03 0. -1.
         11   -1    0    0    0    0 -0.00000000000E+00 -0.00000000000E+00 -0.45593999997E+02  0.45594000000E+02  0.51100000000E-03 0.  1.
    9900012    2    1    2    0    0 -0.27176299341E+02 -0.19718408082E+02 -0.22930302954E+02  0.50528860109E+02  0.30000000786E+02 0.  0.
         12    1    1    2    0    0  0.27176299341E+02  0.19718408082E+02  0.22930302954E+02  0.40659139891E+02  0.00000000000E+00 0. -1.
         11    1    3    3    0    0 -0.46958897925E+01 -0.24129807257E+01 -0.10050761598E+02  0.11353046546E+02  0.51100000000E-03 0. -1.
        -11    1    3    3    0    0 -0.12170624787E+02 -0.14700208092E+02 -0.18980452819E+02  0.26916125559E+02  0.51100000000E-03 0.  1.
        -12    1    3    3    0    0 -0.10309784762E+02 -0.26052192649E+01  0.61009114633E+01  0.12259688003E+02  0.00000000000E+00 0.  1.
</event>
<event>
 7    1  0.2575978E-011  0.5052878E+02  0.7816164E-02  0.1300439E+00
        -11   -1    0    0    0    0  0.00000000000E+00  0.00000000000E+00  0.45593999997E+02  0.45594000000E+02  0.51100000000E-03 0.  1.
         11   -1    0    0    0    0 -0.00000000000E+00 -0.00000000000E+00 -0.45593999997E+02  0.45594000000E+02  0.51100000000E-03 0. -1.
    9900012    2    1    2    0    0 -0.11642977873E+02  0.12832655223E+02  0.36782284952E+02  0.50528776445E+02  0.29999746480E+02 0.  0.
         12    1    1    2    0    0  0.11642977873E+02 -0.12832655223E+02 -0.36782284952E+02  0.40659223555E+02  0.00000000000E+00 0. -1.
         11    1    3    3    0    0  0.26652106129E+01  0.11145427654E+01  0.95511567198E+01  0.99784842604E+01  0.51100000000E-03 0. -1.
        -11    1    3    3    0    0 -0.24096432276E+01  0.90771351086E+01  0.26752174251E+02  0.28352770406E+02  0.51100000000E-03 0.  1.
         12    1    3    3    0    0 -0.11898545258E+02  0.26409773486E+01  0.47895398171E+00  0.12197521779E+02  0.00000000000E+00 0. -1.
</event>
<event>
 7    1  0.2575978E-011  0.5052887E+02  0.7816164E-02  0.1300439E+00
        -11   -1    0    0    0    0  0.00000000000E+00  0.00000000000E+00  0.45593999997E+02  0.45594000000E+02  0.51100000000E-03 0. -1.
         11   -1    0    0    0    0 -0.00000000000E+00 -0.00000000000E+00 -0.45593999997E+02  0.45594000000E+02  0.51100000000E-03 0.  1.
    9900012    2    1    2    0    0  0.15705547140E+02  0.37502327964E+02 -0.27605231549E+00  0.50528867957E+02  0.30000024641E+02 0.  0.
         12    1    1    2    0    0 -0.15705547140E+02 -0.37502327964E+02  0.27605231549E+00  0.40659132043E+02  0.00000000000E+00 0. -1.
         11    1    3    3    0    0  0.25893822763E+00  0.31872264170E+01  0.68494178679E+01  0.75590995911E+01  0.51100000000E-03 0. -1.
        -11    1    3    3    0    0  0.33845405634E+01  0.28364323888E+01  0.54282639330E+01  0.69976076704E+01  0.51100000000E-03 0.  1.
        -12    1    3    3    0    0  0.12062068349E+02  0.31478669158E+02 -0.12553734116E+02  0.35972160695E+02  0.00000000000E+00 0.  1.
</event>
<event>
 7    1  0.2575978E-011  0.5052885E+02  0.7816164E-02  0.1300439E+00
        -11   -1    0    0    0    0  0.00000000000E+00  0.00000000000E+00  0.45593999997E+02  0.45594000000E+02  0.51100000000E-03 0.  1.
         11   -1    0    0    0    0 -0.00000000000E+00 -0.00000000000E+00 -0.45593999997E+02  0.45594000000E+02  0.51100000000E-03 0. -1.
    9900012    2    1    2    0    0  0.10926710338E+02  0.31345452066E+02  0.23478410780E+02  0.50528854205E+02  0.29999982843E+02 0.  0.
         12    1    1    2    0    0 -0.10926710338E+02 -0.31345452066E+02 -0.23478410780E+02  0.40659145795E+02  0.00000000000E+00 0. -1.
         11    1    3    3    0    0 -0.12982970951E+01 -0.22723842287E+01  0.28792339994E+01  0.38909245835E+01  0.51100000000E-03 0. -1.
        -11    1    3    3    0    0 -0.62434102896E+00  0.19219108009E+02  0.19379947740E+02  0.27301030916E+02  0.51100000000E-03 0.  1.
        -12    1    3    3    0    0  0.12849348462E+02  0.14398728285E+02  0.12192290405E+01  0.19336898706E+02  0.00000000000E+00 0.  1.
</event>
<event>
 7    1  0.2575978E-011  0.5052884E+02  0.7816164E-02  0.1300439E+00
        -11   -1    0    0    0    0  0.00000000000E+00  0.00000000000E+00  0.45593999997E+02  0.45594000000E+02  0.51100000000E-03 0. -1.
         11   -1    0    0    0    0 -0.00000000000E+00 -0.00000000000E+00 -0.45593999997E+02  0.45594000000E+02  0.51100000000E-03 0.  1.
    9900012    2    1    2    0    0  0.20030941413E+02 -0.18509968229E+02 -0.30154763285E+02  0.50528840066E+02  0.29999939866E+02 0.  0.
         12    1    1    2    0    0 -0.20030941413E+02  0.18509968229E+02  0.30154763285E+02  0.40659159934E+02  0.00000000000E+00 0. -1.
         11    1    3    3    0    0 -0.25283731486E+01  0.32296242235E+01 -0.36510592475E+01  0.54912090922E+01  0.51100000000E-03 0. -1.
        -11    1    3    3    0    0  0.33185187093E+01 -0.90392255382E+01 -0.18095081630E+02  0.20497613134E+02  0.51100000000E-03 0.  1.
        -12    1    3    3    0    0  0.19240795852E+02 -0.12700366914E+02 -0.84086224080E+01  0.24540017840E+02  0.00000000000E+00 0.  1.
</event>
<event>
 7    1  0.2575978E-011  0.5052886E+02  0.7816164E-02  0.1300439E+00
        -11   -1    0    0    0    0  0.00000000000E+00  0.00000000000E+00  0.45593999997E+02  0.45594000000E+02  0.51100000000E-03 0.  1.
         11   -1    0    0    0    0 -0.00000000000E+00 -0.00000000000E+00 -0.45593999997E+02  0.45594000000E+02  0.51100000000E-03 0. -1.
    9900012    2    1    2    0    0  0.52548892136E+01  0.29247890303E+02  0.27750906782E+02  0.50528858653E+02  0.29999996362E+02 0.  0.
         12    1    1    2    0    0 -0.52548892136E+01 -0.29247890303E+02 -0.27750906782E+02  0.40659141347E+02  0.00000000000E+00 0. -1.
         11    1    3    3    0    0  0.73554078499E+01  0.19924217392E+02  0.14559790875E+02  0.25750028619E+02  0.51100000000E-03 0.  1.
        -11    1    3    3    0    0 -0.59599182776E+01 -0.38366601701E+01  0.30217087445E+01  0.77052781347E+01  0.51100000000E-03 0. -1.
         12    1    3    3    0    0  0.38593996413E+01  0.13160333082E+02  0.10169407163E+02  0.17073551899E+02  0.00000000000E+00 0. -1.
</event>
<event>
 7    1  0.2575978E-011  0.5052886E+02  0.7816164E-02  0.1300439E+00
        -11   -1    0    0    0    0  0.00000000000E+00  0.00000000000E+00  0.45593999997E+02  0.45594000000E+02  0.51100000000E-03 0.  1.
         11   -1    0    0    0    0 -0.00000000000E+00 -0.00000000000E+00 -0.45593999997E+02  0.45594000000E+02  0.51100000000E-03 0. -1.
    9900012    2    1    2    0    0  0.33163762369E+02  0.16583913662E+02  0.16682458659E+02  0.50528858915E+02  0.29999997159E+02 0.  0.
         12    1    1    2    0    0 -0.33163762369E+02 -0.16583913662E+02 -0.16682458659E+02  0.40659141085E+02  0.00000000000E+00 0. -1.
         11    1    3    3    0    0  0.11399997594E+01  0.22923873883E+01 -0.53989297738E+01  0.59752056327E+01  0.51100000000E-03 0. -1.
        -11    1    3    3    0    0  0.17153970931E+02  0.11859897034E+02  0.43830184117E+01  0.21310249342E+02  0.51100000000E-03 0.  1.
        -12    1    3    3    0    0  0.14869791679E+02  0.24316292394E+01  0.17698370021E+02  0.23243403940E+02  0.00000000000E+00 0.  1.
</event>
<event>
 7    1  0.2575978E-011  0.5052886E+02  0.7816164E-02  0.1300439E+00
        -11   -1    0    0    0    0  0.00000000000E+00  0.00000000000E+00  0.45593999997E+02  0.45594000000E+02  0.51100000000E-03 0.  1.
         11   -1    0    0    0    0 -0.00000000000E+00 -0.00000000000E+00 -0.45593999997E+02  0.45594000000E+02  0.51100000000E-03 0. -1.
    9900012    2    1    2    0    0 -0.69970471282E+00 -0.51215226495E+01  0.40329217974E+02  0.50528863225E+02  0.30000010257E+02 0.  0.
         12    1    1    2    0    0  0.69970471282E+00  0.51215226495E+01 -0.40329217974E+02  0.40659136775E+02  0.00000000000E+00 0. -1.
         11    1    3    3    0    0  0.63601971835E+01 -0.45227932875E+01  0.25473657228E+02  0.26642353127E+02  0.51100000000E-03 0. -1.
        -11    1    3    3    0    0 -0.85963089543E+00  0.25929578863E+01  0.16497616746E+02  0.16722253271E+02  0.51100000000E-03 0.  1.
         12    1    3    3    0    0 -0.62002710009E+01 -0.31916872483E+01 -0.16420559999E+01  0.71642568269E+01  0.00000000000E+00 0. -1.
</event>
<event>
 7    1  0.2575978E-011  0.5052886E+02  0.7816164E-02  0.1300439E+00
        -11   -1    0    0    0    0  0.00000000000E+00  0.00000000000E+00  0.45593999997E+02  0.45594000000E+02  0.51100000000E-03 0. -1.
         11   -1    0    0    0    0 -0.00000000000E+00 -0.00000000000E+00 -0.45593999997E+02  0.45594000000E+02  0.51100000000E-03 0.  1.
    9900012    2    1    2    0    0 -0.87067294090E+01 -0.16260320979E+02 -0.36234792385E+02  0.50528863825E+02  0.30000012082E+02 0.  0.
         12    1    1    2    0    0  0.87067294090E+01  0.16260320979E+02  0.36234792385E+02  0.40659136175E+02  0.00000000000E+00 0. -1.
         11    1    3    3    0    0 -0.29060952371E+01 -0.15573321292E+01  0.21746863118E+01  0.39496751390E+01  0.51100000000E-03 0. -1.
        -11    1    3    3    0    0 -0.11544647576E+02 -0.51085859190E+01 -0.10186581352E+02  0.16221682331E+02  0.51100000000E-03 0.  1.
         12    1    3    3    0    0  0.57440134039E+01 -0.95944029310E+01 -0.28222897344E+02  0.30357506355E+02  0.00000000000E+00 0. -1.
</event>
<event>
 7    1  0.2575978E-011  0.5052886E+02  0.7816164E-02  0.1300439E+00
        -11   -1    0    0    0    0  0.00000000000E+00  0.00000000000E+00  0.45593999997E+02  0.45594000000E+02  0.51100000000E-03 0. -1.
         11   -1    0    0    0    0 -0.00000000000E+00 -0.00000000000E+00 -0.45593999997E+02  0.45594000000E+02  0.51100000000E-03 0.  1.
    9900012    2    1    2    0    0  0.84410302396E+00  0.20754448312E+02 -0.34952908023E+02  0.50528863095E+02  0.30000009862E+02 0.  0.
         12    1    1    2    0    0 -0.84410302396E+00 -0.20754448312E+02  0.34952908023E+02  0.40659136905E+02  0.00000000000E+00 0. -1.
         11    1    3    3    0    0 -0.25843985468E+01  0.10740718564E+02 -0.17486410475E+02  0.20683730386E+02  0.51100000000E-03 0. -1.
        -11    1    3    3    0    0 -0.93786337977E+00  0.11769235603E+02 -0.52725092846E-01  0.11806662297E+02  0.51100000000E-03 0.  1.
         12    1    3    3    0    0  0.43663649506E+01 -0.17555058547E+01 -0.17413772455E+02  0.18038470412E+02  0.00000000000E+00 0. -1.
</event>
<event>
 7    1  0.2575978E-011  0.5052886E+02  0.7816164E-02  0.1300439E+00
        -11   -1    0    0    0    0  0.00000000000E+00  0.00000000000E+00  0.45593999997E+02  0.45594000000E+02  0.51100000000E-03 0. -1.
         11   -1    0    0    0    0 -0.00000000000E+00 -0.00000000000E+00 -0.45593999997E+02  0.45594000000E+02  0.51100000000E-03 0.  1.
    9900012    2    1    2    0    0  0.39652576202E+02  0.88227928002E+01 -0.17313566226E+01  0.50528855051E+02  0.29999985412E+02 0.  0.
         12    1    1    2    0    0 -0.39652576202E+02 -0.88227928002E+01  0.17313566226E+01  0.40659144949E+02  0.00000000000E+00 0. -1.
         11    1    3    3    0    0  0.27324275700E+02 -0.50845313706E+01 -0.62597109114E+00  0.27800365858E+02  0.51100000000E-03 0. -1.
        -11    1    3    3    0    0  0.90445931802E+01  0.13072466950E+01 -0.28926758413E+01  0.95854646992E+01  0.51100000000E-03 0.  1.
         12    1    3    3    0    0  0.32837073218E+01  0.12600077476E+02  0.17872903098E+01  0.13143024493E+02  0.00000000000E+00 0. -1.
</event>
<event>
 7    1  0.2575978E-011  0.5052882E+02  0.7816164E-02  0.1300439E+00
        -11   -1    0    0    0    0  0.00000000000E+00  0.00000000000E+00  0.45593999997E+02  0.45594000000E+02  0.51100000000E-03 0.  1.
         11   -1    0    0    0    0 -0.00000000000E+00 -0.00000000000E+00 -0.45593999997E+02  0.45594000000E+02  0.51100000000E-03 0. -1.
    9900012    2    1    2    0    0  0.34583612974E+00 -0.14879884045E+02  0.37836999894E+02  0.50528817607E+02  0.29999871599E+02 0.  0.
         12    1    1    2    0    0 -0.34583612974E+00  0.14879884045E+02 -0.37836999894E+02  0.40659182393E+02  0.00000000000E+00 0. -1.
         11    1    3    3    0    0  0.17398909648E+01  0.88355694035E+00 -0.41370184246E+01  0.45741463841E+01  0.51100000000E-03 0. -1.
        -11    1    3    3    0    0 -0.22026591714E+01  0.29628878949E+00  0.89780763027E+01  0.92490728633E+01  0.51100000000E-03 0.  1.
        -12    1    3    3    0    0  0.80860433628E+00 -0.16059729775E+02  0.32995942016E+02  0.36705598360E+02  0.00000000000E+00 0.  1.
</event>
<event>
 7    1  0.2575978E-011  0.5052886E+02  0.7816164E-02  0.1300439E+00
        -11   -1    0    0    0    0  0.00000000000E+00  0.00000000000E+00  0.45593999997E+02  0.45594000000E+02  0.51100000000E-03 0.  1.
         11   -1    0    0    0    0 -0.00000000000E+00 -0.00000000000E+00 -0.45593999997E+02  0.45594000000E+02  0.51100000000E-03 0. -1.
    9900012    2    1    2    0    0 -0.53957597653E+01 -0.22549730937E+01  0.40236384744E+02  0.50528858539E+02  0.29999996016E+02 0.  0.
         12    1    1    2    0    0  0.53957597653E+01  0.22549730937E+01 -0.40236384744E+02  0.40659141461E+02  0.00000000000E+00 0. -1.
         11    1    3    3    0    0  0.13974393291E+01 -0.54489601023E+01 -0.16811127874E+01  0.58711279445E+01  0.51100000000E-03 0. -1.
        -11    1    3    3    0    0  0.36082684537E+01 -0.14186462485E+01  0.81611133870E+01  0.90352603941E+01  0.51100000000E-03 0.  1.
         12    1    3    3    0    0 -0.10401467548E+02  0.46126332571E+01  0.33756384144E+02  0.35622470201E+02  0.00000000000E+00 0. -1.
</event>
<event>
 7    1  0.2575978E-011  0.5052885E+02  0.7816164E-02  0.1300439E+00
        -11   -1    0    0    0    0  0.00000000000E+00  0.00000000000E+00  0.45593999997E+02  0.45594000000E+02  0.51100000000E-03 0. -1.
         11   -1    0    0    0    0 -0.00000000000E+00 -0.00000000000E+00 -0.45593999997E+02  0.45594000000E+02  0.51100000000E-03 0.  1.
    9900012    2    1    2    0    0 -0.30438903956E+02  0.12074173737E+02 -0.24100917151E+02  0.50528846627E+02  0.29999959808E+02 0.  0.
         12    1    1    2    0    0  0.30438903956E+02 -0.12074173737E+02  0.24100917151E+02  0.40659153373E+02  0.00000000000E+00 0. -1.
         11    1    3    3    0    0  0.16234332174E+01  0.66401447644E+01 -0.13004594945E+01  0.69583225753E+01  0.51100000000E-03 0. -1.
        -11    1    3    3    0    0 -0.35083841245E+01  0.77209263843E+01 -0.54221581320E+01  0.10065846336E+02  0.51100000000E-03 0.  1.
         12    1    3    3    0    0 -0.28553953049E+02 -0.22868974115E+01 -0.17378299525E+02  0.33504677716E+02  0.00000000000E+00 0. -1.
</event>
<event>
 7    1  0.2575978E-011  0.5052887E+02  0.7816164E-02  0.1300439E+00
        -11   -1    0    0    0    0  0.00000000000E+00  0.00000000000E+00  0.45593999997E+02  0.45594000000E+02  0.51100000000E-03 0.  1.
         11   -1    0    0    0    0 -0.00000000000E+00 -0.00000000000E+00 -0.45593999997E+02  0.45594000000E+02  0.51100000000E-03 0. -1.
    9900012    2    1    2    0    0 -0.24477829484E+02 -0.27423335112E+02  0.17377029961E+02  0.50528872917E+02  0.30000039718E+02 0.  0.
         12    1    1    2    0    0  0.24477829484E+02  0.27423335112E+02 -0.17377029961E+02  0.40659127083E+02  0.00000000000E+00 0. -1.
         11    1    3    3    0    0 -0.21192367204E+01 -0.35661679174E+01 -0.16721867161E+01  0.44726867280E+01  0.51100000000E-03 0. -1.
        -11    1    3    3    0    0 -0.14440912445E+02 -0.24011464815E+01 -0.22413536506E+01  0.14809764452E+02  0.51100000000E-03 0.  1.
        -12    1    3    3    0    0 -0.79176803180E+01 -0.21456020713E+02  0.21290570328E+02  0.31246421737E+02  0.00000000000E+00 0.  1.
</event>
<event>
 7    1  0.2575978E-011  0.5052887E+02  0.7816164E-02  0.1300439E+00
        -11   -1    0    0    0    0  0.00000000000E+00  0.00000000000E+00  0.45593999997E+02  0.45594000000E+02  0.51100000000E-03 0.  1.
         11   -1    0    0    0    0 -0.00000000000E+00 -0.00000000000E+00 -0.45593999997E+02  0.45594000000E+02  0.51100000000E-03 0. -1.
    9900012    2    1    2    0    0 -0.21969166140E+02 -0.34200924783E+02  0.90384513406E+00  0.50528874912E+02  0.30000045783E+02 0.  0.
         12    1    1    2    0    0  0.21969166140E+02  0.34200924783E+02 -0.90384513406E+00  0.40659125088E+02  0.00000000000E+00 0. -1.
         11    1    3    3    0    0 -0.70338968356E+00 -0.96094602803E+01  0.69857489617E+01  0.11901141657E+02  0.51100000000E-03 0.  1.
        -11    1    3    3    0    0 -0.12836369873E+02 -0.24832472051E+02  0.45546527701E+00  0.27957673518E+02  0.51100000000E-03 0. -1.
         12    1    3    3    0    0 -0.84294065831E+01  0.24100754811E+00 -0.65373691047E+01  0.10670059737E+02  0.00000000000E+00 0. -1.
</event>
<event>
 7    1  0.2575978E-011  0.5052887E+02  0.7816164E-02  0.1300439E+00
        -11   -1    0    0    0    0  0.00000000000E+00  0.00000000000E+00  0.45593999997E+02  0.45594000000E+02  0.51100000000E-03 0.  1.
         11   -1    0    0    0    0 -0.00000000000E+00 -0.00000000000E+00 -0.45593999997E+02  0.45594000000E+02  0.51100000000E-03 0. -1.
    9900012    2    1    2    0    0 -0.25040485303E+02 -0.18136651426E+02  0.26404567131E+02  0.50528865792E+02  0.30000018062E+02 0.  0.
         12    1    1    2    0    0  0.25040485303E+02  0.18136651426E+02 -0.26404567131E+02  0.40659134208E+02  0.00000000000E+00 0. -1.
         11    1    3    3    0    0  0.49017418128E+00 -0.12361419924E+02  0.55173410660E+01  0.13545701383E+02  0.51100000000E-03 0. -1.
        -11    1    3    3    0    0 -0.40086961919E+01  0.43629427995E+01  0.79120013205E+01  0.98845677795E+01  0.51100000000E-03 0.  1.
        -12    1    3    3    0    0 -0.21521963293E+02 -0.10138174302E+02  0.12975224744E+02  0.27098596630E+02  0.00000000000E+00 0.  1.
</event>
<event>
 7    1  0.2575978E-011  0.5052889E+02  0.7816164E-02  0.1300439E+00
        -11   -1    0    0    0    0  0.00000000000E+00  0.00000000000E+00  0.45593999997E+02  0.45594000000E+02  0.51100000000E-03 0.  1.
         11   -1    0    0    0    0 -0.00000000000E+00 -0.00000000000E+00 -0.45593999997E+02  0.45594000000E+02  0.51100000000E-03 0. -1.
    9900012    2    1    2    0    0  0.52525507073E+01 -0.52243817973E+01  0.39978491081E+02  0.50528890280E+02  0.30000092495E+02 0.  0.
         12    1    1    2    0    0 -0.52525507073E+01  0.52243817973E+01 -0.39978491081E+02  0.40659109720E+02  0.00000000000E+00 0. -1.
         11    1    3    3    0    0  0.95658639337E+00  0.19634769503E+01  0.15459363139E+02  0.15612885966E+02  0.51100000000E-03 0. -1.
        -11    1    3    3    0    0 -0.63510889582E+00 -0.12792421850E+02  0.24275258551E+02  0.27446996157E+02  0.51100000000E-03 0.  1.
        -12    1    3    3    0    0  0.49310732097E+01  0.56045631023E+01  0.24386939179E+00  0.74690081569E+01  0.00000000000E+00 0.  1.
</event>
<event>
 7    1  0.2575978E-011  0.5052885E+02  0.7816164E-02  0.1300439E+00
        -11   -1    0    0    0    0  0.00000000000E+00  0.00000000000E+00  0.45593999997E+02  0.45594000000E+02  0.51100000000E-03 0.  1.
         11   -1    0    0    0    0 -0.00000000000E+00 -0.00000000000E+00 -0.45593999997E+02  0.45594000000E+02  0.51100000000E-03 0. -1.
    9900012    2    1    2    0    0 -0.25363660149E+02 -0.28080444507E+02  0.14877497203E+02  0.50528849211E+02  0.29999967661E+02 0.  0.
         12    1    1    2    0    0  0.25363660149E+02  0.28080444507E+02 -0.14877497203E+02  0.40659150789E+02  0.00000000000E+00 0. -1.
         11    1    3    3    0    0 -0.10127783628E+02 -0.80354751394E+01  0.13218829139E+02  0.18489951487E+02  0.51100000000E-03 0. -1.
        -11    1    3    3    0    0 -0.10391291922E+01 -0.82751011608E+00  0.73571412244E+01  0.74761012385E+01  0.51100000000E-03 0.  1.
         12    1    3    3    0    0 -0.14196747329E+02 -0.19217459252E+02 -0.56984731602E+01  0.24562796485E+02  0.00000000000E+00 0. -1.
</event>
<event>
 7    1  0.2575978E-011  0.5052886E+02  0.7816164E-02  0.1300439E+00
        -11   -1    0    0    0    0  0.00000000000E+00  0.00000000000E+00  0.45593999997E+02  0.45594000000E+02  0.51100000000E-03 0.  1.
         11   -1    0    0    0    0 -0.00000000000E+00 -0.00000000000E+00 -0.45593999997E+02  0.45594000000E+02  0.51100000000E-03 0. -1.
    9900012    2    1    2    0    0  0.27685407305E+02  0.22619965482E+02  0.19365458424E+02  0.50528860855E+02  0.30000003055E+02 0.  0.
         12    1    1    2    0    0 -0.27685407305E+02 -0.22619965482E+02 -0.19365458424E+02  0.40659139145E+02  0.00000000000E+00 0. -1.
         11    1    3    3    0    0  0.40643388595E+01 -0.18439651550E+01  0.10918798545E+01  0.45946990908E+01  0.51100000000E-03 0. -1.
        -11    1    3    3    0    0 -0.25704994477E+01 -0.15854665269E+01  0.64931090310E+01  0.71611197915E+01  0.51100000000E-03 0.  1.
        -12    1    3    3    0    0  0.26191567893E+02  0.26049397163E+02  0.11780469539E+02  0.38773041973E+02  0.00000000000E+00 0.  1.
</event>
<event>
 7    1  0.2575978E-011  0.5052887E+02  0.7816164E-02  0.1300439E+00
        -11   -1    0    0    0    0  0.00000000000E+00  0.00000000000E+00  0.45593999997E+02  0.45594000000E+02  0.51100000000E-03 0. -1.
         11   -1    0    0    0    0 -0.00000000000E+00 -0.00000000000E+00 -0.45593999997E+02  0.45594000000E+02  0.51100000000E-03 0.  1.
    9900012    2    1    2    0    0  0.55884581592E+00 -0.11435263970E+02 -0.39013934598E+02  0.50528872322E+02  0.30000037910E+02 0.  0.
         12    1    1    2    0    0 -0.55884581592E+00  0.11435263970E+02  0.39013934598E+02  0.40659127678E+02  0.00000000000E+00 0. -1.
         11    1    3    3    0    0 -0.41632226087E+01 -0.10681232530E+01 -0.59064157832E+01  0.73047284302E+01  0.51100000000E-03 0. -1.
        -11    1    3    3    0    0 -0.52383653740E+01 -0.10123357763E+02 -0.31015221809E+02  0.33043408243E+02  0.51100000000E-03 0.  1.
        -12    1    3    3    0    0  0.99604337986E+01 -0.24378295339E+00 -0.20922970056E+01  0.10180735648E+02  0.00000000000E+00 0.  1.
</event>
<event>
 7    1  0.2575978E-011  0.5052886E+02  0.7816164E-02  0.1300439E+00
        -11   -1    0    0    0    0  0.00000000000E+00  0.00000000000E+00  0.45593999997E+02  0.45594000000E+02  0.51100000000E-03 0.  1.
         11   -1    0    0    0    0 -0.00000000000E+00 -0.00000000000E+00 -0.45593999997E+02  0.45594000000E+02  0.51100000000E-03 0. -1.
    9900012    2    1    2    0    0 -0.35849514527E+01  0.27089009316E+02  0.30108129809E+02  0.50528858553E+02  0.29999996057E+02 0.  0.
         12    1    1    2    0    0  0.35849514527E+01 -0.27089009316E+02 -0.30108129809E+02  0.40659141447E+02  0.00000000000E+00 0. -1.
         11    1    3    3    0    0  0.45508834526E+01  0.33512316948E+00  0.33542788280E+01  0.56633942521E+01  0.51100000000E-03 0. -1.
        -11    1    3    3    0    0 -0.12990920577E+00  0.15417165217E+01  0.16377439092E+02  0.16450357981E+02  0.51100000000E-03 0.  1.
        -12    1    3    3    0    0 -0.80059256995E+01  0.25212169624E+02  0.10376411889E+02  0.28415106320E+02  0.00000000000E+00 0.  1.
</event>
<event>
 7    1  0.2575978E-011  0.5052886E+02  0.7816164E-02  0.1300439E+00
        -11   -1    0    0    0    0  0.00000000000E+00  0.00000000000E+00  0.45593999997E+02  0.45594000000E+02  0.51100000000E-03 0. -1.
         11   -1    0    0    0    0 -0.00000000000E+00 -0.00000000000E+00 -0.45593999997E+02  0.45594000000E+02  0.51100000000E-03 0.  1.
    9900012    2    1    2    0    0 -0.35305181572E+02 -0.72934353220E+01  0.18802021386E+02  0.50528855237E+02  0.29999985980E+02 0.  0.
         12    1    1    2    0    0  0.35305181572E+02  0.72934353220E+01 -0.18802021386E+02  0.40659144763E+02  0.00000000000E+00 0. -1.
         11    1    3    3    0    0 -0.40545673770E+01  0.33364683810E+01 -0.28989184709E-01  0.52509407258E+01  0.51100000000E-03 0. -1.
        -11    1    3    3    0    0 -0.29180353314E+02 -0.82722599169E+00  0.74747883296E+01  0.30133864392E+02  0.51100000000E-03 0.  1.
         12    1    3    3    0    0 -0.20702608810E+01 -0.98026777114E+01  0.11356222241E+02  0.15144050119E+02  0.00000000000E+00 0. -1.
</event>
<event>
 7    1  0.2575978E-011  0.5052895E+02  0.7816164E-02  0.1300438E+00
        -11   -1    0    0    0    0  0.00000000000E+00  0.00000000000E+00  0.45593999997E+02  0.45594000000E+02  0.51100000000E-03 0. -1.
         11   -1    0    0    0    0 -0.00000000000E+00 -0.00000000000E+00 -0.45593999997E+02  0.45594000000E+02  0.51100000000E-03 0.  1.
    9900012    2    1    2    0    0 -0.10407147560E+02 -0.28146503668E+02 -0.27433994232E+02  0.50528948996E+02  0.30000270967E+02 0.  0.
         12    1    1    2    0    0  0.10407147560E+02  0.28146503668E+02  0.27433994232E+02  0.40659051004E+02  0.00000000000E+00 0. -1.
         11    1    3    3    0    0 -0.92064946431E+01 -0.10816698184E+02 -0.88028819296E+01  0.16710811882E+02  0.51100000000E-03 0. -1.
        -11    1    3    3    0    0 -0.42727502616E+01 -0.19471435317E+02 -0.62628710357E+01  0.20895376091E+02  0.51100000000E-03 0.  1.
         12    1    3    3    0    0  0.30720973449E+01  0.21416298337E+01 -0.12368241266E+02  0.12922761023E+02  0.00000000000E+00 0. -1.
</event>
<event>
 7    1  0.2575978E-011  0.5052886E+02  0.7816164E-02  0.1300439E+00
        -11   -1    0    0    0    0  0.00000000000E+00  0.00000000000E+00  0.45593999997E+02  0.45594000000E+02  0.51100000000E-03 0. -1.
         11   -1    0    0    0    0 -0.00000000000E+00 -0.00000000000E+00 -0.45593999997E+02  0.45594000000E+02  0.51100000000E-03 0.  1.
    9900012    2    1    2    0    0 -0.32168431992E+02  0.80481207909E+00 -0.24853764293E+02  0.50528864018E+02  0.30000012669E+02 0.  0.
         12    1    1    2    0    0  0.32168431992E+02 -0.80481207909E+00  0.24853764293E+02  0.40659135982E+02  0.00000000000E+00 0. -1.
         11    1    3    3    0    0 -0.85780664244E+01  0.70839866613E+01 -0.11572557174E+02  0.16052730933E+02  0.51100000000E-03 0. -1.
        -11    1    3    3    0    0 -0.12350511549E+02  0.18145074752E+01 -0.16068673078E+02  0.20347722911E+02  0.51100000000E-03 0.  1.
         12    1    3    3    0    0 -0.11239854018E+02 -0.80936820574E+01  0.27874659587E+01  0.14128410175E+02  0.00000000000E+00 0. -1.
</event>
<event>
 7    1  0.2575978E-011  0.5052886E+02  0.7816164E-02  0.1300439E+00
        -11   -1    0    0    0    0  0.00000000000E+00  0.00000000000E+00  0.45593999997E+02  0.45594000000E+02  0.51100000000E-03 0. -1.
         11   -1    0    0    0    0 -0.00000000000E+00 -0.00000000000E+00 -0.45593999997E+02  0.45594000000E+02  0.51100000000E-03 0.  1.
    9900012    2    1    2    0    0 -0.16310366581E+02 -0.79743398384E+01 -0.36380596252E+02  0.50528856656E+02  0.29999990292E+02 0.  0.
         12    1    1    2    0    0  0.16310366581E+02  0.79743398384E+01  0.36380596252E+02  0.40659143344E+02  0.00000000000E+00 0. -1.
         11    1    3    3    0    0  0.34650085201E+01  0.47213458364E+00 -0.15141263326E+02  0.15539853618E+02  0.51100000000E-03 0. -1.
        -11    1    3    3    0    0  0.20068762161E+01  0.70641935640E+00  0.11673059938E+01  0.24267641003E+01  0.51100000000E-03 0.  1.
        -12    1    3    3    0    0 -0.21782251317E+02 -0.91528937784E+01 -0.22406638919E+02  0.32562238937E+02  0.00000000000E+00 0.  1.
</event>
<event>
 7    1  0.2575978E-011  0.5052886E+02  0.7816164E-02  0.1300439E+00
        -11   -1    0    0    0    0  0.00000000000E+00  0.00000000000E+00  0.45593999997E+02  0.45594000000E+02  0.51100000000E-03 0.  1.
         11   -1    0    0    0    0 -0.00000000000E+00 -0.00000000000E+00 -0.45593999997E+02  0.45594000000E+02  0.51100000000E-03 0. -1.
    9900012    2    1    2    0    0  0.14444751747E+01 -0.31401799376E+02  0.25787713992E+02  0.50528859509E+02  0.29999998962E+02 0.  0.
         12    1    1    2    0    0 -0.14444751747E+01  0.31401799376E+02 -0.25787713992E+02  0.40659140491E+02  0.00000000000E+00 0. -1.
         11    1    3    3    0    0  0.14032213384E+01 -0.13634287288E+02 -0.56915086004E-01  0.13706424025E+02  0.51100000000E-03 0. -1.
        -11    1    3    3    0    0  0.46527497988E+01 -0.20396503160E+02  0.20639931237E+02  0.29388300114E+02  0.51100000000E-03 0.  1.
        -12    1    3    3    0    0 -0.46114959625E+01  0.26289910725E+01  0.52046978415E+01  0.74341353696E+01  0.00000000000E+00 0.  1.
</event>
<event>
 7    1  0.2575978E-011  0.5052884E+02  0.7816164E-02  0.1300439E+00
        -11   -1    0    0    0    0  0.00000000000E+00  0.00000000000E+00  0.45593999997E+02  0.45594000000E+02  0.51100000000E-03 0.  1.
         11   -1    0    0    0    0 -0.00000000000E+00 -0.00000000000E+00 -0.45593999997E+02  0.45594000000E+02  0.51100000000E-03 0. -1.
    9900012    2    1    2    0    0  0.37470054531E+02  0.12820305390E+02 -0.92087965705E+01  0.50528841731E+02  0.29999944926E+02 0.  0.
         12    1    1    2    0    0 -0.37470054531E+02 -0.12820305390E+02  0.92087965705E+01  0.40659158269E+02  0.00000000000E+00 0. -1.
         11    1    3    3    0    0  0.25942667386E+01  0.25468932582E+00 -0.12413537461E+01  0.28872211463E+01  0.51100000000E-03 0. -1.
        -11    1    3    3    0    0  0.38824705373E+02  0.92437791861E+01 -0.22989978930E+01  0.39976125282E+02  0.51100000000E-03 0.  1.
         12    1    3    3    0    0 -0.39489175810E+01  0.33218368781E+01 -0.56684449314E+01  0.76654953034E+01  0.00000000000E+00 0. -1.
</event>
<event>
 7    1  0.2575978E-011  0.5052886E+02  0.7816164E-02  0.1300439E+00
        -11   -1    0    0    0    0  0.00000000000E+00  0.00000000000E+00  0.45593999997E+02  0.45594000000E+02  0.51100000000E-03 0.  1.
         11   -1    0    0    0    0 -0.00000000000E+00 -0.00000000000E+00 -0.45593999997E+02  0.45594000000E+02  0.51100000000E-03 0. -1.
    9900012    2    1    2    0    0 -0.37817760669E+01 -0.38614313204E+02  0.12157261247E+02  0.50528855697E+02  0.29999987377E+02 0.  0.
         12    1    1    2    0    0  0.37817760669E+01  0.38614313204E+02 -0.12157261247E+02  0.40659144303E+02  0.00000000000E+00 0. -1.
         11    1    3    3    0    0  0.13702808430E+01 -0.72043051186E+01 -0.59245076383E+00  0.73573555031E+01  0.51100000000E-03 0. -1.
        -11    1    3    3    0    0 -0.11160053101E+02 -0.30578935027E+02  0.43946654476E+01  0.32847087196E+02  0.51100000000E-03 0.  1.
         12    1    3    3    0    0  0.60079961915E+01 -0.83107305764E+00  0.83550465635E+01  0.10324412997E+02  0.00000000000E+00 0. -1.
</event>
<event>
 7    1  0.2575978E-011  0.5052887E+02  0.7816164E-02  0.1300439E+00
        -11   -1    0    0    0    0  0.00000000000E+00  0.00000000000E+00  0.45593999997E+02  0.45594000000E+02  0.51100000000E-03 0. -1.
         11   -1    0    0    0    0 -0.00000000000E+00 -0.00000000000E+00 -0.45593999997E+02  0.45594000000E+02  0.51100000000E-03 0.  1.
    9900012    2    1    2    0    0 -0.26064935476E+01 -0.24594243245E+02 -0.32272188959E+02  0.50528870772E+02  0.30000033198E+02 0.  0.
         12    1    1    2    0    0  0.26064935476E+01  0.24594243245E+02  0.32272188959E+02  0.40659129228E+02  0.00000000000E+00 0. -1.
         11    1    3    3    0    0  0.31960244795E+01  0.28423126786E+01 -0.54010859918E+01  0.68894879337E+01  0.51100000000E-03 0. -1.
        -11    1    3    3    0    0  0.72136552480E+01 -0.13480875658E+02 -0.12527738249E+02  0.19766513512E+02  0.51100000000E-03 0.  1.
         12    1    3    3    0    0 -0.13016173275E+02 -0.13955680265E+02 -0.14343364719E+02  0.23872869326E+02  0.00000000000E+00 0. -1.
</event>
<event>
 7    1  0.2575978E-011  0.5052885E+02  0.7816164E-02  0.1300439E+00
        -11   -1    0    0    0    0  0.00000000000E+00  0.00000000000E+00  0.45593999997E+02  0.45594000000E+02  0.51100000000E-03 0.  1.
         11   -1    0    0    0    0 -0.00000000000E+00 -0.00000000000E+00 -0.45593999997E+02  0.45594000000E+02  0.51100000000E-03 0. -1.
    9900012    2    1    2    0    0 -0.33500530926E+02  0.65989851376E+01  0.22075642290E+02  0.50528853924E+02  0.29999981987E+02 0.  0.
         12    1    1    2    0    0  0.33500530926E+02 -0.65989851376E+01 -0.22075642290E+02  0.40659146076E+02  0.00000000000E+00 0. -1.
         11    1    3    3    0    0 -0.29527291277E+02 -0.93090320680E+00  0.74778388339E+01  0.30473686761E+02  0.51100000000E-03 0. -1.
        -11    1    3    3    0    0 -0.30225639205E+01 -0.50925988781E+00 -0.32065437320E+00  0.30818919148E+01  0.51100000000E-03 0.  1.
         12    1    3    3    0    0 -0.95067572804E+00  0.80391482322E+01  0.14918457829E+02  0.16973275248E+02  0.00000000000E+00 0. -1.
</event>
<event>
 7    1  0.2575978E-011  0.5052883E+02  0.7816164E-02  0.1300439E+00
        -11   -1    0    0    0    0  0.00000000000E+00  0.00000000000E+00  0.45593999997E+02  0.45594000000E+02  0.51100000000E-03 0.  1.
         11   -1    0    0    0    0 -0.00000000000E+00 -0.00000000000E+00 -0.45593999997E+02  0.45594000000E+02  0.51100000000E-03 0. -1.
    9900012    2    1    2    0    0  0.11659121688E+02 -0.17398645985E+02  0.34849960195E+02  0.50528834659E+02  0.29999923429E+02 0.  0.
         12    1    1    2    0    0 -0.11659121688E+02  0.17398645985E+02 -0.34849960195E+02  0.40659165341E+02  0.00000000000E+00 0. -1.
         11    1    3    3    0    0  0.10225592434E+02 -0.53840314203E+01  0.15599419537E+01  0.11661215808E+02  0.51100000000E-03 0. -1.
        -11    1    3    3    0    0 -0.46272854669E+01 -0.12867397856E+02  0.19901714356E+02  0.24146633988E+02  0.51100000000E-03 0.  1.
         12    1    3    3    0    0  0.60608147212E+01  0.85278329102E+00  0.13388303885E+02  0.14720984863E+02  0.00000000000E+00 0. -1.
</event>
<event>
 7    1  0.2575978E-011  0.5052886E+02  0.7816164E-02  0.1300439E+00
        -11   -1    0    0    0    0  0.00000000000E+00  0.00000000000E+00  0.45593999997E+02  0.45594000000E+02  0.51100000000E-03 0.  1.
         11   -1    0    0    0    0 -0.00000000000E+00 -0.00000000000E+00 -0.45593999997E+02  0.45594000000E+02  0.51100000000E-03 0. -1.
    9900012    2    1    2    0    0 -0.45097972648E+01  0.36546907578E+02  0.17238071306E+02  0.50528858011E+02  0.29999994411E+02 0.  0.
         12    1    1    2    0    0  0.45097972648E+01 -0.36546907578E+02 -0.17238071306E+02  0.40659141989E+02  0.00000000000E+00 0. -1.
         11    1    3    3    0    0  0.57256168262E+01 -0.23621368154E+00  0.11177997869E+01  0.58384896650E+01  0.51100000000E-03 0. -1.
        -11    1    3    3    0    0  0.45828025055E+01  0.97040572956E+01  0.29502506407E+01  0.11129905027E+02  0.51100000000E-03 0.  1.
        -12    1    3    3    0    0 -0.14818216597E+02  0.27079063964E+02  0.13170020879E+02  0.33560463319E+02  0.00000000000E+00 0.  1.
</event>
<event>
 7    1  0.2575978E-011  0.5052885E+02  0.7816164E-02  0.1300439E+00
        -11   -1    0    0    0    0  0.00000000000E+00  0.00000000000E+00  0.45593999997E+02  0.45594000000E+02  0.51100000000E-03 0.  1.
         11   -1    0    0    0    0 -0.00000000000E+00 -0.00000000000E+00 -0.45593999997E+02  0.45594000000E+02  0.51100000000E-03 0. -1.
    9900012    2    1    2    0    0 -0.56786839904E+01  0.13828604277E+02  0.37811224376E+02  0.50528850514E+02  0.29999971621E+02 0.  0.
         12    1    1    2    0    0  0.56786839904E+01 -0.13828604277E+02 -0.37811224376E+02  0.40659149486E+02  0.00000000000E+00 0. -1.
         11    1    3    3    0    0  0.36268848106E+01  0.79391488389E+01  0.19813160774E+02  0.21650536202E+02  0.51100000000E-03 0. -1.
        -11    1    3    3    0    0 -0.65834218254E+01  0.13186138779E+02  0.10780779543E+02  0.18260364362E+02  0.51100000000E-03 0.  1.
         12    1    3    3    0    0 -0.27221469756E+01 -0.72966833405E+01  0.72172840598E+01  0.10617949949E+02  0.00000000000E+00 0. -1.
</event>
<event>
 7    1  0.2575978E-011  0.5052885E+02  0.7816164E-02  0.1300439E+00
        -11   -1    0    0    0    0  0.00000000000E+00  0.00000000000E+00  0.45593999997E+02  0.45594000000E+02  0.51100000000E-03 0.  1.
         11   -1    0    0    0    0 -0.00000000000E+00 -0.00000000000E+00 -0.45593999997E+02  0.45594000000E+02  0.51100000000E-03 0. -1.
    9900012    2    1    2    0    0  0.19548440726E+02 -0.19712144482E+02  0.29706160370E+02  0.50528854180E+02  0.29999982765E+02 0.  0.
         12    1    1    2    0    0 -0.19548440726E+02  0.19712144482E+02 -0.29706160370E+02  0.40659145820E+02  0.00000000000E+00 0. -1.
         11    1    3    3    0    0 -0.38918862013E+01 -0.45500887924E+01  0.33398051463E+01  0.68559743946E+01  0.51100000000E-03 0. -1.
        -11    1    3    3    0    0  0.92034318257E+00  0.36555158709E+01 -0.60079178697E+00  0.38171689625E+01  0.51100000000E-03 0.  1.
        -12    1    3    3    0    0  0.22519983745E+02 -0.18817571560E+02  0.26967147011E+02  0.39855710823E+02  0.00000000000E+00 0.  1.
</event>
<event>
 7    1  0.2575978E-011  0.5052885E+02  0.7816164E-02  0.1300439E+00
        -11   -1    0    0    0    0  0.00000000000E+00  0.00000000000E+00  0.45593999997E+02  0.45594000000E+02  0.51100000000E-03 0.  1.
         11   -1    0    0    0    0 -0.00000000000E+00 -0.00000000000E+00 -0.45593999997E+02  0.45594000000E+02  0.51100000000E-03 0. -1.
    9900012    2    1    2    0    0 -0.15823849680E+02  0.21022396801E+02  0.30997277051E+02  0.50528848871E+02  0.29999966628E+02 0.  0.
         12    1    1    2    0    0  0.15823849680E+02 -0.21022396801E+02 -0.30997277051E+02  0.40659151129E+02  0.00000000000E+00 0. -1.
         11    1    3    3    0    0 -0.28693952483E+00  0.79321061901E+00  0.13076206044E+02  0.13103384377E+02  0.51100000000E-03 0. -1.
        -11    1    3    3    0    0 -0.74768424326E+01  0.71658718951E+01  0.19413724640E+02  0.22003308784E+02  0.51100000000E-03 0.  1.
        -12    1    3    3    0    0 -0.80600677229E+01  0.13063314287E+02 -0.14926536331E+01  0.15422155710E+02  0.00000000000E+00 0.  1.
</event>
<event>
 7    1  0.2575978E-011  0.5052886E+02  0.7816164E-02  0.1300439E+00
        -11   -1    0    0    0    0  0.00000000000E+00  0.00000000000E+00  0.45593999997E+02  0.45594000000E+02  0.51100000000E-03 0.  1.
         11   -1    0    0    0    0 -0.00000000000E+00 -0.00000000000E+00 -0.45593999997E+02  0.45594000000E+02  0.51100000000E-03 0. -1.
    9900012    2    1    2    0    0 -0.35416754121E+02  0.19567055993E+02  0.39936937815E+01  0.50528859051E+02  0.29999997572E+02 0.  0.
         12    1    1    2    0    0  0.35416754121E+02 -0.19567055993E+02 -0.39936937815E+01  0.40659140949E+02  0.00000000000E+00 0. -1.
         11    1    3    3    0    0 -0.10913225215E+02 -0.10120709663E+01  0.17908329443E+01  0.11105397567E+02  0.51100000000E-03 0.  1.
        -11    1    3    3    0    0 -0.12512405782E+02  0.25977117892E+01 -0.84575500228E+01  0.15324443143E+02  0.51100000000E-03 0. -1.
         12    1    3    3    0    0 -0.11991123124E+02  0.17981415170E+02  0.10660410860E+02  0.24099018341E+02  0.00000000000E+00 0. -1.
</event>
<event>
 7    1  0.2575978E-011  0.5052886E+02  0.7816164E-02  0.1300439E+00
        -11   -1    0    0    0    0  0.00000000000E+00  0.00000000000E+00  0.45593999997E+02  0.45594000000E+02  0.51100000000E-03 0.  1.
         11   -1    0    0    0    0 -0.00000000000E+00 -0.00000000000E+00 -0.45593999997E+02  0.45594000000E+02  0.51100000000E-03 0. -1.
    9900012    2    1    2    0    0 -0.10263458636E+02  0.27466630927E+01  0.39246441472E+02  0.50528857000E+02  0.29999991336E+02 0.  0.
         12    1    1    2    0    0  0.10263458636E+02 -0.27466630927E+01 -0.39246441472E+02  0.40659143000E+02  0.00000000000E+00 0. -1.
         11    1    3    3    0    0  0.14456230008E+01 -0.34544934377E+01  0.14025252746E+02  0.14516578992E+02  0.51100000000E-03 0.  1.
        -11    1    3    3    0    0  0.59654493003E+01  0.52002745741E+01  0.92079230069E+01  0.12141469737E+02  0.51100000000E-03 0. -1.
        -12    1    3    3    0    0 -0.17674530937E+02  0.10008819563E+01  0.16013265718E+02  0.23870808271E+02  0.00000000000E+00 0.  1.
</event>
<event>
 7    1  0.2575978E-011  0.5052885E+02  0.7816164E-02  0.1300439E+00
        -11   -1    0    0    0    0  0.00000000000E+00  0.00000000000E+00  0.45593999997E+02  0.45594000000E+02  0.51100000000E-03 0.  1.
         11   -1    0    0    0    0 -0.00000000000E+00 -0.00000000000E+00 -0.45593999997E+02  0.45594000000E+02  0.51100000000E-03 0. -1.
    9900012    2    1    2    0    0 -0.13307334584E+02 -0.16984082276E+02  0.34461894962E+02  0.50528850858E+02  0.29999972669E+02 0.  0.
         12    1    1    2    0    0  0.13307334584E+02  0.16984082276E+02 -0.34461894962E+02  0.40659149142E+02  0.00000000000E+00 0. -1.
         11    1    3    3    0    0 -0.14714795464E+02 -0.15520418182E+02  0.13782147566E+02  0.25443195119E+02  0.51100000000E-03 0.  1.
        -11    1    3    3    0    0 -0.61806516582E+01 -0.21545438881E+01  0.10437493151E+02  0.12320055918E+02  0.51100000000E-03 0. -1.
         12    1    3    3    0    0  0.75881125374E+01  0.69087979331E+00  0.10242254246E+02  0.12765599821E+02  0.00000000000E+00 0. -1.
</event>
<event>
 7    1  0.2575978E-011  0.5052886E+02  0.7816164E-02  0.1300439E+00
        -11   -1    0    0    0    0  0.00000000000E+00  0.00000000000E+00  0.45593999997E+02  0.45594000000E+02  0.51100000000E-03 0. -1.
         11   -1    0    0    0    0 -0.00000000000E+00 -0.00000000000E+00 -0.45593999997E+02  0.45594000000E+02  0.51100000000E-03 0.  1.
    9900012    2    1    2    0    0 -0.51656141876E+01  0.40007439296E+02 -0.50879146841E+01  0.50528860255E+02  0.30000001230E+02 0.  0.
         12    1    1    2    0    0  0.51656141876E+01 -0.40007439296E+02  0.50879146841E+01  0.40659139745E+02  0.00000000000E+00 0. -1.
         11    1    3    3    0    0 -0.30340544489E+01  0.16200565722E+02  0.77477579872E+01  0.18212401550E+02  0.51100000000E-03 0.  1.
        -11    1    3    3    0    0  0.10194219263E+01  0.27638566026E+01  0.41508895137E+01  0.50899910019E+01  0.51100000000E-03 0. -1.
        -12    1    3    3    0    0 -0.31509816650E+01  0.21043016972E+02 -0.16986562185E+02  0.27226467703E+02  0.00000000000E+00 0.  1.
</event>
<event>
 7    1  0.2575978E-011  0.5052886E+02  0.7816164E-02  0.1300439E+00
        -11   -1    0    0    0    0  0.00000000000E+00  0.00000000000E+00  0.45593999997E+02  0.45594000000E+02  0.51100000000E-03 0. -1.
         11   -1    0    0    0    0 -0.00000000000E+00 -0.00000000000E+00 -0.45593999997E+02  0.45594000000E+02  0.51100000000E-03 0.  1.
    9900012    2    1    2    0    0  0.16950555290E+02 -0.38601790647E+00 -0.36955311206E+02  0.50528863747E+02  0.30000011846E+02 0.  0.
         12    1    1    2    0    0 -0.16950555290E+02  0.38601790647E+00  0.36955311206E+02  0.40659136253E+02  0.00000000000E+00 0. -1.
         11    1    3    3    0    0  0.18215111667E+02 -0.16209663433E+01 -0.24434014360E+02  0.30519483661E+02  0.51100000000E-03 0. -1.
        -11    1    3    3    0    0  0.30761499671E+01  0.16978524907E+01 -0.14711613885E+02  0.15125375535E+02  0.51100000000E-03 0.  1.
         12    1    3    3    0    0 -0.43407063442E+01 -0.46290405387E+00  0.21903170385E+01  0.48840045515E+01  0.00000000000E+00 0. -1.
</event>
<event>
 7    1  0.2575978E-011  0.5052885E+02  0.7816164E-02  0.1300439E+00
        -11   -1    0    0    0    0  0.00000000000E+00  0.00000000000E+00  0.45593999997E+02  0.45594000000E+02  0.51100000000E-03 0.  1.
         11   -1    0    0    0    0 -0.00000000000E+00 -0.00000000000E+00 -0.45593999997E+02  0.45594000000E+02  0.51100000000E-03 0. -1.
    9900012    2    1    2    0    0 -0.49598170854E+01  0.11127476814E+02  0.38791057117E+02  0.50528848041E+02  0.29999964104E+02 0.  0.
         12    1    1    2    0    0  0.49598170854E+01 -0.11127476814E+02 -0.38791057117E+02  0.40659151959E+02  0.00000000000E+00 0. -1.
         11    1    3    3    0    0 -0.29723406339E+00 -0.41014222775E+01  0.66356694432E+00  0.41653732291E+01  0.51100000000E-03 0. -1.
        -11    1    3    3    0    0  0.18150669267E+01  0.33713842799E-01 -0.21597474559E+01  0.28213673823E+01  0.51100000000E-03 0.  1.
        -12    1    3    3    0    0 -0.64776499487E+01  0.15195185249E+02  0.40287237629E+02  0.43542107429E+02  0.00000000000E+00 0.  1.
</event>
<event>
 7    1  0.2575978E-011  0.5052883E+02  0.7816164E-02  0.1300439E+00
        -11   -1    0    0    0    0  0.00000000000E+00  0.00000000000E+00  0.45593999997E+02  0.45594000000E+02  0.51100000000E-03 0. -1.
         11   -1    0    0    0    0 -0.00000000000E+00 -0.00000000000E+00 -0.45593999997E+02  0.45594000000E+02  0.51100000000E-03 0.  1.
    9900012    2    1    2    0    0  0.29706508906E+02  0.21658405179E+02  0.17366774951E+02  0.50528830573E+02  0.29999911008E+02 0.  0.
         12    1    1    2    0    0 -0.29706508906E+02 -0.21658405179E+02 -0.17366774951E+02  0.40659169427E+02  0.00000000000E+00 0. -1.
         11    1    3    3    0    0 -0.15123489462E+01  0.43532105414E+01  0.12234292000E+02  0.13073467113E+02  0.51100000000E-03 0. -1.
        -11    1    3    3    0    0  0.11959001186E+01 -0.12556709388E+01  0.74257123943E+00  0.18863453838E+01  0.51100000000E-03 0.  1.
        -12    1    3    3    0    0  0.30022957734E+02  0.18560865577E+02  0.43899117122E+01  0.35569018076E+02  0.00000000000E+00 0.  1.
</event>
<event>
 7    1  0.2575978E-011  0.5052885E+02  0.7816164E-02  0.1300439E+00
        -11   -1    0    0    0    0  0.00000000000E+00  0.00000000000E+00  0.45593999997E+02  0.45594000000E+02  0.51100000000E-03 0.  1.
         11   -1    0    0    0    0 -0.00000000000E+00 -0.00000000000E+00 -0.45593999997E+02  0.45594000000E+02  0.51100000000E-03 0. -1.
    9900012    2    1    2    0    0  0.26153424055E+02  0.24537734703E+02  0.19158927939E+02  0.50528849321E+02  0.29999967997E+02 0.  0.
         12    1    1    2    0    0 -0.26153424055E+02 -0.24537734703E+02 -0.19158927939E+02  0.40659150679E+02  0.00000000000E+00 0. -1.
         11    1    3    3    0    0  0.12143867461E+02  0.71875569694E+01  0.10635862291E+02  0.17670768490E+02  0.51100000000E-03 0. -1.
        -11    1    3    3    0    0  0.93902572266E+01  0.55832924123E+01  0.15077020118E+02  0.18618985494E+02  0.51100000000E-03 0.  1.
         12    1    3    3    0    0  0.46192993674E+01  0.11766885321E+02 -0.65539544701E+01  0.14239095336E+02  0.00000000000E+00 0. -1.
</event>
<event>
 7    1  0.2575978E-011  0.5052886E+02  0.7816164E-02  0.1300439E+00
        -11   -1    0    0    0    0  0.00000000000E+00  0.00000000000E+00  0.45593999997E+02  0.45594000000E+02  0.51100000000E-03 0. -1.
         11   -1    0    0    0    0 -0.00000000000E+00 -0.00000000000E+00 -0.45593999997E+02  0.45594000000E+02  0.51100000000E-03 0.  1.
    9900012    2    1    2    0    0  0.63285045191E+01 -0.30754068778E+02  0.25832214991E+02  0.50528855307E+02  0.29999986191E+02 0.  0.
         12    1    1    2    0    0 -0.63285045191E+01  0.30754068778E+02 -0.25832214991E+02  0.40659144693E+02  0.00000000000E+00 0. -1.
         11    1    3    3    0    0  0.12775478706E+02 -0.75513154980E+01  0.12150509036E+02  0.19179939833E+02  0.51100000000E-03 0. -1.
        -11    1    3    3    0    0 -0.53969521126E+00  0.10523522553E+01  0.46551203123E+01  0.48030054730E+01  0.51100000000E-03 0.  1.
        -12    1    3    3    0    0 -0.59072789755E+01 -0.24255105535E+02  0.90265856423E+01  0.26545910001E+02  0.00000000000E+00 0.  1.
</event>
<event>
 7    1  0.2575978E-011  0.5052887E+02  0.7816164E-02  0.1300439E+00
        -11   -1    0    0    0    0  0.00000000000E+00  0.00000000000E+00  0.45593999997E+02  0.45594000000E+02  0.51100000000E-03 0. -1.
         11   -1    0    0    0    0 -0.00000000000E+00 -0.00000000000E+00 -0.45593999997E+02  0.45594000000E+02  0.51100000000E-03 0.  1.
    9900012    2    1    2    0    0  0.40369849757E+02 -0.38397164952E+01 -0.29490411064E+01  0.50528867747E+02  0.30000024004E+02 0.  0.
         12    1    1    2    0    0 -0.40369849757E+02  0.38397164952E+01  0.29490411064E+01  0.40659132253E+02  0.00000000000E+00 0. -1.
         11    1    3    3    0    0  0.13186907466E+02 -0.10416254363E+02  0.43848756698E+01  0.17367211013E+02  0.51100000000E-03 0. -1.
        -11    1    3    3    0    0  0.13230658682E+02 -0.42486536213E+01  0.35603047848E+00  0.13900652672E+02  0.51100000000E-03 0.  1.
         12    1    3    3    0    0  0.13952283609E+02  0.10825191489E+02 -0.76899472547E+01  0.19261004062E+02  0.00000000000E+00 0. -1.
</event>
<event>
 7    1  0.2575978E-011  0.5052886E+02  0.7816164E-02  0.1300439E+00
        -11   -1    0    0    0    0  0.00000000000E+00  0.00000000000E+00  0.45593999997E+02  0.45594000000E+02  0.51100000000E-03 0.  1.
         11   -1    0    0    0    0 -0.00000000000E+00 -0.00000000000E+00 -0.45593999997E+02  0.45594000000E+02  0.51100000000E-03 0. -1.
    9900012    2    1    2    0    0 -0.60607619181E+01 -0.23451961135E+02  0.32656372581E+02  0.50528856056E+02  0.29999988468E+02 0.  0.
         12    1    1    2    0    0  0.60607619181E+01  0.23451961135E+02 -0.32656372581E+02  0.40659143944E+02  0.00000000000E+00 0. -1.
         11    1    3    3    0    0 -0.16731126268E+01  0.34904570769E+01  0.12562437792E+01  0.40694895455E+01  0.51100000000E-03 0. -1.
        -11    1    3    3    0    0 -0.89811612870E+01 -0.14407283586E+02  0.27897360592E+02  0.32657216762E+02  0.51100000000E-03 0.  1.
         12    1    3    3    0    0  0.45935119957E+01 -0.12535134626E+02  0.35027682097E+01  0.13802149748E+02  0.00000000000E+00 0. -1.
</event>
<event>
 7    1  0.2575978E-011  0.5052888E+02  0.7816164E-02  0.1300439E+00
        -11   -1    0    0    0    0  0.00000000000E+00  0.00000000000E+00  0.45593999997E+02  0.45594000000E+02  0.51100000000E-03 0.  1.
         11   -1    0    0    0    0 -0.00000000000E+00 -0.00000000000E+00 -0.45593999997E+02  0.45594000000E+02  0.51100000000E-03 0. -1.
    9900012    2    1    2    0    0  0.35737226122E+02 -0.22529003934E+01  0.19259781393E+02  0.50528879617E+02  0.30000060082E+02 0.  0.
         12    1    1    2    0    0 -0.35737226122E+02  0.22529003934E+01 -0.19259781393E+02  0.40659120383E+02  0.00000000000E+00 0. -1.
         11    1    3    3    0    0  0.17749363737E+02 -0.48349370133E+01  0.17281801601E+02  0.25240388187E+02  0.51100000000E-03 0.  1.
        -11    1    3    3    0    0  0.12331817453E+01 -0.50727337155E+01  0.42456152937E+01  0.67289385529E+01  0.51100000000E-03 0. -1.
        -12    1    3    3    0    0  0.16754680639E+02  0.76547703354E+01 -0.22676355017E+01  0.18559552877E+02  0.00000000000E+00 0.  1.
</event>
<event>
 7    1  0.2575978E-011  0.5052886E+02  0.7816164E-02  0.1300439E+00
        -11   -1    0    0    0    0  0.00000000000E+00  0.00000000000E+00  0.45593999997E+02  0.45594000000E+02  0.51100000000E-03 0.  1.
         11   -1    0    0    0    0 -0.00000000000E+00 -0.00000000000E+00 -0.45593999997E+02  0.45594000000E+02  0.51100000000E-03 0. -1.
    9900012    2    1    2    0    0 -0.13907393068E+01  0.89880961843E+01  0.39628845271E+02  0.50528863188E+02  0.30000010145E+02 0.  0.
         12    1    1    2    0    0  0.13907393068E+01 -0.89880961843E+01 -0.39628845271E+02  0.40659136812E+02  0.00000000000E+00 0. -1.
         11    1    3    3    0    0  0.58038711798E+01  0.11823381500E+02  0.46262716325E+01  0.13959930524E+02  0.51100000000E-03 0. -1.
        -11    1    3    3    0    0 -0.21453193046E+01 -0.45785689523E+01  0.13590457340E+02  0.14500559284E+02  0.51100000000E-03 0.  1.
        -12    1    3    3    0    0 -0.50492911820E+01  0.17432836371E+01  0.21412116298E+02  0.22068373380E+02  0.00000000000E+00 0.  1.
</event>
<event>
 7    1  0.2575978E-011  0.5052872E+02  0.7816164E-02  0.1300439E+00
        -11   -1    0    0    0    0  0.00000000000E+00  0.00000000000E+00  0.45593999997E+02  0.45594000000E+02  0.51100000000E-03 0.  1.
         11   -1    0    0    0    0 -0.00000000000E+00 -0.00000000000E+00 -0.45593999997E+02  0.45594000000E+02  0.51100000000E-03 0. -1.
    9900012    2    1    2    0    0  0.15395628611E+02 -0.28429815478E+02  0.24655572258E+02  0.50528720225E+02  0.29999575594E+02 0.  0.
         12    1    1    2    0    0 -0.15395628611E+02  0.28429815478E+02 -0.24655572258E+02  0.40659279775E+02  0.00000000000E+00 0. -1.
         11    1    3    3    0    0  0.99676353617E+01 -0.48692561430E+01  0.32683750441E+01  0.11564846985E+02  0.51100000000E-03 0. -1.
        -11    1    3    3    0    0  0.69167234358E+01 -0.42428119750E+01  0.17377008448E+02  0.19178189159E+02  0.51100000000E-03 0.  1.
        -12    1    3    3    0    0 -0.14887301869E+01 -0.19317747360E+02  0.40101887655E+01  0.19785684082E+02  0.00000000000E+00 0.  1.
</event>
<event>
 7    1  0.2575978E-011  0.5052886E+02  0.7816164E-02  0.1300439E+00
        -11   -1    0    0    0    0  0.00000000000E+00  0.00000000000E+00  0.45593999997E+02  0.45594000000E+02  0.51100000000E-03 0. -1.
         11   -1    0    0    0    0 -0.00000000000E+00 -0.00000000000E+00 -0.45593999997E+02  0.45594000000E+02  0.51100000000E-03 0.  1.
    9900012    2    1    2    0    0  0.56702182759E+01 -0.36012141929E+02 -0.18003882924E+02  0.50528861520E+02  0.30000005075E+02 0.  0.
         12    1    1    2    0    0 -0.56702182759E+01  0.36012141929E+02  0.18003882924E+02  0.40659138480E+02  0.00000000000E+00 0. -1.
         11    1    3    3    0    0  0.51090929630E+00 -0.47341451396E+01 -0.34471379693E+01  0.58784282723E+01  0.51100000000E-03 0. -1.
        -11    1    3    3    0    0  0.86249727303E+00 -0.35300179504E+02 -0.15718525471E+02  0.38651243419E+02  0.51100000000E-03 0.  1.
         12    1    3    3    0    0  0.42968117066E+01  0.40221827144E+01  0.11617805165E+01  0.59991898285E+01  0.00000000000E+00 0. -1.
</event>
<event>
 7    1  0.2575978E-011  0.5052886E+02  0.7816164E-02  0.1300439E+00
        -11   -1    0    0    0    0  0.00000000000E+00  0.00000000000E+00  0.45593999997E+02  0.45594000000E+02  0.51100000000E-03 0. -1.
         11   -1    0    0    0    0 -0.00000000000E+00 -0.00000000000E+00 -0.45593999997E+02  0.45594000000E+02  0.51100000000E-03 0.  1.
    9900012    2    1    2    0    0  0.26612801656E+02 -0.91933640474E+01 -0.29332692783E+02  0.50528855637E+02  0.29999987193E+02 0.  0.
         12    1    1    2    0    0 -0.26612801656E+02  0.91933640474E+01  0.29332692783E+02  0.40659144363E+02  0.00000000000E+00 0. -1.
         11    1    3    3    0    0 -0.19714597409E+01 -0.19867356791E+01 -0.63656485302E+01  0.69537941902E+01  0.51100000000E-03 0. -1.
        -11    1    3    3    0    0  0.64980200808E+00  0.56971542854E+01 -0.65264672209E+01  0.86876109632E+01  0.51100000000E-03 0.  1.
         12    1    3    3    0    0  0.27934459388E+02 -0.12903782654E+02 -0.16440577032E+02  0.34887450483E+02  0.00000000000E+00 0. -1.
</event>
<event>
 7    1  0.2575978E-011  0.5052887E+02  0.7816164E-02  0.1300439E+00
        -11   -1    0    0    0    0  0.00000000000E+00  0.00000000000E+00  0.45593999997E+02  0.45594000000E+02  0.51100000000E-03 0.  1.
         11   -1    0    0    0    0 -0.00000000000E+00 -0.00000000000E+00 -0.45593999997E+02  0.45594000000E+02  0.51100000000E-03 0. -1.
    9900012    2    1    2    0    0  0.29643756553E+02  0.10247241366E+02  0.25872898497E+02  0.50528866526E+02  0.30000020293E+02 0.  0.
         12    1    1    2    0    0 -0.29643756553E+02 -0.10247241366E+02 -0.25872898497E+02  0.40659133474E+02  0.00000000000E+00 0. -1.
         11    1    3    3    0    0  0.98291339552E+01 -0.63166529087E+01  0.11199901160E+02  0.16184862203E+02  0.51100000000E-03 0. -1.
        -11    1    3    3    0    0  0.15357866847E+02  0.25481720103E+01  0.11349998097E+02  0.19266024804E+02  0.51100000000E-03 0.  1.
        -12    1    3    3    0    0  0.44567557508E+01  0.14015722265E+02  0.33229992402E+01  0.15077979519E+02  0.00000000000E+00 0.  1.
</event>
<event>
 7    1  0.2575978E-011  0.5052887E+02  0.7816164E-02  0.1300439E+00
        -11   -1    0    0    0    0  0.00000000000E+00  0.00000000000E+00  0.45593999997E+02  0.45594000000E+02  0.51100000000E-03 0.  1.
         11   -1    0    0    0    0 -0.00000000000E+00 -0.00000000000E+00 -0.45593999997E+02  0.45594000000E+02  0.51100000000E-03 0. -1.
    9900012    2    1    2    0    0  0.14097630650E+02 -0.25542608386E+02  0.28319541685E+02  0.50528874649E+02  0.30000044983E+02 0.  0.
         12    1    1    2    0    0 -0.14097630650E+02  0.25542608386E+02 -0.28319541685E+02  0.40659125351E+02  0.00000000000E+00 0. -1.
         11    1    3    3    0    0 -0.67481233300E+01 -0.26389791330E+01  0.12504154027E+02  0.14451825059E+02  0.51100000000E-03 0. -1.
        -11    1    3    3    0    0  0.38141437465E+01 -0.59268862287E+00  0.11633393495E-02  0.38599189030E+01  0.51100000000E-03 0.  1.
        -12    1    3    3    0    0  0.17031610233E+02 -0.22310940630E+02  0.15814224319E+02  0.32217130687E+02  0.00000000000E+00 0.  1.
</event>
<event>
 7    1  0.2575978E-011  0.5052886E+02  0.7816164E-02  0.1300439E+00
        -11   -1    0    0    0    0  0.00000000000E+00  0.00000000000E+00  0.45593999997E+02  0.45594000000E+02  0.51100000000E-03 0.  1.
         11   -1    0    0    0    0 -0.00000000000E+00 -0.00000000000E+00 -0.45593999997E+02  0.45594000000E+02  0.51100000000E-03 0. -1.
    9900012    2    1    2    0    0  0.11562339171E+01 -0.20481172643E+02  0.35104844573E+02  0.50528862993E+02  0.30000009553E+02 0.  0.
         12    1    1    2    0    0 -0.11562339171E+01  0.20481172643E+02 -0.35104844573E+02  0.40659137007E+02  0.00000000000E+00 0. -1.
         11    1    3    3    0    0  0.26499181544E+01 -0.87724716153E+01  0.15320064409E+02  0.17851686145E+02  0.51100000000E-03 0.  1.
        -11    1    3    3    0    0  0.99440614738E+00 -0.10217306683E+02 -0.22026371243E+01  0.10499229020E+02  0.51100000000E-03 0. -1.
         12    1    3    3    0    0 -0.24880903847E+01 -0.14913943444E+01  0.21987417288E+02  0.22177947828E+02  0.00000000000E+00 0. -1.
</event>
<event>
 7    1  0.2575978E-011  0.5052886E+02  0.7816164E-02  0.1300439E+00
        -11   -1    0    0    0    0  0.00000000000E+00  0.00000000000E+00  0.45593999997E+02  0.45594000000E+02  0.51100000000E-03 0. -1.
         11   -1    0    0    0    0 -0.00000000000E+00 -0.00000000000E+00 -0.45593999997E+02  0.45594000000E+02  0.51100000000E-03 0.  1.
    9900012    2    1    2    0    0  0.19430232976E+02  0.30421051663E+02 -0.18713392866E+02  0.50528863138E+02  0.30000009995E+02 0.  0.
         12    1    1    2    0    0 -0.19430232976E+02 -0.30421051663E+02  0.18713392866E+02  0.40659136862E+02  0.00000000000E+00 0. -1.
         11    1    3    3    0    0  0.63742045620E+01 -0.81917756413E+00  0.20708916713E+01  0.67520462273E+01  0.51100000000E-03 0. -1.
        -11    1    3    3    0    0 -0.14341288081E+01 -0.18016542799E+01 -0.40041840684E+00  0.23373101515E+01  0.51100000000E-03 0.  1.
        -12    1    3    3    0    0  0.14490157222E+02  0.33041883507E+02 -0.20383866131E+02  0.41439506759E+02  0.00000000000E+00 0.  1.
</event>
<event>
 7    1  0.2575978E-011  0.5052884E+02  0.7816164E-02  0.1300439E+00
        -11   -1    0    0    0    0  0.00000000000E+00  0.00000000000E+00  0.45593999997E+02  0.45594000000E+02  0.51100000000E-03 0.  1.
         11   -1    0    0    0    0 -0.00000000000E+00 -0.00000000000E+00 -0.45593999997E+02  0.45594000000E+02  0.51100000000E-03 0. -1.
    9900012    2    1    2    0    0  0.15890321505E+02  0.35846776543E+02  0.10755179475E+02  0.50528836314E+02  0.29999928460E+02 0.  0.
         12    1    1    2    0    0 -0.15890321505E+02 -0.35846776543E+02 -0.10755179475E+02  0.40659163686E+02  0.00000000000E+00 0. -1.
         11    1    3    3    0    0  0.30122926911E+01  0.83902864534E+01  0.10008365615E+02  0.13402917465E+02  0.51100000000E-03 0. -1.
        -11    1    3    3    0    0  0.32602466700E+01  0.11821586567E+02  0.10673594586E+02  0.16257451798E+02  0.51100000000E-03 0.  1.
         12    1    3    3    0    0  0.96177821435E+01  0.15634903523E+02 -0.99267807248E+01  0.20868467052E+02  0.00000000000E+00 0. -1.
</event>
<event>
 7    1  0.2575978E-011  0.5052890E+02  0.7816164E-02  0.1300439E+00
        -11   -1    0    0    0    0  0.00000000000E+00  0.00000000000E+00  0.45593999997E+02  0.45594000000E+02  0.51100000000E-03 0.  1.
         11   -1    0    0    0    0 -0.00000000000E+00 -0.00000000000E+00 -0.45593999997E+02  0.45594000000E+02  0.51100000000E-03 0. -1.
    9900012    2    1    2    0    0  0.26396821168E+02 -0.58614209433E+01  0.30364685964E+02  0.50528897981E+02  0.30000115904E+02 0.  0.
         12    1    1    2    0    0 -0.26396821168E+02  0.58614209433E+01 -0.30364685964E+02  0.40659102019E+02  0.00000000000E+00 0. -1.
         11    1    3    3    0    0  0.37034137987E+01 -0.23834821102E+01  0.12065254480E+02  0.12843933457E+02  0.51100000000E-03 0. -1.
        -11    1    3    3    0    0  0.13642485073E+02 -0.12703323148E+02  0.15983253565E+02  0.24555166722E+02  0.51100000000E-03 0.  1.
         12    1    3    3    0    0  0.90509222967E+01  0.92253843147E+01  0.23161779199E+01  0.13129797802E+02  0.00000000000E+00 0. -1.
</event>
<event>
 7    1  0.2575978E-011  0.5052886E+02  0.7816164E-02  0.1300439E+00
        -11   -1    0    0    0    0  0.00000000000E+00  0.00000000000E+00  0.45593999997E+02  0.45594000000E+02  0.51100000000E-03 0.  1.
         11   -1    0    0    0    0 -0.00000000000E+00 -0.00000000000E+00 -0.45593999997E+02  0.45594000000E+02  0.51100000000E-03 0. -1.
    9900012    2    1    2    0    0 -0.33640167728E+02  0.10842973909E+02  0.20098123281E+02  0.50528861699E+02  0.30000005619E+02 0.  0.
         12    1    1    2    0    0  0.33640167728E+02 -0.10842973909E+02 -0.20098123281E+02  0.40659138301E+02  0.00000000000E+00 0. -1.
         11    1    3    3    0    0  0.96669152720E+00  0.31548084224E+00 -0.15102774091E+00  0.10280225242E+01  0.51100000000E-03 0. -1.
        -11    1    3    3    0    0  0.32742314429E+01 -0.30599958038E+01  0.72738709657E-01  0.44821263973E+01  0.51100000000E-03 0.  1.
        -12    1    3    3    0    0 -0.37881090698E+02  0.13587488871E+02  0.20176412312E+02  0.45018712777E+02  0.00000000000E+00 0.  1.
</event>
<event>
 7    1  0.2575978E-011  0.5052886E+02  0.7816164E-02  0.1300439E+00
        -11   -1    0    0    0    0  0.00000000000E+00  0.00000000000E+00  0.45593999997E+02  0.45594000000E+02  0.51100000000E-03 0.  1.
         11   -1    0    0    0    0 -0.00000000000E+00 -0.00000000000E+00 -0.45593999997E+02  0.45594000000E+02  0.51100000000E-03 0. -1.
    9900012    2    1    2    0    0 -0.67084739897E+01 -0.38833645400E+02 -0.10005482697E+02  0.50528864220E+02  0.30000013284E+02 0.  0.
         12    1    1    2    0    0  0.67084739897E+01  0.38833645400E+02  0.10005482697E+02  0.40659135780E+02  0.00000000000E+00 0. -1.
         11    1    3    3    0    0 -0.17264528418E+01 -0.19128885972E+02 -0.45972421509E+01  0.19749165896E+02  0.51100000000E-03 0. -1.
        -11    1    3    3    0    0  0.49546240216E+01 -0.19752134909E+02 -0.36489661986E+01  0.20688404657E+02  0.51100000000E-03 0.  1.
         12    1    3    3    0    0 -0.99366451695E+01  0.47375480350E-01 -0.17592743470E+01  0.10091293668E+02  0.00000000000E+00 0. -1.
</event>
<event>
 7    1  0.2575978E-011  0.5052885E+02  0.7816164E-02  0.1300439E+00
        -11   -1    0    0    0    0  0.00000000000E+00  0.00000000000E+00  0.45593999997E+02  0.45594000000E+02  0.51100000000E-03 0.  1.
         11   -1    0    0    0    0 -0.00000000000E+00 -0.00000000000E+00 -0.45593999997E+02  0.45594000000E+02  0.51100000000E-03 0. -1.
    9900012    2    1    2    0    0  0.22386640070E+02  0.33858453309E+02 -0.23684800081E+01  0.50528853284E+02  0.29999980043E+02 0.  0.
         12    1    1    2    0    0 -0.22386640070E+02 -0.33858453309E+02  0.23684800081E+01  0.40659146716E+02  0.00000000000E+00 0. -1.
         11    1    3    3    0    0  0.83471631000E+01  0.17745772228E+01  0.48603917518E+01  0.98207771780E+01  0.51100000000E-03 0. -1.
        -11    1    3    3    0    0  0.35175759980E+01  0.94216628164E+01  0.67170859701E+01  0.12093813101E+02  0.51100000000E-03 0.  1.
         12    1    3    3    0    0  0.10521900972E+02  0.22662213270E+02 -0.13945957730E+02  0.28614263006E+02  0.00000000000E+00 0. -1.
</event>
<event>
 7    1  0.2575978E-011  0.5052886E+02  0.7816164E-02  0.1300439E+00
        -11   -1    0    0    0    0  0.00000000000E+00  0.00000000000E+00  0.45593999997E+02  0.45594000000E+02  0.51100000000E-03 0. -1.
         11   -1    0    0    0    0 -0.00000000000E+00 -0.00000000000E+00 -0.45593999997E+02  0.45594000000E+02  0.51100000000E-03 0.  1.
    9900012    2    1    2    0    0 -0.83980352210E+01  0.67946727041E+01 -0.39197846191E+02  0.50528859346E+02  0.29999998469E+02 0.  0.
         12    1    1    2    0    0  0.83980352210E+01 -0.67946727041E+01  0.39197846191E+02  0.40659140654E+02  0.00000000000E+00 0. -1.
         11    1    3    3    0    0 -0.61510783864E+01 -0.10826123781E+00 -0.22280868650E+02  0.23114596987E+02  0.51100000000E-03 0. -1.
        -11    1    3    3    0    0 -0.18389733342E+01  0.14135767403E+02 -0.12263112605E+02  0.18803873910E+02  0.51100000000E-03 0.  1.
         12    1    3    3    0    0 -0.40798350036E+00 -0.72328334609E+01 -0.46538649352E+01  0.86103884491E+01  0.00000000000E+00 0. -1.
</event>
<event>
 7    1  0.2575978E-011  0.5052886E+02  0.7816164E-02  0.1300439E+00
        -11   -1    0    0    0    0  0.00000000000E+00  0.00000000000E+00  0.45593999997E+02  0.45594000000E+02  0.51100000000E-03 0.  1.
         11   -1    0    0    0    0 -0.00000000000E+00 -0.00000000000E+00 -0.45593999997E+02  0.45594000000E+02  0.51100000000E-03 0. -1.
    9900012    2    1    2    0    0 -0.34612870210E+02 -0.70554472115E+01  0.20132948207E+02  0.50528859293E+02  0.29999998307E+02 0.  0.
         12    1    1    2    0    0  0.34612870210E+02  0.70554472115E+01 -0.20132948207E+02  0.40659140707E+02  0.00000000000E+00 0. -1.
         11    1    3    3    0    0  0.73228758984E+00 -0.12682868575E+01  0.89002273050E+01  0.90199136919E+01  0.51100000000E-03 0. -1.
        -11    1    3    3    0    0 -0.20345637289E+02 -0.93157498293E+01  0.13191716189E+02  0.25975941327E+02  0.51100000000E-03 0.  1.
        -12    1    3    3    0    0 -0.14999520511E+02  0.35285894753E+01 -0.19589952868E+01  0.15533004274E+02  0.00000000000E+00 0.  1.
</event>
<event>
 7    1  0.2575978E-011  0.5052881E+02  0.7816164E-02  0.1300439E+00
        -11   -1    0    0    0    0  0.00000000000E+00  0.00000000000E+00  0.45593999997E+02  0.45594000000E+02  0.51100000000E-03 0.  1.
         11   -1    0    0    0    0 -0.00000000000E+00 -0.00000000000E+00 -0.45593999997E+02  0.45594000000E+02  0.51100000000E-03 0. -1.
    9900012    2    1    2    0    0 -0.16296689959E+02  0.19591226005E+02  0.31682356979E+02  0.50528806897E+02  0.29999839043E+02 0.  0.
         12    1    1    2    0    0  0.16296689959E+02 -0.19591226005E+02 -0.31682356979E+02  0.40659193103E+02  0.00000000000E+00 0. -1.
         11    1    3    3    0    0 -0.20491388463E+01  0.54565706315E+01  0.12908363723E+02  0.14163297191E+02  0.51100000000E-03 0.  1.
        -11    1    3    3    0    0  0.60891194801E+01  0.54392219694E+01  0.90966298275E+01  0.12223386853E+02  0.51100000000E-03 0. -1.
        -12    1    3    3    0    0 -0.20336670593E+02  0.86954334044E+01  0.96773634294E+01  0.24142122853E+02  0.00000000000E+00 0.  1.
</event>
<event>
 7    1  0.2575978E-011  0.5052886E+02  0.7816164E-02  0.1300439E+00
        -11   -1    0    0    0    0  0.00000000000E+00  0.00000000000E+00  0.45593999997E+02  0.45594000000E+02  0.51100000000E-03 0. -1.
         11   -1    0    0    0    0 -0.00000000000E+00 -0.00000000000E+00 -0.45593999997E+02  0.45594000000E+02  0.51100000000E-03 0.  1.
    9900012    2    1    2    0    0  0.87541087599E+01  0.30611291699E+02 -0.25287940154E+02  0.50528861828E+02  0.30000006012E+02 0.  0.
         12    1    1    2    0    0 -0.87541087599E+01 -0.30611291699E+02  0.25287940154E+02  0.40659138172E+02  0.00000000000E+00 0. -1.
         11    1    3    3    0    0 -0.11116591780E+01 -0.57455978648E+00  0.39554009085E+01  0.41486264817E+01  0.51100000000E-03 0. -1.
        -11    1    3    3    0    0  0.88578900414E+01  0.62709540344E+01 -0.66275985865E+01  0.12716608973E+02  0.51100000000E-03 0.  1.
        -12    1    3    3    0    0  0.10078778966E+01  0.24914897452E+02 -0.22615742476E+02  0.33663626373E+02  0.00000000000E+00 0.  1.
</event>
<event>
 7    1  0.2575978E-011  0.5052886E+02  0.7816164E-02  0.1300439E+00
        -11   -1    0    0    0    0  0.00000000000E+00  0.00000000000E+00  0.45593999997E+02  0.45594000000E+02  0.51100000000E-03 0.  1.
         11   -1    0    0    0    0 -0.00000000000E+00 -0.00000000000E+00 -0.45593999997E+02  0.45594000000E+02  0.51100000000E-03 0. -1.
    9900012    2    1    2    0    0 -0.29529907955E+02 -0.15186682792E+02  0.23463050164E+02  0.50528861777E+02  0.30000005857E+02 0.  0.
         12    1    1    2    0    0  0.29529907955E+02  0.15186682792E+02 -0.23463050164E+02  0.40659138223E+02  0.00000000000E+00 0. -1.
         11    1    3    3    0    0  0.91563676130E+00  0.20154184425E+00  0.19940107748E+01  0.22034266552E+01  0.51100000000E-03 0. -1.
        -11    1    3    3    0    0 -0.77871719456E+01 -0.17484016332E+02  0.15940324682E+02  0.24908328431E+02  0.51100000000E-03 0.  1.
        -12    1    3    3    0    0 -0.22658372770E+02  0.20957916959E+01  0.55287147075E+01  0.23417106691E+02  0.00000000000E+00 0.  1.
</event>
<event>
 7    1  0.2575978E-011  0.5052886E+02  0.7816164E-02  0.1300439E+00
        -11   -1    0    0    0    0  0.00000000000E+00  0.00000000000E+00  0.45593999997E+02  0.45594000000E+02  0.51100000000E-03 0.  1.
         11   -1    0    0    0    0 -0.00000000000E+00 -0.00000000000E+00 -0.45593999997E+02  0.45594000000E+02  0.51100000000E-03 0. -1.
    9900012    2    1    2    0    0 -0.75497202507E+01 -0.22586231464E+02  0.32954960264E+02  0.50528861623E+02  0.30000005388E+02 0.  0.
         12    1    1    2    0    0  0.75497202507E+01  0.22586231464E+02 -0.32954960264E+02  0.40659138377E+02  0.00000000000E+00 0. -1.
         11    1    3    3    0    0  0.54251514529E+01 -0.16257176334E+02  0.15483236123E+02  0.23096723832E+02  0.51100000000E-03 0. -1.
        -11    1    3    3    0    0 -0.32903292914E+00  0.82031694004E+00  0.11806686691E+02  0.11839722692E+02  0.51100000000E-03 0.  1.
         12    1    3    3    0    0 -0.12645838775E+02 -0.71493720703E+01  0.56650374497E+01  0.15592415099E+02  0.00000000000E+00 0. -1.
</event>
<event>
 7    1  0.2575978E-011  0.5052886E+02  0.7816164E-02  0.1300439E+00
        -11   -1    0    0    0    0  0.00000000000E+00  0.00000000000E+00  0.45593999997E+02  0.45594000000E+02  0.51100000000E-03 0.  1.
         11   -1    0    0    0    0 -0.00000000000E+00 -0.00000000000E+00 -0.45593999997E+02  0.45594000000E+02  0.51100000000E-03 0. -1.
    9900012    2    1    2    0    0  0.38821050342E+02 -0.11521151983E+02  0.36544581328E+01  0.50528856417E+02  0.29999989565E+02 0.  0.
         12    1    1    2    0    0 -0.38821050342E+02  0.11521151983E+02 -0.36544581328E+01  0.40659143583E+02  0.00000000000E+00 0. -1.
         11    1    3    3    0    0  0.21372941284E+01  0.50378902881E+01  0.41453426528E+01  0.68652917430E+01  0.51100000000E-03 0. -1.
        -11    1    3    3    0    0  0.24682145780E+02 -0.43611559293E+01  0.52607861823E+01  0.25610620314E+02  0.51100000000E-03 0.  1.
        -12    1    3    3    0    0  0.12001610434E+02 -0.12197886342E+02 -0.57516707023E+01  0.18052944360E+02  0.00000000000E+00 0.  1.
</event>
<event>
 7    1  0.2575978E-011  0.5052886E+02  0.7816164E-02  0.1300439E+00
        -11   -1    0    0    0    0  0.00000000000E+00  0.00000000000E+00  0.45593999997E+02  0.45594000000E+02  0.51100000000E-03 0.  1.
         11   -1    0    0    0    0 -0.00000000000E+00 -0.00000000000E+00 -0.45593999997E+02  0.45594000000E+02  0.51100000000E-03 0. -1.
    9900012    2    1    2    0    0  0.20125331305E+02  0.41019275995E+01  0.35090035426E+02  0.50528863802E+02  0.30000012013E+02 0.  0.
         12    1    1    2    0    0 -0.20125331305E+02 -0.41019275995E+01 -0.35090035426E+02  0.40659136198E+02  0.00000000000E+00 0. -1.
         11    1    3    3    0    0 -0.28517906810E+01  0.33585898307E+01 -0.11679970235E+01  0.45581852800E+01  0.51100000000E-03 0. -1.
        -11    1    3    3    0    0  0.37270233238E+01 -0.55190872593E+01  0.16006448089E+02  0.17336591583E+02  0.51100000000E-03 0.  1.
        -12    1    3    3    0    0  0.19250098662E+02  0.62624250282E+01  0.20251584361E+02  0.28634086939E+02  0.00000000000E+00 0.  1.
</event>
<event>
 7    1  0.2575978E-011  0.5052877E+02  0.7816164E-02  0.1300439E+00
        -11   -1    0    0    0    0  0.00000000000E+00  0.00000000000E+00  0.45593999997E+02  0.45594000000E+02  0.51100000000E-03 0.  1.
         11   -1    0    0    0    0 -0.00000000000E+00 -0.00000000000E+00 -0.45593999997E+02  0.45594000000E+02  0.51100000000E-03 0. -1.
    9900012    2    1    2    0    0  0.26145465448E+02  0.25689455443E+02  0.17596571683E+02  0.50528772026E+02  0.29999733050E+02 0.  0.
         12    1    1    2    0    0 -0.26145465448E+02 -0.25689455443E+02 -0.17596571683E+02  0.40659227974E+02  0.00000000000E+00 0. -1.
         11    1    3    3    0    0 -0.22898567059E+01 -0.10819558708E+01  0.42525431629E+01  0.49495652186E+01  0.51100000000E-03 0. -1.
        -11    1    3    3    0    0  0.38334278564E+01 -0.26353609654E+01 -0.78555702716E+00  0.47177745444E+01  0.51100000000E-03 0.  1.
        -12    1    3    3    0    0  0.24601894297E+02  0.29406772279E+02  0.14129585547E+02  0.40861432263E+02  0.00000000000E+00 0.  1.
</event>
<event>
 7    1  0.2575978E-011  0.5052886E+02  0.7816164E-02  0.1300439E+00
        -11   -1    0    0    0    0  0.00000000000E+00  0.00000000000E+00  0.45593999997E+02  0.45594000000E+02  0.51100000000E-03 0.  1.
         11   -1    0    0    0    0 -0.00000000000E+00 -0.00000000000E+00 -0.45593999997E+02  0.45594000000E+02  0.51100000000E-03 0. -1.
    9900012    2    1    2    0    0 -0.13428235391E+01  0.13519432097E+02  0.38322157171E+02  0.50528856508E+02  0.29999989842E+02 0.  0.
         12    1    1    2    0    0  0.13428235391E+01 -0.13519432097E+02 -0.38322157171E+02  0.40659143492E+02  0.00000000000E+00 0. -1.
         11    1    3    3    0    0 -0.45123883633E+00  0.15445569853E+02  0.18771866331E+02  0.24313621910E+02  0.51100000000E-03 0. -1.
        -11    1    3    3    0    0  0.42219047650E+01  0.47260785929E+01  0.15802420332E+02  0.17025768332E+02  0.51100000000E-03 0.  1.
         12    1    3    3    0    0 -0.51134894678E+01 -0.66522163494E+01  0.37478705086E+01  0.91894662656E+01  0.00000000000E+00 0. -1.
</event>
<event>
 7    1  0.2575978E-011  0.5052886E+02  0.7816164E-02  0.1300439E+00
        -11   -1    0    0    0    0  0.00000000000E+00  0.00000000000E+00  0.45593999997E+02  0.45594000000E+02  0.51100000000E-03 0. -1.
         11   -1    0    0    0    0 -0.00000000000E+00 -0.00000000000E+00 -0.45593999997E+02  0.45594000000E+02  0.51100000000E-03 0.  1.
    9900012    2    1    2    0    0 -0.70055188254E+01  0.37631635754E+02 -0.13709424381E+02  0.50528860555E+02  0.30000002143E+02 0.  0.
         12    1    1    2    0    0  0.70055188254E+01 -0.37631635754E+02  0.13709424381E+02  0.40659139445E+02  0.00000000000E+00 0. -1.
         11    1    3    3    0    0 -0.95849456784E+01  0.19826441226E+02 -0.16226399597E+02  0.27354250118E+02  0.51100000000E-03 0. -1.
        -11    1    3    3    0    0  0.19212908335E+01  0.11735682999E+02 -0.54963026482E+01  0.13100647197E+02  0.51100000000E-03 0.  1.
         12    1    3    3    0    0  0.65813601958E+00  0.60695115290E+01  0.80132778652E+01  0.10073963240E+02  0.00000000000E+00 0. -1.
</event>
<event>
 7    1  0.2575978E-011  0.5052886E+02  0.7816164E-02  0.1300439E+00
        -11   -1    0    0    0    0  0.00000000000E+00  0.00000000000E+00  0.45593999997E+02  0.45594000000E+02  0.51100000000E-03 0. -1.
         11   -1    0    0    0    0 -0.00000000000E+00 -0.00000000000E+00 -0.45593999997E+02  0.45594000000E+02  0.51100000000E-03 0.  1.
    9900012    2    1    2    0    0  0.12066516303E+02 -0.12742373312E+02 -0.36676928680E+02  0.50528856001E+02  0.29999988301E+02 0.  0.
         12    1    1    2    0    0 -0.12066516303E+02  0.12742373312E+02  0.36676928680E+02  0.40659143999E+02  0.00000000000E+00 0. -1.
         11    1    3    3    0    0 -0.16453593104E+01  0.20317600967E+01 -0.23961295931E+01  0.35463634386E+01  0.51100000000E-03 0. -1.
        -11    1    3    3    0    0  0.94951013511E+00  0.85853246011E+00 -0.24541093315E+02  0.24574456430E+02  0.51100000000E-03 0.  1.
         12    1    3    3    0    0  0.12762365479E+02 -0.15632665869E+02 -0.97397057718E+01  0.22408036132E+02  0.00000000000E+00 0. -1.
</event>
<event>
 7    1  0.2575978E-011  0.5052886E+02  0.7816164E-02  0.1300439E+00
        -11   -1    0    0    0    0  0.00000000000E+00  0.00000000000E+00  0.45593999997E+02  0.45594000000E+02  0.51100000000E-03 0. -1.
         11   -1    0    0    0    0 -0.00000000000E+00 -0.00000000000E+00 -0.45593999997E+02  0.45594000000E+02  0.51100000000E-03 0.  1.
    9900012    2    1    2    0    0 -0.39454004889E+01  0.40454611665E+02 -0.10120056757E+01  0.50528856557E+02  0.29999989991E+02 0.  0.
         12    1    1    2    0    0  0.39454004889E+01 -0.40454611665E+02  0.10120056757E+01  0.40659143443E+02  0.00000000000E+00 0. -1.
         11    1    3    3    0    0  0.73811351794E+01  0.17139737904E+02 -0.92150191110E+00  0.18684243040E+02  0.51100000000E-03 0. -1.
        -11    1    3    3    0    0  0.27628191332E+01  0.14070153448E+02  0.31588012467E+01  0.14682656884E+02  0.51100000000E-03 0.  1.
        -12    1    3    3    0    0 -0.14089354802E+02  0.92447203135E+01 -0.32493050113E+01  0.17161956632E+02  0.00000000000E+00 0.  1.
</event>
<event>
 7    1  0.2575978E-011  0.5052888E+02  0.7816164E-02  0.1300439E+00
        -11   -1    0    0    0    0  0.00000000000E+00  0.00000000000E+00  0.45593999997E+02  0.45594000000E+02  0.51100000000E-03 0.  1.
         11   -1    0    0    0    0 -0.00000000000E+00 -0.00000000000E+00 -0.45593999997E+02  0.45594000000E+02  0.51100000000E-03 0. -1.
    9900012    2    1    2    0    0  0.45360341986E+01  0.86200575394E+01  0.39475090273E+02  0.50528883553E+02  0.30000072047E+02 0.  0.
         12    1    1    2    0    0 -0.45360341986E+01 -0.86200575394E+01 -0.39475090273E+02  0.40659116447E+02  0.00000000000E+00 0. -1.
         11    1    3    3    0    0  0.10017135683E+02  0.30728643844E+00  0.44771577421E+01  0.10976446327E+02  0.51100000000E-03 0.  1.
        -11    1    3    3    0    0 -0.20869965905E+01  0.10882920616E+02  0.12713456939E+02  0.16864919316E+02  0.51100000000E-03 0. -1.
        -12    1    3    3    0    0 -0.33941048942E+01 -0.25701495154E+01  0.22284475591E+02  0.22687517911E+02  0.00000000000E+00 0.  1.
</event>
<event>
 7    1  0.2575978E-011  0.5052887E+02  0.7816164E-02  0.1300439E+00
        -11   -1    0    0    0    0  0.00000000000E+00  0.00000000000E+00  0.45593999997E+02  0.45594000000E+02  0.51100000000E-03 0.  1.
         11   -1    0    0    0    0 -0.00000000000E+00 -0.00000000000E+00 -0.45593999997E+02  0.45594000000E+02  0.51100000000E-03 0. -1.
    9900012    2    1    2    0    0  0.89116226887E+01 -0.36195616822E+02  0.16236546856E+02  0.50528866341E+02  0.30000019731E+02 0.  0.
         12    1    1    2    0    0 -0.89116226887E+01  0.36195616822E+02 -0.16236546856E+02  0.40659133659E+02  0.00000000000E+00 0. -1.
         11    1    3    3    0    0  0.62237412321E+01 -0.22482933439E+02  0.27784299919E+01  0.23493337873E+02  0.51100000000E-03 0. -1.
        -11    1    3    3    0    0  0.10319468028E+02 -0.10212746135E+02  0.56791671796E+01  0.15589885956E+02  0.51100000000E-03 0.  1.
         12    1    3    3    0    0 -0.76315865712E+01 -0.34999372487E+01  0.77789496840E+01  0.11445642513E+02  0.00000000000E+00 0. -1.
</event>
<event>
 7    1  0.2575978E-011  0.5052887E+02  0.7816164E-02  0.1300439E+00
        -11   -1    0    0    0    0  0.00000000000E+00  0.00000000000E+00  0.45593999997E+02  0.45594000000E+02  0.51100000000E-03 0.  1.
         11   -1    0    0    0    0 -0.00000000000E+00 -0.00000000000E+00 -0.45593999997E+02  0.45594000000E+02  0.51100000000E-03 0. -1.
    9900012    2    1    2    0    0  0.15553738803E+02 -0.27496680520E+02  0.25596459182E+02  0.50528868762E+02  0.30000027089E+02 0.  0.
         12    1    1    2    0    0 -0.15553738803E+02  0.27496680520E+02 -0.25596459182E+02  0.40659131238E+02  0.00000000000E+00 0. -1.
         11    1    3    3    0    0 -0.15774476939E+00  0.52245063625E+00 -0.90262840949E+00  0.10547873655E+01  0.51100000000E-03 0. -1.
        -11    1    3    3    0    0 -0.47916994124E+01 -0.77516158486E+01  0.16699765692E+02  0.19024460727E+02  0.51100000000E-03 0.  1.
        -12    1    3    3    0    0  0.20503182985E+02 -0.20267515308E+02  0.97993219001E+01  0.30449620670E+02  0.00000000000E+00 0.  1.
</event>
<event>
 7    1  0.2575978E-011  0.5052886E+02  0.7816164E-02  0.1300439E+00
        -11   -1    0    0    0    0  0.00000000000E+00  0.00000000000E+00  0.45593999997E+02  0.45594000000E+02  0.51100000000E-03 0. -1.
         11   -1    0    0    0    0 -0.00000000000E+00 -0.00000000000E+00 -0.45593999997E+02  0.45594000000E+02  0.51100000000E-03 0.  1.
    9900012    2    1    2    0    0 -0.70064075156E+01  0.31889023480E+02  0.24231511222E+02  0.50528859566E+02  0.29999999137E+02 0.  0.
         12    1    1    2    0    0  0.70064075156E+01 -0.31889023480E+02 -0.24231511222E+02  0.40659140434E+02  0.00000000000E+00 0. -1.
         11    1    3    3    0    0  0.30563249167E+01  0.18399959857E+02  0.65206954950E+00  0.18663462693E+02  0.51100000000E-03 0. -1.
        -11    1    3    3    0    0 -0.17039190428E+01  0.85358935640E+01  0.31741978347E+01  0.92650068103E+01  0.51100000000E-03 0.  1.
         12    1    3    3    0    0 -0.83588133895E+01  0.49531700584E+01  0.20405243837E+02  0.22600390062E+02  0.00000000000E+00 0. -1.
</event>
<event>
 7    1  0.2575978E-011  0.5052883E+02  0.7816164E-02  0.1300439E+00
        -11   -1    0    0    0    0  0.00000000000E+00  0.00000000000E+00  0.45593999997E+02  0.45594000000E+02  0.51100000000E-03 0. -1.
         11   -1    0    0    0    0 -0.00000000000E+00 -0.00000000000E+00 -0.45593999997E+02  0.45594000000E+02  0.51100000000E-03 0.  1.
    9900012    2    1    2    0    0 -0.72005964520E+01  0.23148843368E+02 -0.32641235497E+02  0.50528833834E+02  0.29999920922E+02 0.  0.
         12    1    1    2    0    0  0.72005964520E+01 -0.23148843368E+02  0.32641235497E+02  0.40659166166E+02  0.00000000000E+00 0. -1.
         11    1    3    3    0    0 -0.72634693520E+00  0.13706460881E+02 -0.11716945200E+02  0.18046646637E+02  0.51100000000E-03 0. -1.
        -11    1    3    3    0    0 -0.69894339633E+01  0.12512668088E+02 -0.34621193154E+01  0.14744670909E+02  0.51100000000E-03 0.  1.
         12    1    3    3    0    0  0.51518444654E+00 -0.30702856007E+01 -0.17462170982E+02  0.17737516288E+02  0.00000000000E+00 0. -1.
</event>
<event>
 7    1  0.2575978E-011  0.5052886E+02  0.7816164E-02  0.1300439E+00
        -11   -1    0    0    0    0  0.00000000000E+00  0.00000000000E+00  0.45593999997E+02  0.45594000000E+02  0.51100000000E-03 0.  1.
         11   -1    0    0    0    0 -0.00000000000E+00 -0.00000000000E+00 -0.45593999997E+02  0.45594000000E+02  0.51100000000E-03 0. -1.
    9900012    2    1    2    0    0  0.11542902756E+02  0.97344066840E+01  0.37751401744E+02  0.50528860668E+02  0.30000002488E+02 0.  0.
         12    1    1    2    0    0 -0.11542902756E+02 -0.97344066840E+01 -0.37751401744E+02  0.40659139332E+02  0.00000000000E+00 0. -1.
         11    1    3    3    0    0  0.43883536734E+01 -0.16522850857E+01  0.73697800630E+01  0.87350645336E+01  0.51100000000E-03 0. -1.
        -11    1    3    3    0    0  0.16213211304E+02  0.33456788674E+01  0.16560216942E+02  0.23415861575E+02  0.51100000000E-03 0.  1.
         12    1    3    3    0    0 -0.90586622210E+01  0.80410129024E+01  0.13821404739E+02  0.18377934560E+02  0.00000000000E+00 0. -1.
</event>
<event>
 7    1  0.2575978E-011  0.5052889E+02  0.7816164E-02  0.1300439E+00
        -11   -1    0    0    0    0  0.00000000000E+00  0.00000000000E+00  0.45593999997E+02  0.45594000000E+02  0.51100000000E-03 0. -1.
         11   -1    0    0    0    0 -0.00000000000E+00 -0.00000000000E+00 -0.45593999997E+02  0.45594000000E+02  0.51100000000E-03 0.  1.
    9900012    2    1    2    0    0 -0.95019288356E+01 -0.38169057607E+02 -0.10295628821E+02  0.50528885609E+02  0.30000078297E+02 0.  0.
         12    1    1    2    0    0  0.95019288356E+01  0.38169057607E+02  0.10295628821E+02  0.40659114391E+02  0.00000000000E+00 0. -1.
         11    1    3    3    0    0 -0.69324368280E+01 -0.23500617684E+02 -0.28015094673E+01  0.24661430767E+02  0.51100000000E-03 0. -1.
        -11    1    3    3    0    0  0.37865128089E+01 -0.91271409855E+01  0.47792518060E+01  0.10976503537E+02  0.51100000000E-03 0.  1.
         12    1    3    3    0    0 -0.63560048164E+01 -0.55412989379E+01 -0.12273371159E+02  0.14890951305E+02  0.00000000000E+00 0. -1.
</event>
<event>
 7    1  0.2575978E-011  0.5052886E+02  0.7816164E-02  0.1300439E+00
        -11   -1    0    0    0    0  0.00000000000E+00  0.00000000000E+00  0.45593999997E+02  0.45594000000E+02  0.51100000000E-03 0.  1.
         11   -1    0    0    0    0 -0.00000000000E+00 -0.00000000000E+00 -0.45593999997E+02  0.45594000000E+02  0.51100000000E-03 0. -1.
    9900012    2    1    2    0    0  0.21306174224E+02 -0.24210766642E+02  0.24759878422E+02  0.50528857598E+02  0.29999993154E+02 0.  0.
         12    1    1    2    0    0 -0.21306174224E+02  0.24210766642E+02 -0.24759878422E+02  0.40659142402E+02  0.00000000000E+00 0. -1.
         11    1    3    3    0    0  0.11390490439E+02 -0.16746371267E+02  0.64481367478E+01  0.21254709851E+02  0.51100000000E-03 0. -1.
        -11    1    3    3    0    0  0.66706162254E+01 -0.14004637759E+02  0.11784826044E+02  0.19480993936E+02  0.51100000000E-03 0.  1.
         12    1    3    3    0    0  0.32450675598E+01  0.65402423848E+01  0.65269156299E+01  0.97931538107E+01  0.00000000000E+00 0. -1.
</event>
<event>
 7    1  0.2575978E-011  0.5052887E+02  0.7816164E-02  0.1300439E+00
        -11   -1    0    0    0    0  0.00000000000E+00  0.00000000000E+00  0.45593999997E+02  0.45594000000E+02  0.51100000000E-03 0. -1.
         11   -1    0    0    0    0 -0.00000000000E+00 -0.00000000000E+00 -0.45593999997E+02  0.45594000000E+02  0.51100000000E-03 0.  1.
    9900012    2    1    2    0    0 -0.28886510910E+02  0.62691084677E+01 -0.27918322158E+02  0.50528868853E+02  0.30000027365E+02 0.  0.
         12    1    1    2    0    0  0.28886510910E+02 -0.62691084677E+01  0.27918322158E+02  0.40659131147E+02  0.00000000000E+00 0. -1.
         11    1    3    3    0    0 -0.15306175999E+02 -0.59239851688E+01 -0.31639423932E+01  0.16714758620E+02  0.51100000000E-03 0. -1.
        -11    1    3    3    0    0 -0.14887958266E+02  0.49752552027E+01 -0.17100444051E+02  0.23212704553E+02  0.51100000000E-03 0.  1.
        -12    1    3    3    0    0  0.13076233544E+01  0.72178384338E+01 -0.76539357139E+01  0.10601405681E+02  0.00000000000E+00 0.  1.
</event>
<event>
 7    1  0.2575978E-011  0.5052886E+02  0.7816164E-02  0.1300439E+00
        -11   -1    0    0    0    0  0.00000000000E+00  0.00000000000E+00  0.45593999997E+02  0.45594000000E+02  0.51100000000E-03 0.  1.
         11   -1    0    0    0    0 -0.00000000000E+00 -0.00000000000E+00 -0.45593999997E+02  0.45594000000E+02  0.51100000000E-03 0. -1.
    9900012    2    1    2    0    0  0.27409887307E+02 -0.31139663068E+01  0.29869161391E+02  0.50528861906E+02  0.30000006249E+02 0.  0.
         12    1    1    2    0    0 -0.27409887307E+02  0.31139663068E+01 -0.29869161391E+02  0.40659138094E+02  0.00000000000E+00 0. -1.
         11    1    3    3    0    0  0.32950993468E+01 -0.21951950297E+01  0.10294344361E+02  0.11029509826E+02  0.51100000000E-03 0. -1.
        -11    1    3    3    0    0  0.19115859438E+02 -0.96469038294E+01  0.20179841703E+02  0.29422862657E+02  0.51100000000E-03 0.  1.
        -12    1    3    3    0    0  0.49989285225E+01  0.87281325523E+01 -0.60502467219E+00  0.10076489422E+02  0.00000000000E+00 0.  1.
</event>
<event>
 7    1  0.2575978E-011  0.5052886E+02  0.7816164E-02  0.1300439E+00
        -11   -1    0    0    0    0  0.00000000000E+00  0.00000000000E+00  0.45593999997E+02  0.45594000000E+02  0.51100000000E-03 0. -1.
         11   -1    0    0    0    0 -0.00000000000E+00 -0.00000000000E+00 -0.45593999997E+02  0.45594000000E+02  0.51100000000E-03 0.  1.
    9900012    2    1    2    0    0  0.37868320981E+02  0.93536952178E+01  0.11474517688E+02  0.50528857064E+02  0.29999991530E+02 0.  0.
         12    1    1    2    0    0 -0.37868320981E+02 -0.93536952178E+01 -0.11474517688E+02  0.40659142936E+02  0.00000000000E+00 0. -1.
         11    1    3    3    0    0  0.24892438626E+01 -0.60563560479E+00  0.28730699372E+01  0.38493714576E+01  0.51100000000E-03 0. -1.
        -11    1    3    3    0    0  0.17223101261E+02 -0.36942276697E+01 -0.71766730206E+01  0.19020703747E+02  0.51100000000E-03 0.  1.
        -12    1    3    3    0    0  0.18155975857E+02  0.13653558492E+02  0.15778120772E+02  0.27658781859E+02  0.00000000000E+00 0.  1.
</event>
<event>
 7    1  0.2575978E-011  0.5052886E+02  0.7816164E-02  0.1300439E+00
        -11   -1    0    0    0    0  0.00000000000E+00  0.00000000000E+00  0.45593999997E+02  0.45594000000E+02  0.51100000000E-03 0. -1.
         11   -1    0    0    0    0 -0.00000000000E+00 -0.00000000000E+00 -0.45593999997E+02  0.45594000000E+02  0.51100000000E-03 0.  1.
    9900012    2    1    2    0    0  0.31380520006E+02 -0.18636891130E+01 -0.25786733976E+02  0.50528855615E+02  0.29999987129E+02 0.  0.
         12    1    1    2    0    0 -0.31380520006E+02  0.18636891130E+01  0.25786733976E+02  0.40659144385E+02  0.00000000000E+00 0. -1.
         11    1    3    3    0    0 -0.24968013146E+01 -0.37439338346E+00 -0.24736777611E+01  0.35345818900E+01  0.51100000000E-03 0. -1.
        -11    1    3    3    0    0  0.64739169834E+01 -0.56820064398E+01 -0.16241426108E+02  0.18384251972E+02  0.51100000000E-03 0.  1.
         12    1    3    3    0    0  0.27403404337E+02  0.41927107102E+01 -0.70716301066E+01  0.28610021753E+02  0.00000000000E+00 0. -1.
</event>
<event>
 7    1  0.2575978E-011  0.5052887E+02  0.7816164E-02  0.1300439E+00
        -11   -1    0    0    0    0  0.00000000000E+00  0.00000000000E+00  0.45593999997E+02  0.45594000000E+02  0.51100000000E-03 0.  1.
         11   -1    0    0    0    0 -0.00000000000E+00 -0.00000000000E+00 -0.45593999997E+02  0.45594000000E+02  0.51100000000E-03 0. -1.
    9900012    2    1    2    0    0 -0.17847793464E+02 -0.33898260287E+02  0.13620919239E+02  0.50528865443E+02  0.30000017001E+02 0.  0.
         12    1    1    2    0    0  0.17847793464E+02  0.33898260287E+02 -0.13620919239E+02  0.40659134557E+02  0.00000000000E+00 0. -1.
         11    1    3    3    0    0  0.85081382165E+00  0.48375732552E+00  0.61742557216E+00  0.11572034857E+01  0.51100000000E-03 0. -1.
        -11    1    3    3    0    0  0.34251099386E+01  0.27465865223E+01  0.15943160796E+01  0.46708628367E+01  0.51100000000E-03 0.  1.
         12    1    3    3    0    0 -0.22123717224E+02 -0.37128604135E+02  0.11409177587E+02  0.44700799121E+02  0.00000000000E+00 0. -1.
</event>
<event>
 7    1  0.2575978E-011  0.5052883E+02  0.7816164E-02  0.1300439E+00
        -11   -1    0    0    0    0  0.00000000000E+00  0.00000000000E+00  0.45593999997E+02  0.45594000000E+02  0.51100000000E-03 0.  1.
         11   -1    0    0    0    0 -0.00000000000E+00 -0.00000000000E+00 -0.45593999997E+02  0.45594000000E+02  0.51100000000E-03 0. -1.
    9900012    2    1    2    0    0 -0.22396363278E+02  0.85527768275E+00  0.33924020136E+02  0.50528834610E+02  0.29999923282E+02 0.  0.
         12    1    1    2    0    0  0.22396363278E+02 -0.85527768275E+00 -0.33924020136E+02  0.40659165390E+02  0.00000000000E+00 0. -1.
         11    1    3    3    0    0  0.78973762731E+00 -0.30903510270E+01  0.79317234603E+01  0.85490462802E+01  0.51100000000E-03 0. -1.
        -11    1    3    3    0    0 -0.13862915203E+00 -0.40243007284E+01 -0.22925661153E+01  0.46335811257E+01  0.51100000000E-03 0.  1.
        -12    1    3    3    0    0 -0.23047471753E+02  0.79699294381E+01  0.28284862791E+02  0.37346207205E+02  0.00000000000E+00 0.  1.
</event>
<event>
 7    1  0.2575978E-011  0.5052886E+02  0.7816164E-02  0.1300439E+00
        -11   -1    0    0    0    0  0.00000000000E+00  0.00000000000E+00  0.45593999997E+02  0.45594000000E+02  0.51100000000E-03 0.  1.
         11   -1    0    0    0    0 -0.00000000000E+00 -0.00000000000E+00 -0.45593999997E+02  0.45594000000E+02  0.51100000000E-03 0. -1.
    9900012    2    1    2    0    0 -0.21371752158E+01  0.72240836659E+00  0.40596505407E+02  0.50528860277E+02  0.30000001299E+02 0.  0.
         12    1    1    2    0    0  0.21371752158E+01 -0.72240836659E+00 -0.40596505407E+02  0.40659139723E+02  0.00000000000E+00 0. -1.
         11    1    3    3    0    0 -0.12580465345E+00 -0.46742657957E+01  0.23776853233E+02  0.24232278833E+02  0.51100000000E-03 0. -1.
        -11    1    3    3    0    0  0.83191168897E+01 -0.49730714955E-01  0.89200210319E+01  0.12197415892E+02  0.51100000000E-03 0.  1.
         12    1    3    3    0    0 -0.10330487452E+02  0.54464048772E+01  0.78996311421E+01  0.14099165552E+02  0.00000000000E+00 0. -1.
</event>
<event>
 7    1  0.2575978E-011  0.5052887E+02  0.7816164E-02  0.1300439E+00
        -11   -1    0    0    0    0  0.00000000000E+00  0.00000000000E+00  0.45593999997E+02  0.45594000000E+02  0.51100000000E-03 0.  1.
         11   -1    0    0    0    0 -0.00000000000E+00 -0.00000000000E+00 -0.45593999997E+02  0.45594000000E+02  0.51100000000E-03 0. -1.
    9900012    2    1    2    0    0  0.32359769654E+01  0.38508156725E+02  0.12641816961E+02  0.50528865512E+02  0.30000017209E+02 0.  0.
         12    1    1    2    0    0 -0.32359769654E+01 -0.38508156725E+02 -0.12641816961E+02  0.40659134488E+02  0.00000000000E+00 0. -1.
         11    1    3    3    0    0  0.46547837904E+01  0.23934916896E+02  0.18042224197E+02  0.30332641052E+02  0.51100000000E-03 0.  1.
        -11    1    3    3    0    0  0.38623283673E+01  0.26237201528E+01  0.21132640734E+01  0.51251705496E+01  0.51100000000E-03 0. -1.
         12    1    3    3    0    0 -0.52811351923E+01  0.11949519676E+02 -0.75136713096E+01  0.15071053910E+02  0.00000000000E+00 0. -1.
</event>
<event>
 7    1  0.2575978E-011  0.5052887E+02  0.7816164E-02  0.1300439E+00
        -11   -1    0    0    0    0  0.00000000000E+00  0.00000000000E+00  0.45593999997E+02  0.45594000000E+02  0.51100000000E-03 0.  1.
         11   -1    0    0    0    0 -0.00000000000E+00 -0.00000000000E+00 -0.45593999997E+02  0.45594000000E+02  0.51100000000E-03 0. -1.
    9900012    2    1    2    0    0  0.23526736642E+02 -0.23207051714E+02  0.23687350938E+02  0.50528865961E+02  0.30000018575E+02 0.  0.
         12    1    1    2    0    0 -0.23526736642E+02  0.23207051714E+02 -0.23687350938E+02  0.40659134039E+02  0.00000000000E+00 0. -1.
         11    1    3    3    0    0 -0.12787575862E+01 -0.24219205958E+01 -0.61112658299E+00  0.28061354740E+01  0.51100000000E-03 0. -1.
        -11    1    3    3    0    0  0.11440072076E+01  0.14683632300E+01 -0.41472630115E+01  0.45458369762E+01  0.51100000000E-03 0.  1.
        -12    1    3    3    0    0  0.23661487021E+02 -0.22253494349E+02  0.28445740533E+02  0.43176893511E+02  0.00000000000E+00 0.  1.
</event>
<event>
 7    1  0.2575978E-011  0.5052885E+02  0.7816164E-02  0.1300439E+00
        -11   -1    0    0    0    0  0.00000000000E+00  0.00000000000E+00  0.45593999997E+02  0.45594000000E+02  0.51100000000E-03 0.  1.
         11   -1    0    0    0    0 -0.00000000000E+00 -0.00000000000E+00 -0.45593999997E+02  0.45594000000E+02  0.51100000000E-03 0. -1.
    9900012    2    1    2    0    0 -0.20732542576E+02 -0.14390719212E+02  0.31878440255E+02  0.50528854975E+02  0.29999985183E+02 0.  0.
         12    1    1    2    0    0  0.20732542576E+02  0.14390719212E+02 -0.31878440255E+02  0.40659145025E+02  0.00000000000E+00 0. -1.
         11    1    3    3    0    0 -0.10311098049E+02  0.34207264661E+01  0.18816257751E+02  0.21727210326E+02  0.51100000000E-03 0. -1.
        -11    1    3    3    0    0 -0.57986268431E+01 -0.13940668950E+02  0.16081454781E+02  0.22058547372E+02  0.51100000000E-03 0.  1.
        -12    1    3    3    0    0 -0.46228176838E+01 -0.38707767274E+01 -0.30192722768E+01  0.67430972774E+01  0.00000000000E+00 0.  1.
</event>
<event>
 7    1  0.2575978E-011  0.5052886E+02  0.7816164E-02  0.1300439E+00
        -11   -1    0    0    0    0  0.00000000000E+00  0.00000000000E+00  0.45593999997E+02  0.45594000000E+02  0.51100000000E-03 0. -1.
         11   -1    0    0    0    0 -0.00000000000E+00 -0.00000000000E+00 -0.45593999997E+02  0.45594000000E+02  0.51100000000E-03 0.  1.
    9900012    2    1    2    0    0 -0.68389633562E+01  0.32137576755E+02 -0.23949326175E+02  0.50528862235E+02  0.30000007251E+02 0.  0.
         12    1    1    2    0    0  0.68389633562E+01 -0.32137576755E+02  0.23949326175E+02  0.40659137765E+02  0.00000000000E+00 0. -1.
         11    1    3    3    0    0  0.38728135164E+01 -0.39456569980E+01 -0.44172198069E+01  0.70766323038E+01  0.51100000000E-03 0. -1.
        -11    1    3    3    0    0 -0.26381604833E+01  0.10175329997E+01 -0.12601552315E+01  0.30956833833E+01  0.51100000000E-03 0.  1.
         12    1    3    3    0    0 -0.80736163894E+01  0.35065700754E+02 -0.18271951137E+02  0.40356546548E+02  0.00000000000E+00 0. -1.
</event>
<event>
 7    1  0.2575978E-011  0.5052886E+02  0.7816164E-02  0.1300439E+00
        -11   -1    0    0    0    0  0.00000000000E+00  0.00000000000E+00  0.45593999997E+02  0.45594000000E+02  0.51100000000E-03 0.  1.
         11   -1    0    0    0    0 -0.00000000000E+00 -0.00000000000E+00 -0.45593999997E+02  0.45594000000E+02  0.51100000000E-03 0. -1.
    9900012    2    1    2    0    0 -0.25631038962E+01  0.37574465765E+01  0.40403934476E+02  0.50528858008E+02  0.29999994402E+02 0.  0.
         12    1    1    2    0    0  0.25631038962E+01 -0.37574465765E+01 -0.40403934476E+02  0.40659141992E+02  0.00000000000E+00 0. -1.
         11    1    3    3    0    0  0.11430371881E+01 -0.64355044775E+01  0.24207022981E+02  0.25073934948E+02  0.51100000000E-03 0. -1.
        -11    1    3    3    0    0 -0.58679795441E+01  0.12290292998E+02  0.17498316122E+02  0.22173758212E+02  0.51100000000E-03 0.  1.
         12    1    3    3    0    0  0.21618384597E+01 -0.20973419436E+01 -0.13014046276E+01  0.32811648479E+01  0.00000000000E+00 0. -1.
</event>
<event>
 7    1  0.2575978E-011  0.5052884E+02  0.7816164E-02  0.1300439E+00
        -11   -1    0    0    0    0  0.00000000000E+00  0.00000000000E+00  0.45593999997E+02  0.45594000000E+02  0.51100000000E-03 0.  1.
         11   -1    0    0    0    0 -0.00000000000E+00 -0.00000000000E+00 -0.45593999997E+02  0.45594000000E+02  0.51100000000E-03 0. -1.
    9900012    2    1    2    0    0  0.33740065116E+02  0.51529682195E+01  0.22095752329E+02  0.50528839329E+02  0.29999937624E+02 0.  0.
         12    1    1    2    0    0 -0.33740065116E+02 -0.51529682195E+01 -0.22095752329E+02  0.40659160671E+02  0.00000000000E+00 0. -1.
         11    1    3    3    0    0  0.12044636332E+02  0.21523520110E+01  0.10853655241E+02  0.16355663114E+02  0.51100000000E-03 0.  1.
        -11    1    3    3    0    0  0.28262243402E+01 -0.92940924527E+01  0.41282363443E+01  0.10555095173E+02  0.51100000000E-03 0. -1.
         12    1    3    3    0    0  0.18869204444E+02  0.12294708661E+02  0.71138607434E+01  0.23618081042E+02  0.00000000000E+00 0. -1.
</event>
<event>
 7    1  0.2575978E-011  0.5052886E+02  0.7816164E-02  0.1300439E+00
        -11   -1    0    0    0    0  0.00000000000E+00  0.00000000000E+00  0.45593999997E+02  0.45594000000E+02  0.51100000000E-03 0. -1.
         11   -1    0    0    0    0 -0.00000000000E+00 -0.00000000000E+00 -0.45593999997E+02  0.45594000000E+02  0.51100000000E-03 0.  1.
    9900012    2    1    2    0    0  0.20708372421E+02 -0.11787095104E+02 -0.32945311171E+02  0.50528858008E+02  0.29999994402E+02 0.  0.
         12    1    1    2    0    0 -0.20708372421E+02  0.11787095104E+02  0.32945311171E+02  0.40659141992E+02  0.00000000000E+00 0. -1.
         11    1    3    3    0    0  0.12436987319E+00 -0.72667373774E+01 -0.18180285286E+02  0.19579165287E+02  0.51100000000E-03 0. -1.
        -11    1    3    3    0    0 -0.29708616681E+01  0.74721412127E+00 -0.15966424433E+01  0.34545065273E+01  0.51100000000E-03 0.  1.
        -12    1    3    3    0    0  0.23554864216E+02 -0.52675718480E+01 -0.13168383442E+02  0.27495186194E+02  0.00000000000E+00 0.  1.
</event>
<event>
 7    1  0.2575978E-011  0.5052886E+02  0.7816164E-02  0.1300439E+00
        -11   -1    0    0    0    0  0.00000000000E+00  0.00000000000E+00  0.45593999997E+02  0.45594000000E+02  0.51100000000E-03 0. -1.
         11   -1    0    0    0    0 -0.00000000000E+00 -0.00000000000E+00 -0.45593999997E+02  0.45594000000E+02  0.51100000000E-03 0.  1.
    9900012    2    1    2    0    0 -0.10409792994E+02 -0.10316597475E+00 -0.39303828944E+02  0.50528863228E+02  0.30000010269E+02 0.  0.
         12    1    1    2    0    0  0.10409792994E+02  0.10316597475E+00  0.39303828944E+02  0.40659136772E+02  0.00000000000E+00 0. -1.
         11    1    3    3    0    0  0.19649753471E+01 -0.47768153910E+00  0.78925602645E+00  0.21707678605E+01  0.51100000000E-03 0. -1.
        -11    1    3    3    0    0  0.72737685337E+00  0.96428973823E+01 -0.82995133676E+01  0.12743487333E+02  0.51100000000E-03 0.  1.
        -12    1    3    3    0    0 -0.13102145194E+02 -0.92683818180E+01 -0.31793571602E+02  0.35614608035E+02  0.00000000000E+00 0.  1.
</event>
<event>
 7    1  0.2575978E-011  0.5052884E+02  0.7816164E-02  0.1300439E+00
        -11   -1    0    0    0    0  0.00000000000E+00  0.00000000000E+00  0.45593999997E+02  0.45594000000E+02  0.51100000000E-03 0. -1.
         11   -1    0    0    0    0 -0.00000000000E+00 -0.00000000000E+00 -0.45593999997E+02  0.45594000000E+02  0.51100000000E-03 0.  1.
    9900012    2    1    2    0    0  0.49721855266E+01 -0.25073076518E+02 -0.31619380050E+02  0.50528843716E+02  0.29999950960E+02 0.  0.
         12    1    1    2    0    0 -0.49721855266E+01  0.25073076518E+02  0.31619380050E+02  0.40659156284E+02  0.00000000000E+00 0. -1.
         11    1    3    3    0    0  0.39230911226E+01  0.21706839716E+01 -0.10017195119E+01  0.45941217988E+01  0.51100000000E-03 0. -1.
        -11    1    3    3    0    0 -0.54122040454E+01  0.75237614920E+00 -0.40445485620E+01  0.67982641778E+01  0.51100000000E-03 0.  1.
        -12    1    3    3    0    0  0.64612984495E+01 -0.27996136638E+02 -0.26573111976E+02  0.39136457740E+02  0.00000000000E+00 0.  1.
</event>
<event>
 7    1  0.2575978E-011  0.5052886E+02  0.7816164E-02  0.1300439E+00
        -11   -1    0    0    0    0  0.00000000000E+00  0.00000000000E+00  0.45593999997E+02  0.45594000000E+02  0.51100000000E-03 0.  1.
         11   -1    0    0    0    0 -0.00000000000E+00 -0.00000000000E+00 -0.45593999997E+02  0.45594000000E+02  0.51100000000E-03 0. -1.
    9900012    2    1    2    0    0  0.29628871567E+02 -0.19387723826E+02  0.19985286955E+02  0.50528861296E+02  0.30000004395E+02 0.  0.
         12    1    1    2    0    0 -0.29628871567E+02  0.19387723826E+02 -0.19985286955E+02  0.40659138704E+02  0.00000000000E+00 0. -1.
         11    1    3    3    0    0  0.64991593983E+01 -0.56084475525E+01 -0.52621297777E+00  0.86006195819E+01  0.51100000000E-03 0. -1.
        -11    1    3    3    0    0  0.26745104876E+02 -0.16759433249E+02  0.15848315858E+02  0.35317819206E+02  0.51100000000E-03 0.  1.
         12    1    3    3    0    0 -0.36153927073E+01  0.29801569752E+01  0.46631840749E+01  0.66104225085E+01  0.00000000000E+00 0. -1.
</event>
<event>
 7    1  0.2575978E-011  0.5052886E+02  0.7816164E-02  0.1300439E+00
        -11   -1    0    0    0    0  0.00000000000E+00  0.00000000000E+00  0.45593999997E+02  0.45594000000E+02  0.51100000000E-03 0. -1.
         11   -1    0    0    0    0 -0.00000000000E+00 -0.00000000000E+00 -0.45593999997E+02  0.45594000000E+02  0.51100000000E-03 0.  1.
    9900012    2    1    2    0    0  0.32555056157E+02 -0.79646877854E+01 -0.23019509591E+02  0.50528858904E+02  0.29999997124E+02 0.  0.
         12    1    1    2    0    0 -0.32555056157E+02  0.79646877854E+01  0.23019509591E+02  0.40659141096E+02  0.00000000000E+00 0. -1.
         11    1    3    3    0    0  0.95226894683E+01  0.79077296782E+01 -0.13635781506E+02  0.18415980585E+02  0.51100000000E-03 0. -1.
        -11    1    3    3    0    0  0.13227212540E+02 -0.65297673899E+01 -0.11100158616E+02  0.18461054556E+02  0.51100000000E-03 0.  1.
        -12    1    3    3    0    0  0.98051541487E+01 -0.93426500737E+01  0.17164305319E+01  0.13651823763E+02  0.00000000000E+00 0.  1.
</event>
<event>
 7    1  0.2575978E-011  0.5052886E+02  0.7816164E-02  0.1300439E+00
        -11   -1    0    0    0    0  0.00000000000E+00  0.00000000000E+00  0.45593999997E+02  0.45594000000E+02  0.51100000000E-03 0.  1.
         11   -1    0    0    0    0 -0.00000000000E+00 -0.00000000000E+00 -0.45593999997E+02  0.45594000000E+02  0.51100000000E-03 0. -1.
    9900012    2    1    2    0    0  0.16998894077E+02  0.16317936843E+02  0.33134998013E+02  0.50528861348E+02  0.30000004552E+02 0.  0.
         12    1    1    2    0    0 -0.16998894077E+02 -0.16317936843E+02 -0.33134998013E+02  0.40659138652E+02  0.00000000000E+00 0. -1.
         11    1    3    3    0    0 -0.80767719757E+00  0.22596934200E+00  0.20569376937E+01  0.22213503857E+01  0.51100000000E-03 0. -1.
        -11    1    3    3    0    0  0.10070193114E+02  0.21865611194E+02  0.11937356253E+02  0.26870322231E+02  0.51100000000E-03 0.  1.
         12    1    3    3    0    0  0.77363781605E+01 -0.57736436931E+01  0.19140704066E+02  0.21437188731E+02  0.00000000000E+00 0. -1.
</event>
<event>
 7    1  0.2575978E-011  0.5052886E+02  0.7816164E-02  0.1300439E+00
        -11   -1    0    0    0    0  0.00000000000E+00  0.00000000000E+00  0.45593999997E+02  0.45594000000E+02  0.51100000000E-03 0.  1.
         11   -1    0    0    0    0 -0.00000000000E+00 -0.00000000000E+00 -0.45593999997E+02  0.45594000000E+02  0.51100000000E-03 0. -1.
    9900012    2    1    2    0    0  0.99750725839E+01 -0.26301665734E+01  0.39328693225E+02  0.50528856379E+02  0.29999989449E+02 0.  0.
         12    1    1    2    0    0 -0.99750725839E+01  0.26301665734E+01 -0.39328693225E+02  0.40659143621E+02  0.00000000000E+00 0. -1.
         11    1    3    3    0    0 -0.20247053575E+01  0.41423471165E+01  0.59816602369E+01  0.75523990142E+01  0.51100000000E-03 0. -1.
        -11    1    3    3    0    0 -0.16835794100E+01  0.25165691671E+01  0.23571030966E+02  0.23764701998E+02  0.51100000000E-03 0.  1.
        -12    1    3    3    0    0  0.13683357351E+02 -0.92890828570E+01  0.97760020216E+01  0.19211755366E+02  0.00000000000E+00 0.  1.
</event>
<event>
 7    1  0.2575978E-011  0.5052886E+02  0.7816164E-02  0.1300439E+00
        -11   -1    0    0    0    0  0.00000000000E+00  0.00000000000E+00  0.45593999997E+02  0.45594000000E+02  0.51100000000E-03 0.  1.
         11   -1    0    0    0    0 -0.00000000000E+00 -0.00000000000E+00 -0.45593999997E+02  0.45594000000E+02  0.51100000000E-03 0. -1.
    9900012    2    1    2    0    0 -0.34634904123E+02 -0.15698981527E+02  0.14392040618E+02  0.50528862802E+02  0.30000008972E+02 0.  0.
         12    1    1    2    0    0  0.34634904123E+02  0.15698981527E+02 -0.14392040618E+02  0.40659137198E+02  0.00000000000E+00 0. -1.
         11    1    3    3    0    0 -0.51445825444E+01 -0.37036390296E+01  0.16724180155E+01  0.65559632319E+01  0.51100000000E-03 0. -1.
        -11    1    3    3    0    0 -0.28299935634E+02 -0.19089773920E+02  0.71553126180E+01  0.34878422042E+02  0.51100000000E-03 0.  1.
         12    1    3    3    0    0 -0.11903859442E+01  0.70944314226E+01  0.55643099840E+01  0.90944775278E+01  0.00000000000E+00 0. -1.
</event>
<event>
 7    1  0.2575978E-011  0.5052883E+02  0.7816164E-02  0.1300439E+00
        -11   -1    0    0    0    0  0.00000000000E+00  0.00000000000E+00  0.45593999997E+02  0.45594000000E+02  0.51100000000E-03 0. -1.
         11   -1    0    0    0    0 -0.00000000000E+00 -0.00000000000E+00 -0.45593999997E+02  0.45594000000E+02  0.51100000000E-03 0.  1.
    9900012    2    1    2    0    0 -0.19664916034E+01  0.19600215859E+02 -0.35568696761E+02  0.50528834487E+02  0.29999922908E+02 0.  0.
         12    1    1    2    0    0  0.19664916034E+01 -0.19600215859E+02  0.35568696761E+02  0.40659165513E+02  0.00000000000E+00 0. -1.
         11    1    3    3    0    0 -0.42148926304E+01  0.21819001044E+02 -0.33723682172E+02  0.40387137383E+02  0.51100000000E-03 0.  1.
        -11    1    3    3    0    0  0.50968730041E+01  0.14373953696E+01 -0.14471063742E+01  0.54898394319E+01  0.51100000000E-03 0. -1.
        -12    1    3    3    0    0 -0.28484719770E+01 -0.36561805555E+01 -0.39790821409E+00  0.46518576725E+01  0.00000000000E+00 0.  1.
</event>
<event>
 7    1  0.2575978E-011  0.5052886E+02  0.7816164E-02  0.1300439E+00
        -11   -1    0    0    0    0  0.00000000000E+00  0.00000000000E+00  0.45593999997E+02  0.45594000000E+02  0.51100000000E-03 0. -1.
         11   -1    0    0    0    0 -0.00000000000E+00 -0.00000000000E+00 -0.45593999997E+02  0.45594000000E+02  0.51100000000E-03 0.  1.
    9900012    2    1    2    0    0  0.51974652329E+01 -0.38713261771E+02 -0.11288731355E+02  0.50528859117E+02  0.29999997772E+02 0.  0.
         12    1    1    2    0    0 -0.51974652329E+01  0.38713261771E+02  0.11288731355E+02  0.40659140883E+02  0.00000000000E+00 0. -1.
         11    1    3    3    0    0 -0.17272790263E+01  0.21556727581E+01 -0.49261995849E+01  0.56478190911E+01  0.51100000000E-03 0. -1.
        -11    1    3    3    0    0 -0.51399255022E+01 -0.15556288591E+02 -0.20736873643E+01  0.16514149340E+02  0.51100000000E-03 0.  1.
        -12    1    3    3    0    0  0.12064669761E+02 -0.25312645938E+02 -0.42888444053E+01  0.28366890685E+02  0.00000000000E+00 0.  1.
</event>
<event>
 7    1  0.2575978E-011  0.5052887E+02  0.7816164E-02  0.1300439E+00
        -11   -1    0    0    0    0  0.00000000000E+00  0.00000000000E+00  0.45593999997E+02  0.45594000000E+02  0.51100000000E-03 0.  1.
         11   -1    0    0    0    0 -0.00000000000E+00 -0.00000000000E+00 -0.45593999997E+02  0.45594000000E+02  0.51100000000E-03 0. -1.
    9900012    2    1    2    0    0  0.37347623986E+02 -0.16062477386E+02 -0.56270032047E+00  0.50528870290E+02  0.30000031732E+02 0.  0.
         12    1    1    2    0    0 -0.37347623986E+02  0.16062477386E+02  0.56270032047E+00  0.40659129710E+02  0.00000000000E+00 0. -1.
         11    1    3    3    0    0  0.18335777074E+02 -0.10325457148E+02  0.60095196303E+01  0.21884471953E+02  0.51100000000E-03 0. -1.
        -11    1    3    3    0    0  0.11885309218E+02 -0.93105586466E+01  0.37937673443E+01  0.15567265284E+02  0.51100000000E-03 0.  1.
         12    1    3    3    0    0  0.71265376947E+01  0.35735384088E+01 -0.10365987295E+02  0.13077133053E+02  0.00000000000E+00 0. -1.
</event>
<event>
 7    1  0.2575978E-011  0.5052887E+02  0.7816164E-02  0.1300439E+00
        -11   -1    0    0    0    0  0.00000000000E+00  0.00000000000E+00  0.45593999997E+02  0.45594000000E+02  0.51100000000E-03 0.  1.
         11   -1    0    0    0    0 -0.00000000000E+00 -0.00000000000E+00 -0.45593999997E+02  0.45594000000E+02  0.51100000000E-03 0. -1.
    9900012    2    1    2    0    0 -0.42437590211E+01  0.34891070608E+02  0.20439393025E+02  0.50528867127E+02  0.30000022118E+02 0.  0.
         12    1    1    2    0    0  0.42437590211E+01 -0.34891070608E+02 -0.20439393025E+02  0.40659132873E+02  0.00000000000E+00 0. -1.
         11    1    3    3    0    0  0.27862255194E+01 -0.10521438036E+01 -0.36443467009E+01  0.47065191347E+01  0.51100000000E-03 0. -1.
        -11    1    3    3    0    0  0.37345948390E+01  0.52567177831E+01  0.35227711701E+01  0.73478022184E+01  0.51100000000E-03 0.  1.
         12    1    3    3    0    0 -0.10764579379E+02  0.30686496628E+02  0.20560968556E+02  0.38474545774E+02  0.00000000000E+00 0. -1.
</event>
<event>
 7    1  0.2575978E-011  0.5052888E+02  0.7816164E-02  0.1300439E+00
        -11   -1    0    0    0    0  0.00000000000E+00  0.00000000000E+00  0.45593999997E+02  0.45594000000E+02  0.51100000000E-03 0.  1.
         11   -1    0    0    0    0 -0.00000000000E+00 -0.00000000000E+00 -0.45593999997E+02  0.45594000000E+02  0.51100000000E-03 0. -1.
    9900012    2    1    2    0    0  0.35893479198E+02 -0.58957656433E+01  0.18167609030E+02  0.50528881474E+02  0.30000065728E+02 0.  0.
         12    1    1    2    0    0 -0.35893479198E+02  0.58957656433E+01 -0.18167609030E+02  0.40659118526E+02  0.00000000000E+00 0. -1.
         11    1    3    3    0    0  0.94318055069E+01 -0.48878522334E+01 -0.18945924626E+01  0.10790715242E+02  0.51100000000E-03 0. -1.
        -11    1    3    3    0    0  0.20852356661E+02 -0.88176443127E+01  0.73586353461E+01  0.23805905653E+02  0.51100000000E-03 0.  1.
         12    1    3    3    0    0  0.56093170302E+01  0.78097309028E+01  0.12703566146E+02  0.15932260579E+02  0.00000000000E+00 0. -1.
</event>
<event>
 7    1  0.2575978E-011  0.5052885E+02  0.7816164E-02  0.1300439E+00
        -11   -1    0    0    0    0  0.00000000000E+00  0.00000000000E+00  0.45593999997E+02  0.45594000000E+02  0.51100000000E-03 0.  1.
         11   -1    0    0    0    0 -0.00000000000E+00 -0.00000000000E+00 -0.45593999997E+02  0.45594000000E+02  0.51100000000E-03 0. -1.
    9900012    2    1    2    0    0 -0.25273869886E+02 -0.29970093745E+02  0.10779195681E+02  0.50528854933E+02  0.29999985054E+02 0.  0.
         12    1    1    2    0    0  0.25273869886E+02  0.29970093745E+02 -0.10779195681E+02  0.40659145067E+02  0.00000000000E+00 0. -1.
         11    1    3    3    0    0 -0.14740583080E+02 -0.26325483012E+02 -0.74713869871E+00  0.30180690215E+02  0.51100000000E-03 0. -1.
        -11    1    3    3    0    0 -0.82028287345E+01 -0.43724511343E+01  0.78011619879E+00  0.93280925013E+01  0.51100000000E-03 0.  1.
        -12    1    3    3    0    0 -0.23304580712E+01  0.72784040128E+00  0.10746218181E+02  0.11020072217E+02  0.00000000000E+00 0.  1.
</event>
<event>
 7    1  0.2575978E-011  0.5052885E+02  0.7816164E-02  0.1300439E+00
        -11   -1    0    0    0    0  0.00000000000E+00  0.00000000000E+00  0.45593999997E+02  0.45594000000E+02  0.51100000000E-03 0. -1.
         11   -1    0    0    0    0 -0.00000000000E+00 -0.00000000000E+00 -0.45593999997E+02  0.45594000000E+02  0.51100000000E-03 0.  1.
    9900012    2    1    2    0    0 -0.20020356365E+02  0.31910299139E+02  0.15299818296E+02  0.50528852198E+02  0.29999976740E+02 0.  0.
         12    1    1    2    0    0  0.20020356365E+02 -0.31910299139E+02 -0.15299818296E+02  0.40659147802E+02  0.00000000000E+00 0. -1.
         11    1    3    3    0    0 -0.94275965663E+00  0.17014772064E+02  0.15897070266E+02  0.23304679948E+02  0.51100000000E-03 0.  1.
        -11    1    3    3    0    0  0.13224445922E+01 -0.46143016072E+00  0.86822431603E+00  0.16479050994E+01  0.51100000000E-03 0. -1.
         12    1    3    3    0    0 -0.20400041301E+02  0.15356957235E+02 -0.14654762863E+01  0.25576267150E+02  0.00000000000E+00 0. -1.
</event>
<event>
 7    1  0.2575978E-011  0.5052885E+02  0.7816164E-02  0.1300439E+00
        -11   -1    0    0    0    0  0.00000000000E+00  0.00000000000E+00  0.45593999997E+02  0.45594000000E+02  0.51100000000E-03 0.  1.
         11   -1    0    0    0    0 -0.00000000000E+00 -0.00000000000E+00 -0.45593999997E+02  0.45594000000E+02  0.51100000000E-03 0. -1.
    9900012    2    1    2    0    0 -0.20651996959E+02  0.80499642932E+01  0.34086056053E+02  0.50528854402E+02  0.29999983441E+02 0.  0.
         12    1    1    2    0    0  0.20651996959E+02 -0.80499642932E+01 -0.34086056053E+02  0.40659145598E+02  0.00000000000E+00 0. -1.
         11    1    3    3    0    0 -0.30722554241E+01  0.21887031460E+01  0.13892342820E+01  0.40198441517E+01  0.51100000000E-03 0. -1.
        -11    1    3    3    0    0 -0.21627096598E+02  0.12604802729E+02  0.26851007764E+02  0.36709521617E+02  0.51100000000E-03 0.  1.
        -12    1    3    3    0    0  0.40473550636E+01 -0.67435415822E+01  0.58458140068E+01  0.97994886338E+01  0.00000000000E+00 0.  1.
</event>
<event>
 7    1  0.2575978E-011  0.5052886E+02  0.7816164E-02  0.1300439E+00
        -11   -1    0    0    0    0  0.00000000000E+00  0.00000000000E+00  0.45593999997E+02  0.45594000000E+02  0.51100000000E-03 0.  1.
         11   -1    0    0    0    0 -0.00000000000E+00 -0.00000000000E+00 -0.45593999997E+02  0.45594000000E+02  0.51100000000E-03 0. -1.
    9900012    2    1    2    0    0 -0.20697639623E+02  0.30996235422E+02  0.16248275424E+02  0.50528863874E+02  0.30000012231E+02 0.  0.
         12    1    1    2    0    0  0.20697639623E+02 -0.30996235422E+02 -0.16248275424E+02  0.40659136126E+02  0.00000000000E+00 0. -1.
         11    1    3    3    0    0 -0.57352743353E+01  0.23132374361E+02  0.17643193952E+02  0.29652696477E+02  0.51100000000E-03 0. -1.
        -11    1    3    3    0    0 -0.46554110892E+01  0.69499871434E+01  0.39262841105E+01  0.92407186345E+01  0.51100000000E-03 0.  1.
         12    1    3    3    0    0 -0.10306954198E+02  0.91387391759E+00 -0.53212026390E+01  0.11635448763E+02  0.00000000000E+00 0. -1.
</event>
<event>
 7    1  0.2575978E-011  0.5052886E+02  0.7816164E-02  0.1300439E+00
        -11   -1    0    0    0    0  0.00000000000E+00  0.00000000000E+00  0.45593999997E+02  0.45594000000E+02  0.51100000000E-03 0.  1.
         11   -1    0    0    0    0 -0.00000000000E+00 -0.00000000000E+00 -0.45593999997E+02  0.45594000000E+02  0.51100000000E-03 0. -1.
    9900012    2    1    2    0    0 -0.23774728502E+02 -0.24128954047E+02  0.22488245549E+02  0.50528864168E+02  0.30000013124E+02 0.  0.
         12    1    1    2    0    0  0.23774728502E+02  0.24128954047E+02 -0.22488245549E+02  0.40659135832E+02  0.00000000000E+00 0. -1.
         11    1    3    3    0    0 -0.91318984423E+01 -0.71202723601E+01  0.11576214602E+01  0.11637436803E+02  0.51100000000E-03 0. -1.
        -11    1    3    3    0    0 -0.94068061414E+01 -0.19841621104E+02  0.23856988929E+02  0.32424278725E+02  0.51100000000E-03 0.  1.
         12    1    3    3    0    0 -0.52360239185E+01  0.28329394171E+01 -0.25263648405E+01  0.64671486393E+01  0.00000000000E+00 0. -1.
</event>
<event>
 7    1  0.2575978E-011  0.5052886E+02  0.7816164E-02  0.1300439E+00
        -11   -1    0    0    0    0  0.00000000000E+00  0.00000000000E+00  0.45593999997E+02  0.45594000000E+02  0.51100000000E-03 0. -1.
         11   -1    0    0    0    0 -0.00000000000E+00 -0.00000000000E+00 -0.45593999997E+02  0.45594000000E+02  0.51100000000E-03 0.  1.
    9900012    2    1    2    0    0 -0.78207645192E+01  0.39623029274E+02 -0.46922106173E+01  0.50528860228E+02  0.30000001149E+02 0.  0.
         12    1    1    2    0    0  0.78207645192E+01 -0.39623029274E+02  0.46922106173E+01  0.40659139772E+02  0.00000000000E+00 0. -1.
         11    1    3    3    0    0 -0.51803361958E+01  0.28556761785E+02 -0.16432622107E+02  0.33351995387E+02  0.51100000000E-03 0.  1.
        -11    1    3    3    0    0  0.16064885145E+01  0.36573570970E+01  0.35457042100E+01  0.53412624807E+01  0.51100000000E-03 0. -1.
        -12    1    3    3    0    0 -0.42469168379E+01  0.74089103921E+01  0.81947072798E+01  0.11835602360E+02  0.00000000000E+00 0.  1.
</event>
<event>
 7    1  0.2575978E-011  0.5052886E+02  0.7816164E-02  0.1300439E+00
        -11   -1    0    0    0    0  0.00000000000E+00  0.00000000000E+00  0.45593999997E+02  0.45594000000E+02  0.51100000000E-03 0.  1.
         11   -1    0    0    0    0 -0.00000000000E+00 -0.00000000000E+00 -0.45593999997E+02  0.45594000000E+02  0.51100000000E-03 0. -1.
    9900012    2    1    2    0    0  0.34026306475E+02  0.22219512113E+02  0.12919953661E+01  0.50528862000E+02  0.30000006535E+02 0.  0.
         12    1    1    2    0    0 -0.34026306475E+02 -0.22219512113E+02 -0.12919953661E+01  0.40659138000E+02  0.00000000000E+00 0. -1.
         11    1    3    3    0    0 -0.10127591730E+01  0.97985357640E+00 -0.55652825645E+01  0.57409201752E+01  0.51100000000E-03 0. -1.
        -11    1    3    3    0    0  0.18872130715E+02  0.20597239745E+02  0.60794234294E+01  0.28589560897E+02  0.51100000000E-03 0.  1.
         12    1    3    3    0    0  0.16166934933E+02  0.64241879189E+00  0.77785450123E+00  0.16198380927E+02  0.00000000000E+00 0. -1.
</event>
<event>
 7    1  0.2575978E-011  0.5052886E+02  0.7816164E-02  0.1300439E+00
        -11   -1    0    0    0    0  0.00000000000E+00  0.00000000000E+00  0.45593999997E+02  0.45594000000E+02  0.51100000000E-03 0. -1.
         11   -1    0    0    0    0 -0.00000000000E+00 -0.00000000000E+00 -0.45593999997E+02  0.45594000000E+02  0.51100000000E-03 0.  1.
    9900012    2    1    2    0    0  0.10639388067E+02 -0.37584560794E+02 -0.11285814919E+02  0.50528863180E+02  0.30000010123E+02 0.  0.
         12    1    1    2    0    0 -0.10639388067E+02  0.37584560794E+02  0.11285814919E+02  0.40659136820E+02  0.00000000000E+00 0. -1.
         11    1    3    3    0    0  0.33847614935E+01 -0.13140470802E+02  0.21376981805E+01  0.13736751328E+02  0.51100000000E-03 0. -1.
        -11    1    3    3    0    0  0.65173685790E+01 -0.28791126656E+02 -0.98591727074E+01  0.31122473457E+02  0.51100000000E-03 0.  1.
        -12    1    3    3    0    0  0.73725799468E+00  0.43470366640E+01 -0.35643403919E+01  0.56696383958E+01  0.00000000000E+00 0.  1.
</event>
<event>
 7    1  0.2575978E-011  0.5052888E+02  0.7816164E-02  0.1300439E+00
        -11   -1    0    0    0    0  0.00000000000E+00  0.00000000000E+00  0.45593999997E+02  0.45594000000E+02  0.51100000000E-03 0.  1.
         11   -1    0    0    0    0 -0.00000000000E+00 -0.00000000000E+00 -0.45593999997E+02  0.45594000000E+02  0.51100000000E-03 0. -1.
    9900012    2    1    2    0    0  0.61847022539E+00 -0.26520364002E+02  0.30813171148E+02  0.50528883821E+02  0.30000072863E+02 0.  0.
         12    1    1    2    0    0 -0.61847022539E+00  0.26520364002E+02 -0.30813171148E+02  0.40659116179E+02  0.00000000000E+00 0. -1.
         11    1    3    3    0    0  0.35892562670E+01 -0.12607527108E+00  0.81931612623E+01  0.89457558236E+01  0.51100000000E-03 0.  1.
        -11    1    3    3    0    0 -0.91614618871E+01 -0.24140982904E+01  0.28499668044E+01  0.98935618213E+01  0.51100000000E-03 0. -1.
         12    1    3    3    0    0  0.61906758454E+01 -0.23980190440E+02  0.19770043082E+02  0.31689566176E+02  0.00000000000E+00 0. -1.
</event>
<event>
 7    1  0.2575978E-011  0.5052886E+02  0.7816164E-02  0.1300439E+00
        -11   -1    0    0    0    0  0.00000000000E+00  0.00000000000E+00  0.45593999997E+02  0.45594000000E+02  0.51100000000E-03 0. -1.
         11   -1    0    0    0    0 -0.00000000000E+00 -0.00000000000E+00 -0.45593999997E+02  0.45594000000E+02  0.51100000000E-03 0.  1.
    9900012    2    1    2    0    0  0.33492105394E+02 -0.22899044949E+02 -0.26605243902E+01  0.50528858674E+02  0.29999996427E+02 0.  0.
         12    1    1    2    0    0 -0.33492105394E+02  0.22899044949E+02  0.26605243902E+01  0.40659141326E+02  0.00000000000E+00 0. -1.
         11    1    3    3    0    0  0.66485609476E+01 -0.40012980877E+01  0.19956510815E+01  0.80122638849E+01  0.51100000000E-03 0. -1.
        -11    1    3    3    0    0 -0.89508362507E+00  0.18536838763E+01  0.59431524315E+01  0.62895452693E+01  0.51100000000E-03 0.  1.
        -12    1    3    3    0    0  0.27738628071E+02 -0.20751430738E+02 -0.10599327903E+02  0.36227049520E+02  0.00000000000E+00 0.  1.
</event>
<event>
 7    1  0.2575978E-011  0.5052886E+02  0.7816164E-02  0.1300439E+00
        -11   -1    0    0    0    0  0.00000000000E+00  0.00000000000E+00  0.45593999997E+02  0.45594000000E+02  0.51100000000E-03 0.  1.
         11   -1    0    0    0    0 -0.00000000000E+00 -0.00000000000E+00 -0.45593999997E+02  0.45594000000E+02  0.51100000000E-03 0. -1.
    9900012    2    1    2    0    0  0.90273758058E+01  0.39603835072E+02 -0.17911687384E+01  0.50528861398E+02  0.30000004707E+02 0.  0.
         12    1    1    2    0    0 -0.90273758058E+01 -0.39603835072E+02  0.17911687384E+01  0.40659138602E+02  0.00000000000E+00 0. -1.
         11    1    3    3    0    0  0.62453071302E-01 -0.10811882688E+01  0.15227587162E+01  0.18685991619E+01  0.51100000000E-03 0. -1.
        -11    1    3    3    0    0  0.10308012534E+02  0.34013954146E+01  0.18021774783E+01  0.11003293011E+02  0.51100000000E-03 0.  1.
        -12    1    3    3    0    0 -0.13430897993E+01  0.37283627926E+02 -0.51161049330E+01  0.37656969226E+02  0.00000000000E+00 0.  1.
</event>
<event>
 7    1  0.2575978E-011  0.5052891E+02  0.7816164E-02  0.1300439E+00
        -11   -1    0    0    0    0  0.00000000000E+00  0.00000000000E+00  0.45593999997E+02  0.45594000000E+02  0.51100000000E-03 0.  1.
         11   -1    0    0    0    0 -0.00000000000E+00 -0.00000000000E+00 -0.45593999997E+02  0.45594000000E+02  0.51100000000E-03 0. -1.
    9900012    2    1    2    0    0  0.20692183418E+02 -0.26410429322E+02  0.22967026895E+02  0.50528910537E+02  0.30000154069E+02 0.  0.
         12    1    1    2    0    0 -0.20692183418E+02  0.26410429322E+02 -0.22967026895E+02  0.40659089463E+02  0.00000000000E+00 0. -1.
         11    1    3    3    0    0 -0.53387680144E+01 -0.50606385585E+01  0.11190419216E+01  0.74407500708E+01  0.51100000000E-03 0. -1.
        -11    1    3    3    0    0  0.12466398219E+02 -0.40893590162E+01  0.15887460878E+01  0.13215825972E+02  0.51100000000E-03 0.  1.
         12    1    3    3    0    0  0.13564553213E+02 -0.17260431747E+02  0.20259238886E+02  0.29872334495E+02  0.00000000000E+00 0. -1.
</event>
<event>
 7    1  0.2575978E-011  0.5052885E+02  0.7816164E-02  0.1300439E+00
        -11   -1    0    0    0    0  0.00000000000E+00  0.00000000000E+00  0.45593999997E+02  0.45594000000E+02  0.51100000000E-03 0.  1.
         11   -1    0    0    0    0 -0.00000000000E+00 -0.00000000000E+00 -0.45593999997E+02  0.45594000000E+02  0.51100000000E-03 0. -1.
    9900012    2    1    2    0    0  0.33620784372E+01 -0.40070240370E+02 -0.60198867790E+01  0.50528846399E+02  0.29999959115E+02 0.  0.
         12    1    1    2    0    0 -0.33620784372E+01  0.40070240370E+02  0.60198867790E+01  0.40659153601E+02  0.00000000000E+00 0. -1.
         11    1    3    3    0    0 -0.79682834732E+01 -0.29644418685E+01  0.80705295004E-01  0.85022332777E+01  0.51100000000E-03 0. -1.
        -11    1    3    3    0    0  0.10151954957E+02 -0.10968765977E+02 -0.52772060769E+01  0.15850076364E+02  0.51100000000E-03 0.  1.
        -12    1    3    3    0    0  0.11784069534E+01 -0.26137032524E+02 -0.82338599708E+00  0.26176536758E+02  0.00000000000E+00 0.  1.
</event>
<event>
 7    1  0.2575978E-011  0.5052884E+02  0.7816164E-02  0.1300439E+00
        -11   -1    0    0    0    0  0.00000000000E+00  0.00000000000E+00  0.45593999997E+02  0.45594000000E+02  0.51100000000E-03 0. -1.
         11   -1    0    0    0    0 -0.00000000000E+00 -0.00000000000E+00 -0.45593999997E+02  0.45594000000E+02  0.51100000000E-03 0.  1.
    9900012    2    1    2    0    0 -0.19715506542E+02 -0.17414680640E+02 -0.31003139345E+02  0.50528844213E+02  0.29999952470E+02 0.  0.
         12    1    1    2    0    0  0.19715506542E+02  0.17414680640E+02  0.31003139345E+02  0.40659155787E+02  0.00000000000E+00 0. -1.
         11    1    3    3    0    0  0.48352290890E+01  0.14038131644E+01 -0.88275935921E+01  0.10162506612E+02  0.51100000000E-03 0. -1.
        -11    1    3    3    0    0 -0.60431977300E+01 -0.39042720021E+01  0.88521725494E+00  0.72489439589E+01  0.51100000000E-03 0.  1.
        -12    1    3    3    0    0 -0.18507537902E+02 -0.14914221803E+02 -0.23060763008E+02  0.33117393643E+02  0.00000000000E+00 0.  1.
</event>
<event>
 7    1  0.2575978E-011  0.5052875E+02  0.7816164E-02  0.1300439E+00
        -11   -1    0    0    0    0  0.00000000000E+00  0.00000000000E+00  0.45593999997E+02  0.45594000000E+02  0.51100000000E-03 0.  1.
         11   -1    0    0    0    0 -0.00000000000E+00 -0.00000000000E+00 -0.45593999997E+02  0.45594000000E+02  0.51100000000E-03 0. -1.
    9900012    2    1    2    0    0 -0.28464114026E+02 -0.28891234086E+02  0.28749233206E+01  0.50528752855E+02  0.29999674777E+02 0.  0.
         12    1    1    2    0    0  0.28464114026E+02  0.28891234086E+02 -0.28749233206E+01  0.40659247145E+02  0.00000000000E+00 0. -1.
         11    1    3    3    0    0 -0.16482460072E+02 -0.26509329404E+01 -0.64325884946E+01  0.17890699552E+02  0.51100000000E-03 0. -1.
        -11    1    3    3    0    0 -0.29015947647E+01 -0.41020614960E+01  0.69754369074E+01  0.85966784868E+01  0.51100000000E-03 0.  1.
        -12    1    3    3    0    0 -0.90800591895E+01 -0.22138239650E+02  0.23320749078E+01  0.24041374816E+02  0.00000000000E+00 0.  1.
</event>
<event>
 7    1  0.2575978E-011  0.5052886E+02  0.7816164E-02  0.1300439E+00
        -11   -1    0    0    0    0  0.00000000000E+00  0.00000000000E+00  0.45593999997E+02  0.45594000000E+02  0.51100000000E-03 0. -1.
         11   -1    0    0    0    0 -0.00000000000E+00 -0.00000000000E+00 -0.45593999997E+02  0.45594000000E+02  0.51100000000E-03 0.  1.
    9900012    2    1    2    0    0  0.28265171012E+02  0.28916503316E+02  0.42522674958E+01  0.50528857913E+02  0.29999994113E+02 0.  0.
         12    1    1    2    0    0 -0.28265171012E+02 -0.28916503316E+02 -0.42522674958E+01  0.40659142087E+02  0.00000000000E+00 0. -1.
         11    1    3    3    0    0 -0.67582336781E+00  0.11783928262E+01 -0.12203840043E+01  0.18261117864E+01  0.51100000000E-03 0. -1.
        -11    1    3    3    0    0 -0.21958805520E+01  0.14012863939E+02  0.35464995823E+01  0.14620530316E+02  0.51100000000E-03 0.  1.
        -12    1    3    3    0    0  0.31136874932E+02  0.13725246552E+02  0.19261519178E+01  0.34082215811E+02  0.00000000000E+00 0.  1.
</event>
<event>
 7    1  0.2575978E-011  0.5052886E+02  0.7816164E-02  0.1300439E+00
        -11   -1    0    0    0    0  0.00000000000E+00  0.00000000000E+00  0.45593999997E+02  0.45594000000E+02  0.51100000000E-03 0.  1.
         11   -1    0    0    0    0 -0.00000000000E+00 -0.00000000000E+00 -0.45593999997E+02  0.45594000000E+02  0.51100000000E-03 0. -1.
    9900012    2    1    2    0    0 -0.94485608400E+01 -0.11186346257E+02  0.37930935623E+02  0.50528861768E+02  0.30000005829E+02 0.  0.
         12    1    1    2    0    0  0.94485608400E+01  0.11186346257E+02 -0.37930935623E+02  0.40659138232E+02  0.00000000000E+00 0. -1.
         11    1    3    3    0    0  0.27455688913E+01 -0.23368262859E+01  0.77674190427E+01  0.85633932803E+01  0.51100000000E-03 0. -1.
        -11    1    3    3    0    0  0.10620398412E+00 -0.57253507573E+01  0.28612804009E+02  0.29180189755E+02  0.51100000000E-03 0.  1.
         12    1    3    3    0    0 -0.12300333715E+02 -0.31241692139E+01  0.15507125714E+01  0.12785278733E+02  0.00000000000E+00 0. -1.
</event>
<event>
 7    1  0.2575978E-011  0.5052886E+02  0.7816164E-02  0.1300439E+00
        -11   -1    0    0    0    0  0.00000000000E+00  0.00000000000E+00  0.45593999997E+02  0.45594000000E+02  0.51100000000E-03 0. -1.
         11   -1    0    0    0    0 -0.00000000000E+00 -0.00000000000E+00 -0.45593999997E+02  0.45594000000E+02  0.51100000000E-03 0.  1.
    9900012    2    1    2    0    0  0.38271751951E+02  0.97564039931E+01 -0.96566798335E+01  0.50528857342E+02  0.29999992376E+02 0.  0.
         12    1    1    2    0    0 -0.38271751951E+02 -0.97564039931E+01  0.96566798335E+01  0.40659142658E+02  0.00000000000E+00 0. -1.
         11    1    3    3    0    0  0.66515509578E+01 -0.63300520345E+01 -0.31346500190E+01  0.97025110104E+01  0.51100000000E-03 0. -1.
        -11    1    3    3    0    0  0.22953786026E+02  0.39300006554E+01  0.24372850280E+01  0.23414985728E+02  0.51100000000E-03 0.  1.
         12    1    3    3    0    0  0.86664149677E+01  0.12156455372E+02 -0.89593148426E+01  0.17411360603E+02  0.00000000000E+00 0. -1.
</event>
<event>
 7    1  0.2575978E-011  0.5052887E+02  0.7816164E-02  0.1300439E+00
        -11   -1    0    0    0    0  0.00000000000E+00  0.00000000000E+00  0.45593999997E+02  0.45594000000E+02  0.51100000000E-03 0.  1.
         11   -1    0    0    0    0 -0.00000000000E+00 -0.00000000000E+00 -0.45593999997E+02  0.45594000000E+02  0.51100000000E-03 0. -1.
    9900012    2    1    2    0    0  0.22463334829E+02  0.16431875252E+02  0.29640459647E+02  0.50528870841E+02  0.30000033407E+02 0.  0.
         12    1    1    2    0    0 -0.22463334829E+02 -0.16431875252E+02 -0.29640459647E+02  0.40659129159E+02  0.00000000000E+00 0. -1.
         11    1    3    3    0    0  0.16889537211E+02  0.13315161774E+02  0.73181727519E+01  0.22717958820E+02  0.51100000000E-03 0.  1.
        -11    1    3    3    0    0  0.21996805573E+00  0.87752104084E+01  0.12509657805E+02  0.15282154374E+02  0.51100000000E-03 0. -1.
        -12    1    3    3    0    0  0.53538295621E+01 -0.56584969309E+01  0.98126290896E+01  0.12528757646E+02  0.00000000000E+00 0.  1.
</event>
<event>
 7    1  0.2575978E-011  0.5052887E+02  0.7816164E-02  0.1300439E+00
        -11   -1    0    0    0    0  0.00000000000E+00  0.00000000000E+00  0.45593999997E+02  0.45594000000E+02  0.51100000000E-03 0.  1.
         11   -1    0    0    0    0 -0.00000000000E+00 -0.00000000000E+00 -0.45593999997E+02  0.45594000000E+02  0.51100000000E-03 0. -1.
    9900012    2    1    2    0    0  0.39171933083E+01  0.37110799260E+02 -0.16143382677E+02  0.50528872742E+02  0.30000039187E+02 0.  0.
         12    1    1    2    0    0 -0.39171933083E+01 -0.37110799260E+02  0.16143382677E+02  0.40659127258E+02  0.00000000000E+00 0. -1.
         11    1    3    3    0    0  0.32838305154E+01  0.83341902265E+01  0.25575033195E+01  0.93157443651E+01  0.51100000000E-03 0. -1.
        -11    1    3    3    0    0  0.11076452872E+01  0.28852520907E+02 -0.72737039669E+01  0.29775856166E+02  0.51100000000E-03 0.  1.
         12    1    3    3    0    0 -0.47428249434E+00 -0.75911873162E-01 -0.11427182029E+02  0.11437272211E+02  0.00000000000E+00 0. -1.
</event>
<event>
 7    1  0.2575978E-011  0.5052887E+02  0.7816164E-02  0.1300439E+00
        -11   -1    0    0    0    0  0.00000000000E+00  0.00000000000E+00  0.45593999997E+02  0.45594000000E+02  0.51100000000E-03 0.  1.
         11   -1    0    0    0    0 -0.00000000000E+00 -0.00000000000E+00 -0.45593999997E+02  0.45594000000E+02  0.51100000000E-03 0. -1.
    9900012    2    1    2    0    0  0.14626768098E+01 -0.39880485197E+02  0.77828419736E+01  0.50528866312E+02  0.30000019643E+02 0.  0.
         12    1    1    2    0    0 -0.14626768098E+01  0.39880485197E+02 -0.77828419736E+01  0.40659133688E+02  0.00000000000E+00 0. -1.
         11    1    3    3    0    0  0.46521773292E+01  0.25649726391E+01  0.86825142348E+00  0.53829080744E+01  0.51100000000E-03 0. -1.
        -11    1    3    3    0    0  0.31722550219E+01 -0.22508835655E+01  0.10643976655E+01  0.40326940624E+01  0.51100000000E-03 0.  1.
        -12    1    3    3    0    0 -0.63617555414E+01 -0.40194574271E+02  0.58501928846E+01  0.41113264176E+02  0.00000000000E+00 0.  1.
</event>
<event>
 7    1  0.2575978E-011  0.5052886E+02  0.7816164E-02  0.1300439E+00
        -11   -1    0    0    0    0  0.00000000000E+00  0.00000000000E+00  0.45593999997E+02  0.45594000000E+02  0.51100000000E-03 0. -1.
         11   -1    0    0    0    0 -0.00000000000E+00 -0.00000000000E+00 -0.45593999997E+02  0.45594000000E+02  0.51100000000E-03 0.  1.
    9900012    2    1    2    0    0 -0.11311139597E+02  0.37362105521E+02 -0.11370885492E+02  0.50528857795E+02  0.29999993755E+02 0.  0.
         12    1    1    2    0    0  0.11311139597E+02 -0.37362105521E+02  0.11370885492E+02  0.40659142205E+02  0.00000000000E+00 0. -1.
         11    1    3    3    0    0 -0.32826369289E+01  0.34445184400E+01  0.67721100151E+01  0.82765866641E+01  0.51100000000E-03 0. -1.
        -11    1    3    3    0    0 -0.17956555353E+01  0.12826254455E+02  0.11419677615E+01  0.13001587317E+02  0.51100000000E-03 0.  1.
        -12    1    3    3    0    0 -0.62328471328E+01  0.21091332626E+02 -0.19284963268E+02  0.29250683814E+02  0.00000000000E+00 0.  1.
</event>
<event>
 7    1  0.2575978E-011  0.5052887E+02  0.7816164E-02  0.1300439E+00
        -11   -1    0    0    0    0  0.00000000000E+00  0.00000000000E+00  0.45593999997E+02  0.45594000000E+02  0.51100000000E-03 0.  1.
         11   -1    0    0    0    0 -0.00000000000E+00 -0.00000000000E+00 -0.45593999997E+02  0.45594000000E+02  0.51100000000E-03 0. -1.
    9900012    2    1    2    0    0 -0.14868688214E+01  0.26366516203E+02  0.30915384208E+02  0.50528868968E+02  0.30000027716E+02 0.  0.
         12    1    1    2    0    0  0.14868688214E+01 -0.26366516203E+02 -0.30915384208E+02  0.40659131032E+02  0.00000000000E+00 0. -1.
         11    1    3    3    0    0  0.19306836385E+01  0.11679570246E+01 -0.42997568058E+00  0.22970725435E+01  0.51100000000E-03 0. -1.
        -11    1    3    3    0    0 -0.67321911180E+01 -0.16299993743E+01  0.11602090087E+00  0.69276804430E+01  0.51100000000E-03 0.  1.
        -12    1    3    3    0    0  0.33146386581E+01  0.26828558552E+02  0.31229338987E+02  0.41304115982E+02  0.00000000000E+00 0.  1.
</event>
<event>
 7    1  0.2575978E-011  0.5052886E+02  0.7816164E-02  0.1300439E+00
        -11   -1    0    0    0    0  0.00000000000E+00  0.00000000000E+00  0.45593999997E+02  0.45594000000E+02  0.51100000000E-03 0.  1.
         11   -1    0    0    0    0 -0.00000000000E+00 -0.00000000000E+00 -0.45593999997E+02  0.45594000000E+02  0.51100000000E-03 0. -1.
    9900012    2    1    2    0    0  0.98996438637E+01  0.30582994597E+02  0.24896651066E+02  0.50528859066E+02  0.29999997618E+02 0.  0.
         12    1    1    2    0    0 -0.98996438637E+01 -0.30582994597E+02 -0.24896651066E+02  0.40659140934E+02  0.00000000000E+00 0. -1.
         11    1    3    3    0    0 -0.93648495840E+00  0.79712965923E+01 -0.74127106207E+00  0.80602764523E+01  0.51100000000E-03 0.  1.
        -11    1    3    3    0    0  0.93780578654E+01  0.71184740020E+01 -0.78909771782E+00  0.11800140546E+02  0.51100000000E-03 0. -1.
         12    1    3    3    0    0  0.14580709567E+01  0.15493224003E+02  0.26427019846E+02  0.30668442068E+02  0.00000000000E+00 0. -1.
</event>
<event>
 7    1  0.2575978E-011  0.5052892E+02  0.7816164E-02  0.1300439E+00
        -11   -1    0    0    0    0  0.00000000000E+00  0.00000000000E+00  0.45593999997E+02  0.45594000000E+02  0.51100000000E-03 0.  1.
         11   -1    0    0    0    0 -0.00000000000E+00 -0.00000000000E+00 -0.45593999997E+02  0.45594000000E+02  0.51100000000E-03 0. -1.
    9900012    2    1    2    0    0 -0.36420175523E+02  0.39210348995E+01  0.17645302789E+02  0.50528924626E+02  0.30000196892E+02 0.  0.
         12    1    1    2    0    0  0.36420175523E+02 -0.39210348995E+01 -0.17645302789E+02  0.40659075374E+02  0.00000000000E+00 0. -1.
         11    1    3    3    0    0 -0.82334261627E+01  0.50128568017E+01  0.12147456392E+01  0.97156392955E+01  0.51100000000E-03 0.  1.
        -11    1    3    3    0    0 -0.36287217153E+01 -0.40193711037E+01  0.15104518233E+02  0.16045854189E+02  0.51100000000E-03 0. -1.
         12    1    3    3    0    0 -0.24558027645E+02  0.29275492015E+01  0.13260389168E+01  0.24767431141E+02  0.00000000000E+00 0. -1.
</event>
<event>
 7    1  0.2575978E-011  0.5052886E+02  0.7816164E-02  0.1300439E+00
        -11   -1    0    0    0    0  0.00000000000E+00  0.00000000000E+00  0.45593999997E+02  0.45594000000E+02  0.51100000000E-03 0.  1.
         11   -1    0    0    0    0 -0.00000000000E+00 -0.00000000000E+00 -0.45593999997E+02  0.45594000000E+02  0.51100000000E-03 0. -1.
    9900012    2    1    2    0    0  0.34558428349E+02  0.20035258023E+02  0.75808472813E+01  0.50528858599E+02  0.29999996197E+02 0.  0.
         12    1    1    2    0    0 -0.34558428349E+02 -0.20035258023E+02 -0.75808472813E+01  0.40659141401E+02  0.00000000000E+00 0. -1.
         11    1    3    3    0    0  0.61650598989E+01 -0.56085140506E+01  0.40824920115E+01  0.92806322359E+01  0.51100000000E-03 0. -1.
        -11    1    3    3    0    0  0.12700493401E+01  0.80005436398E+01  0.36646139310E+01  0.88910696422E+01  0.51100000000E-03 0.  1.
         12    1    3    3    0    0  0.27123319110E+02  0.17643228434E+02 -0.16625866125E+00  0.32357156721E+02  0.00000000000E+00 0. -1.
</event>
<event>
 7    1  0.2575978E-011  0.5052886E+02  0.7816164E-02  0.1300439E+00
        -11   -1    0    0    0    0  0.00000000000E+00  0.00000000000E+00  0.45593999997E+02  0.45594000000E+02  0.51100000000E-03 0.  1.
         11   -1    0    0    0    0 -0.00000000000E+00 -0.00000000000E+00 -0.45593999997E+02  0.45594000000E+02  0.51100000000E-03 0. -1.
    9900012    2    1    2    0    0  0.19306440974E+02 -0.10169515967E+02  0.34307550613E+02  0.50528858996E+02  0.29999997405E+02 0.  0.
         12    1    1    2    0    0 -0.19306440974E+02  0.10169515967E+02 -0.34307550613E+02  0.40659141004E+02  0.00000000000E+00 0. -1.
         11    1    3    3    0    0  0.12751166012E+01  0.46921095581E+00 -0.18180025909E+01  0.22696288131E+01  0.51100000000E-03 0. -1.
        -11    1    3    3    0    0 -0.11271758509E+01 -0.11041893644E+02  0.61704315806E+01  0.12699140396E+02  0.51100000000E-03 0.  1.
        -12    1    3    3    0    0  0.19158500224E+02  0.40316672046E+00  0.29955121624E+02  0.35560089788E+02  0.00000000000E+00 0.  1.
</event>
<event>
 7    1  0.2575978E-011  0.5052886E+02  0.7816164E-02  0.1300439E+00
        -11   -1    0    0    0    0  0.00000000000E+00  0.00000000000E+00  0.45593999997E+02  0.45594000000E+02  0.51100000000E-03 0. -1.
         11   -1    0    0    0    0 -0.00000000000E+00 -0.00000000000E+00 -0.45593999997E+02  0.45594000000E+02  0.51100000000E-03 0.  1.
    9900012    2    1    2    0    0 -0.34480755956E+02  0.21536457778E+02  0.65098601275E+00  0.50528864154E+02  0.30000013083E+02 0.  0.
         12    1    1    2    0    0  0.34480755956E+02 -0.21536457778E+02 -0.65098601275E+00  0.40659135846E+02  0.00000000000E+00 0. -1.
         11    1    3    3    0    0 -0.10491836239E+02  0.36969384224E+01 -0.10654514530E+02  0.15403397726E+02  0.51100000000E-03 0. -1.
        -11    1    3    3    0    0 -0.11657759113E+02  0.36074585490E+01 -0.15840324238E+01  0.12305537928E+02  0.51100000000E-03 0.  1.
         12    1    3    3    0    0 -0.12331160605E+02  0.14232060807E+02  0.12889532967E+02  0.22819928501E+02  0.00000000000E+00 0. -1.
</event>
<event>
 7    1  0.2575978E-011  0.5052886E+02  0.7816164E-02  0.1300439E+00
        -11   -1    0    0    0    0  0.00000000000E+00  0.00000000000E+00  0.45593999997E+02  0.45594000000E+02  0.51100000000E-03 0. -1.
         11   -1    0    0    0    0 -0.00000000000E+00 -0.00000000000E+00 -0.45593999997E+02  0.45594000000E+02  0.51100000000E-03 0.  1.
    9900012    2    1    2    0    0 -0.24518930037E+02 -0.29289786357E+02 -0.13931827402E+02  0.50528864129E+02  0.30000013007E+02 0.  0.
         12    1    1    2    0    0  0.24518930037E+02  0.29289786357E+02  0.13931827402E+02  0.40659135871E+02  0.00000000000E+00 0. -1.
         11    1    3    3    0    0 -0.12180439091E+02 -0.76969542690E+01 -0.47433087391E+01  0.15169218158E+02  0.51100000000E-03 0. -1.
        -11    1    3    3    0    0 -0.15833743306E+02 -0.24753724413E+02 -0.85556933575E+01  0.30604806624E+02  0.51100000000E-03 0.  1.
         12    1    3    3    0    0  0.34952523593E+01  0.31608923256E+01 -0.63282530562E+00  0.47548393471E+01  0.00000000000E+00 0. -1.
</event>
<event>
 7    1  0.2575978E-011  0.5052886E+02  0.7816164E-02  0.1300439E+00
        -11   -1    0    0    0    0  0.00000000000E+00  0.00000000000E+00  0.45593999997E+02  0.45594000000E+02  0.51100000000E-03 0.  1.
         11   -1    0    0    0    0 -0.00000000000E+00 -0.00000000000E+00 -0.45593999997E+02  0.45594000000E+02  0.51100000000E-03 0. -1.
    9900012    2    1    2    0    0  0.20047686430E+02  0.31543438049E+02 -0.16008365790E+02  0.50528856005E+02  0.29999988313E+02 0.  0.
         12    1    1    2    0    0 -0.20047686430E+02 -0.31543438049E+02  0.16008365790E+02  0.40659143995E+02  0.00000000000E+00 0. -1.
         11    1    3    3    0    0  0.16582030148E+02  0.11972260592E+02 -0.15321901163E+01  0.20509664900E+02  0.51100000000E-03 0. -1.
        -11    1    3    3    0    0  0.54468036631E+01  0.34786198857E+01  0.21351776052E+01  0.68064271185E+01  0.51100000000E-03 0.  1.
         12    1    3    3    0    0 -0.19811473811E+01  0.16092557571E+02 -0.16611353279E+02  0.23212763986E+02  0.00000000000E+00 0. -1.
</event>
<event>
 7    1  0.2575978E-011  0.5052886E+02  0.7816164E-02  0.1300439E+00
        -11   -1    0    0    0    0  0.00000000000E+00  0.00000000000E+00  0.45593999997E+02  0.45594000000E+02  0.51100000000E-03 0.  1.
         11   -1    0    0    0    0 -0.00000000000E+00 -0.00000000000E+00 -0.45593999997E+02  0.45594000000E+02  0.51100000000E-03 0. -1.
    9900012    2    1    2    0    0 -0.62857958175E+01  0.25431579835E+02  0.31094841758E+02  0.50528859996E+02  0.30000000443E+02 0.  0.
         12    1    1    2    0    0  0.62857958175E+01 -0.25431579835E+02 -0.31094841758E+02  0.40659140004E+02  0.00000000000E+00 0. -1.
         11    1    3    3    0    0 -0.11319849220E+02  0.69329810674E+01  0.38931354156E+01  0.13833355214E+02  0.51100000000E-03 0.  1.
        -11    1    3    3    0    0 -0.55490510248E+01  0.63860582873E+01  0.10853550137E+02  0.13761295672E+02  0.51100000000E-03 0. -1.
        -12    1    3    3    0    0  0.10583104427E+02  0.12112540480E+02  0.16348156205E+02  0.22934209110E+02  0.00000000000E+00 0.  1.
</event>
<event>
 7    1  0.2575978E-011  0.5052887E+02  0.7816164E-02  0.1300439E+00
        -11   -1    0    0    0    0  0.00000000000E+00  0.00000000000E+00  0.45593999997E+02  0.45594000000E+02  0.51100000000E-03 0.  1.
         11   -1    0    0    0    0 -0.00000000000E+00 -0.00000000000E+00 -0.45593999997E+02  0.45594000000E+02  0.51100000000E-03 0. -1.
    9900012    2    1    2    0    0 -0.38460019015E+02  0.55585981239E+01  0.11962181871E+02  0.50528869773E+02  0.30000030161E+02 0.  0.
         12    1    1    2    0    0  0.38460019015E+02 -0.55585981239E+01 -0.11962181871E+02  0.40659130227E+02  0.00000000000E+00 0. -1.
         11    1    3    3    0    0 -0.14174476834E+02  0.17560995637E+01  0.59107852916E+01  0.15457589147E+02  0.51100000000E-03 0.  1.
        -11    1    3    3    0    0 -0.23930422084E+02 -0.39955036615E+00  0.12778685888E+02  0.27131523268E+02  0.51100000000E-03 0. -1.
         12    1    3    3    0    0 -0.35512009686E+00  0.42020489264E+01 -0.67272893081E+01  0.79397573576E+01  0.00000000000E+00 0. -1.
</event>
<event>
 7    1  0.2575978E-011  0.5052892E+02  0.7816164E-02  0.1300439E+00
        -11   -1    0    0    0    0  0.00000000000E+00  0.00000000000E+00  0.45593999997E+02  0.45594000000E+02  0.51100000000E-03 0. -1.
         11   -1    0    0    0    0 -0.00000000000E+00 -0.00000000000E+00 -0.45593999997E+02  0.45594000000E+02  0.51100000000E-03 0.  1.
    9900012    2    1    2    0    0 -0.70562074863E+01 -0.70118972614E+01 -0.39423389518E+02  0.50528924649E+02  0.30000196962E+02 0.  0.
         12    1    1    2    0    0  0.70562074863E+01  0.70118972614E+01  0.39423389518E+02  0.40659075351E+02  0.00000000000E+00 0. -1.
         11    1    3    3    0    0  0.62546588792E+01 -0.74779838576E+01 -0.11809634452E+02  0.15313669267E+02  0.51100000000E-03 0. -1.
        -11    1    3    3    0    0  0.38212178490E+00 -0.50633396157E+01 -0.14857721589E+02  0.15701443125E+02  0.51100000000E-03 0.  1.
        -12    1    3    3    0    0 -0.13692988150E+02  0.55294262118E+01 -0.12756033477E+02  0.19513812257E+02  0.00000000000E+00 0.  1.
</event>
<event>
 7    1  0.2575978E-011  0.5052886E+02  0.7816164E-02  0.1300439E+00
        -11   -1    0    0    0    0  0.00000000000E+00  0.00000000000E+00  0.45593999997E+02  0.45594000000E+02  0.51100000000E-03 0. -1.
         11   -1    0    0    0    0 -0.00000000000E+00 -0.00000000000E+00 -0.45593999997E+02  0.45594000000E+02  0.51100000000E-03 0.  1.
    9900012    2    1    2    0    0 -0.15004260764E+01  0.40561436758E+02  0.23842008620E+01  0.50528857805E+02  0.29999993783E+02 0.  0.
         12    1    1    2    0    0  0.15004260764E+01 -0.40561436758E+02 -0.23842008620E+01  0.40659142195E+02  0.00000000000E+00 0. -1.
         11    1    3    3    0    0 -0.50814041421E+00  0.35546180851E+01 -0.68127935521E+01  0.77011474896E+01  0.51100000000E-03 0. -1.
        -11    1    3    3    0    0  0.18498275442E+01  0.14175457506E+02 -0.57309382258E+01  0.15401594419E+02  0.51100000000E-03 0.  1.
         12    1    3    3    0    0 -0.28421132064E+01  0.22831361167E+02  0.14927932640E+02  0.27426115896E+02  0.00000000000E+00 0. -1.
</event>
<event>
 7    1  0.2575978E-011  0.5052889E+02  0.7816164E-02  0.1300439E+00
        -11   -1    0    0    0    0  0.00000000000E+00  0.00000000000E+00  0.45593999997E+02  0.45594000000E+02  0.51100000000E-03 0.  1.
         11   -1    0    0    0    0 -0.00000000000E+00 -0.00000000000E+00 -0.45593999997E+02  0.45594000000E+02  0.51100000000E-03 0. -1.
    9900012    2    1    2    0    0  0.21048446119E+01  0.18827748055E+02  0.35975673014E+02  0.50528886427E+02  0.30000080784E+02 0.  0.
         12    1    1    2    0    0 -0.21048446119E+01 -0.18827748055E+02 -0.35975673014E+02  0.40659113573E+02  0.00000000000E+00 0. -1.
         11    1    3    3    0    0  0.82702810783E+00 -0.39948924258E+01  0.15821108955E+02  0.16338623866E+02  0.51100000000E-03 0. -1.
        -11    1    3    3    0    0  0.23620208316E-02  0.19311449132E+02  0.22598773256E+02  0.29726026073E+02  0.51100000000E-03 0.  1.
        -12    1    3    3    0    0  0.12754544833E+01  0.35111913490E+01 -0.24442091968E+01  0.44642364886E+01  0.00000000000E+00 0.  1.
</event>
<event>
 7    1  0.2575978E-011  0.5052885E+02  0.7816164E-02  0.1300439E+00
        -11   -1    0    0    0    0  0.00000000000E+00  0.00000000000E+00  0.45593999997E+02  0.45594000000E+02  0.51100000000E-03 0. -1.
         11   -1    0    0    0    0 -0.00000000000E+00 -0.00000000000E+00 -0.45593999997E+02  0.45594000000E+02  0.51100000000E-03 0.  1.
    9900012    2    1    2    0    0  0.97453288821E+00 -0.15847458579E+02 -0.37430928746E+02  0.50528854847E+02  0.29999984794E+02 0.  0.
         12    1    1    2    0    0 -0.97453288821E+00  0.15847458579E+02  0.37430928746E+02  0.40659145153E+02  0.00000000000E+00 0. -1.
         11    1    3    3    0    0 -0.10783933276E+01  0.52490663201E+01 -0.60503065828E+01  0.80821927352E+01  0.51100000000E-03 0. -1.
        -11    1    3    3    0    0  0.55791315181E+01  0.61896157419E+00 -0.11490733922E+02  0.12788541287E+02  0.51100000000E-03 0.  1.
        -12    1    3    3    0    0 -0.35262053022E+01 -0.21715486474E+02 -0.19889888241E+02  0.29658120825E+02  0.00000000000E+00 0.  1.
</event>
<event>
 7    1  0.2575978E-011  0.5052886E+02  0.7816164E-02  0.1300439E+00
        -11   -1    0    0    0    0  0.00000000000E+00  0.00000000000E+00  0.45593999997E+02  0.45594000000E+02  0.51100000000E-03 0.  1.
         11   -1    0    0    0    0 -0.00000000000E+00 -0.00000000000E+00 -0.45593999997E+02  0.45594000000E+02  0.51100000000E-03 0. -1.
    9900012    2    1    2    0    0  0.35389867633E+02 -0.19354868970E+02  0.51099913963E+01  0.50528859626E+02  0.29999999318E+02 0.  0.
         12    1    1    2    0    0 -0.35389867633E+02  0.19354868970E+02 -0.51099913963E+01  0.40659140374E+02  0.00000000000E+00 0. -1.
         11    1    3    3    0    0  0.11177822420E+01 -0.49277385457E+01 -0.45242007702E+01  0.67823622128E+01  0.51100000000E-03 0. -1.
        -11    1    3    3    0    0  0.95309218355E+01 -0.14387968970E+02  0.17665095861E+00  0.17259296855E+02  0.51100000000E-03 0.  1.
         12    1    3    3    0    0  0.24741163555E+02 -0.39161454725E-01  0.94575412079E+01  0.26487200557E+02  0.00000000000E+00 0. -1.
</event>
<event>
 7    1  0.2575978E-011  0.5052886E+02  0.7816164E-02  0.1300439E+00
        -11   -1    0    0    0    0  0.00000000000E+00  0.00000000000E+00  0.45593999997E+02  0.45594000000E+02  0.51100000000E-03 0. -1.
         11   -1    0    0    0    0 -0.00000000000E+00 -0.00000000000E+00 -0.45593999997E+02  0.45594000000E+02  0.51100000000E-03 0.  1.
    9900012    2    1    2    0    0  0.10382160283E+02  0.23083031324E+02 -0.31820594512E+02  0.50528858072E+02  0.29999994595E+02 0.  0.
         12    1    1    2    0    0 -0.10382160283E+02 -0.23083031324E+02  0.31820594512E+02  0.40659141928E+02  0.00000000000E+00 0. -1.
         11    1    3    3    0    0  0.83447229491E-01  0.15411378790E+02 -0.24025760717E+02  0.28543908946E+02  0.51100000000E-03 0. -1.
        -11    1    3    3    0    0 -0.84659255882E+00  0.89826515895E+01 -0.53839903171E+01  0.10506764513E+02  0.51100000000E-03 0.  1.
         12    1    3    3    0    0  0.11145305613E+02 -0.13109990548E+01 -0.24108434777E+01  0.11478184612E+02  0.00000000000E+00 0. -1.
</event>
<event>
 7    1  0.2575978E-011  0.5052886E+02  0.7816164E-02  0.1300439E+00
        -11   -1    0    0    0    0  0.00000000000E+00  0.00000000000E+00  0.45593999997E+02  0.45594000000E+02  0.51100000000E-03 0.  1.
         11   -1    0    0    0    0 -0.00000000000E+00 -0.00000000000E+00 -0.45593999997E+02  0.45594000000E+02  0.51100000000E-03 0. -1.
    9900012    2    1    2    0    0  0.22867630007E+02 -0.27808903703E+02  0.18891845693E+02  0.50528862515E+02  0.30000008101E+02 0.  0.
         12    1    1    2    0    0 -0.22867630007E+02  0.27808903703E+02 -0.18891845693E+02  0.40659137485E+02  0.00000000000E+00 0. -1.
         11    1    3    3    0    0  0.14276038676E+02  0.26578891322E+00  0.49188362463E+01  0.15102015571E+02  0.51100000000E-03 0. -1.
        -11    1    3    3    0    0  0.76531082534E+01 -0.67290971183E+01  0.57406884221E+00  0.10206878527E+02  0.51100000000E-03 0.  1.
        -12    1    3    3    0    0  0.93848307796E+00 -0.21345595498E+02  0.13398940604E+02  0.25219968418E+02  0.00000000000E+00 0.  1.
</event>
<event>
 7    1  0.2575978E-011  0.5052886E+02  0.7816164E-02  0.1300439E+00
        -11   -1    0    0    0    0  0.00000000000E+00  0.00000000000E+00  0.45593999997E+02  0.45594000000E+02  0.51100000000E-03 0.  1.
         11   -1    0    0    0    0 -0.00000000000E+00 -0.00000000000E+00 -0.45593999997E+02  0.45594000000E+02  0.51100000000E-03 0. -1.
    9900012    2    1    2    0    0  0.10227492612E+02 -0.30362865880E+02  0.25033189587E+02  0.50528858218E+02  0.29999995039E+02 0.  0.
         12    1    1    2    0    0 -0.10227492612E+02  0.30362865880E+02 -0.25033189587E+02  0.40659141782E+02  0.00000000000E+00 0. -1.
         11    1    3    3    0    0  0.97813091322E+01 -0.16175383945E+02  0.12059188030E+02  0.22421888197E+02  0.51100000000E-03 0. -1.
        -11    1    3    3    0    0 -0.57252986719E+01 -0.17057208020E+02  0.80766030016E+01  0.19722041138E+02  0.51100000000E-03 0.  1.
         12    1    3    3    0    0  0.61714821522E+01  0.28697260859E+01  0.48973985554E+01  0.83849288830E+01  0.00000000000E+00 0. -1.
</event>
<event>
 7    1  0.2575978E-011  0.5052882E+02  0.7816164E-02  0.1300439E+00
        -11   -1    0    0    0    0  0.00000000000E+00  0.00000000000E+00  0.45593999997E+02  0.45594000000E+02  0.51100000000E-03 0.  1.
         11   -1    0    0    0    0 -0.00000000000E+00 -0.00000000000E+00 -0.45593999997E+02  0.45594000000E+02  0.51100000000E-03 0. -1.
    9900012    2    1    2    0    0  0.20644322864E+02 -0.15167196564E+01  0.34995433452E+02  0.50528820624E+02  0.29999880769E+02 0.  0.
         12    1    1    2    0    0 -0.20644322864E+02  0.15167196564E+01 -0.34995433452E+02  0.40659179376E+02  0.00000000000E+00 0. -1.
         11    1    3    3    0    0  0.51136190214E+01  0.84834849901E+00  0.16806274660E+00  0.51862356309E+01  0.51100000000E-03 0. -1.
        -11    1    3    3    0    0  0.12658780841E+02  0.63949251958E+01  0.65903745761E+01  0.15638824698E+02  0.51100000000E-03 0.  1.
        -12    1    3    3    0    0  0.28719230020E+01 -0.87599933512E+01  0.28236996129E+02  0.29703760295E+02  0.00000000000E+00 0.  1.
</event>
<event>
 7    1  0.2575978E-011  0.5052885E+02  0.7816164E-02  0.1300439E+00
        -11   -1    0    0    0    0  0.00000000000E+00  0.00000000000E+00  0.45593999997E+02  0.45594000000E+02  0.51100000000E-03 0.  1.
         11   -1    0    0    0    0 -0.00000000000E+00 -0.00000000000E+00 -0.45593999997E+02  0.45594000000E+02  0.51100000000E-03 0. -1.
    9900012    2    1    2    0    0 -0.20977886601E+02  0.28471080915E+02  0.20062215734E+02  0.50528847588E+02  0.29999962729E+02 0.  0.
         12    1    1    2    0    0  0.20977886601E+02 -0.28471080915E+02 -0.20062215734E+02  0.40659152412E+02  0.00000000000E+00 0. -1.
         11    1    3    3    0    0 -0.18113522066E+02  0.23991911530E+02  0.98561515297E+00  0.30077947702E+02  0.51100000000E-03 0. -1.
        -11    1    3    3    0    0  0.49441379364E+00  0.18289288623E+01  0.16678588403E+01  0.25241194811E+01  0.51100000000E-03 0.  1.
        -12    1    3    3    0    0 -0.33587783290E+01  0.26502405227E+01  0.17408741741E+02  0.17926780405E+02  0.00000000000E+00 0.  1.
</event>
<event>
 7    1  0.2575978E-011  0.5052886E+02  0.7816164E-02  0.1300439E+00
        -11   -1    0    0    0    0  0.00000000000E+00  0.00000000000E+00  0.45593999997E+02  0.45594000000E+02  0.51100000000E-03 0.  1.
         11   -1    0    0    0    0 -0.00000000000E+00 -0.00000000000E+00 -0.45593999997E+02  0.45594000000E+02  0.51100000000E-03 0. -1.
    9900012    2    1    2    0    0 -0.37602909671E+02  0.44059025915E+01  0.14824800221E+02  0.50528862097E+02  0.30000006831E+02 0.  0.
         12    1    1    2    0    0  0.37602909671E+02 -0.44059025915E+01 -0.14824800221E+02  0.40659137903E+02  0.00000000000E+00 0. -1.
         11    1    3    3    0    0 -0.90910855433E+01 -0.36399486746E+01 -0.26681999127E+01  0.10149697224E+02  0.51100000000E-03 0. -1.
        -11    1    3    3    0    0 -0.13793571012E+02 -0.54417285687E+00 -0.25847227010E+01  0.14044198698E+02  0.51100000000E-03 0.  1.
         12    1    3    3    0    0 -0.14718253116E+02  0.85900241229E+01  0.20077722835E+02  0.26334966175E+02  0.00000000000E+00 0. -1.
</event>
<event>
 7    1  0.2575978E-011  0.5052886E+02  0.7816164E-02  0.1300439E+00
        -11   -1    0    0    0    0  0.00000000000E+00  0.00000000000E+00  0.45593999997E+02  0.45594000000E+02  0.51100000000E-03 0.  1.
         11   -1    0    0    0    0 -0.00000000000E+00 -0.00000000000E+00 -0.45593999997E+02  0.45594000000E+02  0.51100000000E-03 0. -1.
    9900012    2    1    2    0    0 -0.23975215959E+02  0.12902051317E+02  0.30197548792E+02  0.50528857590E+02  0.29999993132E+02 0.  0.
         12    1    1    2    0    0  0.23975215959E+02 -0.12902051317E+02 -0.30197548792E+02  0.40659142410E+02  0.00000000000E+00 0. -1.
         11    1    3    3    0    0 -0.80528798367E+01  0.91557252823E+01  0.31477077816E+01  0.12593023610E+02  0.51100000000E-03 0. -1.
        -11    1    3    3    0    0 -0.60008351415E+01  0.97219703586E+01  0.22973202458E+02  0.25657255533E+02  0.51100000000E-03 0.  1.
        -12    1    3    3    0    0 -0.99215009806E+01 -0.59756443238E+01  0.40766385515E+01  0.12278578447E+02  0.00000000000E+00 0.  1.
</event>
<event>
 7    1  0.2575978E-011  0.5052886E+02  0.7816164E-02  0.1300439E+00
        -11   -1    0    0    0    0  0.00000000000E+00  0.00000000000E+00  0.45593999997E+02  0.45594000000E+02  0.51100000000E-03 0.  1.
         11   -1    0    0    0    0 -0.00000000000E+00 -0.00000000000E+00 -0.45593999997E+02  0.45594000000E+02  0.51100000000E-03 0. -1.
    9900012    2    1    2    0    0  0.52943983604E+01 -0.23883936695E+02  0.32476029572E+02  0.50528861018E+02  0.30000003549E+02 0.  0.
         12    1    1    2    0    0 -0.52943983604E+01  0.23883936695E+02 -0.32476029572E+02  0.40659138982E+02  0.00000000000E+00 0. -1.
         11    1    3    3    0    0  0.10318356540E+02 -0.61545350438E+01  0.13247833827E+02  0.17884403391E+02  0.51100000000E-03 0. -1.
        -11    1    3    3    0    0 -0.42276184815E+01  0.31766932879E+01  0.24581352834E+01  0.58315150350E+01  0.51100000000E-03 0.  1.
        -12    1    3    3    0    0 -0.79633969840E+00 -0.20906094939E+02  0.16770060461E+02  0.26812942591E+02  0.00000000000E+00 0.  1.
</event>
<event>
 7    1  0.2575978E-011  0.5052886E+02  0.7816164E-02  0.1300439E+00
        -11   -1    0    0    0    0  0.00000000000E+00  0.00000000000E+00  0.45593999997E+02  0.45594000000E+02  0.51100000000E-03 0. -1.
         11   -1    0    0    0    0 -0.00000000000E+00 -0.00000000000E+00 -0.45593999997E+02  0.45594000000E+02  0.51100000000E-03 0.  1.
    9900012    2    1    2    0    0  0.23655753147E+02  0.29571790860E+02 -0.14801355477E+02  0.50528860861E+02  0.30000003072E+02 0.  0.
         12    1    1    2    0    0 -0.23655753147E+02 -0.29571790860E+02  0.14801355477E+02  0.40659139139E+02  0.00000000000E+00 0. -1.
         11    1    3    3    0    0  0.13624509881E+02  0.12091143155E+02  0.45395938890E+01  0.18773143722E+02  0.51100000000E-03 0. -1.
        -11    1    3    3    0    0  0.58106923630E+00 -0.20001280587E+01  0.75457424006E+00  0.22152959743E+01  0.51100000000E-03 0.  1.
        -12    1    3    3    0    0  0.94501740293E+01  0.19480775764E+02 -0.20095523606E+02  0.29540421164E+02  0.00000000000E+00 0.  1.
</event>
<event>
 7    1  0.2575978E-011  0.5052888E+02  0.7816164E-02  0.1300439E+00
        -11   -1    0    0    0    0  0.00000000000E+00  0.00000000000E+00  0.45593999997E+02  0.45594000000E+02  0.51100000000E-03 0.  1.
         11   -1    0    0    0    0 -0.00000000000E+00 -0.00000000000E+00 -0.45593999997E+02  0.45594000000E+02  0.51100000000E-03 0. -1.
    9900012    2    1    2    0    0  0.13982908238E+02 -0.27914323733E+02  0.26046739730E+02  0.50528882415E+02  0.30000068588E+02 0.  0.
         12    1    1    2    0    0 -0.13982908238E+02  0.27914323733E+02 -0.26046739730E+02  0.40659117585E+02  0.00000000000E+00 0. -1.
         11    1    3    3    0    0  0.46943027757E+01  0.18803852104E+00 -0.12706705509E+01  0.48668717823E+01  0.51100000000E-03 0. -1.
        -11    1    3    3    0    0  0.33054005288E+01  0.32683719323E+01  0.37166381981E+01  0.59515819325E+01  0.51100000000E-03 0.  1.
        -12    1    3    3    0    0  0.59832049339E+01 -0.31370734186E+02  0.23600772083E+02  0.39710428700E+02  0.00000000000E+00 0.  1.
</event>
<event>
 7    1  0.2575978E-011  0.5052886E+02  0.7816164E-02  0.1300439E+00
        -11   -1    0    0    0    0  0.00000000000E+00  0.00000000000E+00  0.45593999997E+02  0.45594000000E+02  0.51100000000E-03 0.  1.
         11   -1    0    0    0    0 -0.00000000000E+00 -0.00000000000E+00 -0.45593999997E+02  0.45594000000E+02  0.51100000000E-03 0. -1.
    9900012    2    1    2    0    0  0.32070027602E+02  0.18443941399E+01  0.24925435024E+02  0.50528858700E+02  0.29999996504E+02 0.  0.
         12    1    1    2    0    0 -0.32070027602E+02 -0.18443941399E+01 -0.24925435024E+02  0.40659141300E+02  0.00000000000E+00 0. -1.
         11    1    3    3    0    0  0.11665534322E+02  0.54002032766E+01  0.16665540860E+02  0.21047259652E+02  0.51100000000E-03 0. -1.
        -11    1    3    3    0    0  0.99964065922E+01  0.67245940203E+01  0.86757400721E+01  0.14846439828E+02  0.51100000000E-03 0.  1.
         12    1    3    3    0    0  0.10408086689E+02 -0.10280403157E+02 -0.41584590833E+00  0.14635159220E+02  0.00000000000E+00 0. -1.
</event>
<event>
 7    1  0.2575978E-011  0.5052886E+02  0.7816164E-02  0.1300439E+00
        -11   -1    0    0    0    0  0.00000000000E+00  0.00000000000E+00  0.45593999997E+02  0.45594000000E+02  0.51100000000E-03 0.  1.
         11   -1    0    0    0    0 -0.00000000000E+00 -0.00000000000E+00 -0.45593999997E+02  0.45594000000E+02  0.51100000000E-03 0. -1.
    9900012    2    1    2    0    0 -0.10825209747E+02 -0.36395862043E+02  0.14536917307E+02  0.50528857059E+02  0.29999991517E+02 0.  0.
         12    1    1    2    0    0  0.10825209747E+02  0.36395862043E+02 -0.14536917307E+02  0.40659142941E+02  0.00000000000E+00 0. -1.
         11    1    3    3    0    0 -0.75572110171E+00 -0.30459445294E+00 -0.43788588877E+00  0.92500620379E+00  0.51100000000E-03 0. -1.
        -11    1    3    3    0    0 -0.99774973416E+01 -0.41092919977E+02  0.13428675739E+02  0.44367869656E+02  0.51100000000E-03 0.  1.
        -12    1    3    3    0    0 -0.91991303608E-01  0.50016523875E+01  0.15461274561E+01  0.52359811990E+01  0.00000000000E+00 0.  1.
</event>
<event>
 7    1  0.2575978E-011  0.5052885E+02  0.7816164E-02  0.1300439E+00
        -11   -1    0    0    0    0  0.00000000000E+00  0.00000000000E+00  0.45593999997E+02  0.45594000000E+02  0.51100000000E-03 0.  1.
         11   -1    0    0    0    0 -0.00000000000E+00 -0.00000000000E+00 -0.45593999997E+02  0.45594000000E+02  0.51100000000E-03 0. -1.
    9900012    2    1    2    0    0  0.75244470087E+01 -0.37508444530E+02  0.13771929983E+02  0.50528846427E+02  0.29999959198E+02 0.  0.
         12    1    1    2    0    0 -0.75244470087E+01  0.37508444530E+02 -0.13771929983E+02  0.40659153573E+02  0.00000000000E+00 0. -1.
         11    1    3    3    0    0  0.63903254816E+01 -0.55686895289E+01 -0.22720901855E+01  0.87754747394E+01  0.51100000000E-03 0. -1.
        -11    1    3    3    0    0  0.90246629874E+01 -0.15359264204E+02  0.70674361230E+00  0.17828376979E+02  0.51100000000E-03 0.  1.
        -12    1    3    3    0    0 -0.78905414603E+01 -0.16580490797E+02  0.15337276556E+02  0.23924994708E+02  0.00000000000E+00 0.  1.
</event>
<event>
 7    1  0.2575978E-011  0.5052886E+02  0.7816164E-02  0.1300439E+00
        -11   -1    0    0    0    0  0.00000000000E+00  0.00000000000E+00  0.45593999997E+02  0.45594000000E+02  0.51100000000E-03 0.  1.
         11   -1    0    0    0    0 -0.00000000000E+00 -0.00000000000E+00 -0.45593999997E+02  0.45594000000E+02  0.51100000000E-03 0. -1.
    9900012    2    1    2    0    0 -0.38837074391E+02  0.11526460282E+02  0.34623184059E+01  0.50528864708E+02  0.30000014768E+02 0.  0.
         12    1    1    2    0    0  0.38837074391E+02 -0.11526460282E+02 -0.34623184059E+01  0.40659135292E+02  0.00000000000E+00 0. -1.
         11    1    3    3    0    0 -0.13875508495E+02  0.63165971765E+01  0.83304623305E+01  0.17373132671E+02  0.51100000000E-03 0. -1.
        -11    1    3    3    0    0 -0.28459699292E+01  0.37377200737E+01  0.66773884659E+01  0.81644113794E+01  0.51100000000E-03 0.  1.
         12    1    3    3    0    0 -0.22115595967E+02  0.14721430321E+01 -0.11545532390E+02  0.24991320658E+02  0.00000000000E+00 0. -1.
</event>
<event>
 7    1  0.2575978E-011  0.5052885E+02  0.7816164E-02  0.1300439E+00
        -11   -1    0    0    0    0  0.00000000000E+00  0.00000000000E+00  0.45593999997E+02  0.45594000000E+02  0.51100000000E-03 0.  1.
         11   -1    0    0    0    0 -0.00000000000E+00 -0.00000000000E+00 -0.45593999997E+02  0.45594000000E+02  0.51100000000E-03 0. -1.
    9900012    2    1    2    0    0 -0.33668894142E+02 -0.14580354148E+02  0.17521002878E+02  0.50528847259E+02  0.29999961727E+02 0.  0.
         12    1    1    2    0    0  0.33668894142E+02  0.14580354148E+02 -0.17521002878E+02  0.40659152741E+02  0.00000000000E+00 0. -1.
         11    1    3    3    0    0 -0.12624659920E+02 -0.10666468917E+02  0.17011840130E+02  0.23718311536E+02  0.51100000000E-03 0. -1.
        -11    1    3    3    0    0 -0.13618959648E+02 -0.45926345623E+01  0.78250581511E+01  0.16364592554E+02  0.51100000000E-03 0.  1.
        -12    1    3    3    0    0 -0.74252745733E+01  0.67874933103E+00 -0.73158954029E+01  0.10445943169E+02  0.00000000000E+00 0.  1.
</event>
<event>
 7    1  0.2575978E-011  0.5052888E+02  0.7816164E-02  0.1300439E+00
        -11   -1    0    0    0    0  0.00000000000E+00  0.00000000000E+00  0.45593999997E+02  0.45594000000E+02  0.51100000000E-03 0.  1.
         11   -1    0    0    0    0 -0.00000000000E+00 -0.00000000000E+00 -0.45593999997E+02  0.45594000000E+02  0.51100000000E-03 0. -1.
    9900012    2    1    2    0    0  0.28082440483E+02  0.16680257863E+02  0.24213823856E+02  0.50528883782E+02  0.30000072744E+02 0.  0.
         12    1    1    2    0    0 -0.28082440483E+02 -0.16680257863E+02 -0.24213823856E+02  0.40659116218E+02  0.00000000000E+00 0. -1.
         11    1    3    3    0    0  0.14458848379E+02 -0.44228474546E+01  0.68561360955E+01  0.16602002243E+02  0.51100000000E-03 0. -1.
        -11    1    3    3    0    0  0.41663614189E-01  0.26210638240E+01 -0.24751884973E+01  0.36053113298E+01  0.51100000000E-03 0.  1.
         12    1    3    3    0    0  0.13581928490E+02  0.18482041494E+02  0.19832876258E+02  0.30321570209E+02  0.00000000000E+00 0. -1.
</event>
<event>
 7    1  0.2575978E-011  0.5052885E+02  0.7816164E-02  0.1300439E+00
        -11   -1    0    0    0    0  0.00000000000E+00  0.00000000000E+00  0.45593999997E+02  0.45594000000E+02  0.51100000000E-03 0.  1.
         11   -1    0    0    0    0 -0.00000000000E+00 -0.00000000000E+00 -0.45593999997E+02  0.45594000000E+02  0.51100000000E-03 0. -1.
    9900012    2    1    2    0    0  0.15423841863E+02  0.35654149537E+02  0.12002206940E+02  0.50528852832E+02  0.29999978667E+02 0.  0.
         12    1    1    2    0    0 -0.15423841863E+02 -0.35654149537E+02 -0.12002206940E+02  0.40659147168E+02  0.00000000000E+00 0. -1.
         11    1    3    3    0    0  0.65365104996E+01  0.14833068137E+01  0.75349041339E+01  0.10084688849E+02  0.51100000000E-03 0. -1.
        -11    1    3    3    0    0 -0.32290063282E+01  0.20495749791E+01  0.47680036405E+01  0.61123725704E+01  0.51100000000E-03 0.  1.
        -12    1    3    3    0    0  0.12116337691E+02  0.32121267745E+02 -0.30070083431E+00  0.34331791412E+02  0.00000000000E+00 0.  1.
</event>
<event>
 7    1  0.2575978E-011  0.5052886E+02  0.7816164E-02  0.1300439E+00
        -11   -1    0    0    0    0  0.00000000000E+00  0.00000000000E+00  0.45593999997E+02  0.45594000000E+02  0.51100000000E-03 0.  1.
         11   -1    0    0    0    0 -0.00000000000E+00 -0.00000000000E+00 -0.45593999997E+02  0.45594000000E+02  0.51100000000E-03 0. -1.
    9900012    2    1    2    0    0 -0.95278849116E+01 -0.36372769718E+02  0.15472781470E+02  0.50528856696E+02  0.29999990412E+02 0.  0.
         12    1    1    2    0    0  0.95278849116E+01  0.36372769718E+02 -0.15472781470E+02  0.40659143304E+02  0.00000000000E+00 0. -1.
         11    1    3    3    0    0  0.38177704297E+01 -0.77990953392E+00 -0.41186586782E+01  0.56698306415E+01  0.51100000000E-03 0. -1.
        -11    1    3    3    0    0 -0.88394013495E+01 -0.17549603977E+02  0.17188710391E+02  0.26106998700E+02  0.51100000000E-03 0.  1.
         12    1    3    3    0    0 -0.45062539918E+01 -0.18043256207E+02  0.24027297573E+01  0.18752027354E+02  0.00000000000E+00 0. -1.
</event>
<event>
 7    1  0.2575978E-011  0.5052886E+02  0.7816164E-02  0.1300439E+00
        -11   -1    0    0    0    0  0.00000000000E+00  0.00000000000E+00  0.45593999997E+02  0.45594000000E+02  0.51100000000E-03 0.  1.
         11   -1    0    0    0    0 -0.00000000000E+00 -0.00000000000E+00 -0.45593999997E+02  0.45594000000E+02  0.51100000000E-03 0. -1.
    9900012    2    1    2    0    0 -0.75590157084E+01 -0.33067306188E+02  0.22418303968E+02  0.50528858226E+02  0.29999995064E+02 0.  0.
         12    1    1    2    0    0  0.75590157084E+01  0.33067306188E+02 -0.22418303968E+02  0.40659141774E+02  0.00000000000E+00 0. -1.
         11    1    3    3    0    0 -0.36498114434E+01 -0.95955904906E+01  0.60635774769E+01  0.11923231631E+02  0.51100000000E-03 0.  1.
        -11    1    3    3    0    0 -0.82468120352E+01 -0.20106017613E+02  0.21864638684E+02  0.30827330051E+02  0.51100000000E-03 0. -1.
         12    1    3    3    0    0  0.43376077703E+01 -0.33656980845E+01 -0.55099121930E+01  0.77782965449E+01  0.00000000000E+00 0. -1.
</event>
<event>
 7    1  0.2575978E-011  0.5052886E+02  0.7816164E-02  0.1300439E+00
        -11   -1    0    0    0    0  0.00000000000E+00  0.00000000000E+00  0.45593999997E+02  0.45594000000E+02  0.51100000000E-03 0.  1.
         11   -1    0    0    0    0 -0.00000000000E+00 -0.00000000000E+00 -0.45593999997E+02  0.45594000000E+02  0.51100000000E-03 0. -1.
    9900012    2    1    2    0    0  0.39073040477E+02  0.97990063647E+01  0.55174725937E+01  0.50528861769E+02  0.30000005834E+02 0.  0.
         12    1    1    2    0    0 -0.39073040477E+02 -0.97990063647E+01 -0.55174725937E+01  0.40659138231E+02  0.00000000000E+00 0. -1.
         11    1    3    3    0    0  0.14991255953E+02  0.80478671208E+01  0.35296498712E+01  0.17377121416E+02  0.51100000000E-03 0. -1.
        -11    1    3    3    0    0 -0.16689190364E+01 -0.25310800187E+01  0.60176099432E+01  0.67381960866E+01  0.51100000000E-03 0.  1.
         12    1    3    3    0    0  0.25750703560E+02  0.42822192626E+01 -0.40297872207E+01  0.26413544266E+02  0.00000000000E+00 0. -1.
</event>
<event>
 7    1  0.2575978E-011  0.5052886E+02  0.7816164E-02  0.1300439E+00
        -11   -1    0    0    0    0  0.00000000000E+00  0.00000000000E+00  0.45593999997E+02  0.45594000000E+02  0.51100000000E-03 0.  1.
         11   -1    0    0    0    0 -0.00000000000E+00 -0.00000000000E+00 -0.45593999997E+02  0.45594000000E+02  0.51100000000E-03 0. -1.
    9900012    2    1    2    0    0  0.85482038639E+01 -0.14743297192E+02  0.36915160490E+02  0.50528859879E+02  0.30000000089E+02 0.  0.
         12    1    1    2    0    0 -0.85482038639E+01  0.14743297192E+02 -0.36915160490E+02  0.40659140121E+02  0.00000000000E+00 0. -1.
         11    1    3    3    0    0  0.75694819845E+01 -0.69444469111E+01  0.26111872570E+02  0.28059798463E+02  0.51100000000E-03 0. -1.
        -11    1    3    3    0    0 -0.76123267791E+01  0.15575976874E+00  0.64468117527E+01  0.99766308007E+01  0.51100000000E-03 0.  1.
         12    1    3    3    0    0  0.85910486585E+01 -0.79546100495E+01  0.43564761669E+01  0.12492430616E+02  0.00000000000E+00 0. -1.
</event>
<event>
 7    1  0.2575978E-011  0.5052888E+02  0.7816164E-02  0.1300439E+00
        -11   -1    0    0    0    0  0.00000000000E+00  0.00000000000E+00  0.45593999997E+02  0.45594000000E+02  0.51100000000E-03 0.  1.
         11   -1    0    0    0    0 -0.00000000000E+00 -0.00000000000E+00 -0.45593999997E+02  0.45594000000E+02  0.51100000000E-03 0. -1.
    9900012    2    1    2    0    0 -0.11242589203E+02 -0.28595260605E+02  0.26628542602E+02  0.50528880209E+02  0.30000061883E+02 0.  0.
         12    1    1    2    0    0  0.11242589203E+02  0.28595260605E+02 -0.26628542602E+02  0.40659119791E+02  0.00000000000E+00 0. -1.
         11    1    3    3    0    0 -0.52716701648E+01 -0.12536963643E+02  0.15987545733E+02  0.20989701821E+02  0.51100000000E-03 0. -1.
        -11    1    3    3    0    0 -0.82784869950E+01 -0.12951513943E+02  0.16478877411E+02  0.22535049619E+02  0.51100000000E-03 0.  1.
         12    1    3    3    0    0  0.23075679567E+01 -0.31067830187E+01 -0.58378805413E+01  0.70041287692E+01  0.00000000000E+00 0. -1.
</event>
<event>
 7    1  0.2575978E-011  0.5052886E+02  0.7816164E-02  0.1300439E+00
        -11   -1    0    0    0    0  0.00000000000E+00  0.00000000000E+00  0.45593999997E+02  0.45594000000E+02  0.51100000000E-03 0.  1.
         11   -1    0    0    0    0 -0.00000000000E+00 -0.00000000000E+00 -0.45593999997E+02  0.45594000000E+02  0.51100000000E-03 0. -1.
    9900012    2    1    2    0    0 -0.86180661100E+01 -0.34280433869E+02  0.20093433257E+02  0.50528864867E+02  0.30000015249E+02 0.  0.
         12    1    1    2    0    0  0.86180661100E+01  0.34280433869E+02 -0.20093433257E+02  0.40659135133E+02  0.00000000000E+00 0. -1.
         11    1    3    3    0    0 -0.28195616358E+01 -0.11575451366E+02  0.35402102023E+01  0.12428760626E+02  0.51100000000E-03 0. -1.
        -11    1    3    3    0    0 -0.11415411402E+02 -0.24625747042E+02  0.17192164471E+02  0.32129574450E+02  0.51100000000E-03 0.  1.
         12    1    3    3    0    0  0.56169069281E+01  0.19207645391E+01 -0.63894141644E+00  0.59705297912E+01  0.00000000000E+00 0. -1.
</event>
<event>
 7    1  0.2575978E-011  0.5052885E+02  0.7816164E-02  0.1300439E+00
        -11   -1    0    0    0    0  0.00000000000E+00  0.00000000000E+00  0.45593999997E+02  0.45594000000E+02  0.51100000000E-03 0.  1.
         11   -1    0    0    0    0 -0.00000000000E+00 -0.00000000000E+00 -0.45593999997E+02  0.45594000000E+02  0.51100000000E-03 0. -1.
    9900012    2    1    2    0    0 -0.31364524626E+01 -0.31771533162E+02  0.25177343218E+02  0.50528852628E+02  0.29999978047E+02 0.  0.
         12    1    1    2    0    0  0.31364524626E+01  0.31771533162E+02 -0.25177343218E+02  0.40659147372E+02  0.00000000000E+00 0. -1.
         11    1    3    3    0    0 -0.18265192274E+01  0.36158097230E+01  0.50101691832E+01  0.64429843974E+01  0.51100000000E-03 0. -1.
        -11    1    3    3    0    0 -0.25587820005E+01 -0.74103049917E+00 -0.16405219824E+01  0.31285466534E+01  0.51100000000E-03 0.  1.
         12    1    3    3    0    0  0.12488487653E+01 -0.34646312386E+02  0.21807696017E+02  0.40957321577E+02  0.00000000000E+00 0. -1.
</event>
<event>
 7    1  0.2575978E-011  0.5052887E+02  0.7816164E-02  0.1300439E+00
        -11   -1    0    0    0    0  0.00000000000E+00  0.00000000000E+00  0.45593999997E+02  0.45594000000E+02  0.51100000000E-03 0. -1.
         11   -1    0    0    0    0 -0.00000000000E+00 -0.00000000000E+00 -0.45593999997E+02  0.45594000000E+02  0.51100000000E-03 0.  1.
    9900012    2    1    2    0    0 -0.73278328121E+01  0.32365793627E+02 -0.23493044986E+02  0.50528869493E+02  0.30000029312E+02 0.  0.
         12    1    1    2    0    0  0.73278328121E+01 -0.32365793627E+02  0.23493044986E+02  0.40659130507E+02  0.00000000000E+00 0. -1.
         11    1    3    3    0    0 -0.81303213777E+01  0.12812741307E+02 -0.37955656859E+01  0.15642083769E+02  0.51100000000E-03 0. -1.
        -11    1    3    3    0    0 -0.26979981496E+01  0.18549461056E+02 -0.45245317732E+01  0.19282974032E+02  0.51100000000E-03 0.  1.
        -12    1    3    3    0    0  0.35004867152E+01  0.10035912635E+01 -0.15172947527E+02  0.15603811692E+02  0.00000000000E+00 0.  1.
</event>
<event>
 7    1  0.2575978E-011  0.5052886E+02  0.7816164E-02  0.1300439E+00
        -11   -1    0    0    0    0  0.00000000000E+00  0.00000000000E+00  0.45593999997E+02  0.45594000000E+02  0.51100000000E-03 0.  1.
         11   -1    0    0    0    0 -0.00000000000E+00 -0.00000000000E+00 -0.45593999997E+02  0.45594000000E+02  0.51100000000E-03 0. -1.
    9900012    2    1    2    0    0 -0.11041592021E+02  0.38177472413E+02  0.85865928679E+01  0.50528859192E+02  0.29999997999E+02 0.  0.
         12    1    1    2    0    0  0.11041592021E+02 -0.38177472413E+02 -0.85865928679E+01  0.40659140808E+02  0.00000000000E+00 0. -1.
         11    1    3    3    0    0 -0.14082567516E+02  0.16823297202E+02  0.85163776513E+01  0.23534458251E+02  0.51100000000E-03 0. -1.
        -11    1    3    3    0    0 -0.11721190651E+01 -0.23419842585E+01 -0.12261175240E+01  0.28917326663E+01  0.51100000000E-03 0.  1.
        -12    1    3    3    0    0  0.42130945605E+01  0.23696159469E+02  0.12963327406E+01  0.24102668274E+02  0.00000000000E+00 0.  1.
</event>
<event>
 7    1  0.2575978E-011  0.5052881E+02  0.7816164E-02  0.1300439E+00
        -11   -1    0    0    0    0  0.00000000000E+00  0.00000000000E+00  0.45593999997E+02  0.45594000000E+02  0.51100000000E-03 0.  1.
         11   -1    0    0    0    0 -0.00000000000E+00 -0.00000000000E+00 -0.45593999997E+02  0.45594000000E+02  0.51100000000E-03 0. -1.
    9900012    2    1    2    0    0  0.30949552237E+02  0.67339883061E+01  0.25494084870E+02  0.50528809827E+02  0.29999847949E+02 0.  0.
         12    1    1    2    0    0 -0.30949552237E+02 -0.67339883061E+01 -0.25494084870E+02  0.40659190173E+02  0.00000000000E+00 0. -1.
         11    1    3    3    0    0 -0.14060984407E+01  0.48584200119E+00 -0.73147806075E+00  0.16577743181E+01  0.51100000000E-03 0. -1.
        -11    1    3    3    0    0  0.22220542931E+02  0.11623654591E+02  0.62641018649E+01  0.25847646830E+02  0.51100000000E-03 0.  1.
        -12    1    3    3    0    0  0.10135107747E+02 -0.53755082862E+01  0.19961461066E+02  0.23023388679E+02  0.00000000000E+00 0.  1.
</event>
<event>
 7    1  0.2575978E-011  0.5052887E+02  0.7816164E-02  0.1300439E+00
        -11   -1    0    0    0    0  0.00000000000E+00  0.00000000000E+00  0.45593999997E+02  0.45594000000E+02  0.51100000000E-03 0.  1.
         11   -1    0    0    0    0 -0.00000000000E+00 -0.00000000000E+00 -0.45593999997E+02  0.45594000000E+02  0.51100000000E-03 0. -1.
    9900012    2    1    2    0    0 -0.28245745922E+02  0.28695489002E+02 -0.56490507653E+01  0.50528867861E+02  0.30000024349E+02 0.  0.
         12    1    1    2    0    0  0.28245745922E+02 -0.28695489002E+02  0.56490507653E+01  0.40659132139E+02  0.00000000000E+00 0. -1.
         11    1    3    3    0    0 -0.77491100486E+01  0.13456890694E+02 -0.50305067452E+01  0.16323069934E+02  0.51100000000E-03 0. -1.
        -11    1    3    3    0    0  0.46538368763E+01 -0.61443258991E-01  0.84677017860E+00  0.47306440304E+01  0.51100000000E-03 0.  1.
        -12    1    3    3    0    0 -0.25150472750E+02  0.15300041567E+02 -0.14653141987E+01  0.29475153896E+02  0.00000000000E+00 0.  1.
</event>
<event>
 7    1  0.2575978E-011  0.5052886E+02  0.7816164E-02  0.1300439E+00
        -11   -1    0    0    0    0  0.00000000000E+00  0.00000000000E+00  0.45593999997E+02  0.45594000000E+02  0.51100000000E-03 0.  1.
         11   -1    0    0    0    0 -0.00000000000E+00 -0.00000000000E+00 -0.45593999997E+02  0.45594000000E+02  0.51100000000E-03 0. -1.
    9900012    2    1    2    0    0 -0.13313688133E+02  0.11475759006E+02  0.36663581092E+02  0.50528861852E+02  0.30000006085E+02 0.  0.
         12    1    1    2    0    0  0.13313688133E+02 -0.11475759006E+02 -0.36663581092E+02  0.40659138148E+02  0.00000000000E+00 0. -1.
         11    1    3    3    0    0  0.28077973158E+01 -0.78763445469E+00  0.74890423033E+01  0.80367809901E+01  0.51100000000E-03 0. -1.
        -11    1    3    3    0    0  0.75249099869E+00 -0.17573428303E+01 -0.29954066099E+01  0.35534430551E+01  0.51100000000E-03 0.  1.
        -12    1    3    3    0    0 -0.16873976448E+02  0.14020736291E+02  0.32169945398E+02  0.38938637807E+02  0.00000000000E+00 0.  1.
</event>
<event>
 7    1  0.2575978E-011  0.5052887E+02  0.7816164E-02  0.1300439E+00
        -11   -1    0    0    0    0  0.00000000000E+00  0.00000000000E+00  0.45593999997E+02  0.45594000000E+02  0.51100000000E-03 0.  1.
         11   -1    0    0    0    0 -0.00000000000E+00 -0.00000000000E+00 -0.45593999997E+02  0.45594000000E+02  0.51100000000E-03 0. -1.
    9900012    2    1    2    0    0 -0.12191244019E+02  0.13115579169E+02  0.36503700516E+02  0.50528868197E+02  0.30000025370E+02 0.  0.
         12    1    1    2    0    0  0.12191244019E+02 -0.13115579169E+02 -0.36503700516E+02  0.40659131803E+02  0.00000000000E+00 0. -1.
         11    1    3    3    0    0 -0.89842734933E+01 -0.15157725166E+01  0.15813394351E+02  0.18250429521E+02  0.51100000000E-03 0. -1.
        -11    1    3    3    0    0 -0.79360891044E+01  0.80769480963E+01  0.21352326096E+02  0.24168997306E+02  0.51100000000E-03 0.  1.
         12    1    3    3    0    0  0.47291185786E+01  0.65544035890E+01 -0.66201993120E+00  0.81094413696E+01  0.00000000000E+00 0. -1.
</event>
<event>
 7    1  0.2575978E-011  0.5052886E+02  0.7816164E-02  0.1300439E+00
        -11   -1    0    0    0    0  0.00000000000E+00  0.00000000000E+00  0.45593999997E+02  0.45594000000E+02  0.51100000000E-03 0. -1.
         11   -1    0    0    0    0 -0.00000000000E+00 -0.00000000000E+00 -0.45593999997E+02  0.45594000000E+02  0.51100000000E-03 0.  1.
    9900012    2    1    2    0    0  0.58494263192E+01  0.18467443113E+02 -0.35747776415E+02  0.50528858814E+02  0.29999996850E+02 0.  0.
         12    1    1    2    0    0 -0.58494263192E+01 -0.18467443113E+02  0.35747776415E+02  0.40659141186E+02  0.00000000000E+00 0. -1.
         11    1    3    3    0    0 -0.14258678486E+01  0.25776027708E+01  0.59359290180E+00  0.30049106409E+01  0.51100000000E-03 0. -1.
        -11    1    3    3    0    0 -0.81670708088E+01  0.11175741021E+02 -0.12027212505E+02  0.18337177369E+02  0.51100000000E-03 0.  1.
        -12    1    3    3    0    0  0.15442364977E+02  0.47140993215E+01 -0.24314156812E+02  0.29186770804E+02  0.00000000000E+00 0.  1.
</event>
<event>
 7    1  0.2575978E-011  0.5052886E+02  0.7816164E-02  0.1300439E+00
        -11   -1    0    0    0    0  0.00000000000E+00  0.00000000000E+00  0.45593999997E+02  0.45594000000E+02  0.51100000000E-03 0.  1.
         11   -1    0    0    0    0 -0.00000000000E+00 -0.00000000000E+00 -0.45593999997E+02  0.45594000000E+02  0.51100000000E-03 0. -1.
    9900012    2    1    2    0    0 -0.35790678380E+02 -0.80706602420E+01  0.17523046361E+02  0.50528863642E+02  0.30000011525E+02 0.  0.
         12    1    1    2    0    0  0.35790678380E+02  0.80706602420E+01 -0.17523046361E+02  0.40659136358E+02  0.00000000000E+00 0. -1.
         11    1    3    3    0    0 -0.15228398120E+02 -0.32451208293E+01  0.14597496446E+02  0.21342957182E+02  0.51100000000E-03 0.  1.
        -11    1    3    3    0    0 -0.15049216787E+02 -0.10405255858E+02  0.78664399593E+01  0.19915550539E+02  0.51100000000E-03 0. -1.
         12    1    3    3    0    0 -0.55130634724E+01  0.55797164458E+01 -0.49408900443E+01  0.92703559207E+01  0.00000000000E+00 0. -1.
</event>
<event>
 7    1  0.2575978E-011  0.5052886E+02  0.7816164E-02  0.1300439E+00
        -11   -1    0    0    0    0  0.00000000000E+00  0.00000000000E+00  0.45593999997E+02  0.45594000000E+02  0.51100000000E-03 0. -1.
         11   -1    0    0    0    0 -0.00000000000E+00 -0.00000000000E+00 -0.45593999997E+02  0.45594000000E+02  0.51100000000E-03 0.  1.
    9900012    2    1    2    0    0  0.16366064406E+02  0.37014976888E+02  0.38998768924E+01  0.50528860586E+02  0.30000002236E+02 0.  0.
         12    1    1    2    0    0 -0.16366064406E+02 -0.37014976888E+02 -0.38998768924E+01  0.40659139414E+02  0.00000000000E+00 0. -1.
         11    1    3    3    0    0 -0.30711977851E+00  0.11633323229E+02  0.62163282983E+01  0.13193607152E+02  0.51100000000E-03 0. -1.
        -11    1    3    3    0    0 -0.30601882709E+00  0.43897403350E+01  0.74262306445E+01  0.86320547715E+01  0.51100000000E-03 0.  1.
        -12    1    3    3    0    0  0.16979203012E+02  0.20991913324E+02 -0.97426820504E+01  0.28703198662E+02  0.00000000000E+00 0.  1.
</event>
<event>
 7    1  0.2575978E-011  0.5052886E+02  0.7816164E-02  0.1300439E+00
        -11   -1    0    0    0    0  0.00000000000E+00  0.00000000000E+00  0.45593999997E+02  0.45594000000E+02  0.51100000000E-03 0.  1.
         11   -1    0    0    0    0 -0.00000000000E+00 -0.00000000000E+00 -0.45593999997E+02  0.45594000000E+02  0.51100000000E-03 0. -1.
    9900012    2    1    2    0    0 -0.18692946971E+02  0.20435583864E+01  0.36049455230E+02  0.50528860563E+02  0.30000002169E+02 0.  0.
         12    1    1    2    0    0  0.18692946971E+02 -0.20435583864E+01 -0.36049455230E+02  0.40659139437E+02  0.00000000000E+00 0. -1.
         11    1    3    3    0    0  0.17533973772E+01 -0.30391481630E+00  0.64790615163E+01  0.67190032722E+01  0.51100000000E-03 0. -1.
        -11    1    3    3    0    0  0.12464468705E+01 -0.59899739400E+00  0.19780183649E+02  0.19828466736E+02  0.51100000000E-03 0.  1.
        -12    1    3    3    0    0 -0.21692791219E+02  0.29464705967E+01  0.97902100650E+01  0.23981390555E+02  0.00000000000E+00 0.  1.
</event>
<event>
 7    1  0.2575978E-011  0.5052887E+02  0.7816164E-02  0.1300439E+00
        -11   -1    0    0    0    0  0.00000000000E+00  0.00000000000E+00  0.45593999997E+02  0.45594000000E+02  0.51100000000E-03 0. -1.
         11   -1    0    0    0    0 -0.00000000000E+00 -0.00000000000E+00 -0.45593999997E+02  0.45594000000E+02  0.51100000000E-03 0.  1.
    9900012    2    1    2    0    0 -0.11278079420E+02  0.37176707278E+02  0.11994274259E+02  0.50528865056E+02  0.30000015823E+02 0.  0.
         12    1    1    2    0    0  0.11278079420E+02 -0.37176707278E+02 -0.11994274259E+02  0.40659134944E+02  0.00000000000E+00 0. -1.
         11    1    3    3    0    0 -0.59375762628E+01  0.18338801111E+02  0.14169750818E+02  0.23923801466E+02  0.51100000000E-03 0. -1.
        -11    1    3    3    0    0 -0.10581532561E+02  0.17415676700E+02 -0.42050580963E+01  0.20807622164E+02  0.51100000000E-03 0.  1.
        -12    1    3    3    0    0  0.52410294041E+01  0.14222294665E+01  0.20295815370E+01  0.57974414258E+01  0.00000000000E+00 0.  1.
</event>
<event>
 7    1  0.2575978E-011  0.5052886E+02  0.7816164E-02  0.1300439E+00
        -11   -1    0    0    0    0  0.00000000000E+00  0.00000000000E+00  0.45593999997E+02  0.45594000000E+02  0.51100000000E-03 0.  1.
         11   -1    0    0    0    0 -0.00000000000E+00 -0.00000000000E+00 -0.45593999997E+02  0.45594000000E+02  0.51100000000E-03 0. -1.
    9900012    2    1    2    0    0 -0.93527491340E+01  0.38373688446E+02  0.96515051938E+01  0.50528862849E+02  0.30000009116E+02 0.  0.
         12    1    1    2    0    0  0.93527491340E+01 -0.38373688446E+02 -0.96515051938E+01  0.40659137151E+02  0.00000000000E+00 0. -1.
         11    1    3    3    0    0  0.10109210263E+01 -0.20675660761E+01  0.10789933466E+00  0.23040037604E+01  0.51100000000E-03 0. -1.
        -11    1    3    3    0    0 -0.64120972418E+01  0.23248427580E+01 -0.36005560007E+01  0.77125798967E+01  0.51100000000E-03 0.  1.
        -12    1    3    3    0    0 -0.39515729186E+01  0.38116411765E+02  0.13144161860E+02  0.40512279192E+02  0.00000000000E+00 0.  1.
</event>
<event>
 7    1  0.2575978E-011  0.5052886E+02  0.7816164E-02  0.1300439E+00
        -11   -1    0    0    0    0  0.00000000000E+00  0.00000000000E+00  0.45593999997E+02  0.45594000000E+02  0.51100000000E-03 0.  1.
         11   -1    0    0    0    0 -0.00000000000E+00 -0.00000000000E+00 -0.45593999997E+02  0.45594000000E+02  0.51100000000E-03 0. -1.
    9900012    2    1    2    0    0 -0.21599958705E+02  0.15581600020E+02  0.30721676162E+02  0.50528857590E+02  0.29999993132E+02 0.  0.
         12    1    1    2    0    0  0.21599958705E+02 -0.15581600020E+02 -0.30721676162E+02  0.40659142410E+02  0.00000000000E+00 0. -1.
         11    1    3    3    0    0  0.26704212748E+01 -0.77192728231E-01 -0.18793099481E+01  0.32663304554E+01  0.51100000000E-03 0. -1.
        -11    1    3    3    0    0 -0.86709267749E+01  0.16435869956E+02  0.18455527754E+02  0.26190251952E+02  0.51100000000E-03 0.  1.
        -12    1    3    3    0    0 -0.15599453205E+02 -0.77707720767E+00  0.14145458356E+02  0.21072275183E+02  0.00000000000E+00 0.  1.
</event>
<event>
 7    1  0.2575978E-011  0.5052886E+02  0.7816164E-02  0.1300439E+00
        -11   -1    0    0    0    0  0.00000000000E+00  0.00000000000E+00  0.45593999997E+02  0.45594000000E+02  0.51100000000E-03 0. -1.
         11   -1    0    0    0    0 -0.00000000000E+00 -0.00000000000E+00 -0.45593999997E+02  0.45594000000E+02  0.51100000000E-03 0.  1.
    9900012    2    1    2    0    0 -0.17937948857E+02 -0.32359356254E+02  0.16860243484E+02  0.50528858879E+02  0.29999997048E+02 0.  0.
         12    1    1    2    0    0  0.17937948857E+02  0.32359356254E+02 -0.16860243484E+02  0.40659141121E+02  0.00000000000E+00 0. -1.
         11    1    3    3    0    0 -0.79541931650E+01 -0.24035426277E+01  0.98632820134E+01  0.12896919726E+02  0.51100000000E-03 0. -1.
        -11    1    3    3    0    0 -0.12656844744E+02 -0.13588349014E+02 -0.21475082917E+01  0.18693601578E+02  0.51100000000E-03 0.  1.
        -12    1    3    3    0    0  0.26730890522E+01 -0.16367464612E+02  0.91444697622E+01  0.18938337576E+02  0.00000000000E+00 0.  1.
</event>
<event>
 7    1  0.2575978E-011  0.5052883E+02  0.7816164E-02  0.1300439E+00
        -11   -1    0    0    0    0  0.00000000000E+00  0.00000000000E+00  0.45593999997E+02  0.45594000000E+02  0.51100000000E-03 0.  1.
         11   -1    0    0    0    0 -0.00000000000E+00 -0.00000000000E+00 -0.45593999997E+02  0.45594000000E+02  0.51100000000E-03 0. -1.
    9900012    2    1    2    0    0 -0.37968100548E+02  0.94416731176E+01  0.11065542615E+02  0.50528830261E+02  0.29999910062E+02 0.  0.
         12    1    1    2    0    0  0.37968100548E+02 -0.94416731176E+01 -0.11065542615E+02  0.40659169739E+02  0.00000000000E+00 0. -1.
         11    1    3    3    0    0 -0.86588143170E+01  0.29228865068E+00  0.16824971751E+02  0.18924591745E+02  0.51100000000E-03 0. -1.
        -11    1    3    3    0    0 -0.35406473774E+01  0.26527396379E+01 -0.57958572533E-01  0.44245418853E+01  0.51100000000E-03 0.  1.
        -12    1    3    3    0    0 -0.25768638853E+02  0.64966448290E+01 -0.57014705629E+01  0.27179696631E+02  0.00000000000E+00 0.  1.
</event>
<event>
 7    1  0.2575978E-011  0.5052887E+02  0.7816164E-02  0.1300439E+00
        -11   -1    0    0    0    0  0.00000000000E+00  0.00000000000E+00  0.45593999997E+02  0.45594000000E+02  0.51100000000E-03 0. -1.
         11   -1    0    0    0    0 -0.00000000000E+00 -0.00000000000E+00 -0.45593999997E+02  0.45594000000E+02  0.51100000000E-03 0.  1.
    9900012    2    1    2    0    0  0.10201544410E+02 -0.38305001936E+02 -0.90454705463E+01  0.50528865491E+02  0.30000017146E+02 0.  0.
         12    1    1    2    0    0 -0.10201544410E+02  0.38305001936E+02  0.90454705463E+01  0.40659134509E+02  0.00000000000E+00 0. -1.
         11    1    3    3    0    0  0.24213486904E+01 -0.92492790429E+01  0.83700558322E+01  0.12707081773E+02  0.51100000000E-03 0. -1.
        -11    1    3    3    0    0 -0.13360410746E+01 -0.26852039469E+01 -0.77221775087E+01  0.82841627052E+01  0.51100000000E-03 0.  1.
        -12    1    3    3    0    0  0.91162367941E+01 -0.26370518946E+02 -0.96933488698E+01  0.29537621012E+02  0.00000000000E+00 0.  1.
</event>
<event>
 7    1  0.2575978E-011  0.5052885E+02  0.7816164E-02  0.1300439E+00
        -11   -1    0    0    0    0  0.00000000000E+00  0.00000000000E+00  0.45593999997E+02  0.45594000000E+02  0.51100000000E-03 0. -1.
         11   -1    0    0    0    0 -0.00000000000E+00 -0.00000000000E+00 -0.45593999997E+02  0.45594000000E+02  0.51100000000E-03 0.  1.
    9900012    2    1    2    0    0 -0.33949295742E+02  0.22003472581E+02  0.40569303341E+01  0.50528853787E+02  0.29999981571E+02 0.  0.
         12    1    1    2    0    0  0.33949295742E+02 -0.22003472581E+02 -0.40569303341E+01  0.40659146213E+02  0.00000000000E+00 0. -1.
         11    1    3    3    0    0 -0.12619164405E+02  0.12555405122E+02  0.34114104002E+01  0.18125099427E+02  0.51100000000E-03 0. -1.
        -11    1    3    3    0    0 -0.10653307508E+02  0.15659645506E+02 -0.37220047995E+01  0.19302092587E+02  0.51100000000E-03 0.  1.
        -12    1    3    3    0    0 -0.10676823830E+02 -0.62115780470E+01  0.43675247334E+01  0.13101661773E+02  0.00000000000E+00 0.  1.
</event>
<event>
 7    1  0.2575978E-011  0.5052888E+02  0.7816164E-02  0.1300439E+00
        -11   -1    0    0    0    0  0.00000000000E+00  0.00000000000E+00  0.45593999997E+02  0.45594000000E+02  0.51100000000E-03 0.  1.
         11   -1    0    0    0    0 -0.00000000000E+00 -0.00000000000E+00 -0.45593999997E+02  0.45594000000E+02  0.51100000000E-03 0. -1.
    9900012    2    1    2    0    0 -0.68755288204E+01 -0.28475780718E+02  0.28196119400E+02  0.50528878843E+02  0.30000057732E+02 0.  0.
         12    1    1    2    0    0  0.68755288204E+01  0.28475780718E+02 -0.28196119400E+02  0.40659121157E+02  0.00000000000E+00 0. -1.
         11    1    3    3    0    0  0.59134327803E+01 -0.62398827438E+01  0.11508121237E+02  0.14364598100E+02  0.51100000000E-03 0. -1.
        -11    1    3    3    0    0  0.76209538554E+00 -0.35500756786E+01  0.12096607966E+02  0.12629796168E+02  0.51100000000E-03 0.  1.
         12    1    3    3    0    0 -0.13551056986E+02 -0.18685822295E+02  0.45913901970E+01  0.23534484575E+02  0.00000000000E+00 0. -1.
</event>
<event>
 7    1  0.2575978E-011  0.5052886E+02  0.7816164E-02  0.1300439E+00
        -11   -1    0    0    0    0  0.00000000000E+00  0.00000000000E+00  0.45593999997E+02  0.45594000000E+02  0.51100000000E-03 0. -1.
         11   -1    0    0    0    0 -0.00000000000E+00 -0.00000000000E+00 -0.45593999997E+02  0.45594000000E+02  0.51100000000E-03 0.  1.
    9900012    2    1    2    0    0 -0.39400529305E+02  0.95443456199E+01 -0.31095139619E+01  0.50528864251E+02  0.30000013376E+02 0.  0.
         12    1    1    2    0    0  0.39400529305E+02 -0.95443456199E+01  0.31095139619E+01  0.40659135749E+02  0.00000000000E+00 0. -1.
         11    1    3    3    0    0 -0.31739162269E+02  0.98473550117E+01  0.83103489826E+01  0.34255024781E+02  0.51100000000E-03 0.  1.
        -11    1    3    3    0    0 -0.27640495515E+01 -0.37030882870E+01 -0.18057271958E+01  0.49611978142E+01  0.51100000000E-03 0. -1.
        -12    1    3    3    0    0 -0.48973174842E+01  0.34000788952E+01 -0.96141357487E+01  0.11312641656E+02  0.00000000000E+00 0.  1.
</event>
<event>
 7    1  0.2575978E-011  0.5052885E+02  0.7816164E-02  0.1300439E+00
        -11   -1    0    0    0    0  0.00000000000E+00  0.00000000000E+00  0.45593999997E+02  0.45594000000E+02  0.51100000000E-03 0.  1.
         11   -1    0    0    0    0 -0.00000000000E+00 -0.00000000000E+00 -0.45593999997E+02  0.45594000000E+02  0.51100000000E-03 0. -1.
    9900012    2    1    2    0    0 -0.24273141275E+02 -0.82042509491E+01 -0.31570102014E+02  0.50528850204E+02  0.29999970679E+02 0.  0.
         12    1    1    2    0    0  0.24273141275E+02  0.82042509491E+01  0.31570102014E+02  0.40659149796E+02  0.00000000000E+00 0. -1.
         11    1    3    3    0    0 -0.70768398662E+01 -0.15443898675E+00  0.18856370776E+01  0.73253765324E+01  0.51100000000E-03 0. -1.
        -11    1    3    3    0    0 -0.10340728793E+02 -0.73241419042E+01 -0.45136158925E+01  0.13451633926E+02  0.51100000000E-03 0.  1.
         12    1    3    3    0    0 -0.68555726160E+01 -0.72567005817E+00 -0.28942123199E+02  0.29751839745E+02  0.00000000000E+00 0. -1.
</event>
<event>
 7    1  0.2575978E-011  0.5052886E+02  0.7816164E-02  0.1300439E+00
        -11   -1    0    0    0    0  0.00000000000E+00  0.00000000000E+00  0.45593999997E+02  0.45594000000E+02  0.51100000000E-03 0.  1.
         11   -1    0    0    0    0 -0.00000000000E+00 -0.00000000000E+00 -0.45593999997E+02  0.45594000000E+02  0.51100000000E-03 0. -1.
    9900012    2    1    2    0    0  0.11120620373E+02 -0.21631508725E+01  0.39048920791E+02  0.50528860386E+02  0.30000001629E+02 0.  0.
         12    1    1    2    0    0 -0.11120620373E+02  0.21631508725E+01 -0.39048920791E+02  0.40659139614E+02  0.00000000000E+00 0. -1.
         11    1    3    3    0    0 -0.14680502220E+01  0.52586471648E+01  0.29262708428E+01  0.61944816381E+01  0.51100000000E-03 0. -1.
        -11    1    3    3    0    0  0.18379591584E+02 -0.51324118669E+01  0.23607498548E+02  0.30355642413E+02  0.51100000000E-03 0.  1.
         12    1    3    3    0    0 -0.57909209883E+01 -0.22893861704E+01  0.12515151401E+02  0.13978736335E+02  0.00000000000E+00 0. -1.
</event>
<event>
 7    1  0.2575978E-011  0.5052885E+02  0.7816164E-02  0.1300439E+00
        -11   -1    0    0    0    0  0.00000000000E+00  0.00000000000E+00  0.45593999997E+02  0.45594000000E+02  0.51100000000E-03 0.  1.
         11   -1    0    0    0    0 -0.00000000000E+00 -0.00000000000E+00 -0.45593999997E+02  0.45594000000E+02  0.51100000000E-03 0. -1.
    9900012    2    1    2    0    0 -0.33831727293E+02  0.19630658064E+02  0.11100362376E+02  0.50528849092E+02  0.29999967300E+02 0.  0.
         12    1    1    2    0    0  0.33831727293E+02 -0.19630658064E+02 -0.11100362376E+02  0.40659150908E+02  0.00000000000E+00 0. -1.
         11    1    3    3    0    0 -0.10574585664E+02  0.99766447882E+01  0.80155938424E+01  0.16601356815E+02  0.51100000000E-03 0. -1.
        -11    1    3    3    0    0 -0.60441723536E+01  0.13398609078E+02  0.63501223339E+01  0.16011833080E+02  0.51100000000E-03 0.  1.
         12    1    3    3    0    0 -0.17212969276E+02 -0.37445958024E+01 -0.32653537999E+01  0.17915659196E+02  0.00000000000E+00 0. -1.
</event>
<event>
 7    1  0.2575978E-011  0.5052886E+02  0.7816164E-02  0.1300439E+00
        -11   -1    0    0    0    0  0.00000000000E+00  0.00000000000E+00  0.45593999997E+02  0.45594000000E+02  0.51100000000E-03 0. -1.
         11   -1    0    0    0    0 -0.00000000000E+00 -0.00000000000E+00 -0.45593999997E+02  0.45594000000E+02  0.51100000000E-03 0.  1.
    9900012    2    1    2    0    0 -0.25649366183E+02 -0.28001066559E+02 -0.14533267501E+02  0.50528861072E+02  0.30000003716E+02 0.  0.
         12    1    1    2    0    0  0.25649366183E+02  0.28001066559E+02  0.14533267501E+02  0.40659138928E+02  0.00000000000E+00 0. -1.
         11    1    3    3    0    0 -0.21389060710E+02 -0.60207431812E+01 -0.12304807988E+01  0.22254333281E+02  0.51100000000E-03 0. -1.
        -11    1    3    3    0    0 -0.77807754388E+01 -0.12984694577E+02 -0.65815596644E+01  0.16506352945E+02  0.51100000000E-03 0.  1.
        -12    1    3    3    0    0  0.35204699657E+01 -0.89956288013E+01 -0.67212270382E+01  0.11768174846E+02  0.00000000000E+00 0.  1.
</event>
<event>
 7    1  0.2575978E-011  0.5052886E+02  0.7816164E-02  0.1300439E+00
        -11   -1    0    0    0    0  0.00000000000E+00  0.00000000000E+00  0.45593999997E+02  0.45594000000E+02  0.51100000000E-03 0.  1.
         11   -1    0    0    0    0 -0.00000000000E+00 -0.00000000000E+00 -0.45593999997E+02  0.45594000000E+02  0.51100000000E-03 0. -1.
    9900012    2    1    2    0    0 -0.86793006078E+01  0.36903108952E+02  0.14696802526E+02  0.50528859406E+02  0.29999998650E+02 0.  0.
         12    1    1    2    0    0  0.86793006078E+01 -0.36903108952E+02 -0.14696802526E+02  0.40659140594E+02  0.00000000000E+00 0. -1.
         11    1    3    3    0    0 -0.34393698511E+01  0.14362356823E+01  0.58576495617E+01  0.69429170064E+01  0.51100000000E-03 0. -1.
        -11    1    3    3    0    0 -0.68222380366E+01  0.17029291080E+02  0.15399940408E+02  0.23951990550E+02  0.51100000000E-03 0.  1.
         12    1    3    3    0    0  0.15823072799E+01  0.18437582190E+02 -0.65607874434E+01  0.19633951849E+02  0.00000000000E+00 0. -1.
</event>
<event>
 7    1  0.2575978E-011  0.5052884E+02  0.7816164E-02  0.1300439E+00
        -11   -1    0    0    0    0  0.00000000000E+00  0.00000000000E+00  0.45593999997E+02  0.45594000000E+02  0.51100000000E-03 0.  1.
         11   -1    0    0    0    0 -0.00000000000E+00 -0.00000000000E+00 -0.45593999997E+02  0.45594000000E+02  0.51100000000E-03 0. -1.
    9900012    2    1    2    0    0 -0.20982869724E+01 -0.29171751192E+02  0.28244878361E+02  0.50528843227E+02  0.29999949473E+02 0.  0.
         12    1    1    2    0    0  0.20982869724E+01  0.29171751192E+02 -0.28244878361E+02  0.40659156773E+02  0.00000000000E+00 0. -1.
         11    1    3    3    0    0  0.10592754470E+01 -0.53443428167E+00 -0.23823743735E+00  0.12101412363E+01  0.51100000000E-03 0. -1.
        -11    1    3    3    0    0  0.11760665717E+02 -0.16687026400E+02  0.19374092918E+02  0.28144725702E+02  0.51100000000E-03 0.  1.
         12    1    3    3    0    0 -0.14918228137E+02 -0.11950290511E+02  0.91090228805E+01  0.21173976289E+02  0.00000000000E+00 0. -1.
</event>
<event>
 7    1  0.2575978E-011  0.5052886E+02  0.7816164E-02  0.1300439E+00
        -11   -1    0    0    0    0  0.00000000000E+00  0.00000000000E+00  0.45593999997E+02  0.45594000000E+02  0.51100000000E-03 0. -1.
         11   -1    0    0    0    0 -0.00000000000E+00 -0.00000000000E+00 -0.45593999997E+02  0.45594000000E+02  0.51100000000E-03 0.  1.
    9900012    2    1    2    0    0  0.37349696580E+02  0.36286063062E+01 -0.15652450884E+02  0.50528857891E+02  0.29999994047E+02 0.  0.
         12    1    1    2    0    0 -0.37349696580E+02 -0.36286063062E+01  0.15652450884E+02  0.40659142109E+02  0.00000000000E+00 0. -1.
         11    1    3    3    0    0  0.14150752450E+01  0.45752743511E+01 -0.12818270656E+01  0.49576863781E+01  0.51100000000E-03 0. -1.
        -11    1    3    3    0    0  0.40101439037E+01  0.47263195482E+01 -0.11443970485E+02  0.13014753602E+02  0.51100000000E-03 0.  1.
        -12    1    3    3    0    0  0.31924477431E+02 -0.56729875930E+01 -0.29266533338E+01  0.32556417911E+02  0.00000000000E+00 0.  1.
</event>
<event>
 7    1  0.2575978E-011  0.5052885E+02  0.7816164E-02  0.1300439E+00
        -11   -1    0    0    0    0  0.00000000000E+00  0.00000000000E+00  0.45593999997E+02  0.45594000000E+02  0.51100000000E-03 0. -1.
         11   -1    0    0    0    0 -0.00000000000E+00 -0.00000000000E+00 -0.45593999997E+02  0.45594000000E+02  0.51100000000E-03 0.  1.
    9900012    2    1    2    0    0 -0.34603914295E+02 -0.21315690205E+02 -0.11733805902E+01  0.50528851516E+02  0.29999974669E+02 0.  0.
         12    1    1    2    0    0  0.34603914295E+02  0.21315690205E+02  0.11733805902E+01  0.40659148484E+02  0.00000000000E+00 0. -1.
         11    1    3    3    0    0  0.29307239455E+01 -0.29189742101E-01 -0.37848776971E+01  0.47869922006E+01  0.51100000000E-03 0. -1.
        -11    1    3    3    0    0 -0.19717316186E+02 -0.18999562835E+02  0.42263870095E+01  0.27705925231E+02  0.51100000000E-03 0.  1.
        -12    1    3    3    0    0 -0.17817322054E+02 -0.22869376274E+01 -0.16148899027E+01  0.18035934084E+02  0.00000000000E+00 0.  1.
</event>
<event>
 7    1  0.2575978E-011  0.5052885E+02  0.7816164E-02  0.1300439E+00
        -11   -1    0    0    0    0  0.00000000000E+00  0.00000000000E+00  0.45593999997E+02  0.45594000000E+02  0.51100000000E-03 0. -1.
         11   -1    0    0    0    0 -0.00000000000E+00 -0.00000000000E+00 -0.45593999997E+02  0.45594000000E+02  0.51100000000E-03 0.  1.
    9900012    2    1    2    0    0 -0.29429528346E+02  0.93859186071E+01  0.26438107440E+02  0.50528854266E+02  0.29999983028E+02 0.  0.
         12    1    1    2    0    0  0.29429528346E+02 -0.93859186071E+01 -0.26438107440E+02  0.40659145734E+02  0.00000000000E+00 0. -1.
         11    1    3    3    0    0 -0.18407015886E+02 -0.80304810030E+01  0.18233431256E+02  0.27124986168E+02  0.51100000000E-03 0. -1.
        -11    1    3    3    0    0 -0.27850203408E+01  0.17323200225E+00  0.13707000223E+01  0.31088850795E+01  0.51100000000E-03 0.  1.
        -12    1    3    3    0    0 -0.82374921193E+01  0.17243167608E+02  0.68339761614E+01  0.20294983019E+02  0.00000000000E+00 0.  1.
</event>
<event>
 7    1  0.2575978E-011  0.5052886E+02  0.7816164E-02  0.1300439E+00
        -11   -1    0    0    0    0  0.00000000000E+00  0.00000000000E+00  0.45593999997E+02  0.45594000000E+02  0.51100000000E-03 0.  1.
         11   -1    0    0    0    0 -0.00000000000E+00 -0.00000000000E+00 -0.45593999997E+02  0.45594000000E+02  0.51100000000E-03 0. -1.
    9900012    2    1    2    0    0 -0.35727741597E+02 -0.35329452112E+01  0.19084350427E+02  0.50528860158E+02  0.30000000936E+02 0.  0.
         12    1    1    2    0    0  0.35727741597E+02  0.35329452112E+01 -0.19084350427E+02  0.40659139842E+02  0.00000000000E+00 0. -1.
         11    1    3    3    0    0 -0.25457490251E+02 -0.41037849644E+01  0.17467089417E+02  0.31145209485E+02  0.51100000000E-03 0. -1.
        -11    1    3    3    0    0 -0.13147441987E+02  0.49183463532E+01  0.18857861897E+01  0.14163387711E+02  0.51100000000E-03 0.  1.
         12    1    3    3    0    0  0.28771906404E+01 -0.43475066000E+01 -0.26852517972E+00  0.52202629618E+01  0.00000000000E+00 0. -1.
</event>
<event>
 7    1  0.2575978E-011  0.5052887E+02  0.7816164E-02  0.1300439E+00
        -11   -1    0    0    0    0  0.00000000000E+00  0.00000000000E+00  0.45593999997E+02  0.45594000000E+02  0.51100000000E-03 0. -1.
         11   -1    0    0    0    0 -0.00000000000E+00 -0.00000000000E+00 -0.45593999997E+02  0.45594000000E+02  0.51100000000E-03 0.  1.
    9900012    2    1    2    0    0  0.32861206711E+02  0.11654992608E+00 -0.23943530290E+02  0.50528866547E+02  0.30000020356E+02 0.  0.
         12    1    1    2    0    0 -0.32861206711E+02 -0.11654992608E+00  0.23943530290E+02  0.40659133453E+02  0.00000000000E+00 0. -1.
         11    1    3    3    0    0  0.14010402475E+02 -0.32425484879E+01 -0.16867197393E+02  0.22165465174E+02  0.51100000000E-03 0. -1.
        -11    1    3    3    0    0  0.18933598149E+02  0.94721569155E+01 -0.68283383042E+01  0.22244754432E+02  0.51100000000E-03 0.  1.
         12    1    3    3    0    0 -0.82793912002E-01 -0.61130585015E+01 -0.24799459235E+00  0.61186469413E+01  0.00000000000E+00 0. -1.
</event>
<event>
 7    1  0.2575978E-011  0.5052886E+02  0.7816164E-02  0.1300439E+00
        -11   -1    0    0    0    0  0.00000000000E+00  0.00000000000E+00  0.45593999997E+02  0.45594000000E+02  0.51100000000E-03 0.  1.
         11   -1    0    0    0    0 -0.00000000000E+00 -0.00000000000E+00 -0.45593999997E+02  0.45594000000E+02  0.51100000000E-03 0. -1.
    9900012    2    1    2    0    0 -0.17806878700E+02 -0.39350698105E+01  0.36340005921E+02  0.50528859160E+02  0.29999997904E+02 0.  0.
         12    1    1    2    0    0  0.17806878700E+02  0.39350698105E+01 -0.36340005921E+02  0.40659140840E+02  0.00000000000E+00 0. -1.
         11    1    3    3    0    0 -0.11091742088E+00 -0.57876708114E+01  0.76116635801E+01  0.95627850971E+01  0.51100000000E-03 0. -1.
        -11    1    3    3    0    0  0.40744281786E+01  0.12163054781E+01  0.14106455336E+02  0.14733378648E+02  0.51100000000E-03 0.  1.
        -12    1    3    3    0    0 -0.21770389458E+02  0.63629552287E+00  0.14621887005E+02  0.26232695415E+02  0.00000000000E+00 0.  1.
</event>
<event>
 7    1  0.2575978E-011  0.5052886E+02  0.7816164E-02  0.1300439E+00
        -11   -1    0    0    0    0  0.00000000000E+00  0.00000000000E+00  0.45593999997E+02  0.45594000000E+02  0.51100000000E-03 0. -1.
         11   -1    0    0    0    0 -0.00000000000E+00 -0.00000000000E+00 -0.45593999997E+02  0.45594000000E+02  0.51100000000E-03 0.  1.
    9900012    2    1    2    0    0  0.39705676037E+02  0.20361577772E+01 -0.85134616546E+01  0.50528859855E+02  0.30000000014E+02 0.  0.
         12    1    1    2    0    0 -0.39705676037E+02 -0.20361577772E+01  0.85134616546E+01  0.40659140145E+02  0.00000000000E+00 0. -1.
         11    1    3    3    0    0  0.17488555349E+02  0.11816896762E+02 -0.83916532246E+01  0.22713618413E+02  0.51100000000E-03 0. -1.
        -11    1    3    3    0    0  0.11018572351E+02 -0.10597044076E+01  0.57275352854E+01  0.12463409276E+02  0.51100000000E-03 0.  1.
         12    1    3    3    0    0  0.11198548336E+02 -0.87210345773E+01 -0.58493437154E+01  0.15351832166E+02  0.00000000000E+00 0. -1.
</event>
<event>
 7    1  0.2575978E-011  0.5052885E+02  0.7816164E-02  0.1300439E+00
        -11   -1    0    0    0    0  0.00000000000E+00  0.00000000000E+00  0.45593999997E+02  0.45594000000E+02  0.51100000000E-03 0. -1.
         11   -1    0    0    0    0 -0.00000000000E+00 -0.00000000000E+00 -0.45593999997E+02  0.45594000000E+02  0.51100000000E-03 0.  1.
    9900012    2    1    2    0    0 -0.19098926569E+02  0.68446581394E+01 -0.35235604620E+02  0.50528853747E+02  0.29999981448E+02 0.  0.
         12    1    1    2    0    0  0.19098926569E+02 -0.68446581394E+01  0.35235604620E+02  0.40659146253E+02  0.00000000000E+00 0. -1.
         11    1    3    3    0    0  0.10085830300E+01 -0.35624977336E-02  0.64867192441E+00  0.11991780295E+01  0.51100000000E-03 0. -1.
        -11    1    3    3    0    0 -0.84708619558E+00  0.10791004452E+02 -0.33751776942E+01  0.11338216651E+02  0.51100000000E-03 0.  1.
        -12    1    3    3    0    0 -0.19260423404E+02 -0.39427838149E+01 -0.32509098850E+02  0.37991459066E+02  0.00000000000E+00 0.  1.
</event>
<event>
 7    1  0.2575978E-011  0.5052886E+02  0.7816164E-02  0.1300439E+00
        -11   -1    0    0    0    0  0.00000000000E+00  0.00000000000E+00  0.45593999997E+02  0.45594000000E+02  0.51100000000E-03 0.  1.
         11   -1    0    0    0    0 -0.00000000000E+00 -0.00000000000E+00 -0.45593999997E+02  0.45594000000E+02  0.51100000000E-03 0. -1.
    9900012    2    1    2    0    0 -0.36505290427E+02  0.72332768500E+01  0.16377102870E+02  0.50528855622E+02  0.29999987148E+02 0.  0.
         12    1    1    2    0    0  0.36505290427E+02 -0.72332768500E+01 -0.16377102870E+02  0.40659144378E+02  0.00000000000E+00 0. -1.
         11    1    3    3    0    0 -0.20226898118E+02  0.60869567472E+01  0.34083659853E+01  0.21396154068E+02  0.51100000000E-03 0. -1.
        -11    1    3    3    0    0 -0.13775655290E+02  0.26537460549E+01 -0.17401570747E+01  0.14136449119E+02  0.51100000000E-03 0.  1.
        -12    1    3    3    0    0 -0.25027370186E+01 -0.15074259521E+01  0.14708893960E+02  0.14996252435E+02  0.00000000000E+00 0.  1.
</event>
<event>
 7    1  0.2575978E-011  0.5052887E+02  0.7816164E-02  0.1300439E+00
        -11   -1    0    0    0    0  0.00000000000E+00  0.00000000000E+00  0.45593999997E+02  0.45594000000E+02  0.51100000000E-03 0.  1.
         11   -1    0    0    0    0 -0.00000000000E+00 -0.00000000000E+00 -0.45593999997E+02  0.45594000000E+02  0.51100000000E-03 0. -1.
    9900012    2    1    2    0    0 -0.79120006402E+01  0.13826714243E+02  0.37408380701E+02  0.50528871534E+02  0.30000035516E+02 0.  0.
         12    1    1    2    0    0  0.79120006402E+01 -0.13826714243E+02 -0.37408380701E+02  0.40659128466E+02  0.00000000000E+00 0. -1.
         11    1    3    3    0    0  0.87797262879E+01  0.72552463250E+01  0.22415672916E+02  0.25143281120E+02  0.51100000000E-03 0. -1.
        -11    1    3    3    0    0 -0.18330531719E+00  0.35321736424E+01  0.14696060738E+01  0.38300905671E+01  0.51100000000E-03 0.  1.
        -12    1    3    3    0    0 -0.16508421611E+02  0.30392942761E+01  0.13523101711E+02  0.21555499847E+02  0.00000000000E+00 0.  1.
</event>
<event>
 7    1  0.2575978E-011  0.5052883E+02  0.7816164E-02  0.1300439E+00
        -11   -1    0    0    0    0  0.00000000000E+00  0.00000000000E+00  0.45593999997E+02  0.45594000000E+02  0.51100000000E-03 0. -1.
         11   -1    0    0    0    0 -0.00000000000E+00 -0.00000000000E+00 -0.45593999997E+02  0.45594000000E+02  0.51100000000E-03 0.  1.
    9900012    2    1    2    0    0 -0.10576844995E+01 -0.34781631194E+02 -0.21030639509E+02  0.50528826826E+02  0.29999899621E+02 0.  0.
         12    1    1    2    0    0  0.10576844995E+01  0.34781631194E+02  0.21030639509E+02  0.40659173174E+02  0.00000000000E+00 0. -1.
         11    1    3    3    0    0 -0.21711103004E+01  0.29828364303E+01  0.86042928258E-01  0.36903166197E+01  0.51100000000E-03 0. -1.
        -11    1    3    3    0    0  0.85387272046E+01 -0.13905886747E+02 -0.48531205303E+01  0.17024580102E+02  0.51100000000E-03 0.  1.
         12    1    3    3    0    0 -0.74253014036E+01 -0.23858580877E+02 -0.16263561907E+02  0.29813930105E+02  0.00000000000E+00 0. -1.
</event>
<event>
 7    1  0.2817172E-011  0.5052886E+02  0.7816164E-02  0.1300439E+00
        -11   -1    0    0    0    0  0.00000000000E+00  0.00000000000E+00  0.45593999997E+02  0.45594000000E+02  0.51100000000E-03 0.  1.
         11   -1    0    0    0    0 -0.00000000000E+00 -0.00000000000E+00 -0.45593999997E+02  0.45594000000E+02  0.51100000000E-03 0. -1.
    9900012    2    1    2    0    0 -0.30201130824E+02  0.20187647376E+02  0.18262434694E+02  0.50528856740E+02  0.29999990547E+02 0.  0.
         12    1    1    2    0    0  0.30201130824E+02 -0.20187647376E+02 -0.18262434694E+02  0.40659143260E+02  0.00000000000E+00 0. -1.
         11    1    3    3    0    0 -0.43054671807E+01  0.49686250783E+01 -0.42798851553E+01  0.78448518161E+01  0.51100000000E-03 0. -1.
        -11    1    3    3    0    0 -0.26256780658E+02  0.88453939682E+01  0.11644801030E+02  0.30054299464E+02  0.51100000000E-03 0.  1.
         12    1    3    3    0    0  0.36111701443E+00  0.63736283298E+01  0.10897518819E+02  0.12629705460E+02  0.00000000000E+00 0. -1.
</event>
<event>
 7    1  0.2575978E-011  0.5052886E+02  0.7816164E-02  0.1300439E+00
        -11   -1    0    0    0    0  0.00000000000E+00  0.00000000000E+00  0.45593999997E+02  0.45594000000E+02  0.51100000000E-03 0. -1.
         11   -1    0    0    0    0 -0.00000000000E+00 -0.00000000000E+00 -0.45593999997E+02  0.45594000000E+02  0.51100000000E-03 0.  1.
    9900012    2    1    2    0    0 -0.10448345128E+01 -0.11166435168E+02 -0.39081772061E+02  0.50528857597E+02  0.29999993152E+02 0.  0.
         12    1    1    2    0    0  0.10448345128E+01  0.11166435168E+02  0.39081772061E+02  0.40659142403E+02  0.00000000000E+00 0. -1.
         11    1    3    3    0    0  0.64772162515E+01 -0.20509217613E+01 -0.65717411867E+01  0.94524278852E+01  0.51100000000E-03 0. -1.
        -11    1    3    3    0    0 -0.21102374881E+01  0.41591834883E+01 -0.23906946339E+02  0.24357627000E+02  0.51100000000E-03 0.  1.
        -12    1    3    3    0    0 -0.54118132761E+01 -0.13274696895E+02 -0.86030845349E+01  0.16718802711E+02  0.00000000000E+00 0.  1.
</event>
<event>
 7    1  0.2575978E-011  0.5052885E+02  0.7816164E-02  0.1300439E+00
        -11   -1    0    0    0    0  0.00000000000E+00  0.00000000000E+00  0.45593999997E+02  0.45594000000E+02  0.51100000000E-03 0.  1.
         11   -1    0    0    0    0 -0.00000000000E+00 -0.00000000000E+00 -0.45593999997E+02  0.45594000000E+02  0.51100000000E-03 0. -1.
    9900012    2    1    2    0    0 -0.34387968488E+02  0.19341886279E+02  0.98247330308E+01  0.50528851943E+02  0.29999975966E+02 0.  0.
         12    1    1    2    0    0  0.34387968488E+02 -0.19341886279E+02 -0.98247330308E+01  0.40659148057E+02  0.00000000000E+00 0. -1.
         11    1    3    3    0    0 -0.15968607118E+02  0.49176396311E+01  0.88260917835E+01  0.18896547019E+02  0.51100000000E-03 0. -1.
        -11    1    3    3    0    0 -0.14441874308E+02  0.11518687383E+02  0.10268485289E+02  0.21135034491E+02  0.51100000000E-03 0.  1.
         12    1    3    3    0    0 -0.39774870627E+01  0.29055592657E+01 -0.92698440418E+01  0.10497270433E+02  0.00000000000E+00 0. -1.
</event>
<event>
 7    1  0.2575978E-011  0.5052886E+02  0.7816164E-02  0.1300439E+00
        -11   -1    0    0    0    0  0.00000000000E+00  0.00000000000E+00  0.45593999997E+02  0.45594000000E+02  0.51100000000E-03 0.  1.
         11   -1    0    0    0    0 -0.00000000000E+00 -0.00000000000E+00 -0.45593999997E+02  0.45594000000E+02  0.51100000000E-03 0. -1.
    9900012    2    1    2    0    0  0.36591706344E+02 -0.12123682008E+02 -0.12931696170E+02  0.50528863211E+02  0.30000010216E+02 0.  0.
         12    1    1    2    0    0 -0.36591706344E+02  0.12123682008E+02  0.12931696170E+02  0.40659136789E+02  0.00000000000E+00 0. -1.
         11    1    3    3    0    0  0.34347398164E+01 -0.57483294251E+01 -0.37134122691E+01  0.76570333503E+01  0.51100000000E-03 0. -1.
        -11    1    3    3    0    0  0.36329654111E+01 -0.89858248598E+01  0.39149824217E+01  0.10453256608E+02  0.51100000000E-03 0.  1.
        -12    1    3    3    0    0  0.29524001117E+02  0.26104722772E+01 -0.13133266322E+02  0.32418573253E+02  0.00000000000E+00 0.  1.
</event>
<event>
 7    1  0.2575978E-011  0.5052888E+02  0.7816164E-02  0.1300439E+00
        -11   -1    0    0    0    0  0.00000000000E+00  0.00000000000E+00  0.45593999997E+02  0.45594000000E+02  0.51100000000E-03 0.  1.
         11   -1    0    0    0    0 -0.00000000000E+00 -0.00000000000E+00 -0.45593999997E+02  0.45594000000E+02  0.51100000000E-03 0. -1.
    9900012    2    1    2    0    0 -0.15163338461E+02 -0.10456075469E+02  0.36247861720E+02  0.50528882612E+02  0.30000069186E+02 0.  0.
         12    1    1    2    0    0  0.15163338461E+02  0.10456075469E+02 -0.36247861720E+02  0.40659117388E+02  0.00000000000E+00 0. -1.
         11    1    3    3    0    0  0.59437623491E+00 -0.70287087815E+01  0.23024899267E+02  0.24081154806E+02  0.51100000000E-03 0. -1.
        -11    1    3    3    0    0  0.22164824467E+01 -0.94052512439E+00  0.67759663368E+01  0.71910431792E+01  0.51100000000E-03 0.  1.
         12    1    3    3    0    0 -0.17974197143E+02 -0.24868415636E+01  0.64469961159E+01  0.19256684627E+02  0.00000000000E+00 0. -1.
</event>
<event>
 7    1  0.2575978E-011  0.5052885E+02  0.7816164E-02  0.1300439E+00
        -11   -1    0    0    0    0  0.00000000000E+00  0.00000000000E+00  0.45593999997E+02  0.45594000000E+02  0.51100000000E-03 0.  1.
         11   -1    0    0    0    0 -0.00000000000E+00 -0.00000000000E+00 -0.45593999997E+02  0.45594000000E+02  0.51100000000E-03 0. -1.
    9900012    2    1    2    0    0  0.37389295491E+02  0.15515783594E+02  0.38035873111E+01  0.50528853006E+02  0.29999979196E+02 0.  0.
         12    1    1    2    0    0 -0.37389295491E+02 -0.15515783594E+02 -0.38035873111E+01  0.40659146994E+02  0.00000000000E+00 0. -1.
         11    1    3    3    0    0 -0.14593274093E+00 -0.20249019418E+01  0.18280681855E+00  0.20383676884E+01  0.51100000000E-03 0. -1.
        -11    1    3    3    0    0  0.12550767215E+02  0.24756394396E+01 -0.10053112987E+02  0.16270083875E+02  0.51100000000E-03 0.  1.
        -12    1    3    3    0    0  0.24984461018E+02  0.15065046096E+02  0.13673893480E+02  0.32220401442E+02  0.00000000000E+00 0.  1.
</event>
<event>
 7    1  0.2575978E-011  0.5052886E+02  0.7816164E-02  0.1300439E+00
        -11   -1    0    0    0    0  0.00000000000E+00  0.00000000000E+00  0.45593999997E+02  0.45594000000E+02  0.51100000000E-03 0.  1.
         11   -1    0    0    0    0 -0.00000000000E+00 -0.00000000000E+00 -0.45593999997E+02  0.45594000000E+02  0.51100000000E-03 0. -1.
    9900012    2    1    2    0    0 -0.17143192610E+02  0.60895570471E+01  0.36361986257E+02  0.50528858316E+02  0.29999995338E+02 0.  0.
         12    1    1    2    0    0  0.17143192610E+02 -0.60895570471E+01 -0.36361986257E+02  0.40659141684E+02  0.00000000000E+00 0. -1.
         11    1    3    3    0    0  0.56196807467E-01 -0.19325813054E-01  0.59503344206E+01  0.59506311889E+01  0.51100000000E-03 0. -1.
        -11    1    3    3    0    0  0.12611384230E+01  0.39724204176E+01  0.24825691198E+02  0.25173111406E+02  0.51100000000E-03 0.  1.
         12    1    3    3    0    0 -0.18460527841E+02  0.21364624425E+01  0.55859606382E+01  0.19405115722E+02  0.00000000000E+00 0. -1.
</event>
<event>
 7    1  0.2575978E-011  0.5052886E+02  0.7816164E-02  0.1300439E+00
        -11   -1    0    0    0    0  0.00000000000E+00  0.00000000000E+00  0.45593999997E+02  0.45594000000E+02  0.51100000000E-03 0.  1.
         11   -1    0    0    0    0 -0.00000000000E+00 -0.00000000000E+00 -0.45593999997E+02  0.45594000000E+02  0.51100000000E-03 0. -1.
    9900012    2    1    2    0    0  0.40043793739E+02 -0.42346908658E+01  0.56327124030E+01  0.50528862371E+02  0.30000007662E+02 0.  0.
         12    1    1    2    0    0 -0.40043793739E+02  0.42346908658E+01 -0.56327124030E+01  0.40659137629E+02  0.00000000000E+00 0. -1.
         11    1    3    3    0    0 -0.24705823572E+00 -0.32622230914E+01  0.73793271613E+00  0.33537564349E+01  0.51100000000E-03 0. -1.
        -11    1    3    3    0    0  0.16766881002E+01 -0.47309260728E+01 -0.50542664131E+01  0.71231000082E+01  0.51100000000E-03 0.  1.
        -12    1    3    3    0    0  0.38614163875E+02  0.37584582984E+01  0.99490461001E+01  0.40052005928E+02  0.00000000000E+00 0.  1.
</event>
<event>
 7    1  0.2575978E-011  0.5052885E+02  0.7816164E-02  0.1300439E+00
        -11   -1    0    0    0    0  0.00000000000E+00  0.00000000000E+00  0.45593999997E+02  0.45594000000E+02  0.51100000000E-03 0. -1.
         11   -1    0    0    0    0 -0.00000000000E+00 -0.00000000000E+00 -0.45593999997E+02  0.45594000000E+02  0.51100000000E-03 0.  1.
    9900012    2    1    2    0    0  0.22125004969E+02 -0.13971727002E+02 -0.31119791949E+02  0.50528850338E+02  0.29999971086E+02 0.  0.
         12    1    1    2    0    0 -0.22125004969E+02  0.13971727002E+02  0.31119791949E+02  0.40659149662E+02  0.00000000000E+00 0. -1.
         11    1    3    3    0    0  0.17027361108E+02 -0.75608105683E+01 -0.60148623626E+01  0.19577422003E+02  0.51100000000E-03 0.  1.
        -11    1    3    3    0    0  0.30306752045E+01 -0.67372524475E+00  0.16461562479E+01  0.35140757752E+01  0.51100000000E-03 0. -1.
         12    1    3    3    0    0  0.20669686561E+01 -0.57371911891E+01 -0.26751085835E+02  0.27437352560E+02  0.00000000000E+00 0. -1.
</event>
<event>
 7    1  0.2575978E-011  0.5052886E+02  0.7816164E-02  0.1300439E+00
        -11   -1    0    0    0    0  0.00000000000E+00  0.00000000000E+00  0.45593999997E+02  0.45594000000E+02  0.51100000000E-03 0.  1.
         11   -1    0    0    0    0 -0.00000000000E+00 -0.00000000000E+00 -0.45593999997E+02  0.45594000000E+02  0.51100000000E-03 0. -1.
    9900012    2    1    2    0    0 -0.22211240977E+02 -0.72262692518E+01  0.33280737399E+02  0.50528859886E+02  0.30000000108E+02 0.  0.
         12    1    1    2    0    0  0.22211240977E+02  0.72262692518E+01 -0.33280737399E+02  0.40659140114E+02  0.00000000000E+00 0. -1.
         11    1    3    3    0    0 -0.10494671168E+02 -0.26381441884E+01  0.14466497024E+02  0.18065919962E+02  0.51100000000E-03 0.  1.
        -11    1    3    3    0    0 -0.17003566946E+02 -0.80756526197E+01  0.92046310564E+01  0.20953822736E+02  0.51100000000E-03 0. -1.
         12    1    3    3    0    0  0.52869971363E+01  0.34875275563E+01  0.96096093182E+01  0.11509117187E+02  0.00000000000E+00 0. -1.
</event>
<event>
 7    1  0.2575978E-011  0.5052886E+02  0.7816164E-02  0.1300439E+00
        -11   -1    0    0    0    0  0.00000000000E+00  0.00000000000E+00  0.45593999997E+02  0.45594000000E+02  0.51100000000E-03 0. -1.
         11   -1    0    0    0    0 -0.00000000000E+00 -0.00000000000E+00 -0.45593999997E+02  0.45594000000E+02  0.51100000000E-03 0.  1.
    9900012    2    1    2    0    0 -0.37474192753E+02  0.12104214697E+01 -0.15728491204E+02  0.50528859844E+02  0.29999999983E+02 0.  0.
         12    1    1    2    0    0  0.37474192753E+02 -0.12104214697E+01  0.15728491204E+02  0.40659140156E+02  0.00000000000E+00 0. -1.
         11    1    3    3    0    0 -0.10068058436E+02  0.11524101796E+01 -0.19694582073E+01  0.10323401367E+02  0.51100000000E-03 0. -1.
        -11    1    3    3    0    0 -0.18897556029E+02  0.37612537558E+01 -0.20951742784E+02  0.28464718155E+02  0.51100000000E-03 0.  1.
         12    1    3    3    0    0 -0.85085782877E+01 -0.37032424658E+01  0.71927097870E+01  0.11740740322E+02  0.00000000000E+00 0. -1.
</event>
<event>
 7    1  0.2575978E-011  0.5052899E+02  0.7816164E-02  0.1300438E+00
        -11   -1    0    0    0    0  0.00000000000E+00  0.00000000000E+00  0.45593999997E+02  0.45594000000E+02  0.51100000000E-03 0.  1.
         11   -1    0    0    0    0 -0.00000000000E+00 -0.00000000000E+00 -0.45593999997E+02  0.45594000000E+02  0.51100000000E-03 0. -1.
    9900012    2    1    2    0    0 -0.25210548343E+02 -0.17464564100E+02  0.26694048723E+02  0.50528991353E+02  0.30000399713E+02 0.  0.
         12    1    1    2    0    0  0.25210548343E+02  0.17464564100E+02 -0.26694048723E+02  0.40659008647E+02  0.00000000000E+00 0. -1.
         11    1    3    3    0    0 -0.96495171066E+01 -0.52092305206E+01  0.18413345236E+02  0.21431298282E+02  0.51100000000E-03 0. -1.
        -11    1    3    3    0    0 -0.17342140231E+02 -0.57007258663E+01  0.11505926409E+02  0.21578564503E+02  0.51100000000E-03 0.  1.
         12    1    3    3    0    0  0.17811089953E+01 -0.65546077134E+01 -0.32252229216E+01  0.75191285681E+01  0.00000000000E+00 0. -1.
</event>
<event>
 7    1  0.2575978E-011  0.5052886E+02  0.7816164E-02  0.1300439E+00
        -11   -1    0    0    0    0  0.00000000000E+00  0.00000000000E+00  0.45593999997E+02  0.45594000000E+02  0.51100000000E-03 0. -1.
         11   -1    0    0    0    0 -0.00000000000E+00 -0.00000000000E+00 -0.45593999997E+02  0.45594000000E+02  0.51100000000E-03 0.  1.
    9900012    2    1    2    0    0 -0.27180326591E+02  0.18495834366E+02 -0.23922777064E+02  0.50528864435E+02  0.30000013935E+02 0.  0.
         12    1    1    2    0    0  0.27180326591E+02 -0.18495834366E+02  0.23922777064E+02  0.40659135565E+02  0.00000000000E+00 0. -1.
         11    1    3    3    0    0  0.35877455341E+01 -0.24580619221E+01 -0.27703727394E+01  0.51564475957E+01  0.51100000000E-03 0. -1.
        -11    1    3    3    0    0 -0.12050749238E+02  0.17228311311E+01 -0.11799169522E+02  0.16953144428E+02  0.51100000000E-03 0.  1.
        -12    1    3    3    0    0 -0.18717322887E+02  0.19231065157E+02 -0.93532348023E+01  0.28419272411E+02  0.00000000000E+00 0.  1.
</event>
<event>
 7    1  0.2575978E-011  0.5052886E+02  0.7816164E-02  0.1300439E+00
        -11   -1    0    0    0    0  0.00000000000E+00  0.00000000000E+00  0.45593999997E+02  0.45594000000E+02  0.51100000000E-03 0. -1.
         11   -1    0    0    0    0 -0.00000000000E+00 -0.00000000000E+00 -0.45593999997E+02  0.45594000000E+02  0.51100000000E-03 0.  1.
    9900012    2    1    2    0    0 -0.83874895868E+01 -0.12256135488E+02 -0.37849742399E+02  0.50528857875E+02  0.29999993997E+02 0.  0.
         12    1    1    2    0    0  0.83874895868E+01  0.12256135488E+02  0.37849742399E+02  0.40659142125E+02  0.00000000000E+00 0. -1.
         11    1    3    3    0    0 -0.74424645402E+01  0.38404052666E+01 -0.89515803014E+01  0.12258457537E+02  0.51100000000E-03 0. -1.
        -11    1    3    3    0    0 -0.92942316123E+01 -0.36420528502E+01 -0.13359455405E+02  0.16677000306E+02  0.51100000000E-03 0.  1.
        -12    1    3    3    0    0  0.83492065657E+01 -0.12454487904E+02 -0.15538706693E+02  0.21593400032E+02  0.00000000000E+00 0.  1.
</event>
<event>
 7    1  0.2575978E-011  0.5052885E+02  0.7816164E-02  0.1300439E+00
        -11   -1    0    0    0    0  0.00000000000E+00  0.00000000000E+00  0.45593999997E+02  0.45594000000E+02  0.51100000000E-03 0. -1.
         11   -1    0    0    0    0 -0.00000000000E+00 -0.00000000000E+00 -0.45593999997E+02  0.45594000000E+02  0.51100000000E-03 0.  1.
    9900012    2    1    2    0    0  0.16580823889E+02  0.36047124078E+02 -0.88795991554E+01  0.50528853965E+02  0.29999982112E+02 0.  0.
         12    1    1    2    0    0 -0.16580823889E+02 -0.36047124078E+02  0.88795991554E+01  0.40659146035E+02  0.00000000000E+00 0. -1.
         11    1    3    3    0    0 -0.15010448687E+01  0.51669752943E+01 -0.17044506055E+01  0.56441050236E+01  0.51100000000E-03 0. -1.
        -11    1    3    3    0    0  0.11585594454E+02  0.27498451483E+02 -0.15641333683E+02  0.33690386647E+02  0.51100000000E-03 0.  1.
         12    1    3    3    0    0  0.64962743039E+01  0.33816973007E+01  0.84661851327E+01  0.11194362294E+02  0.00000000000E+00 0. -1.
</event>
<event>
 7    1  0.2575978E-011  0.5052886E+02  0.7816164E-02  0.1300439E+00
        -11   -1    0    0    0    0  0.00000000000E+00  0.00000000000E+00  0.45593999997E+02  0.45594000000E+02  0.51100000000E-03 0. -1.
         11   -1    0    0    0    0 -0.00000000000E+00 -0.00000000000E+00 -0.45593999997E+02  0.45594000000E+02  0.51100000000E-03 0.  1.
    9900012    2    1    2    0    0 -0.28892967376E+02 -0.28596163972E+02 -0.78852652333E+00  0.50528856725E+02  0.29999990503E+02 0.  0.
         12    1    1    2    0    0  0.28892967376E+02  0.28596163972E+02  0.78852652333E+00  0.40659143275E+02  0.00000000000E+00 0. -1.
         11    1    3    3    0    0 -0.58511329333E+01 -0.27373388269E+00  0.25925213572E+01  0.64056111410E+01  0.51100000000E-03 0. -1.
        -11    1    3    3    0    0 -0.25454474848E+02 -0.13626447529E+02 -0.95713954968E-01  0.28872469992E+02  0.51100000000E-03 0.  1.
         12    1    3    3    0    0  0.24126404049E+01 -0.14695982561E+02 -0.32853339255E+01  0.15250775592E+02  0.00000000000E+00 0. -1.
</event>
<event>
 7    1  0.2575978E-011  0.5052886E+02  0.7816164E-02  0.1300439E+00
        -11   -1    0    0    0    0  0.00000000000E+00  0.00000000000E+00  0.45593999997E+02  0.45594000000E+02  0.51100000000E-03 0. -1.
         11   -1    0    0    0    0 -0.00000000000E+00 -0.00000000000E+00 -0.45593999997E+02  0.45594000000E+02  0.51100000000E-03 0.  1.
    9900012    2    1    2    0    0  0.40571685694E+02 -0.25696668355E+01  0.70782966436E+00  0.50528857233E+02  0.29999992045E+02 0.  0.
         12    1    1    2    0    0 -0.40571685694E+02  0.25696668355E+01 -0.70782966436E+00  0.40659142767E+02  0.00000000000E+00 0. -1.
         11    1    3    3    0    0 -0.15298366473E+01 -0.33357631161E+01 -0.12932182073E+00  0.36721165734E+01  0.51100000000E-03 0. -1.
        -11    1    3    3    0    0  0.34291034020E+02  0.89302972037E+01 -0.77774415898E+00  0.35443336588E+02  0.51100000000E-03 0.  1.
         12    1    3    3    0    0  0.78104883222E+01 -0.81642009232E+01  0.16148956441E+01  0.11413404071E+02  0.00000000000E+00 0. -1.
</event>
<event>
 7    1  0.2575978E-011  0.5052881E+02  0.7816164E-02  0.1300439E+00
        -11   -1    0    0    0    0  0.00000000000E+00  0.00000000000E+00  0.45593999997E+02  0.45594000000E+02  0.51100000000E-03 0.  1.
         11   -1    0    0    0    0 -0.00000000000E+00 -0.00000000000E+00 -0.45593999997E+02  0.45594000000E+02  0.51100000000E-03 0. -1.
    9900012    2    1    2    0    0  0.28365590258E+01 -0.24631461503E+02  0.32224448223E+02  0.50528806376E+02  0.29999837459E+02 0.  0.
         12    1    1    2    0    0 -0.28365590258E+01  0.24631461503E+02 -0.32224448223E+02  0.40659193624E+02  0.00000000000E+00 0. -1.
         11    1    3    3    0    0  0.27722176056E+01  0.25036016289E+01  0.11298435883E+01  0.39025323015E+01  0.51100000000E-03 0. -1.
        -11    1    3    3    0    0  0.40812674480E+01  0.12140554472E+01 -0.13180271965E+00  0.42600524444E+01  0.51100000000E-03 0.  1.
        -12    1    3    3    0    0 -0.40169260278E+01 -0.28349118579E+02  0.31226407355E+02  0.42366221630E+02  0.00000000000E+00 0.  1.
</event>
<event>
 7    1  0.2575978E-011  0.5052886E+02  0.7816164E-02  0.1300439E+00
        -11   -1    0    0    0    0  0.00000000000E+00  0.00000000000E+00  0.45593999997E+02  0.45594000000E+02  0.51100000000E-03 0.  1.
         11   -1    0    0    0    0 -0.00000000000E+00 -0.00000000000E+00 -0.45593999997E+02  0.45594000000E+02  0.51100000000E-03 0. -1.
    9900012    2    1    2    0    0  0.36892946388E+02 -0.11072838014E+02 -0.13018006047E+02  0.50528859376E+02  0.29999998559E+02 0.  0.
         12    1    1    2    0    0 -0.36892946388E+02  0.11072838014E+02  0.13018006047E+02  0.40659140624E+02  0.00000000000E+00 0. -1.
         11    1    3    3    0    0 -0.11860124901E+01 -0.69732857703E+01 -0.16641869609E+01  0.72665575455E+01  0.51100000000E-03 0. -1.
        -11    1    3    3    0    0  0.13114171993E+01 -0.15845408581E+01 -0.55956649624E+01  0.59617154774E+01  0.51100000000E-03 0.  1.
        -12    1    3    3    0    0  0.36767541679E+02 -0.25150113857E+01 -0.57581541233E+01  0.37300586353E+02  0.00000000000E+00 0.  1.
</event>
<event>
 7    1  0.2575978E-011  0.5052886E+02  0.7816164E-02  0.1300439E+00
        -11   -1    0    0    0    0  0.00000000000E+00  0.00000000000E+00  0.45593999997E+02  0.45594000000E+02  0.51100000000E-03 0. -1.
         11   -1    0    0    0    0 -0.00000000000E+00 -0.00000000000E+00 -0.45593999997E+02  0.45594000000E+02  0.51100000000E-03 0.  1.
    9900012    2    1    2    0    0 -0.99301667755E+01 -0.34055991552E+02 -0.19868232312E+02  0.50528862921E+02  0.30000009336E+02 0.  0.
         12    1    1    2    0    0  0.99301667755E+01  0.34055991552E+02  0.19868232312E+02  0.40659137079E+02  0.00000000000E+00 0. -1.
         11    1    3    3    0    0 -0.11896743896E+01 -0.12339310863E+02 -0.53912047999E+01  0.13518099245E+02  0.51100000000E-03 0. -1.
        -11    1    3    3    0    0 -0.69260483222E+01 -0.23806668525E+02 -0.27316873429E+01  0.24943731229E+02  0.51100000000E-03 0.  1.
         12    1    3    3    0    0 -0.18144440637E+01  0.20899878361E+01 -0.11745340169E+02  0.12067032448E+02  0.00000000000E+00 0. -1.
</event>
<event>
 7    1  0.2575978E-011  0.5052885E+02  0.7816164E-02  0.1300439E+00
        -11   -1    0    0    0    0  0.00000000000E+00  0.00000000000E+00  0.45593999997E+02  0.45594000000E+02  0.51100000000E-03 0.  1.
         11   -1    0    0    0    0 -0.00000000000E+00 -0.00000000000E+00 -0.45593999997E+02  0.45594000000E+02  0.51100000000E-03 0. -1.
    9900012    2    1    2    0    0 -0.92591190189E+01  0.25196913864E+02  0.30537689473E+02  0.50528853039E+02  0.29999979298E+02 0.  0.
         12    1    1    2    0    0  0.92591190189E+01 -0.25196913864E+02 -0.30537689473E+02  0.40659146961E+02  0.00000000000E+00 0. -1.
         11    1    3    3    0    0 -0.19101232743E+01  0.37109966429E+01  0.17593550884E+02  0.18081844485E+02  0.51100000000E-03 0. -1.
        -11    1    3    3    0    0 -0.88461734121E+01  0.58422563392E+01  0.12944830518E+02  0.16731867217E+02  0.51100000000E-03 0.  1.
         12    1    3    3    0    0  0.14971776676E+01  0.15643660882E+02 -0.69193003179E-03  0.15715141337E+02  0.00000000000E+00 0. -1.
</event>
<event>
 7    1  0.2575978E-011  0.5052878E+02  0.7816164E-02  0.1300439E+00
        -11   -1    0    0    0    0  0.00000000000E+00  0.00000000000E+00  0.45593999997E+02  0.45594000000E+02  0.51100000000E-03 0.  1.
         11   -1    0    0    0    0 -0.00000000000E+00 -0.00000000000E+00 -0.45593999997E+02  0.45594000000E+02  0.51100000000E-03 0. -1.
    9900012    2    1    2    0    0  0.10178918868E+02  0.36281092812E+02  0.15272318700E+02  0.50528784520E+02  0.29999771026E+02 0.  0.
         12    1    1    2    0    0 -0.10178918868E+02 -0.36281092812E+02 -0.15272318700E+02  0.40659215480E+02  0.00000000000E+00 0. -1.
         11    1    3    3    0    0 -0.21494301704E+01 -0.82205720282E+00 -0.41448764958E+01  0.47408680142E+01  0.51100000000E-03 0. -1.
        -11    1    3    3    0    0  0.39284873510E+01  0.65739339495E+01 -0.15471188496E+01  0.78130146189E+01  0.51100000000E-03 0.  1.
        -12    1    3    3    0    0  0.83998616871E+01  0.30529216066E+02  0.20964314045E+02  0.37974901887E+02  0.00000000000E+00 0.  1.
</event>
<event>
 7    1  0.2575978E-011  0.5052887E+02  0.7816164E-02  0.1300439E+00
        -11   -1    0    0    0    0  0.00000000000E+00  0.00000000000E+00  0.45593999997E+02  0.45594000000E+02  0.51100000000E-03 0. -1.
         11   -1    0    0    0    0 -0.00000000000E+00 -0.00000000000E+00 -0.45593999997E+02  0.45594000000E+02  0.51100000000E-03 0.  1.
    9900012    2    1    2    0    0 -0.36138687414E+02  0.18186088739E+02 -0.40529824568E+01  0.50528865499E+02  0.30000017170E+02 0.  0.
         12    1    1    2    0    0  0.36138687414E+02 -0.18186088739E+02  0.40529824568E+01  0.40659134501E+02  0.00000000000E+00 0. -1.
         11    1    3    3    0    0 -0.13306490941E+02  0.14503859096E+02  0.12592652952E+00  0.19683508010E+02  0.51100000000E-03 0. -1.
        -11    1    3    3    0    0 -0.15642195532E+02  0.72767402536E+01  0.56448333796E+01  0.18151952345E+02  0.51100000000E-03 0.  1.
         12    1    3    3    0    0 -0.71900009412E+01 -0.35945106112E+01 -0.98237423659E+01  0.12693405144E+02  0.00000000000E+00 0. -1.
</event>
<event>
 7    1  0.2575978E-011  0.5052885E+02  0.7816164E-02  0.1300439E+00
        -11   -1    0    0    0    0  0.00000000000E+00  0.00000000000E+00  0.45593999997E+02  0.45594000000E+02  0.51100000000E-03 0.  1.
         11   -1    0    0    0    0 -0.00000000000E+00 -0.00000000000E+00 -0.45593999997E+02  0.45594000000E+02  0.51100000000E-03 0. -1.
    9900012    2    1    2    0    0  0.28331472303E+02  0.27122883487E+02  0.10716480676E+02  0.50528854786E+02  0.29999984606E+02 0.  0.
         12    1    1    2    0    0 -0.28331472303E+02 -0.27122883487E+02 -0.10716480676E+02  0.40659145214E+02  0.00000000000E+00 0. -1.
         11    1    3    3    0    0  0.66597212224E+01  0.18239934974E+02 -0.29599832945E+01  0.19642011505E+02  0.51100000000E-03 0. -1.
        -11    1    3    3    0    0  0.18981722906E+01  0.29970064113E+01 -0.27714324753E+01  0.45017711737E+01  0.51100000000E-03 0.  1.
        -12    1    3    3    0    0  0.19773578790E+02  0.58859421018E+01  0.16447896445E+02  0.26385072107E+02  0.00000000000E+00 0.  1.
</event>
<event>
 7    1  0.2575978E-011  0.5052886E+02  0.7816164E-02  0.1300439E+00
        -11   -1    0    0    0    0  0.00000000000E+00  0.00000000000E+00  0.45593999997E+02  0.45594000000E+02  0.51100000000E-03 0.  1.
         11   -1    0    0    0    0 -0.00000000000E+00 -0.00000000000E+00 -0.45593999997E+02  0.45594000000E+02  0.51100000000E-03 0. -1.
    9900012    2    1    2    0    0  0.26111466748E+02 -0.11181574770E+02  0.29091737517E+02  0.50528862014E+02  0.30000006576E+02 0.  0.
         12    1    1    2    0    0 -0.26111466748E+02  0.11181574770E+02 -0.29091737517E+02  0.40659137986E+02  0.00000000000E+00 0. -1.
         11    1    3    3    0    0  0.12868029096E+02 -0.10250089728E+02  0.84669324042E+01  0.18502417595E+02  0.51100000000E-03 0. -1.
        -11    1    3    3    0    0  0.16706793908E+02 -0.62184344458E+01  0.17480964910E+02  0.24967379199E+02  0.51100000000E-03 0.  1.
        -12    1    3    3    0    0 -0.34633562564E+01  0.52869494035E+01  0.31438402024E+01  0.70590652194E+01  0.00000000000E+00 0.  1.
</event>
<event>
 7    1  0.2575978E-011  0.5052886E+02  0.7816164E-02  0.1300439E+00
        -11   -1    0    0    0    0  0.00000000000E+00  0.00000000000E+00  0.45593999997E+02  0.45594000000E+02  0.51100000000E-03 0. -1.
         11   -1    0    0    0    0 -0.00000000000E+00 -0.00000000000E+00 -0.45593999997E+02  0.45594000000E+02  0.51100000000E-03 0.  1.
    9900012    2    1    2    0    0 -0.36945381124E+02 -0.16652804419E+02 -0.32997639756E+01  0.50528861744E+02  0.30000005756E+02 0.  0.
         12    1    1    2    0    0  0.36945381124E+02  0.16652804419E+02  0.32997639756E+01  0.40659138256E+02  0.00000000000E+00 0. -1.
         11    1    3    3    0    0  0.31165993197E+01  0.10229914772E+01 -0.35268026410E+01  0.48164343671E+01  0.51100000000E-03 0. -1.
        -11    1    3    3    0    0 -0.25364670511E+01  0.18856077329E+01 -0.11731622361E+01  0.33712744648E+01  0.51100000000E-03 0.  1.
         12    1    3    3    0    0 -0.37525513393E+02 -0.19561403629E+02  0.14002009015E+01  0.42341152912E+02  0.00000000000E+00 0. -1.
</event>
<event>
 7    1  0.2575978E-011  0.5052887E+02  0.7816164E-02  0.1300439E+00
        -11   -1    0    0    0    0  0.00000000000E+00  0.00000000000E+00  0.45593999997E+02  0.45594000000E+02  0.51100000000E-03 0. -1.
         11   -1    0    0    0    0 -0.00000000000E+00 -0.00000000000E+00 -0.45593999997E+02  0.45594000000E+02  0.51100000000E-03 0.  1.
    9900012    2    1    2    0    0  0.23747563577E+02 -0.28629673126E+02 -0.16418283303E+02  0.50528868359E+02  0.30000025864E+02 0.  0.
         12    1    1    2    0    0 -0.23747563577E+02  0.28629673126E+02  0.16418283303E+02  0.40659131641E+02  0.00000000000E+00 0. -1.
         11    1    3    3    0    0 -0.62102458808E+00  0.72681905604E+00 -0.88019229498E+00  0.12994907527E+01  0.51100000000E-03 0. -1.
        -11    1    3    3    0    0  0.11435160114E+02 -0.20741937721E+02 -0.22068720065E+02  0.32373125781E+02  0.51100000000E-03 0.  1.
        -12    1    3    3    0    0  0.12933428051E+02 -0.86145544616E+01  0.65306290565E+01  0.16856251825E+02  0.00000000000E+00 0.  1.
</event>
<event>
 7    1  0.2575978E-011  0.5052886E+02  0.7816164E-02  0.1300439E+00
        -11   -1    0    0    0    0  0.00000000000E+00  0.00000000000E+00  0.45593999997E+02  0.45594000000E+02  0.51100000000E-03 0. -1.
         11   -1    0    0    0    0 -0.00000000000E+00 -0.00000000000E+00 -0.45593999997E+02  0.45594000000E+02  0.51100000000E-03 0.  1.
    9900012    2    1    2    0    0  0.28476140549E+01 -0.39185435140E+02 -0.10467017489E+02  0.50528859724E+02  0.29999999616E+02 0.  0.
         12    1    1    2    0    0 -0.28476140549E+01  0.39185435140E+02  0.10467017489E+02  0.40659140276E+02  0.00000000000E+00 0. -1.
         11    1    3    3    0    0 -0.41041840896E+01  0.25935127801E+01 -0.50276763493E+01  0.69891462509E+01  0.51100000000E-03 0. -1.
        -11    1    3    3    0    0  0.20761800539E+01 -0.23502687158E+01  0.10015348397E+01  0.32920144211E+01  0.51100000000E-03 0.  1.
         12    1    3    3    0    0  0.48756180906E+01 -0.39428679204E+02 -0.64408759791E+01  0.40247699052E+02  0.00000000000E+00 0. -1.
</event>
<event>
 7    1  0.2575978E-011  0.5052885E+02  0.7816164E-02  0.1300439E+00
        -11   -1    0    0    0    0  0.00000000000E+00  0.00000000000E+00  0.45593999997E+02  0.45594000000E+02  0.51100000000E-03 0.  1.
         11   -1    0    0    0    0 -0.00000000000E+00 -0.00000000000E+00 -0.45593999997E+02  0.45594000000E+02  0.51100000000E-03 0. -1.
    9900012    2    1    2    0    0 -0.24245210753E+02 -0.16607203894E+02  0.28098705590E+02  0.50528847015E+02  0.29999960987E+02 0.  0.
         12    1    1    2    0    0  0.24245210753E+02  0.16607203894E+02 -0.28098705590E+02  0.40659152985E+02  0.00000000000E+00 0. -1.
         11    1    3    3    0    0  0.19281839013E+01 -0.27527895466E+01 -0.14801111973E+01  0.36723933426E+01  0.51100000000E-03 0.  1.
        -11    1    3    3    0    0 -0.10047238095E+02 -0.29923470531E+01 -0.10940542469E+01  0.10540307831E+02  0.51100000000E-03 0. -1.
        -12    1    3    3    0    0 -0.16126156559E+02 -0.10862067295E+02  0.30672871034E+02  0.36316145841E+02  0.00000000000E+00 0.  1.
</event>
<event>
 7    1  0.2575978E-011  0.5052886E+02  0.7816164E-02  0.1300439E+00
        -11   -1    0    0    0    0  0.00000000000E+00  0.00000000000E+00  0.45593999997E+02  0.45594000000E+02  0.51100000000E-03 0. -1.
         11   -1    0    0    0    0 -0.00000000000E+00 -0.00000000000E+00 -0.45593999997E+02  0.45594000000E+02  0.51100000000E-03 0.  1.
    9900012    2    1    2    0    0  0.20335745649E+02 -0.23628938031E+02 -0.26101653695E+02  0.50528860939E+02  0.30000003309E+02 0.  0.
         12    1    1    2    0    0 -0.20335745649E+02  0.23628938031E+02  0.26101653695E+02  0.40659139061E+02  0.00000000000E+00 0. -1.
         11    1    3    3    0    0  0.22225870981E+01 -0.41832799266E+01  0.25461567343E+01  0.53779771968E+01  0.51100000000E-03 0. -1.
        -11    1    3    3    0    0  0.17631862546E+02 -0.27167634037E+01 -0.11711258348E+02  0.21340500289E+02  0.51100000000E-03 0.  1.
         12    1    3    3    0    0  0.48129600528E+00 -0.16728894701E+02 -0.16936552082E+02  0.23810383453E+02  0.00000000000E+00 0. -1.
</event>
<event>
 7    1  0.2575978E-011  0.5052887E+02  0.7816164E-02  0.1300439E+00
        -11   -1    0    0    0    0  0.00000000000E+00  0.00000000000E+00  0.45593999997E+02  0.45594000000E+02  0.51100000000E-03 0. -1.
         11   -1    0    0    0    0 -0.00000000000E+00 -0.00000000000E+00 -0.45593999997E+02  0.45594000000E+02  0.51100000000E-03 0.  1.
    9900012    2    1    2    0    0 -0.24554940784E+02 -0.17813062958E+02 -0.27072399210E+02  0.50528866612E+02  0.30000020554E+02 0.  0.
         12    1    1    2    0    0  0.24554940784E+02  0.17813062958E+02  0.27072399210E+02  0.40659133388E+02  0.00000000000E+00 0. -1.
         11    1    3    3    0    0 -0.23249687768E+01  0.59815868904E+01 -0.16342431931E+01  0.66223570287E+01  0.51100000000E-03 0. -1.
        -11    1    3    3    0    0 -0.11292847696E+02 -0.61831841054E+01 -0.17458913218E+02  0.21692713657E+02  0.51100000000E-03 0.  1.
        -12    1    3    3    0    0 -0.10937124311E+02 -0.17611465743E+02 -0.79792427985E+01  0.22213795927E+02  0.00000000000E+00 0.  1.
</event>
<event>
 7    1  0.2575978E-011  0.5052886E+02  0.7816164E-02  0.1300439E+00
        -11   -1    0    0    0    0  0.00000000000E+00  0.00000000000E+00  0.45593999997E+02  0.45594000000E+02  0.51100000000E-03 0. -1.
         11   -1    0    0    0    0 -0.00000000000E+00 -0.00000000000E+00 -0.45593999997E+02  0.45594000000E+02  0.51100000000E-03 0.  1.
    9900012    2    1    2    0    0 -0.39710068832E+02  0.25472941213E+01 -0.83538966857E+01  0.50528857561E+02  0.29999993043E+02 0.  0.
         12    1    1    2    0    0  0.39710068832E+02 -0.25472941213E+01  0.83538966857E+01  0.40659142439E+02  0.00000000000E+00 0. -1.
         11    1    3    3    0    0 -0.15495633874E+02  0.14916769719E+01  0.10424858157E+01  0.15602132748E+02  0.51100000000E-03 0. -1.
        -11    1    3    3    0    0 -0.22864451463E+02  0.85644465508E+01 -0.23283054548E+01  0.24526595605E+02  0.51100000000E-03 0.  1.
        -12    1    3    3    0    0 -0.13499834959E+01 -0.75088294014E+01 -0.70680770466E+01  0.10400129209E+02  0.00000000000E+00 0.  1.
</event>
<event>
 7    1  0.2575978E-011  0.5052886E+02  0.7816164E-02  0.1300439E+00
        -11   -1    0    0    0    0  0.00000000000E+00  0.00000000000E+00  0.45593999997E+02  0.45594000000E+02  0.51100000000E-03 0.  1.
         11   -1    0    0    0    0 -0.00000000000E+00 -0.00000000000E+00 -0.45593999997E+02  0.45594000000E+02  0.51100000000E-03 0. -1.
    9900012    2    1    2    0    0  0.10087991189E+02 -0.31360391767E+02  0.23831161576E+02  0.50528855886E+02  0.29999987952E+02 0.  0.
         12    1    1    2    0    0 -0.10087991189E+02  0.31360391767E+02 -0.23831161576E+02  0.40659144114E+02  0.00000000000E+00 0. -1.
         11    1    3    3    0    0 -0.55628637140E+01 -0.65036334634E+01  0.27421264720E+01  0.89867657573E+01  0.51100000000E-03 0. -1.
        -11    1    3    3    0    0 -0.39902092883E+01 -0.10320970470E+02  0.90886734646E+01  0.14319503735E+02  0.51100000000E-03 0.  1.
        -12    1    3    3    0    0  0.19641064191E+02 -0.14535787834E+02  0.12000361640E+02  0.27222586394E+02  0.00000000000E+00 0.  1.
</event>
<event>
 7    1  0.2575978E-011  0.5052885E+02  0.7816164E-02  0.1300439E+00
        -11   -1    0    0    0    0  0.00000000000E+00  0.00000000000E+00  0.45593999997E+02  0.45594000000E+02  0.51100000000E-03 0.  1.
         11   -1    0    0    0    0 -0.00000000000E+00 -0.00000000000E+00 -0.45593999997E+02  0.45594000000E+02  0.51100000000E-03 0. -1.
    9900012    2    1    2    0    0  0.38523364257E+01  0.62387246521E+01  0.39992548245E+02  0.50528854703E+02  0.29999984354E+02 0.  0.
         12    1    1    2    0    0 -0.38523364257E+01 -0.62387246521E+01 -0.39992548245E+02  0.40659145297E+02  0.00000000000E+00 0. -1.
         11    1    3    3    0    0  0.36511245196E+01 -0.13075732211E+01  0.19536755644E+01  0.43425000240E+01  0.51100000000E-03 0. -1.
        -11    1    3    3    0    0 -0.51842758311E+00  0.13285530767E+01 -0.37080318843E+01  0.39728228192E+01  0.51100000000E-03 0.  1.
        -12    1    3    3    0    0  0.71963948919E+00  0.62177447966E+01  0.41746904564E+02  0.42213531860E+02  0.00000000000E+00 0.  1.
</event>
<event>
 7    1  0.2575978E-011  0.5052886E+02  0.7816164E-02  0.1300439E+00
        -11   -1    0    0    0    0  0.00000000000E+00  0.00000000000E+00  0.45593999997E+02  0.45594000000E+02  0.51100000000E-03 0. -1.
         11   -1    0    0    0    0 -0.00000000000E+00 -0.00000000000E+00 -0.45593999997E+02  0.45594000000E+02  0.51100000000E-03 0.  1.
    9900012    2    1    2    0    0 -0.39711173909E+02 -0.35254197212E+01 -0.79849812629E+01  0.50528857815E+02  0.29999993816E+02 0.  0.
         12    1    1    2    0    0  0.39711173909E+02  0.35254197212E+01  0.79849812629E+01  0.40659142185E+02  0.00000000000E+00 0. -1.
         11    1    3    3    0    0 -0.29626597291E+02 -0.47145484849E+01  0.53914318422E+01  0.30479989698E+02  0.51100000000E-03 0. -1.
        -11    1    3    3    0    0 -0.92183783455E+01  0.86307327380E+00 -0.31488333741E+01  0.97794962384E+01  0.51100000000E-03 0.  1.
         12    1    3    3    0    0 -0.86619827252E+00  0.32605548987E+00 -0.10227579731E+02  0.10269371879E+02  0.00000000000E+00 0. -1.
</event>
<event>
 7    1  0.2575978E-011  0.5052887E+02  0.7816164E-02  0.1300439E+00
        -11   -1    0    0    0    0  0.00000000000E+00  0.00000000000E+00  0.45593999997E+02  0.45594000000E+02  0.51100000000E-03 0. -1.
         11   -1    0    0    0    0 -0.00000000000E+00 -0.00000000000E+00 -0.45593999997E+02  0.45594000000E+02  0.51100000000E-03 0.  1.
    9900012    2    1    2    0    0  0.12750862747E+02 -0.30441322649E+02 -0.23746708605E+02  0.50528870705E+02  0.30000032996E+02 0.  0.
         12    1    1    2    0    0 -0.12750862747E+02  0.30441322649E+02  0.23746708605E+02  0.40659129295E+02  0.00000000000E+00 0. -1.
         11    1    3    3    0    0  0.65147955251E+00 -0.20122881615E+02 -0.15301590762E+02  0.25288208125E+02  0.51100000000E-03 0. -1.
        -11    1    3    3    0    0  0.67569412903E+01 -0.14554617464E+02 -0.90031704914E+01  0.18399734354E+02  0.51100000000E-03 0.  1.
         12    1    3    3    0    0  0.53424419043E+01  0.42361764291E+01  0.55805264871E+00  0.68409282264E+01  0.00000000000E+00 0. -1.
</event>
<event>
 7    1  0.2575978E-011  0.5052886E+02  0.7816164E-02  0.1300439E+00
        -11   -1    0    0    0    0  0.00000000000E+00  0.00000000000E+00  0.45593999997E+02  0.45594000000E+02  0.51100000000E-03 0.  1.
         11   -1    0    0    0    0 -0.00000000000E+00 -0.00000000000E+00 -0.45593999997E+02  0.45594000000E+02  0.51100000000E-03 0. -1.
    9900012    2    1    2    0    0  0.22904387766E+02 -0.22846466523E+02  0.24629121999E+02  0.50528860044E+02  0.30000000589E+02 0.  0.
         12    1    1    2    0    0 -0.22904387766E+02  0.22846466523E+02 -0.24629121999E+02  0.40659139956E+02  0.00000000000E+00 0. -1.
         11    1    3    3    0    0 -0.19068809410E+01 -0.11860834166E+02  0.13299125882E+02  0.17921560521E+02  0.51100000000E-03 0. -1.
        -11    1    3    3    0    0  0.56894539322E+01  0.10107328216E+01 -0.23210278803E+01  0.62272495988E+01  0.51100000000E-03 0.  1.
         12    1    3    3    0    0  0.19121814775E+02 -0.11996365179E+02  0.13651023997E+02  0.26380049924E+02  0.00000000000E+00 0. -1.
</event>
<event>
 7    1  0.2575978E-011  0.5052886E+02  0.7816164E-02  0.1300439E+00
        -11   -1    0    0    0    0  0.00000000000E+00  0.00000000000E+00  0.45593999997E+02  0.45594000000E+02  0.51100000000E-03 0. -1.
         11   -1    0    0    0    0 -0.00000000000E+00 -0.00000000000E+00 -0.45593999997E+02  0.45594000000E+02  0.51100000000E-03 0.  1.
    9900012    2    1    2    0    0 -0.20387222092E+02 -0.27580542276E+02 -0.21836678533E+02  0.50528859991E+02  0.30000000429E+02 0.  0.
         12    1    1    2    0    0  0.20387222092E+02  0.27580542276E+02  0.21836678533E+02  0.40659140009E+02  0.00000000000E+00 0. -1.
         11    1    3    3    0    0 -0.22317342225E+00 -0.24311097098E+01  0.31551475735E+01  0.39893680287E+01  0.51100000000E-03 0. -1.
        -11    1    3    3    0    0 -0.13906041183E+02 -0.81531262020E+01 -0.56410073837E+00  0.16129775515E+02  0.51100000000E-03 0.  1.
        -12    1    3    3    0    0 -0.62580074873E+01 -0.16996306364E+02 -0.24427725368E+02  0.30409716448E+02  0.00000000000E+00 0.  1.
</event>
<event>
 7    1  0.2575978E-011  0.5052887E+02  0.7816164E-02  0.1300439E+00
        -11   -1    0    0    0    0  0.00000000000E+00  0.00000000000E+00  0.45593999997E+02  0.45594000000E+02  0.51100000000E-03 0.  1.
         11   -1    0    0    0    0 -0.00000000000E+00 -0.00000000000E+00 -0.45593999997E+02  0.45594000000E+02  0.51100000000E-03 0. -1.
    9900012    2    1    2    0    0  0.14190444769E+02  0.58057922763E+01  0.37657524470E+02  0.50528867005E+02  0.30000021749E+02 0.  0.
         12    1    1    2    0    0 -0.14190444769E+02 -0.58057922763E+01 -0.37657524470E+02  0.40659132995E+02  0.00000000000E+00 0. -1.
         11    1    3    3    0    0  0.19709504604E+01 -0.20833268637E+01  0.21305707709E+02  0.21497862168E+02  0.51100000000E-03 0. -1.
        -11    1    3    3    0    0  0.82842201854E+00 -0.54877845077E+01  0.75761557588E+01  0.93914960569E+01  0.51100000000E-03 0.  1.
        -12    1    3    3    0    0  0.11391072290E+02  0.13376903648E+02  0.87756610015E+01  0.19639508780E+02  0.00000000000E+00 0.  1.
</event>
<event>
 7    1  0.2575978E-011  0.5052886E+02  0.7816164E-02  0.1300439E+00
        -11   -1    0    0    0    0  0.00000000000E+00  0.00000000000E+00  0.45593999997E+02  0.45594000000E+02  0.51100000000E-03 0.  1.
         11   -1    0    0    0    0 -0.00000000000E+00 -0.00000000000E+00 -0.45593999997E+02  0.45594000000E+02  0.51100000000E-03 0. -1.
    9900012    2    1    2    0    0  0.13868468540E+02  0.29653992128E+02  0.24113729173E+02  0.50528860764E+02  0.30000002777E+02 0.  0.
         12    1    1    2    0    0 -0.13868468540E+02 -0.29653992128E+02 -0.24113729173E+02  0.40659139236E+02  0.00000000000E+00 0. -1.
         11    1    3    3    0    0 -0.46173413890E+01  0.19652154729E+02  0.12356174307E+02  0.23668588272E+02  0.51100000000E-03 0.  1.
        -11    1    3    3    0    0  0.10188428102E+02  0.11611256931E+02  0.57165765976E+01  0.16471326691E+02  0.51100000000E-03 0. -1.
        -12    1    3    3    0    0  0.82973818268E+01 -0.16094195319E+01  0.60409782689E+01  0.10388945801E+02  0.00000000000E+00 0.  1.
</event>
<event>
 7    1  0.2575978E-011  0.5052886E+02  0.7816164E-02  0.1300439E+00
        -11   -1    0    0    0    0  0.00000000000E+00  0.00000000000E+00  0.45593999997E+02  0.45594000000E+02  0.51100000000E-03 0.  1.
         11   -1    0    0    0    0 -0.00000000000E+00 -0.00000000000E+00 -0.45593999997E+02  0.45594000000E+02  0.51100000000E-03 0. -1.
    9900012    2    1    2    0    0 -0.36370658196E+02  0.14510503445E+02 -0.10944680426E+02  0.50528861821E+02  0.30000005992E+02 0.  0.
         12    1    1    2    0    0  0.36370658196E+02 -0.14510503445E+02  0.10944680426E+02  0.40659138179E+02  0.00000000000E+00 0. -1.
         11    1    3    3    0    0 -0.76196090892E+01  0.10916484231E+02  0.38848365733E+01  0.13867949600E+02  0.51100000000E-03 0. -1.
        -11    1    3    3    0    0 -0.99959843196E+00  0.16018607053E+01  0.30509218963E+01  0.35879352590E+01  0.51100000000E-03 0.  1.
        -12    1    3    3    0    0 -0.27751450674E+02  0.19921585080E+01 -0.17880438895E+02  0.33072976962E+02  0.00000000000E+00 0.  1.
</event>
<event>
 7    1  0.2575978E-011  0.5052881E+02  0.7816164E-02  0.1300439E+00
        -11   -1    0    0    0    0  0.00000000000E+00  0.00000000000E+00  0.45593999997E+02  0.45594000000E+02  0.51100000000E-03 0.  1.
         11   -1    0    0    0    0 -0.00000000000E+00 -0.00000000000E+00 -0.45593999997E+02  0.45594000000E+02  0.51100000000E-03 0. -1.
    9900012    2    1    2    0    0 -0.14965027835E+02 -0.26019407352E+02  0.27426414565E+02  0.50528808752E+02  0.29999844682E+02 0.  0.
         12    1    1    2    0    0  0.14965027835E+02  0.26019407352E+02 -0.27426414565E+02  0.40659191248E+02  0.00000000000E+00 0. -1.
         11    1    3    3    0    0 -0.59353500249E+01 -0.62211353987E+01 -0.28667852768E+01  0.90636286139E+01  0.51100000000E-03 0. -1.
        -11    1    3    3    0    0 -0.69214864356E+01 -0.18601821909E+02  0.12387747000E+02  0.23396389225E+02  0.51100000000E-03 0.  1.
        -12    1    3    3    0    0 -0.21081913749E+01 -0.11964500447E+01  0.17905452842E+02  0.18068790913E+02  0.00000000000E+00 0.  1.
</event>
<event>
 7    1  0.2575978E-011  0.5052886E+02  0.7816164E-02  0.1300439E+00
        -11   -1    0    0    0    0  0.00000000000E+00  0.00000000000E+00  0.45593999997E+02  0.45594000000E+02  0.51100000000E-03 0. -1.
         11   -1    0    0    0    0 -0.00000000000E+00 -0.00000000000E+00 -0.45593999997E+02  0.45594000000E+02  0.51100000000E-03 0.  1.
    9900012    2    1    2    0    0  0.69374285105E+01  0.98157856978E+01 -0.38841834850E+02  0.50528859604E+02  0.29999999252E+02 0.  0.
         12    1    1    2    0    0 -0.69374285105E+01 -0.98157856978E+01  0.38841834850E+02  0.40659140396E+02  0.00000000000E+00 0. -1.
         11    1    3    3    0    0  0.80873652822E+01  0.81513946863E+01 -0.17777006610E+02  0.21163002547E+02  0.51100000000E-03 0. -1.
        -11    1    3    3    0    0  0.44831954190E+01  0.60871678556E+01 -0.20874623903E+02  0.22201409347E+02  0.51100000000E-03 0.  1.
         12    1    3    3    0    0 -0.56331321907E+01 -0.44227768441E+01 -0.19020433750E+00  0.71644477094E+01  0.00000000000E+00 0. -1.
</event>
<event>
 7    1  0.2575978E-011  0.5052886E+02  0.7816164E-02  0.1300439E+00
        -11   -1    0    0    0    0  0.00000000000E+00  0.00000000000E+00  0.45593999997E+02  0.45594000000E+02  0.51100000000E-03 0.  1.
         11   -1    0    0    0    0 -0.00000000000E+00 -0.00000000000E+00 -0.45593999997E+02  0.45594000000E+02  0.51100000000E-03 0. -1.
    9900012    2    1    2    0    0 -0.16153147893E+01  0.40591983596E+02 -0.16874487829E+01  0.50528857639E+02  0.29999993280E+02 0.  0.
         12    1    1    2    0    0  0.16153147893E+01 -0.40591983596E+02  0.16874487829E+01  0.40659142361E+02  0.00000000000E+00 0. -1.
         11    1    3    3    0    0 -0.82088346642E+01  0.50839595008E+01  0.91083872222E+00  0.96985173191E+01  0.51100000000E-03 0. -1.
        -11    1    3    3    0    0 -0.12621393061E+01  0.60928692332E+01  0.65551913109E+01  0.90380630947E+01  0.51100000000E-03 0.  1.
         12    1    3    3    0    0  0.78556591811E+01  0.29415154862E+02 -0.91534788159E+01  0.31792277225E+02  0.00000000000E+00 0. -1.
</event>
<event>
 7    1  0.2575978E-011  0.5052886E+02  0.7816164E-02  0.1300439E+00
        -11   -1    0    0    0    0  0.00000000000E+00  0.00000000000E+00  0.45593999997E+02  0.45594000000E+02  0.51100000000E-03 0.  1.
         11   -1    0    0    0    0 -0.00000000000E+00 -0.00000000000E+00 -0.45593999997E+02  0.45594000000E+02  0.51100000000E-03 0. -1.
    9900012    2    1    2    0    0  0.37759340802E+01 -0.88257233853E+01  0.39509675643E+02  0.50528861533E+02  0.30000005117E+02 0.  0.
         12    1    1    2    0    0 -0.37759340802E+01  0.88257233853E+01 -0.39509675643E+02  0.40659138467E+02  0.00000000000E+00 0. -1.
         11    1    3    3    0    0 -0.19906073885E+00  0.46718620222E+01 -0.55167663315E+00  0.47085313316E+01  0.51100000000E-03 0. -1.
        -11    1    3    3    0    0  0.39768661345E+01  0.26228033323E+01  0.17196193874E+02  0.17843868571E+02  0.51100000000E-03 0.  1.
        -12    1    3    3    0    0 -0.18713154112E-02 -0.16120388740E+02  0.22865158402E+02  0.27976461631E+02  0.00000000000E+00 0.  1.
</event>
<event>
 7    1  0.2575978E-011  0.5052886E+02  0.7816164E-02  0.1300439E+00
        -11   -1    0    0    0    0  0.00000000000E+00  0.00000000000E+00  0.45593999997E+02  0.45594000000E+02  0.51100000000E-03 0.  1.
         11   -1    0    0    0    0 -0.00000000000E+00 -0.00000000000E+00 -0.45593999997E+02  0.45594000000E+02  0.51100000000E-03 0. -1.
    9900012    2    1    2    0    0 -0.14324874449E+02  0.38042868662E+02 -0.83906191466E+00  0.50528857008E+02  0.29999991360E+02 0.  0.
         12    1    1    2    0    0  0.14324874449E+02 -0.38042868662E+02  0.83906191466E+00  0.40659142992E+02  0.00000000000E+00 0. -1.
         11    1    3    3    0    0  0.47346677394E+01  0.49719089787E+01  0.52962418354E+01  0.86710515703E+01  0.51100000000E-03 0. -1.
        -11    1    3    3    0    0  0.18162742769E+01  0.10437051777E+02 -0.21495030761E+01  0.10809776399E+02  0.51100000000E-03 0.  1.
        -12    1    3    3    0    0 -0.20875816466E+02  0.22633907905E+02 -0.39858006740E+01  0.31048029039E+02  0.00000000000E+00 0.  1.
</event>
<event>
 7    1  0.2575978E-011  0.5052880E+02  0.7816164E-02  0.1300439E+00
        -11   -1    0    0    0    0  0.00000000000E+00  0.00000000000E+00  0.45593999997E+02  0.45594000000E+02  0.51100000000E-03 0.  1.
         11   -1    0    0    0    0 -0.00000000000E+00 -0.00000000000E+00 -0.45593999997E+02  0.45594000000E+02  0.51100000000E-03 0. -1.
    9900012    2    1    2    0    0 -0.36765770522E+02 -0.26370879079E+01  0.17160843672E+02  0.50528798455E+02  0.29999813384E+02 0.  0.
         12    1    1    2    0    0  0.36765770522E+02  0.26370879079E+01 -0.17160843672E+02  0.40659201545E+02  0.00000000000E+00 0. -1.
         11    1    3    3    0    0 -0.31310885318E+01 -0.41841532095E+01  0.22461043418E+00  0.52308033401E+01  0.51100000000E-03 0. -1.
        -11    1    3    3    0    0 -0.22528965572E+01 -0.21529850487E+00 -0.59837976104E+01  0.63974784445E+01  0.51100000000E-03 0.  1.
        -12    1    3    3    0    0 -0.31381785433E+02  0.17623638065E+01  0.22920030848E+02  0.38900516671E+02  0.00000000000E+00 0.  1.
</event>
<event>
 7    1  0.2575978E-011  0.5052888E+02  0.7816164E-02  0.1300439E+00
        -11   -1    0    0    0    0  0.00000000000E+00  0.00000000000E+00  0.45593999997E+02  0.45594000000E+02  0.51100000000E-03 0.  1.
         11   -1    0    0    0    0 -0.00000000000E+00 -0.00000000000E+00 -0.45593999997E+02  0.45594000000E+02  0.51100000000E-03 0. -1.
    9900012    2    1    2    0    0  0.12370808390E+02 -0.78079797451E+01  0.37936292486E+02  0.50528883735E+02  0.30000072600E+02 0.  0.
         12    1    1    2    0    0 -0.12370808390E+02  0.78079797451E+01 -0.37936292486E+02  0.40659116265E+02  0.00000000000E+00 0. -1.
         11    1    3    3    0    0  0.35020855626E+01  0.83271015723E+00  0.10985855776E+02  0.11560581165E+02  0.51100000000E-03 0. -1.
        -11    1    3    3    0    0  0.12244184151E+02  0.56336139531E+01  0.12860597467E+02  0.18629348329E+02  0.51100000000E-03 0.  1.
         12    1    3    3    0    0 -0.33754613239E+01 -0.14274303855E+02  0.14089839242E+02  0.20338954240E+02  0.00000000000E+00 0. -1.
</event>
<event>
 7    1  0.2575978E-011  0.5052886E+02  0.7816164E-02  0.1300439E+00
        -11   -1    0    0    0    0  0.00000000000E+00  0.00000000000E+00  0.45593999997E+02  0.45594000000E+02  0.51100000000E-03 0. -1.
         11   -1    0    0    0    0 -0.00000000000E+00 -0.00000000000E+00 -0.45593999997E+02  0.45594000000E+02  0.51100000000E-03 0.  1.
    9900012    2    1    2    0    0 -0.14891899787E+02 -0.24130014608E+02  0.29139991738E+02  0.50528863232E+02  0.30000010280E+02 0.  0.
         12    1    1    2    0    0  0.14891899787E+02  0.24130014608E+02 -0.29139991738E+02  0.40659136768E+02  0.00000000000E+00 0. -1.
         11    1    3    3    0    0  0.32771733860E+01 -0.20140529542E+01  0.12922215622E+01  0.40578456761E+01  0.51100000000E-03 0. -1.
        -11    1    3    3    0    0 -0.22260744319E+02 -0.20640263764E+02  0.17021466767E+02  0.34803614137E+02  0.51100000000E-03 0.  1.
         12    1    3    3    0    0  0.40916711462E+01 -0.14756978905E+01  0.10826303409E+02  0.11667403418E+02  0.00000000000E+00 0. -1.
</event>
<event>
 7    1  0.2575978E-011  0.5052883E+02  0.7816164E-02  0.1300439E+00
        -11   -1    0    0    0    0  0.00000000000E+00  0.00000000000E+00  0.45593999997E+02  0.45594000000E+02  0.51100000000E-03 0.  1.
         11   -1    0    0    0    0 -0.00000000000E+00 -0.00000000000E+00 -0.45593999997E+02  0.45594000000E+02  0.51100000000E-03 0. -1.
    9900012    2    1    2    0    0 -0.28742977906E+02  0.18447012753E+02  0.22061660638E+02  0.50528832171E+02  0.29999915868E+02 0.  0.
         12    1    1    2    0    0  0.28742977906E+02 -0.18447012753E+02 -0.22061660638E+02  0.40659167829E+02  0.00000000000E+00 0. -1.
         11    1    3    3    0    0 -0.14901724200E+02  0.36555409806E+01  0.14665087498E+02  0.21224729812E+02  0.51100000000E-03 0. -1.
        -11    1    3    3    0    0 -0.13224783085E+02  0.16038087925E+02  0.12336335817E+02  0.24172305094E+02  0.51100000000E-03 0.  1.
         12    1    3    3    0    0 -0.61647062052E+00 -0.12466161522E+01 -0.49397626776E+01  0.51317972649E+01  0.00000000000E+00 0. -1.
</event>
<event>
 7    1  0.2575978E-011  0.5052885E+02  0.7816164E-02  0.1300439E+00
        -11   -1    0    0    0    0  0.00000000000E+00  0.00000000000E+00  0.45593999997E+02  0.45594000000E+02  0.51100000000E-03 0.  1.
         11   -1    0    0    0    0 -0.00000000000E+00 -0.00000000000E+00 -0.45593999997E+02  0.45594000000E+02  0.51100000000E-03 0. -1.
    9900012    2    1    2    0    0 -0.30176057441E+02  0.71257101782E+01  0.26302021358E+02  0.50528849544E+02  0.29999968675E+02 0.  0.
         12    1    1    2    0    0  0.30176057441E+02 -0.71257101782E+01 -0.26302021358E+02  0.40659150456E+02  0.00000000000E+00 0. -1.
         11    1    3    3    0    0 -0.11440688194E+02 -0.77313805375E+01  0.15628015727E+02  0.20854219410E+02  0.51100000000E-03 0. -1.
        -11    1    3    3    0    0 -0.14148764206E+02  0.51306836904E+01  0.11423932895E+02  0.18894911663E+02  0.51100000000E-03 0.  1.
        -12    1    3    3    0    0 -0.45866050412E+01  0.97264070253E+01 -0.74992726445E+00  0.10779718472E+02  0.00000000000E+00 0.  1.
</event>
<event>
 7    1  0.2575978E-011  0.5052886E+02  0.7816164E-02  0.1300439E+00
        -11   -1    0    0    0    0  0.00000000000E+00  0.00000000000E+00  0.45593999997E+02  0.45594000000E+02  0.51100000000E-03 0. -1.
         11   -1    0    0    0    0 -0.00000000000E+00 -0.00000000000E+00 -0.45593999997E+02  0.45594000000E+02  0.51100000000E-03 0.  1.
    9900012    2    1    2    0    0 -0.24357426447E+02  0.30097695536E+02 -0.12410089654E+02  0.50528858040E+02  0.29999994498E+02 0.  0.
         12    1    1    2    0    0  0.24357426447E+02 -0.30097695536E+02  0.12410089654E+02  0.40659141960E+02  0.00000000000E+00 0. -1.
         11    1    3    3    0    0 -0.11501243284E+02  0.22648325375E+02 -0.77975063584E+00  0.25413249511E+02  0.51100000000E-03 0. -1.
        -11    1    3    3    0    0 -0.61307935429E+01  0.12058748970E+02 -0.44204007858E+01  0.14231654842E+02  0.51100000000E-03 0.  1.
         12    1    3    3    0    0 -0.67253896206E+01 -0.46093788087E+01 -0.72099382319E+01  0.10883953687E+02  0.00000000000E+00 0. -1.
</event>
<event>
 7    1  0.2575978E-011  0.5052886E+02  0.7816164E-02  0.1300439E+00
        -11   -1    0    0    0    0  0.00000000000E+00  0.00000000000E+00  0.45593999997E+02  0.45594000000E+02  0.51100000000E-03 0.  1.
         11   -1    0    0    0    0 -0.00000000000E+00 -0.00000000000E+00 -0.45593999997E+02  0.45594000000E+02  0.51100000000E-03 0. -1.
    9900012    2    1    2    0    0 -0.15029147676E+02  0.24794065779E+02  0.28505163237E+02  0.50528864386E+02  0.30000013787E+02 0.  0.
         12    1    1    2    0    0  0.15029147676E+02 -0.24794065779E+02 -0.28505163237E+02  0.40659135614E+02  0.00000000000E+00 0. -1.
         11    1    3    3    0    0 -0.63724616336E+01 -0.29693284464E+01  0.24425911096E+01  0.74425419236E+01  0.51100000000E-03 0. -1.
        -11    1    3    3    0    0 -0.34690927439E+01 -0.16071606844E+01  0.60925852396E+01  0.71928551420E+01  0.51100000000E-03 0.  1.
        -12    1    3    3    0    0 -0.51875932983E+01  0.29370554910E+02  0.19969986888E+02  0.35893467320E+02  0.00000000000E+00 0.  1.
</event>
<event>
 7    1  0.2575978E-011  0.5052886E+02  0.7816164E-02  0.1300439E+00
        -11   -1    0    0    0    0  0.00000000000E+00  0.00000000000E+00  0.45593999997E+02  0.45594000000E+02  0.51100000000E-03 0. -1.
         11   -1    0    0    0    0 -0.00000000000E+00 -0.00000000000E+00 -0.45593999997E+02  0.45594000000E+02  0.51100000000E-03 0.  1.
    9900012    2    1    2    0    0 -0.30286241094E+02  0.15860258913E+01 -0.27081240349E+02  0.50528862569E+02  0.30000008266E+02 0.  0.
         12    1    1    2    0    0  0.30286241094E+02 -0.15860258913E+01  0.27081240349E+02  0.40659137431E+02  0.00000000000E+00 0. -1.
         11    1    3    3    0    0 -0.44066048825E+01  0.39419546010E+01 -0.69566129331E+01  0.91297117385E+01  0.51100000000E-03 0. -1.
        -11    1    3    3    0    0 -0.47342867925E+01  0.83321018728E+01 -0.13932882260E+02  0.16910428776E+02  0.51100000000E-03 0.  1.
        -12    1    3    3    0    0 -0.21145349419E+02 -0.10688030582E+02 -0.61917451560E+01  0.24488722055E+02  0.00000000000E+00 0.  1.
</event>
<event>
 7    1  0.2575978E-011  0.5052886E+02  0.7816164E-02  0.1300439E+00
        -11   -1    0    0    0    0  0.00000000000E+00  0.00000000000E+00  0.45593999997E+02  0.45594000000E+02  0.51100000000E-03 0.  1.
         11   -1    0    0    0    0 -0.00000000000E+00 -0.00000000000E+00 -0.45593999997E+02  0.45594000000E+02  0.51100000000E-03 0. -1.
    9900012    2    1    2    0    0  0.62620846381E+01  0.76928683199E+01  0.39430593718E+02  0.50528860216E+02  0.30000001112E+02 0.  0.
         12    1    1    2    0    0 -0.62620846381E+01 -0.76928683199E+01 -0.39430593718E+02  0.40659139784E+02  0.00000000000E+00 0. -1.
         11    1    3    3    0    0  0.46133124299E+01 -0.35677797203E+01  0.97503307565E+00  0.59129005968E+01  0.51100000000E-03 0. -1.
        -11    1    3    3    0    0  0.38537086311E+01 -0.45688804238E+01  0.15779362950E+02  0.16873471306E+02  0.51100000000E-03 0.  1.
         12    1    3    3    0    0 -0.22049364229E+01  0.15829528464E+02  0.22676197693E+02  0.27742488313E+02  0.00000000000E+00 0. -1.
</event>
<event>
 7    1  0.2575978E-011  0.5052888E+02  0.7816164E-02  0.1300439E+00
        -11   -1    0    0    0    0  0.00000000000E+00  0.00000000000E+00  0.45593999997E+02  0.45594000000E+02  0.51100000000E-03 0.  1.
         11   -1    0    0    0    0 -0.00000000000E+00 -0.00000000000E+00 -0.45593999997E+02  0.45594000000E+02  0.51100000000E-03 0. -1.
    9900012    2    1    2    0    0  0.32768068735E+02 -0.23912398039E+02 -0.27595781303E+01  0.50528875808E+02  0.30000048506E+02 0.  0.
         12    1    1    2    0    0 -0.32768068735E+02  0.23912398039E+02  0.27595781303E+01  0.40659124192E+02  0.00000000000E+00 0. -1.
         11    1    3    3    0    0  0.30637896291E+01 -0.78139892941E+00 -0.18368166442E+01  0.36566770193E+01  0.51100000000E-03 0. -1.
        -11    1    3    3    0    0  0.14302981478E+02  0.45772167773E+01 -0.20174361531E+01  0.15152433517E+02  0.51100000000E-03 0.  1.
         12    1    3    3    0    0  0.15401297628E+02 -0.27708215887E+02  0.10946746670E+01  0.31719765272E+02  0.00000000000E+00 0. -1.
</event>
<event>
 7    1  0.2575978E-011  0.5052886E+02  0.7816164E-02  0.1300439E+00
        -11   -1    0    0    0    0  0.00000000000E+00  0.00000000000E+00  0.45593999997E+02  0.45594000000E+02  0.51100000000E-03 0.  1.
         11   -1    0    0    0    0 -0.00000000000E+00 -0.00000000000E+00 -0.45593999997E+02  0.45594000000E+02  0.51100000000E-03 0. -1.
    9900012    2    1    2    0    0 -0.14870003583E+02 -0.35871563189E+02  0.12053184725E+02  0.50528864321E+02  0.30000013591E+02 0.  0.
         12    1    1    2    0    0  0.14870003583E+02  0.35871563189E+02 -0.12053184725E+02  0.40659135679E+02  0.00000000000E+00 0. -1.
         11    1    3    3    0    0 -0.13722396281E+02 -0.19568143303E+02  0.61352543974E+01  0.24675042833E+02  0.51100000000E-03 0. -1.
        -11    1    3    3    0    0 -0.98610818477E+01 -0.11625227531E+02  0.29384600308E+01  0.15524863863E+02  0.51100000000E-03 0.  1.
         12    1    3    3    0    0  0.87134745462E+01 -0.46781923546E+01  0.29794702965E+01  0.10328957625E+02  0.00000000000E+00 0. -1.
</event>
<event>
 7    1  0.2575978E-011  0.5052886E+02  0.7816164E-02  0.1300439E+00
        -11   -1    0    0    0    0  0.00000000000E+00  0.00000000000E+00  0.45593999997E+02  0.45594000000E+02  0.51100000000E-03 0. -1.
         11   -1    0    0    0    0 -0.00000000000E+00 -0.00000000000E+00 -0.45593999997E+02  0.45594000000E+02  0.51100000000E-03 0.  1.
    9900012    2    1    2    0    0 -0.40320372225E+02 -0.51835653961E+01 -0.75072390066E+00  0.50528863844E+02  0.30000012139E+02 0.  0.
         12    1    1    2    0    0  0.40320372225E+02  0.51835653961E+01  0.75072390066E+00  0.40659136156E+02  0.00000000000E+00 0. -1.
         11    1    3    3    0    0 -0.35232736021E+02 -0.33376173287E+01  0.86627424109E+00  0.35401070723E+02  0.51100000000E-03 0. -1.
        -11    1    3    3    0    0 -0.61925071143E+01 -0.46342188968E+01 -0.60194117195E+01  0.98008390893E+01  0.51100000000E-03 0.  1.
         12    1    3    3    0    0  0.11048709105E+01  0.27882708293E+01  0.44024135778E+01  0.53269540318E+01  0.00000000000E+00 0. -1.
</event>
<event>
 7    1  0.2575978E-011  0.5052889E+02  0.7816164E-02  0.1300439E+00
        -11   -1    0    0    0    0  0.00000000000E+00  0.00000000000E+00  0.45593999997E+02  0.45594000000E+02  0.51100000000E-03 0.  1.
         11   -1    0    0    0    0 -0.00000000000E+00 -0.00000000000E+00 -0.45593999997E+02  0.45594000000E+02  0.51100000000E-03 0. -1.
    9900012    2    1    2    0    0  0.57793046441E+01  0.36815696598E+02  0.16259384182E+02  0.50528887218E+02  0.30000083189E+02 0.  0.
         12    1    1    2    0    0 -0.57793046441E+01 -0.36815696598E+02 -0.16259384182E+02  0.40659112782E+02  0.00000000000E+00 0. -1.
         11    1    3    3    0    0 -0.19329836751E+01  0.63731392377E+01 -0.23485720644E+01  0.70618071790E+01  0.51100000000E-03 0. -1.
        -11    1    3    3    0    0 -0.25959960183E+00  0.18588910390E+02  0.21981772354E+02  0.28789117693E+02  0.51100000000E-03 0.  1.
         12    1    3    3    0    0  0.79718879210E+01  0.11853646971E+02 -0.33738161068E+01  0.14677962347E+02  0.00000000000E+00 0. -1.
</event>
<event>
 7    1  0.2575978E-011  0.5052886E+02  0.7816164E-02  0.1300439E+00
        -11   -1    0    0    0    0  0.00000000000E+00  0.00000000000E+00  0.45593999997E+02  0.45594000000E+02  0.51100000000E-03 0. -1.
         11   -1    0    0    0    0 -0.00000000000E+00 -0.00000000000E+00 -0.45593999997E+02  0.45594000000E+02  0.51100000000E-03 0.  1.
    9900012    2    1    2    0    0 -0.36871668436E+02  0.10032350987E+02  0.13892372833E+02  0.50528855610E+02  0.29999987113E+02 0.  0.
         12    1    1    2    0    0  0.36871668436E+02 -0.10032350987E+02 -0.13892372833E+02  0.40659144390E+02  0.00000000000E+00 0. -1.
         11    1    3    3    0    0 -0.14394153507E+02  0.10673566582E+02  0.51171366334E+01  0.18636034083E+02  0.51100000000E-03 0. -1.
        -11    1    3    3    0    0 -0.20756096798E+02 -0.54509719014E+00  0.14883015788E+02  0.25546366561E+02  0.51100000000E-03 0.  1.
        -12    1    3    3    0    0 -0.17214181307E+01 -0.96118405181E-01 -0.61077795890E+01  0.63464549661E+01  0.00000000000E+00 0.  1.
</event>
<event>
 7    1  0.2575978E-011  0.5052886E+02  0.7816164E-02  0.1300439E+00
        -11   -1    0    0    0    0  0.00000000000E+00  0.00000000000E+00  0.45593999997E+02  0.45594000000E+02  0.51100000000E-03 0.  1.
         11   -1    0    0    0    0 -0.00000000000E+00 -0.00000000000E+00 -0.45593999997E+02  0.45594000000E+02  0.51100000000E-03 0. -1.
    9900012    2    1    2    0    0 -0.84890285010E+01  0.48595155275E+01  0.39465014248E+02  0.50528857785E+02  0.29999993723E+02 0.  0.
         12    1    1    2    0    0  0.84890285010E+01 -0.48595155275E+01 -0.39465014248E+02  0.40659142215E+02  0.00000000000E+00 0. -1.
         11    1    3    3    0    0  0.50044130526E+01  0.24472402838E+01 -0.11971843069E+01  0.56979281790E+01  0.51100000000E-03 0. -1.
        -11    1    3    3    0    0 -0.59310587335E+01  0.19846468091E+01  0.40676342180E+01  0.74606922635E+01  0.51100000000E-03 0.  1.
        -12    1    3    3    0    0 -0.75623828201E+01  0.42762843467E+00  0.36594564337E+02  0.37370237342E+02  0.00000000000E+00 0.  1.
</event>
<event>
 7    1  0.2575978E-011  0.5052887E+02  0.7816164E-02  0.1300439E+00
        -11   -1    0    0    0    0  0.00000000000E+00  0.00000000000E+00  0.45593999997E+02  0.45594000000E+02  0.51100000000E-03 0.  1.
         11   -1    0    0    0    0 -0.00000000000E+00 -0.00000000000E+00 -0.45593999997E+02  0.45594000000E+02  0.51100000000E-03 0. -1.
    9900012    2    1    2    0    0  0.71753170986E+01  0.44233646086E+01  0.39775794653E+02  0.50528866092E+02  0.30000018972E+02 0.  0.
         12    1    1    2    0    0 -0.71753170986E+01 -0.44233646086E+01 -0.39775794653E+02  0.40659133908E+02  0.00000000000E+00 0. -1.
         11    1    3    3    0    0  0.95680081901E+01 -0.66311275685E+01  0.24921064371E+02  0.27505964502E+02  0.51100000000E-03 0. -1.
        -11    1    3    3    0    0  0.58413932010E+00  0.17066076912E+01  0.12892609319E+02  0.13018183586E+02  0.51100000000E-03 0.  1.
         12    1    3    3    0    0 -0.29768304116E+01  0.93478844859E+01  0.19621209629E+01  0.10004718004E+02  0.00000000000E+00 0. -1.
</event>
<event>
 7    1  0.2575978E-011  0.5052887E+02  0.7816164E-02  0.1300439E+00
        -11   -1    0    0    0    0  0.00000000000E+00  0.00000000000E+00  0.45593999997E+02  0.45594000000E+02  0.51100000000E-03 0.  1.
         11   -1    0    0    0    0 -0.00000000000E+00 -0.00000000000E+00 -0.45593999997E+02  0.45594000000E+02  0.51100000000E-03 0. -1.
    9900012    2    1    2    0    0 -0.25769324268E+02  0.22484222920E+02  0.21990139689E+02  0.50528873140E+02  0.30000040395E+02 0.  0.
         12    1    1    2    0    0  0.25769324268E+02 -0.22484222920E+02 -0.21990139689E+02  0.40659126860E+02  0.00000000000E+00 0. -1.
         11    1    3    3    0    0 -0.85562233055E+01 -0.32482084200E+01  0.72794479650E+01  0.11694023180E+02  0.51100000000E-03 0. -1.
        -11    1    3    3    0    0 -0.13657637785E+02  0.44799690182E+01  0.65122436969E+01  0.15780066873E+02  0.51100000000E-03 0.  1.
         12    1    3    3    0    0 -0.35554631769E+01  0.21252462322E+02  0.81984480268E+01  0.23054783087E+02  0.00000000000E+00 0. -1.
</event>
<event>
 7    1  0.2575978E-011  0.5052887E+02  0.7816164E-02  0.1300439E+00
        -11   -1    0    0    0    0  0.00000000000E+00  0.00000000000E+00  0.45593999997E+02  0.45594000000E+02  0.51100000000E-03 0.  1.
         11   -1    0    0    0    0 -0.00000000000E+00 -0.00000000000E+00 -0.45593999997E+02  0.45594000000E+02  0.51100000000E-03 0. -1.
    9900012    2    1    2    0    0 -0.23445275969E+02 -0.32314915631E+02 -0.76961341656E+01  0.50528865496E+02  0.30000017163E+02 0.  0.
         12    1    1    2    0    0  0.23445275969E+02  0.32314915631E+02  0.76961341656E+01  0.40659134504E+02  0.00000000000E+00 0. -1.
         11    1    3    3    0    0 -0.32227933033E+01 -0.24893450449E+01  0.44355427652E+01  0.60214014408E+01  0.51100000000E-03 0. -1.
        -11    1    3    3    0    0 -0.28009864515E+01 -0.15111618030E+02  0.48045060305E+01  0.16102478165E+02  0.51100000000E-03 0.  1.
         12    1    3    3    0    0 -0.17421496214E+02 -0.14713952556E+02 -0.16936182961E+02  0.28404985891E+02  0.00000000000E+00 0. -1.
</event>
<event>
 7    1  0.2575978E-011  0.5052886E+02  0.7816164E-02  0.1300439E+00
        -11   -1    0    0    0    0  0.00000000000E+00  0.00000000000E+00  0.45593999997E+02  0.45594000000E+02  0.51100000000E-03 0.  1.
         11   -1    0    0    0    0 -0.00000000000E+00 -0.00000000000E+00 -0.45593999997E+02  0.45594000000E+02  0.51100000000E-03 0. -1.
    9900012    2    1    2    0    0  0.12896313431E+02 -0.31259142636E+02  0.22576916547E+02  0.50528855159E+02  0.29999985741E+02 0.  0.
         12    1    1    2    0    0 -0.12896313431E+02  0.31259142636E+02 -0.22576916547E+02  0.40659144841E+02  0.00000000000E+00 0. -1.
         11    1    3    3    0    0  0.82543819748E+01 -0.76400868763E+01  0.12065134752E+01  0.11312003549E+02  0.51100000000E-03 0. -1.
        -11    1    3    3    0    0  0.10006966372E+02 -0.18151663145E+01  0.44503124266E+01  0.11101328104E+02  0.51100000000E-03 0.  1.
        -12    1    3    3    0    0 -0.53650349161E+01 -0.21803889445E+02  0.16920090645E+02  0.28115523506E+02  0.00000000000E+00 0.  1.
</event>
<event>
 7    1  0.2575978E-011  0.5052886E+02  0.7816164E-02  0.1300439E+00
        -11   -1    0    0    0    0  0.00000000000E+00  0.00000000000E+00  0.45593999997E+02  0.45594000000E+02  0.51100000000E-03 0.  1.
         11   -1    0    0    0    0 -0.00000000000E+00 -0.00000000000E+00 -0.45593999997E+02  0.45594000000E+02  0.51100000000E-03 0. -1.
    9900012    2    1    2    0    0 -0.26179998541E+02 -0.30973961943E+01  0.30954478133E+02  0.50528857077E+02  0.29999991571E+02 0.  0.
         12    1    1    2    0    0  0.26179998541E+02  0.30973961943E+01 -0.30954478133E+02  0.40659142923E+02  0.00000000000E+00 0. -1.
         11    1    3    3    0    0 -0.64477950813E+01 -0.10660712062E+02  0.12220077280E+02  0.17451508017E+02  0.51100000000E-03 0. -1.
        -11    1    3    3    0    0 -0.57913215860E+01 -0.22138819327E+01  0.14141773297E+02  0.15441192673E+02  0.51100000000E-03 0.  1.
        -12    1    3    3    0    0 -0.13940881873E+02  0.97771978001E+01  0.45926275555E+01  0.17636156387E+02  0.00000000000E+00 0.  1.
</event>
<event>
 7    1  0.2575978E-011  0.5052885E+02  0.7816164E-02  0.1300439E+00
        -11   -1    0    0    0    0  0.00000000000E+00  0.00000000000E+00  0.45593999997E+02  0.45594000000E+02  0.51100000000E-03 0.  1.
         11   -1    0    0    0    0 -0.00000000000E+00 -0.00000000000E+00 -0.45593999997E+02  0.45594000000E+02  0.51100000000E-03 0. -1.
    9900012    2    1    2    0    0 -0.89855926571E+01 -0.36279101862E+02 -0.16007875126E+02  0.50528853755E+02  0.29999981474E+02 0.  0.
         12    1    1    2    0    0  0.89855926571E+01  0.36279101862E+02  0.16007875126E+02  0.40659146245E+02  0.00000000000E+00 0. -1.
         11    1    3    3    0    0 -0.19505118296E+01 -0.28516948435E+01 -0.13798674160E+01  0.37203083508E+01  0.51100000000E-03 0. -1.
        -11    1    3    3    0    0 -0.97336779331E+01 -0.14130247679E+01  0.28419160380E+01  0.10238047281E+02  0.51100000000E-03 0.  1.
         12    1    3    3    0    0  0.26985971056E+01 -0.32014382251E+02 -0.17469923748E+02  0.36570498123E+02  0.00000000000E+00 0. -1.
</event>
<event>
 7    1  0.2610499E-011  0.5052886E+02  0.7816164E-02  0.1300439E+00
        -11   -1    0    0    0    0  0.00000000000E+00  0.00000000000E+00  0.45593999997E+02  0.45594000000E+02  0.51100000000E-03 0. -1.
         11   -1    0    0    0    0 -0.00000000000E+00 -0.00000000000E+00 -0.45593999997E+02  0.45594000000E+02  0.51100000000E-03 0.  1.
    9900012    2    1    2    0    0 -0.85392799703E+01 -0.27464029235E+02 -0.28739757590E+02  0.50528857479E+02  0.29999992793E+02 0.  0.
         12    1    1    2    0    0  0.85392799703E+01  0.27464029235E+02  0.28739757590E+02  0.40659142521E+02  0.00000000000E+00 0. -1.
         11    1    3    3    0    0  0.38979761021E+01  0.10747545849E+00 -0.32501334344E+01  0.50763309850E+01  0.51100000000E-03 0. -1.
        -11    1    3    3    0    0 -0.90224041188E+01 -0.28368962407E+01  0.42312505172E+00  0.94673539828E+01  0.51100000000E-03 0.  1.
        -12    1    3    3    0    0 -0.34148519536E+01 -0.24734608453E+02 -0.25912749207E+02  0.35985172511E+02  0.00000000000E+00 0.  1.
</event>
<event>
 7    1  0.2575978E-011  0.5052887E+02  0.7816164E-02  0.1300439E+00
        -11   -1    0    0    0    0  0.00000000000E+00  0.00000000000E+00  0.45593999997E+02  0.45594000000E+02  0.51100000000E-03 0. -1.
         11   -1    0    0    0    0 -0.00000000000E+00 -0.00000000000E+00 -0.45593999997E+02  0.45594000000E+02  0.51100000000E-03 0.  1.
    9900012    2    1    2    0    0  0.36929474997E+01 -0.28627818418E+02 -0.28635206418E+02  0.50528869473E+02  0.30000029249E+02 0.  0.
         12    1    1    2    0    0 -0.36929474997E+01  0.28627818418E+02  0.28635206418E+02  0.40659130527E+02  0.00000000000E+00 0. -1.
         11    1    3    3    0    0 -0.17723378071E+01 -0.15688769555E+01 -0.26317272700E+01  0.35395684608E+01  0.51100000000E-03 0. -1.
        -11    1    3    3    0    0 -0.42526467277E+01 -0.38884091302E+01 -0.20464220940E+02  0.21260034542E+02  0.51100000000E-03 0.  1.
         12    1    3    3    0    0  0.97179320345E+01 -0.23170532333E+02 -0.55392582078E+01  0.25729266470E+02  0.00000000000E+00 0. -1.
</event>
<event>
 7    1  0.2575978E-011  0.5052885E+02  0.7816164E-02  0.1300439E+00
        -11   -1    0    0    0    0  0.00000000000E+00  0.00000000000E+00  0.45593999997E+02  0.45594000000E+02  0.51100000000E-03 0.  1.
         11   -1    0    0    0    0 -0.00000000000E+00 -0.00000000000E+00 -0.45593999997E+02  0.45594000000E+02  0.51100000000E-03 0. -1.
    9900012    2    1    2    0    0 -0.37151302741E+01 -0.27631112427E+00  0.40488122387E+02  0.50528848568E+02  0.29999965706E+02 0.  0.
         12    1    1    2    0    0  0.37151302741E+01  0.27631112427E+00 -0.40488122387E+02  0.40659151432E+02  0.00000000000E+00 0. -1.
         11    1    3    3    0    0 -0.29121066920E+01  0.31781740019E+01  0.14614502877E+02  0.15236956716E+02  0.51100000000E-03 0. -1.
        -11    1    3    3    0    0 -0.64846906983E+00  0.99147451310E+01  0.69657168760E+01  0.12134409545E+02  0.51100000000E-03 0.  1.
         12    1    3    3    0    0 -0.15455451229E+00 -0.13369230257E+02  0.18907902634E+02  0.23157482307E+02  0.00000000000E+00 0. -1.
</event>
<event>
 7    1  0.2575978E-011  0.5052886E+02  0.7816164E-02  0.1300439E+00
        -11   -1    0    0    0    0  0.00000000000E+00  0.00000000000E+00  0.45593999997E+02  0.45594000000E+02  0.51100000000E-03 0. -1.
         11   -1    0    0    0    0 -0.00000000000E+00 -0.00000000000E+00 -0.45593999997E+02  0.45594000000E+02  0.51100000000E-03 0.  1.
    9900012    2    1    2    0    0 -0.48299407416E+01 -0.36636615220E+02 -0.16958647136E+02  0.50528860621E+02  0.30000002345E+02 0.  0.
         12    1    1    2    0    0  0.48299407416E+01  0.36636615220E+02  0.16958647136E+02  0.40659139379E+02  0.00000000000E+00 0. -1.
         11    1    3    3    0    0  0.24609824782E+01 -0.48085619628E+01  0.46873685339E+01  0.71519316930E+01  0.51100000000E-03 0. -1.
        -11    1    3    3    0    0 -0.92525753497E+01 -0.16999849330E+02 -0.31817407413E+01  0.19614497247E+02  0.51100000000E-03 0.  1.
         12    1    3    3    0    0  0.19616521300E+01 -0.14828203927E+02 -0.18464274929E+02  0.23762431682E+02  0.00000000000E+00 0. -1.
</event>
<event>
 7    1  0.2575978E-011  0.5052885E+02  0.7816164E-02  0.1300439E+00
        -11   -1    0    0    0    0  0.00000000000E+00  0.00000000000E+00  0.45593999997E+02  0.45594000000E+02  0.51100000000E-03 0.  1.
         11   -1    0    0    0    0 -0.00000000000E+00 -0.00000000000E+00 -0.45593999997E+02  0.45594000000E+02  0.51100000000E-03 0. -1.
    9900012    2    1    2    0    0  0.37766191620E+02 -0.77087820370E+01  0.12940462745E+02  0.50528854338E+02  0.29999983245E+02 0.  0.
         12    1    1    2    0    0 -0.37766191620E+02  0.77087820370E+01 -0.12940462745E+02  0.40659145662E+02  0.00000000000E+00 0. -1.
         11    1    3    3    0    0 -0.33178685567E+01 -0.15037219803E+01 -0.90930429166E+00  0.37544994486E+01  0.51100000000E-03 0. -1.
        -11    1    3    3    0    0  0.15150149548E+02  0.39181280947E+01  0.10240966187E+02  0.18701768574E+02  0.51100000000E-03 0.  1.
         12    1    3    3    0    0  0.25933910629E+02 -0.10123188151E+02  0.36088008495E+01  0.28072586315E+02  0.00000000000E+00 0. -1.
</event>
<event>
 7    1  0.2575978E-011  0.5052889E+02  0.7816164E-02  0.1300439E+00
        -11   -1    0    0    0    0  0.00000000000E+00  0.00000000000E+00  0.45593999997E+02  0.45594000000E+02  0.51100000000E-03 0. -1.
         11   -1    0    0    0    0 -0.00000000000E+00 -0.00000000000E+00 -0.45593999997E+02  0.45594000000E+02  0.51100000000E-03 0.  1.
    9900012    2    1    2    0    0 -0.92347690582E+01 -0.17972582962E+02 -0.35282690571E+02  0.50528893372E+02  0.30000101892E+02 0.  0.
         12    1    1    2    0    0  0.92347690582E+01  0.17972582962E+02  0.35282690571E+02  0.40659106628E+02  0.00000000000E+00 0. -1.
         11    1    3    3    0    0 -0.90731885291E+00  0.14059418594E+00 -0.16949195594E+02  0.16974045652E+02  0.51100000000E-03 0.  1.
        -11    1    3    3    0    0 -0.10384138871E+02 -0.16801642283E+02 -0.21735102822E+02  0.29369035027E+02  0.51100000000E-03 0. -1.
         12    1    3    3    0    0  0.20566886655E+01 -0.13115348649E+01  0.34016078450E+01  0.41858126928E+01  0.00000000000E+00 0. -1.
</event>
<event>
 7    1  0.2575978E-011  0.5052886E+02  0.7816164E-02  0.1300439E+00
        -11   -1    0    0    0    0  0.00000000000E+00  0.00000000000E+00  0.45593999997E+02  0.45594000000E+02  0.51100000000E-03 0.  1.
         11   -1    0    0    0    0 -0.00000000000E+00 -0.00000000000E+00 -0.45593999997E+02  0.45594000000E+02  0.51100000000E-03 0. -1.
    9900012    2    1    2    0    0  0.37687033209E+02  0.92166552800E+01  0.12161681049E+02  0.50528859668E+02  0.29999999446E+02 0.  0.
         12    1    1    2    0    0 -0.37687033209E+02 -0.92166552800E+01 -0.12161681049E+02  0.40659140332E+02  0.00000000000E+00 0. -1.
         11    1    3    3    0    0  0.14183372432E+02  0.48650345932E+01 -0.28177108581E+01  0.15257001995E+02  0.51100000000E-03 0. -1.
        -11    1    3    3    0    0  0.23120618814E+02 -0.71061286209E+00  0.44123894969E+01  0.23548612833E+02  0.51100000000E-03 0.  1.
         12    1    3    3    0    0  0.38304196213E+00  0.50622335490E+01  0.10567002410E+02  0.11723244840E+02  0.00000000000E+00 0. -1.
</event>
<event>
 7    1  0.2575978E-011  0.5052886E+02  0.7816164E-02  0.1300439E+00
        -11   -1    0    0    0    0  0.00000000000E+00  0.00000000000E+00  0.45593999997E+02  0.45594000000E+02  0.51100000000E-03 0.  1.
         11   -1    0    0    0    0 -0.00000000000E+00 -0.00000000000E+00 -0.45593999997E+02  0.45594000000E+02  0.51100000000E-03 0. -1.
    9900012    2    1    2    0    0  0.32048566019E+01  0.26445916223E+02  0.30716580786E+02  0.50528856798E+02  0.29999990723E+02 0.  0.
         12    1    1    2    0    0 -0.32048566019E+01 -0.26445916223E+02 -0.30716580786E+02  0.40659143202E+02  0.00000000000E+00 0. -1.
         11    1    3    3    0    0  0.85789882964E+00  0.31546903732E+02  0.23962810616E+02  0.39625237139E+02  0.51100000000E-03 0.  1.
        -11    1    3    3    0    0 -0.22304470204E+01 -0.21096190419E+01  0.20595043957E+01  0.36968831507E+01  0.51100000000E-03 0. -1.
        -12    1    3    3    0    0  0.45774047927E+01 -0.29913684665E+01  0.46942657745E+01  0.72067365083E+01  0.00000000000E+00 0.  1.
</event>
<event>
 7    1  0.2575978E-011  0.5052886E+02  0.7816164E-02  0.1300439E+00
        -11   -1    0    0    0    0  0.00000000000E+00  0.00000000000E+00  0.45593999997E+02  0.45594000000E+02  0.51100000000E-03 0.  1.
         11   -1    0    0    0    0 -0.00000000000E+00 -0.00000000000E+00 -0.45593999997E+02  0.45594000000E+02  0.51100000000E-03 0. -1.
    9900012    2    1    2    0    0 -0.21424029337E+02 -0.34173451161E+02  0.51334191114E+01  0.50528858481E+02  0.29999995839E+02 0.  0.
         12    1    1    2    0    0  0.21424029337E+02  0.34173451161E+02 -0.51334191114E+01  0.40659141519E+02  0.00000000000E+00 0. -1.
         11    1    3    3    0    0  0.28879742995E+01  0.90537136923E+00 -0.14364777211E+01  0.33501584105E+01  0.51100000000E-03 0. -1.
        -11    1    3    3    0    0 -0.11066215636E+01  0.23550161638E+01 -0.23704036587E+00  0.26128338663E+01  0.51100000000E-03 0.  1.
        -12    1    3    3    0    0 -0.23205382073E+02 -0.37433838694E+02  0.68069371984E+01  0.44565866204E+02  0.00000000000E+00 0.  1.
</event>
<event>
 7    1  0.2575978E-011  0.5052884E+02  0.7816164E-02  0.1300439E+00
        -11   -1    0    0    0    0  0.00000000000E+00  0.00000000000E+00  0.45593999997E+02  0.45594000000E+02  0.51100000000E-03 0.  1.
         11   -1    0    0    0    0 -0.00000000000E+00 -0.00000000000E+00 -0.45593999997E+02  0.45594000000E+02  0.51100000000E-03 0. -1.
    9900012    2    1    2    0    0  0.25988802676E+02 -0.30353164594E+02  0.75122933035E+01  0.50528843392E+02  0.29999949973E+02 0.  0.
         12    1    1    2    0    0 -0.25988802676E+02  0.30353164594E+02 -0.75122933035E+01  0.40659156608E+02  0.00000000000E+00 0. -1.
         11    1    3    3    0    0  0.76677601647E+01 -0.10083791029E+01 -0.89380112627E+00  0.77852588315E+01  0.51100000000E-03 0. -1.
        -11    1    3    3    0    0  0.19035691962E+02 -0.14351817303E+02 -0.28116064540E+01  0.24004944481E+02  0.51100000000E-03 0.  1.
        -12    1    3    3    0    0 -0.71464945082E+00 -0.14992968188E+02  0.11217700884E+02  0.18738640080E+02  0.00000000000E+00 0.  1.
</event>
<event>
 7    1  0.2575978E-011  0.5052886E+02  0.7816164E-02  0.1300439E+00
        -11   -1    0    0    0    0  0.00000000000E+00  0.00000000000E+00  0.45593999997E+02  0.45594000000E+02  0.51100000000E-03 0.  1.
         11   -1    0    0    0    0 -0.00000000000E+00 -0.00000000000E+00 -0.45593999997E+02  0.45594000000E+02  0.51100000000E-03 0. -1.
    9900012    2    1    2    0    0  0.37818542333E+02  0.13797938562E+02 -0.57044054181E+01  0.50528862111E+02  0.30000006871E+02 0.  0.
         12    1    1    2    0    0 -0.37818542333E+02 -0.13797938562E+02  0.57044054181E+01  0.40659137889E+02  0.00000000000E+00 0. -1.
         11    1    3    3    0    0  0.21028561087E+02  0.11098184594E+00 -0.23377107183E+01  0.21158392898E+02  0.51100000000E-03 0. -1.
        -11    1    3    3    0    0  0.19314730244E+02  0.81523877740E+01  0.22572063699E+01  0.21085900780E+02  0.51100000000E-03 0.  1.
        -12    1    3    3    0    0 -0.25247489987E+01  0.55345689416E+01 -0.56239010697E+01  0.82845684328E+01  0.00000000000E+00 0.  1.
</event>
<event>
 7    1  0.2575978E-011  0.5052888E+02  0.7816164E-02  0.1300439E+00
        -11   -1    0    0    0    0  0.00000000000E+00  0.00000000000E+00  0.45593999997E+02  0.45594000000E+02  0.51100000000E-03 0. -1.
         11   -1    0    0    0    0 -0.00000000000E+00 -0.00000000000E+00 -0.45593999997E+02  0.45594000000E+02  0.51100000000E-03 0.  1.
    9900012    2    1    2    0    0  0.66100980612E+01 -0.39106918505E+02 -0.89509449373E+01  0.50528881876E+02  0.30000066950E+02 0.  0.
         12    1    1    2    0    0 -0.66100980612E+01  0.39106918505E+02  0.89509449373E+01  0.40659118124E+02  0.00000000000E+00 0. -1.
         11    1    3    3    0    0  0.13256477044E+02 -0.32369664585E+02 -0.20236323497E+01  0.35037472185E+02  0.51100000000E-03 0. -1.
        -11    1    3    3    0    0  0.11192387424E+01 -0.56877527905E+01 -0.43317318023E+01  0.72365135139E+01  0.51100000000E-03 0.  1.
         12    1    3    3    0    0 -0.77656177256E+01 -0.10495011297E+01 -0.25955807853E+01  0.82548961770E+01  0.00000000000E+00 0. -1.
</event>
<event>
 7    1  0.2575978E-011  0.5052886E+02  0.7816164E-02  0.1300439E+00
        -11   -1    0    0    0    0  0.00000000000E+00  0.00000000000E+00  0.45593999997E+02  0.45594000000E+02  0.51100000000E-03 0.  1.
         11   -1    0    0    0    0 -0.00000000000E+00 -0.00000000000E+00 -0.45593999997E+02  0.45594000000E+02  0.51100000000E-03 0. -1.
    9900012    2    1    2    0    0  0.18875789802E+01  0.30075927428E+02  0.27295445998E+02  0.50528859117E+02  0.29999997773E+02 0.  0.
         12    1    1    2    0    0 -0.18875789802E+01 -0.30075927428E+02 -0.27295445998E+02  0.40659140883E+02  0.00000000000E+00 0. -1.
         11    1    3    3    0    0 -0.21080731006E+01  0.66585796521E+01 -0.19618618614E+01  0.72546231746E+01  0.51100000000E-03 0. -1.
        -11    1    3    3    0    0  0.91743369981E+01  0.17348649711E+01  0.11232697897E+02  0.14606564213E+02  0.51100000000E-03 0.  1.
         12    1    3    3    0    0 -0.51786849173E+01  0.21682482805E+02  0.18024609963E+02  0.28667671729E+02  0.00000000000E+00 0. -1.
</event>
<event>
 7    1  0.2575978E-011  0.5052884E+02  0.7816164E-02  0.1300439E+00
        -11   -1    0    0    0    0  0.00000000000E+00  0.00000000000E+00  0.45593999997E+02  0.45594000000E+02  0.51100000000E-03 0. -1.
         11   -1    0    0    0    0 -0.00000000000E+00 -0.00000000000E+00 -0.45593999997E+02  0.45594000000E+02  0.51100000000E-03 0.  1.
    9900012    2    1    2    0    0 -0.20570459395E+02 -0.33273314576E+02  0.11086465159E+02  0.50528843930E+02  0.29999951610E+02 0.  0.
         12    1    1    2    0    0  0.20570459395E+02  0.33273314576E+02 -0.11086465159E+02  0.40659156070E+02  0.00000000000E+00 0. -1.
         11    1    3    3    0    0  0.63323851453E+01 -0.21442121695E+01 -0.18205023868E+01  0.69289953571E+01  0.51100000000E-03 0. -1.
        -11    1    3    3    0    0 -0.18908705913E+01 -0.61745969878E+00 -0.26310957417E+00  0.20064583180E+01  0.51100000000E-03 0.  1.
         12    1    3    3    0    0 -0.25011973949E+02 -0.30511642708E+02  0.13170077120E+02  0.41593390255E+02  0.00000000000E+00 0. -1.
</event>
<event>
 7    1  0.2575978E-011  0.5052886E+02  0.7816164E-02  0.1300439E+00
        -11   -1    0    0    0    0  0.00000000000E+00  0.00000000000E+00  0.45593999997E+02  0.45594000000E+02  0.51100000000E-03 0. -1.
         11   -1    0    0    0    0 -0.00000000000E+00 -0.00000000000E+00 -0.45593999997E+02  0.45594000000E+02  0.51100000000E-03 0.  1.
    9900012    2    1    2    0    0 -0.34112207923E+02  0.18434201457E+02 -0.12235320655E+02  0.50528860999E+02  0.30000003494E+02 0.  0.
         12    1    1    2    0    0  0.34112207923E+02 -0.18434201457E+02  0.12235320655E+02  0.40659139001E+02  0.00000000000E+00 0. -1.
         11    1    3    3    0    0 -0.21393909313E+02  0.84226342388E+00 -0.55808439976E+01  0.22125880397E+02  0.51100000000E-03 0.  1.
        -11    1    3    3    0    0 -0.12507394466E+01 -0.32993823146E+01 -0.22010095000E+01  0.41586916094E+01  0.51100000000E-03 0. -1.
        -12    1    3    3    0    0 -0.11467559163E+02  0.20891320348E+02 -0.44534671579E+01  0.24244288993E+02  0.00000000000E+00 0.  1.
</event>
<event>
 7    1  0.2575978E-011  0.5052886E+02  0.7816164E-02  0.1300439E+00
        -11   -1    0    0    0    0  0.00000000000E+00  0.00000000000E+00  0.45593999997E+02  0.45594000000E+02  0.51100000000E-03 0.  1.
         11   -1    0    0    0    0 -0.00000000000E+00 -0.00000000000E+00 -0.45593999997E+02  0.45594000000E+02  0.51100000000E-03 0. -1.
    9900012    2    1    2    0    0  0.52842219390E+01  0.37239092117E+02  0.15443195142E+02  0.50528864995E+02  0.30000015639E+02 0.  0.
         12    1    1    2    0    0 -0.52842219390E+01 -0.37239092117E+02 -0.15443195142E+02  0.40659135005E+02  0.00000000000E+00 0. -1.
         11    1    3    3    0    0 -0.85752926009E+01  0.80995459473E+01  0.10601430354E+01  0.11843233987E+02  0.51100000000E-03 0. -1.
        -11    1    3    3    0    0  0.69209305208E+01  0.15157367056E+02 -0.11012931773E+01  0.16699038962E+02  0.51100000000E-03 0.  1.
        -12    1    3    3    0    0  0.69385840192E+01  0.13982179114E+02  0.15484345284E+02  0.21986592046E+02  0.00000000000E+00 0.  1.
</event>
<event>
 7    1  0.2575978E-011  0.5052886E+02  0.7816164E-02  0.1300439E+00
        -11   -1    0    0    0    0  0.00000000000E+00  0.00000000000E+00  0.45593999997E+02  0.45594000000E+02  0.51100000000E-03 0. -1.
         11   -1    0    0    0    0 -0.00000000000E+00 -0.00000000000E+00 -0.45593999997E+02  0.45594000000E+02  0.51100000000E-03 0.  1.
    9900012    2    1    2    0    0 -0.21515296832E+02 -0.22466693686E+02 -0.26182153255E+02  0.50528862380E+02  0.30000007691E+02 0.  0.
         12    1    1    2    0    0  0.21515296832E+02  0.22466693686E+02  0.26182153255E+02  0.40659137620E+02  0.00000000000E+00 0. -1.
         11    1    3    3    0    0 -0.70325220656E+01  0.28551527713E+01 -0.79994749014E+00  0.76320495411E+01  0.51100000000E-03 0. -1.
        -11    1    3    3    0    0 -0.10436978270E+02 -0.18529023731E+01 -0.98055778904E+01  0.14439983402E+02  0.51100000000E-03 0.  1.
        -12    1    3    3    0    0 -0.40457964962E+01 -0.23468944084E+02 -0.15576627874E+02  0.28456829437E+02  0.00000000000E+00 0.  1.
</event>
<event>
 7    1  0.2575978E-011  0.5052885E+02  0.7816164E-02  0.1300439E+00
        -11   -1    0    0    0    0  0.00000000000E+00  0.00000000000E+00  0.45593999997E+02  0.45594000000E+02  0.51100000000E-03 0.  1.
         11   -1    0    0    0    0 -0.00000000000E+00 -0.00000000000E+00 -0.45593999997E+02  0.45594000000E+02  0.51100000000E-03 0. -1.
    9900012    2    1    2    0    0 -0.19988133539E+02  0.29189810781E+02  0.20039861480E+02  0.50528848706E+02  0.29999966128E+02 0.  0.
         12    1    1    2    0    0  0.19988133539E+02 -0.29189810781E+02 -0.20039861480E+02  0.40659151294E+02  0.00000000000E+00 0. -1.
         11    1    3    3    0    0  0.12264370007E+00  0.21078833652E+02  0.36707159648E+01  0.21396411511E+02  0.51100000000E-03 0. -1.
        -11    1    3    3    0    0 -0.18248385991E+01  0.48945150115E+01  0.56454349482E+01  0.76913749828E+01  0.51100000000E-03 0.  1.
        -12    1    3    3    0    0 -0.18285938640E+02  0.32164621179E+01  0.10723710567E+02  0.21441062213E+02  0.00000000000E+00 0.  1.
</event>
<event>
 7    1  0.2575978E-011  0.5052885E+02  0.7816164E-02  0.1300439E+00
        -11   -1    0    0    0    0  0.00000000000E+00  0.00000000000E+00  0.45593999997E+02  0.45594000000E+02  0.51100000000E-03 0. -1.
         11   -1    0    0    0    0 -0.00000000000E+00 -0.00000000000E+00 -0.45593999997E+02  0.45594000000E+02  0.51100000000E-03 0.  1.
    9900012    2    1    2    0    0  0.24138424969E+02 -0.19254743837E+02 -0.26452928663E+02  0.50528853981E+02  0.29999982160E+02 0.  0.
         12    1    1    2    0    0 -0.24138424969E+02  0.19254743837E+02  0.26452928663E+02  0.40659146019E+02  0.00000000000E+00 0. -1.
         11    1    3    3    0    0  0.81102646596E+01 -0.60594822079E+01 -0.44570117356E+01  0.11061585390E+02  0.51100000000E-03 0. -1.
        -11    1    3    3    0    0  0.22665864881E+02 -0.12184646658E+02 -0.19565569236E+02  0.32326746585E+02  0.51100000000E-03 0.  1.
         12    1    3    3    0    0 -0.66377045722E+01 -0.10106149710E+01 -0.24303476907E+01  0.71405220051E+01  0.00000000000E+00 0. -1.
</event>
<event>
 7    1  0.2575978E-011  0.5052886E+02  0.7816164E-02  0.1300439E+00
        -11   -1    0    0    0    0  0.00000000000E+00  0.00000000000E+00  0.45593999997E+02  0.45594000000E+02  0.51100000000E-03 0. -1.
         11   -1    0    0    0    0 -0.00000000000E+00 -0.00000000000E+00 -0.45593999997E+02  0.45594000000E+02  0.51100000000E-03 0.  1.
    9900012    2    1    2    0    0  0.38855723456E+02 -0.78603039459E+01 -0.90340609740E+01  0.50528857349E+02  0.29999992398E+02 0.  0.
         12    1    1    2    0    0 -0.38855723456E+02  0.78603039459E+01  0.90340609740E+01  0.40659142651E+02  0.00000000000E+00 0. -1.
         11    1    3    3    0    0  0.14487465328E+01  0.46268131299E+01 -0.95664076043E+00  0.49418041301E+01  0.51100000000E-03 0. -1.
        -11    1    3    3    0    0  0.35118533886E+01  0.52072303587E+01  0.80784779640E+00  0.63325335021E+01  0.51100000000E-03 0.  1.
        -12    1    3    3    0    0  0.33895123535E+02 -0.17694347434E+02 -0.88852680100E+01  0.39254519717E+02  0.00000000000E+00 0.  1.
</event>
<event>
 7    1  0.2575978E-011  0.5052886E+02  0.7816164E-02  0.1300439E+00
        -11   -1    0    0    0    0  0.00000000000E+00  0.00000000000E+00  0.45593999997E+02  0.45594000000E+02  0.51100000000E-03 0. -1.
         11   -1    0    0    0    0 -0.00000000000E+00 -0.00000000000E+00 -0.45593999997E+02  0.45594000000E+02  0.51100000000E-03 0.  1.
    9900012    2    1    2    0    0  0.25254884289E+02  0.28391847194E+02  0.14465801406E+02  0.50528861078E+02  0.30000003733E+02 0.  0.
         12    1    1    2    0    0 -0.25254884289E+02 -0.28391847194E+02 -0.14465801406E+02  0.40659138922E+02  0.00000000000E+00 0. -1.
         11    1    3    3    0    0  0.84949156095E+01  0.13224516364E+02  0.48538560540E+01  0.16450268786E+02  0.51100000000E-03 0. -1.
        -11    1    3    3    0    0  0.14940253709E+02  0.13525473082E+02  0.16955382324E+02  0.26336943502E+02  0.51100000000E-03 0.  1.
        -12    1    3    3    0    0  0.18197149703E+01  0.16418577480E+01 -0.73434369720E+01  0.77416487907E+01  0.00000000000E+00 0.  1.
</event>
<event>
 7    1  0.2575978E-011  0.5052887E+02  0.7816164E-02  0.1300439E+00
        -11   -1    0    0    0    0  0.00000000000E+00  0.00000000000E+00  0.45593999997E+02  0.45594000000E+02  0.51100000000E-03 0. -1.
         11   -1    0    0    0    0 -0.00000000000E+00 -0.00000000000E+00 -0.45593999997E+02  0.45594000000E+02  0.51100000000E-03 0.  1.
    9900012    2    1    2    0    0  0.21637250955E+02  0.23160427156E+02 -0.25467405202E+02  0.50528871349E+02  0.30000034954E+02 0.  0.
         12    1    1    2    0    0 -0.21637250955E+02 -0.23160427156E+02  0.25467405202E+02  0.40659128651E+02  0.00000000000E+00 0. -1.
         11    1    3    3    0    0  0.11222677936E+02  0.31214431659E+01 -0.57612042952E+01  0.12995513945E+02  0.51100000000E-03 0. -1.
        -11    1    3    3    0    0  0.14255339044E+02  0.35442195538E+01 -0.11804580470E+02  0.18844742074E+02  0.51100000000E-03 0.  1.
        -12    1    3    3    0    0 -0.38407660250E+01  0.16494764436E+02 -0.79016204364E+01  0.18688615331E+02  0.00000000000E+00 0.  1.
</event>
<event>
 7    1  0.2575978E-011  0.5052885E+02  0.7816164E-02  0.1300439E+00
        -11   -1    0    0    0    0  0.00000000000E+00  0.00000000000E+00  0.45593999997E+02  0.45594000000E+02  0.51100000000E-03 0. -1.
         11   -1    0    0    0    0 -0.00000000000E+00 -0.00000000000E+00 -0.45593999997E+02  0.45594000000E+02  0.51100000000E-03 0.  1.
    9900012    2    1    2    0    0  0.28578399307E+02  0.31861795540E+01 -0.28745250866E+02  0.50528854726E+02  0.29999984424E+02 0.  0.
         12    1    1    2    0    0 -0.28578399307E+02 -0.31861795540E+01  0.28745250866E+02  0.40659145274E+02  0.00000000000E+00 0. -1.
         11    1    3    3    0    0  0.18586709212E+02 -0.18602396940E+01 -0.23240435204E+02  0.29816842217E+02  0.51100000000E-03 0. -1.
        -11    1    3    3    0    0  0.80618030777E+01  0.37417167998E+01 -0.11352279835E+02  0.14417606292E+02  0.51100000000E-03 0.  1.
         12    1    3    3    0    0  0.19298870171E+01  0.13047024482E+01  0.58474641727E+01  0.62944062173E+01  0.00000000000E+00 0. -1.
</event>
<event>
 7    1  0.2575978E-011  0.5052888E+02  0.7816164E-02  0.1300439E+00
        -11   -1    0    0    0    0  0.00000000000E+00  0.00000000000E+00  0.45593999997E+02  0.45594000000E+02  0.51100000000E-03 0.  1.
         11   -1    0    0    0    0 -0.00000000000E+00 -0.00000000000E+00 -0.45593999997E+02  0.45594000000E+02  0.51100000000E-03 0. -1.
    9900012    2    1    2    0    0  0.38922407313E+02 -0.91808270864E+00  0.11720384526E+02  0.50528879494E+02  0.30000059710E+02 0.  0.
         12    1    1    2    0    0 -0.38922407313E+02  0.91808270864E+00 -0.11720384526E+02  0.40659120506E+02  0.00000000000E+00 0. -1.
         11    1    3    3    0    0  0.31165725035E+02 -0.14150874417E+01  0.11840912157E+02  0.33369328588E+02  0.51100000000E-03 0.  1.
        -11    1    3    3    0    0  0.11874857891E+02  0.29689224926E+01  0.81000170671E+00  0.12267145297E+02  0.51100000000E-03 0. -1.
         12    1    3    3    0    0 -0.41181756137E+01 -0.24719177595E+01 -0.93052933791E+00  0.48924056091E+01  0.00000000000E+00 0. -1.
</event>
<event>
 7    1  0.2575978E-011  0.5052886E+02  0.7816164E-02  0.1300439E+00
        -11   -1    0    0    0    0  0.00000000000E+00  0.00000000000E+00  0.45593999997E+02  0.45594000000E+02  0.51100000000E-03 0. -1.
         11   -1    0    0    0    0 -0.00000000000E+00 -0.00000000000E+00 -0.45593999997E+02  0.45594000000E+02  0.51100000000E-03 0.  1.
    9900012    2    1    2    0    0  0.91428458230E+01  0.25024767942E+02 -0.30713757680E+02  0.50528861407E+02  0.30000004733E+02 0.  0.
         12    1    1    2    0    0 -0.91428458230E+01 -0.25024767942E+02  0.30713757680E+02  0.40659138593E+02  0.00000000000E+00 0. -1.
         11    1    3    3    0    0  0.10726602135E+02  0.89181044804E+01 -0.19320702740E+02  0.23830277705E+02  0.51100000000E-03 0. -1.
        -11    1    3    3    0    0 -0.15904583188E+00  0.60473544022E+01 -0.14795370504E+02  0.15984329183E+02  0.51100000000E-03 0.  1.
         12    1    3    3    0    0 -0.14247104800E+01  0.10059309059E+02  0.34023155634E+01  0.10714254519E+02  0.00000000000E+00 0. -1.
</event>
<event>
 7    1  0.2575978E-011  0.5052887E+02  0.7816164E-02  0.1300439E+00
        -11   -1    0    0    0    0  0.00000000000E+00  0.00000000000E+00  0.45593999997E+02  0.45594000000E+02  0.51100000000E-03 0. -1.
         11   -1    0    0    0    0 -0.00000000000E+00 -0.00000000000E+00 -0.45593999997E+02  0.45594000000E+02  0.51100000000E-03 0.  1.
    9900012    2    1    2    0    0 -0.99765135000E+01 -0.12305471992E+02 -0.37446091472E+02  0.50528865367E+02  0.30000016769E+02 0.  0.
         12    1    1    2    0    0  0.99765135000E+01  0.12305471992E+02  0.37446091472E+02  0.40659134633E+02  0.00000000000E+00 0. -1.
         11    1    3    3    0    0 -0.13379059033E+01 -0.79206833531E+01 -0.82715552973E+01  0.11530214408E+02  0.51100000000E-03 0. -1.
        -11    1    3    3    0    0 -0.63680709495E+01 -0.13546225475E+02 -0.11193258449E+02  0.18690681828E+02  0.51100000000E-03 0.  1.
         12    1    3    3    0    0 -0.22705366471E+01  0.91614368359E+01 -0.17981277726E+02  0.20307969131E+02  0.00000000000E+00 0. -1.
</event>
<event>
 7    1  0.2575978E-011  0.5052886E+02  0.7816164E-02  0.1300439E+00
        -11   -1    0    0    0    0  0.00000000000E+00  0.00000000000E+00  0.45593999997E+02  0.45594000000E+02  0.51100000000E-03 0. -1.
         11   -1    0    0    0    0 -0.00000000000E+00 -0.00000000000E+00 -0.45593999997E+02  0.45594000000E+02  0.51100000000E-03 0.  1.
    9900012    2    1    2    0    0 -0.38753907688E+01 -0.33805480105E+02 -0.22256153864E+02  0.50528861746E+02  0.30000005764E+02 0.  0.
         12    1    1    2    0    0  0.38753907688E+01  0.33805480105E+02  0.22256153864E+02  0.40659138254E+02  0.00000000000E+00 0. -1.
         11    1    3    3    0    0  0.47714642908E+01 -0.15466762694E+02 -0.44299873572E+01  0.16781311271E+02  0.51100000000E-03 0.  1.
        -11    1    3    3    0    0 -0.38786991959E-01 -0.72774510956E+01  0.36194519468E+01  0.81279291050E+01  0.51100000000E-03 0. -1.
        -12    1    3    3    0    0 -0.86080680676E+01 -0.11061266315E+02 -0.21445618453E+02  0.25619621371E+02  0.00000000000E+00 0.  1.
</event>
<event>
 7    1  0.2575978E-011  0.5052885E+02  0.7816164E-02  0.1300439E+00
        -11   -1    0    0    0    0  0.00000000000E+00  0.00000000000E+00  0.45593999997E+02  0.45594000000E+02  0.51100000000E-03 0.  1.
         11   -1    0    0    0    0 -0.00000000000E+00 -0.00000000000E+00 -0.45593999997E+02  0.45594000000E+02  0.51100000000E-03 0. -1.
    9900012    2    1    2    0    0 -0.39840403994E+02 -0.77400738185E+01 -0.24495158546E+01  0.50528847758E+02  0.29999963245E+02 0.  0.
         12    1    1    2    0    0  0.39840403994E+02  0.77400738185E+01  0.24495158546E+01  0.40659152242E+02  0.00000000000E+00 0. -1.
         11    1    3    3    0    0 -0.44741274978E+01 -0.11937226808E+02 -0.98021805115E+00  0.12785774455E+02  0.51100000000E-03 0. -1.
        -11    1    3    3    0    0 -0.11920669679E+01 -0.13546234887E+01  0.22920703891E+01  0.29171245057E+01  0.51100000000E-03 0.  1.
         12    1    3    3    0    0 -0.34174209528E+02  0.55517764777E+01 -0.37613681926E+01  0.34825948797E+02  0.00000000000E+00 0. -1.
</event>
<event>
 7    1  0.2575978E-011  0.5052885E+02  0.7816164E-02  0.1300439E+00
        -11   -1    0    0    0    0  0.00000000000E+00  0.00000000000E+00  0.45593999997E+02  0.45594000000E+02  0.51100000000E-03 0.  1.
         11   -1    0    0    0    0 -0.00000000000E+00 -0.00000000000E+00 -0.45593999997E+02  0.45594000000E+02  0.51100000000E-03 0. -1.
    9900012    2    1    2    0    0 -0.11474066770E+02  0.25944793541E+02  0.29126963397E+02  0.50528849531E+02  0.29999968634E+02 0.  0.
         12    1    1    2    0    0  0.11474066770E+02 -0.25944793541E+02 -0.29126963397E+02  0.40659150469E+02  0.00000000000E+00 0. -1.
         11    1    3    3    0    0 -0.47077243449E+00 -0.24796187439E+01  0.90234892686E-03  0.25239130087E+01  0.51100000000E-03 0. -1.
        -11    1    3    3    0    0 -0.81002014204E+01  0.10742745281E+02  0.26732522988E+02  0.29927372501E+02  0.51100000000E-03 0.  1.
         12    1    3    3    0    0 -0.29030929149E+01  0.17681667004E+02  0.23935380603E+01  0.18077564021E+02  0.00000000000E+00 0. -1.
</event>
<event>
 7    1  0.2575978E-011  0.5052887E+02  0.7816164E-02  0.1300439E+00
        -11   -1    0    0    0    0  0.00000000000E+00  0.00000000000E+00  0.45593999997E+02  0.45594000000E+02  0.51100000000E-03 0.  1.
         11   -1    0    0    0    0 -0.00000000000E+00 -0.00000000000E+00 -0.45593999997E+02  0.45594000000E+02  0.51100000000E-03 0. -1.
    9900012    2    1    2    0    0  0.21075353927E+02  0.13415310322E+02  0.32078394844E+02  0.50528874210E+02  0.30000043649E+02 0.  0.
         12    1    1    2    0    0 -0.21075353927E+02 -0.13415310322E+02 -0.32078394844E+02  0.40659125790E+02  0.00000000000E+00 0. -1.
         11    1    3    3    0    0  0.89917888103E+01  0.74493617199E+01  0.21676868258E+01  0.11876199833E+02  0.51100000000E-03 0. -1.
        -11    1    3    3    0    0  0.14528108831E+02  0.19826731298E+01  0.89526413339E+01  0.17179834867E+02  0.51100000000E-03 0.  1.
         12    1    3    3    0    0 -0.24445437141E+01  0.39832754728E+01  0.20958066684E+02  0.21472839510E+02  0.00000000000E+00 0. -1.
</event>
<event>
 7    1  0.2575978E-011  0.5052886E+02  0.7816164E-02  0.1300439E+00
        -11   -1    0    0    0    0  0.00000000000E+00  0.00000000000E+00  0.45593999997E+02  0.45594000000E+02  0.51100000000E-03 0.  1.
         11   -1    0    0    0    0 -0.00000000000E+00 -0.00000000000E+00 -0.45593999997E+02  0.45594000000E+02  0.51100000000E-03 0. -1.
    9900012    2    1    2    0    0  0.12979036352E+02 -0.18989303153E+02  0.33527846407E+02  0.50528861992E+02  0.30000006511E+02 0.  0.
         12    1    1    2    0    0 -0.12979036352E+02  0.18989303153E+02 -0.33527846407E+02  0.40659138008E+02  0.00000000000E+00 0. -1.
         11    1    3    3    0    0  0.40550007525E+01 -0.16093062011E+01 -0.27467567118E+01  0.51553438534E+01  0.51100000000E-03 0. -1.
        -11    1    3    3    0    0  0.43364935965E+01 -0.70959814339E+00  0.23419536720E+02  0.23828206116E+02  0.51100000000E-03 0.  1.
         12    1    3    3    0    0  0.45875420030E+01 -0.16670398808E+02  0.12855066398E+02  0.21545312023E+02  0.00000000000E+00 0. -1.
</event>
<event>
 7    1  0.2575978E-011  0.5052886E+02  0.7816164E-02  0.1300439E+00
        -11   -1    0    0    0    0  0.00000000000E+00  0.00000000000E+00  0.45593999997E+02  0.45594000000E+02  0.51100000000E-03 0.  1.
         11   -1    0    0    0    0 -0.00000000000E+00 -0.00000000000E+00 -0.45593999997E+02  0.45594000000E+02  0.51100000000E-03 0. -1.
    9900012    2    1    2    0    0  0.15330289159E+02  0.30170662593E+02  0.22536171048E+02  0.50528860161E+02  0.30000000944E+02 0.  0.
         12    1    1    2    0    0 -0.15330289159E+02 -0.30170662593E+02 -0.22536171048E+02  0.40659139839E+02  0.00000000000E+00 0. -1.
         11    1    3    3    0    0  0.23299610716E+01  0.12067070843E+02  0.12329596025E+02  0.17408671854E+02  0.51100000000E-03 0. -1.
        -11    1    3    3    0    0  0.18696843088E+02  0.11248801688E+02  0.10473560458E+02  0.24203366498E+02  0.51100000000E-03 0.  1.
        -12    1    3    3    0    0 -0.56965150011E+01  0.68547900619E+01 -0.26698543521E+00  0.89168218090E+01  0.00000000000E+00 0.  1.
</event>
<event>
 7    1  0.2575978E-011  0.5052885E+02  0.7816164E-02  0.1300439E+00
        -11   -1    0    0    0    0  0.00000000000E+00  0.00000000000E+00  0.45593999997E+02  0.45594000000E+02  0.51100000000E-03 0.  1.
         11   -1    0    0    0    0 -0.00000000000E+00 -0.00000000000E+00 -0.45593999997E+02  0.45594000000E+02  0.51100000000E-03 0. -1.
    9900012    2    1    2    0    0 -0.18680040924E+02  0.21795245797E+01  0.36048189984E+02  0.50528852722E+02  0.29999978333E+02 0.  0.
         12    1    1    2    0    0  0.18680040924E+02 -0.21795245797E+01 -0.36048189984E+02  0.40659147278E+02  0.00000000000E+00 0. -1.
         11    1    3    3    0    0 -0.15971929244E+01 -0.56681058902E+00  0.20207499379E+02  0.20278444982E+02  0.51100000000E-03 0. -1.
        -11    1    3    3    0    0 -0.20457016073E+02  0.12187040756E+01  0.16714088569E+02  0.26444952320E+02  0.51100000000E-03 0.  1.
         12    1    3    3    0    0  0.33741680740E+01  0.15276310932E+01 -0.87339796422E+00  0.38054554198E+01  0.00000000000E+00 0. -1.
</event>
<event>
 7    1  0.2575978E-011  0.5052886E+02  0.7816164E-02  0.1300439E+00
        -11   -1    0    0    0    0  0.00000000000E+00  0.00000000000E+00  0.45593999997E+02  0.45594000000E+02  0.51100000000E-03 0.  1.
         11   -1    0    0    0    0 -0.00000000000E+00 -0.00000000000E+00 -0.45593999997E+02  0.45594000000E+02  0.51100000000E-03 0. -1.
    9900012    2    1    2    0    0  0.13366763632E+01 -0.40537979244E+02  0.28374266544E+01  0.50528862590E+02  0.30000008328E+02 0.  0.
         12    1    1    2    0    0 -0.13366763632E+01  0.40537979244E+02 -0.28374266544E+01  0.40659137410E+02  0.00000000000E+00 0. -1.
         11    1    3    3    0    0  0.25804853731E+01  0.29694834327E+00  0.11357492454E+01  0.28349620261E+01  0.51100000000E-03 0.  1.
        -11    1    3    3    0    0  0.11215355967E+02 -0.16310880330E+02  0.36066851235E+01  0.20120566703E+02  0.51100000000E-03 0. -1.
         12    1    3    3    0    0 -0.12459164977E+02 -0.24524047257E+02 -0.19050077145E+01  0.27573333861E+02  0.00000000000E+00 0. -1.
</event>
<event>
 7    1  0.2575978E-011  0.5052884E+02  0.7816164E-02  0.1300439E+00
        -11   -1    0    0    0    0  0.00000000000E+00  0.00000000000E+00  0.45593999997E+02  0.45594000000E+02  0.51100000000E-03 0. -1.
         11   -1    0    0    0    0 -0.00000000000E+00 -0.00000000000E+00 -0.45593999997E+02  0.45594000000E+02  0.51100000000E-03 0.  1.
    9900012    2    1    2    0    0 -0.79178313294E+01  0.51693320018E+00 -0.39877408756E+02  0.50528843565E+02  0.29999950501E+02 0.  0.
         12    1    1    2    0    0  0.79178313294E+01 -0.51693320018E+00  0.39877408756E+02  0.40659156435E+02  0.00000000000E+00 0. -1.
         11    1    3    3    0    0 -0.17808816582E+01 -0.29861915496E+01 -0.56754439684E+01  0.66557902574E+01  0.51100000000E-03 0. -1.
        -11    1    3    3    0    0  0.21202319248E+01 -0.20318287803E+01 -0.33796795880E+02  0.33924137772E+02  0.51100000000E-03 0.  1.
        -12    1    3    3    0    0 -0.82571815959E+01  0.55349535300E+01 -0.40516890780E+00  0.99489155355E+01  0.00000000000E+00 0.  1.
</event>
<event>
 7    1  0.2575978E-011  0.5052886E+02  0.7816164E-02  0.1300439E+00
        -11   -1    0    0    0    0  0.00000000000E+00  0.00000000000E+00  0.45593999997E+02  0.45594000000E+02  0.51100000000E-03 0.  1.
         11   -1    0    0    0    0 -0.00000000000E+00 -0.00000000000E+00 -0.45593999997E+02  0.45594000000E+02  0.51100000000E-03 0. -1.
    9900012    2    1    2    0    0 -0.29435387270E+01 -0.27356074654E+02  0.29935706018E+02  0.50528859139E+02  0.29999997840E+02 0.  0.
         12    1    1    2    0    0  0.29435387270E+01  0.27356074654E+02 -0.29935706018E+02  0.40659140861E+02  0.00000000000E+00 0. -1.
         11    1    3    3    0    0 -0.12365768026E+02 -0.54829593510E+01  0.59817436954E+01  0.14790413112E+02  0.51100000000E-03 0. -1.
        -11    1    3    3    0    0  0.24531099034E+00  0.14385745990E+01  0.15533614479E+01  0.21313391114E+01  0.51100000000E-03 0.  1.
        -12    1    3    3    0    0  0.91769183084E+01 -0.23311689902E+02  0.22400600875E+02  0.33607106916E+02  0.00000000000E+00 0.  1.
</event>
<event>
 7    1  0.2575978E-011  0.5052886E+02  0.7816164E-02  0.1300439E+00
        -11   -1    0    0    0    0  0.00000000000E+00  0.00000000000E+00  0.45593999997E+02  0.45594000000E+02  0.51100000000E-03 0. -1.
         11   -1    0    0    0    0 -0.00000000000E+00 -0.00000000000E+00 -0.45593999997E+02  0.45594000000E+02  0.51100000000E-03 0.  1.
    9900012    2    1    2    0    0 -0.13306317410E+02 -0.38412971970E+02  0.74266670777E+00  0.50528855243E+02  0.29999985995E+02 0.  0.
         12    1    1    2    0    0  0.13306317410E+02  0.38412971970E+02 -0.74266670777E+00  0.40659144757E+02  0.00000000000E+00 0. -1.
         11    1    3    3    0    0  0.18203097279E+01 -0.45386141600E+01 -0.26975682836E+01  0.55847489563E+01  0.51100000000E-03 0. -1.
        -11    1    3    3    0    0  0.18861583187E+01 -0.24917179047E+02 -0.16874783320E+01  0.25045378581E+02  0.51100000000E-03 0.  1.
        -12    1    3    3    0    0 -0.17012785457E+02 -0.89571787627E+01  0.51277133234E+01  0.19898727706E+02  0.00000000000E+00 0.  1.
</event>
<event>
 7    1  0.2575978E-011  0.5052886E+02  0.7816164E-02  0.1300439E+00
        -11   -1    0    0    0    0  0.00000000000E+00  0.00000000000E+00  0.45593999997E+02  0.45594000000E+02  0.51100000000E-03 0.  1.
         11   -1    0    0    0    0 -0.00000000000E+00 -0.00000000000E+00 -0.45593999997E+02  0.45594000000E+02  0.51100000000E-03 0. -1.
    9900012    2    1    2    0    0 -0.31220873782E+02  0.11304426624E+02  0.23465565617E+02  0.50528858460E+02  0.29999995774E+02 0.  0.
         12    1    1    2    0    0  0.31220873782E+02 -0.11304426624E+02 -0.23465565617E+02  0.40659141540E+02  0.00000000000E+00 0. -1.
         11    1    3    3    0    0  0.42602872667E+01  0.12228657801E+01 -0.14592221578E+01  0.46663452378E+01  0.51100000000E-03 0. -1.
        -11    1    3    3    0    0 -0.13245720210E+02  0.49020110548E+01  0.16019204846E+02  0.21356351290E+02  0.51100000000E-03 0.  1.
        -12    1    3    3    0    0 -0.22235440839E+02  0.51795497895E+01  0.89055829291E+01  0.24506161932E+02  0.00000000000E+00 0.  1.
</event>
<event>
 7    1  0.2575978E-011  0.5052899E+02  0.7816164E-02  0.1300438E+00
        -11   -1    0    0    0    0  0.00000000000E+00  0.00000000000E+00  0.45593999997E+02  0.45594000000E+02  0.51100000000E-03 0. -1.
         11   -1    0    0    0    0 -0.00000000000E+00 -0.00000000000E+00 -0.45593999997E+02  0.45594000000E+02  0.51100000000E-03 0.  1.
    9900012    2    1    2    0    0  0.36867450977E+02  0.17093235003E+02 -0.13294790056E+01  0.50528989451E+02  0.30000393932E+02 0.  0.
         12    1    1    2    0    0 -0.36867450977E+02 -0.17093235003E+02  0.13294790056E+01  0.40659010549E+02  0.00000000000E+00 0. -1.
         11    1    3    3    0    0  0.69431119301E+01  0.61749784020E+00 -0.17185685056E+00  0.69726352188E+01  0.51100000000E-03 0. -1.
        -11    1    3    3    0    0  0.32294481300E+02  0.15162452278E+02  0.57491696712E+01  0.36137050705E+02  0.51100000000E-03 0.  1.
         12    1    3    3    0    0 -0.23701422529E+01  0.13132848850E+01 -0.69067918262E+01  0.74193035265E+01  0.00000000000E+00 0. -1.
</event>
<event>
 7    1  0.2575978E-011  0.5052886E+02  0.7816164E-02  0.1300439E+00
        -11   -1    0    0    0    0  0.00000000000E+00  0.00000000000E+00  0.45593999997E+02  0.45594000000E+02  0.51100000000E-03 0.  1.
         11   -1    0    0    0    0 -0.00000000000E+00 -0.00000000000E+00 -0.45593999997E+02  0.45594000000E+02  0.51100000000E-03 0. -1.
    9900012    2    1    2    0    0 -0.30692847472E+02  0.21614603114E+02  0.15618059399E+02  0.50528859169E+02  0.29999997931E+02 0.  0.
         12    1    1    2    0    0  0.30692847472E+02 -0.21614603114E+02 -0.15618059399E+02  0.40659140831E+02  0.00000000000E+00 0. -1.
         11    1    3    3    0    0 -0.85414548890E+01 -0.25957751858E+01 -0.33338601031E+01  0.95293821355E+01  0.51100000000E-03 0. -1.
        -11    1    3    3    0    0 -0.10379282742E+02  0.22487124485E+01  0.18565982821E+01  0.10781149074E+02  0.51100000000E-03 0.  1.
         12    1    3    3    0    0 -0.11772109841E+02  0.21961665851E+02  0.17095321220E+02  0.30218327960E+02  0.00000000000E+00 0. -1.
</event>
<event>
 7    1  0.2575978E-011  0.5052886E+02  0.7816164E-02  0.1300439E+00
        -11   -1    0    0    0    0  0.00000000000E+00  0.00000000000E+00  0.45593999997E+02  0.45594000000E+02  0.51100000000E-03 0.  1.
         11   -1    0    0    0    0 -0.00000000000E+00 -0.00000000000E+00 -0.45593999997E+02  0.45594000000E+02  0.51100000000E-03 0. -1.
    9900012    2    1    2    0    0 -0.15825068577E+02  0.32736053314E+02  0.18195708286E+02  0.50528858567E+02  0.29999996102E+02 0.  0.
         12    1    1    2    0    0  0.15825068577E+02 -0.32736053314E+02 -0.18195708286E+02  0.40659141433E+02  0.00000000000E+00 0. -1.
         11    1    3    3    0    0 -0.43410261942E+01 -0.54257821682E-01  0.92798399474E+01  0.10245139435E+02  0.51100000000E-03 0. -1.
        -11    1    3    3    0    0 -0.12542139955E+02  0.10772295217E+02  0.74758797252E-01  0.16533396748E+02  0.51100000000E-03 0.  1.
         12    1    3    3    0    0  0.10580975722E+01  0.22018015919E+02  0.88411095412E+01  0.23750322385E+02  0.00000000000E+00 0. -1.
</event>
<event>
 7    1  0.2575978E-011  0.5052885E+02  0.7816164E-02  0.1300439E+00
        -11   -1    0    0    0    0  0.00000000000E+00  0.00000000000E+00  0.45593999997E+02  0.45594000000E+02  0.51100000000E-03 0.  1.
         11   -1    0    0    0    0 -0.00000000000E+00 -0.00000000000E+00 -0.45593999997E+02  0.45594000000E+02  0.51100000000E-03 0. -1.
    9900012    2    1    2    0    0  0.36758142177E+01 -0.17608638915E+02  0.36463548917E+02  0.50528853745E+02  0.29999981443E+02 0.  0.
         12    1    1    2    0    0 -0.36758142177E+01  0.17608638915E+02 -0.36463548917E+02  0.40659146255E+02  0.00000000000E+00 0. -1.
         11    1    3    3    0    0  0.13661326701E+01 -0.16826673381E+01 -0.96287155728E+00  0.23716681344E+01  0.51100000000E-03 0. -1.
        -11    1    3    3    0    0  0.60589389803E+00  0.37069162913E+01 -0.18703087271E+01  0.41959969974E+01  0.51100000000E-03 0.  1.
        -12    1    3    3    0    0  0.17037876496E+01 -0.19632887868E+02  0.39296729201E+02  0.43961188613E+02  0.00000000000E+00 0.  1.
</event>
<event>
 7    1  0.2575978E-011  0.5052886E+02  0.7816164E-02  0.1300439E+00
        -11   -1    0    0    0    0  0.00000000000E+00  0.00000000000E+00  0.45593999997E+02  0.45594000000E+02  0.51100000000E-03 0.  1.
         11   -1    0    0    0    0 -0.00000000000E+00 -0.00000000000E+00 -0.45593999997E+02  0.45594000000E+02  0.51100000000E-03 0. -1.
    9900012    2    1    2    0    0  0.18429720690E+02 -0.73796438864E+01  0.35483119574E+02  0.50528861749E+02  0.30000005772E+02 0.  0.
         12    1    1    2    0    0 -0.18429720690E+02  0.73796438864E+01 -0.35483119574E+02  0.40659138251E+02  0.00000000000E+00 0. -1.
         11    1    3    3    0    0  0.16367556920E+02  0.51719085601E+01  0.16106876214E+02  0.23538840654E+02  0.51100000000E-03 0. -1.
        -11    1    3    3    0    0  0.61190634203E+01 -0.59645723023E+00  0.58265014022E+01  0.84703492974E+01  0.51100000000E-03 0.  1.
        -12    1    3    3    0    0 -0.40568996495E+01 -0.11955095216E+02  0.13549741957E+02  0.18519671798E+02  0.00000000000E+00 0.  1.
</event>
<event>
 7    1  0.2575978E-011  0.5052885E+02  0.7816164E-02  0.1300439E+00
        -11   -1    0    0    0    0  0.00000000000E+00  0.00000000000E+00  0.45593999997E+02  0.45594000000E+02  0.51100000000E-03 0. -1.
         11   -1    0    0    0    0 -0.00000000000E+00 -0.00000000000E+00 -0.45593999997E+02  0.45594000000E+02  0.51100000000E-03 0.  1.
    9900012    2    1    2    0    0  0.27373338095E+02  0.15136454945E+02  0.25976038054E+02  0.50528850233E+02  0.29999970767E+02 0.  0.
         12    1    1    2    0    0 -0.27373338095E+02 -0.15136454945E+02 -0.25976038054E+02  0.40659149767E+02  0.00000000000E+00 0. -1.
         11    1    3    3    0    0  0.10555374421E+02  0.31307773162E+01 -0.26397732712E+01  0.11321930001E+02  0.51100000000E-03 0. -1.
        -11    1    3    3    0    0  0.20938678782E+01 -0.17666622657E+01 -0.13781623331E+01  0.30667099520E+01  0.51100000000E-03 0.  1.
         12    1    3    3    0    0  0.14724095796E+02  0.13772339895E+02  0.29993973659E+02  0.36140210279E+02  0.00000000000E+00 0. -1.
</event>
<event>
 7    1  0.2575978E-011  0.5052886E+02  0.7816164E-02  0.1300439E+00
        -11   -1    0    0    0    0  0.00000000000E+00  0.00000000000E+00  0.45593999997E+02  0.45594000000E+02  0.51100000000E-03 0.  1.
         11   -1    0    0    0    0 -0.00000000000E+00 -0.00000000000E+00 -0.45593999997E+02  0.45594000000E+02  0.51100000000E-03 0. -1.
    9900012    2    1    2    0    0 -0.39826087669E+02  0.81881613524E+01 -0.45864731774E-01  0.50528863894E+02  0.30000012292E+02 0.  0.
         12    1    1    2    0    0  0.39826087669E+02 -0.81881613524E+01  0.45864731774E-01  0.40659136106E+02  0.00000000000E+00 0. -1.
         11    1    3    3    0    0 -0.97044196961E+01 -0.45688566709E+01  0.10159412015E+01  0.10774151925E+02  0.51100000000E-03 0. -1.
        -11    1    3    3    0    0 -0.27159521837E+02  0.53158118257E+01 -0.83695143565E+01  0.28912735129E+02  0.51100000000E-03 0.  1.
        -12    1    3    3    0    0 -0.29621461351E+01  0.74412061977E+01  0.73077084233E+01  0.10841976840E+02  0.00000000000E+00 0.  1.
</event>
<event>
 7    1  0.2575978E-011  0.5052886E+02  0.7816164E-02  0.1300439E+00
        -11   -1    0    0    0    0  0.00000000000E+00  0.00000000000E+00  0.45593999997E+02  0.45594000000E+02  0.51100000000E-03 0. -1.
         11   -1    0    0    0    0 -0.00000000000E+00 -0.00000000000E+00 -0.45593999997E+02  0.45594000000E+02  0.51100000000E-03 0.  1.
    9900012    2    1    2    0    0 -0.37511498512E+02 -0.15717631377E+01 -0.15607132919E+02  0.50528861323E+02  0.30000004478E+02 0.  0.
         12    1    1    2    0    0  0.37511498512E+02  0.15717631377E+01  0.15607132919E+02  0.40659138677E+02  0.00000000000E+00 0. -1.
         11    1    3    3    0    0 -0.14361840794E+02  0.45623280610E+01 -0.58319184151E+01  0.16158235702E+02  0.51100000000E-03 0.  1.
        -11    1    3    3    0    0 -0.13061367349E+02 -0.10187964881E+02 -0.14964560895E+02  0.22323351640E+02  0.51100000000E-03 0. -1.
         12    1    3    3    0    0 -0.10088290369E+02  0.40538736823E+01  0.51893463910E+01  0.12047273981E+02  0.00000000000E+00 0. -1.
</event>
<event>
 7    1  0.2575978E-011  0.5052886E+02  0.7816164E-02  0.1300439E+00
        -11   -1    0    0    0    0  0.00000000000E+00  0.00000000000E+00  0.45593999997E+02  0.45594000000E+02  0.51100000000E-03 0.  1.
         11   -1    0    0    0    0 -0.00000000000E+00 -0.00000000000E+00 -0.45593999997E+02  0.45594000000E+02  0.51100000000E-03 0. -1.
    9900012    2    1    2    0    0 -0.13681819519E+02  0.16992351778E+02  0.34310833007E+02  0.50528862455E+02  0.30000007919E+02 0.  0.
         12    1    1    2    0    0  0.13681819519E+02 -0.16992351778E+02 -0.34310833007E+02  0.40659137545E+02  0.00000000000E+00 0. -1.
         11    1    3    3    0    0 -0.76584436760E-02  0.46650847845E+01  0.25299809894E+02  0.25726318346E+02  0.51100000000E-03 0.  1.
        -11    1    3    3    0    0 -0.11078701873E+01  0.95038541060E+00  0.76596682887E+01  0.77975077643E+01  0.51100000000E-03 0. -1.
         12    1    3    3    0    0 -0.12566290888E+02  0.11376881583E+02  0.13513548236E+01  0.17005036345E+02  0.00000000000E+00 0. -1.
</event>
<event>
 7    1  0.2575978E-011  0.5052877E+02  0.7816164E-02  0.1300439E+00
        -11   -1    0    0    0    0  0.00000000000E+00  0.00000000000E+00  0.45593999997E+02  0.45594000000E+02  0.51100000000E-03 0. -1.
         11   -1    0    0    0    0 -0.00000000000E+00 -0.00000000000E+00 -0.45593999997E+02  0.45594000000E+02  0.51100000000E-03 0.  1.
    9900012    2    1    2    0    0 -0.25816685279E+02 -0.30714588887E+02  0.65791728246E+01  0.50528773195E+02  0.29999736604E+02 0.  0.
         12    1    1    2    0    0  0.25816685279E+02  0.30714588887E+02 -0.65791728246E+01  0.40659226805E+02  0.00000000000E+00 0. -1.
         11    1    3    3    0    0 -0.12910031757E+02 -0.16453542382E+02  0.12995296936E+02  0.24622463719E+02  0.51100000000E-03 0.  1.
        -11    1    3    3    0    0 -0.11720045192E+01 -0.10162503807E+02  0.25948866048E+01  0.10553838874E+02  0.51100000000E-03 0. -1.
        -12    1    3    3    0    0 -0.11734649003E+02 -0.40985426976E+01 -0.90110107162E+01  0.15352470602E+02  0.00000000000E+00 0.  1.
</event>
<event>
 7    1  0.2575978E-011  0.5052886E+02  0.7816164E-02  0.1300439E+00
        -11   -1    0    0    0    0  0.00000000000E+00  0.00000000000E+00  0.45593999997E+02  0.45594000000E+02  0.51100000000E-03 0.  1.
         11   -1    0    0    0    0 -0.00000000000E+00 -0.00000000000E+00 -0.45593999997E+02  0.45594000000E+02  0.51100000000E-03 0. -1.
    9900012    2    1    2    0    0  0.21120135069E+02 -0.19760609989E+02  0.28576628581E+02  0.50528861869E+02  0.30000006136E+02 0.  0.
         12    1    1    2    0    0 -0.21120135069E+02  0.19760609989E+02 -0.28576628581E+02  0.40659138131E+02  0.00000000000E+00 0. -1.
         11    1    3    3    0    0 -0.19222741489E+01 -0.94130570303E+00  0.10418894084E+02  0.10636472561E+02  0.51100000000E-03 0. -1.
        -11    1    3    3    0    0  0.38610185234E+01 -0.26988485776E+01 -0.42003705191E+01  0.63114467788E+01  0.51100000000E-03 0.  1.
        -12    1    3    3    0    0  0.19181390695E+02 -0.16120455709E+02  0.22358105016E+02  0.33580942529E+02  0.00000000000E+00 0.  1.
</event>
<event>
 7    1  0.2575978E-011  0.5052886E+02  0.7816164E-02  0.1300439E+00
        -11   -1    0    0    0    0  0.00000000000E+00  0.00000000000E+00  0.45593999997E+02  0.45594000000E+02  0.51100000000E-03 0.  1.
         11   -1    0    0    0    0 -0.00000000000E+00 -0.00000000000E+00 -0.45593999997E+02  0.45594000000E+02  0.51100000000E-03 0. -1.
    9900012    2    1    2    0    0  0.23716633769E+02 -0.11374062454E+02  0.31005118428E+02  0.50528863477E+02  0.30000011025E+02 0.  0.
         12    1    1    2    0    0 -0.23716633769E+02  0.11374062454E+02 -0.31005118428E+02  0.40659136523E+02  0.00000000000E+00 0. -1.
         11    1    3    3    0    0  0.12768475145E+02  0.24970970128E+01  0.10109150403E+02  0.16476175926E+02  0.51100000000E-03 0. -1.
        -11    1    3    3    0    0  0.15359942356E+02 -0.59969184356E+01  0.18359430937E+02  0.24677106080E+02  0.51100000000E-03 0.  1.
        -12    1    3    3    0    0 -0.44117837319E+01 -0.78742410312E+01  0.25365370880E+01  0.93755814707E+01  0.00000000000E+00 0.  1.
</event>
<event>
 7    1  0.2575978E-011  0.5052885E+02  0.7816164E-02  0.1300439E+00
        -11   -1    0    0    0    0  0.00000000000E+00  0.00000000000E+00  0.45593999997E+02  0.45594000000E+02  0.51100000000E-03 0.  1.
         11   -1    0    0    0    0 -0.00000000000E+00 -0.00000000000E+00 -0.45593999997E+02  0.45594000000E+02  0.51100000000E-03 0. -1.
    9900012    2    1    2    0    0 -0.11665331287E+02  0.38931515739E+02 -0.11929961634E+01  0.50528854515E+02  0.29999983782E+02 0.  0.
         12    1    1    2    0    0  0.11665331287E+02 -0.38931515739E+02  0.11929961634E+01  0.40659145485E+02  0.00000000000E+00 0. -1.
         11    1    3    3    0    0 -0.36711502753E+01  0.15688497723E+01  0.46593619316E+00  0.40194192055E+01  0.51100000000E-03 0.  1.
        -11    1    3    3    0    0 -0.43431152648E+01  0.26938381638E+02  0.11254994746E+02  0.29516333825E+02  0.51100000000E-03 0. -1.
         12    1    3    3    0    0 -0.36510657473E+01  0.10424284328E+02 -0.12913927102E+02  0.16993101484E+02  0.00000000000E+00 0. -1.
</event>
<event>
 7    1  0.2575978E-011  0.5052886E+02  0.7816164E-02  0.1300439E+00
        -11   -1    0    0    0    0  0.00000000000E+00  0.00000000000E+00  0.45593999997E+02  0.45594000000E+02  0.51100000000E-03 0. -1.
         11   -1    0    0    0    0 -0.00000000000E+00 -0.00000000000E+00 -0.45593999997E+02  0.45594000000E+02  0.51100000000E-03 0.  1.
    9900012    2    1    2    0    0 -0.19575039064E+02  0.28289993617E+02 -0.21671641294E+02  0.50528856753E+02  0.29999990587E+02 0.  0.
         12    1    1    2    0    0  0.19575039064E+02 -0.28289993617E+02  0.21671641294E+02  0.40659143247E+02  0.00000000000E+00 0. -1.
         11    1    3    3    0    0 -0.49045833711E+01 -0.21775081079E+01 -0.12792207301E+02  0.13872168089E+02  0.51100000000E-03 0. -1.
        -11    1    3    3    0    0 -0.40133928575E+01  0.34951972594E+01 -0.51688216965E+01  0.74189247268E+01  0.51100000000E-03 0.  1.
        -12    1    3    3    0    0 -0.10657062836E+02  0.26972304465E+02 -0.37106122967E+01  0.29237763937E+02  0.00000000000E+00 0.  1.
</event>
<event>
 7    1  0.2575978E-011  0.5052884E+02  0.7816164E-02  0.1300439E+00
        -11   -1    0    0    0    0  0.00000000000E+00  0.00000000000E+00  0.45593999997E+02  0.45594000000E+02  0.51100000000E-03 0.  1.
         11   -1    0    0    0    0 -0.00000000000E+00 -0.00000000000E+00 -0.45593999997E+02  0.45594000000E+02  0.51100000000E-03 0. -1.
    9900012    2    1    2    0    0  0.36578085978E+02  0.27588453086E+01  0.17538514965E+02  0.50528842256E+02  0.29999946522E+02 0.  0.
         12    1    1    2    0    0 -0.36578085978E+02 -0.27588453086E+01 -0.17538514965E+02  0.40659157744E+02  0.00000000000E+00 0. -1.
         11    1    3    3    0    0  0.25144994826E+01 -0.38528350688E+01  0.49343308094E+01  0.67464558483E+01  0.51100000000E-03 0. -1.
        -11    1    3    3    0    0  0.17019319073E+02  0.86987051627E+00  0.18213202889E+02  0.24942627290E+02  0.51100000000E-03 0.  1.
         12    1    3    3    0    0  0.17044267423E+02  0.57418098611E+01 -0.56090187333E+01  0.18839759118E+02  0.00000000000E+00 0. -1.
</event>
<event>
 7    1  0.2575978E-011  0.5052889E+02  0.7816164E-02  0.1300439E+00
        -11   -1    0    0    0    0  0.00000000000E+00  0.00000000000E+00  0.45593999997E+02  0.45594000000E+02  0.51100000000E-03 0.  1.
         11   -1    0    0    0    0 -0.00000000000E+00 -0.00000000000E+00 -0.45593999997E+02  0.45594000000E+02  0.51100000000E-03 0. -1.
    9900012    2    1    2    0    0  0.16455793646E+02  0.13198898300E+02  0.34758580024E+02  0.50528893442E+02  0.30000102106E+02 0.  0.
         12    1    1    2    0    0 -0.16455793646E+02 -0.13198898300E+02 -0.34758580024E+02  0.40659106558E+02  0.00000000000E+00 0. -1.
         11    1    3    3    0    0 -0.30874071700E+01 -0.27839799045E+01  0.12259556042E+01  0.43342351743E+01  0.51100000000E-03 0. -1.
        -11    1    3    3    0    0  0.16516630964E+02  0.15314292656E+02  0.14224875445E+02  0.26639702319E+02  0.51100000000E-03 0.  1.
         12    1    3    3    0    0  0.30265698515E+01  0.66858554935E+00  0.19307748974E+02  0.19554955949E+02  0.00000000000E+00 0. -1.
</event>
<event>
 7    1  0.2575978E-011  0.5052886E+02  0.7816164E-02  0.1300439E+00
        -11   -1    0    0    0    0  0.00000000000E+00  0.00000000000E+00  0.45593999997E+02  0.45594000000E+02  0.51100000000E-03 0.  1.
         11   -1    0    0    0    0 -0.00000000000E+00 -0.00000000000E+00 -0.45593999997E+02  0.45594000000E+02  0.51100000000E-03 0. -1.
    9900012    2    1    2    0    0  0.28485888069E+02  0.18879002784E+02  0.22029588828E+02  0.50528863891E+02  0.30000012283E+02 0.  0.
         12    1    1    2    0    0 -0.28485888069E+02 -0.18879002784E+02 -0.22029588828E+02  0.40659136109E+02  0.00000000000E+00 0. -1.
         11    1    3    3    0    0  0.25989564449E+01 -0.33813887493E+01  0.65232827220E+01  0.77936886138E+01  0.51100000000E-03 0. -1.
        -11    1    3    3    0    0  0.17682996485E+02  0.18326539399E+02  0.20192810375E+02  0.32500769254E+02  0.51100000000E-03 0.  1.
        -12    1    3    3    0    0  0.82039351385E+01  0.39338521350E+01 -0.46865042688E+01  0.10234406023E+02  0.00000000000E+00 0.  1.
</event>
<event>
 7    1  0.2575978E-011  0.5052885E+02  0.7816164E-02  0.1300439E+00
        -11   -1    0    0    0    0  0.00000000000E+00  0.00000000000E+00  0.45593999997E+02  0.45594000000E+02  0.51100000000E-03 0.  1.
         11   -1    0    0    0    0 -0.00000000000E+00 -0.00000000000E+00 -0.45593999997E+02  0.45594000000E+02  0.51100000000E-03 0. -1.
    9900012    2    1    2    0    0  0.38391726844E+02  0.12691867959E+02 -0.42612114462E+01  0.50528854346E+02  0.29999983269E+02 0.  0.
         12    1    1    2    0    0 -0.38391726844E+02 -0.12691867959E+02  0.42612114462E+01  0.40659145654E+02  0.00000000000E+00 0. -1.
         11    1    3    3    0    0  0.16592802683E+02  0.12888543467E+02 -0.77673793229E+01  0.22400174897E+02  0.51100000000E-03 0. -1.
        -11    1    3    3    0    0  0.16889026350E+02  0.16647938492E+01  0.10061746746E+02  0.19729406921E+02  0.51100000000E-03 0.  1.
         12    1    3    3    0    0  0.49098978105E+01 -0.18614693575E+01 -0.65555788694E+01  0.83992725275E+01  0.00000000000E+00 0. -1.
</event>
<event>
 7    1  0.2833442E-011  0.5052886E+02  0.7816164E-02  0.1300439E+00
        -11   -1    0    0    0    0  0.00000000000E+00  0.00000000000E+00  0.45593999997E+02  0.45594000000E+02  0.51100000000E-03 0. -1.
         11   -1    0    0    0    0 -0.00000000000E+00 -0.00000000000E+00 -0.45593999997E+02  0.45594000000E+02  0.51100000000E-03 0.  1.
    9900012    2    1    2    0    0  0.17697968825E+02 -0.14205411276E+02 -0.33736534313E+02  0.50528861329E+02  0.30000004496E+02 0.  0.
         12    1    1    2    0    0 -0.17697968825E+02  0.14205411276E+02  0.33736534313E+02  0.40659138671E+02  0.00000000000E+00 0. -1.
         11    1    3    3    0    0 -0.26342418249E+00  0.28855359755E+01  0.11583777215E+01  0.31205046664E+01  0.51100000000E-03 0. -1.
        -11    1    3    3    0    0  0.83679779513E+01  0.17074160159E+01 -0.27838020989E+01  0.89826431986E+01  0.51100000000E-03 0.  1.
        -12    1    3    3    0    0  0.95934150559E+01 -0.18798363267E+02 -0.32111109935E+02  0.38425713464E+02  0.00000000000E+00 0.  1.
</event>
<event>
 7    1  0.2575978E-011  0.5052886E+02  0.7816164E-02  0.1300439E+00
        -11   -1    0    0    0    0  0.00000000000E+00  0.00000000000E+00  0.45593999997E+02  0.45594000000E+02  0.51100000000E-03 0.  1.
         11   -1    0    0    0    0 -0.00000000000E+00 -0.00000000000E+00 -0.45593999997E+02  0.45594000000E+02  0.51100000000E-03 0. -1.
    9900012    2    1    2    0    0  0.20197637458E+02  0.26536694284E+02  0.23259944940E+02  0.50528859071E+02  0.29999997633E+02 0.  0.
         12    1    1    2    0    0 -0.20197637458E+02 -0.26536694284E+02 -0.23259944940E+02  0.40659140929E+02  0.00000000000E+00 0. -1.
         11    1    3    3    0    0  0.47891967129E+01  0.11084748925E+02  0.12266338844E+02  0.17212528367E+02  0.51100000000E-03 0. -1.
        -11    1    3    3    0    0  0.57556859353E+01  0.19541857308E+02  0.10253644828E+02  0.22806782766E+02  0.51100000000E-03 0.  1.
        -12    1    3    3    0    0  0.96527548101E+01 -0.40899119492E+01  0.73996126808E+00  0.10509547938E+02  0.00000000000E+00 0.  1.
</event>
<event>
 7    1  0.2575978E-011  0.5052886E+02  0.7816164E-02  0.1300439E+00
        -11   -1    0    0    0    0  0.00000000000E+00  0.00000000000E+00  0.45593999997E+02  0.45594000000E+02  0.51100000000E-03 0. -1.
         11   -1    0    0    0    0 -0.00000000000E+00 -0.00000000000E+00 -0.45593999997E+02  0.45594000000E+02  0.51100000000E-03 0.  1.
    9900012    2    1    2    0    0  0.24777767480E+02 -0.30107331911E+02  0.11522877895E+02  0.50528856981E+02  0.29999991279E+02 0.  0.
         12    1    1    2    0    0 -0.24777767480E+02  0.30107331911E+02 -0.11522877895E+02  0.40659143019E+02  0.00000000000E+00 0. -1.
         11    1    3    3    0    0 -0.82694330877E+00  0.38187796364E+01  0.25160145705E+01  0.46472833707E+01  0.51100000000E-03 0. -1.
        -11    1    3    3    0    0  0.90352497335E+01 -0.18849213566E+02  0.10572921438E+02  0.23424671990E+02  0.51100000000E-03 0.  1.
        -12    1    3    3    0    0  0.16569461055E+02 -0.15076897981E+02 -0.15660581138E+01  0.22456901620E+02  0.00000000000E+00 0.  1.
</event>
<event>
 7    1  0.2575978E-011  0.5052892E+02  0.7816164E-02  0.1300439E+00
        -11   -1    0    0    0    0  0.00000000000E+00  0.00000000000E+00  0.45593999997E+02  0.45594000000E+02  0.51100000000E-03 0.  1.
         11   -1    0    0    0    0 -0.00000000000E+00 -0.00000000000E+00 -0.45593999997E+02  0.45594000000E+02  0.51100000000E-03 0. -1.
    9900012    2    1    2    0    0  0.13091821607E+00 -0.67229075353E+01  0.40099199953E+02  0.50528923987E+02  0.30000194952E+02 0.  0.
         12    1    1    2    0    0 -0.13091821607E+00  0.67229075353E+01 -0.40099199953E+02  0.40659076013E+02  0.00000000000E+00 0. -1.
         11    1    3    3    0    0  0.42441583425E+01  0.13020679706E+01  0.14187096046E+02  0.14865461833E+02  0.51100000000E-03 0. -1.
        -11    1    3    3    0    0  0.38293386835E+01  0.64956346259E+01  0.52415123467E+01  0.91831669858E+01  0.51100000000E-03 0.  1.
         12    1    3    3    0    0 -0.79425788099E+01 -0.14520610132E+02  0.20670591561E+02  0.26480295169E+02  0.00000000000E+00 0. -1.
</event>
<event>
 7    1  0.2575978E-011  0.5052886E+02  0.7816164E-02  0.1300439E+00
        -11   -1    0    0    0    0  0.00000000000E+00  0.00000000000E+00  0.45593999997E+02  0.45594000000E+02  0.51100000000E-03 0.  1.
         11   -1    0    0    0    0 -0.00000000000E+00 -0.00000000000E+00 -0.45593999997E+02  0.45594000000E+02  0.51100000000E-03 0. -1.
    9900012    2    1    2    0    0  0.30910432759E+02  0.23670282593E+02 -0.11722990157E+02  0.50528860442E+02  0.30000001801E+02 0.  0.
         12    1    1    2    0    0 -0.30910432759E+02 -0.23670282593E+02  0.11722990157E+02  0.40659139558E+02  0.00000000000E+00 0. -1.
         11    1    3    3    0    0  0.18849022982E+02  0.90317111178E+01 -0.77777848319E+01  0.22301376869E+02  0.51100000000E-03 0. -1.
        -11    1    3    3    0    0  0.15247890845E+02  0.15787587235E+02  0.12960181219E+01  0.21986944971E+02  0.51100000000E-03 0.  1.
         12    1    3    3    0    0 -0.31864810693E+01 -0.11490157600E+01 -0.52412234473E+01  0.62405386022E+01  0.00000000000E+00 0. -1.
</event>
<event>
 7    1  0.2575978E-011  0.5052886E+02  0.7816164E-02  0.1300439E+00
        -11   -1    0    0    0    0  0.00000000000E+00  0.00000000000E+00  0.45593999997E+02  0.45594000000E+02  0.51100000000E-03 0. -1.
         11   -1    0    0    0    0 -0.00000000000E+00 -0.00000000000E+00 -0.45593999997E+02  0.45594000000E+02  0.51100000000E-03 0.  1.
    9900012    2    1    2    0    0  0.36105652809E+02 -0.16974094098E+02 -0.78375770566E+01  0.50528860199E+02  0.30000001061E+02 0.  0.
         12    1    1    2    0    0 -0.36105652809E+02  0.16974094098E+02  0.78375770566E+01  0.40659139801E+02  0.00000000000E+00 0. -1.
         11    1    3    3    0    0  0.12026549449E+02 -0.13156858263E+02  0.32868010792E+01  0.18125779227E+02  0.51100000000E-03 0. -1.
        -11    1    3    3    0    0  0.14932612170E+02 -0.97333071986E+01 -0.15352737250E+01  0.17890702639E+02  0.51100000000E-03 0.  1.
        -12    1    3    3    0    0  0.91464911903E+01  0.59160713637E+01 -0.95891044108E+01  0.14512378333E+02  0.00000000000E+00 0.  1.
</event>
<event>
 7    1  0.2575978E-011  0.5052885E+02  0.7816164E-02  0.1300439E+00
        -11   -1    0    0    0    0  0.00000000000E+00  0.00000000000E+00  0.45593999997E+02  0.45594000000E+02  0.51100000000E-03 0.  1.
         11   -1    0    0    0    0 -0.00000000000E+00 -0.00000000000E+00 -0.45593999997E+02  0.45594000000E+02  0.51100000000E-03 0. -1.
    9900012    2    1    2    0    0 -0.50179133817E+01 -0.39962439278E+02 -0.55668791902E+01  0.50528854022E+02  0.29999982285E+02 0.  0.
         12    1    1    2    0    0  0.50179133817E+01  0.39962439278E+02  0.55668791902E+01  0.40659145978E+02  0.00000000000E+00 0. -1.
         11    1    3    3    0    0  0.41669739486E+01 -0.95014382652E+01 -0.19034500160E+01  0.10548181038E+02  0.51100000000E-03 0. -1.
        -11    1    3    3    0    0 -0.58598114745E-01 -0.26545377578E+02  0.47475122389E+01  0.26966634518E+02  0.51100000000E-03 0.  1.
        -12    1    3    3    0    0 -0.91262892155E+01 -0.39156234343E+01 -0.84109414131E+01  0.13014038465E+02  0.00000000000E+00 0.  1.
</event>
<event>
 7    1  0.2575978E-011  0.5052886E+02  0.7816164E-02  0.1300439E+00
        -11   -1    0    0    0    0  0.00000000000E+00  0.00000000000E+00  0.45593999997E+02  0.45594000000E+02  0.51100000000E-03 0.  1.
         11   -1    0    0    0    0 -0.00000000000E+00 -0.00000000000E+00 -0.45593999997E+02  0.45594000000E+02  0.51100000000E-03 0. -1.
    9900012    2    1    2    0    0  0.58371897122E+01 -0.39414144764E+02  0.81004857862E+01  0.50528862513E+02  0.30000008096E+02 0.  0.
         12    1    1    2    0    0 -0.58371897122E+01  0.39414144764E+02 -0.81004857862E+01  0.40659137487E+02  0.00000000000E+00 0. -1.
         11    1    3    3    0    0 -0.34018791890E+00 -0.23713607780E+02  0.84415985834E+00  0.23731066725E+02  0.51100000000E-03 0. -1.
        -11    1    3    3    0    0  0.21578566587E+01 -0.14173288308E+02 -0.38865361633E+01  0.14854077233E+02  0.51100000000E-03 0.  1.
         12    1    3    3    0    0  0.40195209723E+01 -0.15272486753E+01  0.11142862091E+02  0.11943718556E+02  0.00000000000E+00 0. -1.
</event>
<event>
 7    1  0.2575978E-011  0.5052885E+02  0.7816164E-02  0.1300439E+00
        -11   -1    0    0    0    0  0.00000000000E+00  0.00000000000E+00  0.45593999997E+02  0.45594000000E+02  0.51100000000E-03 0.  1.
         11   -1    0    0    0    0 -0.00000000000E+00 -0.00000000000E+00 -0.45593999997E+02  0.45594000000E+02  0.51100000000E-03 0. -1.
    9900012    2    1    2    0    0  0.16727394457E+02 -0.25104200870E+02  0.27260589281E+02  0.50528851527E+02  0.29999974701E+02 0.  0.
         12    1    1    2    0    0 -0.16727394457E+02  0.25104200870E+02 -0.27260589281E+02  0.40659148473E+02  0.00000000000E+00 0. -1.
         11    1    3    3    0    0 -0.45904427609E+01 -0.13258391570E+02  0.13829573970E+02  0.19700614919E+02  0.51100000000E-03 0. -1.
        -11    1    3    3    0    0  0.16715978910E+01 -0.73686159028E+01  0.44355651513E+01  0.87615625492E+01  0.51100000000E-03 0.  1.
         12    1    3    3    0    0  0.19646239327E+02 -0.44771933972E+01  0.89954501597E+01  0.22066674058E+02  0.00000000000E+00 0. -1.
</event>
<event>
 7    1  0.2575978E-011  0.5052882E+02  0.7816164E-02  0.1300439E+00
        -11   -1    0    0    0    0  0.00000000000E+00  0.00000000000E+00  0.45593999997E+02  0.45594000000E+02  0.51100000000E-03 0.  1.
         11   -1    0    0    0    0 -0.00000000000E+00 -0.00000000000E+00 -0.45593999997E+02  0.45594000000E+02  0.51100000000E-03 0. -1.
    9900012    2    1    2    0    0  0.49386817572E+01 -0.37568220487E+02  0.14744721911E+02  0.50528824009E+02  0.29999891057E+02 0.  0.
         12    1    1    2    0    0 -0.49386817572E+01  0.37568220487E+02 -0.14744721911E+02  0.40659175991E+02  0.00000000000E+00 0. -1.
         11    1    3    3    0    0  0.16899142432E+01 -0.13926168001E+02  0.16584810460E+02  0.21722106334E+02  0.51100000000E-03 0.  1.
        -11    1    3    3    0    0  0.12991605323E+01  0.20288726262E+01 -0.18896010822E+01  0.30618188602E+01  0.51100000000E-03 0. -1.
        -12    1    3    3    0    0  0.19496069818E+01 -0.25670925112E+02  0.49512532920E-01  0.25744898814E+02  0.00000000000E+00 0.  1.
</event>
<event>
 7    1  0.2575978E-011  0.5052886E+02  0.7816164E-02  0.1300439E+00
        -11   -1    0    0    0    0  0.00000000000E+00  0.00000000000E+00  0.45593999997E+02  0.45594000000E+02  0.51100000000E-03 0.  1.
         11   -1    0    0    0    0 -0.00000000000E+00 -0.00000000000E+00 -0.45593999997E+02  0.45594000000E+02  0.51100000000E-03 0. -1.
    9900012    2    1    2    0    0  0.27079384681E+02 -0.25412995247E+02  0.16554516735E+02  0.50528862940E+02  0.30000009393E+02 0.  0.
         12    1    1    2    0    0 -0.27079384681E+02  0.25412995247E+02 -0.16554516735E+02  0.40659137060E+02  0.00000000000E+00 0. -1.
         11    1    3    3    0    0  0.25579270336E+01 -0.16580505465E+02  0.10513933757E+02  0.19798963495E+02  0.51100000000E-03 0. -1.
        -11    1    3    3    0    0  0.56898598662E+01 -0.88948052884E+01 -0.10421957703E+01  0.10610289285E+02  0.51100000000E-03 0.  1.
        -12    1    3    3    0    0  0.18831597781E+02  0.62315506089E-01  0.70827787490E+01  0.20119610161E+02  0.00000000000E+00 0.  1.
</event>
<event>
 7    1  0.2575978E-011  0.5052885E+02  0.7816164E-02  0.1300439E+00
        -11   -1    0    0    0    0  0.00000000000E+00  0.00000000000E+00  0.45593999997E+02  0.45594000000E+02  0.51100000000E-03 0. -1.
         11   -1    0    0    0    0 -0.00000000000E+00 -0.00000000000E+00 -0.45593999997E+02  0.45594000000E+02  0.51100000000E-03 0.  1.
    9900012    2    1    2    0    0 -0.13515568010E+01  0.40426152225E+02  0.41310613137E+01  0.50528853955E+02  0.29999982081E+02 0.  0.
         12    1    1    2    0    0  0.13515568010E+01 -0.40426152225E+02 -0.41310613137E+01  0.40659146045E+02  0.00000000000E+00 0. -1.
         11    1    3    3    0    0  0.97736263471E+00  0.20265616337E+01 -0.78837437470E+01  0.81985123958E+01  0.51100000000E-03 0. -1.
        -11    1    3    3    0    0 -0.53181886058E+01  0.77614064912E+01  0.53855063485E+01  0.10840951972E+02  0.51100000000E-03 0.  1.
        -12    1    3    3    0    0  0.29892691701E+01  0.30638184101E+02  0.66292987122E+01  0.31489389587E+02  0.00000000000E+00 0.  1.
</event>
<event>
 7    1  0.2575978E-011  0.5052879E+02  0.7816164E-02  0.1300439E+00
        -11   -1    0    0    0    0  0.00000000000E+00  0.00000000000E+00  0.45593999997E+02  0.45594000000E+02  0.51100000000E-03 0. -1.
         11   -1    0    0    0    0 -0.00000000000E+00 -0.00000000000E+00 -0.45593999997E+02  0.45594000000E+02  0.51100000000E-03 0.  1.
    9900012    2    1    2    0    0  0.31434444982E+02 -0.21707595083E+02 -0.13922203089E+02  0.50528785123E+02  0.29999772858E+02 0.  0.
         12    1    1    2    0    0 -0.31434444982E+02  0.21707595083E+02  0.13922203089E+02  0.40659214877E+02  0.00000000000E+00 0. -1.
         11    1    3    3    0    0  0.56924141499E+01 -0.78353766578E+01  0.39535080100E+01  0.10460732865E+02  0.51100000000E-03 0. -1.
        -11    1    3    3    0    0 -0.14080280174E+01  0.10619946378E+00  0.28370351623E+01  0.31690045752E+01  0.51100000000E-03 0.  1.
        -12    1    3    3    0    0  0.27150058849E+02 -0.13978417889E+02 -0.20712746261E+02  0.36899047683E+02  0.00000000000E+00 0.  1.
</event>
<event>
 7    1  0.2575978E-011  0.5052894E+02  0.7816164E-02  0.1300438E+00
        -11   -1    0    0    0    0  0.00000000000E+00  0.00000000000E+00  0.45593999997E+02  0.45594000000E+02  0.51100000000E-03 0.  1.
         11   -1    0    0    0    0 -0.00000000000E+00 -0.00000000000E+00 -0.45593999997E+02  0.45594000000E+02  0.51100000000E-03 0. -1.
    9900012    2    1    2    0    0 -0.22165502559E+02 -0.22516165805E+02  0.25590457937E+02  0.50528944875E+02  0.30000258440E+02 0.  0.
         12    1    1    2    0    0  0.22165502559E+02  0.22516165805E+02 -0.25590457937E+02  0.40659055125E+02  0.00000000000E+00 0. -1.
         11    1    3    3    0    0 -0.49639870642E+00 -0.12457659319E+02  0.15192611748E+02  0.19653374758E+02  0.51100000000E-03 0. -1.
        -11    1    3    3    0    0  0.12639571701E+01 -0.22713781198E+01  0.56167384535E+01  0.61890627245E+01  0.51100000000E-03 0.  1.
        -12    1    3    3    0    0 -0.22933061023E+02 -0.77871283659E+01  0.47811077361E+01  0.24686507393E+02  0.00000000000E+00 0.  1.
</event>
<event>
 7    1  0.2575978E-011  0.5052885E+02  0.7816164E-02  0.1300439E+00
        -11   -1    0    0    0    0  0.00000000000E+00  0.00000000000E+00  0.45593999997E+02  0.45594000000E+02  0.51100000000E-03 0. -1.
         11   -1    0    0    0    0 -0.00000000000E+00 -0.00000000000E+00 -0.45593999997E+02  0.45594000000E+02  0.51100000000E-03 0.  1.
    9900012    2    1    2    0    0  0.11515682598E+01 -0.39165497730E+02  0.10858354092E+02  0.50528853729E+02  0.29999981394E+02 0.  0.
         12    1    1    2    0    0 -0.11515682598E+01  0.39165497730E+02 -0.10858354092E+02  0.40659146271E+02  0.00000000000E+00 0. -1.
         11    1    3    3    0    0  0.23545599327E+01 -0.71148171015E+01 -0.24583832075E+01  0.78872189725E+01  0.51100000000E-03 0. -1.
        -11    1    3    3    0    0 -0.12771638023E+01 -0.46682805204E+01 -0.70245990833E+01  0.85304737815E+01  0.51100000000E-03 0.  1.
         12    1    3    3    0    0  0.74172129433E-01 -0.27382400108E+02  0.20341336383E+02  0.34111160975E+02  0.00000000000E+00 0. -1.
</event>
<event>
 7    1  0.2575978E-011  0.5052886E+02  0.7816164E-02  0.1300439E+00
        -11   -1    0    0    0    0  0.00000000000E+00  0.00000000000E+00  0.45593999997E+02  0.45594000000E+02  0.51100000000E-03 0. -1.
         11   -1    0    0    0    0 -0.00000000000E+00 -0.00000000000E+00 -0.45593999997E+02  0.45594000000E+02  0.51100000000E-03 0.  1.
    9900012    2    1    2    0    0  0.35030457671E+02 -0.13186987149E+02 -0.15878788803E+02  0.50528861685E+02  0.30000005576E+02 0.  0.
         12    1    1    2    0    0 -0.35030457671E+02  0.13186987149E+02  0.15878788803E+02  0.40659138315E+02  0.00000000000E+00 0. -1.
         11    1    3    3    0    0  0.23634621383E+02 -0.99066343497E+00 -0.51155691866E+01  0.24202185652E+02  0.51100000000E-03 0. -1.
        -11    1    3    3    0    0  0.15369297434E+02 -0.64210219707E+01 -0.54334216225E+01  0.17520470814E+02  0.51100000000E-03 0.  1.
        -12    1    3    3    0    0 -0.39734611456E+01 -0.57753017438E+01 -0.53297979936E+01  0.88062052191E+01  0.00000000000E+00 0.  1.
</event>
<event>
 7    1  0.2575978E-011  0.5052886E+02  0.7816164E-02  0.1300439E+00
        -11   -1    0    0    0    0  0.00000000000E+00  0.00000000000E+00  0.45593999997E+02  0.45594000000E+02  0.51100000000E-03 0. -1.
         11   -1    0    0    0    0 -0.00000000000E+00 -0.00000000000E+00 -0.45593999997E+02  0.45594000000E+02  0.51100000000E-03 0.  1.
    9900012    2    1    2    0    0  0.28192221012E+02  0.15469267170E+02  0.24881038263E+02  0.50528860592E+02  0.30000002255E+02 0.  0.
         12    1    1    2    0    0 -0.28192221012E+02 -0.15469267170E+02 -0.24881038263E+02  0.40659139408E+02  0.00000000000E+00 0. -1.
         11    1    3    3    0    0  0.57885992442E+01 -0.40498366727E+01  0.88920317193E+01  0.11356816748E+02  0.51100000000E-03 0. -1.
        -11    1    3    3    0    0  0.28959807704E+01  0.23064277409E+01 -0.46641794516E+01  0.59549041776E+01  0.51100000000E-03 0.  1.
         12    1    3    3    0    0  0.19507640997E+02  0.17212676102E+02  0.20653185995E+02  0.33217139666E+02  0.00000000000E+00 0. -1.
</event>
<event>
 7    1  0.2575978E-011  0.5052886E+02  0.7816164E-02  0.1300439E+00
        -11   -1    0    0    0    0  0.00000000000E+00  0.00000000000E+00  0.45593999997E+02  0.45594000000E+02  0.51100000000E-03 0. -1.
         11   -1    0    0    0    0 -0.00000000000E+00 -0.00000000000E+00 -0.45593999997E+02  0.45594000000E+02  0.51100000000E-03 0.  1.
    9900012    2    1    2    0    0  0.26160711532E+02 -0.15786784350E+02 -0.26824621486E+02  0.50528859504E+02  0.29999998950E+02 0.  0.
         12    1    1    2    0    0 -0.26160711532E+02  0.15786784350E+02  0.26824621486E+02  0.40659140496E+02  0.00000000000E+00 0. -1.
         11    1    3    3    0    0  0.56557324405E+01 -0.13839429052E+01  0.19434070463E+01  0.61383579736E+01  0.51100000000E-03 0. -1.
        -11    1    3    3    0    0  0.96227402347E+01 -0.18201243927E+02 -0.11365688789E+02  0.23517255197E+02  0.51100000000E-03 0.  1.
         12    1    3    3    0    0  0.10882238856E+02  0.37984024819E+01 -0.17402339744E+02  0.20873246334E+02  0.00000000000E+00 0. -1.
</event>
<event>
 7    1  0.2575978E-011  0.5052886E+02  0.7816164E-02  0.1300439E+00
        -11   -1    0    0    0    0  0.00000000000E+00  0.00000000000E+00  0.45593999997E+02  0.45594000000E+02  0.51100000000E-03 0. -1.
         11   -1    0    0    0    0 -0.00000000000E+00 -0.00000000000E+00 -0.45593999997E+02  0.45594000000E+02  0.51100000000E-03 0.  1.
    9900012    2    1    2    0    0 -0.27040187618E+02 -0.21298495376E+02 -0.21641805296E+02  0.50528863411E+02  0.30000010825E+02 0.  0.
         12    1    1    2    0    0  0.27040187618E+02  0.21298495376E+02  0.21641805296E+02  0.40659136589E+02  0.00000000000E+00 0. -1.
         11    1    3    3    0    0 -0.12912411370E+02 -0.39725578296E+01 -0.12156557246E+02  0.18173977754E+02  0.51100000000E-03 0. -1.
        -11    1    3    3    0    0 -0.31260078410E+01  0.28723887565E+01 -0.83017065951E+01  0.93242090733E+01  0.51100000000E-03 0.  1.
        -12    1    3    3    0    0 -0.11001768407E+02 -0.20198326303E+02 -0.11835414551E+01  0.23030676584E+02  0.00000000000E+00 0.  1.
</event>
<event>
 7    1  0.2575978E-011  0.5052886E+02  0.7816164E-02  0.1300439E+00
        -11   -1    0    0    0    0  0.00000000000E+00  0.00000000000E+00  0.45593999997E+02  0.45594000000E+02  0.51100000000E-03 0.  1.
         11   -1    0    0    0    0 -0.00000000000E+00 -0.00000000000E+00 -0.45593999997E+02  0.45594000000E+02  0.51100000000E-03 0. -1.
    9900012    2    1    2    0    0 -0.12365827172E+02 -0.20049246106E+02  0.33140298788E+02  0.50528863821E+02  0.30000012070E+02 0.  0.
         12    1    1    2    0    0  0.12365827172E+02  0.20049246106E+02 -0.33140298788E+02  0.40659136179E+02  0.00000000000E+00 0. -1.
         11    1    3    3    0    0 -0.18620760552E+02 -0.11344246650E+02  0.18376130333E+02  0.28515028001E+02  0.51100000000E-03 0. -1.
        -11    1    3    3    0    0 -0.34015339625E+01 -0.28536394000E+01  0.70768972182E+01  0.83544099506E+01  0.51100000000E-03 0.  1.
        -12    1    3    3    0    0  0.96564673422E+01 -0.58513600558E+01  0.76872712363E+01  0.13659425870E+02  0.00000000000E+00 0.  1.
</event>
<event>
 7    1  0.2575978E-011  0.5052886E+02  0.7816164E-02  0.1300439E+00
        -11   -1    0    0    0    0  0.00000000000E+00  0.00000000000E+00  0.45593999997E+02  0.45594000000E+02  0.51100000000E-03 0.  1.
         11   -1    0    0    0    0 -0.00000000000E+00 -0.00000000000E+00 -0.45593999997E+02  0.45594000000E+02  0.51100000000E-03 0. -1.
    9900012    2    1    2    0    0 -0.19132482595E+02  0.22919999295E+02  0.27600498544E+02  0.50528858620E+02  0.29999996261E+02 0.  0.
         12    1    1    2    0    0  0.19132482595E+02 -0.22919999295E+02 -0.27600498544E+02  0.40659141380E+02  0.00000000000E+00 0. -1.
         11    1    3    3    0    0 -0.60942828551E+01  0.68195123621E+01  0.22005702876E+01  0.94068348676E+01  0.51100000000E-03 0. -1.
        -11    1    3    3    0    0 -0.11546965440E+02  0.11050174550E+02  0.84064667059E+00  0.16004544840E+02  0.51100000000E-03 0.  1.
        -12    1    3    3    0    0 -0.14912342994E+01  0.50503123831E+01  0.24559281585E+02  0.25117478912E+02  0.00000000000E+00 0.  1.
</event>
<event>
 7    1  0.2575978E-011  0.5052887E+02  0.7816164E-02  0.1300439E+00
        -11   -1    0    0    0    0  0.00000000000E+00  0.00000000000E+00  0.45593999997E+02  0.45594000000E+02  0.51100000000E-03 0.  1.
         11   -1    0    0    0    0 -0.00000000000E+00 -0.00000000000E+00 -0.45593999997E+02  0.45594000000E+02  0.51100000000E-03 0. -1.
    9900012    2    1    2    0    0 -0.17681691985E+02 -0.25866527214E+02  0.25912261112E+02  0.50528871412E+02  0.30000035144E+02 0.  0.
         12    1    1    2    0    0  0.17681691985E+02  0.25866527214E+02 -0.25912261112E+02  0.40659128588E+02  0.00000000000E+00 0. -1.
         11    1    3    3    0    0 -0.12611983731E+02 -0.68536512206E+01  0.30091104950E+01  0.14665927005E+02  0.51100000000E-03 0. -1.
        -11    1    3    3    0    0 -0.45275513670E+00  0.14009404464E+01 -0.25288655099E+01  0.29262232274E+01  0.51100000000E-03 0.  1.
        -12    1    3    3    0    0 -0.46169531169E+01 -0.20413816440E+02  0.25432016127E+02  0.32936721179E+02  0.00000000000E+00 0.  1.
</event>
<event>
 7    1  0.2575978E-011  0.5052886E+02  0.7816164E-02  0.1300439E+00
        -11   -1    0    0    0    0  0.00000000000E+00  0.00000000000E+00  0.45593999997E+02  0.45594000000E+02  0.51100000000E-03 0.  1.
         11   -1    0    0    0    0 -0.00000000000E+00 -0.00000000000E+00 -0.45593999997E+02  0.45594000000E+02  0.51100000000E-03 0. -1.
    9900012    2    1    2    0    0  0.37305738163E+02 -0.26772832972E+01  0.15946150949E+02  0.50528859874E+02  0.30000000073E+02 0.  0.
         12    1    1    2    0    0 -0.37305738163E+02  0.26772832972E+01 -0.15946150949E+02  0.40659140126E+02  0.00000000000E+00 0. -1.
         11    1    3    3    0    0  0.57412370753E+00 -0.53014807368E+01  0.26584086393E+01  0.59583934739E+01  0.51100000000E-03 0. -1.
        -11    1    3    3    0    0  0.27913992217E+01 -0.57702940419E+01  0.61565447721E+01  0.88877019942E+01  0.51100000000E-03 0.  1.
        -12    1    3    3    0    0  0.33940215233E+02  0.83944914815E+01  0.71311975374E+01  0.35682764406E+02  0.00000000000E+00 0.  1.
</event>
<event>
 7    1  0.2575978E-011  0.5052889E+02  0.7816164E-02  0.1300439E+00
        -11   -1    0    0    0    0  0.00000000000E+00  0.00000000000E+00  0.45593999997E+02  0.45594000000E+02  0.51100000000E-03 0.  1.
         11   -1    0    0    0    0 -0.00000000000E+00 -0.00000000000E+00 -0.45593999997E+02  0.45594000000E+02  0.51100000000E-03 0. -1.
    9900012    2    1    2    0    0 -0.32560586233E+02  0.40639833233E+01  0.24009490400E+02  0.50528888283E+02  0.30000086425E+02 0.  0.
         12    1    1    2    0    0  0.32560586233E+02 -0.40639833233E+01 -0.24009490400E+02  0.40659111717E+02  0.00000000000E+00 0. -1.
         11    1    3    3    0    0 -0.63009486385E+01  0.97338790768E+01  0.89649664933E+01  0.14656772500E+02  0.51100000000E-03 0. -1.
        -11    1    3    3    0    0 -0.25466489109E+02 -0.75004710555E+01  0.18165442098E+02  0.32168034141E+02  0.51100000000E-03 0.  1.
        -12    1    3    3    0    0 -0.79314848612E+00  0.18305753021E+01 -0.31209181915E+01  0.37040816426E+01  0.00000000000E+00 0.  1.
</event>
<event>
 7    1  0.2575978E-011  0.5052885E+02  0.7816164E-02  0.1300439E+00
        -11   -1    0    0    0    0  0.00000000000E+00  0.00000000000E+00  0.45593999997E+02  0.45594000000E+02  0.51100000000E-03 0. -1.
         11   -1    0    0    0    0 -0.00000000000E+00 -0.00000000000E+00 -0.45593999997E+02  0.45594000000E+02  0.51100000000E-03 0.  1.
    9900012    2    1    2    0    0 -0.33092842263E+02 -0.23442920599E+02 -0.29085079171E+01  0.50528853999E+02  0.29999982216E+02 0.  0.
         12    1    1    2    0    0  0.33092842263E+02  0.23442920599E+02  0.29085079171E+01  0.40659146001E+02  0.00000000000E+00 0. -1.
         11    1    3    3    0    0 -0.10503497418E+02 -0.16433807900E+02 -0.32509566214E+01  0.19772764585E+02  0.51100000000E-03 0. -1.
        -11    1    3    3    0    0 -0.44218585414E+01  0.99654173178E+00 -0.80210433174E+01  0.92132005592E+01  0.51100000000E-03 0.  1.
         12    1    3    3    0    0 -0.18167486303E+02 -0.80056544302E+01  0.83634920216E+01  0.21542888855E+02  0.00000000000E+00 0. -1.
</event>
<event>
 7    1  0.2575978E-011  0.5052887E+02  0.7816164E-02  0.1300439E+00
        -11   -1    0    0    0    0  0.00000000000E+00  0.00000000000E+00  0.45593999997E+02  0.45594000000E+02  0.51100000000E-03 0.  1.
         11   -1    0    0    0    0 -0.00000000000E+00 -0.00000000000E+00 -0.45593999997E+02  0.45594000000E+02  0.51100000000E-03 0. -1.
    9900012    2    1    2    0    0 -0.30749859031E+02  0.16699667669E+02  0.20705848871E+02  0.50528869314E+02  0.30000028767E+02 0.  0.
         12    1    1    2    0    0  0.30749859031E+02 -0.16699667669E+02 -0.20705848871E+02  0.40659130686E+02  0.00000000000E+00 0. -1.
         11    1    3    3    0    0 -0.71850562270E+01  0.12215787036E+02  0.34552761387E+01  0.14587303361E+02  0.51100000000E-03 0. -1.
        -11    1    3    3    0    0  0.31930242142E+01  0.12124520666E+01  0.56331961054E+01  0.65877418187E+01  0.51100000000E-03 0.  1.
         12    1    3    3    0    0 -0.26757827018E+02  0.32714285665E+01  0.11617376627E+02  0.29353824134E+02  0.00000000000E+00 0. -1.
</event>
<event>
 7    1  0.2575978E-011  0.5052887E+02  0.7816164E-02  0.1300439E+00
        -11   -1    0    0    0    0  0.00000000000E+00  0.00000000000E+00  0.45593999997E+02  0.45594000000E+02  0.51100000000E-03 0. -1.
         11   -1    0    0    0    0 -0.00000000000E+00 -0.00000000000E+00 -0.45593999997E+02  0.45594000000E+02  0.51100000000E-03 0.  1.
    9900012    2    1    2    0    0  0.19268416643E+02  0.34329532951E+02 -0.10167400170E+02  0.50528871397E+02  0.30000035098E+02 0.  0.
         12    1    1    2    0    0 -0.19268416643E+02 -0.34329532951E+02  0.10167400170E+02  0.40659128603E+02  0.00000000000E+00 0. -1.
         11    1    3    3    0    0  0.16038212326E+02  0.15036551743E+02 -0.11149956459E+02  0.24650429453E+02  0.51100000000E-03 0. -1.
        -11    1    3    3    0    0  0.96485658549E+01  0.72255761878E+01 -0.86896230850E+00  0.12085481788E+02  0.51100000000E-03 0.  1.
         12    1    3    3    0    0 -0.64183615370E+01  0.12067405020E+02  0.18515185979E+01  0.13792960155E+02  0.00000000000E+00 0. -1.
</event>
<event>
 7    1  0.2575978E-011  0.5052887E+02  0.7816164E-02  0.1300439E+00
        -11   -1    0    0    0    0  0.00000000000E+00  0.00000000000E+00  0.45593999997E+02  0.45594000000E+02  0.51100000000E-03 0.  1.
         11   -1    0    0    0    0 -0.00000000000E+00 -0.00000000000E+00 -0.45593999997E+02  0.45594000000E+02  0.51100000000E-03 0. -1.
    9900012    2    1    2    0    0 -0.18925564725E+02  0.23271642410E+01  0.35910608743E+02  0.50528874163E+02  0.30000043506E+02 0.  0.
         12    1    1    2    0    0  0.18925564725E+02 -0.23271642410E+01 -0.35910608743E+02  0.40659125837E+02  0.00000000000E+00 0. -1.
         11    1    3    3    0    0  0.11029454771E+01  0.23690350358E+01 -0.24834539096E+01  0.36050463670E+01  0.51100000000E-03 0. -1.
        -11    1    3    3    0    0  0.69988959317E+00  0.19478457180E+01 -0.10496982817E+01  0.23207359022E+01  0.51100000000E-03 0.  1.
        -12    1    3    3    0    0 -0.20728399795E+02 -0.19897165129E+01  0.39443760934E+02  0.44603091894E+02  0.00000000000E+00 0.  1.
</event>
<event>
 7    1  0.2575978E-011  0.5052886E+02  0.7816164E-02  0.1300439E+00
        -11   -1    0    0    0    0  0.00000000000E+00  0.00000000000E+00  0.45593999997E+02  0.45594000000E+02  0.51100000000E-03 0. -1.
         11   -1    0    0    0    0 -0.00000000000E+00 -0.00000000000E+00 -0.45593999997E+02  0.45594000000E+02  0.51100000000E-03 0.  1.
    9900012    2    1    2    0    0  0.85284233846E+01  0.32476334712E+02 -0.22928565611E+02  0.50528862740E+02  0.30000008784E+02 0.  0.
         12    1    1    2    0    0 -0.85284233846E+01 -0.32476334712E+02  0.22928565611E+02  0.40659137260E+02  0.00000000000E+00 0. -1.
         11    1    3    3    0    0  0.11866005571E+02  0.26913284971E+02 -0.10226306192E+02  0.31140076023E+02  0.51100000000E-03 0. -1.
        -11    1    3    3    0    0  0.25886810512E+01  0.71148723630E+01 -0.35172818789E+01  0.83482902683E+01  0.51100000000E-03 0.  1.
         12    1    3    3    0    0 -0.59262632373E+01 -0.15518226218E+01 -0.91849775406E+01  0.11040496449E+02  0.00000000000E+00 0. -1.
</event>
<event>
 7    1  0.2575978E-011  0.5052887E+02  0.7816164E-02  0.1300439E+00
        -11   -1    0    0    0    0  0.00000000000E+00  0.00000000000E+00  0.45593999997E+02  0.45594000000E+02  0.51100000000E-03 0. -1.
         11   -1    0    0    0    0 -0.00000000000E+00 -0.00000000000E+00 -0.45593999997E+02  0.45594000000E+02  0.51100000000E-03 0.  1.
    9900012    2    1    2    0    0  0.55040417628E+01 -0.86254890052E+00 -0.40275633093E+02  0.50528867110E+02  0.30000022067E+02 0.  0.
         12    1    1    2    0    0 -0.55040417628E+01  0.86254890052E+00  0.40275633093E+02  0.40659132890E+02  0.00000000000E+00 0. -1.
         11    1    3    3    0    0  0.53287436135E+00 -0.10544775276E+02 -0.11350484314E+02  0.15501926820E+02  0.51100000000E-03 0. -1.
        -11    1    3    3    0    0 -0.19791950569E+01 -0.40529880197E+00  0.13076788699E+01  0.24065544831E+01  0.51100000000E-03 0.  1.
        -12    1    3    3    0    0  0.69503624583E+01  0.10087525178E+02 -0.30232827649E+02  0.32620385807E+02  0.00000000000E+00 0.  1.
</event>
<event>
 7    1  0.2575978E-011  0.5052885E+02  0.7816164E-02  0.1300439E+00
        -11   -1    0    0    0    0  0.00000000000E+00  0.00000000000E+00  0.45593999997E+02  0.45594000000E+02  0.51100000000E-03 0.  1.
         11   -1    0    0    0    0 -0.00000000000E+00 -0.00000000000E+00 -0.45593999997E+02  0.45594000000E+02  0.51100000000E-03 0. -1.
    9900012    2    1    2    0    0 -0.23288816657E+02  0.33328624010E+02 -0.11019120545E-01  0.50528852430E+02  0.29999977445E+02 0.  0.
         12    1    1    2    0    0  0.23288816657E+02 -0.33328624010E+02  0.11019120545E-01  0.40659147570E+02  0.00000000000E+00 0. -1.
         11    1    3    3    0    0 -0.82823474288E+01  0.15657612177E+02 -0.84267746860E+01  0.19615520128E+02  0.51100000000E-03 0. -1.
        -11    1    3    3    0    0 -0.54338119217E+01  0.16134861767E+02 -0.14428044469E+01  0.17086303320E+02  0.51100000000E-03 0.  1.
        -12    1    3    3    0    0 -0.95726573066E+01  0.15361500671E+01  0.98585600123E+01  0.13827028982E+02  0.00000000000E+00 0.  1.
</event>
<event>
 7    1  0.2575978E-011  0.5052886E+02  0.7816164E-02  0.1300439E+00
        -11   -1    0    0    0    0  0.00000000000E+00  0.00000000000E+00  0.45593999997E+02  0.45594000000E+02  0.51100000000E-03 0.  1.
         11   -1    0    0    0    0 -0.00000000000E+00 -0.00000000000E+00 -0.45593999997E+02  0.45594000000E+02  0.51100000000E-03 0. -1.
    9900012    2    1    2    0    0  0.30961764009E+02 -0.18090357955E+01  0.26291870756E+02  0.50528857007E+02  0.29999991359E+02 0.  0.
         12    1    1    2    0    0 -0.30961764009E+02  0.18090357955E+01 -0.26291870756E+02  0.40659142993E+02  0.00000000000E+00 0. -1.
         11    1    3    3    0    0  0.14142819035E+01 -0.26149518133E+01  0.67184605671E+01  0.73468278149E+01  0.51100000000E-03 0. -1.
        -11    1    3    3    0    0  0.18924628722E+02  0.44679645202E+01  0.24188115079E+02  0.31034967224E+02  0.51100000000E-03 0.  1.
        -12    1    3    3    0    0  0.10622853384E+02 -0.36620485024E+01 -0.46147048906E+01  0.12147061969E+02  0.00000000000E+00 0.  1.
</event>
<event>
 7    1  0.2575978E-011  0.5052886E+02  0.7816164E-02  0.1300439E+00
        -11   -1    0    0    0    0  0.00000000000E+00  0.00000000000E+00  0.45593999997E+02  0.45594000000E+02  0.51100000000E-03 0.  1.
         11   -1    0    0    0    0 -0.00000000000E+00 -0.00000000000E+00 -0.45593999997E+02  0.45594000000E+02  0.51100000000E-03 0. -1.
    9900012    2    1    2    0    0 -0.31150015627E+02 -0.25905098948E+02 -0.34304775193E+01  0.50528858333E+02  0.29999995390E+02 0.  0.
         12    1    1    2    0    0  0.31150015627E+02  0.25905098948E+02  0.34304775193E+01  0.40659141667E+02  0.00000000000E+00 0. -1.
         11    1    3    3    0    0 -0.10089904173E+02  0.13342293555E+01  0.99704509469E+00  0.10226457518E+02  0.51100000000E-03 0. -1.
        -11    1    3    3    0    0 -0.52699573282E+01  0.67075408335E+00 -0.62264904593E+01  0.81848362832E+01  0.51100000000E-03 0.  1.
        -12    1    3    3    0    0 -0.15790154126E+02 -0.27910082387E+02  0.17989678453E+01  0.32117564532E+02  0.00000000000E+00 0.  1.
</event>
<event>
 7    1  0.2575978E-011  0.5052889E+02  0.7816164E-02  0.1300439E+00
        -11   -1    0    0    0    0  0.00000000000E+00  0.00000000000E+00  0.45593999997E+02  0.45594000000E+02  0.51100000000E-03 0.  1.
         11   -1    0    0    0    0 -0.00000000000E+00 -0.00000000000E+00 -0.45593999997E+02  0.45594000000E+02  0.51100000000E-03 0. -1.
    9900012    2    1    2    0    0  0.38914197435E+02  0.11254684125E+02  0.34900621086E+01  0.50528890193E+02  0.30000092231E+02 0.  0.
         12    1    1    2    0    0 -0.38914197435E+02 -0.11254684125E+02 -0.34900621086E+01  0.40659109807E+02  0.00000000000E+00 0. -1.
         11    1    3    3    0    0  0.25877090571E+02  0.70335891933E+00 -0.49650903709E+00  0.25891408839E+02  0.51100000000E-03 0. -1.
        -11    1    3    3    0    0  0.17042811154E+02  0.64530586416E+01  0.11943481474E+01  0.18262689988E+02  0.51100000000E-03 0.  1.
         12    1    3    3    0    0 -0.40057042898E+01  0.40982665638E+01  0.27922229983E+01  0.63747913658E+01  0.00000000000E+00 0. -1.
</event>
<event>
 7    1  0.2575978E-011  0.5052886E+02  0.7816164E-02  0.1300439E+00
        -11   -1    0    0    0    0  0.00000000000E+00  0.00000000000E+00  0.45593999997E+02  0.45594000000E+02  0.51100000000E-03 0.  1.
         11   -1    0    0    0    0 -0.00000000000E+00 -0.00000000000E+00 -0.45593999997E+02  0.45594000000E+02  0.51100000000E-03 0. -1.
    9900012    2    1    2    0    0  0.61721308183E+01 -0.25088372337E+02  0.31394966534E+02  0.50528861433E+02  0.30000004812E+02 0.  0.
         12    1    1    2    0    0 -0.61721308183E+01  0.25088372337E+02 -0.31394966534E+02  0.40659138567E+02  0.00000000000E+00 0. -1.
         11    1    3    3    0    0  0.94190314684E+01  0.10130504228E+00  0.10851890052E+02  0.14369827225E+02  0.51100000000E-03 0. -1.
        -11    1    3    3    0    0 -0.60724017547E+01 -0.23591394946E+01  0.65218499460E+01  0.92181413096E+01  0.51100000000E-03 0.  1.
         12    1    3    3    0    0  0.28255011046E+01 -0.22830537884E+02  0.14021226536E+02  0.26940892898E+02  0.00000000000E+00 0. -1.
</event>
<event>
 7    1  0.2575978E-011  0.5052885E+02  0.7816164E-02  0.1300439E+00
        -11   -1    0    0    0    0  0.00000000000E+00  0.00000000000E+00  0.45593999997E+02  0.45594000000E+02  0.51100000000E-03 0.  1.
         11   -1    0    0    0    0 -0.00000000000E+00 -0.00000000000E+00 -0.45593999997E+02  0.45594000000E+02  0.51100000000E-03 0. -1.
    9900012    2    1    2    0    0 -0.24178232704E+02  0.29087169113E+02  0.14916961829E+02  0.50528854732E+02  0.29999984444E+02 0.  0.
         12    1    1    2    0    0  0.24178232704E+02 -0.29087169113E+02 -0.14916961829E+02  0.40659145268E+02  0.00000000000E+00 0. -1.
         11    1    3    3    0    0  0.32609987689E+01  0.31833158875E+01 -0.81313805790E+00  0.46291259189E+01  0.51100000000E-03 0.  1.
        -11    1    3    3    0    0 -0.93694017683E+00 -0.31207775264E+01 -0.64400835393E+00  0.33214238341E+01  0.51100000000E-03 0. -1.
        -12    1    3    3    0    0 -0.26502291296E+02  0.29024630752E+02  0.16374108241E+02  0.42578304979E+02  0.00000000000E+00 0.  1.
</event>
<event>
 7    1  0.2575978E-011  0.5052888E+02  0.7816164E-02  0.1300439E+00
        -11   -1    0    0    0    0  0.00000000000E+00  0.00000000000E+00  0.45593999997E+02  0.45594000000E+02  0.51100000000E-03 0. -1.
         11   -1    0    0    0    0 -0.00000000000E+00 -0.00000000000E+00 -0.45593999997E+02  0.45594000000E+02  0.51100000000E-03 0.  1.
    9900012    2    1    2    0    0  0.23777151869E+02 -0.32388455875E+02 -0.62288690826E+01  0.50528882511E+02  0.30000068879E+02 0.  0.
         12    1    1    2    0    0 -0.23777151869E+02  0.32388455875E+02  0.62288690826E+01  0.40659117489E+02  0.00000000000E+00 0. -1.
         11    1    3    3    0    0  0.14612110102E+02 -0.93670075370E+01 -0.33811324551E+01  0.17682947966E+02  0.51100000000E-03 0. -1.
        -11    1    3    3    0    0  0.11228522840E+02 -0.18894869268E+01  0.24727132964E+00  0.11389075001E+02  0.51100000000E-03 0.  1.
         12    1    3    3    0    0 -0.20634810727E+01 -0.21131961411E+02 -0.30950079572E+01  0.21456859543E+02  0.00000000000E+00 0. -1.
</event>
<event>
 7    1  0.2575978E-011  0.5052886E+02  0.7816164E-02  0.1300439E+00
        -11   -1    0    0    0    0  0.00000000000E+00  0.00000000000E+00  0.45593999997E+02  0.45594000000E+02  0.51100000000E-03 0.  1.
         11   -1    0    0    0    0 -0.00000000000E+00 -0.00000000000E+00 -0.45593999997E+02  0.45594000000E+02  0.51100000000E-03 0. -1.
    9900012    2    1    2    0    0 -0.27098474925E+02  0.21044483246E+01  0.30239205305E+02  0.50528861009E+02  0.30000003522E+02 0.  0.
         12    1    1    2    0    0  0.27098474925E+02 -0.21044483246E+01 -0.30239205305E+02  0.40659138991E+02  0.00000000000E+00 0. -1.
         11    1    3    3    0    0  0.47563167670E+00 -0.41261444583E+01  0.25431336641E+01  0.48701973962E+01  0.51100000000E-03 0. -1.
        -11    1    3    3    0    0 -0.65849781566E+01 -0.52960258306E+01 -0.74047772927E+00  0.84828140643E+01  0.51100000000E-03 0.  1.
        -12    1    3    3    0    0 -0.20989128445E+02  0.11526618613E+02  0.28436549370E+02  0.37175849548E+02  0.00000000000E+00 0.  1.
</event>
<event>
 7    1  0.2575978E-011  0.5052886E+02  0.7816164E-02  0.1300439E+00
        -11   -1    0    0    0    0  0.00000000000E+00  0.00000000000E+00  0.45593999997E+02  0.45594000000E+02  0.51100000000E-03 0.  1.
         11   -1    0    0    0    0 -0.00000000000E+00 -0.00000000000E+00 -0.45593999997E+02  0.45594000000E+02  0.51100000000E-03 0. -1.
    9900012    2    1    2    0    0  0.26588711808E+02 -0.20273186454E+02  0.23134476857E+02  0.50528859526E+02  0.29999999016E+02 0.  0.
         12    1    1    2    0    0 -0.26588711808E+02  0.20273186454E+02 -0.23134476857E+02  0.40659140474E+02  0.00000000000E+00 0. -1.
         11    1    3    3    0    0  0.23352609335E+02 -0.38004085886E+01  0.14913848884E+02  0.27968023831E+02  0.51100000000E-03 0.  1.
        -11    1    3    3    0    0 -0.45601395983E+00 -0.27050165011E+00  0.57336837180E+01  0.57581463262E+01  0.51100000000E-03 0. -1.
        -12    1    3    3    0    0  0.36921164329E+01 -0.16202276215E+02  0.24869442545E+01  0.16802689369E+02  0.00000000000E+00 0.  1.
</event>
<event>
 7    1  0.2575978E-011  0.5052887E+02  0.7816164E-02  0.1300439E+00
        -11   -1    0    0    0    0  0.00000000000E+00  0.00000000000E+00  0.45593999997E+02  0.45594000000E+02  0.51100000000E-03 0.  1.
         11   -1    0    0    0    0 -0.00000000000E+00 -0.00000000000E+00 -0.45593999997E+02  0.45594000000E+02  0.51100000000E-03 0. -1.
    9900012    2    1    2    0    0 -0.16528546568E+02 -0.21375968116E+02  0.30381575683E+02  0.50528868116E+02  0.30000025126E+02 0.  0.
         12    1    1    2    0    0  0.16528546568E+02  0.21375968116E+02 -0.30381575683E+02  0.40659131884E+02  0.00000000000E+00 0. -1.
         11    1    3    3    0    0  0.69922439730E+00 -0.63141809846E+01  0.72916540714E+01  0.96708849451E+01  0.51100000000E-03 0. -1.
        -11    1    3    3    0    0 -0.12171104755E+02 -0.20666674917E+02  0.23113865286E+02  0.33309128056E+02  0.51100000000E-03 0.  1.
         12    1    3    3    0    0 -0.50566662100E+01  0.56048877860E+01 -0.23943674289E-01  0.75488551153E+01  0.00000000000E+00 0. -1.
</event>
<event>
 7    1  0.2575978E-011  0.5052885E+02  0.7816164E-02  0.1300439E+00
        -11   -1    0    0    0    0  0.00000000000E+00  0.00000000000E+00  0.45593999997E+02  0.45594000000E+02  0.51100000000E-03 0.  1.
         11   -1    0    0    0    0 -0.00000000000E+00 -0.00000000000E+00 -0.45593999997E+02  0.45594000000E+02  0.51100000000E-03 0. -1.
    9900012    2    1    2    0    0 -0.14815015159E+02  0.15653043043E+02  0.34477006127E+02  0.50528851188E+02  0.29999973671E+02 0.  0.
         12    1    1    2    0    0  0.14815015159E+02 -0.15653043043E+02 -0.34477006127E+02  0.40659148812E+02  0.00000000000E+00 0. -1.
         11    1    3    3    0    0 -0.20761187259E+00  0.82838883500E+01  0.77931187373E+01  0.11375350931E+02  0.51100000000E-03 0. -1.
        -11    1    3    3    0    0 -0.71138037696E+00  0.13460061805E+02  0.12362151041E+02  0.18289398691E+02  0.51100000000E-03 0.  1.
        -12    1    3    3    0    0 -0.13896022909E+02 -0.60909071125E+01  0.14321736348E+02  0.20864101566E+02  0.00000000000E+00 0.  1.
</event>
<event>
 7    1  0.2575978E-011  0.5052885E+02  0.7816164E-02  0.1300439E+00
        -11   -1    0    0    0    0  0.00000000000E+00  0.00000000000E+00  0.45593999997E+02  0.45594000000E+02  0.51100000000E-03 0.  1.
         11   -1    0    0    0    0 -0.00000000000E+00 -0.00000000000E+00 -0.45593999997E+02  0.45594000000E+02  0.51100000000E-03 0. -1.
    9900012    2    1    2    0    0 -0.31788429866E+02  0.87267880738E+01  0.23801366086E+02  0.50528854276E+02  0.29999983057E+02 0.  0.
         12    1    1    2    0    0  0.31788429866E+02 -0.87267880738E+01 -0.23801366086E+02  0.40659145724E+02  0.00000000000E+00 0. -1.
         11    1    3    3    0    0 -0.52097581015E+01 -0.26814529847E+01 -0.17824530245E+01  0.61244517005E+01  0.51100000000E-03 0. -1.
        -11    1    3    3    0    0 -0.27387705124E+01 -0.57810266742E+01  0.76586484928E+01  0.99787789997E+01  0.51100000000E-03 0.  1.
        -12    1    3    3    0    0 -0.23839901252E+02  0.17189267733E+02  0.17925170618E+02  0.34425623576E+02  0.00000000000E+00 0.  1.
</event>
<event>
 7    1  0.2575978E-011  0.5052886E+02  0.7816164E-02  0.1300439E+00
        -11   -1    0    0    0    0  0.00000000000E+00  0.00000000000E+00  0.45593999997E+02  0.45594000000E+02  0.51100000000E-03 0.  1.
         11   -1    0    0    0    0 -0.00000000000E+00 -0.00000000000E+00 -0.45593999997E+02  0.45594000000E+02  0.51100000000E-03 0. -1.
    9900012    2    1    2    0    0 -0.43811828039E+01  0.75578522009E+00  0.40415340384E+02  0.50528859424E+02  0.29999998705E+02 0.  0.
         12    1    1    2    0    0  0.43811828039E+01 -0.75578522009E+00 -0.40415340384E+02  0.40659140576E+02  0.00000000000E+00 0. -1.
         11    1    3    3    0    0  0.79712034305E+01 -0.10119583619E+01  0.66824312578E+01  0.10450790957E+02  0.51100000000E-03 0. -1.
        -11    1    3    3    0    0 -0.14678394420E+01  0.38441926371E+01  0.26563073547E+02  0.26879904133E+02  0.51100000000E-03 0.  1.
        -12    1    3    3    0    0 -0.10884546792E+02 -0.20764490551E+01  0.71698355790E+01  0.13198164334E+02  0.00000000000E+00 0.  1.
</event>
<event>
 7    1  0.2575978E-011  0.5052888E+02  0.7816164E-02  0.1300439E+00
        -11   -1    0    0    0    0  0.00000000000E+00  0.00000000000E+00  0.45593999997E+02  0.45594000000E+02  0.51100000000E-03 0.  1.
         11   -1    0    0    0    0 -0.00000000000E+00 -0.00000000000E+00 -0.45593999997E+02  0.45594000000E+02  0.51100000000E-03 0. -1.
    9900012    2    1    2    0    0 -0.95468499098E+01 -0.13916496984E+02  0.36991256865E+02  0.50528876596E+02  0.30000050901E+02 0.  0.
         12    1    1    2    0    0  0.95468499098E+01  0.13916496984E+02 -0.36991256865E+02  0.40659123404E+02  0.00000000000E+00 0. -1.
         11    1    3    3    0    0 -0.68900751879E+01  0.12032485952E+01  0.19936416798E+02  0.21127746171E+02  0.51100000000E-03 0. -1.
        -11    1    3    3    0    0 -0.70775510551E+01  0.10721002395E+01  0.54097037134E+01  0.89725148308E+01  0.51100000000E-03 0.  1.
        -12    1    3    3    0    0  0.44207763331E+01 -0.16191845818E+02  0.11645136354E+02  0.20428615594E+02  0.00000000000E+00 0.  1.
</event>
<event>
 7    1  0.2575978E-011  0.5052885E+02  0.7816164E-02  0.1300439E+00
        -11   -1    0    0    0    0  0.00000000000E+00  0.00000000000E+00  0.45593999997E+02  0.45594000000E+02  0.51100000000E-03 0.  1.
         11   -1    0    0    0    0 -0.00000000000E+00 -0.00000000000E+00 -0.45593999997E+02  0.45594000000E+02  0.51100000000E-03 0. -1.
    9900012    2    1    2    0    0  0.80009006211E+01  0.13474475142E+01  0.39841386184E+02  0.50528854921E+02  0.29999985017E+02 0.  0.
         12    1    1    2    0    0 -0.80009006211E+01 -0.13474475142E+01 -0.39841386184E+02  0.40659145079E+02  0.00000000000E+00 0. -1.
         11    1    3    3    0    0 -0.27555330260E+01  0.62141789247E+01  0.32376006473E+02  0.33081940351E+02  0.51100000000E-03 0.  1.
        -11    1    3    3    0    0  0.24150844572E+01  0.30113024910E+01  0.37630756630E+01  0.53908546943E+01  0.51100000000E-03 0. -1.
         12    1    3    3    0    0  0.83413491899E+01 -0.78780339015E+01  0.37023040474E+01  0.12056059875E+02  0.00000000000E+00 0. -1.
</event>
<event>
 7    1  0.2575978E-011  0.5052886E+02  0.7816164E-02  0.1300439E+00
        -11   -1    0    0    0    0  0.00000000000E+00  0.00000000000E+00  0.45593999997E+02  0.45594000000E+02  0.51100000000E-03 0.  1.
         11   -1    0    0    0    0 -0.00000000000E+00 -0.00000000000E+00 -0.45593999997E+02  0.45594000000E+02  0.51100000000E-03 0. -1.
    9900012    2    1    2    0    0  0.94802275406E+01  0.30328141291E+02  0.25367201529E+02  0.50528858570E+02  0.29999996110E+02 0.  0.
         12    1    1    2    0    0 -0.94802275406E+01 -0.30328141291E+02 -0.25367201529E+02  0.40659141430E+02  0.00000000000E+00 0. -1.
         11    1    3    3    0    0  0.58654735756E+01  0.20720409242E+02  0.10608110692E+02  0.24005648338E+02  0.51100000000E-03 0. -1.
        -11    1    3    3    0    0  0.10888028213E+02  0.95444797978E+01  0.77530857363E+01  0.16424268376E+02  0.51100000000E-03 0.  1.
        -12    1    3    3    0    0 -0.72732742481E+01  0.63252250826E-01  0.70060051010E+01  0.10098941856E+02  0.00000000000E+00 0.  1.
</event>
<event>
 7    1  0.2575978E-011  0.5052886E+02  0.7816164E-02  0.1300439E+00
        -11   -1    0    0    0    0  0.00000000000E+00  0.00000000000E+00  0.45593999997E+02  0.45594000000E+02  0.51100000000E-03 0.  1.
         11   -1    0    0    0    0 -0.00000000000E+00 -0.00000000000E+00 -0.45593999997E+02  0.45594000000E+02  0.51100000000E-03 0. -1.
    9900012    2    1    2    0    0 -0.38490634134E+02 -0.90937166352E+01 -0.94308686423E+01  0.50528857342E+02  0.29999992378E+02 0.  0.
         12    1    1    2    0    0  0.38490634134E+02  0.90937166352E+01  0.94308686423E+01  0.40659142658E+02  0.00000000000E+00 0. -1.
         11    1    3    3    0    0  0.28358053647E+01 -0.64784784421E+01 -0.28502775517E+01  0.76247332657E+01  0.51100000000E-03 0. -1.
        -11    1    3    3    0    0 -0.84487990376E+01 -0.26165921487E+01  0.16841220282E+01  0.90036118818E+01  0.51100000000E-03 0.  1.
        -12    1    3    3    0    0 -0.32877640461E+02  0.13539555383E-02 -0.82647131188E+01  0.33900512195E+02  0.00000000000E+00 0.  1.
</event>
<event>
 7    1  0.2575978E-011  0.5052886E+02  0.7816164E-02  0.1300439E+00
        -11   -1    0    0    0    0  0.00000000000E+00  0.00000000000E+00  0.45593999997E+02  0.45594000000E+02  0.51100000000E-03 0. -1.
         11   -1    0    0    0    0 -0.00000000000E+00 -0.00000000000E+00 -0.45593999997E+02  0.45594000000E+02  0.51100000000E-03 0.  1.
    9900012    2    1    2    0    0  0.12884761394E+02 -0.37528315807E+02 -0.88754821945E+01  0.50528858990E+02  0.29999997386E+02 0.  0.
         12    1    1    2    0    0 -0.12884761394E+02  0.37528315807E+02  0.88754821945E+01  0.40659141010E+02  0.00000000000E+00 0. -1.
         11    1    3    3    0    0  0.34112672819E+01 -0.12998839594E+01  0.72339254951E+01  0.81028464817E+01  0.51100000000E-03 0. -1.
        -11    1    3    3    0    0 -0.19636794760E+01 -0.42507478455E+01  0.33178413141E+00  0.46941426589E+01  0.51100000000E-03 0.  1.
         12    1    3    3    0    0  0.11437173588E+02 -0.31977684002E+02 -0.16441191821E+02  0.37731869849E+02  0.00000000000E+00 0. -1.
</event>
<event>
 7    1  0.2575978E-011  0.5052887E+02  0.7816164E-02  0.1300439E+00
        -11   -1    0    0    0    0  0.00000000000E+00  0.00000000000E+00  0.45593999997E+02  0.45594000000E+02  0.51100000000E-03 0. -1.
         11   -1    0    0    0    0 -0.00000000000E+00 -0.00000000000E+00 -0.45593999997E+02  0.45594000000E+02  0.51100000000E-03 0.  1.
    9900012    2    1    2    0    0  0.22731984524E+00  0.12313398992E+02 -0.38749110814E+02  0.50528867472E+02  0.30000023167E+02 0.  0.
         12    1    1    2    0    0 -0.22731984524E+00 -0.12313398992E+02  0.38749110814E+02  0.40659132528E+02  0.00000000000E+00 0. -1.
         11    1    3    3    0    0 -0.10986825623E+01  0.64077096675E+01 -0.29796863634E+02  0.30497851223E+02  0.51100000000E-03 0. -1.
        -11    1    3    3    0    0 -0.26383632483E+01 -0.83484630928E+00 -0.11483036360E+02  0.11811776043E+02  0.51100000000E-03 0.  1.
         12    1    3    3    0    0  0.39643656558E+01  0.67405356334E+01  0.25307891797E+01  0.82192402052E+01  0.00000000000E+00 0. -1.
</event>
<event>
 7    1  0.2575978E-011  0.5052885E+02  0.7816164E-02  0.1300439E+00
        -11   -1    0    0    0    0  0.00000000000E+00  0.00000000000E+00  0.45593999997E+02  0.45594000000E+02  0.51100000000E-03 0. -1.
         11   -1    0    0    0    0 -0.00000000000E+00 -0.00000000000E+00 -0.45593999997E+02  0.45594000000E+02  0.51100000000E-03 0.  1.
    9900012    2    1    2    0    0 -0.12635031654E+01 -0.40598768341E+02  0.18192738354E+01  0.50528853570E+02  0.29999980913E+02 0.  0.
         12    1    1    2    0    0  0.12635031654E+01  0.40598768341E+02 -0.18192738354E+01  0.40659146430E+02  0.00000000000E+00 0. -1.
         11    1    3    3    0    0 -0.20743874137E+01  0.21622482097E+01 -0.18334187278E+01  0.35128086989E+01  0.51100000000E-03 0. -1.
        -11    1    3    3    0    0 -0.29462195721E+01 -0.53913789905E+00 -0.28464826341E+01  0.41319902092E+01  0.51100000000E-03 0.  1.
        -12    1    3    3    0    0  0.37571038204E+01 -0.42221878652E+02  0.64991751973E+01  0.42884054662E+02  0.00000000000E+00 0.  1.
</event>
<event>
 7    1  0.2575978E-011  0.5052886E+02  0.7816164E-02  0.1300439E+00
        -11   -1    0    0    0    0  0.00000000000E+00  0.00000000000E+00  0.45593999997E+02  0.45594000000E+02  0.51100000000E-03 0. -1.
         11   -1    0    0    0    0 -0.00000000000E+00 -0.00000000000E+00 -0.45593999997E+02  0.45594000000E+02  0.51100000000E-03 0.  1.
    9900012    2    1    2    0    0 -0.30943347002E+02 -0.18722246734E+02 -0.18578279759E+02  0.50528859266E+02  0.29999998224E+02 0.  0.
         12    1    1    2    0    0  0.30943347002E+02  0.18722246734E+02  0.18578279759E+02  0.40659140734E+02  0.00000000000E+00 0. -1.
         11    1    3    3    0    0 -0.32843230017E+02 -0.86258526164E+01 -0.16985373465E+02  0.37968223600E+02  0.51100000000E-03 0. -1.
        -11    1    3    3    0    0  0.12281344354E+01 -0.65311528587E+00 -0.26917706503E+01  0.30299345312E+01  0.51100000000E-03 0.  1.
        -12    1    3    3    0    0  0.67174857913E+00 -0.94432788316E+01  0.10988643572E+01  0.95307011347E+01  0.00000000000E+00 0.  1.
</event>
<event>
 7    1  0.2575978E-011  0.5052886E+02  0.7816164E-02  0.1300439E+00
        -11   -1    0    0    0    0  0.00000000000E+00  0.00000000000E+00  0.45593999997E+02  0.45594000000E+02  0.51100000000E-03 0.  1.
         11   -1    0    0    0    0 -0.00000000000E+00 -0.00000000000E+00 -0.45593999997E+02  0.45594000000E+02  0.51100000000E-03 0. -1.
    9900012    2    1    2    0    0 -0.22112412403E+02  0.20407017705E+02  0.27345204926E+02  0.50528863433E+02  0.30000010892E+02 0.  0.
         12    1    1    2    0    0  0.22112412403E+02 -0.20407017705E+02 -0.27345204926E+02  0.40659136567E+02  0.00000000000E+00 0. -1.
         11    1    3    3    0    0 -0.28723470224E+01  0.23926732441E+01  0.16246059824E+02  0.16670624546E+02  0.51100000000E-03 0. -1.
        -11    1    3    3    0    0  0.19914500224E+01  0.72369849869E+01  0.57480140544E+01  0.94540727056E+01  0.51100000000E-03 0.  1.
         12    1    3    3    0    0 -0.21231515403E+02  0.10777359474E+02  0.53511310472E+01  0.24404166182E+02  0.00000000000E+00 0. -1.
</event>
<event>
 7    1  0.2575978E-011  0.5052887E+02  0.7816164E-02  0.1300439E+00
        -11   -1    0    0    0    0  0.00000000000E+00  0.00000000000E+00  0.45593999997E+02  0.45594000000E+02  0.51100000000E-03 0.  1.
         11   -1    0    0    0    0 -0.00000000000E+00 -0.00000000000E+00 -0.45593999997E+02  0.45594000000E+02  0.51100000000E-03 0. -1.
    9900012    2    1    2    0    0  0.60829439905E+01 -0.38620799792E+02  0.11162278277E+02  0.50528870146E+02  0.30000031295E+02 0.  0.
         12    1    1    2    0    0 -0.60829439905E+01  0.38620799792E+02 -0.11162278277E+02  0.40659129854E+02  0.00000000000E+00 0. -1.
         11    1    3    3    0    0 -0.75904064990E+01 -0.36701256007E+01  0.69154210806E+00  0.84594517253E+01  0.51100000000E-03 0. -1.
        -11    1    3    3    0    0 -0.29813623134E+01 -0.12146173542E+02  0.31673041860E+01  0.12901545218E+02  0.51100000000E-03 0.  1.
        -12    1    3    3    0    0  0.16654712803E+02 -0.22804500650E+02  0.73034319829E+01  0.29167873202E+02  0.00000000000E+00 0.  1.
</event>
<event>
 7    1  0.2575978E-011  0.5052886E+02  0.7816164E-02  0.1300439E+00
        -11   -1    0    0    0    0  0.00000000000E+00  0.00000000000E+00  0.45593999997E+02  0.45594000000E+02  0.51100000000E-03 0.  1.
         11   -1    0    0    0    0 -0.00000000000E+00 -0.00000000000E+00 -0.45593999997E+02  0.45594000000E+02  0.51100000000E-03 0. -1.
    9900012    2    1    2    0    0  0.23538605659E+02  0.36288684204E+01  0.32953464546E+02  0.50528862430E+02  0.30000007841E+02 0.  0.
         12    1    1    2    0    0 -0.23538605659E+02 -0.36288684204E+01 -0.32953464546E+02  0.40659137570E+02  0.00000000000E+00 0. -1.
         11    1    3    3    0    0 -0.35592978902E+01  0.64451523192E+01  0.13874668450E+02  0.15707164440E+02  0.51100000000E-03 0. -1.
        -11    1    3    3    0    0  0.86539817764E-01 -0.15605677668E+01 -0.25059336442E+00  0.15829270957E+01  0.51100000000E-03 0.  1.
        -12    1    3    3    0    0  0.27011363731E+02 -0.12557161320E+01  0.19329389461E+02  0.33238770894E+02  0.00000000000E+00 0.  1.
</event>
<event>
 7    1  0.2575978E-011  0.5052887E+02  0.7816164E-02  0.1300439E+00
        -11   -1    0    0    0    0  0.00000000000E+00  0.00000000000E+00  0.45593999997E+02  0.45594000000E+02  0.51100000000E-03 0.  1.
         11   -1    0    0    0    0 -0.00000000000E+00 -0.00000000000E+00 -0.45593999997E+02  0.45594000000E+02  0.51100000000E-03 0. -1.
    9900012    2    1    2    0    0 -0.12840575996E+02 -0.21525216501E+02  0.32014835328E+02  0.50528867958E+02  0.30000024646E+02 0.  0.
         12    1    1    2    0    0  0.12840575996E+02  0.21525216501E+02 -0.32014835328E+02  0.40659132042E+02  0.00000000000E+00 0. -1.
         11    1    3    3    0    0  0.91206672054E+00 -0.10710835534E+02  0.22435939166E+01  0.10981237520E+02  0.51100000000E-03 0. -1.
        -11    1    3    3    0    0 -0.12737238093E+02 -0.15118664812E+02  0.17140387904E+02  0.26164941385E+02  0.51100000000E-03 0.  1.
         12    1    3    3    0    0 -0.10154046243E+01  0.43042838458E+01  0.12630853507E+02  0.13382689053E+02  0.00000000000E+00 0. -1.
</event>
<event>
 7    1  0.2575978E-011  0.5052888E+02  0.7816164E-02  0.1300439E+00
        -11   -1    0    0    0    0  0.00000000000E+00  0.00000000000E+00  0.45593999997E+02  0.45594000000E+02  0.51100000000E-03 0.  1.
         11   -1    0    0    0    0 -0.00000000000E+00 -0.00000000000E+00 -0.45593999997E+02  0.45594000000E+02  0.51100000000E-03 0. -1.
    9900012    2    1    2    0    0  0.14699949492E+02 -0.19358872678E+02  0.32593094481E+02  0.50528877109E+02  0.30000052461E+02 0.  0.
         12    1    1    2    0    0 -0.14699949492E+02  0.19358872678E+02 -0.32593094481E+02  0.40659122891E+02  0.00000000000E+00 0. -1.
         11    1    3    3    0    0 -0.37496539279E+01 -0.16593837330E+01 -0.21148665816E+01  0.46136883154E+01  0.51100000000E-03 0. -1.
        -11    1    3    3    0    0  0.37030865376E+01 -0.46519367784E+01  0.21247928005E+02  0.22064174819E+02  0.51100000000E-03 0.  1.
         12    1    3    3    0    0  0.14746516882E+02 -0.13047552167E+02  0.13460033057E+02  0.23851013974E+02  0.00000000000E+00 0. -1.
</event>
<event>
 7    1  0.2575978E-011  0.5052885E+02  0.7816164E-02  0.1300439E+00
        -11   -1    0    0    0    0  0.00000000000E+00  0.00000000000E+00  0.45593999997E+02  0.45594000000E+02  0.51100000000E-03 0. -1.
         11   -1    0    0    0    0 -0.00000000000E+00 -0.00000000000E+00 -0.45593999997E+02  0.45594000000E+02  0.51100000000E-03 0.  1.
    9900012    2    1    2    0    0 -0.11382273718E+02 -0.24350500474E+02 -0.30506774781E+02  0.50528851757E+02  0.29999975400E+02 0.  0.
         12    1    1    2    0    0  0.11382273718E+02  0.24350500474E+02  0.30506774781E+02  0.40659148243E+02  0.00000000000E+00 0. -1.
         11    1    3    3    0    0  0.20172106559E+01  0.17520289711E+00 -0.96978696879E+00  0.22450661262E+01  0.51100000000E-03 0. -1.
        -11    1    3    3    0    0  0.55022290957E+00 -0.22732190673E+02 -0.24289716111E+02  0.33272293985E+02  0.51100000000E-03 0.  1.
        -12    1    3    3    0    0 -0.13949707284E+02 -0.17935126979E+01 -0.52472717019E+01  0.15011491645E+02  0.00000000000E+00 0.  1.
</event>
<event>
 7    1  0.2575978E-011  0.5052887E+02  0.7816164E-02  0.1300439E+00
        -11   -1    0    0    0    0  0.00000000000E+00  0.00000000000E+00  0.45593999997E+02  0.45594000000E+02  0.51100000000E-03 0. -1.
         11   -1    0    0    0    0 -0.00000000000E+00 -0.00000000000E+00 -0.45593999997E+02  0.45594000000E+02  0.51100000000E-03 0.  1.
    9900012    2    1    2    0    0  0.24038485025E+02  0.22658841917E+02 -0.23704279155E+02  0.50528871510E+02  0.30000035441E+02 0.  0.
         12    1    1    2    0    0 -0.24038485025E+02 -0.22658841917E+02  0.23704279155E+02  0.40659128490E+02  0.00000000000E+00 0. -1.
         11    1    3    3    0    0  0.74212006347E+01  0.79783813130E+01 -0.90962299369E+01  0.14194019394E+02  0.51100000000E-03 0.  1.
        -11    1    3    3    0    0 -0.36113362768E+01  0.90989480200E+01  0.14697852872E+01  0.98991350040E+01  0.51100000000E-03 0. -1.
         12    1    3    3    0    0  0.20228620667E+02  0.55815125845E+01 -0.16077834506E+02  0.26435717112E+02  0.00000000000E+00 0. -1.
</event>
<event>
 7    1  0.2575978E-011  0.5052886E+02  0.7816164E-02  0.1300439E+00
        -11   -1    0    0    0    0  0.00000000000E+00  0.00000000000E+00  0.45593999997E+02  0.45594000000E+02  0.51100000000E-03 0.  1.
         11   -1    0    0    0    0 -0.00000000000E+00 -0.00000000000E+00 -0.45593999997E+02  0.45594000000E+02  0.51100000000E-03 0. -1.
    9900012    2    1    2    0    0  0.24149596763E+02  0.25877564416E+02  0.20007855879E+02  0.50528860058E+02  0.30000000633E+02 0.  0.
         12    1    1    2    0    0 -0.24149596763E+02 -0.25877564416E+02 -0.20007855879E+02  0.40659139942E+02  0.00000000000E+00 0. -1.
         11    1    3    3    0    0 -0.10262643446E+01  0.42624363541E+01  0.90685152686E+00  0.44770483726E+01  0.51100000000E-03 0. -1.
        -11    1    3    3    0    0  0.21266940628E+01  0.83589851692E+00  0.14500886107E+02  0.14679824662E+02  0.51100000000E-03 0.  1.
        -12    1    3    3    0    0  0.23049167045E+02  0.20779229545E+02  0.46001182456E+01  0.31371987024E+02  0.00000000000E+00 0.  1.
</event>
<event>
 7    1  0.2575978E-011  0.5052886E+02  0.7816164E-02  0.1300439E+00
        -11   -1    0    0    0    0  0.00000000000E+00  0.00000000000E+00  0.45593999997E+02  0.45594000000E+02  0.51100000000E-03 0.  1.
         11   -1    0    0    0    0 -0.00000000000E+00 -0.00000000000E+00 -0.45593999997E+02  0.45594000000E+02  0.51100000000E-03 0. -1.
    9900012    2    1    2    0    0 -0.56709363823E+01  0.39061557480E+02 -0.97570759023E+01  0.50528864220E+02  0.30000013283E+02 0.  0.
         12    1    1    2    0    0  0.56709363823E+01 -0.39061557480E+02  0.97570759023E+01  0.40659135780E+02  0.00000000000E+00 0. -1.
         11    1    3    3    0    0  0.68317596627E+01  0.53037546862E+01 -0.42873560382E+01  0.96531951146E+01  0.51100000000E-03 0. -1.
        -11    1    3    3    0    0  0.33179158349E+01  0.12403252418E+02 -0.62670654165E+01  0.14287244144E+02  0.51100000000E-03 0.  1.
        -12    1    3    3    0    0 -0.15820611880E+02  0.21354550376E+02  0.79734555240E+00  0.26588424962E+02  0.00000000000E+00 0.  1.
</event>
<event>
 7    1  0.2575978E-011  0.5052886E+02  0.7816164E-02  0.1300439E+00
        -11   -1    0    0    0    0  0.00000000000E+00  0.00000000000E+00  0.45593999997E+02  0.45594000000E+02  0.51100000000E-03 0.  1.
         11   -1    0    0    0    0 -0.00000000000E+00 -0.00000000000E+00 -0.45593999997E+02  0.45594000000E+02  0.51100000000E-03 0. -1.
    9900012    2    1    2    0    0  0.20099895742E+02  0.17518991677E+02  0.30696009484E+02  0.50528857406E+02  0.29999992571E+02 0.  0.
         12    1    1    2    0    0 -0.20099895742E+02 -0.17518991677E+02 -0.30696009484E+02  0.40659142594E+02  0.00000000000E+00 0. -1.
         11    1    3    3    0    0  0.14901459905E+02 -0.33307469639E+01  0.10665230094E+02  0.18625104453E+02  0.51100000000E-03 0. -1.
        -11    1    3    3    0    0  0.15685342054E+01 -0.24168140729E+00  0.62519971231E+01  0.64502850902E+01  0.51100000000E-03 0.  1.
        -12    1    3    3    0    0  0.36299016318E+01  0.21091420048E+02  0.13778782267E+02  0.25453467863E+02  0.00000000000E+00 0.  1.
</event>
<event>
 7    1  0.2575978E-011  0.5052887E+02  0.7816164E-02  0.1300439E+00
        -11   -1    0    0    0    0  0.00000000000E+00  0.00000000000E+00  0.45593999997E+02  0.45594000000E+02  0.51100000000E-03 0.  1.
         11   -1    0    0    0    0 -0.00000000000E+00 -0.00000000000E+00 -0.45593999997E+02  0.45594000000E+02  0.51100000000E-03 0. -1.
    9900012    2    1    2    0    0 -0.67909416706E+01 -0.32533856815E+02  0.23422122538E+02  0.50528873691E+02  0.30000042071E+02 0.  0.
         12    1    1    2    0    0  0.67909416706E+01  0.32533856815E+02 -0.23422122538E+02  0.40659126309E+02  0.00000000000E+00 0. -1.
         11    1    3    3    0    0  0.18107523305E+01  0.10121503310E+01 -0.16229235506E+01  0.26338476431E+01  0.51100000000E-03 0. -1.
        -11    1    3    3    0    0 -0.56170147665E+01 -0.62716235681E+01  0.17530416925E+02  0.19447355473E+02  0.51100000000E-03 0.  1.
        -12    1    3    3    0    0 -0.29846792346E+01 -0.27274383578E+02  0.75146291642E+01  0.28447670575E+02  0.00000000000E+00 0.  1.
</event>
<event>
 7    1  0.2575978E-011  0.5052886E+02  0.7816164E-02  0.1300439E+00
        -11   -1    0    0    0    0  0.00000000000E+00  0.00000000000E+00  0.45593999997E+02  0.45594000000E+02  0.51100000000E-03 0. -1.
         11   -1    0    0    0    0 -0.00000000000E+00 -0.00000000000E+00 -0.45593999997E+02  0.45594000000E+02  0.51100000000E-03 0.  1.
    9900012    2    1    2    0    0  0.65673069134E+01  0.11874788423E+02 -0.38327864151E+02  0.50528864611E+02  0.30000014471E+02 0.  0.
         12    1    1    2    0    0 -0.65673069134E+01 -0.11874788423E+02  0.38327864151E+02  0.40659135389E+02  0.00000000000E+00 0. -1.
         11    1    3    3    0    0  0.39371318246E+01 -0.22685841028E+01 -0.14742375543E+02  0.15426766277E+02  0.51100000000E-03 0.  1.
        -11    1    3    3    0    0 -0.75180765179E+01  0.56416308940E+01 -0.18811013101E+02  0.21028639705E+02  0.51100000000E-03 0. -1.
         12    1    3    3    0    0  0.10148251607E+02  0.85017416314E+01 -0.47744755072E+01  0.14073458630E+02  0.00000000000E+00 0. -1.
</event>
<event>
 7    1  0.2575978E-011  0.5052886E+02  0.7816164E-02  0.1300439E+00
        -11   -1    0    0    0    0  0.00000000000E+00  0.00000000000E+00  0.45593999997E+02  0.45594000000E+02  0.51100000000E-03 0.  1.
         11   -1    0    0    0    0 -0.00000000000E+00 -0.00000000000E+00 -0.45593999997E+02  0.45594000000E+02  0.51100000000E-03 0. -1.
    9900012    2    1    2    0    0  0.14927543665E+02  0.34910581709E+02  0.14545985174E+02  0.50528856381E+02  0.29999989456E+02 0.  0.
         12    1    1    2    0    0 -0.14927543665E+02 -0.34910581709E+02 -0.14545985174E+02  0.40659143619E+02  0.00000000000E+00 0. -1.
         11    1    3    3    0    0  0.72965063617E+01  0.11615528261E+01  0.40511774474E+01  0.84261645501E+01  0.51100000000E-03 0. -1.
        -11    1    3    3    0    0  0.10665230299E+02  0.94568679693E+01  0.10360228839E+02  0.17621402639E+02  0.51100000000E-03 0.  1.
        -12    1    3    3    0    0 -0.30341929951E+01  0.24292160914E+02  0.13457888686E+00  0.24481289191E+02  0.00000000000E+00 0.  1.
</event>
<event>
 7    1  0.2575978E-011  0.5052886E+02  0.7816164E-02  0.1300439E+00
        -11   -1    0    0    0    0  0.00000000000E+00  0.00000000000E+00  0.45593999997E+02  0.45594000000E+02  0.51100000000E-03 0.  1.
         11   -1    0    0    0    0 -0.00000000000E+00 -0.00000000000E+00 -0.45593999997E+02  0.45594000000E+02  0.51100000000E-03 0. -1.
    9900012    2    1    2    0    0 -0.34320594510E+02  0.34898403845E+01  0.21519383537E+02  0.50528855134E+02  0.29999985666E+02 0.  0.
         12    1    1    2    0    0  0.34320594510E+02 -0.34898403845E+01 -0.21519383537E+02  0.40659144866E+02  0.00000000000E+00 0. -1.
         11    1    3    3    0    0 -0.21974936227E+02  0.71704045164E+00  0.28064059500E+01  0.22165014861E+02  0.51100000000E-03 0. -1.
        -11    1    3    3    0    0 -0.77056524559E+01 -0.67864324449E+01  0.63976157931E+01  0.12098026004E+02  0.51100000000E-03 0.  1.
        -12    1    3    3    0    0 -0.46400058271E+01  0.95592323778E+01  0.12315361794E+02  0.16265814269E+02  0.00000000000E+00 0.  1.
</event>
<event>
 7    1  0.2575978E-011  0.5052886E+02  0.7816164E-02  0.1300439E+00
        -11   -1    0    0    0    0  0.00000000000E+00  0.00000000000E+00  0.45593999997E+02  0.45594000000E+02  0.51100000000E-03 0. -1.
         11   -1    0    0    0    0 -0.00000000000E+00 -0.00000000000E+00 -0.45593999997E+02  0.45594000000E+02  0.51100000000E-03 0.  1.
    9900012    2    1    2    0    0 -0.25893609770E+02 -0.12562142788E+02 -0.28720707553E+02  0.50528862027E+02  0.30000006618E+02 0.  0.
         12    1    1    2    0    0  0.25893609770E+02  0.12562142788E+02  0.28720707553E+02  0.40659137973E+02  0.00000000000E+00 0. -1.
         11    1    3    3    0    0 -0.24861713297E+01 -0.89616450372E+00 -0.15856431971E+02  0.16075154550E+02  0.51100000000E-03 0. -1.
        -11    1    3    3    0    0  0.31311665529E+01 -0.53455473396E+00 -0.10660513170E+01  0.33505847873E+01  0.51100000000E-03 0.  1.
        -12    1    3    3    0    0 -0.26538604993E+02 -0.11131423550E+02 -0.11798224265E+02  0.31103122690E+02  0.00000000000E+00 0.  1.
</event>
<event>
 7    1  0.2575978E-011  0.5052886E+02  0.7816164E-02  0.1300439E+00
        -11   -1    0    0    0    0  0.00000000000E+00  0.00000000000E+00  0.45593999997E+02  0.45594000000E+02  0.51100000000E-03 0.  1.
         11   -1    0    0    0    0 -0.00000000000E+00 -0.00000000000E+00 -0.45593999997E+02  0.45594000000E+02  0.51100000000E-03 0. -1.
    9900012    2    1    2    0    0  0.32391260333E+02  0.13660981321E+02  0.20429139412E+02  0.50528857194E+02  0.29999991928E+02 0.  0.
         12    1    1    2    0    0 -0.32391260333E+02 -0.13660981321E+02 -0.20429139412E+02  0.40659142806E+02  0.00000000000E+00 0. -1.
         11    1    3    3    0    0  0.27244728891E+00 -0.12297039495E+01 -0.19766468460E+01  0.23438285653E+01  0.51100000000E-03 0. -1.
        -11    1    3    3    0    0 -0.16974581104E+01 -0.32507601663E+01 -0.15292818117E+00  0.36704486081E+01  0.51100000000E-03 0.  1.
        -12    1    3    3    0    0  0.33816271154E+02  0.18141445437E+02  0.22558714439E+02  0.44514580021E+02  0.00000000000E+00 0.  1.
</event>
<event>
 7    1  0.2575978E-011  0.5052886E+02  0.7816164E-02  0.1300439E+00
        -11   -1    0    0    0    0  0.00000000000E+00  0.00000000000E+00  0.45593999997E+02  0.45594000000E+02  0.51100000000E-03 0.  1.
         11   -1    0    0    0    0 -0.00000000000E+00 -0.00000000000E+00 -0.45593999997E+02  0.45594000000E+02  0.51100000000E-03 0. -1.
    9900012    2    1    2    0    0  0.11496294410E+02 -0.17335822793E+02  0.34935224695E+02  0.50528862508E+02  0.30000008081E+02 0.  0.
         12    1    1    2    0    0 -0.11496294410E+02  0.17335822793E+02 -0.34935224695E+02  0.40659137492E+02  0.00000000000E+00 0. -1.
         11    1    3    3    0    0  0.93994772123E+01 -0.55312049994E+01  0.29398699173E+02  0.31356465266E+02  0.51100000000E-03 0. -1.
        -11    1    3    3    0    0 -0.37769168352E+01 -0.25562782462E+01  0.67533728430E+01  0.81490922359E+01  0.51100000000E-03 0.  1.
         12    1    3    3    0    0  0.58737340330E+01 -0.92483395473E+01 -0.12168473214E+01  0.11023305007E+02  0.00000000000E+00 0. -1.
</event>
<event>
 7    1  0.2575978E-011  0.5052885E+02  0.7816164E-02  0.1300439E+00
        -11   -1    0    0    0    0  0.00000000000E+00  0.00000000000E+00  0.45593999997E+02  0.45594000000E+02  0.51100000000E-03 0. -1.
         11   -1    0    0    0    0 -0.00000000000E+00 -0.00000000000E+00 -0.45593999997E+02  0.45594000000E+02  0.51100000000E-03 0.  1.
    9900012    2    1    2    0    0  0.18330780478E+02 -0.35930408969E+02 -0.51141255520E+01  0.50528854881E+02  0.29999984896E+02 0.  0.
         12    1    1    2    0    0 -0.18330780478E+02  0.35930408969E+02  0.51141255520E+01  0.40659145119E+02  0.00000000000E+00 0. -1.
         11    1    3    3    0    0  0.11106211142E+02 -0.47576024217E+01  0.61219353644E+01  0.13544770194E+02  0.51100000000E-03 0. -1.
        -11    1    3    3    0    0 -0.12583759526E+01 -0.64038079726E+00 -0.43258583057E+01  0.45504557954E+01  0.51100000000E-03 0.  1.
         12    1    3    3    0    0  0.84829452889E+01 -0.30532425750E+02 -0.69102026106E+01  0.32433628892E+02  0.00000000000E+00 0. -1.
</event>
<event>
 7    1  0.2575978E-011  0.5052886E+02  0.7816164E-02  0.1300439E+00
        -11   -1    0    0    0    0  0.00000000000E+00  0.00000000000E+00  0.45593999997E+02  0.45594000000E+02  0.51100000000E-03 0.  1.
         11   -1    0    0    0    0 -0.00000000000E+00 -0.00000000000E+00 -0.45593999997E+02  0.45594000000E+02  0.51100000000E-03 0. -1.
    9900012    2    1    2    0    0  0.11008993566E+02  0.30999583620E+02 -0.23895476880E+02  0.50528856633E+02  0.29999990223E+02 0.  0.
         12    1    1    2    0    0 -0.11008993566E+02 -0.30999583620E+02  0.23895476880E+02  0.40659143367E+02  0.00000000000E+00 0. -1.
         11    1    3    3    0    0  0.55191988188E+01  0.25731320878E+01 -0.15386433855E+02  0.16547655767E+02  0.51100000000E-03 0. -1.
        -11    1    3    3    0    0  0.40040130987E+01  0.19799872515E+02 -0.13120075990E+02  0.24087413036E+02  0.51100000000E-03 0.  1.
        -12    1    3    3    0    0  0.14857816483E+01  0.86265790175E+01  0.46110329644E+01  0.98937878313E+01  0.00000000000E+00 0.  1.
</event>
<event>
 7    1  0.2575978E-011  0.5052886E+02  0.7816164E-02  0.1300439E+00
        -11   -1    0    0    0    0  0.00000000000E+00  0.00000000000E+00  0.45593999997E+02  0.45594000000E+02  0.51100000000E-03 0.  1.
         11   -1    0    0    0    0 -0.00000000000E+00 -0.00000000000E+00 -0.45593999997E+02  0.45594000000E+02  0.51100000000E-03 0. -1.
    9900012    2    1    2    0    0  0.37151100305E+02 -0.14356967797E+02  0.81755020478E+01  0.50528860659E+02  0.30000002460E+02 0.  0.
         12    1    1    2    0    0 -0.37151100305E+02  0.14356967797E+02 -0.81755020478E+01  0.40659139341E+02  0.00000000000E+00 0. -1.
         11    1    3    3    0    0  0.15016974922E+02 -0.91271789716E+01  0.86074597185E+01  0.19567914933E+02  0.51100000000E-03 0. -1.
        -11    1    3    3    0    0  0.19589148012E+01 -0.24273357336E+01  0.82492126052E+01  0.88192298320E+01  0.51100000000E-03 0.  1.
        -12    1    3    3    0    0  0.20175210582E+02 -0.28024530916E+01 -0.86811702760E+01  0.22141715894E+02  0.00000000000E+00 0.  1.
</event>
<event>
 7    1  0.2575978E-011  0.5052889E+02  0.7816164E-02  0.1300439E+00
        -11   -1    0    0    0    0  0.00000000000E+00  0.00000000000E+00  0.45593999997E+02  0.45594000000E+02  0.51100000000E-03 0.  1.
         11   -1    0    0    0    0 -0.00000000000E+00 -0.00000000000E+00 -0.45593999997E+02  0.45594000000E+02  0.51100000000E-03 0. -1.
    9900012    2    1    2    0    0 -0.14886509804E+02 -0.10699400579E+01  0.37820770317E+02  0.50528885238E+02  0.30000077168E+02 0.  0.
         12    1    1    2    0    0  0.14886509804E+02  0.10699400579E+01 -0.37820770317E+02  0.40659114762E+02  0.00000000000E+00 0. -1.
         11    1    3    3    0    0 -0.12860317573E+01 -0.69151686865E+01  0.15781464727E+02  0.17277964719E+02  0.51100000000E-03 0. -1.
        -11    1    3    3    0    0 -0.15690183137E+02 -0.74263341061E+00  0.21056656384E+02  0.26270061469E+02  0.51100000000E-03 0.  1.
         12    1    3    3    0    0  0.20897050902E+01  0.65878620392E+01  0.98264920660E+00  0.69808590499E+01  0.00000000000E+00 0. -1.
</event>
<event>
 7    1  0.2575978E-011  0.5052887E+02  0.7816164E-02  0.1300439E+00
        -11   -1    0    0    0    0  0.00000000000E+00  0.00000000000E+00  0.45593999997E+02  0.45594000000E+02  0.51100000000E-03 0.  1.
         11   -1    0    0    0    0 -0.00000000000E+00 -0.00000000000E+00 -0.45593999997E+02  0.45594000000E+02  0.51100000000E-03 0. -1.
    9900012    2    1    2    0    0  0.89692398934E+01  0.16129253156E+02  0.36229332867E+02  0.50528872715E+02  0.30000039103E+02 0.  0.
         12    1    1    2    0    0 -0.89692398934E+01 -0.16129253156E+02 -0.36229332867E+02  0.40659127285E+02  0.00000000000E+00 0. -1.
         11    1    3    3    0    0 -0.30590957895E+01  0.19515820563E+00  0.49332659082E-01  0.30657116216E+01  0.51100000000E-03 0. -1.
        -11    1    3    3    0    0  0.79560442320E+01  0.21100736355E+02  0.33447862297E+02  0.40339796815E+02  0.51100000000E-03 0.  1.
         12    1    3    3    0    0  0.40722914510E+01 -0.51666414055E+01  0.27321379108E+01  0.71233642781E+01  0.00000000000E+00 0. -1.
</event>
<event>
 7    1  0.2575978E-011  0.5052886E+02  0.7816164E-02  0.1300439E+00
        -11   -1    0    0    0    0  0.00000000000E+00  0.00000000000E+00  0.45593999997E+02  0.45594000000E+02  0.51100000000E-03 0.  1.
         11   -1    0    0    0    0 -0.00000000000E+00 -0.00000000000E+00 -0.45593999997E+02  0.45594000000E+02  0.51100000000E-03 0. -1.
    9900012    2    1    2    0    0  0.11834765282E+02 -0.27260181728E+02  0.27748630247E+02  0.50528860096E+02  0.30000000748E+02 0.  0.
         12    1    1    2    0    0 -0.11834765282E+02  0.27260181728E+02 -0.27748630247E+02  0.40659139904E+02  0.00000000000E+00 0. -1.
         11    1    3    3    0    0  0.11448838128E+01  0.11558861250E+01 -0.47244685235E+00  0.16941186406E+01  0.51100000000E-03 0. -1.
        -11    1    3    3    0    0  0.14360895456E+02 -0.10582117678E+02  0.35765834544E+01  0.18193638512E+02  0.51100000000E-03 0.  1.
        -12    1    3    3    0    0 -0.36710139873E+01 -0.17833950175E+02  0.24644493645E+02  0.30641102943E+02  0.00000000000E+00 0.  1.
</event>
<event>
 7    1  0.2575978E-011  0.5052885E+02  0.7816164E-02  0.1300439E+00
        -11   -1    0    0    0    0  0.00000000000E+00  0.00000000000E+00  0.45593999997E+02  0.45594000000E+02  0.51100000000E-03 0.  1.
         11   -1    0    0    0    0 -0.00000000000E+00 -0.00000000000E+00 -0.45593999997E+02  0.45594000000E+02  0.51100000000E-03 0. -1.
    9900012    2    1    2    0    0  0.25588865786E+02  0.23234788094E+01  0.31511557499E+02  0.50528845287E+02  0.29999955734E+02 0.  0.
         12    1    1    2    0    0 -0.25588865786E+02 -0.23234788094E+01 -0.31511557499E+02  0.40659154713E+02  0.00000000000E+00 0. -1.
         11    1    3    3    0    0  0.29264506240E+01  0.75279797792E+01  0.37903014371E+01  0.89219380213E+01  0.51100000000E-03 0. -1.
        -11    1    3    3    0    0  0.19494823436E+02  0.43123470366E+01  0.13114523634E+02  0.23887972040E+02  0.51100000000E-03 0.  1.
         12    1    3    3    0    0  0.31675917261E+01 -0.95168480065E+01  0.14606732428E+02  0.17718935226E+02  0.00000000000E+00 0. -1.
</event>
<event>
 7    1  0.2575978E-011  0.5052900E+02  0.7816164E-02  0.1300438E+00
        -11   -1    0    0    0    0  0.00000000000E+00  0.00000000000E+00  0.45593999997E+02  0.45594000000E+02  0.51100000000E-03 0.  1.
         11   -1    0    0    0    0 -0.00000000000E+00 -0.00000000000E+00 -0.45593999997E+02  0.45594000000E+02  0.51100000000E-03 0. -1.
    9900012    2    1    2    0    0  0.30672493055E+01 -0.33038605903E+02 -0.23498863705E+02  0.50529002303E+02  0.30000432996E+02 0.  0.
         12    1    1    2    0    0 -0.30672493055E+01  0.33038605903E+02  0.23498863705E+02  0.40658997697E+02  0.00000000000E+00 0. -1.
         11    1    3    3    0    0 -0.89304295334E+01 -0.10561499118E+02 -0.70038893951E+01  0.15503299720E+02  0.51100000000E-03 0. -1.
        -11    1    3    3    0    0  0.64478051300E+01 -0.24030148430E+02 -0.15072900110E+02  0.29089766973E+02  0.51100000000E-03 0.  1.
         12    1    3    3    0    0  0.55498737088E+01  0.15530416453E+01 -0.14220742002E+01  0.59359356101E+01  0.00000000000E+00 0. -1.
</event>
<event>
 7    1  0.2575978E-011  0.5052886E+02  0.7816164E-02  0.1300439E+00
        -11   -1    0    0    0    0  0.00000000000E+00  0.00000000000E+00  0.45593999997E+02  0.45594000000E+02  0.51100000000E-03 0.  1.
         11   -1    0    0    0    0 -0.00000000000E+00 -0.00000000000E+00 -0.45593999997E+02  0.45594000000E+02  0.51100000000E-03 0. -1.
    9900012    2    1    2    0    0  0.23925632997E+02 -0.32082327350E+02 -0.71731315453E+01  0.50528862544E+02  0.30000008190E+02 0.  0.
         12    1    1    2    0    0 -0.23925632997E+02  0.32082327350E+02  0.71731315453E+01  0.40659137456E+02  0.00000000000E+00 0. -1.
         11    1    3    3    0    0  0.18911369169E+01  0.31692107805E-01  0.35809475145E+01  0.40497640167E+01  0.51100000000E-03 0. -1.
        -11    1    3    3    0    0  0.28758163719E+01 -0.13333130644E+02  0.59437707064E+01  0.14878545058E+02  0.51100000000E-03 0.  1.
         12    1    3    3    0    0  0.19158679708E+02 -0.18780888814E+02 -0.16697849766E+02  0.31600553470E+02  0.00000000000E+00 0. -1.
</event>
<event>
 7    1  0.2575978E-011  0.5052888E+02  0.7816164E-02  0.1300439E+00
        -11   -1    0    0    0    0  0.00000000000E+00  0.00000000000E+00  0.45593999997E+02  0.45594000000E+02  0.51100000000E-03 0.  1.
         11   -1    0    0    0    0 -0.00000000000E+00 -0.00000000000E+00 -0.45593999997E+02  0.45594000000E+02  0.51100000000E-03 0. -1.
    9900012    2    1    2    0    0  0.16442504679E+02  0.37178293392E+02 -0.76303725883E+00  0.50528884349E+02  0.30000074466E+02 0.  0.
         12    1    1    2    0    0 -0.16442504679E+02 -0.37178293392E+02  0.76303725883E+00  0.40659115651E+02  0.00000000000E+00 0. -1.
         11    1    3    3    0    0  0.24933650281E+01  0.23421305087E+02  0.20167482532E+01  0.23639832380E+02  0.51100000000E-03 0. -1.
        -11    1    3    3    0    0 -0.28951801412E+01  0.74208769540E+01  0.21092849610E+01  0.82401799813E+01  0.51100000000E-03 0.  1.
        -12    1    3    3    0    0  0.16844319793E+02  0.63361113511E+01 -0.48890704730E+01  0.18648871988E+02  0.00000000000E+00 0.  1.
</event>
<event>
 7    1  0.2575978E-011  0.5052886E+02  0.7816164E-02  0.1300439E+00
        -11   -1    0    0    0    0  0.00000000000E+00  0.00000000000E+00  0.45593999997E+02  0.45594000000E+02  0.51100000000E-03 0. -1.
         11   -1    0    0    0    0 -0.00000000000E+00 -0.00000000000E+00 -0.45593999997E+02  0.45594000000E+02  0.51100000000E-03 0.  1.
    9900012    2    1    2    0    0 -0.10055937528E+01 -0.36456587283E+02 -0.17974192866E+02  0.50528860999E+02  0.30000003491E+02 0.  0.
         12    1    1    2    0    0  0.10055937528E+01  0.36456587283E+02  0.17974192866E+02  0.40659139001E+02  0.00000000000E+00 0. -1.
         11    1    3    3    0    0  0.15375492153E+01 -0.30114900927E+02 -0.10749978299E+02  0.32013018432E+02  0.51100000000E-03 0.  1.
        -11    1    3    3    0    0 -0.78353518191E+01 -0.59828093566E+01 -0.85486765589E+01  0.13048625104E+02  0.51100000000E-03 0. -1.
        -12    1    3    3    0    0  0.52922088511E+01 -0.35887699969E+00  0.13244619911E+01  0.54672174632E+01  0.00000000000E+00 0.  1.
</event>
<event>
 7    1  0.2575978E-011  0.5052886E+02  0.7816164E-02  0.1300439E+00
        -11   -1    0    0    0    0  0.00000000000E+00  0.00000000000E+00  0.45593999997E+02  0.45594000000E+02  0.51100000000E-03 0.  1.
         11   -1    0    0    0    0 -0.00000000000E+00 -0.00000000000E+00 -0.45593999997E+02  0.45594000000E+02  0.51100000000E-03 0. -1.
    9900012    2    1    2    0    0 -0.29161058376E+02  0.14537743250E+02  0.24319791851E+02  0.50528861051E+02  0.30000003650E+02 0.  0.
         12    1    1    2    0    0  0.29161058376E+02 -0.14537743250E+02 -0.24319791851E+02  0.40659138949E+02  0.00000000000E+00 0. -1.
         11    1    3    3    0    0 -0.87545011336E+00 -0.23685049369E+01 -0.42145643045E+00  0.25600496716E+01  0.51100000000E-03 0. -1.
        -11    1    3    3    0    0 -0.30676643744E+02  0.12541959579E+02  0.13706725857E+02  0.35864070536E+02  0.51100000000E-03 0.  1.
         12    1    3    3    0    0  0.23910354811E+01  0.43642886073E+01  0.11034522425E+02  0.12104740843E+02  0.00000000000E+00 0. -1.
</event>
<event>
 7    1  0.2575978E-011  0.5052886E+02  0.7816164E-02  0.1300439E+00
        -11   -1    0    0    0    0  0.00000000000E+00  0.00000000000E+00  0.45593999997E+02  0.45594000000E+02  0.51100000000E-03 0.  1.
         11   -1    0    0    0    0 -0.00000000000E+00 -0.00000000000E+00 -0.45593999997E+02  0.45594000000E+02  0.51100000000E-03 0. -1.
    9900012    2    1    2    0    0  0.11163980857E+02  0.32251329207E+02  0.22099384123E+02  0.50528862247E+02  0.30000007286E+02 0.  0.
         12    1    1    2    0    0 -0.11163980857E+02 -0.32251329207E+02 -0.22099384123E+02  0.40659137753E+02  0.00000000000E+00 0. -1.
         11    1    3    3    0    0  0.59423220312E+00 -0.19927728912E+01  0.32780294059E+00  0.21051628763E+01  0.51100000000E-03 0. -1.
        -11    1    3    3    0    0  0.73014840077E+01  0.92824299997E+01 -0.39300991234E+01  0.12446720644E+02  0.51100000000E-03 0.  1.
        -12    1    3    3    0    0  0.32682646464E+01  0.24961672099E+02  0.25701680305E+02  0.35976978726E+02  0.00000000000E+00 0.  1.
</event>
<event>
 7    1  0.2575978E-011  0.5052885E+02  0.7816164E-02  0.1300439E+00
        -11   -1    0    0    0    0  0.00000000000E+00  0.00000000000E+00  0.45593999997E+02  0.45594000000E+02  0.51100000000E-03 0.  1.
         11   -1    0    0    0    0 -0.00000000000E+00 -0.00000000000E+00 -0.45593999997E+02  0.45594000000E+02  0.51100000000E-03 0. -1.
    9900012    2    1    2    0    0 -0.19641653459E+01 -0.31630756653E+02  0.25471620460E+02  0.50528853910E+02  0.29999981944E+02 0.  0.
         12    1    1    2    0    0  0.19641653459E+01  0.31630756653E+02 -0.25471620460E+02  0.40659146090E+02  0.00000000000E+00 0. -1.
         11    1    3    3    0    0  0.58012983797E+00 -0.20387227998E+02  0.12247724180E+02  0.23790383854E+02  0.51100000000E-03 0. -1.
        -11    1    3    3    0    0 -0.92515930468E+01 -0.79625694229E+01  0.78620911186E+00  0.12231623390E+02  0.51100000000E-03 0.  1.
        -12    1    3    3    0    0  0.67072978630E+01 -0.32809592319E+01  0.12437687168E+02  0.14506846666E+02  0.00000000000E+00 0.  1.
</event>
<event>
 7    1  0.2575978E-011  0.5052886E+02  0.7816164E-02  0.1300439E+00
        -11   -1    0    0    0    0  0.00000000000E+00  0.00000000000E+00  0.45593999997E+02  0.45594000000E+02  0.51100000000E-03 0. -1.
         11   -1    0    0    0    0 -0.00000000000E+00 -0.00000000000E+00 -0.45593999997E+02  0.45594000000E+02  0.51100000000E-03 0.  1.
    9900012    2    1    2    0    0 -0.24439384511E+02 -0.32321190625E+02 -0.33500648809E+01  0.50528858181E+02  0.29999994927E+02 0.  0.
         12    1    1    2    0    0  0.24439384511E+02  0.32321190625E+02  0.33500648809E+01  0.40659141819E+02  0.00000000000E+00 0. -1.
         11    1    3    3    0    0 -0.18713577695E+01 -0.76687026880E+01 -0.17821556809E+01  0.80924075498E+01  0.51100000000E-03 0. -1.
        -11    1    3    3    0    0  0.19828543139E+01 -0.12510698994E+02 -0.70608056510E+01  0.14501871508E+02  0.51100000000E-03 0.  1.
         12    1    3    3    0    0 -0.24550881056E+02 -0.12141788944E+02  0.54928964510E+01  0.27934579123E+02  0.00000000000E+00 0. -1.
</event>
<event>
 7    1  0.2575978E-011  0.5052886E+02  0.7816164E-02  0.1300439E+00
        -11   -1    0    0    0    0  0.00000000000E+00  0.00000000000E+00  0.45593999997E+02  0.45594000000E+02  0.51100000000E-03 0.  1.
         11   -1    0    0    0    0 -0.00000000000E+00 -0.00000000000E+00 -0.45593999997E+02  0.45594000000E+02  0.51100000000E-03 0. -1.
    9900012    2    1    2    0    0  0.28930251901E+02 -0.13298138470E+02  0.25285683910E+02  0.50528858684E+02  0.29999996455E+02 0.  0.
         12    1    1    2    0    0 -0.28930251901E+02  0.13298138470E+02 -0.25285683910E+02  0.40659141316E+02  0.00000000000E+00 0. -1.
         11    1    3    3    0    0  0.51008523317E+01  0.33101619141E-01  0.60487352271E+01  0.79124577936E+01  0.51100000000E-03 0. -1.
        -11    1    3    3    0    0  0.22952015873E+02 -0.12753390574E+02  0.25300135529E+02  0.36462869632E+02  0.51100000000E-03 0.  1.
         12    1    3    3    0    0  0.87738369571E+00 -0.57784951469E+00 -0.60631868462E+01  0.61535312580E+01  0.00000000000E+00 0. -1.
</event>
<event>
 7    1  0.2575978E-011  0.5052886E+02  0.7816164E-02  0.1300439E+00
        -11   -1    0    0    0    0  0.00000000000E+00  0.00000000000E+00  0.45593999997E+02  0.45594000000E+02  0.51100000000E-03 0.  1.
         11   -1    0    0    0    0 -0.00000000000E+00 -0.00000000000E+00 -0.45593999997E+02  0.45594000000E+02  0.51100000000E-03 0. -1.
    9900012    2    1    2    0    0  0.46989721569E+01 -0.34434935503E+02 -0.21102616795E+02  0.50528861322E+02  0.30000004474E+02 0.  0.
         12    1    1    2    0    0 -0.46989721569E+01  0.34434935503E+02  0.21102616795E+02  0.40659138678E+02  0.00000000000E+00 0. -1.
         11    1    3    3    0    0 -0.17884887147E+01 -0.21430925400E+01 -0.59772966820E+00  0.28546135527E+01  0.51100000000E-03 0.  1.
        -11    1    3    3    0    0  0.13171098606E+02 -0.17308708951E+02 -0.43839167719E+00  0.21754572659E+02  0.51100000000E-03 0. -1.
        -12    1    3    3    0    0 -0.66836377342E+01 -0.14983134012E+02 -0.20066495450E+02  0.25919675110E+02  0.00000000000E+00 0.  1.
</event>
<event>
 7    1  0.2575978E-011  0.5052886E+02  0.7816164E-02  0.1300439E+00
        -11   -1    0    0    0    0  0.00000000000E+00  0.00000000000E+00  0.45593999997E+02  0.45594000000E+02  0.51100000000E-03 0.  1.
         11   -1    0    0    0    0 -0.00000000000E+00 -0.00000000000E+00 -0.45593999997E+02  0.45594000000E+02  0.51100000000E-03 0. -1.
    9900012    2    1    2    0    0 -0.15174266615E+02 -0.83088597781E+01  0.36794970547E+02  0.50528863565E+02  0.30000011291E+02 0.  0.
         12    1    1    2    0    0  0.15174266615E+02  0.83088597781E+01 -0.36794970547E+02  0.40659136435E+02  0.00000000000E+00 0. -1.
         11    1    3    3    0    0 -0.32743188468E+01 -0.46406578311E+01 -0.16164666645E+01  0.59050684801E+01  0.51100000000E-03 0. -1.
        -11    1    3    3    0    0  0.75331289399E+00 -0.18413338246E+01  0.28177691739E+02  0.28247837130E+02  0.51100000000E-03 0.  1.
         12    1    3    3    0    0 -0.12653260662E+02 -0.18268681224E+01  0.10233745473E+02  0.16375957954E+02  0.00000000000E+00 0. -1.
</event>
<event>
 7    1  0.2575978E-011  0.5052886E+02  0.7816164E-02  0.1300439E+00
        -11   -1    0    0    0    0  0.00000000000E+00  0.00000000000E+00  0.45593999997E+02  0.45594000000E+02  0.51100000000E-03 0.  1.
         11   -1    0    0    0    0 -0.00000000000E+00 -0.00000000000E+00 -0.45593999997E+02  0.45594000000E+02  0.51100000000E-03 0. -1.
    9900012    2    1    2    0    0  0.24643260957E+02  0.19869756281E+02  0.25516029674E+02  0.50528864550E+02  0.30000014285E+02 0.  0.
         12    1    1    2    0    0 -0.24643260957E+02 -0.19869756281E+02 -0.25516029674E+02  0.40659135450E+02  0.00000000000E+00 0. -1.
         11    1    3    3    0    0  0.82896616833E+01 -0.53631778494E+01  0.95893896106E+00  0.99197646978E+01  0.51100000000E-03 0. -1.
        -11    1    3    3    0    0  0.17882586332E+00  0.96926768655E+01  0.53129490527E+01  0.11054745199E+02  0.51100000000E-03 0.  1.
        -12    1    3    3    0    0  0.16174773411E+02  0.15540257265E+02  0.19244141660E+02  0.29554354653E+02  0.00000000000E+00 0.  1.
</event>
<event>
 7    1  0.2575978E-011  0.5052886E+02  0.7816164E-02  0.1300439E+00
        -11   -1    0    0    0    0  0.00000000000E+00  0.00000000000E+00  0.45593999997E+02  0.45594000000E+02  0.51100000000E-03 0. -1.
         11   -1    0    0    0    0 -0.00000000000E+00 -0.00000000000E+00 -0.45593999997E+02  0.45594000000E+02  0.51100000000E-03 0.  1.
    9900012    2    1    2    0    0  0.36780636778E+02  0.14785502675E+02 -0.90409826814E+01  0.50528859589E+02  0.29999999206E+02 0.  0.
         12    1    1    2    0    0 -0.36780636778E+02 -0.14785502675E+02  0.90409826814E+01  0.40659140411E+02  0.00000000000E+00 0. -1.
         11    1    3    3    0    0  0.21274510414E+02  0.48702285337E+01  0.27006356607E+01  0.21991301748E+02  0.51100000000E-03 0. -1.
        -11    1    3    3    0    0  0.18017065110E+02  0.72201554370E+01 -0.37932154645E+01  0.19777102001E+02  0.51100000000E-03 0.  1.
        -12    1    3    3    0    0 -0.25109387469E+01  0.26951187042E+01 -0.79484028777E+01  0.87604558401E+01  0.00000000000E+00 0.  1.
</event>
<event>
 7    1  0.2575978E-011  0.5052887E+02  0.7816164E-02  0.1300439E+00
        -11   -1    0    0    0    0  0.00000000000E+00  0.00000000000E+00  0.45593999997E+02  0.45594000000E+02  0.51100000000E-03 0.  1.
         11   -1    0    0    0    0 -0.00000000000E+00 -0.00000000000E+00 -0.45593999997E+02  0.45594000000E+02  0.51100000000E-03 0. -1.
    9900012    2    1    2    0    0 -0.25383103128E+02  0.12940350435E+02  0.29007072088E+02  0.50528870337E+02  0.30000031877E+02 0.  0.
         12    1    1    2    0    0  0.25383103128E+02 -0.12940350435E+02 -0.29007072088E+02  0.40659129663E+02  0.00000000000E+00 0. -1.
         11    1    3    3    0    0 -0.76726718163E+01 -0.47459235243E+00  0.15756333526E+01  0.78471492547E+01  0.51100000000E-03 0. -1.
        -11    1    3    3    0    0 -0.13468166510E+02  0.20425256394E+02  0.19624439739E+02  0.31364011912E+02  0.51100000000E-03 0.  1.
         12    1    3    3    0    0 -0.42422648016E+01 -0.70103136071E+01  0.78069989971E+01  0.11317709170E+02  0.00000000000E+00 0. -1.
</event>
<event>
 7    1  0.2575978E-011  0.5052886E+02  0.7816164E-02  0.1300439E+00
        -11   -1    0    0    0    0  0.00000000000E+00  0.00000000000E+00  0.45593999997E+02  0.45594000000E+02  0.51100000000E-03 0.  1.
         11   -1    0    0    0    0 -0.00000000000E+00 -0.00000000000E+00 -0.45593999997E+02  0.45594000000E+02  0.51100000000E-03 0. -1.
    9900012    2    1    2    0    0 -0.68392666654E+01  0.91368711175E+01  0.39024451064E+02  0.50528858799E+02  0.29999996807E+02 0.  0.
         12    1    1    2    0    0  0.68392666654E+01 -0.91368711175E+01 -0.39024451064E+02  0.40659141201E+02  0.00000000000E+00 0. -1.
         11    1    3    3    0    0 -0.79744025295E+01  0.20910721223E+00  0.61696491866E+01  0.10084611687E+02  0.51100000000E-03 0. -1.
        -11    1    3    3    0    0 -0.85593159265E+01  0.40829458955E+01  0.25863367665E+02  0.27547161806E+02  0.51100000000E-03 0.  1.
        -12    1    3    3    0    0  0.96944517906E+01  0.48448180097E+01  0.69914342121E+01  0.12897085307E+02  0.00000000000E+00 0.  1.
</event>
<event>
 7    1  0.2575978E-011  0.5052886E+02  0.7816164E-02  0.1300439E+00
        -11   -1    0    0    0    0  0.00000000000E+00  0.00000000000E+00  0.45593999997E+02  0.45594000000E+02  0.51100000000E-03 0. -1.
         11   -1    0    0    0    0 -0.00000000000E+00 -0.00000000000E+00 -0.45593999997E+02  0.45594000000E+02  0.51100000000E-03 0.  1.
    9900012    2    1    2    0    0 -0.37124067867E+01  0.27927818318E+02  0.29315876723E+02  0.50528860459E+02  0.30000001852E+02 0.  0.
         12    1    1    2    0    0  0.37124067867E+01 -0.27927818318E+02 -0.29315876723E+02  0.40659139541E+02  0.00000000000E+00 0. -1.
         11    1    3    3    0    0 -0.96313374034E+00  0.17839968532E+02  0.27037738913E+02  0.32407274332E+02  0.51100000000E-03 0. -1.
        -11    1    3    3    0    0  0.11617520012E+01 -0.22318151718E+01  0.43556322925E+01  0.50301291834E+01  0.51100000000E-03 0.  1.
        -12    1    3    3    0    0 -0.39110250476E+01  0.12319664958E+02 -0.20774944823E+01  0.13091456944E+02  0.00000000000E+00 0.  1.
</event>
<event>
 7    1  0.2575978E-011  0.5052887E+02  0.7816164E-02  0.1300439E+00
        -11   -1    0    0    0    0  0.00000000000E+00  0.00000000000E+00  0.45593999997E+02  0.45594000000E+02  0.51100000000E-03 0. -1.
         11   -1    0    0    0    0 -0.00000000000E+00 -0.00000000000E+00 -0.45593999997E+02  0.45594000000E+02  0.51100000000E-03 0.  1.
    9900012    2    1    2    0    0  0.39475235423E+02 -0.79070887445E+01 -0.56875554293E+01  0.50528873707E+02  0.30000042121E+02 0.  0.
         12    1    1    2    0    0 -0.39475235423E+02  0.79070887445E+01  0.56875554293E+01  0.40659126293E+02  0.00000000000E+00 0. -1.
         11    1    3    3    0    0  0.64073772778E+01 -0.19868615970E+01  0.53283122790E+01  0.85669723117E+01  0.51100000000E-03 0. -1.
        -11    1    3    3    0    0  0.89200350045E+01  0.12862420980E+01  0.66381710535E+01  0.11193156767E+02  0.51100000000E-03 0.  1.
        -12    1    3    3    0    0  0.24147823141E+02 -0.72064692455E+01 -0.17654038762E+02  0.30768744629E+02  0.00000000000E+00 0.  1.
</event>
<event>
 7    1  0.2575978E-011  0.5052886E+02  0.7816164E-02  0.1300439E+00
        -11   -1    0    0    0    0  0.00000000000E+00  0.00000000000E+00  0.45593999997E+02  0.45594000000E+02  0.51100000000E-03 0. -1.
         11   -1    0    0    0    0 -0.00000000000E+00 -0.00000000000E+00 -0.45593999997E+02  0.45594000000E+02  0.51100000000E-03 0.  1.
    9900012    2    1    2    0    0 -0.20746544691E+02 -0.75414160730E+01 -0.34144895035E+02  0.50528856748E+02  0.29999990572E+02 0.  0.
         12    1    1    2    0    0  0.20746544691E+02  0.75414160730E+01  0.34144895035E+02  0.40659143252E+02  0.00000000000E+00 0. -1.
         11    1    3    3    0    0 -0.21305939368E+02 -0.37469906164E+01 -0.37102505702E+02  0.42948561334E+02  0.51100000000E-03 0.  1.
        -11    1    3    3    0    0  0.27739864618E+00 -0.17303565975E+01 -0.17226347733E+01  0.24573471035E+01  0.51100000000E-03 0. -1.
        -12    1    3    3    0    0  0.28199603020E+00 -0.20640688591E+01  0.46802454404E+01  0.51229483111E+01  0.00000000000E+00 0.  1.
</event>
<event>
 7    1  0.2575978E-011  0.5052886E+02  0.7816164E-02  0.1300439E+00
        -11   -1    0    0    0    0  0.00000000000E+00  0.00000000000E+00  0.45593999997E+02  0.45594000000E+02  0.51100000000E-03 0.  1.
         11   -1    0    0    0    0 -0.00000000000E+00 -0.00000000000E+00 -0.45593999997E+02  0.45594000000E+02  0.51100000000E-03 0. -1.
    9900012    2    1    2    0    0  0.31644973666E+02 -0.18954269694E+02  0.17102535297E+02  0.50528863123E+02  0.30000009949E+02 0.  0.
         12    1    1    2    0    0 -0.31644973666E+02  0.18954269694E+02 -0.17102535297E+02  0.40659136877E+02  0.00000000000E+00 0. -1.
         11    1    3    3    0    0  0.20290469459E+02  0.52541489525E+00  0.47174691770E+01  0.20838275538E+02  0.51100000000E-03 0. -1.
        -11    1    3    3    0    0 -0.13143115782E+01 -0.25297067041E+01 -0.25216754350E+01  0.38060055431E+01  0.51100000000E-03 0.  1.
        -12    1    3    3    0    0  0.12668815786E+02 -0.16949977885E+02  0.14906741555E+02  0.25884582042E+02  0.00000000000E+00 0.  1.
</event>
<event>
 7    1  0.2575978E-011  0.5052886E+02  0.7816164E-02  0.1300439E+00
        -11   -1    0    0    0    0  0.00000000000E+00  0.00000000000E+00  0.45593999997E+02  0.45594000000E+02  0.51100000000E-03 0.  1.
         11   -1    0    0    0    0 -0.00000000000E+00 -0.00000000000E+00 -0.45593999997E+02  0.45594000000E+02  0.51100000000E-03 0. -1.
    9900012    2    1    2    0    0 -0.20687507279E+02  0.79590887709E+01  0.34085858358E+02  0.50528858451E+02  0.29999995748E+02 0.  0.
         12    1    1    2    0    0  0.20687507279E+02 -0.79590887709E+01 -0.34085858358E+02  0.40659141549E+02  0.00000000000E+00 0. -1.
         11    1    3    3    0    0 -0.14310809740E+02  0.14793577707E+01  0.99913956281E+01  0.17516157161E+02  0.51100000000E-03 0. -1.
        -11    1    3    3    0    0 -0.87618194601E+01  0.93672903456E+01  0.53494498144E+01  0.13897201957E+02  0.51100000000E-03 0.  1.
        -12    1    3    3    0    0  0.23851219206E+01 -0.28875593454E+01  0.18745012916E+02  0.19115499333E+02  0.00000000000E+00 0.  1.
</event>
<event>
 7    1  0.2575978E-011  0.5052885E+02  0.7816164E-02  0.1300439E+00
        -11   -1    0    0    0    0  0.00000000000E+00  0.00000000000E+00  0.45593999997E+02  0.45594000000E+02  0.51100000000E-03 0.  1.
         11   -1    0    0    0    0 -0.00000000000E+00 -0.00000000000E+00 -0.45593999997E+02  0.45594000000E+02  0.51100000000E-03 0. -1.
    9900012    2    1    2    0    0 -0.24633069228E+02 -0.30779290362E+01  0.32201000708E+02  0.50528853510E+02  0.29999980728E+02 0.  0.
         12    1    1    2    0    0  0.24633069228E+02  0.30779290362E+01 -0.32201000708E+02  0.40659146490E+02  0.00000000000E+00 0. -1.
         11    1    3    3    0    0 -0.84267659261E+01 -0.63288717677E+01  0.76952948393E+01  0.13049236175E+02  0.51100000000E-03 0. -1.
        -11    1    3    3    0    0 -0.14811800506E+02 -0.20754213390E+01  0.29665204515E+01  0.15247854007E+02  0.51100000000E-03 0.  1.
         12    1    3    3    0    0 -0.13945027964E+01  0.53263640706E+01  0.21539185417E+02  0.22231763328E+02  0.00000000000E+00 0. -1.
</event>
<event>
 7    1  0.2575978E-011  0.5052887E+02  0.7816164E-02  0.1300439E+00
        -11   -1    0    0    0    0  0.00000000000E+00  0.00000000000E+00  0.45593999997E+02  0.45594000000E+02  0.51100000000E-03 0.  1.
         11   -1    0    0    0    0 -0.00000000000E+00 -0.00000000000E+00 -0.45593999997E+02  0.45594000000E+02  0.51100000000E-03 0. -1.
    9900012    2    1    2    0    0  0.94108147687E+01 -0.11611684597E+02  0.37812304175E+02  0.50528868175E+02  0.30000025303E+02 0.  0.
         12    1    1    2    0    0 -0.94108147687E+01  0.11611684597E+02 -0.37812304175E+02  0.40659131825E+02  0.00000000000E+00 0. -1.
         11    1    3    3    0    0  0.77422798088E+01 -0.15501964337E+02  0.26414656693E+02  0.31590946225E+02  0.51100000000E-03 0.  1.
        -11    1    3    3    0    0  0.21486488357E+01 -0.50483386803E+01  0.17079250160E+01  0.57462529853E+01  0.51100000000E-03 0. -1.
        -12    1    3    3    0    0 -0.48011387578E+00  0.89386184201E+01  0.96897224658E+01  0.13191668964E+02  0.00000000000E+00 0.  1.
</event>
<event>
 7    1  0.2575978E-011  0.5052886E+02  0.7816164E-02  0.1300439E+00
        -11   -1    0    0    0    0  0.00000000000E+00  0.00000000000E+00  0.45593999997E+02  0.45594000000E+02  0.51100000000E-03 0. -1.
         11   -1    0    0    0    0 -0.00000000000E+00 -0.00000000000E+00 -0.45593999997E+02  0.45594000000E+02  0.51100000000E-03 0.  1.
    9900012    2    1    2    0    0 -0.43233401623E+01 -0.35196604409E+02 -0.19891541117E+02  0.50528860313E+02  0.30000001407E+02 0.  0.
         12    1    1    2    0    0  0.43233401623E+01  0.35196604409E+02  0.19891541117E+02  0.40659139687E+02  0.00000000000E+00 0. -1.
         11    1    3    3    0    0 -0.50961444027E+01 -0.18405868758E+01 -0.22271863314E+01  0.58582255877E+01  0.51100000000E-03 0. -1.
        -11    1    3    3    0    0 -0.21610453172E+01 -0.87266376877E+01  0.56595692770E+01  0.10623325603E+02  0.51100000000E-03 0.  1.
        -12    1    3    3    0    0  0.29338495576E+01 -0.24629379846E+02 -0.23323924062E+02  0.34047309123E+02  0.00000000000E+00 0.  1.
</event>
<event>
 7    1  0.2575978E-011  0.5052884E+02  0.7816164E-02  0.1300439E+00
        -11   -1    0    0    0    0  0.00000000000E+00  0.00000000000E+00  0.45593999997E+02  0.45594000000E+02  0.51100000000E-03 0. -1.
         11   -1    0    0    0    0 -0.00000000000E+00 -0.00000000000E+00 -0.45593999997E+02  0.45594000000E+02  0.51100000000E-03 0.  1.
    9900012    2    1    2    0    0 -0.15951634853E+02 -0.25569393629E+02 -0.27293202353E+02  0.50528838182E+02  0.29999934139E+02 0.  0.
         12    1    1    2    0    0  0.15951634853E+02  0.25569393629E+02  0.27293202353E+02  0.40659161818E+02  0.00000000000E+00 0. -1.
         11    1    3    3    0    0 -0.67255686413E+01 -0.24899157110E+01 -0.15854752941E+01  0.73448407720E+01  0.51100000000E-03 0. -1.
        -11    1    3    3    0    0 -0.82922698741E+01 -0.18724908774E+02 -0.38003321617E+01  0.20828501459E+02  0.51100000000E-03 0.  1.
        -12    1    3    3    0    0 -0.93379633744E+00 -0.43545691447E+01 -0.21907394897E+02  0.22355495951E+02  0.00000000000E+00 0.  1.
</event>
<event>
 7    1  0.2575978E-011  0.5052886E+02  0.7816164E-02  0.1300439E+00
        -11   -1    0    0    0    0  0.00000000000E+00  0.00000000000E+00  0.45593999997E+02  0.45594000000E+02  0.51100000000E-03 0. -1.
         11   -1    0    0    0    0 -0.00000000000E+00 -0.00000000000E+00 -0.45593999997E+02  0.45594000000E+02  0.51100000000E-03 0.  1.
    9900012    2    1    2    0    0  0.52477648899E+01  0.19201074273E+02 -0.35453426246E+02  0.50528859304E+02  0.29999998340E+02 0.  0.
         12    1    1    2    0    0 -0.52477648899E+01 -0.19201074273E+02  0.35453426246E+02  0.40659140696E+02  0.00000000000E+00 0. -1.
         11    1    3    3    0    0 -0.48553831045E+01  0.18091452460E+02 -0.11957621016E+02  0.22222963300E+02  0.51100000000E-03 0. -1.
        -11    1    3    3    0    0  0.18431743856E+01  0.48344199670E+01 -0.15067364659E+02  0.15930925467E+02  0.51100000000E-03 0.  1.
         12    1    3    3    0    0  0.82599736088E+01 -0.37247981543E+01 -0.84284405713E+01  0.12374970536E+02  0.00000000000E+00 0. -1.
</event>
<event>
 7    1  0.2575978E-011  0.5052887E+02  0.7816164E-02  0.1300439E+00
        -11   -1    0    0    0    0  0.00000000000E+00  0.00000000000E+00  0.45593999997E+02  0.45594000000E+02  0.51100000000E-03 0.  1.
         11   -1    0    0    0    0 -0.00000000000E+00 -0.00000000000E+00 -0.45593999997E+02  0.45594000000E+02  0.51100000000E-03 0. -1.
    9900012    2    1    2    0    0 -0.40029426507E+02 -0.65308247168E+01 -0.28561989627E+01  0.50528873959E+02  0.30000042885E+02 0.  0.
         12    1    1    2    0    0  0.40029426507E+02  0.65308247168E+01  0.28561989627E+01  0.40659126041E+02  0.00000000000E+00 0. -1.
         11    1    3    3    0    0 -0.10246582143E+02 -0.10725855416E+02  0.22019643399E+01  0.14996168418E+02  0.51100000000E-03 0. -1.
        -11    1    3    3    0    0 -0.63776287515E+01 -0.52305813307E+01 -0.61322309316E+01  0.10278004962E+02  0.51100000000E-03 0.  1.
         12    1    3    3    0    0 -0.23405215613E+02  0.94256120300E+01  0.10740676290E+01  0.25254700578E+02  0.00000000000E+00 0. -1.
</event>
<event>
 7    1  0.2575978E-011  0.5052886E+02  0.7816164E-02  0.1300439E+00
        -11   -1    0    0    0    0  0.00000000000E+00  0.00000000000E+00  0.45593999997E+02  0.45594000000E+02  0.51100000000E-03 0. -1.
         11   -1    0    0    0    0 -0.00000000000E+00 -0.00000000000E+00 -0.45593999997E+02  0.45594000000E+02  0.51100000000E-03 0.  1.
    9900012    2    1    2    0    0 -0.23996899400E+02 -0.26401748061E+02  0.19500312130E+02  0.50528860133E+02  0.30000000862E+02 0.  0.
         12    1    1    2    0    0  0.23996899400E+02  0.26401748061E+02 -0.19500312130E+02  0.40659139867E+02  0.00000000000E+00 0. -1.
         11    1    3    3    0    0 -0.22188771020E+00 -0.91626439933E+01  0.13974524770E+02  0.16711990364E+02  0.51100000000E-03 0. -1.
        -11    1    3    3    0    0 -0.17912120061E+02 -0.92961985841E+01  0.10514541256E+02  0.22755635154E+02  0.51100000000E-03 0.  1.
         12    1    3    3    0    0 -0.58628916295E+01 -0.79429054837E+01 -0.49887538961E+01  0.11061234615E+02  0.00000000000E+00 0. -1.
</event>
<event>
 7    1  0.2575978E-011  0.5052886E+02  0.7816164E-02  0.1300439E+00
        -11   -1    0    0    0    0  0.00000000000E+00  0.00000000000E+00  0.45593999997E+02  0.45594000000E+02  0.51100000000E-03 0.  1.
         11   -1    0    0    0    0 -0.00000000000E+00 -0.00000000000E+00 -0.45593999997E+02  0.45594000000E+02  0.51100000000E-03 0. -1.
    9900012    2    1    2    0    0 -0.19929196263E+02  0.34422675706E+02 -0.84304174553E+01  0.50528863205E+02  0.30000010198E+02 0.  0.
         12    1    1    2    0    0  0.19929196263E+02 -0.34422675706E+02  0.84304174553E+01  0.40659136795E+02  0.00000000000E+00 0. -1.
         11    1    3    3    0    0 -0.40550097572E+01  0.22352375623E+01 -0.44817433505E+01  0.64440216334E+01  0.51100000000E-03 0. -1.
        -11    1    3    3    0    0 -0.17775497724E+02  0.96360923355E+01  0.29315102903E+01  0.20430769630E+02  0.51100000000E-03 0.  1.
        -12    1    3    3    0    0  0.19013112183E+01  0.22551345808E+02 -0.68801843951E+01  0.23654071941E+02  0.00000000000E+00 0.  1.
</event>
<event>
 7    1  0.2575978E-011  0.5052886E+02  0.7816164E-02  0.1300439E+00
        -11   -1    0    0    0    0  0.00000000000E+00  0.00000000000E+00  0.45593999997E+02  0.45594000000E+02  0.51100000000E-03 0.  1.
         11   -1    0    0    0    0 -0.00000000000E+00 -0.00000000000E+00 -0.45593999997E+02  0.45594000000E+02  0.51100000000E-03 0. -1.
    9900012    2    1    2    0    0 -0.85525829410E+01 -0.34708932573E+02  0.19372892649E+02  0.50528860254E+02  0.30000001227E+02 0.  0.
         12    1    1    2    0    0  0.85525829410E+01  0.34708932573E+02 -0.19372892649E+02  0.40659139746E+02  0.00000000000E+00 0. -1.
         11    1    3    3    0    0 -0.65590008973E+01 -0.84560683750E+01 -0.16590830649E+01  0.10829503313E+02  0.51100000000E-03 0. -1.
        -11    1    3    3    0    0 -0.86136204881E+01 -0.21473909184E+02  0.83127481328E+01  0.24585056749E+02  0.51100000000E-03 0.  1.
        -12    1    3    3    0    0  0.66200384444E+01 -0.47789550141E+01  0.12719227581E+02  0.15114300192E+02  0.00000000000E+00 0.  1.
</event>
<event>
 7    1  0.2575978E-011  0.5052887E+02  0.7816164E-02  0.1300439E+00
        -11   -1    0    0    0    0  0.00000000000E+00  0.00000000000E+00  0.45593999997E+02  0.45594000000E+02  0.51100000000E-03 0.  1.
         11   -1    0    0    0    0 -0.00000000000E+00 -0.00000000000E+00 -0.45593999997E+02  0.45594000000E+02  0.51100000000E-03 0. -1.
    9900012    2    1    2    0    0  0.31000502455E+02  0.22016039513E+02 -0.14402359759E+02  0.50528866771E+02  0.30000021037E+02 0.  0.
         12    1    1    2    0    0 -0.31000502455E+02 -0.22016039513E+02  0.14402359759E+02  0.40659133229E+02  0.00000000000E+00 0. -1.
         11    1    3    3    0    0  0.62873347358E+01  0.11822706714E+02 -0.33815469978E+01  0.13810931630E+02  0.51100000000E-03 0. -1.
        -11    1    3    3    0    0  0.19006106294E+02 -0.40777689297E+01 -0.41226819151E+01  0.19871003556E+02  0.51100000000E-03 0.  1.
         12    1    3    3    0    0  0.57070614252E+01  0.14271101728E+02 -0.68981308463E+01  0.16846931585E+02  0.00000000000E+00 0. -1.
</event>
<event>
 7    1  0.2575978E-011  0.5052886E+02  0.7816164E-02  0.1300439E+00
        -11   -1    0    0    0    0  0.00000000000E+00  0.00000000000E+00  0.45593999997E+02  0.45594000000E+02  0.51100000000E-03 0.  1.
         11   -1    0    0    0    0 -0.00000000000E+00 -0.00000000000E+00 -0.45593999997E+02  0.45594000000E+02  0.51100000000E-03 0. -1.
    9900012    2    1    2    0    0 -0.23885410835E+02 -0.23304180400E+02  0.23228603177E+02  0.50528859817E+02  0.29999999900E+02 0.  0.
         12    1    1    2    0    0  0.23885410835E+02  0.23304180400E+02 -0.23228603177E+02  0.40659140183E+02  0.00000000000E+00 0. -1.
         11    1    3    3    0    0 -0.74169173460E+01 -0.87358284418E+00 -0.30859841890E+01  0.80806626325E+01  0.51100000000E-03 0. -1.
        -11    1    3    3    0    0 -0.12319436386E+02 -0.44027363030E+01  0.44748869824E+01  0.13826684837E+02  0.51100000000E-03 0.  1.
        -12    1    3    3    0    0 -0.41490571028E+01 -0.18027861253E+02  0.21839700384E+02  0.28621512347E+02  0.00000000000E+00 0.  1.
</event>
<event>
 7    1  0.2575978E-011  0.5052887E+02  0.7816164E-02  0.1300439E+00
        -11   -1    0    0    0    0  0.00000000000E+00  0.00000000000E+00  0.45593999997E+02  0.45594000000E+02  0.51100000000E-03 0.  1.
         11   -1    0    0    0    0 -0.00000000000E+00 -0.00000000000E+00 -0.45593999997E+02  0.45594000000E+02  0.51100000000E-03 0. -1.
    9900012    2    1    2    0    0  0.20097547522E+01  0.30989056479E+02  0.26245081950E+02  0.50528867420E+02  0.30000023009E+02 0.  0.
         12    1    1    2    0    0 -0.20097547522E+01 -0.30989056479E+02 -0.26245081950E+02  0.40659132580E+02  0.00000000000E+00 0. -1.
         11    1    3    3    0    0 -0.79053425312E+01  0.83960864124E+00  0.45016143495E+01  0.91358587565E+01  0.51100000000E-03 0. -1.
        -11    1    3    3    0    0  0.16102102893E+01 -0.14730803656E+01  0.10253704219E+00  0.21847784888E+01  0.51100000000E-03 0.  1.
        -12    1    3    3    0    0  0.83048869941E+01  0.31622528204E+02  0.21640930558E+02  0.39208230174E+02  0.00000000000E+00 0.  1.
</event>
<event>
 7    1  0.2575978E-011  0.5052886E+02  0.7816164E-02  0.1300439E+00
        -11   -1    0    0    0    0  0.00000000000E+00  0.00000000000E+00  0.45593999997E+02  0.45594000000E+02  0.51100000000E-03 0.  1.
         11   -1    0    0    0    0 -0.00000000000E+00 -0.00000000000E+00 -0.45593999997E+02  0.45594000000E+02  0.51100000000E-03 0. -1.
    9900012    2    1    2    0    0  0.28300858461E+02  0.12541116455E+01  0.29165971563E+02  0.50528864706E+02  0.30000014761E+02 0.  0.
         12    1    1    2    0    0 -0.28300858461E+02 -0.12541116455E+01 -0.29165971563E+02  0.40659135294E+02  0.00000000000E+00 0. -1.
         11    1    3    3    0    0  0.42741729322E+01 -0.24197357423E+01 -0.12187161945E+01  0.50605281089E+01  0.51100000000E-03 0.  1.
        -11    1    3    3    0    0  0.12069953559E+02 -0.76870488640E+01  0.49263290481E+01  0.15134173823E+02  0.51100000000E-03 0. -1.
        -12    1    3    3    0    0  0.11956731969E+02  0.11360896252E+02  0.25458358709E+02  0.30334162774E+02  0.00000000000E+00 0.  1.
</event>
<event>
 7    1  0.2575978E-011  0.5052890E+02  0.7816164E-02  0.1300439E+00
        -11   -1    0    0    0    0  0.00000000000E+00  0.00000000000E+00  0.45593999997E+02  0.45594000000E+02  0.51100000000E-03 0.  1.
         11   -1    0    0    0    0 -0.00000000000E+00 -0.00000000000E+00 -0.45593999997E+02  0.45594000000E+02  0.51100000000E-03 0. -1.
    9900012    2    1    2    0    0 -0.24833280896E+01  0.33281788132E+02  0.23223217140E+02  0.50528903183E+02  0.30000131714E+02 0.  0.
         12    1    1    2    0    0  0.24833280896E+01 -0.33281788132E+02 -0.23223217140E+02  0.40659096817E+02  0.00000000000E+00 0. -1.
         11    1    3    3    0    0 -0.31470711301E+01  0.85580766873E+00 -0.44859252842E+01  0.55461688921E+01  0.51100000000E-03 0. -1.
        -11    1    3    3    0    0  0.39165825465E+01  0.42401396037E+01  0.70821424014E+00  0.58154939922E+01  0.51100000000E-03 0.  1.
         12    1    3    3    0    0 -0.32528395060E+01  0.28185840859E+02  0.27000928184E+02  0.39167240299E+02  0.00000000000E+00 0. -1.
</event>
<event>
 7    1  0.2575978E-011  0.5052885E+02  0.7816164E-02  0.1300439E+00
        -11   -1    0    0    0    0  0.00000000000E+00  0.00000000000E+00  0.45593999997E+02  0.45594000000E+02  0.51100000000E-03 0. -1.
         11   -1    0    0    0    0 -0.00000000000E+00 -0.00000000000E+00 -0.45593999997E+02  0.45594000000E+02  0.51100000000E-03 0.  1.
    9900012    2    1    2    0    0  0.24536329951E+02 -0.12221093908E+02 -0.30029649258E+02  0.50528850251E+02  0.29999970822E+02 0.  0.
         12    1    1    2    0    0 -0.24536329951E+02  0.12221093908E+02  0.30029649258E+02  0.40659149749E+02  0.00000000000E+00 0. -1.
         11    1    3    3    0    0  0.15029782797E+02 -0.67836556990E+01 -0.87966057939E+01  0.18689372096E+02  0.51100000000E-03 0. -1.
        -11    1    3    3    0    0  0.10043833335E+02 -0.13577329425E+01  0.77300560531E-01  0.10135482349E+02  0.51100000000E-03 0.  1.
        -12    1    3    3    0    0 -0.53728618124E+00 -0.40797052667E+01 -0.21310344025E+02  0.21703995806E+02  0.00000000000E+00 0.  1.
</event>
<event>
 7    1  0.2575978E-011  0.5052886E+02  0.7816164E-02  0.1300439E+00
        -11   -1    0    0    0    0  0.00000000000E+00  0.00000000000E+00  0.45593999997E+02  0.45594000000E+02  0.51100000000E-03 0.  1.
         11   -1    0    0    0    0 -0.00000000000E+00 -0.00000000000E+00 -0.45593999997E+02  0.45594000000E+02  0.51100000000E-03 0. -1.
    9900012    2    1    2    0    0  0.18840996384E+02  0.27259683006E+02  0.23560397043E+02  0.50528858702E+02  0.29999996510E+02 0.  0.
         12    1    1    2    0    0 -0.18840996384E+02 -0.27259683006E+02 -0.23560397043E+02  0.40659141298E+02  0.00000000000E+00 0. -1.
         11    1    3    3    0    0  0.11811921790E+02  0.77438629284E+01  0.69393123817E+01  0.15736675825E+02  0.51100000000E-03 0. -1.
        -11    1    3    3    0    0  0.12235119102E+02  0.18444616303E+02  0.18807240965E+02  0.29045039558E+02  0.51100000000E-03 0.  1.
         12    1    3    3    0    0 -0.52060445074E+01  0.10712037747E+01 -0.21861563039E+01  0.57471433186E+01  0.00000000000E+00 0. -1.
</event>
<event>
 7    1  0.2575978E-011  0.5052886E+02  0.7816164E-02  0.1300439E+00
        -11   -1    0    0    0    0  0.00000000000E+00  0.00000000000E+00  0.45593999997E+02  0.45594000000E+02  0.51100000000E-03 0.  1.
         11   -1    0    0    0    0 -0.00000000000E+00 -0.00000000000E+00 -0.45593999997E+02  0.45594000000E+02  0.51100000000E-03 0. -1.
    9900012    2    1    2    0    0 -0.21691694502E+02  0.14699795677E+02  0.31089420609E+02  0.50528859857E+02  0.30000000023E+02 0.  0.
         12    1    1    2    0    0  0.21691694502E+02 -0.14699795677E+02 -0.31089420609E+02  0.40659140143E+02  0.00000000000E+00 0. -1.
         11    1    3    3    0    0  0.21714354533E+01 -0.14545279875E+01  0.82045582079E+01  0.86107815698E+01  0.51100000000E-03 0. -1.
        -11    1    3    3    0    0 -0.17291974529E+02 -0.39957633778E+00  0.11842724301E+02  0.20962398801E+02  0.51100000000E-03 0.  1.
        -12    1    3    3    0    0 -0.65711554266E+01  0.16553900002E+02  0.11042138100E+02  0.20955679487E+02  0.00000000000E+00 0.  1.
</event>
<event>
 7    1  0.2575978E-011  0.5052890E+02  0.7816164E-02  0.1300439E+00
        -11   -1    0    0    0    0  0.00000000000E+00  0.00000000000E+00  0.45593999997E+02  0.45594000000E+02  0.51100000000E-03 0. -1.
         11   -1    0    0    0    0 -0.00000000000E+00 -0.00000000000E+00 -0.45593999997E+02  0.45594000000E+02  0.51100000000E-03 0.  1.
    9900012    2    1    2    0    0  0.68344398218E+01  0.39812857239E+02 -0.46248309613E+01  0.50528902240E+02  0.30000128849E+02 0.  0.
         12    1    1    2    0    0 -0.68344398218E+01 -0.39812857239E+02  0.46248309613E+01  0.40659097760E+02  0.00000000000E+00 0. -1.
         11    1    3    3    0    0 -0.11831687772E+01 -0.86175086829E+00 -0.32792753792E+00  0.15000132151E+01  0.51100000000E-03 0. -1.
        -11    1    3    3    0    0 -0.19931840492E+01 -0.32287271465E+01 -0.66749320102E+00  0.38526625955E+01  0.51100000000E-03 0.  1.
        -12    1    3    3    0    0  0.10010792648E+02  0.43903335254E+02 -0.36294102223E+01  0.45176226430E+02  0.00000000000E+00 0.  1.
</event>
<event>
 7    1  0.2575978E-011  0.5052885E+02  0.7816164E-02  0.1300439E+00
        -11   -1    0    0    0    0  0.00000000000E+00  0.00000000000E+00  0.45593999997E+02  0.45594000000E+02  0.51100000000E-03 0.  1.
         11   -1    0    0    0    0 -0.00000000000E+00 -0.00000000000E+00 -0.45593999997E+02  0.45594000000E+02  0.51100000000E-03 0. -1.
    9900012    2    1    2    0    0  0.76412622248E+01  0.20784986760E+02  0.34099292926E+02  0.50528851693E+02  0.29999975206E+02 0.  0.
         12    1    1    2    0    0 -0.76412622248E+01 -0.20784986760E+02 -0.34099292926E+02  0.40659148307E+02  0.00000000000E+00 0. -1.
         11    1    3    3    0    0  0.50094795761E+01  0.18328573832E+02  0.84454121341E+01  0.20793183756E+02  0.51100000000E-03 0. -1.
        -11    1    3    3    0    0 -0.12844719485E+01  0.38946800504E+01  0.37869386484E+00  0.41184718266E+01  0.51100000000E-03 0.  1.
        -12    1    3    3    0    0  0.39162545972E+01 -0.14382671222E+01  0.25275186927E+02  0.25617196110E+02  0.00000000000E+00 0.  1.
</event>
<event>
 7    1  0.2575978E-011  0.5052887E+02  0.7816164E-02  0.1300439E+00
        -11   -1    0    0    0    0  0.00000000000E+00  0.00000000000E+00  0.45593999997E+02  0.45594000000E+02  0.51100000000E-03 0. -1.
         11   -1    0    0    0    0 -0.00000000000E+00 -0.00000000000E+00 -0.45593999997E+02  0.45594000000E+02  0.51100000000E-03 0.  1.
    9900012    2    1    2    0    0 -0.88787993157E+01  0.39532804466E+02 -0.33896024045E+01  0.50528866823E+02  0.30000021195E+02 0.  0.
         12    1    1    2    0    0  0.88787993157E+01 -0.39532804466E+02  0.33896024045E+01  0.40659133177E+02  0.00000000000E+00 0. -1.
         11    1    3    3    0    0  0.20230081627E+01  0.96801985601E+01 -0.37332749195E+01  0.10570532062E+02  0.51100000000E-03 0. -1.
        -11    1    3    3    0    0 -0.72153531621E+01  0.28386623904E+02 -0.83043206250E+01  0.30443775706E+02  0.51100000000E-03 0.  1.
        -12    1    3    3    0    0 -0.36864543163E+01  0.14659820019E+01  0.86479931400E+01  0.95145590547E+01  0.00000000000E+00 0.  1.
</event>
<event>
 7    1  0.2575978E-011  0.5052886E+02  0.7816164E-02  0.1300439E+00
        -11   -1    0    0    0    0  0.00000000000E+00  0.00000000000E+00  0.45593999997E+02  0.45594000000E+02  0.51100000000E-03 0.  1.
         11   -1    0    0    0    0 -0.00000000000E+00 -0.00000000000E+00 -0.45593999997E+02  0.45594000000E+02  0.51100000000E-03 0. -1.
    9900012    2    1    2    0    0 -0.28658151113E+02 -0.25803549620E+02 -0.12886138379E+02  0.50528863750E+02  0.30000011856E+02 0.  0.
         12    1    1    2    0    0  0.28658151113E+02  0.25803549620E+02  0.12886138379E+02  0.40659136250E+02  0.00000000000E+00 0. -1.
         11    1    3    3    0    0  0.31056940564E+01  0.19167840870E+01 -0.39626138204E+01  0.53871797221E+01  0.51100000000E-03 0. -1.
        -11    1    3    3    0    0 -0.65613476558E+01 -0.30061317645E+01 -0.65789277521E+01  0.97657770748E+01  0.51100000000E-03 0.  1.
        -12    1    3    3    0    0 -0.25202497514E+02 -0.24714201943E+02 -0.23445968065E+01  0.35375906954E+02  0.00000000000E+00 0.  1.
</event>
<event>
 7    1  0.2575978E-011  0.5052886E+02  0.7816164E-02  0.1300439E+00
        -11   -1    0    0    0    0  0.00000000000E+00  0.00000000000E+00  0.45593999997E+02  0.45594000000E+02  0.51100000000E-03 0.  1.
         11   -1    0    0    0    0 -0.00000000000E+00 -0.00000000000E+00 -0.45593999997E+02  0.45594000000E+02  0.51100000000E-03 0. -1.
    9900012    2    1    2    0    0  0.35334049935E+02  0.64291793938E+01  0.19061382969E+02  0.50528858923E+02  0.29999997181E+02 0.  0.
         12    1    1    2    0    0 -0.35334049935E+02 -0.64291793938E+01 -0.19061382969E+02  0.40659141077E+02  0.00000000000E+00 0. -1.
         11    1    3    3    0    0  0.11913620185E+02 -0.81992864041E+01  0.76476326842E+01  0.16359979504E+02  0.51100000000E-03 0. -1.
        -11    1    3    3    0    0  0.90256948617E+01  0.41650384124E+01 -0.39128913803E+01  0.10682763310E+02  0.51100000000E-03 0.  1.
        -12    1    3    3    0    0  0.14394734888E+02  0.10463427386E+02  0.15326641665E+02  0.23486116109E+02  0.00000000000E+00 0.  1.
</event>
<event>
 7    1  0.2575978E-011  0.5052883E+02  0.7816164E-02  0.1300439E+00
        -11   -1    0    0    0    0  0.00000000000E+00  0.00000000000E+00  0.45593999997E+02  0.45594000000E+02  0.51100000000E-03 0. -1.
         11   -1    0    0    0    0 -0.00000000000E+00 -0.00000000000E+00 -0.45593999997E+02  0.45594000000E+02  0.51100000000E-03 0.  1.
    9900012    2    1    2    0    0  0.40132992942E+02  0.64646817976E+01 -0.84771936338E+00  0.50528832998E+02  0.29999918380E+02 0.  0.
         12    1    1    2    0    0 -0.40132992942E+02 -0.64646817976E+01  0.84771936338E+00  0.40659167002E+02  0.00000000000E+00 0. -1.
         11    1    3    3    0    0  0.83255328081E+01  0.73492959897E+01  0.80645780238E+00  0.11134496959E+02  0.51100000000E-03 0. -1.
        -11    1    3    3    0    0  0.21469688617E+02  0.10006948262E+02 -0.44989815641E+01  0.24110731598E+02  0.51100000000E-03 0.  1.
        -12    1    3    3    0    0  0.10337771517E+02 -0.10891562454E+02  0.28448043983E+01  0.15283604441E+02  0.00000000000E+00 0.  1.
</event>
<event>
 7    1  0.2575978E-011  0.5052886E+02  0.7816164E-02  0.1300439E+00
        -11   -1    0    0    0    0  0.00000000000E+00  0.00000000000E+00  0.45593999997E+02  0.45594000000E+02  0.51100000000E-03 0. -1.
         11   -1    0    0    0    0 -0.00000000000E+00 -0.00000000000E+00 -0.45593999997E+02  0.45594000000E+02  0.51100000000E-03 0.  1.
    9900012    2    1    2    0    0  0.90672577175E+01 -0.22998414386E+02 -0.32280391568E+02  0.50528857036E+02  0.29999991447E+02 0.  0.
         12    1    1    2    0    0 -0.90672577175E+01  0.22998414386E+02  0.32280391568E+02  0.40659142964E+02  0.00000000000E+00 0. -1.
         11    1    3    3    0    0  0.15773643216E+01  0.92021409360E+00 -0.59355830786E+01  0.62101545009E+01  0.51100000000E-03 0. -1.
        -11    1    3    3    0    0 -0.32431611884E+01 -0.10588030916E+01 -0.17082153955E+02  0.17419504657E+02  0.51100000000E-03 0.  1.
        -12    1    3    3    0    0  0.10733054584E+02 -0.22859825388E+02 -0.92626545336E+01  0.26899197878E+02  0.00000000000E+00 0.  1.
</event>
<event>
 7    1  0.2575978E-011  0.5052885E+02  0.7816164E-02  0.1300439E+00
        -11   -1    0    0    0    0  0.00000000000E+00  0.00000000000E+00  0.45593999997E+02  0.45594000000E+02  0.51100000000E-03 0. -1.
         11   -1    0    0    0    0 -0.00000000000E+00 -0.00000000000E+00 -0.45593999997E+02  0.45594000000E+02  0.51100000000E-03 0.  1.
    9900012    2    1    2    0    0 -0.15271250780E+02 -0.34760156464E+02 -0.14549453486E+02  0.50528853741E+02  0.29999981432E+02 0.  0.
         12    1    1    2    0    0  0.15271250780E+02  0.34760156464E+02  0.14549453486E+02  0.40659146259E+02  0.00000000000E+00 0. -1.
         11    1    3    3    0    0  0.57592358775E+01 -0.11803810388E+02 -0.28140372113E+01  0.13431959770E+02  0.51100000000E-03 0. -1.
        -11    1    3    3    0    0  0.47572800685E+00 -0.10145033245E+02 -0.31809656061E+01  0.10642676314E+02  0.51100000000E-03 0.  1.
         12    1    3    3    0    0 -0.21506214664E+02 -0.12811312830E+02 -0.85544506685E+01  0.26454217657E+02  0.00000000000E+00 0. -1.
</event>
<event>
 7    1  0.2575978E-011  0.5052887E+02  0.7816164E-02  0.1300439E+00
        -11   -1    0    0    0    0  0.00000000000E+00  0.00000000000E+00  0.45593999997E+02  0.45594000000E+02  0.51100000000E-03 0.  1.
         11   -1    0    0    0    0 -0.00000000000E+00 -0.00000000000E+00 -0.45593999997E+02  0.45594000000E+02  0.51100000000E-03 0. -1.
    9900012    2    1    2    0    0 -0.37772532098E+02 -0.11723413605E+02  0.94319637699E+01  0.50528873741E+02  0.30000042222E+02 0.  0.
         12    1    1    2    0    0  0.37772532098E+02  0.11723413605E+02 -0.94319637699E+01  0.40659126259E+02  0.00000000000E+00 0. -1.
         11    1    3    3    0    0 -0.47404423917E+00 -0.21563899242E+01 -0.85618166674E-01  0.22095398112E+01  0.51100000000E-03 0. -1.
        -11    1    3    3    0    0 -0.40277607788E+02 -0.13448833363E+02  0.81504289961E+01  0.43238712990E+02  0.51100000000E-03 0.  1.
        -12    1    3    3    0    0  0.29791199297E+01  0.38818096824E+01  0.13671529405E+01  0.50806209393E+01  0.00000000000E+00 0.  1.
</event>
<event>
 7    1  0.2575978E-011  0.5052887E+02  0.7816164E-02  0.1300439E+00
        -11   -1    0    0    0    0  0.00000000000E+00  0.00000000000E+00  0.45593999997E+02  0.45594000000E+02  0.51100000000E-03 0.  1.
         11   -1    0    0    0    0 -0.00000000000E+00 -0.00000000000E+00 -0.45593999997E+02  0.45594000000E+02  0.51100000000E-03 0. -1.
    9900012    2    1    2    0    0 -0.13371388743E+02  0.54631767559E+01  0.38006904932E+02  0.50528866221E+02  0.30000019365E+02 0.  0.
         12    1    1    2    0    0  0.13371388743E+02 -0.54631767559E+01 -0.38006904932E+02  0.40659133779E+02  0.00000000000E+00 0. -1.
         11    1    3    3    0    0  0.30226700495E+01 -0.32380337770E+01 -0.19053601397E+00  0.44337006217E+01  0.51100000000E-03 0. -1.
        -11    1    3    3    0    0 -0.16997958078E+02  0.21532354754E+01  0.34575291816E+02  0.38587793488E+02  0.51100000000E-03 0.  1.
         12    1    3    3    0    0  0.60389928496E+00  0.65479750575E+01  0.36221491294E+01  0.75073721112E+01  0.00000000000E+00 0. -1.
</event>
<event>
 7    1  0.2575978E-011  0.5052886E+02  0.7816164E-02  0.1300439E+00
        -11   -1    0    0    0    0  0.00000000000E+00  0.00000000000E+00  0.45593999997E+02  0.45594000000E+02  0.51100000000E-03 0.  1.
         11   -1    0    0    0    0 -0.00000000000E+00 -0.00000000000E+00 -0.45593999997E+02  0.45594000000E+02  0.51100000000E-03 0. -1.
    9900012    2    1    2    0    0  0.23122306927E+01 -0.29054723460E+01  0.40489228832E+02  0.50528857957E+02  0.29999994245E+02 0.  0.
         12    1    1    2    0    0 -0.23122306927E+01  0.29054723460E+01 -0.40489228832E+02  0.40659142043E+02  0.00000000000E+00 0. -1.
         11    1    3    3    0    0 -0.48923259021E+01  0.44018661792E+01  0.10918414559E+02  0.12748453056E+02  0.51100000000E-03 0. -1.
        -11    1    3    3    0    0  0.65193975803E+01 -0.14018276057E+02  0.14188799135E+02  0.20984199522E+02  0.51100000000E-03 0.  1.
         12    1    3    3    0    0  0.68515901453E+00  0.67109375314E+01  0.15382015138E+02  0.16796205379E+02  0.00000000000E+00 0. -1.
</event>
<event>
 7    1  0.2575978E-011  0.5052886E+02  0.7816164E-02  0.1300439E+00
        -11   -1    0    0    0    0  0.00000000000E+00  0.00000000000E+00  0.45593999997E+02  0.45594000000E+02  0.51100000000E-03 0.  1.
         11   -1    0    0    0    0 -0.00000000000E+00 -0.00000000000E+00 -0.45593999997E+02  0.45594000000E+02  0.51100000000E-03 0. -1.
    9900012    2    1    2    0    0 -0.23955756323E+01 -0.17841974203E+02  0.36456699325E+02  0.50528858939E+02  0.29999997232E+02 0.  0.
         12    1    1    2    0    0  0.23955756323E+01  0.17841974203E+02 -0.36456699325E+02  0.40659141061E+02  0.00000000000E+00 0. -1.
         11    1    3    3    0    0  0.52267980740E+01 -0.36942825514E+01  0.10471730512E+02  0.12272908451E+02  0.51100000000E-03 0.  1.
        -11    1    3    3    0    0  0.12663115653E+00  0.15405799155E+01 -0.35809149282E+01  0.39003043356E+01  0.51100000000E-03 0. -1.
         12    1    3    3    0    0 -0.77490048629E+01 -0.15688271567E+02  0.29565883742E+02  0.34355646153E+02  0.00000000000E+00 0. -1.
</event>
<event>
 7    1  0.2575978E-011  0.5052889E+02  0.7816164E-02  0.1300439E+00
        -11   -1    0    0    0    0  0.00000000000E+00  0.00000000000E+00  0.45593999997E+02  0.45594000000E+02  0.51100000000E-03 0. -1.
         11   -1    0    0    0    0 -0.00000000000E+00 -0.00000000000E+00 -0.45593999997E+02  0.45594000000E+02  0.51100000000E-03 0.  1.
    9900012    2    1    2    0    0  0.43332794174E+01  0.34543817839E+02 -0.21002627287E+02  0.50528892603E+02  0.30000099555E+02 0.  0.
         12    1    1    2    0    0 -0.43332794174E+01 -0.34543817839E+02  0.21002627287E+02  0.40659107397E+02  0.00000000000E+00 0. -1.
         11    1    3    3    0    0 -0.75809937954E+00  0.13349122697E+02  0.48998205690E+01  0.14240155663E+02  0.51100000000E-03 0. -1.
        -11    1    3    3    0    0  0.74223502844E+01  0.58853364535E+01 -0.66140951979E+01  0.11553126177E+02  0.51100000000E-03 0.  1.
        -12    1    3    3    0    0 -0.23309714874E+01  0.15309358688E+02 -0.19288352658E+02  0.24735610762E+02  0.00000000000E+00 0.  1.
</event>
<event>
 7    1  0.2575978E-011  0.5052886E+02  0.7816164E-02  0.1300439E+00
        -11   -1    0    0    0    0  0.00000000000E+00  0.00000000000E+00  0.45593999997E+02  0.45594000000E+02  0.51100000000E-03 0.  1.
         11   -1    0    0    0    0 -0.00000000000E+00 -0.00000000000E+00 -0.45593999997E+02  0.45594000000E+02  0.51100000000E-03 0. -1.
    9900012    2    1    2    0    0 -0.21187092731E+02 -0.12945611382E+02  0.32197571722E+02  0.50528863545E+02  0.30000011233E+02 0.  0.
         12    1    1    2    0    0  0.21187092731E+02  0.12945611382E+02 -0.32197571722E+02  0.40659136455E+02  0.00000000000E+00 0. -1.
         11    1    3    3    0    0 -0.50776439140E+01 -0.62613407054E+01  0.48908891016E+01  0.94290854069E+01  0.51100000000E-03 0. -1.
        -11    1    3    3    0    0 -0.10077634050E+02 -0.14878520461E+02  0.24790134804E+02  0.30618292947E+02  0.51100000000E-03 0.  1.
         12    1    3    3    0    0 -0.60318147661E+01  0.81942497842E+01  0.25165478169E+01  0.10481485191E+02  0.00000000000E+00 0. -1.
</event>
<event>
 7    1  0.2575978E-011  0.5052885E+02  0.7816164E-02  0.1300439E+00
        -11   -1    0    0    0    0  0.00000000000E+00  0.00000000000E+00  0.45593999997E+02  0.45594000000E+02  0.51100000000E-03 0. -1.
         11   -1    0    0    0    0 -0.00000000000E+00 -0.00000000000E+00 -0.45593999997E+02  0.45594000000E+02  0.51100000000E-03 0.  1.
    9900012    2    1    2    0    0  0.90108920010E+01  0.33435545257E+02 -0.21308091706E+02  0.50528848097E+02  0.29999964275E+02 0.  0.
         12    1    1    2    0    0 -0.90108920010E+01 -0.33435545257E+02  0.21308091706E+02  0.40659151903E+02  0.00000000000E+00 0. -1.
         11    1    3    3    0    0  0.10987372495E+02  0.13143279157E+02 -0.19790828613E+02  0.26175275334E+02  0.51100000000E-03 0. -1.
        -11    1    3    3    0    0  0.34798350593E+01  0.11787923269E+02 -0.55352972891E+01  0.13479759025E+02  0.51100000000E-03 0.  1.
         12    1    3    3    0    0 -0.54563155529E+01  0.85043428319E+01  0.40180341961E+01  0.10873813738E+02  0.00000000000E+00 0. -1.
</event>
<event>
 7    1  0.2575978E-011  0.5052886E+02  0.7816164E-02  0.1300439E+00
        -11   -1    0    0    0    0  0.00000000000E+00  0.00000000000E+00  0.45593999997E+02  0.45594000000E+02  0.51100000000E-03 0.  1.
         11   -1    0    0    0    0 -0.00000000000E+00 -0.00000000000E+00 -0.45593999997E+02  0.45594000000E+02  0.51100000000E-03 0. -1.
    9900012    2    1    2    0    0  0.34489551140E+02 -0.16185057911E+02  0.14201415144E+02  0.50528862903E+02  0.30000009279E+02 0.  0.
         12    1    1    2    0    0 -0.34489551140E+02  0.16185057911E+02 -0.14201415144E+02  0.40659137097E+02  0.00000000000E+00 0. -1.
         11    1    3    3    0    0 -0.83670532723E+00 -0.38577161332E+01 -0.16889143774E+01  0.42935395194E+01  0.51100000000E-03 0. -1.
        -11    1    3    3    0    0  0.27080460765E+02 -0.16431443234E+02  0.51585374509E+01  0.32092899385E+02  0.51100000000E-03 0.  1.
        -12    1    3    3    0    0  0.82457957015E+01  0.41041014562E+01  0.10731792070E+02  0.14142423999E+02  0.00000000000E+00 0.  1.
</event>
<event>
 7    1  0.2575978E-011  0.5052886E+02  0.7816164E-02  0.1300439E+00
        -11   -1    0    0    0    0  0.00000000000E+00  0.00000000000E+00  0.45593999997E+02  0.45594000000E+02  0.51100000000E-03 0.  1.
         11   -1    0    0    0    0 -0.00000000000E+00 -0.00000000000E+00 -0.45593999997E+02  0.45594000000E+02  0.51100000000E-03 0. -1.
    9900012    2    1    2    0    0  0.28498486231E+02 -0.19952201320E+02  0.21045461829E+02  0.50528861807E+02  0.30000005948E+02 0.  0.
         12    1    1    2    0    0 -0.28498486231E+02  0.19952201320E+02 -0.21045461829E+02  0.40659138193E+02  0.00000000000E+00 0. -1.
         11    1    3    3    0    0 -0.51946083538E+01 -0.41334186213E+01  0.45297791252E+01  0.80366662636E+01  0.51100000000E-03 0. -1.
        -11    1    3    3    0    0  0.78861987382E-01  0.31570342380E+00 -0.11772572747E+01  0.12214019882E+01  0.51100000000E-03 0.  1.
        -12    1    3    3    0    0  0.33614232598E+02 -0.16134486123E+02  0.17692939979E+02  0.41270793555E+02  0.00000000000E+00 0.  1.
</event>
<event>
 7    1  0.2575978E-011  0.5052886E+02  0.7816164E-02  0.1300439E+00
        -11   -1    0    0    0    0  0.00000000000E+00  0.00000000000E+00  0.45593999997E+02  0.45594000000E+02  0.51100000000E-03 0.  1.
         11   -1    0    0    0    0 -0.00000000000E+00 -0.00000000000E+00 -0.45593999997E+02  0.45594000000E+02  0.51100000000E-03 0. -1.
    9900012    2    1    2    0    0 -0.35226681776E+01  0.19852711925E+02  0.35307593396E+02  0.50528861873E+02  0.30000006148E+02 0.  0.
         12    1    1    2    0    0  0.35226681776E+01 -0.19852711925E+02 -0.35307593396E+02  0.40659138127E+02  0.00000000000E+00 0. -1.
         11    1    3    3    0    0  0.70821247097E+01  0.32194625821E+01 -0.12252974423E+01  0.78754545141E+01  0.51100000000E-03 0. -1.
        -11    1    3    3    0    0 -0.57615584047E+00  0.99381351052E+01  0.16813434058E+02  0.19539448559E+02  0.51100000000E-03 0.  1.
        -12    1    3    3    0    0 -0.10028637047E+02  0.66951142380E+01  0.19719456780E+02  0.23113958799E+02  0.00000000000E+00 0.  1.
</event>
<event>
 7    1  0.2575978E-011  0.5052886E+02  0.7816164E-02  0.1300439E+00
        -11   -1    0    0    0    0  0.00000000000E+00  0.00000000000E+00  0.45593999997E+02  0.45594000000E+02  0.51100000000E-03 0.  1.
         11   -1    0    0    0    0 -0.00000000000E+00 -0.00000000000E+00 -0.45593999997E+02  0.45594000000E+02  0.51100000000E-03 0. -1.
    9900012    2    1    2    0    0  0.27080726468E+02 -0.81526961343E+01  0.29211871130E+02  0.50528860619E+02  0.30000002337E+02 0.  0.
         12    1    1    2    0    0 -0.27080726468E+02  0.81526961343E+01 -0.29211871130E+02  0.40659139381E+02  0.00000000000E+00 0. -1.
         11    1    3    3    0    0  0.18446427014E+02  0.40083933093E+01  0.53577883801E+01  0.19622532535E+02  0.51100000000E-03 0. -1.
        -11    1    3    3    0    0  0.10116383645E+02 -0.58036780905E+01  0.20455360607E+02  0.23546670153E+02  0.51100000000E-03 0.  1.
         12    1    3    3    0    0 -0.14820841906E+01 -0.63574113532E+01  0.33987221422E+01  0.73596579310E+01  0.00000000000E+00 0. -1.
</event>
<event>
 7    1  0.2575978E-011  0.5052884E+02  0.7816164E-02  0.1300439E+00
        -11   -1    0    0    0    0  0.00000000000E+00  0.00000000000E+00  0.45593999997E+02  0.45594000000E+02  0.51100000000E-03 0. -1.
         11   -1    0    0    0    0 -0.00000000000E+00 -0.00000000000E+00 -0.45593999997E+02  0.45594000000E+02  0.51100000000E-03 0.  1.
    9900012    2    1    2    0    0 -0.21812355914E+02  0.33849883268E+02 -0.56190254156E+01  0.50528844642E+02  0.29999953775E+02 0.  0.
         12    1    1    2    0    0  0.21812355914E+02 -0.33849883268E+02  0.56190254156E+01  0.40659155358E+02  0.00000000000E+00 0. -1.
         11    1    3    3    0    0 -0.40845031425E+01 -0.31659628407E+01 -0.48487158761E+00  0.51905286193E+01  0.51100000000E-03 0. -1.
        -11    1    3    3    0    0 -0.18369579517E+02  0.19454424192E+02 -0.70257906654E+01  0.27663654983E+02  0.51100000000E-03 0.  1.
         12    1    3    3    0    0  0.64172674575E+00  0.17561421917E+02  0.18916368373E+01  0.17674661040E+02  0.00000000000E+00 0. -1.
</event>
<event>
 7    1  0.2575978E-011  0.5052886E+02  0.7816164E-02  0.1300439E+00
        -11   -1    0    0    0    0  0.00000000000E+00  0.00000000000E+00  0.45593999997E+02  0.45594000000E+02  0.51100000000E-03 0. -1.
         11   -1    0    0    0    0 -0.00000000000E+00 -0.00000000000E+00 -0.45593999997E+02  0.45594000000E+02  0.51100000000E-03 0.  1.
    9900012    2    1    2    0    0  0.15455185812E+02 -0.25487255249E+02 -0.27653256089E+02  0.50528861778E+02  0.30000005859E+02 0.  0.
         12    1    1    2    0    0 -0.15455185812E+02  0.25487255249E+02  0.27653256089E+02  0.40659138222E+02  0.00000000000E+00 0. -1.
         11    1    3    3    0    0  0.99971739923E+01 -0.17603157365E+02 -0.23095462924E+02  0.30711806280E+02  0.51100000000E-03 0.  1.
        -11    1    3    3    0    0 -0.69014963262E+00  0.55415204983E+00 -0.85822472748E+01  0.86277667769E+01  0.51100000000E-03 0. -1.
         12    1    3    3    0    0  0.61481614528E+01 -0.84382499343E+01  0.40244541090E+01  0.11189288721E+02  0.00000000000E+00 0. -1.
</event>
<event>
 7    1  0.2575978E-011  0.5052887E+02  0.7816164E-02  0.1300439E+00
        -11   -1    0    0    0    0  0.00000000000E+00  0.00000000000E+00  0.45593999997E+02  0.45594000000E+02  0.51100000000E-03 0.  1.
         11   -1    0    0    0    0 -0.00000000000E+00 -0.00000000000E+00 -0.45593999997E+02  0.45594000000E+02  0.51100000000E-03 0. -1.
    9900012    2    1    2    0    0  0.94241685118E+01  0.44531885318E+01  0.39300373355E+02  0.50528865896E+02  0.30000018379E+02 0.  0.
         12    1    1    2    0    0 -0.94241685118E+01 -0.44531885318E+01 -0.39300373355E+02  0.40659134104E+02  0.00000000000E+00 0. -1.
         11    1    3    3    0    0 -0.17647420072E+01  0.30701472147E+01  0.13876712114E+02  0.14321426522E+02  0.51100000000E-03 0. -1.
        -11    1    3    3    0    0 -0.69461448879E+01  0.21409553650E+01  0.10156588950E+02  0.12489552355E+02  0.51100000000E-03 0.  1.
         12    1    3    3    0    0  0.18135055407E+02 -0.75791404791E+00  0.15267072291E+02  0.23717887019E+02  0.00000000000E+00 0. -1.
</event>
<event>
 7    1  0.2575978E-011  0.5052886E+02  0.7816164E-02  0.1300439E+00
        -11   -1    0    0    0    0  0.00000000000E+00  0.00000000000E+00  0.45593999997E+02  0.45594000000E+02  0.51100000000E-03 0.  1.
         11   -1    0    0    0    0 -0.00000000000E+00 -0.00000000000E+00 -0.45593999997E+02  0.45594000000E+02  0.51100000000E-03 0. -1.
    9900012    2    1    2    0    0 -0.40500494121E+02  0.65365372203E-01  0.35876754247E+01  0.50528859433E+02  0.29999998732E+02 0.  0.
         12    1    1    2    0    0  0.40500494121E+02 -0.65365372203E-01 -0.35876754247E+01  0.40659140567E+02  0.00000000000E+00 0. -1.
         11    1    3    3    0    0 -0.87218611079E+01  0.82390592735E+00 -0.68407236589E+01  0.11115088061E+02  0.51100000000E-03 0. -1.
        -11    1    3    3    0    0 -0.20522576369E+02 -0.10005678604E+02  0.28974604977E+01  0.23014886981E+02  0.51100000000E-03 0.  1.
        -12    1    3    3    0    0 -0.11256056644E+02  0.92471380489E+01  0.75309385859E+01  0.16398884391E+02  0.00000000000E+00 0.  1.
</event>
<event>
 7    1  0.2575978E-011  0.5052886E+02  0.7816164E-02  0.1300439E+00
        -11   -1    0    0    0    0  0.00000000000E+00  0.00000000000E+00  0.45593999997E+02  0.45594000000E+02  0.51100000000E-03 0.  1.
         11   -1    0    0    0    0 -0.00000000000E+00 -0.00000000000E+00 -0.45593999997E+02  0.45594000000E+02  0.51100000000E-03 0. -1.
    9900012    2    1    2    0    0 -0.11631667995E+02 -0.19826877931E+01  0.38909367682E+02  0.50528860257E+02  0.30000001238E+02 0.  0.
         12    1    1    2    0    0  0.11631667995E+02  0.19826877931E+01 -0.38909367682E+02  0.40659139743E+02  0.00000000000E+00 0. -1.
         11    1    3    3    0    0  0.18605701776E+01 -0.22683340769E+01 -0.10007673794E+01  0.30997736174E+01  0.51100000000E-03 0. -1.
        -11    1    3    3    0    0 -0.18779804133E+01  0.97516619453E+01  0.21572763467E+02  0.23748807233E+02  0.51100000000E-03 0.  1.
        -12    1    3    3    0    0 -0.11614257759E+02 -0.94660156615E+01  0.18337371594E+02  0.23680279406E+02  0.00000000000E+00 0.  1.
</event>
<event>
 7    1  0.2575978E-011  0.5052884E+02  0.7816164E-02  0.1300439E+00
        -11   -1    0    0    0    0  0.00000000000E+00  0.00000000000E+00  0.45593999997E+02  0.45594000000E+02  0.51100000000E-03 0. -1.
         11   -1    0    0    0    0 -0.00000000000E+00 -0.00000000000E+00 -0.45593999997E+02  0.45594000000E+02  0.51100000000E-03 0.  1.
    9900012    2    1    2    0    0 -0.33924691271E+02  0.12300824190E+02  0.18734247879E+02  0.50528843625E+02  0.29999950681E+02 0.  0.
         12    1    1    2    0    0  0.33924691271E+02 -0.12300824190E+02 -0.18734247879E+02  0.40659156375E+02  0.00000000000E+00 0. -1.
         11    1    3    3    0    0 -0.46269027110E+01 -0.48649865237E+01  0.33239616014E+01  0.74916649392E+01  0.51100000000E-03 0.  1.
        -11    1    3    3    0    0 -0.16800428403E+02  0.72362940914E-01  0.13905952018E+02  0.21809060794E+02  0.51100000000E-03 0. -1.
        -12    1    3    3    0    0 -0.12497360157E+02  0.17093447773E+02  0.15043342592E+01  0.21228117892E+02  0.00000000000E+00 0.  1.
</event>
<event>
 7    1  0.2575978E-011  0.5052888E+02  0.7816164E-02  0.1300439E+00
        -11   -1    0    0    0    0  0.00000000000E+00  0.00000000000E+00  0.45593999997E+02  0.45594000000E+02  0.51100000000E-03 0. -1.
         11   -1    0    0    0    0 -0.00000000000E+00 -0.00000000000E+00 -0.45593999997E+02  0.45594000000E+02  0.51100000000E-03 0.  1.
    9900012    2    1    2    0    0 -0.14668941812E+02 -0.18988518070E+02 -0.32824118225E+02  0.50528875444E+02  0.30000047399E+02 0.  0.
         12    1    1    2    0    0  0.14668941812E+02  0.18988518070E+02  0.32824118225E+02  0.40659124556E+02  0.00000000000E+00 0. -1.
         11    1    3    3    0    0 -0.56402789115E+01 -0.32559675062E+01 -0.13252850055E+02  0.14766587468E+02  0.51100000000E-03 0. -1.
        -11    1    3    3    0    0 -0.94976850625E+01 -0.46039255667E+01 -0.21965144862E+02  0.24369442777E+02  0.51100000000E-03 0.  1.
         12    1    3    3    0    0  0.46902216165E+00 -0.11128624997E+02  0.23938766921E+01  0.11392845199E+02  0.00000000000E+00 0. -1.
</event>
<event>
 7    1  0.2575978E-011  0.5052886E+02  0.7816164E-02  0.1300439E+00
        -11   -1    0    0    0    0  0.00000000000E+00  0.00000000000E+00  0.45593999997E+02  0.45594000000E+02  0.51100000000E-03 0.  1.
         11   -1    0    0    0    0 -0.00000000000E+00 -0.00000000000E+00 -0.45593999997E+02  0.45594000000E+02  0.51100000000E-03 0. -1.
    9900012    2    1    2    0    0  0.14621672220E+02 -0.33186979428E+02  0.18384691726E+02  0.50528858446E+02  0.29999995734E+02 0.  0.
         12    1    1    2    0    0 -0.14621672220E+02  0.33186979428E+02 -0.18384691726E+02  0.40659141554E+02  0.00000000000E+00 0. -1.
         11    1    3    3    0    0  0.47401783639E+01  0.20254989598E+01 -0.27618857354E+01  0.58480723349E+01  0.51100000000E-03 0.  1.
        -11    1    3    3    0    0  0.15315207243E+01  0.88180697856E+00 -0.41543993791E+00  0.18154145200E+01  0.51100000000E-03 0. -1.
        -12    1    3    3    0    0  0.83499731316E+01 -0.36094285366E+02  0.21562017399E+02  0.42865371592E+02  0.00000000000E+00 0.  1.
</event>
<event>
 7    1  0.2575978E-011  0.5052885E+02  0.7816164E-02  0.1300439E+00
        -11   -1    0    0    0    0  0.00000000000E+00  0.00000000000E+00  0.45593999997E+02  0.45594000000E+02  0.51100000000E-03 0.  1.
         11   -1    0    0    0    0 -0.00000000000E+00 -0.00000000000E+00 -0.45593999997E+02  0.45594000000E+02  0.51100000000E-03 0. -1.
    9900012    2    1    2    0    0 -0.24113978084E+02  0.13547459084E+02  0.29801830076E+02  0.50528847740E+02  0.29999963189E+02 0.  0.
         12    1    1    2    0    0  0.24113978084E+02 -0.13547459084E+02 -0.29801830076E+02  0.40659152260E+02  0.00000000000E+00 0. -1.
         11    1    3    3    0    0 -0.43139076100E+01  0.56831571108E+01  0.28425490600E+01  0.76803749279E+01  0.51100000000E-03 0. -1.
        -11    1    3    3    0    0 -0.15214430439E+02  0.30958355030E+01  0.45696950266E+00  0.15532929937E+02  0.51100000000E-03 0.  1.
        -12    1    3    3    0    0 -0.45856400356E+01  0.47684664703E+01  0.26502311513E+02  0.27315542875E+02  0.00000000000E+00 0.  1.
</event>
<event>
 7    1  0.2575978E-011  0.5052890E+02  0.7816164E-02  0.1300439E+00
        -11   -1    0    0    0    0  0.00000000000E+00  0.00000000000E+00  0.45593999997E+02  0.45594000000E+02  0.51100000000E-03 0.  1.
         11   -1    0    0    0    0 -0.00000000000E+00 -0.00000000000E+00 -0.45593999997E+02  0.45594000000E+02  0.51100000000E-03 0. -1.
    9900012    2    1    2    0    0 -0.33763396740E+02  0.14076886090E+02  0.17749264189E+02  0.50528904331E+02  0.30000135203E+02 0.  0.
         12    1    1    2    0    0  0.33763396740E+02 -0.14076886090E+02 -0.17749264189E+02  0.40659095669E+02  0.00000000000E+00 0. -1.
         11    1    3    3    0    0 -0.33810732418E+01  0.25809695609E+01 -0.24549024809E+01  0.49111716110E+01  0.51100000000E-03 0. -1.
        -11    1    3    3    0    0 -0.12651079855E+01  0.11337319218E+02  0.29931264703E+01  0.11793816668E+02  0.51100000000E-03 0.  1.
        -12    1    3    3    0    0 -0.29117215512E+02  0.15859731044E+00  0.17211040200E+02  0.33823916052E+02  0.00000000000E+00 0.  1.
</event>
<event>
 7    1  0.2575978E-011  0.5052886E+02  0.7816164E-02  0.1300439E+00
        -11   -1    0    0    0    0  0.00000000000E+00  0.00000000000E+00  0.45593999997E+02  0.45594000000E+02  0.51100000000E-03 0.  1.
         11   -1    0    0    0    0 -0.00000000000E+00 -0.00000000000E+00 -0.45593999997E+02  0.45594000000E+02  0.51100000000E-03 0. -1.
    9900012    2    1    2    0    0 -0.31194810127E+02  0.82600104281E+01  0.24735029492E+02  0.50528860374E+02  0.30000001594E+02 0.  0.
         12    1    1    2    0    0  0.31194810127E+02 -0.82600104281E+01 -0.24735029492E+02  0.40659139626E+02  0.00000000000E+00 0. -1.
         11    1    3    3    0    0 -0.18505750334E+01  0.35471789629E+01  0.43756897745E+01  0.59290612928E+01  0.51100000000E-03 0. -1.
        -11    1    3    3    0    0 -0.92088037366E+01  0.12690156657E+02  0.16201528630E+02  0.22546211931E+02  0.51100000000E-03 0.  1.
        -12    1    3    3    0    0 -0.20135431357E+02 -0.79773251920E+01  0.41578110877E+01  0.22053587150E+02  0.00000000000E+00 0.  1.
</event>
<event>
 7    1  0.2575978E-011  0.5052886E+02  0.7816164E-02  0.1300439E+00
        -11   -1    0    0    0    0  0.00000000000E+00  0.00000000000E+00  0.45593999997E+02  0.45594000000E+02  0.51100000000E-03 0. -1.
         11   -1    0    0    0    0 -0.00000000000E+00 -0.00000000000E+00 -0.45593999997E+02  0.45594000000E+02  0.51100000000E-03 0.  1.
    9900012    2    1    2    0    0 -0.29660400967E+02  0.16339845196E+00 -0.27810060044E+02  0.50528861738E+02  0.30000005739E+02 0.  0.
         12    1    1    2    0    0  0.29660400967E+02 -0.16339845196E+00  0.27810060044E+02  0.40659138262E+02  0.00000000000E+00 0. -1.
         11    1    3    3    0    0 -0.74368880434E+01  0.97372782227E+00  0.29757752353E+01  0.80691194163E+01  0.51100000000E-03 0. -1.
        -11    1    3    3    0    0  0.22989185042E+01 -0.16686822874E+01  0.30003032201E+00  0.28564917855E+01  0.51100000000E-03 0.  1.
        -12    1    3    3    0    0 -0.24522431428E+02  0.85835291708E+00 -0.31085865601E+02  0.39603250536E+02  0.00000000000E+00 0.  1.
</event>
<event>
 7    1  0.2575978E-011  0.5052884E+02  0.7816164E-02  0.1300439E+00
        -11   -1    0    0    0    0  0.00000000000E+00  0.00000000000E+00  0.45593999997E+02  0.45594000000E+02  0.51100000000E-03 0. -1.
         11   -1    0    0    0    0 -0.00000000000E+00 -0.00000000000E+00 -0.45593999997E+02  0.45594000000E+02  0.51100000000E-03 0.  1.
    9900012    2    1    2    0    0 -0.16973703516E+02 -0.33238550011E+02  0.16132559360E+02  0.50528840031E+02  0.29999939758E+02 0.  0.
         12    1    1    2    0    0  0.16973703516E+02  0.33238550011E+02 -0.16132559360E+02  0.40659159969E+02  0.00000000000E+00 0. -1.
         11    1    3    3    0    0 -0.65135808573E+01 -0.50154642842E+01  0.14902697965E+02  0.17019753949E+02  0.51100000000E-03 0. -1.
        -11    1    3    3    0    0  0.26445596304E+00  0.16260638872E+01 -0.56342597548E+00  0.17411116600E+01  0.51100000000E-03 0.  1.
        -12    1    3    3    0    0 -0.10724578622E+02 -0.29849149614E+02  0.17932873702E+01  0.31767974422E+02  0.00000000000E+00 0.  1.
</event>
<event>
 7    1  0.2575978E-011  0.5052886E+02  0.7816164E-02  0.1300439E+00
        -11   -1    0    0    0    0  0.00000000000E+00  0.00000000000E+00  0.45593999997E+02  0.45594000000E+02  0.51100000000E-03 0. -1.
         11   -1    0    0    0    0 -0.00000000000E+00 -0.00000000000E+00 -0.45593999997E+02  0.45594000000E+02  0.51100000000E-03 0.  1.
    9900012    2    1    2    0    0 -0.27900225462E+02  0.28774895474E+02 -0.68372907606E+01  0.50528859142E+02  0.29999997849E+02 0.  0.
         12    1    1    2    0    0  0.27900225462E+02 -0.28774895474E+02  0.68372907606E+01  0.40659140858E+02  0.00000000000E+00 0. -1.
         11    1    3    3    0    0 -0.10388073579E+02  0.11896017409E+02 -0.58627779425E+01  0.16846348814E+02  0.51100000000E-03 0. -1.
        -11    1    3    3    0    0 -0.63325229857E+01 -0.32754298810E+01 -0.68617800160E+01  0.98951156395E+01  0.51100000000E-03 0.  1.
         12    1    3    3    0    0 -0.11179628897E+02  0.20154307945E+02  0.58872671979E+01  0.23787394689E+02  0.00000000000E+00 0. -1.
</event>
<event>
 7    1  0.2575978E-011  0.5052886E+02  0.7816164E-02  0.1300439E+00
        -11   -1    0    0    0    0  0.00000000000E+00  0.00000000000E+00  0.45593999997E+02  0.45594000000E+02  0.51100000000E-03 0.  1.
         11   -1    0    0    0    0 -0.00000000000E+00 -0.00000000000E+00 -0.45593999997E+02  0.45594000000E+02  0.51100000000E-03 0. -1.
    9900012    2    1    2    0    0 -0.13193803012E+02  0.37680943129E+02 -0.76964939207E+01  0.50528856727E+02  0.29999990507E+02 0.  0.
         12    1    1    2    0    0  0.13193803012E+02 -0.37680943129E+02  0.76964939207E+01  0.40659143273E+02  0.00000000000E+00 0. -1.
         11    1    3    3    0    0 -0.23965536536E+01  0.12172968973E+01 -0.94653025616E+00  0.28497720852E+01  0.51100000000E-03 0. -1.
        -11    1    3    3    0    0 -0.12035428074E+02  0.30498585588E+01 -0.69763835524E+01  0.14241597308E+02  0.51100000000E-03 0.  1.
         12    1    3    3    0    0  0.12381787157E+01  0.33413787673E+02  0.22641988788E+00  0.33437487333E+02  0.00000000000E+00 0. -1.
</event>
<event>
 7    1  0.2575978E-011  0.5052889E+02  0.7816164E-02  0.1300439E+00
        -11   -1    0    0    0    0  0.00000000000E+00  0.00000000000E+00  0.45593999997E+02  0.45594000000E+02  0.51100000000E-03 0.  1.
         11   -1    0    0    0    0 -0.00000000000E+00 -0.00000000000E+00 -0.45593999997E+02  0.45594000000E+02  0.51100000000E-03 0. -1.
    9900012    2    1    2    0    0 -0.38642529584E+02  0.12142254050E+02 -0.35332433249E+01  0.50528889896E+02  0.30000091328E+02 0.  0.
         12    1    1    2    0    0  0.38642529584E+02 -0.12142254050E+02  0.35332433249E+01  0.40659110104E+02  0.00000000000E+00 0. -1.
         11    1    3    3    0    0 -0.53313369553E+01 -0.72337840957E+00 -0.63257129869E+01  0.83042805292E+01  0.51100000000E-03 0. -1.
        -11    1    3    3    0    0 -0.60432047479E+01 -0.41784945094E+01 -0.53073999028E+01  0.90635883611E+01  0.51100000000E-03 0.  1.
        -12    1    3    3    0    0 -0.27267987880E+02  0.17044126969E+02  0.80998695647E+01  0.33161021006E+02  0.00000000000E+00 0.  1.
</event>
<event>
 7    1  0.2575978E-011  0.5052886E+02  0.7816164E-02  0.1300439E+00
        -11   -1    0    0    0    0  0.00000000000E+00  0.00000000000E+00  0.45593999997E+02  0.45594000000E+02  0.51100000000E-03 0.  1.
         11   -1    0    0    0    0 -0.00000000000E+00 -0.00000000000E+00 -0.45593999997E+02  0.45594000000E+02  0.51100000000E-03 0. -1.
    9900012    2    1    2    0    0  0.15063062359E+02 -0.27573092479E+02  0.25806874244E+02  0.50528855460E+02  0.29999986655E+02 0.  0.
         12    1    1    2    0    0 -0.15063062359E+02  0.27573092479E+02 -0.25806874244E+02  0.40659144540E+02  0.00000000000E+00 0. -1.
         11    1    3    3    0    0  0.33779997411E+01 -0.65487866098E+01  0.15057721633E+02  0.16764023066E+02  0.51100000000E-03 0. -1.
        -11    1    3    3    0    0  0.90349072093E+00 -0.95852809880E+01  0.14685622574E+02  0.17560222600E+02  0.51100000000E-03 0.  1.
         12    1    3    3    0    0  0.10781571897E+02 -0.11439024881E+02 -0.39364699630E+01  0.16204609794E+02  0.00000000000E+00 0. -1.
</event>
<event>
 7    1  0.2575978E-011  0.5052889E+02  0.7816164E-02  0.1300439E+00
        -11   -1    0    0    0    0  0.00000000000E+00  0.00000000000E+00  0.45593999997E+02  0.45594000000E+02  0.51100000000E-03 0.  1.
         11   -1    0    0    0    0 -0.00000000000E+00 -0.00000000000E+00 -0.45593999997E+02  0.45594000000E+02  0.51100000000E-03 0. -1.
    9900012    2    1    2    0    0 -0.24456871589E+02  0.19722135195E+02  0.25808170055E+02  0.50528894917E+02  0.30000106590E+02 0.  0.
         12    1    1    2    0    0  0.24456871589E+02 -0.19722135195E+02 -0.25808170055E+02  0.40659105083E+02  0.00000000000E+00 0. -1.
         11    1    3    3    0    0 -0.41405827807E+01  0.35622561731E+01 -0.34248116438E+01  0.64469705959E+01  0.51100000000E-03 0. -1.
        -11    1    3    3    0    0 -0.24243426302E+02  0.13282989408E+02  0.21840548844E+02  0.35230542155E+02  0.51100000000E-03 0.  1.
         12    1    3    3    0    0  0.39271374938E+01  0.28768896143E+01  0.73924328548E+01  0.88513821667E+01  0.00000000000E+00 0. -1.
</event>
<event>
 7    1  0.2575978E-011  0.5052886E+02  0.7816164E-02  0.1300439E+00
        -11   -1    0    0    0    0  0.00000000000E+00  0.00000000000E+00  0.45593999997E+02  0.45594000000E+02  0.51100000000E-03 0.  1.
         11   -1    0    0    0    0 -0.00000000000E+00 -0.00000000000E+00 -0.45593999997E+02  0.45594000000E+02  0.51100000000E-03 0. -1.
    9900012    2    1    2    0    0  0.77301591737E+01  0.34326934362E+02  0.20373307659E+02  0.50528862669E+02  0.30000008570E+02 0.  0.
         12    1    1    2    0    0 -0.77301591737E+01 -0.34326934362E+02 -0.20373307659E+02  0.40659137331E+02  0.00000000000E+00 0. -1.
         11    1    3    3    0    0  0.12978829050E+02  0.13507787455E+02  0.12039367816E+02  0.22267840108E+02  0.51100000000E-03 0. -1.
        -11    1    3    3    0    0 -0.55154448565E+01  0.36739457063E+01  0.89096937735E+01  0.11104082691E+02  0.51100000000E-03 0.  1.
         12    1    3    3    0    0  0.26677498003E+00  0.17145201201E+02 -0.57575393039E+00  0.17156939870E+02  0.00000000000E+00 0. -1.
</event>
<event>
 7    1  0.2575978E-011  0.5052887E+02  0.7816164E-02  0.1300439E+00
        -11   -1    0    0    0    0  0.00000000000E+00  0.00000000000E+00  0.45593999997E+02  0.45594000000E+02  0.51100000000E-03 0. -1.
         11   -1    0    0    0    0 -0.00000000000E+00 -0.00000000000E+00 -0.45593999997E+02  0.45594000000E+02  0.51100000000E-03 0.  1.
    9900012    2    1    2    0    0 -0.24964187815E+02  0.10550079223E+02 -0.30309241136E+02  0.50528868884E+02  0.30000027461E+02 0.  0.
         12    1    1    2    0    0  0.24964187815E+02 -0.10550079223E+02  0.30309241136E+02  0.40659131116E+02  0.00000000000E+00 0. -1.
         11    1    3    3    0    0  0.11921335967E+01 -0.27440323694E+01  0.13058225148E+00  0.29946532591E+01  0.51100000000E-03 0. -1.
        -11    1    3    3    0    0 -0.44879591293E+01 -0.45969664688E+01 -0.12894938081E+02  0.14406710458E+02  0.51100000000E-03 0.  1.
        -12    1    3    3    0    0 -0.21668362282E+02  0.17891078061E+02 -0.17544885306E+02  0.33127505167E+02  0.00000000000E+00 0.  1.
</event>
<event>
 7    1  0.2575978E-011  0.5052886E+02  0.7816164E-02  0.1300439E+00
        -11   -1    0    0    0    0  0.00000000000E+00  0.00000000000E+00  0.45593999997E+02  0.45594000000E+02  0.51100000000E-03 0. -1.
         11   -1    0    0    0    0 -0.00000000000E+00 -0.00000000000E+00 -0.45593999997E+02  0.45594000000E+02  0.51100000000E-03 0.  1.
    9900012    2    1    2    0    0 -0.20312020550E+02 -0.15500446827E+02  0.31627899036E+02  0.50528855541E+02  0.29999986903E+02 0.  0.
         12    1    1    2    0    0  0.20312020550E+02  0.15500446827E+02 -0.31627899036E+02  0.40659144459E+02  0.00000000000E+00 0. -1.
         11    1    3    3    0    0 -0.19171213655E+01 -0.15900895269E+01  0.58055629548E+01  0.63173016800E+01  0.51100000000E-03 0. -1.
        -11    1    3    3    0    0 -0.25681624647E+02 -0.10523485970E+02  0.18626224153E+02  0.33424928242E+02  0.51100000000E-03 0.  1.
         12    1    3    3    0    0  0.72867254625E+01 -0.33868713296E+01  0.71961119283E+01  0.10786625619E+02  0.00000000000E+00 0. -1.
</event>
<event>
 7    1  0.2575978E-011  0.5052886E+02  0.7816164E-02  0.1300439E+00
        -11   -1    0    0    0    0  0.00000000000E+00  0.00000000000E+00  0.45593999997E+02  0.45594000000E+02  0.51100000000E-03 0.  1.
         11   -1    0    0    0    0 -0.00000000000E+00 -0.00000000000E+00 -0.45593999997E+02  0.45594000000E+02  0.51100000000E-03 0. -1.
    9900012    2    1    2    0    0 -0.50464755745E+01  0.34628068524E+02  0.20702543931E+02  0.50528863627E+02  0.30000011480E+02 0.  0.
         12    1    1    2    0    0  0.50464755745E+01 -0.34628068524E+02 -0.20702543931E+02  0.40659136373E+02  0.00000000000E+00 0. -1.
         11    1    3    3    0    0 -0.48626311015E+01  0.65082448117E+01  0.11695862709E+01  0.82079451792E+01  0.51100000000E-03 0.  1.
        -11    1    3    3    0    0 -0.10224176279E+02  0.50373236258E+01  0.18209816671E+01  0.11542286792E+02  0.51100000000E-03 0. -1.
        -12    1    3    3    0    0  0.10040331806E+02  0.23082500087E+02  0.17711975993E+02  0.30778631655E+02  0.00000000000E+00 0.  1.
</event>
<event>
 7    1  0.2575978E-011  0.5052885E+02  0.7816164E-02  0.1300439E+00
        -11   -1    0    0    0    0  0.00000000000E+00  0.00000000000E+00  0.45593999997E+02  0.45594000000E+02  0.51100000000E-03 0. -1.
         11   -1    0    0    0    0 -0.00000000000E+00 -0.00000000000E+00 -0.45593999997E+02  0.45594000000E+02  0.51100000000E-03 0.  1.
    9900012    2    1    2    0    0  0.33692316663E+02  0.20405527936E+02 -0.10080100578E+02  0.50528853426E+02  0.29999980473E+02 0.  0.
         12    1    1    2    0    0 -0.33692316663E+02 -0.20405527936E+02  0.10080100578E+02  0.40659146574E+02  0.00000000000E+00 0. -1.
         11    1    3    3    0    0  0.11108743099E+01  0.46059310687E+01 -0.33013998175E+01  0.57747626581E+01  0.51100000000E-03 0. -1.
        -11    1    3    3    0    0  0.19889530342E+02  0.21428303579E+02 -0.92227500377E+01  0.30656560962E+02  0.51100000000E-03 0.  1.
         12    1    3    3    0    0  0.12691912012E+02 -0.56287067119E+01  0.24440492772E+01  0.14097529806E+02  0.00000000000E+00 0. -1.
</event>
<event>
 7    1  0.2575978E-011  0.5052886E+02  0.7816164E-02  0.1300439E+00
        -11   -1    0    0    0    0  0.00000000000E+00  0.00000000000E+00  0.45593999997E+02  0.45594000000E+02  0.51100000000E-03 0.  1.
         11   -1    0    0    0    0 -0.00000000000E+00 -0.00000000000E+00 -0.45593999997E+02  0.45594000000E+02  0.51100000000E-03 0. -1.
    9900012    2    1    2    0    0 -0.33262467686E+01 -0.19063517414E+02  0.35758689694E+02  0.50528862006E+02  0.30000006554E+02 0.  0.
         12    1    1    2    0    0  0.33262467686E+01  0.19063517414E+02 -0.35758689694E+02  0.40659137994E+02  0.00000000000E+00 0. -1.
         11    1    3    3    0    0 -0.48019261182E+01 -0.16597586849E+02  0.13942960555E+02  0.22202354221E+02  0.51100000000E-03 0. -1.
        -11    1    3    3    0    0  0.47208100538E+01 -0.92256916921E+01  0.10508906625E+02  0.14759287025E+02  0.51100000000E-03 0.  1.
        -12    1    3    3    0    0 -0.32451307042E+01  0.67597611275E+01  0.11306822515E+02  0.13567220760E+02  0.00000000000E+00 0.  1.
</event>
<event>
 7    1  0.2575978E-011  0.5052887E+02  0.7816164E-02  0.1300439E+00
        -11   -1    0    0    0    0  0.00000000000E+00  0.00000000000E+00  0.45593999997E+02  0.45594000000E+02  0.51100000000E-03 0.  1.
         11   -1    0    0    0    0 -0.00000000000E+00 -0.00000000000E+00 -0.45593999997E+02  0.45594000000E+02  0.51100000000E-03 0. -1.
    9900012    2    1    2    0    0  0.56882491521E+01 -0.70879134727E+01  0.39630420079E+02  0.50528869520E+02  0.30000029392E+02 0.  0.
         12    1    1    2    0    0 -0.56882491521E+01  0.70879134727E+01 -0.39630420079E+02  0.40659130480E+02  0.00000000000E+00 0. -1.
         11    1    3    3    0    0  0.14435326279E+01  0.37851825558E+01 -0.12005554981E+01  0.42252487730E+01  0.51100000000E-03 0. -1.
        -11    1    3    3    0    0 -0.46925540531E+01 -0.36876442325E+01  0.28207022319E+01  0.66011472388E+01  0.51100000000E-03 0.  1.
        -12    1    3    3    0    0  0.89372705773E+01 -0.71854517960E+01  0.38010273345E+02  0.39702473508E+02  0.00000000000E+00 0.  1.
</event>
<event>
 7    1  0.2575978E-011  0.5052886E+02  0.7816164E-02  0.1300439E+00
        -11   -1    0    0    0    0  0.00000000000E+00  0.00000000000E+00  0.45593999997E+02  0.45594000000E+02  0.51100000000E-03 0. -1.
         11   -1    0    0    0    0 -0.00000000000E+00 -0.00000000000E+00 -0.45593999997E+02  0.45594000000E+02  0.51100000000E-03 0.  1.
    9900012    2    1    2    0    0 -0.27529257909E+02 -0.20640136845E+02 -0.21663111309E+02  0.50528859803E+02  0.29999999856E+02 0.  0.
         12    1    1    2    0    0  0.27529257909E+02  0.20640136845E+02  0.21663111309E+02  0.40659140197E+02  0.00000000000E+00 0. -1.
         11    1    3    3    0    0 -0.71134011525E+00 -0.12358380199E+02 -0.17261391264E+01  0.12498604820E+02  0.51100000000E-03 0. -1.
        -11    1    3    3    0    0 -0.90001344644E+01 -0.11133080503E+02 -0.95632227513E+01  0.17216362320E+02  0.51100000000E-03 0.  1.
        -12    1    3    3    0    0 -0.17817783329E+02  0.28513238572E+01 -0.10373749431E+02  0.20813892663E+02  0.00000000000E+00 0.  1.
</event>
<event>
 7    1  0.2575978E-011  0.5052886E+02  0.7816164E-02  0.1300439E+00
        -11   -1    0    0    0    0  0.00000000000E+00  0.00000000000E+00  0.45593999997E+02  0.45594000000E+02  0.51100000000E-03 0. -1.
         11   -1    0    0    0    0 -0.00000000000E+00 -0.00000000000E+00 -0.45593999997E+02  0.45594000000E+02  0.51100000000E-03 0.  1.
    9900012    2    1    2    0    0  0.27898332843E+02  0.29274270283E+02 -0.42268214213E+01  0.50528857174E+02  0.29999991867E+02 0.  0.
         12    1    1    2    0    0 -0.27898332843E+02 -0.29274270283E+02  0.42268214213E+01  0.40659142826E+02  0.00000000000E+00 0. -1.
         11    1    3    3    0    0 -0.21433672423E+01  0.28873569737E+00 -0.19720613643E+01  0.29268443287E+01  0.51100000000E-03 0. -1.
        -11    1    3    3    0    0  0.11505768253E+01  0.14065475463E+02 -0.49954100985E+01  0.14970489282E+02  0.51100000000E-03 0.  1.
        -12    1    3    3    0    0  0.28891123260E+02  0.14920059122E+02  0.27406500415E+01  0.32631523563E+02  0.00000000000E+00 0.  1.
</event>
<event>
 7    1  0.2575978E-011  0.5052886E+02  0.7816164E-02  0.1300439E+00
        -11   -1    0    0    0    0  0.00000000000E+00  0.00000000000E+00  0.45593999997E+02  0.45594000000E+02  0.51100000000E-03 0. -1.
         11   -1    0    0    0    0 -0.00000000000E+00 -0.00000000000E+00 -0.45593999997E+02  0.45594000000E+02  0.51100000000E-03 0.  1.
    9900012    2    1    2    0    0 -0.35557271910E+02 -0.19313595343E+02 -0.39788351877E+01  0.50528859820E+02  0.29999999908E+02 0.  0.
         12    1    1    2    0    0  0.35557271910E+02  0.19313595343E+02  0.39788351877E+01  0.40659140180E+02  0.00000000000E+00 0. -1.
         11    1    3    3    0    0 -0.14896861866E+02 -0.16549035941E+02 -0.21712070942E+01  0.22371884689E+02  0.51100000000E-03 0. -1.
        -11    1    3    3    0    0 -0.10419923057E+01 -0.15894326558E+01 -0.74667766197E+01  0.77048554485E+01  0.51100000000E-03 0.  1.
        -12    1    3    3    0    0 -0.19618417739E+02 -0.11751267456E+01  0.56591485263E+01  0.20452119682E+02  0.00000000000E+00 0.  1.
</event>
<event>
 7    1  0.2575978E-011  0.5052886E+02  0.7816164E-02  0.1300439E+00
        -11   -1    0    0    0    0  0.00000000000E+00  0.00000000000E+00  0.45593999997E+02  0.45594000000E+02  0.51100000000E-03 0. -1.
         11   -1    0    0    0    0 -0.00000000000E+00 -0.00000000000E+00 -0.45593999997E+02  0.45594000000E+02  0.51100000000E-03 0.  1.
    9900012    2    1    2    0    0 -0.43053559012E+01 -0.40230681261E+02 -0.40151932049E+01  0.50528861044E+02  0.30000003630E+02 0.  0.
         12    1    1    2    0    0  0.43053559012E+01  0.40230681261E+02  0.40151932049E+01  0.40659138956E+02  0.00000000000E+00 0. -1.
         11    1    3    3    0    0 -0.68706478663E+01 -0.12587229763E+02  0.32079883949E+01  0.14694738685E+02  0.51100000000E-03 0. -1.
        -11    1    3    3    0    0  0.41193310057E+00 -0.28031999336E+02 -0.12064922956E+02  0.30520895168E+02  0.51100000000E-03 0.  1.
         12    1    3    3    0    0  0.21533588645E+01  0.38854783868E+00  0.48417413562E+01  0.53132271909E+01  0.00000000000E+00 0. -1.
</event>
<event>
 7    1  0.2575978E-011  0.5052889E+02  0.7816164E-02  0.1300439E+00
        -11   -1    0    0    0    0  0.00000000000E+00  0.00000000000E+00  0.45593999997E+02  0.45594000000E+02  0.51100000000E-03 0.  1.
         11   -1    0    0    0    0 -0.00000000000E+00 -0.00000000000E+00 -0.45593999997E+02  0.45594000000E+02  0.51100000000E-03 0. -1.
    9900012    2    1    2    0    0  0.35712508141E+02  0.16452843972E+02  0.10348121520E+02  0.50528893622E+02  0.30000102653E+02 0.  0.
         12    1    1    2    0    0 -0.35712508141E+02 -0.16452843972E+02 -0.10348121520E+02  0.40659106378E+02  0.00000000000E+00 0. -1.
         11    1    3    3    0    0 -0.24880710884E+00 -0.81229887971E+00 -0.17649684803E+01  0.19587874936E+01  0.51100000000E-03 0. -1.
        -11    1    3    3    0    0 -0.43475681369E+00 -0.41800813875E+01  0.34717255222E+01  0.54511441236E+01  0.51100000000E-03 0.  1.
        -12    1    3    3    0    0  0.36396072064E+02  0.21445224239E+02  0.86413644784E+01  0.43118962005E+02  0.00000000000E+00 0.  1.
</event>
<event>
 7    1  0.2575978E-011  0.5052886E+02  0.7816164E-02  0.1300439E+00
        -11   -1    0    0    0    0  0.00000000000E+00  0.00000000000E+00  0.45593999997E+02  0.45594000000E+02  0.51100000000E-03 0.  1.
         11   -1    0    0    0    0 -0.00000000000E+00 -0.00000000000E+00 -0.45593999997E+02  0.45594000000E+02  0.51100000000E-03 0. -1.
    9900012    2    1    2    0    0  0.75518387902E+01 -0.33369215181E+02  0.21968861719E+02  0.50528859870E+02  0.30000000061E+02 0.  0.
         12    1    1    2    0    0 -0.75518387902E+01  0.33369215181E+02 -0.21968861719E+02  0.40659140130E+02  0.00000000000E+00 0. -1.
         11    1    3    3    0    0  0.66540017829E+01 -0.19634117805E+02  0.11952827581E+02  0.23929989744E+02  0.51100000000E-03 0. -1.
        -11    1    3    3    0    0  0.24419865737E+01 -0.14705840565E+02  0.15087221538E+02  0.21209651085E+02  0.51100000000E-03 0.  1.
         12    1    3    3    0    0 -0.15441495664E+01  0.97074318934E+00 -0.50711874002E+01  0.53892190410E+01  0.00000000000E+00 0. -1.
</event>
<event>
 7    1  0.2575978E-011  0.5052886E+02  0.7816164E-02  0.1300439E+00
        -11   -1    0    0    0    0  0.00000000000E+00  0.00000000000E+00  0.45593999997E+02  0.45594000000E+02  0.51100000000E-03 0.  1.
         11   -1    0    0    0    0 -0.00000000000E+00 -0.00000000000E+00 -0.45593999997E+02  0.45594000000E+02  0.51100000000E-03 0. -1.
    9900012    2    1    2    0    0  0.54934960411E+00 -0.26522839786E+02  0.30812385825E+02  0.50528856680E+02  0.29999990365E+02 0.  0.
         12    1    1    2    0    0 -0.54934960411E+00  0.26522839786E+02 -0.30812385825E+02  0.40659143320E+02  0.00000000000E+00 0. -1.
         11    1    3    3    0    0  0.13628797060E+01 -0.21001290732E+01 -0.12787065947E+01  0.28112406574E+01  0.51100000000E-03 0.  1.
        -11    1    3    3    0    0 -0.67348683123E+00 -0.45034024434E+01 -0.42797987440E+01  0.62490715814E+01  0.51100000000E-03 0. -1.
        -12    1    3    3    0    0 -0.14004327067E+00 -0.19919308269E+02  0.36370891164E+02  0.41468544441E+02  0.00000000000E+00 0.  1.
</event>
<event>
 7    1  0.2575978E-011  0.5052885E+02  0.7816164E-02  0.1300439E+00
        -11   -1    0    0    0    0  0.00000000000E+00  0.00000000000E+00  0.45593999997E+02  0.45594000000E+02  0.51100000000E-03 0.  1.
         11   -1    0    0    0    0 -0.00000000000E+00 -0.00000000000E+00 -0.45593999997E+02  0.45594000000E+02  0.51100000000E-03 0. -1.
    9900012    2    1    2    0    0 -0.34980466962E+02 -0.81291934019E+01 -0.19064346730E+02  0.50528853790E+02  0.29999981580E+02 0.  0.
         12    1    1    2    0    0  0.34980466962E+02  0.81291934019E+01  0.19064346730E+02  0.40659146210E+02  0.00000000000E+00 0. -1.
         11    1    3    3    0    0 -0.12325511819E+01 -0.56705068139E+01 -0.44135484480E+01  0.72906268665E+01  0.51100000000E-03 0. -1.
        -11    1    3    3    0    0 -0.31156743115E+01 -0.73207271885E+01 -0.84548723747E+01  0.11609708873E+02  0.51100000000E-03 0.  1.
        -12    1    3    3    0    0 -0.30632241469E+02  0.48620406004E+01 -0.61959259075E+01  0.31628518050E+02  0.00000000000E+00 0.  1.
</event>
<event>
 7    1  0.2575978E-011  0.5052886E+02  0.7816164E-02  0.1300439E+00
        -11   -1    0    0    0    0  0.00000000000E+00  0.00000000000E+00  0.45593999997E+02  0.45594000000E+02  0.51100000000E-03 0.  1.
         11   -1    0    0    0    0 -0.00000000000E+00 -0.00000000000E+00 -0.45593999997E+02  0.45594000000E+02  0.51100000000E-03 0. -1.
    9900012    2    1    2    0    0 -0.21679283913E+02  0.30917475876E+02  0.15075942436E+02  0.50528859505E+02  0.29999998950E+02 0.  0.
         12    1    1    2    0    0  0.21679283913E+02 -0.30917475876E+02 -0.15075942436E+02  0.40659140495E+02  0.00000000000E+00 0. -1.
         11    1    3    3    0    0 -0.10250320705E+01 -0.11276922654E+00  0.19934120096E+01  0.22443483119E+01  0.51100000000E-03 0. -1.
        -11    1    3    3    0    0  0.21191399486E+01 -0.22374052847E+01  0.68216913635E+01  0.74854665753E+01  0.51100000000E-03 0.  1.
         12    1    3    3    0    0 -0.22773391791E+02  0.33267650387E+02  0.62608390624E+01  0.40799044617E+02  0.00000000000E+00 0. -1.
</event>
<event>
 7    1  0.2575978E-011  0.5052886E+02  0.7816164E-02  0.1300439E+00
        -11   -1    0    0    0    0  0.00000000000E+00  0.00000000000E+00  0.45593999997E+02  0.45594000000E+02  0.51100000000E-03 0. -1.
         11   -1    0    0    0    0 -0.00000000000E+00 -0.00000000000E+00 -0.45593999997E+02  0.45594000000E+02  0.51100000000E-03 0.  1.
    9900012    2    1    2    0    0 -0.31077020167E+02 -0.11674408929E+02 -0.23475364871E+02  0.50528858812E+02  0.29999996846E+02 0.  0.
         12    1    1    2    0    0  0.31077020167E+02  0.11674408929E+02  0.23475364871E+02  0.40659141188E+02  0.00000000000E+00 0. -1.
         11    1    3    3    0    0 -0.18821887129E+02 -0.15284117088E+02 -0.23814548122E+02  0.33985296421E+02  0.51100000000E-03 0. -1.
        -11    1    3    3    0    0  0.17444552463E+01 -0.34036024156E+00 -0.80763249997E+00  0.19522396668E+01  0.51100000000E-03 0.  1.
         12    1    3    3    0    0 -0.13999588284E+02  0.39500684004E+01  0.11468157516E+01  0.14591322725E+02  0.00000000000E+00 0. -1.
</event>
<event>
 7    1  0.2575978E-011  0.5052886E+02  0.7816164E-02  0.1300439E+00
        -11   -1    0    0    0    0  0.00000000000E+00  0.00000000000E+00  0.45593999997E+02  0.45594000000E+02  0.51100000000E-03 0. -1.
         11   -1    0    0    0    0 -0.00000000000E+00 -0.00000000000E+00 -0.45593999997E+02  0.45594000000E+02  0.51100000000E-03 0.  1.
    9900012    2    1    2    0    0 -0.37383754185E+02  0.13495596278E+02 -0.85725904790E+01  0.50528861994E+02  0.30000006515E+02 0.  0.
         12    1    1    2    0    0  0.37383754185E+02 -0.13495596278E+02  0.85725904790E+01  0.40659138006E+02  0.00000000000E+00 0. -1.
         11    1    3    3    0    0 -0.24755507848E+02  0.11898528752E+01 -0.61759128138E-01  0.24784162950E+02  0.51100000000E-03 0.  1.
        -11    1    3    3    0    0 -0.13593933512E+02  0.19403610316E+01 -0.62725756836E+01  0.15096530569E+02  0.51100000000E-03 0. -1.
         12    1    3    3    0    0  0.96568717428E+00  0.10365382372E+02 -0.22382556673E+01  0.10648168475E+02  0.00000000000E+00 0. -1.
</event>
<event>
 7    1  0.2575978E-011  0.5052882E+02  0.7816164E-02  0.1300439E+00
        -11   -1    0    0    0    0  0.00000000000E+00  0.00000000000E+00  0.45593999997E+02  0.45594000000E+02  0.51100000000E-03 0.  1.
         11   -1    0    0    0    0 -0.00000000000E+00 -0.00000000000E+00 -0.45593999997E+02  0.45594000000E+02  0.51100000000E-03 0. -1.
    9900012    2    1    2    0    0  0.22369014933E+02 -0.11761463711E+02  0.31850649035E+02  0.50528822664E+02  0.29999886968E+02 0.  0.
         12    1    1    2    0    0 -0.22369014933E+02  0.11761463711E+02 -0.31850649035E+02  0.40659177336E+02  0.00000000000E+00 0. -1.
         11    1    3    3    0    0 -0.12051140126E+01 -0.80012539418E+00 -0.16198795211E+01  0.21717528298E+01  0.51100000000E-03 0. -1.
        -11    1    3    3    0    0  0.17890551321E+02 -0.75104114262E+01  0.36276890850E+02  0.41139894462E+02  0.51100000000E-03 0.  1.
         12    1    3    3    0    0  0.56835776244E+01 -0.34509268911E+01 -0.28063622938E+01  0.72171753716E+01  0.00000000000E+00 0. -1.
</event>
<event>
 7    1  0.2575978E-011  0.5052887E+02  0.7816164E-02  0.1300439E+00
        -11   -1    0    0    0    0  0.00000000000E+00  0.00000000000E+00  0.45593999997E+02  0.45594000000E+02  0.51100000000E-03 0.  1.
         11   -1    0    0    0    0 -0.00000000000E+00 -0.00000000000E+00 -0.45593999997E+02  0.45594000000E+02  0.51100000000E-03 0. -1.
    9900012    2    1    2    0    0  0.31113544521E+02 -0.17167997353E+02  0.19757833312E+02  0.50528871099E+02  0.30000034192E+02 0.  0.
         12    1    1    2    0    0 -0.31113544521E+02  0.17167997353E+02 -0.19757833312E+02  0.40659128901E+02  0.00000000000E+00 0. -1.
         11    1    3    3    0    0  0.20794602940E+02 -0.75142894080E+01  0.43853303254E+01  0.22541321591E+02  0.51100000000E-03 0. -1.
        -11    1    3    3    0    0  0.14611884398E+02 -0.10389072784E+02  0.84772224990E+01  0.19831875870E+02  0.51100000000E-03 0.  1.
         12    1    3    3    0    0 -0.42929428170E+01  0.73536483858E+00  0.68952804879E+01  0.81556736376E+01  0.00000000000E+00 0. -1.
</event>
<event>
 7    1  0.2575978E-011  0.5052886E+02  0.7816164E-02  0.1300439E+00
        -11   -1    0    0    0    0  0.00000000000E+00  0.00000000000E+00  0.45593999997E+02  0.45594000000E+02  0.51100000000E-03 0.  1.
         11   -1    0    0    0    0 -0.00000000000E+00 -0.00000000000E+00 -0.45593999997E+02  0.45594000000E+02  0.51100000000E-03 0. -1.
    9900012    2    1    2    0    0  0.27707638981E+02  0.28676525056E+02  0.79441248006E+01  0.50528862453E+02  0.30000007912E+02 0.  0.
         12    1    1    2    0    0 -0.27707638981E+02 -0.28676525056E+02 -0.79441248006E+01  0.40659137547E+02  0.00000000000E+00 0. -1.
         11    1    3    3    0    0  0.27436099528E+01 -0.27623132113E+01  0.67086397141E+01  0.77565209292E+01  0.51100000000E-03 0.  1.
        -11    1    3    3    0    0  0.81897560492E+01  0.79369312695E+01 -0.61657806886E+01  0.12964714956E+02  0.51100000000E-03 0. -1.
        -12    1    3    3    0    0  0.16774272979E+02  0.23501906998E+02  0.74012657751E+01  0.29807626568E+02  0.00000000000E+00 0.  1.
</event>
<event>
 7    1  0.2575978E-011  0.5052886E+02  0.7816164E-02  0.1300439E+00
        -11   -1    0    0    0    0  0.00000000000E+00  0.00000000000E+00  0.45593999997E+02  0.45594000000E+02  0.51100000000E-03 0.  1.
         11   -1    0    0    0    0 -0.00000000000E+00 -0.00000000000E+00 -0.45593999997E+02  0.45594000000E+02  0.51100000000E-03 0. -1.
    9900012    2    1    2    0    0 -0.27928404507E+01 -0.40151578273E+02 -0.57633623087E+01  0.50528861536E+02  0.30000005124E+02 0.  0.
         12    1    1    2    0    0  0.27928404507E+01  0.40151578273E+02  0.57633623087E+01  0.40659138464E+02  0.00000000000E+00 0. -1.
         11    1    3    3    0    0 -0.35635921751E+01 -0.58161761446E+01  0.55743554121E+01  0.88091164516E+01  0.51100000000E-03 0. -1.
        -11    1    3    3    0    0  0.22408083716E+01  0.20682695843E+01  0.10698022514E+01  0.32316309118E+01  0.51100000000E-03 0.  1.
        -12    1    3    3    0    0 -0.14700566472E+01 -0.36403671712E+02 -0.12407519972E+02  0.38488114172E+02  0.00000000000E+00 0.  1.
</event>
<event>
 7    1  0.2575978E-011  0.5052881E+02  0.7816164E-02  0.1300439E+00
        -11   -1    0    0    0    0  0.00000000000E+00  0.00000000000E+00  0.45593999997E+02  0.45594000000E+02  0.51100000000E-03 0. -1.
         11   -1    0    0    0    0 -0.00000000000E+00 -0.00000000000E+00 -0.45593999997E+02  0.45594000000E+02  0.51100000000E-03 0.  1.
    9900012    2    1    2    0    0  0.22292841225E+02 -0.28989757439E+02 -0.17770563523E+02  0.50528809967E+02  0.29999848375E+02 0.  0.
         12    1    1    2    0    0 -0.22292841225E+02  0.28989757439E+02  0.17770563523E+02  0.40659190033E+02  0.00000000000E+00 0. -1.
         11    1    3    3    0    0 -0.78394376093E+00 -0.14412565850E+01 -0.19988581712E+01  0.25859664758E+01  0.51100000000E-03 0. -1.
        -11    1    3    3    0    0  0.13343307268E+01  0.54513082552E+01 -0.73494810956E+00  0.56601545179E+01  0.51100000000E-03 0.  1.
        -12    1    3    3    0    0  0.21742454259E+02 -0.32999809109E+02 -0.15036757242E+02  0.42282688973E+02  0.00000000000E+00 0.  1.
</event>
<event>
 7    1  0.2575978E-011  0.5052886E+02  0.7816164E-02  0.1300439E+00
        -11   -1    0    0    0    0  0.00000000000E+00  0.00000000000E+00  0.45593999997E+02  0.45594000000E+02  0.51100000000E-03 0. -1.
         11   -1    0    0    0    0 -0.00000000000E+00 -0.00000000000E+00 -0.45593999997E+02  0.45594000000E+02  0.51100000000E-03 0.  1.
    9900012    2    1    2    0    0 -0.29273507051E+02  0.35620769251E+01 -0.27991768586E+02  0.50528859384E+02  0.29999998583E+02 0.  0.
         12    1    1    2    0    0  0.29273507051E+02 -0.35620769251E+01  0.27991768586E+02  0.40659140616E+02  0.00000000000E+00 0. -1.
         11    1    3    3    0    0 -0.30217953500E+01  0.43225562977E+00  0.92803724174E+00  0.31905086507E+01  0.51100000000E-03 0. -1.
        -11    1    3    3    0    0 -0.12140342290E+02 -0.69867290201E+01 -0.47783596604E+00  0.14015370876E+02  0.51100000000E-03 0.  1.
        -12    1    3    3    0    0 -0.14111369411E+02  0.10116550315E+02 -0.28441969862E+02  0.33322979857E+02  0.00000000000E+00 0.  1.
</event>
<event>
 7    1  0.2575978E-011  0.5052886E+02  0.7816164E-02  0.1300439E+00
        -11   -1    0    0    0    0  0.00000000000E+00  0.00000000000E+00  0.45593999997E+02  0.45594000000E+02  0.51100000000E-03 0. -1.
         11   -1    0    0    0    0 -0.00000000000E+00 -0.00000000000E+00 -0.45593999997E+02  0.45594000000E+02  0.51100000000E-03 0.  1.
    9900012    2    1    2    0    0  0.40018931627E+01 -0.37783734649E+02  0.14475496841E+02  0.50528858817E+02  0.29999996861E+02 0.  0.
         12    1    1    2    0    0 -0.40018931627E+01  0.37783734649E+02 -0.14475496841E+02  0.40659141183E+02  0.00000000000E+00 0. -1.
         11    1    3    3    0    0 -0.35565817223E+01 -0.58252955609E+01 -0.15443762294E+01  0.69977453597E+01  0.51100000000E-03 0. -1.
        -11    1    3    3    0    0  0.20328563633E+01 -0.28405980850E+02  0.26091112274E+01  0.28597897033E+02  0.51100000000E-03 0.  1.
         12    1    3    3    0    0  0.55256185217E+01 -0.35524582382E+01  0.13410761843E+02  0.14933216425E+02  0.00000000000E+00 0. -1.
</event>
<event>
 7    1  0.2575978E-011  0.5052886E+02  0.7816164E-02  0.1300439E+00
        -11   -1    0    0    0    0  0.00000000000E+00  0.00000000000E+00  0.45593999997E+02  0.45594000000E+02  0.51100000000E-03 0.  1.
         11   -1    0    0    0    0 -0.00000000000E+00 -0.00000000000E+00 -0.45593999997E+02  0.45594000000E+02  0.51100000000E-03 0. -1.
    9900012    2    1    2    0    0  0.93847990484E+01  0.14153382196E+02  0.36942835017E+02  0.50528859087E+02  0.29999997680E+02 0.  0.
         12    1    1    2    0    0 -0.93847990484E+01 -0.14153382196E+02 -0.36942835017E+02  0.40659140913E+02  0.00000000000E+00 0. -1.
         11    1    3    3    0    0  0.16702809454E+02  0.48671211099E+01  0.21465465424E+02  0.27630398435E+02  0.51100000000E-03 0.  1.
        -11    1    3    3    0    0 -0.14376722581E+01 -0.19775869327E+01 -0.48875685753E+00  0.24933180954E+01  0.51100000000E-03 0. -1.
        -12    1    3    3    0    0 -0.58803381474E+01  0.11263848018E+02  0.15966126450E+02  0.20405142556E+02  0.00000000000E+00 0.  1.
</event>
<event>
 7    1  0.2575978E-011  0.5052886E+02  0.7816164E-02  0.1300439E+00
        -11   -1    0    0    0    0  0.00000000000E+00  0.00000000000E+00  0.45593999997E+02  0.45594000000E+02  0.51100000000E-03 0.  1.
         11   -1    0    0    0    0 -0.00000000000E+00 -0.00000000000E+00 -0.45593999997E+02  0.45594000000E+02  0.51100000000E-03 0. -1.
    9900012    2    1    2    0    0  0.40120357966E+01 -0.29630754560E+02  0.27551548647E+02  0.50528857364E+02  0.29999992444E+02 0.  0.
         12    1    1    2    0    0 -0.40120357966E+01  0.29630754560E+02 -0.27551548647E+02  0.40659142636E+02  0.00000000000E+00 0. -1.
         11    1    3    3    0    0  0.13521337293E+02 -0.10943671630E+02  0.10147163858E+02  0.20138407226E+02  0.51100000000E-03 0.  1.
        -11    1    3    3    0    0 -0.69297397547E+01 -0.10186433741E+01  0.58134599824E+01  0.91024856286E+01  0.51100000000E-03 0. -1.
        -12    1    3    3    0    0 -0.25795617420E+01 -0.17668439555E+02  0.11590924806E+02  0.21287964510E+02  0.00000000000E+00 0.  1.
</event>
<event>
 7    1  0.2575978E-011  0.5052886E+02  0.7816164E-02  0.1300439E+00
        -11   -1    0    0    0    0  0.00000000000E+00  0.00000000000E+00  0.45593999997E+02  0.45594000000E+02  0.51100000000E-03 0.  1.
         11   -1    0    0    0    0 -0.00000000000E+00 -0.00000000000E+00 -0.45593999997E+02  0.45594000000E+02  0.51100000000E-03 0. -1.
    9900012    2    1    2    0    0  0.24358218467E+02  0.75857983151E+01  0.31659099791E+02  0.50528859053E+02  0.29999997578E+02 0.  0.
         12    1    1    2    0    0 -0.24358218467E+02 -0.75857983151E+01 -0.31659099791E+02  0.40659140947E+02  0.00000000000E+00 0. -1.
         11    1    3    3    0    0  0.20572598690E+02  0.72993453378E+01  0.14520217005E+02  0.26217340852E+02  0.51100000000E-03 0. -1.
        -11    1    3    3    0    0  0.81382829602E+01  0.78243263289E+00  0.18164995219E+01  0.83751729021E+01  0.51100000000E-03 0.  1.
         12    1    3    3    0    0 -0.43526631833E+01 -0.49597965556E+00  0.15322383264E+02  0.15936345299E+02  0.00000000000E+00 0. -1.
</event>
<event>
 7    1  0.2575978E-011  0.5052886E+02  0.7816164E-02  0.1300439E+00
        -11   -1    0    0    0    0  0.00000000000E+00  0.00000000000E+00  0.45593999997E+02  0.45594000000E+02  0.51100000000E-03 0.  1.
         11   -1    0    0    0    0 -0.00000000000E+00 -0.00000000000E+00 -0.45593999997E+02  0.45594000000E+02  0.51100000000E-03 0. -1.
    9900012    2    1    2    0    0 -0.20377167079E+02 -0.11999698326E+02  0.33074829198E+02  0.50528855585E+02  0.29999987036E+02 0.  0.
         12    1    1    2    0    0  0.20377167079E+02  0.11999698326E+02 -0.33074829198E+02  0.40659144415E+02  0.00000000000E+00 0. -1.
         11    1    3    3    0    0 -0.20961773125E+02 -0.10093105608E+02  0.16265442317E+02  0.28387168358E+02  0.51100000000E-03 0. -1.
        -11    1    3    3    0    0 -0.45853319746E+01 -0.59549880417E+01  0.65968232399E+01  0.10000261447E+02  0.51100000000E-03 0.  1.
        -12    1    3    3    0    0  0.51699380206E+01  0.40483953242E+01  0.10212563641E+02  0.12141425780E+02  0.00000000000E+00 0.  1.
</event>
<event>
 7    1  0.2575978E-011  0.5052882E+02  0.7816164E-02  0.1300439E+00
        -11   -1    0    0    0    0  0.00000000000E+00  0.00000000000E+00  0.45593999997E+02  0.45594000000E+02  0.51100000000E-03 0.  1.
         11   -1    0    0    0    0 -0.00000000000E+00 -0.00000000000E+00 -0.45593999997E+02  0.45594000000E+02  0.51100000000E-03 0. -1.
    9900012    2    1    2    0    0 -0.49400092530E+01 -0.37723234218E+02  0.14343054299E+02  0.50528815332E+02  0.29999864683E+02 0.  0.
         12    1    1    2    0    0  0.49400092530E+01  0.37723234218E+02 -0.14343054299E+02  0.40659184668E+02  0.00000000000E+00 0. -1.
         11    1    3    3    0    0  0.15450535122E+00 -0.64242488636E+00  0.95781459306E+00  0.11636110579E+01  0.51100000000E-03 0. -1.
        -11    1    3    3    0    0 -0.63092183851E+01 -0.19743520684E+02  0.21778197944E+02  0.30064975496E+02  0.51100000000E-03 0.  1.
         12    1    3    3    0    0  0.12147037809E+01 -0.17337288647E+02 -0.83929582381E+01  0.19300228778E+02  0.00000000000E+00 0. -1.
</event>
<event>
 7    1  0.2575978E-011  0.5052886E+02  0.7816164E-02  0.1300439E+00
        -11   -1    0    0    0    0  0.00000000000E+00  0.00000000000E+00  0.45593999997E+02  0.45594000000E+02  0.51100000000E-03 0.  1.
         11   -1    0    0    0    0 -0.00000000000E+00 -0.00000000000E+00 -0.45593999997E+02  0.45594000000E+02  0.51100000000E-03 0. -1.
    9900012    2    1    2    0    0 -0.15585527043E+01 -0.66979771480E+01  0.40073353181E+02  0.50528860566E+02  0.30000002175E+02 0.  0.
         12    1    1    2    0    0  0.15585527043E+01  0.66979771480E+01 -0.40073353181E+02  0.40659139434E+02  0.00000000000E+00 0. -1.
         11    1    3    3    0    0 -0.51185225777E+01  0.79743728980E+01  0.27349752737E+02  0.28944755510E+02  0.51100000000E-03 0. -1.
        -11    1    3    3    0    0  0.15505830901E+01 -0.18843150391E+01 -0.10726752295E+01  0.26656300372E+01  0.51100000000E-03 0.  1.
        -12    1    3    3    0    0  0.20093867832E+01 -0.12788035007E+02  0.13796275673E+02  0.18918475018E+02  0.00000000000E+00 0.  1.
</event>
<event>
 7    1  0.2575978E-011  0.5052885E+02  0.7816164E-02  0.1300439E+00
        -11   -1    0    0    0    0  0.00000000000E+00  0.00000000000E+00  0.45593999997E+02  0.45594000000E+02  0.51100000000E-03 0.  1.
         11   -1    0    0    0    0 -0.00000000000E+00 -0.00000000000E+00 -0.45593999997E+02  0.45594000000E+02  0.51100000000E-03 0. -1.
    9900012    2    1    2    0    0  0.40333243048E+02  0.36467095720E+00  0.51247087763E+01  0.50528854415E+02  0.29999983480E+02 0.  0.
         12    1    1    2    0    0 -0.40333243048E+02 -0.36467095720E+00 -0.51247087763E+01  0.40659145585E+02  0.00000000000E+00 0. -1.
         11    1    3    3    0    0  0.14361922188E+02  0.11383758490E+02 -0.27103457886E+01  0.18525677878E+02  0.51100000000E-03 0. -1.
        -11    1    3    3    0    0  0.67038370097E+01  0.14101799163E+01 -0.18760855562E+01  0.71027977111E+01  0.51100000000E-03 0.  1.
        -12    1    3    3    0    0  0.19267483851E+02 -0.12429267449E+02  0.97111401211E+01  0.24900378826E+02  0.00000000000E+00 0.  1.
</event>
<event>
 7    1  0.2575978E-011  0.5052886E+02  0.7816164E-02  0.1300439E+00
        -11   -1    0    0    0    0  0.00000000000E+00  0.00000000000E+00  0.45593999997E+02  0.45594000000E+02  0.51100000000E-03 0.  1.
         11   -1    0    0    0    0 -0.00000000000E+00 -0.00000000000E+00 -0.45593999997E+02  0.45594000000E+02  0.51100000000E-03 0. -1.
    9900012    2    1    2    0    0 -0.19324652102E+02  0.21027375309E+02  0.28940850352E+02  0.50528861908E+02  0.30000006257E+02 0.  0.
         12    1    1    2    0    0  0.19324652102E+02 -0.21027375309E+02 -0.28940850352E+02  0.40659138092E+02  0.00000000000E+00 0. -1.
         11    1    3    3    0    0 -0.75637026646E+00  0.14949969756E+02  0.16698361486E+02  0.22425631948E+02  0.51100000000E-03 0. -1.
        -11    1    3    3    0    0  0.65161613874E+00  0.19154160522E+00  0.73948949300E+01  0.74260193284E+01  0.51100000000E-03 0.  1.
         12    1    3    3    0    0 -0.19219897975E+02  0.58858639476E+01  0.48475939363E+01  0.20677210632E+02  0.00000000000E+00 0. -1.
</event>
<event>
 7    1  0.2575978E-011  0.5052885E+02  0.7816164E-02  0.1300439E+00
        -11   -1    0    0    0    0  0.00000000000E+00  0.00000000000E+00  0.45593999997E+02  0.45594000000E+02  0.51100000000E-03 0.  1.
         11   -1    0    0    0    0 -0.00000000000E+00 -0.00000000000E+00 -0.45593999997E+02  0.45594000000E+02  0.51100000000E-03 0. -1.
    9900012    2    1    2    0    0 -0.14571567508E+02 -0.48375457950E+01  0.37648823747E+02  0.50528851479E+02  0.29999974555E+02 0.  0.
         12    1    1    2    0    0  0.14571567508E+02  0.48375457950E+01 -0.37648823747E+02  0.40659148521E+02  0.00000000000E+00 0. -1.
         11    1    3    3    0    0 -0.28808718552E+01 -0.22484532554E+00  0.11016889491E+02  0.11389549262E+02  0.51100000000E-03 0.  1.
        -11    1    3    3    0    0 -0.19369961241E+02  0.25865430696E+00  0.20288328421E+02  0.28051355954E+02  0.51100000000E-03 0. -1.
         12    1    3    3    0    0  0.76792655883E+01 -0.48713547764E+01  0.63436058347E+01  0.11087946262E+02  0.00000000000E+00 0. -1.
</event>
<event>
 7    1  0.2575978E-011  0.5052887E+02  0.7816164E-02  0.1300439E+00
        -11   -1    0    0    0    0  0.00000000000E+00  0.00000000000E+00  0.45593999997E+02  0.45594000000E+02  0.51100000000E-03 0.  1.
         11   -1    0    0    0    0 -0.00000000000E+00 -0.00000000000E+00 -0.45593999997E+02  0.45594000000E+02  0.51100000000E-03 0. -1.
    9900012    2    1    2    0    0  0.20475957936E+02 -0.11252755151E+02  0.33275748779E+02  0.50528870537E+02  0.30000032485E+02 0.  0.
         12    1    1    2    0    0 -0.20475957936E+02  0.11252755151E+02 -0.33275748779E+02  0.40659129463E+02  0.00000000000E+00 0. -1.
         11    1    3    3    0    0 -0.16150619712E+01 -0.14121469927E+01  0.35360054919E+01  0.41359302943E+01  0.51100000000E-03 0. -1.
        -11    1    3    3    0    0  0.65322158896E+01 -0.11931626301E+02  0.99294030677E+00  0.13638895899E+02  0.51100000000E-03 0.  1.
         12    1    3    3    0    0  0.15558804018E+02  0.20910181435E+01  0.28746802980E+02  0.32754044344E+02  0.00000000000E+00 0. -1.
</event>
<event>
 7    1  0.2575978E-011  0.5052886E+02  0.7816164E-02  0.1300439E+00
        -11   -1    0    0    0    0  0.00000000000E+00  0.00000000000E+00  0.45593999997E+02  0.45594000000E+02  0.51100000000E-03 0.  1.
         11   -1    0    0    0    0 -0.00000000000E+00 -0.00000000000E+00 -0.45593999997E+02  0.45594000000E+02  0.51100000000E-03 0. -1.
    9900012    2    1    2    0    0 -0.55544121066E+01  0.24670654755E+02  0.31838230414E+02  0.50528860612E+02  0.30000002315E+02 0.  0.
         12    1    1    2    0    0  0.55544121066E+01 -0.24670654755E+02 -0.31838230414E+02  0.40659139388E+02  0.00000000000E+00 0. -1.
         11    1    3    3    0    0 -0.52729193286E+01  0.13269570426E+02  0.17395556344E+02  0.22505345105E+02  0.51100000000E-03 0. -1.
        -11    1    3    3    0    0  0.26385383217E+00  0.10026698267E+02  0.19945505748E+02  0.22325489844E+02  0.51100000000E-03 0.  1.
         12    1    3    3    0    0 -0.54534661015E+00  0.13743860619E+01 -0.55028316778E+01  0.56980256621E+01  0.00000000000E+00 0. -1.
</event>
<event>
 7    1  0.2575978E-011  0.5052886E+02  0.7816164E-02  0.1300439E+00
        -11   -1    0    0    0    0  0.00000000000E+00  0.00000000000E+00  0.45593999997E+02  0.45594000000E+02  0.51100000000E-03 0. -1.
         11   -1    0    0    0    0 -0.00000000000E+00 -0.00000000000E+00 -0.45593999997E+02  0.45594000000E+02  0.51100000000E-03 0.  1.
    9900012    2    1    2    0    0  0.14844602103E+02 -0.14858372494E+02 -0.34814256737E+02  0.50528856908E+02  0.29999991059E+02 0.  0.
         12    1    1    2    0    0 -0.14844602103E+02  0.14858372494E+02  0.34814256737E+02  0.40659143092E+02  0.00000000000E+00 0. -1.
         11    1    3    3    0    0  0.49619842690E+01 -0.50497968660E+01  0.38489101863E+01  0.80582781137E+01  0.51100000000E-03 0. -1.
        -11    1    3    3    0    0 -0.23143929127E+00 -0.70841353843E+01 -0.14797926159E+02  0.16407838284E+02  0.51100000000E-03 0.  1.
        -12    1    3    3    0    0  0.10114057125E+02 -0.27244402440E+01 -0.23865240765E+02  0.26062740511E+02  0.00000000000E+00 0.  1.
</event>
<event>
 7    1  0.2575978E-011  0.5052885E+02  0.7816164E-02  0.1300439E+00
        -11   -1    0    0    0    0  0.00000000000E+00  0.00000000000E+00  0.45593999997E+02  0.45594000000E+02  0.51100000000E-03 0.  1.
         11   -1    0    0    0    0 -0.00000000000E+00 -0.00000000000E+00 -0.45593999997E+02  0.45594000000E+02  0.51100000000E-03 0. -1.
    9900012    2    1    2    0    0  0.25381596172E+01  0.39483175870E+02  0.93703212441E+01  0.50528851567E+02  0.29999974824E+02 0.  0.
         12    1    1    2    0    0 -0.25381596172E+01 -0.39483175870E+02 -0.93703212441E+01  0.40659148433E+02  0.00000000000E+00 0. -1.
         11    1    3    3    0    0  0.52616112206E+00  0.81658128685E+00 -0.10061457114E+01  0.13985635410E+01  0.51100000000E-03 0. -1.
        -11    1    3    3    0    0 -0.11620400173E+02  0.28660476607E+02  0.87564778347E+01  0.32142378939E+02  0.51100000000E-03 0.  1.
         12    1    3    3    0    0  0.13632398668E+02  0.10006117977E+02  0.16199891208E+01  0.16987909088E+02  0.00000000000E+00 0. -1.
</event>
<event>
 7    1  0.2575978E-011  0.5052886E+02  0.7816164E-02  0.1300439E+00
        -11   -1    0    0    0    0  0.00000000000E+00  0.00000000000E+00  0.45593999997E+02  0.45594000000E+02  0.51100000000E-03 0. -1.
         11   -1    0    0    0    0 -0.00000000000E+00 -0.00000000000E+00 -0.45593999997E+02  0.45594000000E+02  0.51100000000E-03 0.  1.
    9900012    2    1    2    0    0 -0.10477288279E+02  0.32506147623E+02 -0.22062243994E+02  0.50528858186E+02  0.29999994941E+02 0.  0.
         12    1    1    2    0    0  0.10477288279E+02 -0.32506147623E+02  0.22062243994E+02  0.40659141814E+02  0.00000000000E+00 0. -1.
         11    1    3    3    0    0 -0.12401679758E+02  0.18029444765E+02 -0.11155888604E+02  0.24562499673E+02  0.51100000000E-03 0. -1.
        -11    1    3    3    0    0 -0.34602026386E+01  0.15626707319E+02 -0.12416757238E+02  0.20256920904E+02  0.51100000000E-03 0.  1.
         12    1    3    3    0    0  0.53845941175E+01 -0.11500044611E+01  0.15104018474E+01  0.57094376090E+01  0.00000000000E+00 0. -1.
</event>
<event>
 7    1  0.2575978E-011  0.5052886E+02  0.7816164E-02  0.1300439E+00
        -11   -1    0    0    0    0  0.00000000000E+00  0.00000000000E+00  0.45593999997E+02  0.45594000000E+02  0.51100000000E-03 0.  1.
         11   -1    0    0    0    0 -0.00000000000E+00 -0.00000000000E+00 -0.45593999997E+02  0.45594000000E+02  0.51100000000E-03 0. -1.
    9900012    2    1    2    0    0  0.14053610173E+02 -0.14657230800E+02  0.35225374005E+02  0.50528863912E+02  0.30000012347E+02 0.  0.
         12    1    1    2    0    0 -0.14053610173E+02  0.14657230800E+02 -0.35225374005E+02  0.40659136088E+02  0.00000000000E+00 0. -1.
         11    1    3    3    0    0  0.15891308914E+01 -0.95891729242E+01  0.15117707293E+02  0.17972830840E+02  0.51100000000E-03 0. -1.
        -11    1    3    3    0    0  0.61999695899E+01 -0.13491908638E+02  0.94729539088E+01  0.17612724878E+02  0.51100000000E-03 0.  1.
         12    1    3    3    0    0  0.62645096920E+01  0.84238507626E+01  0.10634712803E+02  0.14943308193E+02  0.00000000000E+00 0. -1.
</event>
<event>
 7    1  0.2575978E-011  0.5052886E+02  0.7816164E-02  0.1300439E+00
        -11   -1    0    0    0    0  0.00000000000E+00  0.00000000000E+00  0.45593999997E+02  0.45594000000E+02  0.51100000000E-03 0.  1.
         11   -1    0    0    0    0 -0.00000000000E+00 -0.00000000000E+00 -0.45593999997E+02  0.45594000000E+02  0.51100000000E-03 0. -1.
    9900012    2    1    2    0    0  0.84172397355E+01  0.23637187937E+02  0.31993732344E+02  0.50528862188E+02  0.30000007107E+02 0.  0.
         12    1    1    2    0    0 -0.84172397355E+01 -0.23637187937E+02 -0.31993732344E+02  0.40659137812E+02  0.00000000000E+00 0. -1.
         11    1    3    3    0    0  0.11371021415E+02  0.18030651507E+02  0.19926244953E+02  0.29179783412E+02  0.51100000000E-03 0. -1.
        -11    1    3    3    0    0  0.15876381970E+00  0.88454759687E+01  0.13917194317E+02  0.16491086956E+02  0.51100000000E-03 0.  1.
        -12    1    3    3    0    0 -0.31125454994E+01 -0.32389395386E+01 -0.18497069260E+01  0.48579918209E+01  0.00000000000E+00 0.  1.
</event>
<event>
 7    1  0.2575978E-011  0.5052883E+02  0.7816164E-02  0.1300439E+00
        -11   -1    0    0    0    0  0.00000000000E+00  0.00000000000E+00  0.45593999997E+02  0.45594000000E+02  0.51100000000E-03 0.  1.
         11   -1    0    0    0    0 -0.00000000000E+00 -0.00000000000E+00 -0.45593999997E+02  0.45594000000E+02  0.51100000000E-03 0. -1.
    9900012    2    1    2    0    0  0.88316873837E+01  0.71525167249E+01  0.39038580824E+02  0.50528831412E+02  0.29999913560E+02 0.  0.
         12    1    1    2    0    0 -0.88316873837E+01 -0.71525167249E+01 -0.39038580824E+02  0.40659168588E+02  0.00000000000E+00 0. -1.
         11    1    3    3    0    0  0.34918229467E+01  0.21610341233E+00  0.22322872542E+02  0.22595357199E+02  0.51100000000E-03 0. -1.
        -11    1    3    3    0    0  0.44145279117E+01 -0.64844976410E+01  0.10519381386E+02  0.13122276912E+02  0.51100000000E-03 0.  1.
         12    1    3    3    0    0  0.92533652528E+00  0.13420910954E+02  0.61963268960E+01  0.14811197302E+02  0.00000000000E+00 0. -1.
</event>
<event>
 7    1  0.2575978E-011  0.5052886E+02  0.7816164E-02  0.1300439E+00
        -11   -1    0    0    0    0  0.00000000000E+00  0.00000000000E+00  0.45593999997E+02  0.45594000000E+02  0.51100000000E-03 0. -1.
         11   -1    0    0    0    0 -0.00000000000E+00 -0.00000000000E+00 -0.45593999997E+02  0.45594000000E+02  0.51100000000E-03 0.  1.
    9900012    2    1    2    0    0  0.39654742739E+01  0.39928570505E+02 -0.65688769780E+01  0.50528857442E+02  0.29999992681E+02 0.  0.
         12    1    1    2    0    0 -0.39654742739E+01 -0.39928570505E+02  0.65688769780E+01  0.40659142558E+02  0.00000000000E+00 0. -1.
         11    1    3    3    0    0  0.26766352874E+01  0.21120747983E+02  0.21036700636E+01  0.21393358778E+02  0.51100000000E-03 0. -1.
        -11    1    3    3    0    0 -0.36072832026E+01  0.17549256091E+02  0.12912341544E+01  0.17962632528E+02  0.51100000000E-03 0.  1.
        -12    1    3    3    0    0  0.48961221890E+01  0.12585664312E+01 -0.99637811960E+01  0.11172866135E+02  0.00000000000E+00 0.  1.
</event>
<event>
 7    1  0.2575978E-011  0.5052887E+02  0.7816164E-02  0.1300439E+00
        -11   -1    0    0    0    0  0.00000000000E+00  0.00000000000E+00  0.45593999997E+02  0.45594000000E+02  0.51100000000E-03 0. -1.
         11   -1    0    0    0    0 -0.00000000000E+00 -0.00000000000E+00 -0.45593999997E+02  0.45594000000E+02  0.51100000000E-03 0.  1.
    9900012    2    1    2    0    0  0.29173084053E+02 -0.28245633397E+02  0.20689029164E+01  0.50528868204E+02  0.30000025392E+02 0.  0.
         12    1    1    2    0    0 -0.29173084053E+02  0.28245633397E+02 -0.20689029164E+01  0.40659131796E+02  0.00000000000E+00 0. -1.
         11    1    3    3    0    0 -0.19002311707E+01  0.12375657678E+01 -0.13269884690E+01  0.26274219664E+01  0.51100000000E-03 0. -1.
        -11    1    3    3    0    0  0.18854525762E+02 -0.50776190296E+01 -0.32888813707E+01  0.19801315553E+02  0.51100000000E-03 0.  1.
         12    1    3    3    0    0  0.12218789462E+02 -0.24405580135E+02  0.66847727561E+01  0.28100130684E+02  0.00000000000E+00 0. -1.
</event>
<event>
 7    1  0.2575978E-011  0.5052886E+02  0.7816164E-02  0.1300439E+00
        -11   -1    0    0    0    0  0.00000000000E+00  0.00000000000E+00  0.45593999997E+02  0.45594000000E+02  0.51100000000E-03 0.  1.
         11   -1    0    0    0    0 -0.00000000000E+00 -0.00000000000E+00 -0.45593999997E+02  0.45594000000E+02  0.51100000000E-03 0. -1.
    9900012    2    1    2    0    0  0.13984139822E+02  0.10911368644E+01  0.38163052499E+02  0.50528864222E+02  0.30000013289E+02 0.  0.
         12    1    1    2    0    0 -0.13984139822E+02 -0.10911368644E+01 -0.38163052499E+02  0.40659135778E+02  0.00000000000E+00 0. -1.
         11    1    3    3    0    0  0.33602747446E+00 -0.19357439034E+00 -0.19948242586E+01  0.20321686918E+01  0.51100000000E-03 0. -1.
        -11    1    3    3    0    0  0.67673139018E+01  0.60815797094E+01  0.18543288394E+01  0.92855094051E+01  0.51100000000E-03 0.  1.
        -12    1    3    3    0    0  0.68807984454E+01 -0.47968684547E+01  0.38303547918E+02  0.39211186125E+02  0.00000000000E+00 0.  1.
</event>
<event>
 7    1  0.2575978E-011  0.5052886E+02  0.7816164E-02  0.1300439E+00
        -11   -1    0    0    0    0  0.00000000000E+00  0.00000000000E+00  0.45593999997E+02  0.45594000000E+02  0.51100000000E-03 0.  1.
         11   -1    0    0    0    0 -0.00000000000E+00 -0.00000000000E+00 -0.45593999997E+02  0.45594000000E+02  0.51100000000E-03 0. -1.
    9900012    2    1    2    0    0 -0.36820861296E+02 -0.35037978406E+01  0.16885299096E+02  0.50528858944E+02  0.29999997245E+02 0.  0.
         12    1    1    2    0    0  0.36820861296E+02  0.35037978406E+01 -0.16885299096E+02  0.40659141056E+02  0.00000000000E+00 0. -1.
         11    1    3    3    0    0 -0.14301931505E+02 -0.11333434007E+02  0.90401195772E+01  0.20364570543E+02  0.51100000000E-03 0. -1.
        -11    1    3    3    0    0  0.26558210782E+01 -0.18478832690E+00  0.24676530361E+00  0.26736539980E+01  0.51100000000E-03 0.  1.
        -12    1    3    3    0    0 -0.25174750869E+02  0.80144244935E+01  0.75984142149E+01  0.27490634402E+02  0.00000000000E+00 0.  1.
</event>
<event>
 7    1  0.2575978E-011  0.5052886E+02  0.7816164E-02  0.1300439E+00
        -11   -1    0    0    0    0  0.00000000000E+00  0.00000000000E+00  0.45593999997E+02  0.45594000000E+02  0.51100000000E-03 0.  1.
         11   -1    0    0    0    0 -0.00000000000E+00 -0.00000000000E+00 -0.45593999997E+02  0.45594000000E+02  0.51100000000E-03 0. -1.
    9900012    2    1    2    0    0  0.34540914588E+02 -0.80223640982E+01  0.19893027101E+02  0.50528860394E+02  0.30000001652E+02 0.  0.
         12    1    1    2    0    0 -0.34540914588E+02  0.80223640982E+01 -0.19893027101E+02  0.40659139606E+02  0.00000000000E+00 0. -1.
         11    1    3    3    0    0  0.25611695866E+02 -0.95707087956E+01  0.49335068454E+01  0.27783032988E+02  0.51100000000E-03 0. -1.
        -11    1    3    3    0    0  0.55624481395E+01 -0.16125131235E+01 -0.12213656335E+01  0.59188480425E+01  0.51100000000E-03 0.  1.
        -12    1    3    3    0    0  0.33667705827E+01  0.31608578209E+01  0.16180885889E+02  0.16826979363E+02  0.00000000000E+00 0.  1.
</event>
<event>
 7    1  0.2575978E-011  0.5052886E+02  0.7816164E-02  0.1300439E+00
        -11   -1    0    0    0    0  0.00000000000E+00  0.00000000000E+00  0.45593999997E+02  0.45594000000E+02  0.51100000000E-03 0.  1.
         11   -1    0    0    0    0 -0.00000000000E+00 -0.00000000000E+00 -0.45593999997E+02  0.45594000000E+02  0.51100000000E-03 0. -1.
    9900012    2    1    2    0    0 -0.28751095239E+02  0.50989720958E+01  0.28293831739E+02  0.50528857014E+02  0.29999991379E+02 0.  0.
         12    1    1    2    0    0  0.28751095239E+02 -0.50989720958E+01 -0.28293831739E+02  0.40659142986E+02  0.00000000000E+00 0. -1.
         11    1    3    3    0    0 -0.20945295743E+00  0.21793044328E+01 -0.47455897537E+01  0.52262664229E+01  0.51100000000E-03 0. -1.
        -11    1    3    3    0    0 -0.49683055114E+01 -0.27473505645E+01  0.22349157496E+01  0.61013804543E+01  0.51100000000E-03 0.  1.
        -12    1    3    3    0    0 -0.23573336770E+02  0.56670182276E+01  0.30804505744E+02  0.39201210137E+02  0.00000000000E+00 0.  1.
</event>
<event>
 7    1  0.2575978E-011  0.5052886E+02  0.7816164E-02  0.1300439E+00
        -11   -1    0    0    0    0  0.00000000000E+00  0.00000000000E+00  0.45593999997E+02  0.45594000000E+02  0.51100000000E-03 0.  1.
         11   -1    0    0    0    0 -0.00000000000E+00 -0.00000000000E+00 -0.45593999997E+02  0.45594000000E+02  0.51100000000E-03 0. -1.
    9900012    2    1    2    0    0 -0.36154312433E+02 -0.16848867556E+02 -0.78833272910E+01  0.50528862102E+02  0.30000006845E+02 0.  0.
         12    1    1    2    0    0  0.36154312433E+02  0.16848867556E+02  0.78833272910E+01  0.40659137898E+02  0.00000000000E+00 0. -1.
         11    1    3    3    0    0 -0.85914453828E+01 -0.59297981760E+01 -0.42561590760E+01  0.11273434726E+02  0.51100000000E-03 0. -1.
        -11    1    3    3    0    0 -0.26747964850E+02 -0.17631942416E+02 -0.47943446626E+01  0.32393282606E+02  0.51100000000E-03 0.  1.
        -12    1    3    3    0    0 -0.81490220050E+00  0.67128730356E+01  0.11671764476E+01  0.68621447703E+01  0.00000000000E+00 0.  1.
</event>
<event>
 7    1  0.2575978E-011  0.5052887E+02  0.7816164E-02  0.1300439E+00
        -11   -1    0    0    0    0  0.00000000000E+00  0.00000000000E+00  0.45593999997E+02  0.45594000000E+02  0.51100000000E-03 0.  1.
         11   -1    0    0    0    0 -0.00000000000E+00 -0.00000000000E+00 -0.45593999997E+02  0.45594000000E+02  0.51100000000E-03 0. -1.
    9900012    2    1    2    0    0  0.33113611947E+02  0.22635439122E+02 -0.66551328267E+01  0.50528865807E+02  0.30000018106E+02 0.  0.
         12    1    1    2    0    0 -0.33113611947E+02 -0.22635439122E+02  0.66551328267E+01  0.40659134193E+02  0.00000000000E+00 0. -1.
         11    1    3    3    0    0  0.77990293205E+01  0.15758433517E+02 -0.10728792463E+02  0.20597574450E+02  0.51100000000E-03 0. -1.
        -11    1    3    3    0    0  0.37431855053E+01 -0.37298079182E+01  0.24888992924E+01  0.58410208682E+01  0.51100000000E-03 0.  1.
        -12    1    3    3    0    0  0.21571397121E+02  0.10606813524E+02  0.15847603438E+01  0.24090270489E+02  0.00000000000E+00 0.  1.
</event>
<event>
 7    1  0.2575978E-011  0.5052886E+02  0.7816164E-02  0.1300439E+00
        -11   -1    0    0    0    0  0.00000000000E+00  0.00000000000E+00  0.45593999997E+02  0.45594000000E+02  0.51100000000E-03 0.  1.
         11   -1    0    0    0    0 -0.00000000000E+00 -0.00000000000E+00 -0.45593999997E+02  0.45594000000E+02  0.51100000000E-03 0. -1.
    9900012    2    1    2    0    0 -0.27919781368E+02 -0.12395432566E+02  0.26832908037E+02  0.50528857192E+02  0.29999991921E+02 0.  0.
         12    1    1    2    0    0  0.27919781368E+02  0.12395432566E+02 -0.26832908037E+02  0.40659142808E+02  0.00000000000E+00 0. -1.
         11    1    3    3    0    0 -0.85505553446E+01  0.18918617694E+01  0.89718347929E+01  0.12537342520E+02  0.51100000000E-03 0. -1.
        -11    1    3    3    0    0 -0.23039624547E+02 -0.10231361208E+02  0.19937579939E+02  0.32140506305E+02  0.51100000000E-03 0.  1.
        -12    1    3    3    0    0  0.36703985232E+01 -0.40559331280E+01 -0.20765066954E+01  0.58510083672E+01  0.00000000000E+00 0.  1.
</event>
<event>
 7    1  0.2575978E-011  0.5052886E+02  0.7816164E-02  0.1300439E+00
        -11   -1    0    0    0    0  0.00000000000E+00  0.00000000000E+00  0.45593999997E+02  0.45594000000E+02  0.51100000000E-03 0.  1.
         11   -1    0    0    0    0 -0.00000000000E+00 -0.00000000000E+00 -0.45593999997E+02  0.45594000000E+02  0.51100000000E-03 0. -1.
    9900012    2    1    2    0    0 -0.15360652394E+02 -0.37217452251E+02 -0.56636706365E+01  0.50528861309E+02  0.30000004436E+02 0.  0.
         12    1    1    2    0    0  0.15360652394E+02  0.37217452251E+02  0.56636706365E+01  0.40659138691E+02  0.00000000000E+00 0. -1.
         11    1    3    3    0    0  0.38951204679E+01 -0.91766847817E+01 -0.20933118369E+01  0.10186533353E+02  0.51100000000E-03 0. -1.
        -11    1    3    3    0    0 -0.14070289372E+02 -0.28242384016E+02 -0.90199828625E+01  0.32817150837E+02  0.51100000000E-03 0.  1.
         12    1    3    3    0    0 -0.51854834897E+01  0.20161654751E+00  0.54496240628E+01  0.75251771195E+01  0.00000000000E+00 0. -1.
</event>
<event>
 7    1  0.2575978E-011  0.5052886E+02  0.7816164E-02  0.1300439E+00
        -11   -1    0    0    0    0  0.00000000000E+00  0.00000000000E+00  0.45593999997E+02  0.45594000000E+02  0.51100000000E-03 0.  1.
         11   -1    0    0    0    0 -0.00000000000E+00 -0.00000000000E+00 -0.45593999997E+02  0.45594000000E+02  0.51100000000E-03 0. -1.
    9900012    2    1    2    0    0 -0.37790614387E+02 -0.40582250301E+01  0.14441825842E+02  0.50528855151E+02  0.29999985718E+02 0.  0.
         12    1    1    2    0    0  0.37790614387E+02  0.40582250301E+01 -0.14441825842E+02  0.40659144849E+02  0.00000000000E+00 0. -1.
         11    1    3    3    0    0 -0.19539014638E+01 -0.62408116690E-01 -0.33944225005E+01  0.39171073608E+01  0.51100000000E-03 0. -1.
        -11    1    3    3    0    0 -0.17387598200E+02  0.63343238474E+01 -0.66279598682E+00  0.18517330492E+02  0.51100000000E-03 0.  1.
         12    1    3    3    0    0 -0.18449114723E+02 -0.10330140761E+02  0.18499044330E+02  0.28094417298E+02  0.00000000000E+00 0. -1.
</event>
<event>
 7    1  0.2575978E-011  0.5052887E+02  0.7816164E-02  0.1300439E+00
        -11   -1    0    0    0    0  0.00000000000E+00  0.00000000000E+00  0.45593999997E+02  0.45594000000E+02  0.51100000000E-03 0.  1.
         11   -1    0    0    0    0 -0.00000000000E+00 -0.00000000000E+00 -0.45593999997E+02  0.45594000000E+02  0.51100000000E-03 0. -1.
    9900012    2    1    2    0    0  0.24347747940E+02  0.32182062563E+02  0.49666120123E+01  0.50528865535E+02  0.30000017280E+02 0.  0.
         12    1    1    2    0    0 -0.24347747940E+02 -0.32182062563E+02 -0.49666120123E+01  0.40659134465E+02  0.00000000000E+00 0. -1.
         11    1    3    3    0    0  0.65496271854E+01  0.95567756761E+01 -0.45230888661E+01  0.12437359476E+02  0.51100000000E-03 0. -1.
        -11    1    3    3    0    0  0.16688713407E+02  0.25582975296E+02  0.27750088830E+01  0.30670873068E+02  0.51100000000E-03 0.  1.
        -12    1    3    3    0    0  0.11094073483E+01 -0.29576884094E+01  0.67146919954E+01  0.74206329908E+01  0.00000000000E+00 0.  1.
</event>
<event>
 7    1  0.2575978E-011  0.5052886E+02  0.7816164E-02  0.1300439E+00
        -11   -1    0    0    0    0  0.00000000000E+00  0.00000000000E+00  0.45593999997E+02  0.45594000000E+02  0.51100000000E-03 0.  1.
         11   -1    0    0    0    0 -0.00000000000E+00 -0.00000000000E+00 -0.45593999997E+02  0.45594000000E+02  0.51100000000E-03 0. -1.
    9900012    2    1    2    0    0 -0.32496884602E+02 -0.60836802059E+01  0.23666578775E+02  0.50528860503E+02  0.30000001985E+02 0.  0.
         12    1    1    2    0    0  0.32496884602E+02  0.60836802059E+01 -0.23666578775E+02  0.40659139497E+02  0.00000000000E+00 0. -1.
         11    1    3    3    0    0  0.26270400317E+01  0.16221691023E+01 -0.97927782480E-01  0.30890713874E+01  0.51100000000E-03 0. -1.
        -11    1    3    3    0    0  0.15883817535E+01 -0.10948370709E+00 -0.15352290537E+01  0.22117576235E+01  0.51100000000E-03 0.  1.
        -12    1    3    3    0    0 -0.36712306387E+02 -0.75963656010E+01  0.25299735612E+02  0.45228031492E+02  0.00000000000E+00 0.  1.
</event>
<event>
 7    1  0.2575978E-011  0.5052886E+02  0.7816164E-02  0.1300439E+00
        -11   -1    0    0    0    0  0.00000000000E+00  0.00000000000E+00  0.45593999997E+02  0.45594000000E+02  0.51100000000E-03 0. -1.
         11   -1    0    0    0    0 -0.00000000000E+00 -0.00000000000E+00 -0.45593999997E+02  0.45594000000E+02  0.51100000000E-03 0.  1.
    9900012    2    1    2    0    0 -0.88499143058E+01 -0.38904665920E+02 -0.78276380032E+01  0.50528856744E+02  0.29999990559E+02 0.  0.
         12    1    1    2    0    0  0.88499143058E+01  0.38904665920E+02  0.78276380032E+01  0.40659143256E+02  0.00000000000E+00 0. -1.
         11    1    3    3    0    0 -0.46388672687E+01 -0.10525006722E+02 -0.12001821091E+02  0.16623434236E+02  0.51100000000E-03 0.  1.
        -11    1    3    3    0    0  0.99389132559E+00  0.17602079588E+01  0.25804472234E+01  0.32779353501E+01  0.51100000000E-03 0. -1.
         12    1    3    3    0    0 -0.52049383627E+01 -0.30139867157E+02  0.15937358642E+01  0.30627487158E+02  0.00000000000E+00 0. -1.
</event>
<event>
 7    1  0.2575978E-011  0.5052886E+02  0.7816164E-02  0.1300439E+00
        -11   -1    0    0    0    0  0.00000000000E+00  0.00000000000E+00  0.45593999997E+02  0.45594000000E+02  0.51100000000E-03 0.  1.
         11   -1    0    0    0    0 -0.00000000000E+00 -0.00000000000E+00 -0.45593999997E+02  0.45594000000E+02  0.51100000000E-03 0. -1.
    9900012    2    1    2    0    0  0.39687807802E+02  0.35437649792E+00  0.88271245249E+01  0.50528858368E+02  0.29999995496E+02 0.  0.
         12    1    1    2    0    0 -0.39687807802E+02 -0.35437649792E+00 -0.88271245249E+01  0.40659141632E+02  0.00000000000E+00 0. -1.
         11    1    3    3    0    0  0.23576800717E+02 -0.61656569783E+01  0.32476818535E+01  0.24585123464E+02  0.51100000000E-03 0. -1.
        -11    1    3    3    0    0 -0.85334414416E+00 -0.37359121624E+01  0.47496403136E+01  0.61028124077E+01  0.51100000000E-03 0.  1.
         12    1    3    3    0    0  0.16964351229E+02  0.10255945639E+02  0.82980235778E+00  0.19840922497E+02  0.00000000000E+00 0. -1.
</event>
<event>
 7    1  0.2575978E-011  0.5052885E+02  0.7816164E-02  0.1300439E+00
        -11   -1    0    0    0    0  0.00000000000E+00  0.00000000000E+00  0.45593999997E+02  0.45594000000E+02  0.51100000000E-03 0. -1.
         11   -1    0    0    0    0 -0.00000000000E+00 -0.00000000000E+00 -0.45593999997E+02  0.45594000000E+02  0.51100000000E-03 0.  1.
    9900012    2    1    2    0    0 -0.24431891697E+02 -0.78254062432E+01 -0.31543818576E+02  0.50528845986E+02  0.29999957860E+02 0.  0.
         12    1    1    2    0    0  0.24431891697E+02  0.78254062432E+01  0.31543818576E+02  0.40659154014E+02  0.00000000000E+00 0. -1.
         11    1    3    3    0    0 -0.13866634906E+02  0.68369414573E+01 -0.12772787506E+02  0.20054212351E+02  0.51100000000E-03 0. -1.
        -11    1    3    3    0    0 -0.96386415952E+01 -0.41017699492E+00 -0.63775197485E+01  0.11564792059E+02  0.51100000000E-03 0.  1.
         12    1    3    3    0    0 -0.92661519607E+00 -0.14252170706E+02 -0.12393511321E+02  0.18909841576E+02  0.00000000000E+00 0. -1.
</event>
<event>
 7    1  0.2593054E-011  0.5052886E+02  0.7816164E-02  0.1300439E+00
        -11   -1    0    0    0    0  0.00000000000E+00  0.00000000000E+00  0.45593999997E+02  0.45594000000E+02  0.51100000000E-03 0. -1.
         11   -1    0    0    0    0 -0.00000000000E+00 -0.00000000000E+00 -0.45593999997E+02  0.45594000000E+02  0.51100000000E-03 0.  1.
    9900012    2    1    2    0    0  0.40570925490E+02 -0.36186996107E+00 -0.26522838284E+01  0.50528861366E+02  0.30000004607E+02 0.  0.
         12    1    1    2    0    0 -0.40570925490E+02  0.36186996107E+00  0.26522838284E+01  0.40659138634E+02  0.00000000000E+00 0. -1.
         11    1    3    3    0    0  0.17297130670E+01 -0.62471820536E+01  0.82742614833E+00  0.65348163858E+01  0.51100000000E-03 0. -1.
        -11    1    3    3    0    0  0.73801113350E+01  0.66171993274E+01  0.54105072358E+01  0.11292783495E+02  0.51100000000E-03 0.  1.
        -12    1    3    3    0    0  0.31461101088E+02 -0.73188723486E+00 -0.88902172125E+01  0.32701261485E+02  0.00000000000E+00 0.  1.
</event>
<event>
 7    1  0.2575978E-011  0.5052887E+02  0.7816164E-02  0.1300439E+00
        -11   -1    0    0    0    0  0.00000000000E+00  0.00000000000E+00  0.45593999997E+02  0.45594000000E+02  0.51100000000E-03 0.  1.
         11   -1    0    0    0    0 -0.00000000000E+00 -0.00000000000E+00 -0.45593999997E+02  0.45594000000E+02  0.51100000000E-03 0. -1.
    9900012    2    1    2    0    0  0.77096289189E+01 -0.19350490597E+02  0.34918265446E+02  0.50528866633E+02  0.30000020619E+02 0.  0.
         12    1    1    2    0    0 -0.77096289189E+01  0.19350490597E+02 -0.34918265446E+02  0.40659133367E+02  0.00000000000E+00 0. -1.
         11    1    3    3    0    0  0.52824807396E+01  0.24037365772E+01  0.13485428453E+02  0.14681257886E+02  0.51100000000E-03 0. -1.
        -11    1    3    3    0    0 -0.95673181725E+00  0.21847550931E+00  0.11425124801E+02  0.11467194264E+02  0.51100000000E-03 0.  1.
         12    1    3    3    0    0  0.33838799966E+01 -0.21972702683E+02  0.10007712192E+02  0.24380414483E+02  0.00000000000E+00 0. -1.
</event>
<event>
 7    1  0.2575978E-011  0.5052886E+02  0.7816164E-02  0.1300439E+00
        -11   -1    0    0    0    0  0.00000000000E+00  0.00000000000E+00  0.45593999997E+02  0.45594000000E+02  0.51100000000E-03 0.  1.
         11   -1    0    0    0    0 -0.00000000000E+00 -0.00000000000E+00 -0.45593999997E+02  0.45594000000E+02  0.51100000000E-03 0. -1.
    9900012    2    1    2    0    0  0.18862564591E+02 -0.26524252567E+02  0.24368692683E+02  0.50528862032E+02  0.30000006634E+02 0.  0.
         12    1    1    2    0    0 -0.18862564591E+02  0.26524252567E+02 -0.24368692683E+02  0.40659137968E+02  0.00000000000E+00 0. -1.
         11    1    3    3    0    0 -0.12697315888E+01 -0.18175972929E+02  0.46382913622E+01  0.18801381791E+02  0.51100000000E-03 0. -1.
        -11    1    3    3    0    0  0.19117895851E+01 -0.31768928669E-01 -0.15813481079E+01  0.24812518579E+01  0.51100000000E-03 0.  1.
        -12    1    3    3    0    0  0.18220506595E+02 -0.83165107089E+01  0.21311749429E+02  0.29246228383E+02  0.00000000000E+00 0.  1.
</event>
<event>
 7    1  0.2575978E-011  0.5052886E+02  0.7816164E-02  0.1300439E+00
        -11   -1    0    0    0    0  0.00000000000E+00  0.00000000000E+00  0.45593999997E+02  0.45594000000E+02  0.51100000000E-03 0.  1.
         11   -1    0    0    0    0 -0.00000000000E+00 -0.00000000000E+00 -0.45593999997E+02  0.45594000000E+02  0.51100000000E-03 0. -1.
    9900012    2    1    2    0    0  0.27876304399E+02 -0.41386355053E+01  0.29307825447E+02  0.50528864702E+02  0.30000014747E+02 0.  0.
         12    1    1    2    0    0 -0.27876304399E+02  0.41386355053E+01 -0.29307825447E+02  0.40659135298E+02  0.00000000000E+00 0. -1.
         11    1    3    3    0    0  0.91757811190E+01 -0.80026371306E+01  0.94958722217E+01  0.15440490591E+02  0.51100000000E-03 0. -1.
        -11    1    3    3    0    0  0.29512049016E+01 -0.71381944356E+01  0.33611946102E+00  0.77315203373E+01  0.51100000000E-03 0.  1.
        -12    1    3    3    0    0  0.15749318378E+02  0.11002196061E+02  0.19475833765E+02  0.27356853773E+02  0.00000000000E+00 0.  1.
</event>
<event>
 7    1  0.2575978E-011  0.5052886E+02  0.7816164E-02  0.1300439E+00
        -11   -1    0    0    0    0  0.00000000000E+00  0.00000000000E+00  0.45593999997E+02  0.45594000000E+02  0.51100000000E-03 0.  1.
         11   -1    0    0    0    0 -0.00000000000E+00 -0.00000000000E+00 -0.45593999997E+02  0.45594000000E+02  0.51100000000E-03 0. -1.
    9900012    2    1    2    0    0  0.18274315141E+02  0.35056353730E+02 -0.95009077275E+01  0.50528858612E+02  0.29999996237E+02 0.  0.
         12    1    1    2    0    0 -0.18274315141E+02 -0.35056353730E+02  0.95009077275E+01  0.40659141388E+02  0.00000000000E+00 0. -1.
         11    1    3    3    0    0  0.17048253901E+02  0.30456067570E+02 -0.73261290711E+01  0.35663527311E+02  0.51100000000E-03 0.  1.
        -11    1    3    3    0    0  0.31606051302E+01  0.76369405331E+01  0.27980380969E+01  0.87258984034E+01  0.51100000000E-03 0. -1.
         12    1    3    3    0    0 -0.19345438894E+01 -0.30366543723E+01 -0.49728167533E+01  0.61394328971E+01  0.00000000000E+00 0. -1.
</event>
<event>
 7    1  0.2575978E-011  0.5052887E+02  0.7816164E-02  0.1300439E+00
        -11   -1    0    0    0    0  0.00000000000E+00  0.00000000000E+00  0.45593999997E+02  0.45594000000E+02  0.51100000000E-03 0.  1.
         11   -1    0    0    0    0 -0.00000000000E+00 -0.00000000000E+00 -0.45593999997E+02  0.45594000000E+02  0.51100000000E-03 0. -1.
    9900012    2    1    2    0    0  0.18529135660E+02 -0.31433912635E+02  0.17937266329E+02  0.50528865046E+02  0.30000015793E+02 0.  0.
         12    1    1    2    0    0 -0.18529135660E+02  0.31433912635E+02 -0.17937266329E+02  0.40659134954E+02  0.00000000000E+00 0. -1.
         11    1    3    3    0    0  0.37611791170E+01 -0.71122966090E+01  0.12618195304E+02  0.14964961891E+02  0.51100000000E-03 0. -1.
        -11    1    3    3    0    0  0.53877672592E+01  0.22550837188E+01  0.44920115887E+01  0.73682838567E+01  0.51100000000E-03 0.  1.
         12    1    3    3    0    0  0.93801892839E+01 -0.26576699745E+02  0.82705943680E+00  0.28195619299E+02  0.00000000000E+00 0. -1.
</event>
<event>
 7    1  0.2575978E-011  0.5052885E+02  0.7816164E-02  0.1300439E+00
        -11   -1    0    0    0    0  0.00000000000E+00  0.00000000000E+00  0.45593999997E+02  0.45594000000E+02  0.51100000000E-03 0.  1.
         11   -1    0    0    0    0 -0.00000000000E+00 -0.00000000000E+00 -0.45593999997E+02  0.45594000000E+02  0.51100000000E-03 0. -1.
    9900012    2    1    2    0    0 -0.25739316842E+02 -0.12646674467E+02  0.28822132445E+02  0.50528854348E+02  0.29999983275E+02 0.  0.
         12    1    1    2    0    0  0.25739316842E+02  0.12646674467E+02 -0.28822132445E+02  0.40659145652E+02  0.00000000000E+00 0. -1.
         11    1    3    3    0    0 -0.32972990974E+01 -0.49204922069E+01  0.12871357271E+01  0.60613648246E+01  0.51100000000E-03 0. -1.
        -11    1    3    3    0    0 -0.26998913012E+02 -0.63137483368E+01  0.16065527103E+02  0.32045372259E+02  0.51100000000E-03 0.  1.
        -12    1    3    3    0    0  0.45568952678E+01 -0.14124339230E+01  0.11469469615E+02  0.12422117264E+02  0.00000000000E+00 0.  1.
</event>
<event>
 7    1  0.2575978E-011  0.5052886E+02  0.7816164E-02  0.1300439E+00
        -11   -1    0    0    0    0  0.00000000000E+00  0.00000000000E+00  0.45593999997E+02  0.45594000000E+02  0.51100000000E-03 0.  1.
         11   -1    0    0    0    0 -0.00000000000E+00 -0.00000000000E+00 -0.45593999997E+02  0.45594000000E+02  0.51100000000E-03 0. -1.
    9900012    2    1    2    0    0 -0.34149624436E+02  0.21868246443E+02 -0.29577441455E+01  0.50528864470E+02  0.30000014044E+02 0.  0.
         12    1    1    2    0    0  0.34149624436E+02 -0.21868246443E+02  0.29577441455E+01  0.40659135530E+02  0.00000000000E+00 0. -1.
         11    1    3    3    0    0 -0.88914165600E+00  0.21277389944E+01 -0.57400455893E+01  0.61859493807E+01  0.51100000000E-03 0. -1.
        -11    1    3    3    0    0 -0.25281970441E+01 -0.42750524230E+01  0.19367211341E+01  0.53309232339E+01  0.51100000000E-03 0.  1.
        -12    1    3    3    0    0 -0.30732285736E+02  0.24015559871E+02  0.84558030969E+00  0.39011991856E+02  0.00000000000E+00 0.  1.
</event>
<event>
 7    1  0.2575978E-011  0.5052886E+02  0.7816164E-02  0.1300439E+00
        -11   -1    0    0    0    0  0.00000000000E+00  0.00000000000E+00  0.45593999997E+02  0.45594000000E+02  0.51100000000E-03 0.  1.
         11   -1    0    0    0    0 -0.00000000000E+00 -0.00000000000E+00 -0.45593999997E+02  0.45594000000E+02  0.51100000000E-03 0. -1.
    9900012    2    1    2    0    0 -0.33864115501E+02  0.20022984327E+02 -0.10269716972E+02  0.50528864413E+02  0.30000013869E+02 0.  0.
         12    1    1    2    0    0  0.33864115501E+02 -0.20022984327E+02  0.10269716972E+02  0.40659135587E+02  0.00000000000E+00 0. -1.
         11    1    3    3    0    0 -0.17517111436E+01 -0.10776048593E+01 -0.26309410870E+01  0.33393974648E+01  0.51100000000E-03 0. -1.
        -11    1    3    3    0    0 -0.62969771600E+01  0.16154859468E+02 -0.11233786432E+02  0.20659849071E+02  0.51100000000E-03 0.  1.
         12    1    3    3    0    0 -0.25815427197E+02  0.49457297183E+01  0.35950105475E+01  0.26529617876E+02  0.00000000000E+00 0. -1.
</event>
<event>
 7    1  0.2575978E-011  0.5052887E+02  0.7816164E-02  0.1300439E+00
        -11   -1    0    0    0    0  0.00000000000E+00  0.00000000000E+00  0.45593999997E+02  0.45594000000E+02  0.51100000000E-03 0. -1.
         11   -1    0    0    0    0 -0.00000000000E+00 -0.00000000000E+00 -0.45593999997E+02  0.45594000000E+02  0.51100000000E-03 0.  1.
    9900012    2    1    2    0    0 -0.81009066693E+01  0.26053925533E+02 -0.30145205546E+02  0.50528866439E+02  0.30000020028E+02 0.  0.
         12    1    1    2    0    0  0.81009066693E+01 -0.26053925533E+02  0.30145205546E+02  0.40659133561E+02  0.00000000000E+00 0. -1.
         11    1    3    3    0    0  0.60897568569E+01  0.14992751527E+01 -0.13392644322E+01  0.64130019523E+01  0.51100000000E-03 0. -1.
        -11    1    3    3    0    0 -0.11418761050E+02  0.23679937938E+02 -0.15547670449E+02  0.30542717975E+02  0.51100000000E-03 0.  1.
         12    1    3    3    0    0 -0.27719024764E+01  0.87471244183E+00 -0.13258270665E+02  0.13573146511E+02  0.00000000000E+00 0. -1.
</event>
<event>
 7    1  0.2575978E-011  0.5052883E+02  0.7816164E-02  0.1300439E+00
        -11   -1    0    0    0    0  0.00000000000E+00  0.00000000000E+00  0.45593999997E+02  0.45594000000E+02  0.51100000000E-03 0.  1.
         11   -1    0    0    0    0 -0.00000000000E+00 -0.00000000000E+00 -0.45593999997E+02  0.45594000000E+02  0.51100000000E-03 0. -1.
    9900012    2    1    2    0    0 -0.18913630974E+02 -0.82278601375E+01  0.35039196061E+02  0.50528826624E+02  0.29999899005E+02 0.  0.
         12    1    1    2    0    0  0.18913630974E+02  0.82278601375E+01 -0.35039196061E+02  0.40659173376E+02  0.00000000000E+00 0. -1.
         11    1    3    3    0    0  0.37584363992E+01 -0.83890421904E+01  0.16132671275E+02  0.18567847365E+02  0.51100000000E-03 0. -1.
        -11    1    3    3    0    0 -0.54227660844E+01 -0.52934920259E+01  0.68944720693E+01  0.10245057111E+02  0.51100000000E-03 0.  1.
        -12    1    3    3    0    0 -0.17249301289E+02  0.54546740788E+01  0.12012052716E+02  0.21715922147E+02  0.00000000000E+00 0.  1.
</event>
<event>
 7    1  0.2575978E-011  0.5052886E+02  0.7816164E-02  0.1300439E+00
        -11   -1    0    0    0    0  0.00000000000E+00  0.00000000000E+00  0.45593999997E+02  0.45594000000E+02  0.51100000000E-03 0.  1.
         11   -1    0    0    0    0 -0.00000000000E+00 -0.00000000000E+00 -0.45593999997E+02  0.45594000000E+02  0.51100000000E-03 0. -1.
    9900012    2    1    2    0    0 -0.12794608873E+01 -0.43878536655E+01  0.40401429485E+02  0.50528858538E+02  0.29999996014E+02 0.  0.
         12    1    1    2    0    0  0.12794608873E+01  0.43878536655E+01 -0.40401429485E+02  0.40659141462E+02  0.00000000000E+00 0. -1.
         11    1    3    3    0    0  0.11770144316E+00  0.45137652534E+01  0.17317741952E+02  0.17896706875E+02  0.51100000000E-03 0.  1.
        -11    1    3    3    0    0 -0.19683843053E+01  0.56557596382E+01  0.14583378439E+02  0.15765058859E+02  0.51100000000E-03 0. -1.
        -12    1    3    3    0    0  0.57122197485E+00 -0.14557378557E+02  0.85003090943E+01  0.16867092805E+02  0.00000000000E+00 0.  1.
</event>
<event>
 7    1  0.2575978E-011  0.5052886E+02  0.7816164E-02  0.1300439E+00
        -11   -1    0    0    0    0  0.00000000000E+00  0.00000000000E+00  0.45593999997E+02  0.45594000000E+02  0.51100000000E-03 0.  1.
         11   -1    0    0    0    0 -0.00000000000E+00 -0.00000000000E+00 -0.45593999997E+02  0.45594000000E+02  0.51100000000E-03 0. -1.
    9900012    2    1    2    0    0  0.22020916145E+02 -0.33884869790E+02 -0.44788592859E+01  0.50528864137E+02  0.30000013032E+02 0.  0.
         12    1    1    2    0    0 -0.22020916145E+02  0.33884869790E+02  0.44788592859E+01  0.40659135863E+02  0.00000000000E+00 0. -1.
         11    1    3    3    0    0 -0.25292713701E+01  0.22173259106E+01 -0.13410710177E+01  0.36210798932E+01  0.51100000000E-03 0. -1.
        -11    1    3    3    0    0 -0.95333494664E+00  0.29097916908E+00 -0.22480468369E+01  0.24591118802E+01  0.51100000000E-03 0.  1.
        -12    1    3    3    0    0  0.25503522462E+02 -0.36393174870E+02 -0.88974143129E+00  0.44448672364E+02  0.00000000000E+00 0.  1.
</event>
<event>
 7    1  0.2575978E-011  0.5052886E+02  0.7816164E-02  0.1300439E+00
        -11   -1    0    0    0    0  0.00000000000E+00  0.00000000000E+00  0.45593999997E+02  0.45594000000E+02  0.51100000000E-03 0.  1.
         11   -1    0    0    0    0 -0.00000000000E+00 -0.00000000000E+00 -0.45593999997E+02  0.45594000000E+02  0.51100000000E-03 0. -1.
    9900012    2    1    2    0    0 -0.40422176493E+02 -0.41680994567E+00  0.43633960866E+01  0.50528864392E+02  0.30000013807E+02 0.  0.
         12    1    1    2    0    0  0.40422176493E+02  0.41680994567E+00 -0.43633960866E+01  0.40659135608E+02  0.00000000000E+00 0. -1.
         11    1    3    3    0    0 -0.83278197226E+01 -0.13087371328E+00  0.48545901280E+01  0.96403710942E+01  0.51100000000E-03 0. -1.
        -11    1    3    3    0    0 -0.53748587025E+01  0.24833045044E+01  0.10347475029E+02  0.11921667126E+02  0.51100000000E-03 0.  1.
        -12    1    3    3    0    0 -0.26719498068E+02 -0.27692407368E+01 -0.10838669070E+02  0.28966826172E+02  0.00000000000E+00 0.  1.
</event>
<event>
 7    1  0.2575978E-011  0.5052889E+02  0.7816164E-02  0.1300439E+00
        -11   -1    0    0    0    0  0.00000000000E+00  0.00000000000E+00  0.45593999997E+02  0.45594000000E+02  0.51100000000E-03 0. -1.
         11   -1    0    0    0    0 -0.00000000000E+00 -0.00000000000E+00 -0.45593999997E+02  0.45594000000E+02  0.51100000000E-03 0.  1.
    9900012    2    1    2    0    0  0.25201223898E+02 -0.31144079541E+02  0.69359696344E+01  0.50528892150E+02  0.30000098179E+02 0.  0.
         12    1    1    2    0    0 -0.25201223898E+02  0.31144079541E+02 -0.69359696344E+01  0.40659107850E+02  0.00000000000E+00 0. -1.
         11    1    3    3    0    0  0.12804881786E+01 -0.55927491497E+01  0.10958192871E+02  0.12369336453E+02  0.51100000000E-03 0. -1.
        -11    1    3    3    0    0  0.19980865005E+01 -0.10385179332E+02 -0.45114339714E+01  0.11497710040E+02  0.51100000000E-03 0.  1.
         12    1    3    3    0    0  0.21922649219E+02 -0.15166151058E+02  0.48921073528E+00  0.26661845657E+02  0.00000000000E+00 0. -1.
</event>
<event>
 7    1  0.2575978E-011  0.5052885E+02  0.7816164E-02  0.1300439E+00
        -11   -1    0    0    0    0  0.00000000000E+00  0.00000000000E+00  0.45593999997E+02  0.45594000000E+02  0.51100000000E-03 0. -1.
         11   -1    0    0    0    0 -0.00000000000E+00 -0.00000000000E+00 -0.45593999997E+02  0.45594000000E+02  0.51100000000E-03 0.  1.
    9900012    2    1    2    0    0  0.24849640675E+02 -0.31301078180E+02 -0.74769067730E+01  0.50528852545E+02  0.29999977794E+02 0.  0.
         12    1    1    2    0    0 -0.24849640675E+02  0.31301078180E+02  0.74769067730E+01  0.40659147455E+02  0.00000000000E+00 0. -1.
         11    1    3    3    0    0 -0.54712087245E+01 -0.43067089212E+01  0.25106525386E+01  0.74017054163E+01  0.51100000000E-03 0. -1.
        -11    1    3    3    0    0  0.22422947320E+01 -0.29699611155E+01  0.20671244105E+01  0.42569423631E+01  0.51100000000E-03 0.  1.
         12    1    3    3    0    0  0.28078554667E+02 -0.24024408143E+02 -0.12054683722E+02  0.38870204765E+02  0.00000000000E+00 0. -1.
</event>
<event>
 7    1  0.2575978E-011  0.5052885E+02  0.7816164E-02  0.1300439E+00
        -11   -1    0    0    0    0  0.00000000000E+00  0.00000000000E+00  0.45593999997E+02  0.45594000000E+02  0.51100000000E-03 0.  1.
         11   -1    0    0    0    0 -0.00000000000E+00 -0.00000000000E+00 -0.45593999997E+02  0.45594000000E+02  0.51100000000E-03 0. -1.
    9900012    2    1    2    0    0 -0.90818108366E+01 -0.99970622139E+01  0.38350308397E+02  0.50528847339E+02  0.29999961972E+02 0.  0.
         12    1    1    2    0    0  0.90818108366E+01  0.99970622139E+01 -0.38350308397E+02  0.40659152661E+02  0.00000000000E+00 0. -1.
         11    1    3    3    0    0  0.64995421928E+01 -0.38003709346E+01  0.51517871987E+01  0.91229260415E+01  0.51100000000E-03 0. -1.
        -11    1    3    3    0    0 -0.11696258606E+02 -0.93093441772E+01  0.10751779352E+02  0.18413775112E+02  0.51100000000E-03 0.  1.
        -12    1    3    3    0    0 -0.38850944239E+01  0.31126528979E+01  0.22446741845E+02  0.22992146186E+02  0.00000000000E+00 0.  1.
</event>
<event>
 7    1  0.2575978E-011  0.5052886E+02  0.7816164E-02  0.1300439E+00
        -11   -1    0    0    0    0  0.00000000000E+00  0.00000000000E+00  0.45593999997E+02  0.45594000000E+02  0.51100000000E-03 0.  1.
         11   -1    0    0    0    0 -0.00000000000E+00 -0.00000000000E+00 -0.45593999997E+02  0.45594000000E+02  0.51100000000E-03 0. -1.
    9900012    2    1    2    0    0  0.18403863865E+02  0.36187749149E+02 -0.22159009117E+01  0.50528860677E+02  0.30000002514E+02 0.  0.
         12    1    1    2    0    0 -0.18403863865E+02 -0.36187749149E+02  0.22159009117E+01  0.40659139323E+02  0.00000000000E+00 0. -1.
         11    1    3    3    0    0  0.37961253555E+01  0.59084527977E+01 -0.76513863490E+01  0.10385764079E+02  0.51100000000E-03 0. -1.
        -11    1    3    3    0    0 -0.34436417511E+01  0.16555891864E+01 -0.34582576305E+01  0.51535609208E+01  0.51100000000E-03 0.  1.
         12    1    3    3    0    0  0.18051380261E+02  0.28623707165E+02  0.88937430678E+01  0.34989535678E+02  0.00000000000E+00 0. -1.
</event>
<event>
 7    1  0.2575978E-011  0.5052887E+02  0.7816164E-02  0.1300439E+00
        -11   -1    0    0    0    0  0.00000000000E+00  0.00000000000E+00  0.45593999997E+02  0.45594000000E+02  0.51100000000E-03 0.  1.
         11   -1    0    0    0    0 -0.00000000000E+00 -0.00000000000E+00 -0.45593999997E+02  0.45594000000E+02  0.51100000000E-03 0. -1.
    9900012    2    1    2    0    0 -0.23462111971E+01  0.39889641276E+02 -0.75151047752E+01  0.50528868333E+02  0.30000025786E+02 0.  0.
         12    1    1    2    0    0  0.23462111971E+01 -0.39889641276E+02  0.75151047752E+01  0.40659131667E+02  0.00000000000E+00 0. -1.
         11    1    3    3    0    0 -0.14675771208E+01  0.81542013402E+01  0.57650889469E+01  0.10093613472E+02  0.51100000000E-03 0. -1.
        -11    1    3    3    0    0  0.44038129468E+01  0.13108654354E+02  0.40934060998E+01  0.14421732254E+02  0.51100000000E-03 0.  1.
         12    1    3    3    0    0 -0.52824470231E+01  0.18626785582E+02 -0.17373599822E+02  0.26013522607E+02  0.00000000000E+00 0. -1.
</event>
<event>
 7    1  0.2575978E-011  0.5052885E+02  0.7816164E-02  0.1300439E+00
        -11   -1    0    0    0    0  0.00000000000E+00  0.00000000000E+00  0.45593999997E+02  0.45594000000E+02  0.51100000000E-03 0.  1.
         11   -1    0    0    0    0 -0.00000000000E+00 -0.00000000000E+00 -0.45593999997E+02  0.45594000000E+02  0.51100000000E-03 0. -1.
    9900012    2    1    2    0    0  0.27106899121E+02  0.23107498298E+02  0.19606775079E+02  0.50528854823E+02  0.29999984720E+02 0.  0.
         12    1    1    2    0    0 -0.27106899121E+02 -0.23107498298E+02 -0.19606775079E+02  0.40659145177E+02  0.00000000000E+00 0. -1.
         11    1    3    3    0    0  0.57386250915E+01 -0.29714124026E+01  0.57247552892E+00  0.64875910860E+01  0.51100000000E-03 0. -1.
        -11    1    3    3    0    0  0.54622778403E+01  0.67423283399E+00  0.12075752135E+02  0.13270827367E+02  0.51100000000E-03 0.  1.
         12    1    3    3    0    0  0.15905996189E+02  0.25404677867E+02  0.69585474151E+01  0.30770436370E+02  0.00000000000E+00 0. -1.
</event>
<event>
 7    1  0.2575978E-011  0.5052887E+02  0.7816164E-02  0.1300439E+00
        -11   -1    0    0    0    0  0.00000000000E+00  0.00000000000E+00  0.45593999997E+02  0.45594000000E+02  0.51100000000E-03 0. -1.
         11   -1    0    0    0    0 -0.00000000000E+00 -0.00000000000E+00 -0.45593999997E+02  0.45594000000E+02  0.51100000000E-03 0.  1.
    9900012    2    1    2    0    0 -0.19780195044E+02  0.34433276725E+02  0.87326076732E+01  0.50528866970E+02  0.30000021642E+02 0.  0.
         12    1    1    2    0    0  0.19780195044E+02 -0.34433276725E+02 -0.87326076732E+01  0.40659133030E+02  0.00000000000E+00 0. -1.
         11    1    3    3    0    0 -0.78205492405E+01  0.33594791856E+01 -0.43065405615E+01  0.95390451666E+01  0.51100000000E-03 0.  1.
        -11    1    3    3    0    0  0.47853178722E+01  0.32580802035E+01  0.47315994678E+01  0.74767899218E+01  0.51100000000E-03 0. -1.
         12    1    3    3    0    0 -0.16744963676E+02  0.27815717335E+02  0.83075487668E+01  0.33513031882E+02  0.00000000000E+00 0. -1.
</event>
<event>
 7    1  0.2575978E-011  0.5052886E+02  0.7816164E-02  0.1300439E+00
        -11   -1    0    0    0    0  0.00000000000E+00  0.00000000000E+00  0.45593999997E+02  0.45594000000E+02  0.51100000000E-03 0. -1.
         11   -1    0    0    0    0 -0.00000000000E+00 -0.00000000000E+00 -0.45593999997E+02  0.45594000000E+02  0.51100000000E-03 0.  1.
    9900012    2    1    2    0    0  0.34707764117E+02  0.21099050351E+02 -0.18348597815E+01  0.50528861714E+02  0.30000005666E+02 0.  0.
         12    1    1    2    0    0 -0.34707764117E+02 -0.21099050351E+02  0.18348597815E+01  0.40659138286E+02  0.00000000000E+00 0. -1.
         11    1    3    3    0    0  0.86947874746E+00  0.43697499690E+01  0.44483471089E+01  0.62959113992E+01  0.51100000000E-03 0. -1.
        -11    1    3    3    0    0  0.49471090577E+01  0.10725438899E+01  0.71264904892E+01  0.87413445978E+01  0.51100000000E-03 0.  1.
        -12    1    3    3    0    0  0.28891176312E+02  0.15656756492E+02 -0.13409697380E+02  0.35491605717E+02  0.00000000000E+00 0.  1.
</event>
<event>
 7    1  0.2575978E-011  0.5052887E+02  0.7816164E-02  0.1300439E+00
        -11   -1    0    0    0    0  0.00000000000E+00  0.00000000000E+00  0.45593999997E+02  0.45594000000E+02  0.51100000000E-03 0.  1.
         11   -1    0    0    0    0 -0.00000000000E+00 -0.00000000000E+00 -0.45593999997E+02  0.45594000000E+02  0.51100000000E-03 0. -1.
    9900012    2    1    2    0    0  0.79460075525E+01  0.96628030188E+00  0.39863422125E+02  0.50528866252E+02  0.30000019458E+02 0.  0.
         12    1    1    2    0    0 -0.79460075525E+01 -0.96628030188E+00 -0.39863422125E+02  0.40659133748E+02  0.00000000000E+00 0. -1.
         11    1    3    3    0    0 -0.39519153825E+00 -0.77646355307E+01  0.14133233774E+02  0.16130531251E+02  0.51100000000E-03 0.  1.
        -11    1    3    3    0    0 -0.55917239034E+01 -0.10087983973E+01  0.82280567170E+01  0.99992983763E+01  0.51100000000E-03 0. -1.
         12    1    3    3    0    0  0.13932922994E+02  0.97397142299E+01  0.17502131634E+02  0.24399036624E+02  0.00000000000E+00 0. -1.
</event>
<event>
 7    1  0.2575978E-011  0.5052887E+02  0.7816164E-02  0.1300439E+00
        -11   -1    0    0    0    0  0.00000000000E+00  0.00000000000E+00  0.45593999997E+02  0.45594000000E+02  0.51100000000E-03 0.  1.
         11   -1    0    0    0    0 -0.00000000000E+00 -0.00000000000E+00 -0.45593999997E+02  0.45594000000E+02  0.51100000000E-03 0. -1.
    9900012    2    1    2    0    0  0.85996702577E+01 -0.42399500678E+01  0.39512448351E+02  0.50528867203E+02  0.30000022350E+02 0.  0.
         12    1    1    2    0    0 -0.85996702577E+01  0.42399500678E+01 -0.39512448351E+02  0.40659132797E+02  0.00000000000E+00 0. -1.
         11    1    3    3    0    0  0.28530513996E+01  0.28042657399E+01  0.56191298412E+01  0.68977118715E+01  0.51100000000E-03 0. -1.
        -11    1    3    3    0    0  0.14550126792E+02  0.12284388231E+01  0.13274102900E+02  0.19733652973E+02  0.51100000000E-03 0.  1.
         12    1    3    3    0    0 -0.88035079342E+01 -0.82726546308E+01  0.20619215610E+02  0.23897502358E+02  0.00000000000E+00 0. -1.
</event>
<event>
 7    1  0.2575978E-011  0.5052886E+02  0.7816164E-02  0.1300439E+00
        -11   -1    0    0    0    0  0.00000000000E+00  0.00000000000E+00  0.45593999997E+02  0.45594000000E+02  0.51100000000E-03 0. -1.
         11   -1    0    0    0    0 -0.00000000000E+00 -0.00000000000E+00 -0.45593999997E+02  0.45594000000E+02  0.51100000000E-03 0.  1.
    9900012    2    1    2    0    0 -0.24296993880E+02 -0.24016185476E+02 -0.22046424352E+02  0.50528857078E+02  0.29999991575E+02 0.  0.
         12    1    1    2    0    0  0.24296993880E+02  0.24016185476E+02  0.22046424352E+02  0.40659142922E+02  0.00000000000E+00 0. -1.
         11    1    3    3    0    0 -0.14282720237E+00 -0.10062745407E+02 -0.16664054144E+01  0.10200791734E+02  0.51100000000E-03 0. -1.
        -11    1    3    3    0    0 -0.75312008624E+01 -0.15233725712E+02 -0.15385674347E+02  0.22923881889E+02  0.51100000000E-03 0.  1.
         12    1    3    3    0    0 -0.16622965816E+02  0.12802856431E+01 -0.49943445901E+01  0.17404183455E+02  0.00000000000E+00 0. -1.
</event>
<event>
 7    1  0.2575978E-011  0.5052887E+02  0.7816164E-02  0.1300439E+00
        -11   -1    0    0    0    0  0.00000000000E+00  0.00000000000E+00  0.45593999997E+02  0.45594000000E+02  0.51100000000E-03 0.  1.
         11   -1    0    0    0    0 -0.00000000000E+00 -0.00000000000E+00 -0.45593999997E+02  0.45594000000E+02  0.51100000000E-03 0. -1.
    9900012    2    1    2    0    0 -0.27315068985E+01 -0.22033758111E+02  0.34061967423E+02  0.50528865096E+02  0.30000015946E+02 0.  0.
         12    1    1    2    0    0  0.27315068985E+01  0.22033758111E+02 -0.34061967423E+02  0.40659134904E+02  0.00000000000E+00 0. -1.
         11    1    3    3    0    0  0.18988312176E+00  0.31556535967E+01  0.63019173574E+01  0.70504161482E+01  0.51100000000E-03 0. -1.
        -11    1    3    3    0    0  0.89255746102E+01 -0.11873951627E+02  0.17341657845E+02  0.22833959499E+02  0.51100000000E-03 0.  1.
        -12    1    3    3    0    0 -0.11846964630E+02 -0.13315460081E+02  0.10418392221E+02  0.20644489449E+02  0.00000000000E+00 0.  1.
</event>
<event>
 7    1  0.2575978E-011  0.5052886E+02  0.7816164E-02  0.1300439E+00
        -11   -1    0    0    0    0  0.00000000000E+00  0.00000000000E+00  0.45593999997E+02  0.45594000000E+02  0.51100000000E-03 0. -1.
         11   -1    0    0    0    0 -0.00000000000E+00 -0.00000000000E+00 -0.45593999997E+02  0.45594000000E+02  0.51100000000E-03 0.  1.
    9900012    2    1    2    0    0  0.20468494353E+02 -0.32912886317E+02 -0.12286102877E+02  0.50528859937E+02  0.30000000264E+02 0.  0.
         12    1    1    2    0    0 -0.20468494353E+02  0.32912886317E+02  0.12286102877E+02  0.40659140063E+02  0.00000000000E+00 0. -1.
         11    1    3    3    0    0 -0.24990498449E+01 -0.85190121852E+01 -0.57990330979E+01  0.10604131453E+02  0.51100000000E-03 0. -1.
        -11    1    3    3    0    0  0.14786474576E+02 -0.20720034979E+02 -0.13245644768E+02  0.28695065525E+02  0.51100000000E-03 0.  1.
        -12    1    3    3    0    0  0.81810696221E+01 -0.36738391527E+01  0.67585749890E+01  0.11229662959E+02  0.00000000000E+00 0.  1.
</event>
<event>
 7    1  0.2575978E-011  0.5052886E+02  0.7816164E-02  0.1300439E+00
        -11   -1    0    0    0    0  0.00000000000E+00  0.00000000000E+00  0.45593999997E+02  0.45594000000E+02  0.51100000000E-03 0. -1.
         11   -1    0    0    0    0 -0.00000000000E+00 -0.00000000000E+00 -0.45593999997E+02  0.45594000000E+02  0.51100000000E-03 0.  1.
    9900012    2    1    2    0    0  0.32348324444E+02 -0.22406284993E+01 -0.24530206142E+02  0.50528861743E+02  0.30000005756E+02 0.  0.
         12    1    1    2    0    0 -0.32348324444E+02  0.22406284993E+01  0.24530206142E+02  0.40659138257E+02  0.00000000000E+00 0. -1.
         11    1    3    3    0    0  0.13366738430E+02  0.16781725971E+00 -0.23553867666E+01  0.13573713787E+02  0.51100000000E-03 0. -1.
        -11    1    3    3    0    0  0.20942158678E+02 -0.53782757573E+01 -0.24521406741E+02  0.32692495302E+02  0.51100000000E-03 0.  1.
         12    1    3    3    0    0 -0.19605726637E+01  0.29698299983E+01  0.23465873665E+01  0.42626526550E+01  0.00000000000E+00 0. -1.
</event>
<event>
 7    1  0.2575978E-011  0.5052886E+02  0.7816164E-02  0.1300439E+00
        -11   -1    0    0    0    0  0.00000000000E+00  0.00000000000E+00  0.45593999997E+02  0.45594000000E+02  0.51100000000E-03 0.  1.
         11   -1    0    0    0    0 -0.00000000000E+00 -0.00000000000E+00 -0.45593999997E+02  0.45594000000E+02  0.51100000000E-03 0. -1.
    9900012    2    1    2    0    0  0.27927991895E+02  0.13190082263E+02  0.26442660441E+02  0.50528864587E+02  0.30000014398E+02 0.  0.
         12    1    1    2    0    0 -0.27927991895E+02 -0.13190082263E+02 -0.26442660441E+02  0.40659135413E+02  0.00000000000E+00 0. -1.
         11    1    3    3    0    0  0.72621422124E+01  0.23509889398E+01  0.73501646421E+01  0.10596734357E+02  0.51100000000E-03 0. -1.
        -11    1    3    3    0    0  0.25898646199E+02  0.87608382256E+01  0.20447756267E+02  0.34140927023E+02  0.51100000000E-03 0.  1.
         12    1    3    3    0    0 -0.52327965172E+01  0.20782550974E+01 -0.13552604689E+01  0.57912032064E+01  0.00000000000E+00 0. -1.
</event>
<event>
 7    1  0.2575978E-011  0.5052887E+02  0.7816164E-02  0.1300439E+00
        -11   -1    0    0    0    0  0.00000000000E+00  0.00000000000E+00  0.45593999997E+02  0.45594000000E+02  0.51100000000E-03 0. -1.
         11   -1    0    0    0    0 -0.00000000000E+00 -0.00000000000E+00 -0.45593999997E+02  0.45594000000E+02  0.51100000000E-03 0.  1.
    9900012    2    1    2    0    0  0.85304911300E+01  0.23209871671E+02 -0.32275338431E+02  0.50528869503E+02  0.30000029342E+02 0.  0.
         12    1    1    2    0    0 -0.85304911300E+01 -0.23209871671E+02  0.32275338431E+02  0.40659130497E+02  0.00000000000E+00 0. -1.
         11    1    3    3    0    0  0.12166935151E+01  0.46522473809E+01 -0.18567365401E+02  0.19179958472E+02  0.51100000000E-03 0. -1.
        -11    1    3    3    0    0  0.11183613543E+02  0.16630035147E+02 -0.16703653135E+02  0.26089141595E+02  0.51100000000E-03 0.  1.
         12    1    3    3    0    0 -0.38698159282E+01  0.19275891435E+01  0.29956801051E+01  0.52597694357E+01  0.00000000000E+00 0. -1.
</event>
<event>
 7    1  0.2575978E-011  0.5052886E+02  0.7816164E-02  0.1300439E+00
        -11   -1    0    0    0    0  0.00000000000E+00  0.00000000000E+00  0.45593999997E+02  0.45594000000E+02  0.51100000000E-03 0.  1.
         11   -1    0    0    0    0 -0.00000000000E+00 -0.00000000000E+00 -0.45593999997E+02  0.45594000000E+02  0.51100000000E-03 0. -1.
    9900012    2    1    2    0    0 -0.17201041813E+01  0.13954041777E+01  0.40598764326E+02  0.50528861101E+02  0.30000003804E+02 0.  0.
         12    1    1    2    0    0  0.17201041813E+01 -0.13954041777E+01 -0.40598764326E+02  0.40659138899E+02  0.00000000000E+00 0. -1.
         11    1    3    3    0    0  0.24762529435E+01 -0.21039126420E+00  0.24210211293E+01  0.34695009286E+01  0.51100000000E-03 0. -1.
        -11    1    3    3    0    0  0.11607424597E+02 -0.12527670412E+00  0.16674192939E+02  0.20316907010E+02  0.51100000000E-03 0.  1.
         12    1    3    3    0    0 -0.15803781722E+02  0.17310721460E+01  0.21503550258E+02  0.26742453163E+02  0.00000000000E+00 0. -1.
</event>
<event>
 7    1  0.2575978E-011  0.5052884E+02  0.7816164E-02  0.1300439E+00
        -11   -1    0    0    0    0  0.00000000000E+00  0.00000000000E+00  0.45593999997E+02  0.45594000000E+02  0.51100000000E-03 0. -1.
         11   -1    0    0    0    0 -0.00000000000E+00 -0.00000000000E+00 -0.45593999997E+02  0.45594000000E+02  0.51100000000E-03 0.  1.
    9900012    2    1    2    0    0  0.19115287146E+02 -0.14141402930E+02 -0.32981723978E+02  0.50528836260E+02  0.29999928295E+02 0.  0.
         12    1    1    2    0    0 -0.19115287146E+02  0.14141402930E+02  0.32981723978E+02  0.40659163740E+02  0.00000000000E+00 0. -1.
         11    1    3    3    0    0 -0.12615748903E+00  0.62758412526E-01  0.11555429469E+01  0.11641022694E+01  0.51100000000E-03 0. -1.
        -11    1    3    3    0    0  0.20474942962E+02 -0.43093856723E+00 -0.13521089250E+02  0.24540351508E+02  0.51100000000E-03 0.  1.
         12    1    3    3    0    0 -0.12334983267E+01 -0.13773222775E+02 -0.20616177675E+02  0.24824382483E+02  0.00000000000E+00 0. -1.
</event>
<event>
 7    1  0.2575978E-011  0.5052884E+02  0.7816164E-02  0.1300439E+00
        -11   -1    0    0    0    0  0.00000000000E+00  0.00000000000E+00  0.45593999997E+02  0.45594000000E+02  0.51100000000E-03 0.  1.
         11   -1    0    0    0    0 -0.00000000000E+00 -0.00000000000E+00 -0.45593999997E+02  0.45594000000E+02  0.51100000000E-03 0. -1.
    9900012    2    1    2    0    0  0.33955767395E+02 -0.82642186519E+01  0.20781630556E+02  0.50528835992E+02  0.29999927481E+02 0.  0.
         12    1    1    2    0    0 -0.33955767395E+02  0.82642186519E+01 -0.20781630556E+02  0.40659164008E+02  0.00000000000E+00 0. -1.
         11    1    3    3    0    0  0.27283859243E+02 -0.23897639054E+01  0.55864593050E+01  0.27952253479E+02  0.51100000000E-03 0. -1.
        -11    1    3    3    0    0 -0.71404366603E+00 -0.72852054898E+01  0.23423790938E+01  0.76857541898E+01  0.51100000000E-03 0.  1.
        -12    1    3    3    0    0  0.73859518171E+01  0.14107507432E+01  0.12852792157E+02  0.14890828323E+02  0.00000000000E+00 0.  1.
</event>
<event>
 7    1  0.2575978E-011  0.5052887E+02  0.7816164E-02  0.1300439E+00
        -11   -1    0    0    0    0  0.00000000000E+00  0.00000000000E+00  0.45593999997E+02  0.45594000000E+02  0.51100000000E-03 0.  1.
         11   -1    0    0    0    0 -0.00000000000E+00 -0.00000000000E+00 -0.45593999997E+02  0.45594000000E+02  0.51100000000E-03 0. -1.
    9900012    2    1    2    0    0  0.60005125975E+01 -0.39742013258E+02  0.61425769062E+01  0.50528867935E+02  0.30000024574E+02 0.  0.
         12    1    1    2    0    0 -0.60005125975E+01  0.39742013258E+02 -0.61425769062E+01  0.40659132065E+02  0.00000000000E+00 0. -1.
         11    1    3    3    0    0 -0.65811783385E+01 -0.19907086768E+02  0.36695870250E+01  0.21285438241E+02  0.51100000000E-03 0. -1.
        -11    1    3    3    0    0  0.25152359432E+01 -0.18710296628E+02  0.28513331235E+00  0.18880755096E+02  0.51100000000E-03 0.  1.
         12    1    3    3    0    0  0.10066454993E+02 -0.11246298630E+01  0.21878565689E+01  0.10362674598E+02  0.00000000000E+00 0. -1.
</event>
<event>
 7    1  0.2575978E-011  0.5052886E+02  0.7816164E-02  0.1300439E+00
        -11   -1    0    0    0    0  0.00000000000E+00  0.00000000000E+00  0.45593999997E+02  0.45594000000E+02  0.51100000000E-03 0.  1.
         11   -1    0    0    0    0 -0.00000000000E+00 -0.00000000000E+00 -0.45593999997E+02  0.45594000000E+02  0.51100000000E-03 0. -1.
    9900012    2    1    2    0    0  0.28881122206E+02 -0.28367447658E+02  0.37860543911E+01  0.50528861859E+02  0.30000006107E+02 0.  0.
         12    1    1    2    0    0 -0.28881122206E+02  0.28367447658E+02 -0.37860543911E+01  0.40659138141E+02  0.00000000000E+00 0. -1.
         11    1    3    3    0    0  0.40508069466E+01 -0.37992511366E-02  0.12753480795E+01  0.42468299163E+01  0.51100000000E-03 0. -1.
        -11    1    3    3    0    0  0.16836398653E+02 -0.15177681573E+02  0.14361522550E+02  0.26834300210E+02  0.51100000000E-03 0.  1.
        -12    1    3    3    0    0  0.79939166060E+01 -0.13185966834E+02 -0.11850816238E+02  0.19447731733E+02  0.00000000000E+00 0.  1.
</event>
<event>
 7    1  0.2575978E-011  0.5052881E+02  0.7816164E-02  0.1300439E+00
        -11   -1    0    0    0    0  0.00000000000E+00  0.00000000000E+00  0.45593999997E+02  0.45594000000E+02  0.51100000000E-03 0.  1.
         11   -1    0    0    0    0 -0.00000000000E+00 -0.00000000000E+00 -0.45593999997E+02  0.45594000000E+02  0.51100000000E-03 0. -1.
    9900012    2    1    2    0    0 -0.22569208982E+02  0.33353048872E+02  0.56013121819E+01  0.50528809633E+02  0.29999847360E+02 0.  0.
         12    1    1    2    0    0  0.22569208982E+02 -0.33353048872E+02 -0.56013121819E+01  0.40659190367E+02  0.00000000000E+00 0. -1.
         11    1    3    3    0    0 -0.10414755167E+02  0.26233967259E+02 -0.61256077727E+01  0.28882715146E+02  0.51100000000E-03 0. -1.
        -11    1    3    3    0    0  0.21925002463E+01  0.19304674472E+01  0.22324323401E+01  0.36766175092E+01  0.51100000000E-03 0.  1.
        -12    1    3    3    0    0 -0.14346954061E+02  0.51886141657E+01  0.94944876145E+01  0.17969476978E+02  0.00000000000E+00 0.  1.
</event>
<event>
 7    1  0.2575978E-011  0.5052885E+02  0.7816164E-02  0.1300439E+00
        -11   -1    0    0    0    0  0.00000000000E+00  0.00000000000E+00  0.45593999997E+02  0.45594000000E+02  0.51100000000E-03 0.  1.
         11   -1    0    0    0    0 -0.00000000000E+00 -0.00000000000E+00 -0.45593999997E+02  0.45594000000E+02  0.51100000000E-03 0. -1.
    9900012    2    1    2    0    0  0.12713159430E+02 -0.15131304312E+02  0.35532876913E+02  0.50528854232E+02  0.29999982925E+02 0.  0.
         12    1    1    2    0    0 -0.12713159430E+02  0.15131304312E+02 -0.35532876913E+02  0.40659145768E+02  0.00000000000E+00 0. -1.
         11    1    3    3    0    0 -0.31945831192E+00  0.20896396057E+00  0.18550499107E+02  0.18554426343E+02  0.51100000000E-03 0. -1.
        -11    1    3    3    0    0  0.94484657887E+01 -0.13038069975E+02  0.20765775729E+02  0.26277028301E+02  0.51100000000E-03 0.  1.
        -12    1    3    3    0    0  0.35841519531E+01 -0.23021982970E+01 -0.37833979233E+01  0.56973995882E+01  0.00000000000E+00 0.  1.
</event>
<event>
 7    1  0.2575978E-011  0.5052887E+02  0.7816164E-02  0.1300439E+00
        -11   -1    0    0    0    0  0.00000000000E+00  0.00000000000E+00  0.45593999997E+02  0.45594000000E+02  0.51100000000E-03 0.  1.
         11   -1    0    0    0    0 -0.00000000000E+00 -0.00000000000E+00 -0.45593999997E+02  0.45594000000E+02  0.51100000000E-03 0. -1.
    9900012    2    1    2    0    0 -0.34221650188E+02 -0.19571121753E+02  0.99506254588E+01  0.50528867013E+02  0.30000021772E+02 0.  0.
         12    1    1    2    0    0  0.34221650188E+02  0.19571121753E+02 -0.99506254588E+01  0.40659132987E+02  0.00000000000E+00 0. -1.
         11    1    3    3    0    0 -0.67828022611E+01  0.12975145000E+00 -0.56510757778E+01  0.88293770822E+01  0.51100000000E-03 0. -1.
        -11    1    3    3    0    0 -0.21090245386E+02 -0.37617275463E+01  0.72402221376E+01  0.22613488484E+02  0.51100000000E-03 0.  1.
        -12    1    3    3    0    0 -0.63486025413E+01 -0.15939145657E+02  0.83614790990E+01  0.19086001446E+02  0.00000000000E+00 0.  1.
</event>
<event>
 7    1  0.2575978E-011  0.5052886E+02  0.7816164E-02  0.1300439E+00
        -11   -1    0    0    0    0  0.00000000000E+00  0.00000000000E+00  0.45593999997E+02  0.45594000000E+02  0.51100000000E-03 0. -1.
         11   -1    0    0    0    0 -0.00000000000E+00 -0.00000000000E+00 -0.45593999997E+02  0.45594000000E+02  0.51100000000E-03 0.  1.
    9900012    2    1    2    0    0  0.87551324534E+01 -0.32113536414E+02 -0.23350247902E+02  0.50528860285E+02  0.30000001323E+02 0.  0.
         12    1    1    2    0    0 -0.87551324534E+01  0.32113536414E+02  0.23350247902E+02  0.40659139715E+02  0.00000000000E+00 0. -1.
         11    1    3    3    0    0 -0.16610389335E+01 -0.23862469228E+02 -0.33769401304E+01  0.24157404929E+02  0.51100000000E-03 0. -1.
        -11    1    3    3    0    0  0.44709534331E+01 -0.64970928698E+01 -0.32389498409E+01  0.85259859660E+01  0.51100000000E-03 0.  1.
         12    1    3    3    0    0  0.59452179538E+01 -0.17539743159E+01 -0.16734357930E+02  0.17845469390E+02  0.00000000000E+00 0. -1.
</event>
<event>
 7    1  0.2575978E-011  0.5052886E+02  0.7816164E-02  0.1300439E+00
        -11   -1    0    0    0    0  0.00000000000E+00  0.00000000000E+00  0.45593999997E+02  0.45594000000E+02  0.51100000000E-03 0.  1.
         11   -1    0    0    0    0 -0.00000000000E+00 -0.00000000000E+00 -0.45593999997E+02  0.45594000000E+02  0.51100000000E-03 0. -1.
    9900012    2    1    2    0    0 -0.34357139001E+02 -0.15394028641E+02  0.15355012634E+02  0.50528861653E+02  0.30000005482E+02 0.  0.
         12    1    1    2    0    0  0.34357139001E+02  0.15394028641E+02 -0.15355012634E+02  0.40659138347E+02  0.00000000000E+00 0. -1.
         11    1    3    3    0    0 -0.58931308834E+01  0.21184756779E+01  0.61828156817E+01  0.88002352708E+01  0.51100000000E-03 0. -1.
        -11    1    3    3    0    0 -0.12765867791E+02  0.41755032927E+01  0.10749445890E-01  0.13431393227E+02  0.51100000000E-03 0.  1.
        -12    1    3    3    0    0 -0.15698140326E+02 -0.21688007611E+02  0.91614475062E+01  0.28297233155E+02  0.00000000000E+00 0.  1.
</event>
<event>
 7    1  0.2575978E-011  0.5052886E+02  0.7816164E-02  0.1300439E+00
        -11   -1    0    0    0    0  0.00000000000E+00  0.00000000000E+00  0.45593999997E+02  0.45594000000E+02  0.51100000000E-03 0.  1.
         11   -1    0    0    0    0 -0.00000000000E+00 -0.00000000000E+00 -0.45593999997E+02  0.45594000000E+02  0.51100000000E-03 0. -1.
    9900012    2    1    2    0    0  0.13452434035E+02 -0.33407324967E+02  0.18871889342E+02  0.50528861417E+02  0.30000004764E+02 0.  0.
         12    1    1    2    0    0 -0.13452434035E+02  0.33407324967E+02 -0.18871889342E+02  0.40659138583E+02  0.00000000000E+00 0. -1.
         11    1    3    3    0    0  0.69915425236E+01  0.34255269623E+01  0.18803328412E+00  0.77878917947E+01  0.51100000000E-03 0. -1.
        -11    1    3    3    0    0 -0.24999405487E+00 -0.38712324967E+01 -0.66407899764E+00  0.39357260127E+01  0.51100000000E-03 0.  1.
        -12    1    3    3    0    0  0.67108855667E+01 -0.32961619433E+02  0.19347935055E+02  0.38805243610E+02  0.00000000000E+00 0.  1.
</event>
<event>
 7    1  0.2575978E-011  0.5052887E+02  0.7816164E-02  0.1300439E+00
        -11   -1    0    0    0    0  0.00000000000E+00  0.00000000000E+00  0.45593999997E+02  0.45594000000E+02  0.51100000000E-03 0. -1.
         11   -1    0    0    0    0 -0.00000000000E+00 -0.00000000000E+00 -0.45593999997E+02  0.45594000000E+02  0.51100000000E-03 0.  1.
    9900012    2    1    2    0    0  0.38060457413E+02 -0.13844875474E+02  0.35896575707E+01  0.50528872650E+02  0.30000038907E+02 0.  0.
         12    1    1    2    0    0 -0.38060457413E+02  0.13844875474E+02 -0.35896575707E+01  0.40659127350E+02  0.00000000000E+00 0. -1.
         11    1    3    3    0    0 -0.58124180642E+00 -0.54525325278E+01 -0.25853021292E+01  0.60623213676E+01  0.51100000000E-03 0. -1.
        -11    1    3    3    0    0  0.21892886973E+02 -0.60472866184E+01  0.13067716209E+02  0.26203690249E+02  0.51100000000E-03 0.  1.
        -12    1    3    3    0    0  0.16748812246E+02 -0.23450563280E+01 -0.68927565089E+01  0.18262861034E+02  0.00000000000E+00 0.  1.
</event>
<event>
 7    1  0.2575978E-011  0.5052887E+02  0.7816164E-02  0.1300439E+00
        -11   -1    0    0    0    0  0.00000000000E+00  0.00000000000E+00  0.45593999997E+02  0.45594000000E+02  0.51100000000E-03 0.  1.
         11   -1    0    0    0    0 -0.00000000000E+00 -0.00000000000E+00 -0.45593999997E+02  0.45594000000E+02  0.51100000000E-03 0. -1.
    9900012    2    1    2    0    0  0.20160906914E+02 -0.30992170756E+02  0.16917084422E+02  0.50528873581E+02  0.30000041738E+02 0.  0.
         12    1    1    2    0    0 -0.20160906914E+02  0.30992170756E+02 -0.16917084422E+02  0.40659126419E+02  0.00000000000E+00 0. -1.
         11    1    3    3    0    0  0.79218909561E+01 -0.15405175498E+02  0.87332737646E+00  0.17344696290E+02  0.51100000000E-03 0. -1.
        -11    1    3    3    0    0  0.10396500041E+02 -0.20725758176E+02  0.10671445616E+02  0.25524968499E+02  0.51100000000E-03 0.  1.
         12    1    3    3    0    0  0.18425159164E+01  0.51387629175E+01  0.53723114295E+01  0.76592087920E+01  0.00000000000E+00 0. -1.
</event>
<event>
 7    1  0.2575978E-011  0.5052884E+02  0.7816164E-02  0.1300439E+00
        -11   -1    0    0    0    0  0.00000000000E+00  0.00000000000E+00  0.45593999997E+02  0.45594000000E+02  0.51100000000E-03 0.  1.
         11   -1    0    0    0    0 -0.00000000000E+00 -0.00000000000E+00 -0.45593999997E+02  0.45594000000E+02  0.51100000000E-03 0. -1.
    9900012    2    1    2    0    0  0.97406884499E+01  0.31979266667E+02  0.23143307935E+02  0.50528841005E+02  0.29999942718E+02 0.  0.
         12    1    1    2    0    0 -0.97406884499E+01 -0.31979266667E+02 -0.23143307935E+02  0.40659158995E+02  0.00000000000E+00 0. -1.
         11    1    3    3    0    0  0.46996181473E+01 -0.21445346700E+01  0.14351518261E+01  0.53614457664E+01  0.51100000000E-03 0. -1.
        -11    1    3    3    0    0 -0.30882997323E+01  0.14242805178E+02  0.18341024657E+02  0.23426230604E+02  0.51100000000E-03 0.  1.
         12    1    3    3    0    0  0.81293700349E+01  0.19880996159E+02  0.33671314515E+01  0.21741164635E+02  0.00000000000E+00 0. -1.
</event>
<event>
 7    1  0.2575978E-011  0.5052885E+02  0.7816164E-02  0.1300439E+00
        -11   -1    0    0    0    0  0.00000000000E+00  0.00000000000E+00  0.45593999997E+02  0.45594000000E+02  0.51100000000E-03 0. -1.
         11   -1    0    0    0    0 -0.00000000000E+00 -0.00000000000E+00 -0.45593999997E+02  0.45594000000E+02  0.51100000000E-03 0.  1.
    9900012    2    1    2    0    0 -0.13060229474E+02 -0.38053122682E+02  0.58785013459E+01  0.50528849519E+02  0.29999968599E+02 0.  0.
         12    1    1    2    0    0  0.13060229474E+02  0.38053122682E+02 -0.58785013459E+01  0.40659150481E+02  0.00000000000E+00 0. -1.
         11    1    3    3    0    0  0.43200444744E+01 -0.92236045107E+01 -0.34906536127E+01  0.10766723148E+02  0.51100000000E-03 0. -1.
        -11    1    3    3    0    0 -0.11372272117E+01 -0.86136764716E+01 -0.50910560479E+01  0.10070132076E+02  0.51100000000E-03 0.  1.
         12    1    3    3    0    0 -0.16243046737E+02 -0.20215841699E+02  0.14460211006E+02  0.29691994296E+02  0.00000000000E+00 0. -1.
</event>
<event>
 7    1  0.2575978E-011  0.5052885E+02  0.7816164E-02  0.1300439E+00
        -11   -1    0    0    0    0  0.00000000000E+00  0.00000000000E+00  0.45593999997E+02  0.45594000000E+02  0.51100000000E-03 0.  1.
         11   -1    0    0    0    0 -0.00000000000E+00 -0.00000000000E+00 -0.45593999997E+02  0.45594000000E+02  0.51100000000E-03 0. -1.
    9900012    2    1    2    0    0  0.75483824074E+01  0.27264791524E+01  0.39859182403E+02  0.50528853583E+02  0.29999980951E+02 0.  0.
         12    1    1    2    0    0 -0.75483824074E+01 -0.27264791524E+01 -0.39859182403E+02  0.40659146417E+02  0.00000000000E+00 0. -1.
         11    1    3    3    0    0 -0.48637786412E+01 -0.25071956035E+01  0.10317073162E+02  0.11678371948E+02  0.51100000000E-03 0. -1.
        -11    1    3    3    0    0  0.28987051244E+01 -0.82351907470E+01  0.10777876360E+02  0.13870237097E+02  0.51100000000E-03 0.  1.
         12    1    3    3    0    0  0.95134559242E+01  0.13468865503E+02  0.18764232881E+02  0.24980244538E+02  0.00000000000E+00 0. -1.
</event>
<event>
 7    1  0.2575978E-011  0.5052885E+02  0.7816164E-02  0.1300439E+00
        -11   -1    0    0    0    0  0.00000000000E+00  0.00000000000E+00  0.45593999997E+02  0.45594000000E+02  0.51100000000E-03 0.  1.
         11   -1    0    0    0    0 -0.00000000000E+00 -0.00000000000E+00 -0.45593999997E+02  0.45594000000E+02  0.51100000000E-03 0. -1.
    9900012    2    1    2    0    0 -0.24100544366E+02  0.12217697494E+02  0.30381867568E+02  0.50528852841E+02  0.29999978694E+02 0.  0.
         12    1    1    2    0    0  0.24100544366E+02 -0.12217697494E+02 -0.30381867568E+02  0.40659147159E+02  0.00000000000E+00 0. -1.
         11    1    3    3    0    0 -0.47207305332E+01 -0.31017097530E+01 -0.19632739983E+01  0.59799954191E+01  0.51100000000E-03 0. -1.
        -11    1    3    3    0    0  0.28333113875E+01  0.49902383951E+00  0.38696732040E+00  0.29028300293E+01  0.51100000000E-03 0.  1.
        -12    1    3    3    0    0 -0.22213125220E+02  0.14820383408E+02  0.31958174246E+02  0.41646027392E+02  0.00000000000E+00 0.  1.
</event>
<event>
 7    1  0.2575978E-011  0.5052886E+02  0.7816164E-02  0.1300439E+00
        -11   -1    0    0    0    0  0.00000000000E+00  0.00000000000E+00  0.45593999997E+02  0.45594000000E+02  0.51100000000E-03 0.  1.
         11   -1    0    0    0    0 -0.00000000000E+00 -0.00000000000E+00 -0.45593999997E+02  0.45594000000E+02  0.51100000000E-03 0. -1.
    9900012    2    1    2    0    0  0.36172955429E+02 -0.13003053588E+02 -0.13251555177E+02  0.50528858080E+02  0.29999994620E+02 0.  0.
         12    1    1    2    0    0 -0.36172955429E+02  0.13003053588E+02  0.13251555177E+02  0.40659141920E+02  0.00000000000E+00 0. -1.
         11    1    3    3    0    0  0.10098303447E+02  0.84610457341E-01 -0.14576347295E+02  0.17732816814E+02  0.51100000000E-03 0.  1.
        -11    1    3    3    0    0  0.11749383937E+02 -0.49603306928E+01 -0.67755988134E+01  0.14441663444E+02  0.51100000000E-03 0. -1.
        -12    1    3    3    0    0  0.14325268045E+02 -0.81273333523E+01  0.81003909320E+01  0.18354377822E+02  0.00000000000E+00 0.  1.
</event>
<event>
 7    1  0.2575978E-011  0.5052886E+02  0.7816164E-02  0.1300439E+00
        -11   -1    0    0    0    0  0.00000000000E+00  0.00000000000E+00  0.45593999997E+02  0.45594000000E+02  0.51100000000E-03 0.  1.
         11   -1    0    0    0    0 -0.00000000000E+00 -0.00000000000E+00 -0.45593999997E+02  0.45594000000E+02  0.51100000000E-03 0. -1.
    9900012    2    1    2    0    0  0.12595053887E+02 -0.25319056107E+02  0.29214311227E+02  0.50528856317E+02  0.29999989262E+02 0.  0.
         12    1    1    2    0    0 -0.12595053887E+02  0.25319056107E+02 -0.29214311227E+02  0.40659143683E+02  0.00000000000E+00 0. -1.
         11    1    3    3    0    0  0.10419115843E+02 -0.55443803244E+01  0.15143877652E+02  0.19199873925E+02  0.51100000000E-03 0. -1.
        -11    1    3    3    0    0  0.65830697335E+01 -0.16245184133E+02  0.17462379753E+02  0.24742221435E+02  0.51100000000E-03 0.  1.
         12    1    3    3    0    0 -0.44071316898E+01 -0.35294916494E+01 -0.33919461782E+01  0.65867609574E+01  0.00000000000E+00 0. -1.
</event>
<event>
 7    1  0.2575978E-011  0.5052886E+02  0.7816164E-02  0.1300439E+00
        -11   -1    0    0    0    0  0.00000000000E+00  0.00000000000E+00  0.45593999997E+02  0.45594000000E+02  0.51100000000E-03 0.  1.
         11   -1    0    0    0    0 -0.00000000000E+00 -0.00000000000E+00 -0.45593999997E+02  0.45594000000E+02  0.51100000000E-03 0. -1.
    9900012    2    1    2    0    0  0.23214199990E+02  0.11398038286E+02  0.31374377264E+02  0.50528857035E+02  0.29999991444E+02 0.  0.
         12    1    1    2    0    0 -0.23214199990E+02 -0.11398038286E+02 -0.31374377264E+02  0.40659142965E+02  0.00000000000E+00 0. -1.
         11    1    3    3    0    0  0.43839423452E-01 -0.53898435135E+01  0.23719907283E+01  0.58888602693E+01  0.51100000000E-03 0. -1.
        -11    1    3    3    0    0 -0.41449500967E+00  0.41104620258E+01 -0.11758426859E+01  0.42953824581E+01  0.51100000000E-03 0.  1.
         12    1    3    3    0    0  0.23584855576E+02  0.12677419774E+02  0.30178229222E+02  0.40344614308E+02  0.00000000000E+00 0. -1.
</event>
<event>
 7    1  0.2575978E-011  0.5052886E+02  0.7816164E-02  0.1300439E+00
        -11   -1    0    0    0    0  0.00000000000E+00  0.00000000000E+00  0.45593999997E+02  0.45594000000E+02  0.51100000000E-03 0.  1.
         11   -1    0    0    0    0 -0.00000000000E+00 -0.00000000000E+00 -0.45593999997E+02  0.45594000000E+02  0.51100000000E-03 0. -1.
    9900012    2    1    2    0    0  0.24350254354E+02 -0.15898214212E+02  0.28416155628E+02  0.50528855851E+02  0.29999987844E+02 0.  0.
         12    1    1    2    0    0 -0.24350254354E+02  0.15898214212E+02 -0.28416155628E+02  0.40659144149E+02  0.00000000000E+00 0. -1.
         11    1    3    3    0    0 -0.14673927671E+01 -0.20518810796E+01  0.16893138238E+01  0.30359906051E+01  0.51100000000E-03 0. -1.
        -11    1    3    3    0    0  0.12699891255E+02 -0.12106778359E+02  0.29166337944E+02  0.34037282345E+02  0.51100000000E-03 0.  1.
        -12    1    3    3    0    0  0.13117755867E+02 -0.17395547739E+01 -0.24394961392E+01  0.13455582901E+02  0.00000000000E+00 0.  1.
</event>
<event>
 7    1  0.2575978E-011  0.5052886E+02  0.7816164E-02  0.1300439E+00
        -11   -1    0    0    0    0  0.00000000000E+00  0.00000000000E+00  0.45593999997E+02  0.45594000000E+02  0.51100000000E-03 0. -1.
         11   -1    0    0    0    0 -0.00000000000E+00 -0.00000000000E+00 -0.45593999997E+02  0.45594000000E+02  0.51100000000E-03 0.  1.
    9900012    2    1    2    0    0 -0.26272246527E+02 -0.59297790298E+01 -0.30459353709E+02  0.50528862709E+02  0.30000008689E+02 0.  0.
         12    1    1    2    0    0  0.26272246527E+02  0.59297790298E+01  0.30459353709E+02  0.40659137291E+02  0.00000000000E+00 0. -1.
         11    1    3    3    0    0 -0.13269619647E+01  0.51612285642E+01 -0.10109441561E+02  0.11428032083E+02  0.51100000000E-03 0.  1.
        -11    1    3    3    0    0 -0.13253877459E+01  0.45216240745E+01 -0.10280188832E+01  0.48227129330E+01  0.51100000000E-03 0. -1.
        -12    1    3    3    0    0 -0.23619896817E+02 -0.15612631669E+02 -0.19321893264E+02  0.34278117693E+02  0.00000000000E+00 0.  1.
</event>
<event>
 7    1  0.2575978E-011  0.5052886E+02  0.7816164E-02  0.1300439E+00
        -11   -1    0    0    0    0  0.00000000000E+00  0.00000000000E+00  0.45593999997E+02  0.45594000000E+02  0.51100000000E-03 0.  1.
         11   -1    0    0    0    0 -0.00000000000E+00 -0.00000000000E+00 -0.45593999997E+02  0.45594000000E+02  0.51100000000E-03 0. -1.
    9900012    2    1    2    0    0 -0.25056436865E+02  0.28733794990E+02 -0.14131860247E+02  0.50528862319E+02  0.30000007505E+02 0.  0.
         12    1    1    2    0    0  0.25056436865E+02 -0.28733794990E+02  0.14131860247E+02  0.40659137681E+02  0.00000000000E+00 0. -1.
         11    1    3    3    0    0 -0.18195901771E+01  0.20263861779E+01 -0.11059978321E+02  0.11390358646E+02  0.51100000000E-03 0. -1.
        -11    1    3    3    0    0 -0.87276285121E+01  0.36186005186E+01 -0.67650716807E+01  0.11620325480E+02  0.51100000000E-03 0.  1.
        -12    1    3    3    0    0 -0.14509218176E+02  0.23088808294E+02  0.36931897551E+01  0.27518178193E+02  0.00000000000E+00 0.  1.
</event>
<event>
 7    1  0.2575978E-011  0.5052886E+02  0.7816164E-02  0.1300439E+00
        -11   -1    0    0    0    0  0.00000000000E+00  0.00000000000E+00  0.45593999997E+02  0.45594000000E+02  0.51100000000E-03 0.  1.
         11   -1    0    0    0    0 -0.00000000000E+00 -0.00000000000E+00 -0.45593999997E+02  0.45594000000E+02  0.51100000000E-03 0. -1.
    9900012    2    1    2    0    0 -0.58418991508E-01  0.30509354674E+02  0.26876418379E+02  0.50528855884E+02  0.29999987945E+02 0.  0.
         12    1    1    2    0    0  0.58418991508E-01 -0.30509354674E+02 -0.26876418379E+02  0.40659144116E+02  0.00000000000E+00 0. -1.
         11    1    3    3    0    0 -0.68308634952E+01  0.59817359737E+01  0.73695819842E+01  0.11694126741E+02  0.51100000000E-03 0. -1.
        -11    1    3    3    0    0 -0.65790308765E+01  0.16872485404E+02  0.11875746937E+02  0.21656356493E+02  0.51100000000E-03 0.  1.
        -12    1    3    3    0    0  0.13351475380E+02  0.76551332956E+01  0.76310894578E+01  0.17178372650E+02  0.00000000000E+00 0.  1.
</event>
<event>
 7    1  0.2575978E-011  0.5052886E+02  0.7816164E-02  0.1300439E+00
        -11   -1    0    0    0    0  0.00000000000E+00  0.00000000000E+00  0.45593999997E+02  0.45594000000E+02  0.51100000000E-03 0. -1.
         11   -1    0    0    0    0 -0.00000000000E+00 -0.00000000000E+00 -0.45593999997E+02  0.45594000000E+02  0.51100000000E-03 0.  1.
    9900012    2    1    2    0    0 -0.18612132449E+02  0.18909006230E+02 -0.30809145726E+02  0.50528862635E+02  0.30000008465E+02 0.  0.
         12    1    1    2    0    0  0.18612132449E+02 -0.18909006230E+02  0.30809145726E+02  0.40659137365E+02  0.00000000000E+00 0. -1.
         11    1    3    3    0    0  0.34610895420E+01  0.30984842091E+01 -0.17400418699E+01  0.49605938336E+01  0.51100000000E-03 0. -1.
        -11    1    3    3    0    0 -0.20353331315E+00  0.99774158363E+01 -0.18188022953E+01  0.10143879664E+02  0.51100000000E-03 0.  1.
         12    1    3    3    0    0 -0.21869688678E+02  0.58331061849E+01 -0.27250301561E+02  0.35424389138E+02  0.00000000000E+00 0. -1.
</event>
<event>
 7    1  0.2575978E-011  0.5052888E+02  0.7816164E-02  0.1300439E+00
        -11   -1    0    0    0    0  0.00000000000E+00  0.00000000000E+00  0.45593999997E+02  0.45594000000E+02  0.51100000000E-03 0.  1.
         11   -1    0    0    0    0 -0.00000000000E+00 -0.00000000000E+00 -0.45593999997E+02  0.45594000000E+02  0.51100000000E-03 0. -1.
    9900012    2    1    2    0    0 -0.74523451658E+01 -0.37268933981E+01  0.39796195567E+02  0.50528876000E+02  0.30000049089E+02 0.  0.
         12    1    1    2    0    0  0.74523451658E+01  0.37268933981E+01 -0.39796195567E+02  0.40659124000E+02  0.00000000000E+00 0. -1.
         11    1    3    3    0    0 -0.10184251795E+02  0.16508454417E+01  0.14945930417E+02  0.18161087841E+02  0.51100000000E-03 0. -1.
        -11    1    3    3    0    0 -0.16501622672E+01  0.43023175022E+01  0.20286846984E+02  0.20803584600E+02  0.51100000000E-03 0.  1.
         12    1    3    3    0    0  0.43820688960E+01 -0.96800563420E+01  0.45634181661E+01  0.11564203559E+02  0.00000000000E+00 0. -1.
</event>
<event>
 7    1  0.2575978E-011  0.5052886E+02  0.7816164E-02  0.1300439E+00
        -11   -1    0    0    0    0  0.00000000000E+00  0.00000000000E+00  0.45593999997E+02  0.45594000000E+02  0.51100000000E-03 0.  1.
         11   -1    0    0    0    0 -0.00000000000E+00 -0.00000000000E+00 -0.45593999997E+02  0.45594000000E+02  0.51100000000E-03 0. -1.
    9900012    2    1    2    0    0 -0.13458597329E+02  0.22238585481E+02  0.31264635720E+02  0.50528856219E+02  0.29999988964E+02 0.  0.
         12    1    1    2    0    0  0.13458597329E+02 -0.22238585481E+02 -0.31264635720E+02  0.40659143781E+02  0.00000000000E+00 0. -1.
         11    1    3    3    0    0 -0.71600199687E+01  0.96300025135E+01  0.79606260825E+01  0.14400500069E+02  0.51100000000E-03 0. -1.
        -11    1    3    3    0    0 -0.12264791108E+02  0.16037118975E+02  0.20266008685E+02  0.28606387297E+02  0.51100000000E-03 0.  1.
         12    1    3    3    0    0  0.59662137478E+01 -0.34285360067E+01  0.30380009526E+01  0.75219688527E+01  0.00000000000E+00 0. -1.
</event>
<event>
 7    1  0.2575978E-011  0.5052886E+02  0.7816164E-02  0.1300439E+00
        -11   -1    0    0    0    0  0.00000000000E+00  0.00000000000E+00  0.45593999997E+02  0.45594000000E+02  0.51100000000E-03 0.  1.
         11   -1    0    0    0    0 -0.00000000000E+00 -0.00000000000E+00 -0.45593999997E+02  0.45594000000E+02  0.51100000000E-03 0. -1.
    9900012    2    1    2    0    0  0.47699950990E+01 -0.20933255440E+02  0.34528421573E+02  0.50528856712E+02  0.29999990462E+02 0.  0.
         12    1    1    2    0    0 -0.47699950990E+01  0.20933255440E+02 -0.34528421573E+02  0.40659143288E+02  0.00000000000E+00 0. -1.
         11    1    3    3    0    0 -0.23417298278E+01  0.21973531742E+01  0.11377307305E+01  0.34068300567E+01  0.51100000000E-03 0. -1.
        -11    1    3    3    0    0 -0.40587872347E+00  0.63363916336E+00  0.17600043745E+02  0.17616122622E+02  0.51100000000E-03 0.  1.
        -12    1    3    3    0    0  0.75176036503E+01 -0.23764247778E+02  0.15790647098E+02  0.29505904034E+02  0.00000000000E+00 0.  1.
</event>
<event>
 7    1  0.2575978E-011  0.5052886E+02  0.7816164E-02  0.1300439E+00
        -11   -1    0    0    0    0  0.00000000000E+00  0.00000000000E+00  0.45593999997E+02  0.45594000000E+02  0.51100000000E-03 0.  1.
         11   -1    0    0    0    0 -0.00000000000E+00 -0.00000000000E+00 -0.45593999997E+02  0.45594000000E+02  0.51100000000E-03 0. -1.
    9900012    2    1    2    0    0 -0.37018710005E+02  0.16812400126E+02 -0.35219065750E+00  0.50528859248E+02  0.29999998169E+02 0.  0.
         12    1    1    2    0    0  0.37018710005E+02 -0.16812400126E+02  0.35219065750E+00  0.40659140752E+02  0.00000000000E+00 0. -1.
         11    1    3    3    0    0 -0.14115303505E+02  0.16418616846E+02 -0.97564070429E+01  0.23748689455E+02  0.51100000000E-03 0. -1.
        -11    1    3    3    0    0 -0.42382465080E+01  0.34821044615E+01 -0.34678828314E+00  0.54961847966E+01  0.51100000000E-03 0.  1.
        -12    1    3    3    0    0 -0.18665159992E+02 -0.30883211819E+01  0.97510046685E+01  0.21283984996E+02  0.00000000000E+00 0.  1.
</event>
<event>
 7    1  0.2575978E-011  0.5052886E+02  0.7816164E-02  0.1300439E+00
        -11   -1    0    0    0    0  0.00000000000E+00  0.00000000000E+00  0.45593999997E+02  0.45594000000E+02  0.51100000000E-03 0.  1.
         11   -1    0    0    0    0 -0.00000000000E+00 -0.00000000000E+00 -0.45593999997E+02  0.45594000000E+02  0.51100000000E-03 0. -1.
    9900012    2    1    2    0    0  0.16955809104E+01  0.35290367605E+02  0.20121651082E+02  0.50528857331E+02  0.29999992344E+02 0.  0.
         12    1    1    2    0    0 -0.16955809104E+01 -0.35290367605E+02 -0.20121651082E+02  0.40659142669E+02  0.00000000000E+00 0. -1.
         11    1    3    3    0    0 -0.57059435927E+00  0.67563893799E+01 -0.15396859402E+01  0.69530574880E+01  0.51100000000E-03 0. -1.
        -11    1    3    3    0    0  0.47024878238E+00  0.24012126175E+02  0.28968643190E+01  0.24190807356E+02  0.51100000000E-03 0.  1.
         12    1    3    3    0    0  0.17959264873E+01  0.45218520495E+01  0.18764472703E+02  0.19384992488E+02  0.00000000000E+00 0. -1.
</event>
<event>
 7    1  0.2575978E-011  0.5052886E+02  0.7816164E-02  0.1300439E+00
        -11   -1    0    0    0    0  0.00000000000E+00  0.00000000000E+00  0.45593999997E+02  0.45594000000E+02  0.51100000000E-03 0. -1.
         11   -1    0    0    0    0 -0.00000000000E+00 -0.00000000000E+00 -0.45593999997E+02  0.45594000000E+02  0.51100000000E-03 0.  1.
    9900012    2    1    2    0    0 -0.31349607962E+02 -0.15414075571E+02 -0.20803219897E+02  0.50528860767E+02  0.30000002788E+02 0.  0.
         12    1    1    2    0    0  0.31349607962E+02  0.15414075571E+02  0.20803219897E+02  0.40659139233E+02  0.00000000000E+00 0. -1.
         11    1    3    3    0    0 -0.91177009563E+01  0.21087821185E+01  0.36436320007E+01  0.10042683265E+02  0.51100000000E-03 0. -1.
        -11    1    3    3    0    0  0.14780763479E+00 -0.65986211871E+01 -0.90716369908E+01  0.11218656186E+02  0.51100000000E-03 0.  1.
        -12    1    3    3    0    0 -0.22379714640E+02 -0.10924236502E+02 -0.15375214907E+02  0.29267521316E+02  0.00000000000E+00 0.  1.
</event>
<event>
 7    1  0.2575978E-011  0.5052886E+02  0.7816164E-02  0.1300439E+00
        -11   -1    0    0    0    0  0.00000000000E+00  0.00000000000E+00  0.45593999997E+02  0.45594000000E+02  0.51100000000E-03 0.  1.
         11   -1    0    0    0    0 -0.00000000000E+00 -0.00000000000E+00 -0.45593999997E+02  0.45594000000E+02  0.51100000000E-03 0. -1.
    9900012    2    1    2    0    0  0.38595154711E+02 -0.10839800578E+02  0.67881315369E+01  0.50528856213E+02  0.29999988946E+02 0.  0.
         12    1    1    2    0    0 -0.38595154711E+02  0.10839800578E+02 -0.67881315369E+01  0.40659143787E+02  0.00000000000E+00 0. -1.
         11    1    3    3    0    0 -0.22106726427E+01 -0.31439326783E+00  0.66610900527E+01  0.70253852287E+01  0.51100000000E-03 0. -1.
        -11    1    3    3    0    0  0.61082761291E+01 -0.74955334584E+00  0.38565866648E+01  0.72626529899E+01  0.51100000000E-03 0.  1.
         12    1    3    3    0    0  0.34697551224E+02 -0.97758539640E+01 -0.37295451806E+01  0.36240817995E+02  0.00000000000E+00 0. -1.
</event>
<event>
 7    1  0.2575978E-011  0.5052886E+02  0.7816164E-02  0.1300439E+00
        -11   -1    0    0    0    0  0.00000000000E+00  0.00000000000E+00  0.45593999997E+02  0.45594000000E+02  0.51100000000E-03 0. -1.
         11   -1    0    0    0    0 -0.00000000000E+00 -0.00000000000E+00 -0.45593999997E+02  0.45594000000E+02  0.51100000000E-03 0.  1.
    9900012    2    1    2    0    0 -0.18017598713E+02 -0.28123464655E+02 -0.23186266230E+02  0.50528855035E+02  0.29999985365E+02 0.  0.
         12    1    1    2    0    0  0.18017598713E+02  0.28123464655E+02  0.23186266230E+02  0.40659144965E+02  0.00000000000E+00 0. -1.
         11    1    3    3    0    0 -0.65839433895E+01  0.11385689991E+01 -0.42363604569E+01  0.79114726887E+01  0.51100000000E-03 0.  1.
        -11    1    3    3    0    0 -0.12430195213E+01  0.23957967861E+01  0.19573089814E+01  0.33340663582E+01  0.51100000000E-03 0. -1.
        -12    1    3    3    0    0 -0.10190635802E+02 -0.31657830440E+02 -0.20907214755E+02  0.39283315988E+02  0.00000000000E+00 0.  1.
</event>
<event>
 7    1  0.2575978E-011  0.5052886E+02  0.7816164E-02  0.1300439E+00
        -11   -1    0    0    0    0  0.00000000000E+00  0.00000000000E+00  0.45593999997E+02  0.45594000000E+02  0.51100000000E-03 0.  1.
         11   -1    0    0    0    0 -0.00000000000E+00 -0.00000000000E+00 -0.45593999997E+02  0.45594000000E+02  0.51100000000E-03 0. -1.
    9900012    2    1    2    0    0  0.23991184560E+02  0.11743414582E+02  0.30654220889E+02  0.50528856121E+02  0.29999988666E+02 0.  0.
         12    1    1    2    0    0 -0.23991184560E+02 -0.11743414582E+02 -0.30654220889E+02  0.40659143879E+02  0.00000000000E+00 0. -1.
         11    1    3    3    0    0  0.77275865820E+01  0.35087295985E+01  0.16748755546E+02  0.18776250701E+02  0.51100000000E-03 0.  1.
        -11    1    3    3    0    0  0.45834596289E+01  0.12917245273E+02  0.10237014049E+01  0.13744500443E+02  0.51100000000E-03 0. -1.
         12    1    3    3    0    0  0.11680138349E+02 -0.46825602891E+01  0.12881763938E+02  0.18008104977E+02  0.00000000000E+00 0. -1.
</event>
<event>
 7    1  0.2575978E-011  0.5052886E+02  0.7816164E-02  0.1300439E+00
        -11   -1    0    0    0    0  0.00000000000E+00  0.00000000000E+00  0.45593999997E+02  0.45594000000E+02  0.51100000000E-03 0.  1.
         11   -1    0    0    0    0 -0.00000000000E+00 -0.00000000000E+00 -0.45593999997E+02  0.45594000000E+02  0.51100000000E-03 0. -1.
    9900012    2    1    2    0    0  0.16830733348E+01  0.81553513214E+01  0.39797277901E+02  0.50528858108E+02  0.29999994705E+02 0.  0.
         12    1    1    2    0    0 -0.16830733348E+01 -0.81553513214E+01 -0.39797277901E+02  0.40659141892E+02  0.00000000000E+00 0. -1.
         11    1    3    3    0    0 -0.58263516896E+01  0.35653441249E+01  0.82598560263E+01  0.10718361562E+02  0.51100000000E-03 0. -1.
        -11    1    3    3    0    0 -0.74646684489E+01 -0.22276458696E+01  0.11378273299E+02  0.13789444684E+02  0.51100000000E-03 0.  1.
        -12    1    3    3    0    0  0.14974093473E+02  0.68176530661E+01  0.20159148576E+02  0.26021051862E+02  0.00000000000E+00 0.  1.
</event>
<event>
 7    1  0.2575978E-011  0.5052886E+02  0.7816164E-02  0.1300439E+00
        -11   -1    0    0    0    0  0.00000000000E+00  0.00000000000E+00  0.45593999997E+02  0.45594000000E+02  0.51100000000E-03 0.  1.
         11   -1    0    0    0    0 -0.00000000000E+00 -0.00000000000E+00 -0.45593999997E+02  0.45594000000E+02  0.51100000000E-03 0. -1.
    9900012    2    1    2    0    0  0.29185679262E+02  0.28307340398E+02  0.23686971763E+00  0.50528862015E+02  0.30000006582E+02 0.  0.
         12    1    1    2    0    0 -0.29185679262E+02 -0.28307340398E+02 -0.23686971763E+00  0.40659137985E+02  0.00000000000E+00 0. -1.
         11    1    3    3    0    0  0.88592486457E+01  0.60414695307E-01 -0.73764554398E+01  0.11528314344E+02  0.51100000000E-03 0. -1.
        -11    1    3    3    0    0 -0.13619652037E+01 -0.11050808617E+01  0.40066231048E+00  0.17990785072E+01  0.51100000000E-03 0.  1.
        -12    1    3    3    0    0  0.21688395820E+02  0.29352006564E+02  0.72126628469E+01  0.37201469164E+02  0.00000000000E+00 0.  1.
</event>
<event>
 7    1  0.2575978E-011  0.5052885E+02  0.7816164E-02  0.1300439E+00
        -11   -1    0    0    0    0  0.00000000000E+00  0.00000000000E+00  0.45593999997E+02  0.45594000000E+02  0.51100000000E-03 0. -1.
         11   -1    0    0    0    0 -0.00000000000E+00 -0.00000000000E+00 -0.45593999997E+02  0.45594000000E+02  0.51100000000E-03 0.  1.
    9900012    2    1    2    0    0 -0.18908724773E+02 -0.12893714280E+02 -0.33606225425E+02  0.50528854316E+02  0.29999983178E+02 0.  0.
         12    1    1    2    0    0  0.18908724773E+02  0.12893714280E+02  0.33606225425E+02  0.40659145684E+02  0.00000000000E+00 0. -1.
         11    1    3    3    0    0 -0.41556282841E+01 -0.67229844111E+01 -0.12674312576E+02  0.14936732085E+02  0.51100000000E-03 0. -1.
        -11    1    3    3    0    0 -0.93631168700E+01 -0.90244688384E+01 -0.25056115345E+02  0.28229734532E+02  0.51100000000E-03 0.  1.
         12    1    3    3    0    0 -0.53899796185E+01  0.28537389692E+01  0.41242024961E+01  0.73623876983E+01  0.00000000000E+00 0. -1.
</event>
<event>
 7    1  0.2575978E-011  0.5052881E+02  0.7816164E-02  0.1300439E+00
        -11   -1    0    0    0    0  0.00000000000E+00  0.00000000000E+00  0.45593999997E+02  0.45594000000E+02  0.51100000000E-03 0.  1.
         11   -1    0    0    0    0 -0.00000000000E+00 -0.00000000000E+00 -0.45593999997E+02  0.45594000000E+02  0.51100000000E-03 0. -1.
    9900012    2    1    2    0    0  0.31472993355E+01 -0.40493495542E+02 -0.18818632789E+01  0.50528805668E+02  0.29999835308E+02 0.  0.
         12    1    1    2    0    0 -0.31472993355E+01  0.40493495542E+02  0.18818632789E+01  0.40659194332E+02  0.00000000000E+00 0. -1.
         11    1    3    3    0    0  0.58396864552E+01 -0.21407038284E+01  0.23578388749E+00  0.62241581823E+01  0.51100000000E-03 0. -1.
        -11    1    3    3    0    0 -0.94871978507E+01 -0.76459099392E+01  0.27212948525E+01  0.12484883171E+02  0.51100000000E-03 0.  1.
        -12    1    3    3    0    0  0.67948107310E+01 -0.30706881775E+02 -0.48389420190E+01  0.31819764315E+02  0.00000000000E+00 0.  1.
</event>
<event>
 7    1  0.2692234E-011  0.5052886E+02  0.7816164E-02  0.1300439E+00
        -11   -1    0    0    0    0  0.00000000000E+00  0.00000000000E+00  0.45593999997E+02  0.45594000000E+02  0.51100000000E-03 0. -1.
         11   -1    0    0    0    0 -0.00000000000E+00 -0.00000000000E+00 -0.45593999997E+02  0.45594000000E+02  0.51100000000E-03 0.  1.
    9900012    2    1    2    0    0 -0.21182493374E+02 -0.53742759821E+01 -0.34286802053E+02  0.50528860033E+02  0.30000000555E+02 0.  0.
         12    1    1    2    0    0  0.21182493374E+02  0.53742759821E+01  0.34286802053E+02  0.40659139967E+02  0.00000000000E+00 0. -1.
         11    1    3    3    0    0 -0.14316317705E+02 -0.47713959494E+01 -0.17153376462E+02  0.22846476671E+02  0.51100000000E-03 0. -1.
        -11    1    3    3    0    0 -0.72316913078E+01 -0.43169883892E+01 -0.20806210883E+02  0.22446205904E+02  0.51100000000E-03 0.  1.
         12    1    3    3    0    0  0.36551563939E+00  0.37141083565E+01  0.36727852921E+01  0.52361774577E+01  0.00000000000E+00 0. -1.
</event>
<event>
 7    1  0.2575978E-011  0.5052885E+02  0.7816164E-02  0.1300439E+00
        -11   -1    0    0    0    0  0.00000000000E+00  0.00000000000E+00  0.45593999997E+02  0.45594000000E+02  0.51100000000E-03 0.  1.
         11   -1    0    0    0    0 -0.00000000000E+00 -0.00000000000E+00 -0.45593999997E+02  0.45594000000E+02  0.51100000000E-03 0. -1.
    9900012    2    1    2    0    0  0.36053624749E+02  0.11557154862E+02 -0.14823443265E+02  0.50528853965E+02  0.29999982113E+02 0.  0.
         12    1    1    2    0    0 -0.36053624749E+02 -0.11557154862E+02  0.14823443265E+02  0.40659146035E+02  0.00000000000E+00 0. -1.
         11    1    3    3    0    0 -0.34859765440E+00 -0.22419540751E+01 -0.10622267431E+01  0.25052353811E+01  0.51100000000E-03 0. -1.
        -11    1    3    3    0    0  0.23346670758E+02 -0.42527816194E+01 -0.72301291240E+01  0.24807820429E+02  0.51100000000E-03 0.  1.
         12    1    3    3    0    0  0.13055551645E+02  0.18051890557E+02 -0.65310873975E+01  0.23215798156E+02  0.00000000000E+00 0. -1.
</event>
<event>
 7    1  0.2575978E-011  0.5052886E+02  0.7816164E-02  0.1300439E+00
        -11   -1    0    0    0    0  0.00000000000E+00  0.00000000000E+00  0.45593999997E+02  0.45594000000E+02  0.51100000000E-03 0. -1.
         11   -1    0    0    0    0 -0.00000000000E+00 -0.00000000000E+00 -0.45593999997E+02  0.45594000000E+02  0.51100000000E-03 0.  1.
    9900012    2    1    2    0    0  0.20797710248E+02  0.31851503272E+02 -0.14356275403E+02  0.50528860121E+02  0.30000000823E+02 0.  0.
         12    1    1    2    0    0 -0.20797710248E+02 -0.31851503272E+02  0.14356275403E+02  0.40659139879E+02  0.00000000000E+00 0. -1.
         11    1    3    3    0    0  0.15635038022E+02  0.24661196979E+02 -0.16727426337E+02  0.33651684096E+02  0.51100000000E-03 0. -1.
        -11    1    3    3    0    0  0.34084568040E+01 -0.14409965082E+01 -0.44132475501E+01  0.57594099456E+01  0.51100000000E-03 0.  1.
         12    1    3    3    0    0  0.17542154221E+01  0.86313028018E+01  0.67843984840E+01  0.11117766079E+02  0.00000000000E+00 0. -1.
</event>
<event>
 7    1  0.2575978E-011  0.5052886E+02  0.7816164E-02  0.1300439E+00
        -11   -1    0    0    0    0  0.00000000000E+00  0.00000000000E+00  0.45593999997E+02  0.45594000000E+02  0.51100000000E-03 0.  1.
         11   -1    0    0    0    0 -0.00000000000E+00 -0.00000000000E+00 -0.45593999997E+02  0.45594000000E+02  0.51100000000E-03 0. -1.
    9900012    2    1    2    0    0 -0.37955612219E+02  0.13845971098E+02  0.45635506313E+01  0.50528863156E+02  0.30000010048E+02 0.  0.
         12    1    1    2    0    0  0.37955612219E+02 -0.13845971098E+02 -0.45635506313E+01  0.40659136844E+02  0.00000000000E+00 0. -1.
         11    1    3    3    0    0 -0.24355250019E+02  0.38564898433E+01 -0.82787711290E+01  0.26011320018E+02  0.51100000000E-03 0. -1.
        -11    1    3    3    0    0 -0.76704329818E+01 -0.46231657339E+00  0.11844914453E+01  0.77751076512E+01  0.51100000000E-03 0.  1.
         12    1    3    3    0    0 -0.59299292184E+01  0.10451797828E+02  0.11657830315E+02  0.16742435487E+02  0.00000000000E+00 0. -1.
</event>
<event>
 7    1  0.2575978E-011  0.5052890E+02  0.7816164E-02  0.1300439E+00
        -11   -1    0    0    0    0  0.00000000000E+00  0.00000000000E+00  0.45593999997E+02  0.45594000000E+02  0.51100000000E-03 0. -1.
         11   -1    0    0    0    0 -0.00000000000E+00 -0.00000000000E+00 -0.45593999997E+02  0.45594000000E+02  0.51100000000E-03 0.  1.
    9900012    2    1    2    0    0 -0.25034378159E+02  0.19680493429E+02 -0.25280837300E+02  0.50528897132E+02  0.30000113322E+02 0.  0.
         12    1    1    2    0    0  0.25034378159E+02 -0.19680493429E+02  0.25280837300E+02  0.40659102868E+02  0.00000000000E+00 0. -1.
         11    1    3    3    0    0  0.51199568993E-01  0.67950316560E+01 -0.10737320105E+02  0.12706892614E+02  0.51100000000E-03 0.  1.
        -11    1    3    3    0    0 -0.17148250080E+02  0.85013897404E+01  0.17038544214E+01  0.19215598572E+02  0.51100000000E-03 0. -1.
         12    1    3    3    0    0 -0.79373276482E+01  0.43840720328E+01 -0.16247371617E+02  0.18606405946E+02  0.00000000000E+00 0. -1.
</event>
<event>
 7    1  0.2575978E-011  0.5052884E+02  0.7816164E-02  0.1300439E+00
        -11   -1    0    0    0    0  0.00000000000E+00  0.00000000000E+00  0.45593999997E+02  0.45594000000E+02  0.51100000000E-03 0.  1.
         11   -1    0    0    0    0 -0.00000000000E+00 -0.00000000000E+00 -0.45593999997E+02  0.45594000000E+02  0.51100000000E-03 0. -1.
    9900012    2    1    2    0    0  0.71046726273E+00 -0.39485968674E+02  0.96706144724E+01  0.50528840268E+02  0.29999940478E+02 0.  0.
         12    1    1    2    0    0 -0.71046726273E+00  0.39485968674E+02 -0.96706144724E+01  0.40659159732E+02  0.00000000000E+00 0. -1.
         11    1    3    3    0    0  0.40309153332E+01 -0.69313265283E+01 -0.10014796805E+01  0.80805029346E+01  0.51100000000E-03 0. -1.
        -11    1    3    3    0    0  0.97268227791E+01 -0.74726979790E+01  0.64623185077E+01  0.13864121221E+02  0.51100000000E-03 0.  1.
         12    1    3    3    0    0 -0.13047270850E+02 -0.25081944167E+02  0.42097756452E+01  0.28584216113E+02  0.00000000000E+00 0. -1.
</event>
<event>
 7    1  0.2575978E-011  0.5052886E+02  0.7816164E-02  0.1300439E+00
        -11   -1    0    0    0    0  0.00000000000E+00  0.00000000000E+00  0.45593999997E+02  0.45594000000E+02  0.51100000000E-03 0. -1.
         11   -1    0    0    0    0 -0.00000000000E+00 -0.00000000000E+00 -0.45593999997E+02  0.45594000000E+02  0.51100000000E-03 0.  1.
    9900012    2    1    2    0    0 -0.22086664420E+02  0.18749819354E+02 -0.28526995801E+02  0.50528856373E+02  0.29999989432E+02 0.  0.
         12    1    1    2    0    0  0.22086664420E+02 -0.18749819354E+02  0.28526995801E+02  0.40659143627E+02  0.00000000000E+00 0. -1.
         11    1    3    3    0    0 -0.15420618918E+02 -0.89120471894E+00 -0.81428184484E+01  0.17461249274E+02  0.51100000000E-03 0. -1.
        -11    1    3    3    0    0  0.43798137052E+01  0.28475837346E+01 -0.13748465586E+01  0.54020093057E+01  0.51100000000E-03 0.  1.
        -12    1    3    3    0    0 -0.11045859207E+02  0.16793440338E+02 -0.19009330794E+02  0.27665597793E+02  0.00000000000E+00 0.  1.
</event>
<event>
 7    1  0.2575978E-011  0.5052886E+02  0.7816164E-02  0.1300439E+00
        -11   -1    0    0    0    0  0.00000000000E+00  0.00000000000E+00  0.45593999997E+02  0.45594000000E+02  0.51100000000E-03 0.  1.
         11   -1    0    0    0    0 -0.00000000000E+00 -0.00000000000E+00 -0.45593999997E+02  0.45594000000E+02  0.51100000000E-03 0. -1.
    9900012    2    1    2    0    0  0.23274141228E+02  0.75817362271E+01  0.32465330211E+02  0.50528855397E+02  0.29999986466E+02 0.  0.
         12    1    1    2    0    0 -0.23274141228E+02 -0.75817362271E+01 -0.32465330211E+02  0.40659144603E+02  0.00000000000E+00 0. -1.
         11    1    3    3    0    0  0.26558288777E+02  0.61322785464E+01  0.16262690757E+02  0.31739922083E+02  0.51100000000E-03 0. -1.
        -11    1    3    3    0    0  0.28651913615E+01 -0.63086645859E+00  0.62786559225E+01  0.69302838673E+01  0.51100000000E-03 0.  1.
        -12    1    3    3    0    0 -0.61493389110E+01  0.20803241393E+01  0.99239835319E+01  0.11858649447E+02  0.00000000000E+00 0.  1.
</event>
<event>
 7    1  0.2575978E-011  0.5052886E+02  0.7816164E-02  0.1300439E+00
        -11   -1    0    0    0    0  0.00000000000E+00  0.00000000000E+00  0.45593999997E+02  0.45594000000E+02  0.51100000000E-03 0.  1.
         11   -1    0    0    0    0 -0.00000000000E+00 -0.00000000000E+00 -0.45593999997E+02  0.45594000000E+02  0.51100000000E-03 0. -1.
    9900012    2    1    2    0    0  0.25961326903E+02  0.31169212192E+02  0.27668115180E+01  0.50528861676E+02  0.30000005552E+02 0.  0.
         12    1    1    2    0    0 -0.25961326903E+02 -0.31169212192E+02 -0.27668115180E+01  0.40659138324E+02  0.00000000000E+00 0. -1.
         11    1    3    3    0    0  0.76583932326E+01  0.10680487561E+01 -0.23910514632E+01  0.80937532957E+01  0.51100000000E-03 0. -1.
        -11    1    3    3    0    0  0.10393768822E+02 -0.58170590410E+00  0.65137458316E+00  0.10430393146E+02  0.51100000000E-03 0.  1.
         12    1    3    3    0    0  0.79091648486E+01  0.30682869340E+02  0.45064883981E+01  0.32004715235E+02  0.00000000000E+00 0. -1.
</event>
<event>
 7    1  0.2575978E-011  0.5052886E+02  0.7816164E-02  0.1300439E+00
        -11   -1    0    0    0    0  0.00000000000E+00  0.00000000000E+00  0.45593999997E+02  0.45594000000E+02  0.51100000000E-03 0.  1.
         11   -1    0    0    0    0 -0.00000000000E+00 -0.00000000000E+00 -0.45593999997E+02  0.45594000000E+02  0.51100000000E-03 0. -1.
    9900012    2    1    2    0    0 -0.18916052326E+02  0.35080246400E+02  0.80451816332E+01  0.50528859938E+02  0.30000000267E+02 0.  0.
         12    1    1    2    0    0  0.18916052326E+02 -0.35080246400E+02 -0.80451816332E+01  0.40659140062E+02  0.00000000000E+00 0. -1.
         11    1    3    3    0    0  0.43238252817E+01  0.30325001352E+00 -0.14074966344E+01  0.45572439779E+01  0.51100000000E-03 0.  1.
        -11    1    3    3    0    0  0.20587165821E+01  0.23608557827E+01  0.30213414013E+01  0.43520636618E+01  0.51100000000E-03 0. -1.
        -12    1    3    3    0    0 -0.25298594189E+02  0.32416140604E+02  0.64313368663E+01  0.41619552298E+02  0.00000000000E+00 0.  1.
</event>
<event>
 7    1  0.2575978E-011  0.5052884E+02  0.7816164E-02  0.1300439E+00
        -11   -1    0    0    0    0  0.00000000000E+00  0.00000000000E+00  0.45593999997E+02  0.45594000000E+02  0.51100000000E-03 0.  1.
         11   -1    0    0    0    0 -0.00000000000E+00 -0.00000000000E+00 -0.45593999997E+02  0.45594000000E+02  0.51100000000E-03 0. -1.
    9900012    2    1    2    0    0 -0.21126252548E+02  0.30248785632E+02  0.17083913348E+02  0.50528835299E+02  0.29999925374E+02 0.  0.
         12    1    1    2    0    0  0.21126252548E+02 -0.30248785632E+02 -0.17083913348E+02  0.40659164701E+02  0.00000000000E+00 0. -1.
         11    1    3    3    0    0 -0.53609258818E+01  0.89885972040E+01  0.74530738146E+01  0.12848451874E+02  0.51100000000E-03 0. -1.
        -11    1    3    3    0    0 -0.12310530410E+02  0.27031327636E+02  0.78795492413E+01  0.30729938647E+02  0.51100000000E-03 0.  1.
         12    1    3    3    0    0 -0.34547962566E+01 -0.57711392079E+01  0.17512902921E+01  0.69504447785E+01  0.00000000000E+00 0. -1.
</event>
<event>
 7    1  0.2575978E-011  0.5052885E+02  0.7816164E-02  0.1300439E+00
        -11   -1    0    0    0    0  0.00000000000E+00  0.00000000000E+00  0.45593999997E+02  0.45594000000E+02  0.51100000000E-03 0.  1.
         11   -1    0    0    0    0 -0.00000000000E+00 -0.00000000000E+00 -0.45593999997E+02  0.45594000000E+02  0.51100000000E-03 0. -1.
    9900012    2    1    2    0    0  0.31815350220E+02 -0.18164319293E+02 -0.17635392708E+02  0.50528854892E+02  0.29999984928E+02 0.  0.
         12    1    1    2    0    0 -0.31815350220E+02  0.18164319293E+02  0.17635392708E+02  0.40659145108E+02  0.00000000000E+00 0. -1.
         11    1    3    3    0    0  0.58821782607E+01  0.61000188151E+00 -0.82571466787E+01  0.10156406595E+02  0.51100000000E-03 0. -1.
        -11    1    3    3    0    0  0.54695256137E+01  0.26716547482E+01 -0.88297687787E+01  0.10724656940E+02  0.51100000000E-03 0.  1.
        -12    1    3    3    0    0  0.20463646345E+02 -0.21445975923E+02 -0.54847725017E+00  0.29647791357E+02  0.00000000000E+00 0.  1.
</event>
<event>
 7    1  0.3697855E-011  0.5052886E+02  0.7816164E-02  0.1300439E+00
        -11   -1    0    0    0    0  0.00000000000E+00  0.00000000000E+00  0.45593999997E+02  0.45594000000E+02  0.51100000000E-03 0.  1.
         11   -1    0    0    0    0 -0.00000000000E+00 -0.00000000000E+00 -0.45593999997E+02  0.45594000000E+02  0.51100000000E-03 0. -1.
    9900012    2    1    2    0    0 -0.33896036953E+02 -0.99753852643E+01  0.20117562644E+02  0.50528856391E+02  0.29999989487E+02 0.  0.
         12    1    1    2    0    0  0.33896036953E+02  0.99753852643E+01 -0.20117562644E+02  0.40659143609E+02  0.00000000000E+00 0. -1.
         11    1    3    3    0    0  0.40116050809E+01 -0.11749578563E+01  0.16833229387E+01  0.45063375003E+01  0.51100000000E-03 0. -1.
        -11    1    3    3    0    0 -0.17463794428E+02 -0.12292757340E+02  0.10704126096E+02  0.23888790564E+02  0.51100000000E-03 0.  1.
        -12    1    3    3    0    0 -0.20443847605E+02  0.34923299324E+01  0.77301136086E+01  0.22133728327E+02  0.00000000000E+00 0.  1.
</event>
<event>
 7    1  0.2575978E-011  0.5052886E+02  0.7816164E-02  0.1300439E+00
        -11   -1    0    0    0    0  0.00000000000E+00  0.00000000000E+00  0.45593999997E+02  0.45594000000E+02  0.51100000000E-03 0.  1.
         11   -1    0    0    0    0 -0.00000000000E+00 -0.00000000000E+00 -0.45593999997E+02  0.45594000000E+02  0.51100000000E-03 0. -1.
    9900012    2    1    2    0    0  0.22430466371E+02  0.18212988954E+02  0.28606415087E+02  0.50528858686E+02  0.29999996462E+02 0.  0.
         12    1    1    2    0    0 -0.22430466371E+02 -0.18212988954E+02 -0.28606415087E+02  0.40659141314E+02  0.00000000000E+00 0. -1.
         11    1    3    3    0    0  0.52079142779E+01 -0.29705711023E+01  0.15201233285E+02  0.16340873827E+02  0.51100000000E-03 0. -1.
        -11    1    3    3    0    0  0.55567812466E+01  0.16971373662E+02  0.12407183100E+02  0.21744965728E+02  0.51100000000E-03 0.  1.
         12    1    3    3    0    0  0.11665770846E+02  0.42121863948E+01  0.99799870222E+00  0.12443019130E+02  0.00000000000E+00 0. -1.
</event>
<event>
 7    1  0.2575978E-011  0.5052886E+02  0.7816164E-02  0.1300439E+00
        -11   -1    0    0    0    0  0.00000000000E+00  0.00000000000E+00  0.45593999997E+02  0.45594000000E+02  0.51100000000E-03 0. -1.
         11   -1    0    0    0    0 -0.00000000000E+00 -0.00000000000E+00 -0.45593999997E+02  0.45594000000E+02  0.51100000000E-03 0.  1.
    9900012    2    1    2    0    0 -0.39682621503E+01 -0.40175725073E+02 -0.48300979722E+01  0.50528857903E+02  0.29999994081E+02 0.  0.
         12    1    1    2    0    0  0.39682621503E+01  0.40175725073E+02  0.48300979722E+01  0.40659142097E+02  0.00000000000E+00 0. -1.
         11    1    3    3    0    0  0.70693513994E+01 -0.17864391504E+02 -0.18746481706E+01  0.19303536439E+02  0.51100000000E-03 0. -1.
        -11    1    3    3    0    0  0.20759759198E+01 -0.13279857791E+02 -0.64731357193E+01  0.14918638854E+02  0.51100000000E-03 0.  1.
         12    1    3    3    0    0 -0.13113589470E+02 -0.90314757784E+01  0.35176859177E+01  0.16306682610E+02  0.00000000000E+00 0. -1.
</event>
<event>
 7    1  0.2575978E-011  0.5052885E+02  0.7816164E-02  0.1300439E+00
        -11   -1    0    0    0    0  0.00000000000E+00  0.00000000000E+00  0.45593999997E+02  0.45594000000E+02  0.51100000000E-03 0. -1.
         11   -1    0    0    0    0 -0.00000000000E+00 -0.00000000000E+00 -0.45593999997E+02  0.45594000000E+02  0.51100000000E-03 0.  1.
    9900012    2    1    2    0    0  0.27009396748E+02  0.24756185119E+02 -0.17629239165E+02  0.50528852347E+02  0.29999977193E+02 0.  0.
         12    1    1    2    0    0 -0.27009396748E+02 -0.24756185119E+02  0.17629239165E+02  0.40659147653E+02  0.00000000000E+00 0. -1.
         11    1    3    3    0    0 -0.34662952243E+01  0.63073904687E+01 -0.21104415111E+01  0.75001560477E+01  0.51100000000E-03 0. -1.
        -11    1    3    3    0    0 -0.17075217000E+01 -0.33989429400E+00 -0.34371384706E+01  0.38529313015E+01  0.51100000000E-03 0.  1.
         12    1    3    3    0    0  0.32183213672E+02  0.18788688944E+02 -0.12081659183E+02  0.39175764998E+02  0.00000000000E+00 0. -1.
</event>
<event>
 7    1  0.2575978E-011  0.5052890E+02  0.7816164E-02  0.1300439E+00
        -11   -1    0    0    0    0  0.00000000000E+00  0.00000000000E+00  0.45593999997E+02  0.45594000000E+02  0.51100000000E-03 0.  1.
         11   -1    0    0    0    0 -0.00000000000E+00 -0.00000000000E+00 -0.45593999997E+02  0.45594000000E+02  0.51100000000E-03 0. -1.
    9900012    2    1    2    0    0  0.26377016188E+02 -0.20342892744E+02  0.23314844489E+02  0.50528902104E+02  0.30000128436E+02 0.  0.
         12    1    1    2    0    0 -0.26377016188E+02  0.20342892744E+02 -0.23314844489E+02  0.40659097896E+02  0.00000000000E+00 0. -1.
         11    1    3    3    0    0 -0.99366560938E+00 -0.87378710177E+01  0.74093030885E+01  0.11499371017E+02  0.51100000000E-03 0. -1.
        -11    1    3    3    0    0  0.20394745340E+02  0.16935312491E+01  0.10984922495E+02  0.23226756296E+02  0.51100000000E-03 0.  1.
         12    1    3    3    0    0  0.69759364574E+01 -0.13298552975E+02  0.49206189052E+01  0.15802774791E+02  0.00000000000E+00 0. -1.
</event>
<event>
 7    1  0.2575978E-011  0.5052886E+02  0.7816164E-02  0.1300439E+00
        -11   -1    0    0    0    0  0.00000000000E+00  0.00000000000E+00  0.45593999997E+02  0.45594000000E+02  0.51100000000E-03 0.  1.
         11   -1    0    0    0    0 -0.00000000000E+00 -0.00000000000E+00 -0.45593999997E+02  0.45594000000E+02  0.51100000000E-03 0. -1.
    9900012    2    1    2    0    0 -0.62206104261E+01  0.29686029118E+02  0.27077840933E+02  0.50528858489E+02  0.29999995862E+02 0.  0.
         12    1    1    2    0    0  0.62206104261E+01 -0.29686029118E+02 -0.27077840933E+02  0.40659141511E+02  0.00000000000E+00 0. -1.
         11    1    3    3    0    0 -0.12649202372E+01  0.26707169380E+01  0.13442219817E+02  0.13763212781E+02  0.51100000000E-03 0. -1.
        -11    1    3    3    0    0  0.31267423200E+01 -0.97272988600E+00  0.56979994907E+01  0.65719037899E+01  0.51100000000E-03 0.  1.
        -12    1    3    3    0    0 -0.80824325088E+01  0.27988042066E+02  0.79376216246E+01  0.30193741918E+02  0.00000000000E+00 0.  1.
</event>
<event>
 7    1  0.2575978E-011  0.5052887E+02  0.7816164E-02  0.1300439E+00
        -11   -1    0    0    0    0  0.00000000000E+00  0.00000000000E+00  0.45593999997E+02  0.45594000000E+02  0.51100000000E-03 0.  1.
         11   -1    0    0    0    0 -0.00000000000E+00 -0.00000000000E+00 -0.45593999997E+02  0.45594000000E+02  0.51100000000E-03 0. -1.
    9900012    2    1    2    0    0  0.34186047405E+02 -0.88640501228E+01  0.20147153672E+02  0.50528867903E+02  0.30000024479E+02 0.  0.
         12    1    1    2    0    0 -0.34186047405E+02  0.88640501228E+01 -0.20147153672E+02  0.40659132097E+02  0.00000000000E+00 0. -1.
         11    1    3    3    0    0  0.19040689534E+01 -0.84601878297E+01  0.70202758953E+01  0.11157263580E+02  0.51100000000E-03 0. -1.
        -11    1    3    3    0    0  0.61491340091E+01 -0.99583661389E+00  0.11625189328E+02  0.13188956244E+02  0.51100000000E-03 0.  1.
        -12    1    3    3    0    0  0.26132844443E+02  0.59197432079E+00  0.15016884489E+01  0.26182648079E+02  0.00000000000E+00 0.  1.
</event>
<event>
 7    1  0.2575978E-011  0.5052885E+02  0.7816164E-02  0.1300439E+00
        -11   -1    0    0    0    0  0.00000000000E+00  0.00000000000E+00  0.45593999997E+02  0.45594000000E+02  0.51100000000E-03 0.  1.
         11   -1    0    0    0    0 -0.00000000000E+00 -0.00000000000E+00 -0.45593999997E+02  0.45594000000E+02  0.51100000000E-03 0. -1.
    9900012    2    1    2    0    0  0.23309594834E+02 -0.21594801758E+02  0.25367177819E+02  0.50528851155E+02  0.29999973570E+02 0.  0.
         12    1    1    2    0    0 -0.23309594834E+02  0.21594801758E+02 -0.25367177819E+02  0.40659148845E+02  0.00000000000E+00 0. -1.
         11    1    3    3    0    0  0.80562617060E+01 -0.16970278092E+02  0.18835699851E+02  0.26602204426E+02  0.51100000000E-03 0.  1.
        -11    1    3    3    0    0  0.10275370226E+02 -0.90525749601E+01  0.94651214154E+01  0.16646947779E+02  0.51100000000E-03 0. -1.
         12    1    3    3    0    0  0.49779629026E+01  0.44280512940E+01 -0.29336434474E+01  0.72796989497E+01  0.00000000000E+00 0. -1.
</event>
<event>
 7    1  0.2575978E-011  0.5052886E+02  0.7816164E-02  0.1300439E+00
        -11   -1    0    0    0    0  0.00000000000E+00  0.00000000000E+00  0.45593999997E+02  0.45594000000E+02  0.51100000000E-03 0.  1.
         11   -1    0    0    0    0 -0.00000000000E+00 -0.00000000000E+00 -0.45593999997E+02  0.45594000000E+02  0.51100000000E-03 0. -1.
    9900012    2    1    2    0    0  0.16218334948E+02 -0.14602898936E+02  0.34305780476E+02  0.50528860561E+02  0.30000002162E+02 0.  0.
         12    1    1    2    0    0 -0.16218334948E+02  0.14602898936E+02 -0.34305780476E+02  0.40659139439E+02  0.00000000000E+00 0. -1.
         11    1    3    3    0    0 -0.94134260093E+00  0.61870956624E+00  0.72693221369E+00  0.13406558560E+01  0.51100000000E-03 0. -1.
        -11    1    3    3    0    0 -0.52647932672E+01 -0.11081329933E+02  0.17134843769E+02  0.21074078686E+02  0.51100000000E-03 0.  1.
         12    1    3    3    0    0  0.22424470816E+02 -0.41402785690E+01  0.16444004493E+02  0.28114126019E+02  0.00000000000E+00 0. -1.
</event>
<event>
 7    1  0.2575978E-011  0.5052886E+02  0.7816164E-02  0.1300439E+00
        -11   -1    0    0    0    0  0.00000000000E+00  0.00000000000E+00  0.45593999997E+02  0.45594000000E+02  0.51100000000E-03 0. -1.
         11   -1    0    0    0    0 -0.00000000000E+00 -0.00000000000E+00 -0.45593999997E+02  0.45594000000E+02  0.51100000000E-03 0.  1.
    9900012    2    1    2    0    0 -0.22101853914E+02 -0.17953782101E+02 -0.29023016267E+02  0.50528859436E+02  0.29999998741E+02 0.  0.
         12    1    1    2    0    0  0.22101853914E+02  0.17953782101E+02  0.29023016267E+02  0.40659140564E+02  0.00000000000E+00 0. -1.
         11    1    3    3    0    0 -0.74732563922E+01 -0.12080170199E+02 -0.95389477201E+01  0.17110569745E+02  0.51100000000E-03 0. -1.
        -11    1    3    3    0    0 -0.14570928173E+02 -0.52673335819E+01 -0.16584517745E+01  0.15582272409E+02  0.51100000000E-03 0.  1.
        -12    1    3    3    0    0 -0.57669349267E-01 -0.60627832048E+00 -0.17825616772E+02  0.17836017281E+02  0.00000000000E+00 0.  1.
</event>
<event>
 7    1  0.2575978E-011  0.5052887E+02  0.7816164E-02  0.1300439E+00
        -11   -1    0    0    0    0  0.00000000000E+00  0.00000000000E+00  0.45593999997E+02  0.45594000000E+02  0.51100000000E-03 0.  1.
         11   -1    0    0    0    0 -0.00000000000E+00 -0.00000000000E+00 -0.45593999997E+02  0.45594000000E+02  0.51100000000E-03 0. -1.
    9900012    2    1    2    0    0 -0.16401022125E+02  0.13250524832E+02  0.34764852516E+02  0.50528869347E+02  0.30000028866E+02 0.  0.
         12    1    1    2    0    0  0.16401022125E+02 -0.13250524832E+02 -0.34764852516E+02  0.40659130653E+02  0.00000000000E+00 0. -1.
         11    1    3    3    0    0 -0.95591228327E+01  0.88001118584E+01  0.24831033517E+00  0.12995401353E+02  0.51100000000E-03 0. -1.
        -11    1    3    3    0    0 -0.68263691204E+01  0.11479557879E+01  0.70901246599E+01  0.99089346457E+01  0.51100000000E-03 0.  1.
         12    1    3    3    0    0 -0.15530171813E-01  0.33024571853E+01  0.27426417521E+02  0.27624533347E+02  0.00000000000E+00 0. -1.
</event>
<event>
 7    1  0.2575978E-011  0.5052887E+02  0.7816164E-02  0.1300439E+00
        -11   -1    0    0    0    0  0.00000000000E+00  0.00000000000E+00  0.45593999997E+02  0.45594000000E+02  0.51100000000E-03 0.  1.
         11   -1    0    0    0    0 -0.00000000000E+00 -0.00000000000E+00 -0.45593999997E+02  0.45594000000E+02  0.51100000000E-03 0. -1.
    9900012    2    1    2    0    0  0.58559905821E+01  0.39987519887E+02  0.44576747797E+01  0.50528865272E+02  0.30000016480E+02 0.  0.
         12    1    1    2    0    0 -0.58559905821E+01 -0.39987519887E+02 -0.44576747797E+01  0.40659134728E+02  0.00000000000E+00 0. -1.
         11    1    3    3    0    0 -0.20266710462E+01  0.84232252336E+01  0.70320354584E+01  0.11158299235E+02  0.51100000000E-03 0. -1.
        -11    1    3    3    0    0 -0.21637473245E+01  0.25951033279E+02  0.36358082697E+01  0.26293669063E+02  0.51100000000E-03 0.  1.
         12    1    3    3    0    0  0.10046408953E+02  0.56132613742E+01 -0.62101689484E+01  0.13076896974E+02  0.00000000000E+00 0. -1.
</event>
<event>
 7    1  0.2575978E-011  0.5052886E+02  0.7816164E-02  0.1300439E+00
        -11   -1    0    0    0    0  0.00000000000E+00  0.00000000000E+00  0.45593999997E+02  0.45594000000E+02  0.51100000000E-03 0.  1.
         11   -1    0    0    0    0 -0.00000000000E+00 -0.00000000000E+00 -0.45593999997E+02  0.45594000000E+02  0.51100000000E-03 0. -1.
    9900012    2    1    2    0    0 -0.37155277181E+00  0.34416647116E+02  0.21645369816E+02  0.50528859765E+02  0.29999999741E+02 0.  0.
         12    1    1    2    0    0  0.37155277181E+00 -0.34416647116E+02 -0.21645369816E+02  0.40659140235E+02  0.00000000000E+00 0. -1.
         11    1    3    3    0    0 -0.40849303853E+01  0.11783293474E+02  0.69550896950E+01  0.14279563518E+02  0.51100000000E-03 0. -1.
        -11    1    3    3    0    0  0.12107652790E+02  0.21491784688E+02  0.10912265860E+02  0.26973498320E+02  0.51100000000E-03 0.  1.
         12    1    3    3    0    0 -0.83942751763E+01  0.11415689542E+01  0.37780142611E+01  0.92757979263E+01  0.00000000000E+00 0. -1.
</event>
<event>
 7    1  0.2575978E-011  0.5052885E+02  0.7816164E-02  0.1300439E+00
        -11   -1    0    0    0    0  0.00000000000E+00  0.00000000000E+00  0.45593999997E+02  0.45594000000E+02  0.51100000000E-03 0. -1.
         11   -1    0    0    0    0 -0.00000000000E+00 -0.00000000000E+00 -0.45593999997E+02  0.45594000000E+02  0.51100000000E-03 0.  1.
    9900012    2    1    2    0    0 -0.38443712037E+02  0.12237017344E+02 -0.50500635544E+01  0.50528846903E+02  0.29999960646E+02 0.  0.
         12    1    1    2    0    0  0.38443712037E+02 -0.12237017344E+02  0.50500635544E+01  0.40659153097E+02  0.00000000000E+00 0. -1.
         11    1    3    3    0    0 -0.73661755448E+01 -0.99373525784E+00  0.38318550816E+01  0.83624856082E+01  0.51100000000E-03 0.  1.
        -11    1    3    3    0    0 -0.18364048412E+02  0.12520650955E+01  0.58518887967E+01  0.19314516402E+02  0.51100000000E-03 0. -1.
         12    1    3    3    0    0 -0.12713488081E+02  0.11978687506E+02 -0.14733807433E+02  0.22851844893E+02  0.00000000000E+00 0. -1.
</event>
<event>
 7    1  0.2575978E-011  0.5052886E+02  0.7816164E-02  0.1300439E+00
        -11   -1    0    0    0    0  0.00000000000E+00  0.00000000000E+00  0.45593999997E+02  0.45594000000E+02  0.51100000000E-03 0. -1.
         11   -1    0    0    0    0 -0.00000000000E+00 -0.00000000000E+00 -0.45593999997E+02  0.45594000000E+02  0.51100000000E-03 0.  1.
    9900012    2    1    2    0    0  0.15533388693E+02 -0.36626280050E+02 -0.83901821599E+01  0.50528859438E+02  0.29999998748E+02 0.  0.
         12    1    1    2    0    0 -0.15533388693E+02  0.36626280050E+02  0.83901821599E+01  0.40659140562E+02  0.00000000000E+00 0. -1.
         11    1    3    3    0    0  0.14939468496E+02 -0.15440239234E+02 -0.20836288548E+01  0.21585416744E+02  0.51100000000E-03 0. -1.
        -11    1    3    3    0    0  0.93387990083E+01 -0.76281120616E+01 -0.36025632868E+01  0.12584900597E+02  0.51100000000E-03 0.  1.
        -12    1    3    3    0    0 -0.87448788111E+01 -0.13557928754E+02 -0.27039900183E+01  0.16358542097E+02  0.00000000000E+00 0.  1.
</event>
<event>
 7    1  0.2575978E-011  0.5052880E+02  0.7816164E-02  0.1300439E+00
        -11   -1    0    0    0    0  0.00000000000E+00  0.00000000000E+00  0.45593999997E+02  0.45594000000E+02  0.51100000000E-03 0.  1.
         11   -1    0    0    0    0 -0.00000000000E+00 -0.00000000000E+00 -0.45593999997E+02  0.45594000000E+02  0.51100000000E-03 0. -1.
    9900012    2    1    2    0    0  0.20075033566E+01 -0.49110382184E+01  0.40311563631E+02  0.50528800199E+02  0.29999818684E+02 0.  0.
         12    1    1    2    0    0 -0.20075033566E+01  0.49110382184E+01 -0.40311563631E+02  0.40659199801E+02  0.00000000000E+00 0. -1.
         11    1    3    3    0    0 -0.49446954427E+00 -0.10495367379E+01 -0.13699943949E+01  0.17952471690E+01  0.51100000000E-03 0. -1.
        -11    1    3    3    0    0 -0.10404379721E+02 -0.39021464450E+01  0.11931642462E+02  0.16304660572E+02  0.51100000000E-03 0.  1.
         12    1    3    3    0    0  0.12906352622E+02  0.40644964543E-01  0.29749915564E+02  0.32428892458E+02  0.00000000000E+00 0. -1.
</event>
<event>
 7    1  0.2575978E-011  0.5052887E+02  0.7816164E-02  0.1300439E+00
        -11   -1    0    0    0    0  0.00000000000E+00  0.00000000000E+00  0.45593999997E+02  0.45594000000E+02  0.51100000000E-03 0.  1.
         11   -1    0    0    0    0 -0.00000000000E+00 -0.00000000000E+00 -0.45593999997E+02  0.45594000000E+02  0.51100000000E-03 0. -1.
    9900012    2    1    2    0    0  0.72354532812E+01 -0.40010116769E+02 -0.62628824926E-01  0.50528866334E+02  0.30000019709E+02 0.  0.
         12    1    1    2    0    0 -0.72354532812E+01  0.40010116769E+02  0.62628824926E-01  0.40659133666E+02  0.00000000000E+00 0. -1.
         11    1    3    3    0    0  0.76403735514E+01 -0.64665142690E+01 -0.46013510982E+01  0.11016512469E+02  0.51100000000E-03 0. -1.
        -11    1    3    3    0    0 -0.77693674037E+01 -0.53457032329E+01 -0.20084299532E+01  0.96422717264E+01  0.51100000000E-03 0.  1.
        -12    1    3    3    0    0  0.73644471335E+01 -0.28197899268E+02  0.65471522265E+01  0.29870082139E+02  0.00000000000E+00 0.  1.
</event>
<event>
 7    1  0.2575978E-011  0.5052887E+02  0.7816164E-02  0.1300439E+00
        -11   -1    0    0    0    0  0.00000000000E+00  0.00000000000E+00  0.45593999997E+02  0.45594000000E+02  0.51100000000E-03 0. -1.
         11   -1    0    0    0    0 -0.00000000000E+00 -0.00000000000E+00 -0.45593999997E+02  0.45594000000E+02  0.51100000000E-03 0.  1.
    9900012    2    1    2    0    0 -0.66505784331E+01  0.39951578844E+02  0.35785783385E+01  0.50528867341E+02  0.30000022770E+02 0.  0.
         12    1    1    2    0    0  0.66505784331E+01 -0.39951578844E+02 -0.35785783385E+01  0.40659132659E+02  0.00000000000E+00 0. -1.
         11    1    3    3    0    0 -0.34883302368E+01  0.28379279069E+02 -0.31789056750E+00  0.28594632066E+02  0.51100000000E-03 0. -1.
        -11    1    3    3    0    0 -0.79672650896E+01 -0.79527862058E+00 -0.31685704668E+00  0.80131254665E+01  0.51100000000E-03 0.  1.
         12    1    3    3    0    0  0.48050168933E+01  0.12367578396E+02  0.42133259526E+01  0.13921109809E+02  0.00000000000E+00 0. -1.
</event>
<event>
 7    1  0.2575978E-011  0.5052885E+02  0.7816164E-02  0.1300439E+00
        -11   -1    0    0    0    0  0.00000000000E+00  0.00000000000E+00  0.45593999997E+02  0.45594000000E+02  0.51100000000E-03 0.  1.
         11   -1    0    0    0    0 -0.00000000000E+00 -0.00000000000E+00 -0.45593999997E+02  0.45594000000E+02  0.51100000000E-03 0. -1.
    9900012    2    1    2    0    0  0.81678576181E+01 -0.81218680349E+01  0.38993435415E+02  0.50528847968E+02  0.29999963884E+02 0.  0.
         12    1    1    2    0    0 -0.81678576181E+01  0.81218680349E+01 -0.38993435415E+02  0.40659152032E+02  0.00000000000E+00 0. -1.
         11    1    3    3    0    0  0.14915971485E+02 -0.27944219268E+01  0.36175866681E+02  0.39229941748E+02  0.51100000000E-03 0.  1.
        -11    1    3    3    0    0 -0.52747680512E+01 -0.23784632833E+01  0.47425725428E+01  0.74814610985E+01  0.51100000000E-03 0. -1.
        -12    1    3    3    0    0 -0.14733458154E+01 -0.29489828249E+01 -0.19250038081E+01  0.38174451213E+01  0.00000000000E+00 0.  1.
</event>
<event>
 7    1  0.2575978E-011  0.5052886E+02  0.7816164E-02  0.1300439E+00
        -11   -1    0    0    0    0  0.00000000000E+00  0.00000000000E+00  0.45593999997E+02  0.45594000000E+02  0.51100000000E-03 0.  1.
         11   -1    0    0    0    0 -0.00000000000E+00 -0.00000000000E+00 -0.45593999997E+02  0.45594000000E+02  0.51100000000E-03 0. -1.
    9900012    2    1    2    0    0  0.51864186268E+01  0.28401998894E+02  0.28628541014E+02  0.50528857855E+02  0.29999993936E+02 0.  0.
         12    1    1    2    0    0 -0.51864186268E+01 -0.28401998894E+02 -0.28628541014E+02  0.40659142145E+02  0.00000000000E+00 0. -1.
         11    1    3    3    0    0  0.63399792753E+01  0.41480556101E+01  0.14867783356E+02  0.16686901592E+02  0.51100000000E-03 0.  1.
        -11    1    3    3    0    0 -0.35552222627E+01  0.22337344767E+02  0.17788870850E+02  0.28775692919E+02  0.51100000000E-03 0. -1.
         12    1    3    3    0    0  0.24016616142E+01  0.19165985172E+01 -0.40281131919E+01  0.50662633442E+01  0.00000000000E+00 0. -1.
</event>
<event>
 7    1  0.2575978E-011  0.5052886E+02  0.7816164E-02  0.1300439E+00
        -11   -1    0    0    0    0  0.00000000000E+00  0.00000000000E+00  0.45593999997E+02  0.45594000000E+02  0.51100000000E-03 0.  1.
         11   -1    0    0    0    0 -0.00000000000E+00 -0.00000000000E+00 -0.45593999997E+02  0.45594000000E+02  0.51100000000E-03 0. -1.
    9900012    2    1    2    0    0 -0.40603585823E+02  0.81047601536E+00  0.19641358230E+01  0.50528857331E+02  0.29999992343E+02 0.  0.
         12    1    1    2    0    0  0.40603585823E+02 -0.81047601536E+00 -0.19641358230E+01  0.40659142669E+02  0.00000000000E+00 0. -1.
         11    1    3    3    0    0 -0.29143046438E+01 -0.42229732770E+01  0.88460551257E+00  0.52066497894E+01  0.51100000000E-03 0.  1.
        -11    1    3    3    0    0 -0.32546713297E+02 -0.58983828060E+01 -0.85153322300E+00  0.33087831227E+02  0.51100000000E-03 0. -1.
         12    1    3    3    0    0 -0.51425678818E+01  0.10931832098E+02  0.19310635334E+01  0.12234376315E+02  0.00000000000E+00 0. -1.
</event>
<event>
 7    1  0.2575978E-011  0.5052886E+02  0.7816164E-02  0.1300439E+00
        -11   -1    0    0    0    0  0.00000000000E+00  0.00000000000E+00  0.45593999997E+02  0.45594000000E+02  0.51100000000E-03 0. -1.
         11   -1    0    0    0    0 -0.00000000000E+00 -0.00000000000E+00 -0.45593999997E+02  0.45594000000E+02  0.51100000000E-03 0.  1.
    9900012    2    1    2    0    0  0.32552087975E+02 -0.33272109708E+01 -0.24134144998E+02  0.50528859341E+02  0.29999998452E+02 0.  0.
         12    1    1    2    0    0 -0.32552087975E+02  0.33272109708E+01  0.24134144998E+02  0.40659140659E+02  0.00000000000E+00 0. -1.
         11    1    3    3    0    0  0.23193994323E+01  0.34205677232E+01  0.53139471937E+01  0.67318594990E+01  0.51100000000E-03 0. -1.
        -11    1    3    3    0    0  0.32052095934E+01 -0.13534409872E+01 -0.21365013021E-01  0.34793142669E+01  0.51100000000E-03 0.  1.
        -12    1    3    3    0    0  0.27027478949E+02 -0.53943377068E+01 -0.29426727179E+02  0.40317685575E+02  0.00000000000E+00 0.  1.
</event>
<event>
 7    1  0.2575978E-011  0.5052888E+02  0.7816164E-02  0.1300439E+00
        -11   -1    0    0    0    0  0.00000000000E+00  0.00000000000E+00  0.45593999997E+02  0.45594000000E+02  0.51100000000E-03 0.  1.
         11   -1    0    0    0    0 -0.00000000000E+00 -0.00000000000E+00 -0.45593999997E+02  0.45594000000E+02  0.51100000000E-03 0. -1.
    9900012    2    1    2    0    0  0.29213715173E+01  0.45133119751E+01  0.40302100950E+02  0.50528883709E+02  0.30000072523E+02 0.  0.
         12    1    1    2    0    0 -0.29213715173E+01 -0.45133119751E+01 -0.40302100950E+02  0.40659116291E+02  0.00000000000E+00 0. -1.
         11    1    3    3    0    0 -0.13929431214E+00 -0.13631127694E+01 -0.38891209160E+00  0.14243357061E+01  0.51100000000E-03 0. -1.
        -11    1    3    3    0    0 -0.65742583017E+01 -0.28570278950E+01  0.87823342372E+00  0.72218262800E+01  0.51100000000E-03 0.  1.
        -12    1    3    3    0    0  0.96349241312E+01  0.87334526395E+01  0.39812779618E+02  0.41882721723E+02  0.00000000000E+00 0.  1.
</event>
<event>
 7    1  0.2575978E-011  0.5052877E+02  0.7816164E-02  0.1300439E+00
        -11   -1    0    0    0    0  0.00000000000E+00  0.00000000000E+00  0.45593999997E+02  0.45594000000E+02  0.51100000000E-03 0.  1.
         11   -1    0    0    0    0 -0.00000000000E+00 -0.00000000000E+00 -0.45593999997E+02  0.45594000000E+02  0.51100000000E-03 0. -1.
    9900012    2    1    2    0    0 -0.84953756296E+01 -0.31357685163E+02  0.24447845385E+02  0.50528770177E+02  0.29999727428E+02 0.  0.
         12    1    1    2    0    0  0.84953756296E+01  0.31357685163E+02 -0.24447845385E+02  0.40659229823E+02  0.00000000000E+00 0. -1.
         11    1    3    3    0    0 -0.70262502666E+01 -0.40512022224E+01 -0.76805123793E+00  0.81467990783E+01  0.51100000000E-03 0. -1.
        -11    1    3    3    0    0 -0.93174212418E+01 -0.17337114724E+02  0.86085107975E+01  0.21482465966E+02  0.51100000000E-03 0.  1.
        -12    1    3    3    0    0  0.78482958788E+01 -0.99693682161E+01  0.16607385826E+02  0.20899505133E+02  0.00000000000E+00 0.  1.
</event>
<event>
 7    1  0.2575978E-011  0.5052886E+02  0.7816164E-02  0.1300439E+00
        -11   -1    0    0    0    0  0.00000000000E+00  0.00000000000E+00  0.45593999997E+02  0.45594000000E+02  0.51100000000E-03 0.  1.
         11   -1    0    0    0    0 -0.00000000000E+00 -0.00000000000E+00 -0.45593999997E+02  0.45594000000E+02  0.51100000000E-03 0. -1.
    9900012    2    1    2    0    0 -0.22706408215E+02 -0.21232470233E+02  0.26206245290E+02  0.50528855168E+02  0.29999985770E+02 0.  0.
         12    1    1    2    0    0  0.22706408215E+02  0.21232470233E+02 -0.26206245290E+02  0.40659144832E+02  0.00000000000E+00 0. -1.
         11    1    3    3    0    0 -0.54728868334E+00  0.22176405693E+00  0.35531197126E+01  0.36018556541E+01  0.51100000000E-03 0. -1.
        -11    1    3    3    0    0 -0.20169758242E+02 -0.63164327372E+00  0.11184507134E+02  0.23071872938E+02  0.51100000000E-03 0.  1.
        -12    1    3    3    0    0 -0.19893612897E+01 -0.20822591017E+02  0.11468618443E+02  0.23855126576E+02  0.00000000000E+00 0.  1.
</event>
<event>
 7    1  0.2575978E-011  0.5052886E+02  0.7816164E-02  0.1300439E+00
        -11   -1    0    0    0    0  0.00000000000E+00  0.00000000000E+00  0.45593999997E+02  0.45594000000E+02  0.51100000000E-03 0.  1.
         11   -1    0    0    0    0 -0.00000000000E+00 -0.00000000000E+00 -0.45593999997E+02  0.45594000000E+02  0.51100000000E-03 0. -1.
    9900012    2    1    2    0    0 -0.18064822617E+02  0.10138404098E+02  0.34986289439E+02  0.50528862004E+02  0.30000006547E+02 0.  0.
         12    1    1    2    0    0  0.18064822617E+02 -0.10138404098E+02 -0.34986289439E+02  0.40659137996E+02  0.00000000000E+00 0. -1.
         11    1    3    3    0    0 -0.59084267825E+01 -0.49353152122E+01  0.36736478029E+01  0.85300956460E+01  0.51100000000E-03 0. -1.
        -11    1    3    3    0    0  0.20637696354E+01 -0.25335609434E+01  0.11381077751E+02  0.11840903986E+02  0.51100000000E-03 0.  1.
        -12    1    3    3    0    0 -0.14220165470E+02  0.17607280254E+02  0.19931563885E+02  0.30157862372E+02  0.00000000000E+00 0.  1.
</event>
<event>
 7    1  0.2575978E-011  0.5052881E+02  0.7816164E-02  0.1300439E+00
        -11   -1    0    0    0    0  0.00000000000E+00  0.00000000000E+00  0.45593999997E+02  0.45594000000E+02  0.51100000000E-03 0.  1.
         11   -1    0    0    0    0 -0.00000000000E+00 -0.00000000000E+00 -0.45593999997E+02  0.45594000000E+02  0.51100000000E-03 0. -1.
    9900012    2    1    2    0    0 -0.23474109134E+02  0.66674571776E+01  0.32522001951E+02  0.50528814128E+02  0.29999861024E+02 0.  0.
         12    1    1    2    0    0  0.23474109134E+02 -0.66674571776E+01 -0.32522001951E+02  0.40659185872E+02  0.00000000000E+00 0. -1.
         11    1    3    3    0    0 -0.14932711680E+01 -0.16148901554E+01  0.11239475139E+01  0.24700176660E+01  0.51100000000E-03 0. -1.
        -11    1    3    3    0    0 -0.26172342343E+02  0.12060988845E+02  0.19226728978E+02  0.34642835668E+02  0.51100000000E-03 0.  1.
        -12    1    3    3    0    0  0.41915043769E+01 -0.37786415124E+01  0.12171325459E+02  0.13415960795E+02  0.00000000000E+00 0.  1.
</event>
<event>
 7    1  0.2575978E-011  0.5052886E+02  0.7816164E-02  0.1300439E+00
        -11   -1    0    0    0    0  0.00000000000E+00  0.00000000000E+00  0.45593999997E+02  0.45594000000E+02  0.51100000000E-03 0.  1.
         11   -1    0    0    0    0 -0.00000000000E+00 -0.00000000000E+00 -0.45593999997E+02  0.45594000000E+02  0.51100000000E-03 0. -1.
    9900012    2    1    2    0    0  0.15498652092E+02 -0.30178075248E+02  0.22410740064E+02  0.50528859422E+02  0.29999998698E+02 0.  0.
         12    1    1    2    0    0 -0.15498652092E+02  0.30178075248E+02 -0.22410740064E+02  0.40659140578E+02  0.00000000000E+00 0. -1.
         11    1    3    3    0    0 -0.45562273535E+01 -0.63513043999E+01  0.59142406489E+01  0.98018629857E+01  0.51100000000E-03 0. -1.
        -11    1    3    3    0    0  0.12253364598E+01 -0.13322425901E+02 -0.32099441716E+00  0.13382507949E+02  0.51100000000E-03 0.  1.
        -12    1    3    3    0    0  0.18829542986E+02 -0.10504344947E+02  0.16817493832E+02  0.27344488487E+02  0.00000000000E+00 0.  1.
</event>
<event>
 7    1  0.2575978E-011  0.5052883E+02  0.7816164E-02  0.1300439E+00
        -11   -1    0    0    0    0  0.00000000000E+00  0.00000000000E+00  0.45593999997E+02  0.45594000000E+02  0.51100000000E-03 0.  1.
         11   -1    0    0    0    0 -0.00000000000E+00 -0.00000000000E+00 -0.45593999997E+02  0.45594000000E+02  0.51100000000E-03 0. -1.
    9900012    2    1    2    0    0 -0.22106166952E+02  0.95041944837E+01  0.32774315785E+02  0.50528829997E+02  0.29999909259E+02 0.  0.
         12    1    1    2    0    0  0.22106166952E+02 -0.95041944837E+01 -0.32774315785E+02  0.40659170003E+02  0.00000000000E+00 0. -1.
         11    1    3    3    0    0 -0.16618720173E+01 -0.55176370747E+01  0.78869612319E+01  0.97678193690E+01  0.51100000000E-03 0. -1.
        -11    1    3    3    0    0  0.46168338242E+00  0.94722928833E+01  0.12963654578E+02  0.16062186161E+02  0.51100000000E-03 0.  1.
        -12    1    3    3    0    0 -0.20905978318E+02  0.55495386752E+01  0.11923699976E+02  0.24698824467E+02  0.00000000000E+00 0.  1.
</event>
<event>
 7    1  0.2575978E-011  0.5052889E+02  0.7816164E-02  0.1300439E+00
        -11   -1    0    0    0    0  0.00000000000E+00  0.00000000000E+00  0.45593999997E+02  0.45594000000E+02  0.51100000000E-03 0. -1.
         11   -1    0    0    0    0 -0.00000000000E+00 -0.00000000000E+00 -0.45593999997E+02  0.45594000000E+02  0.51100000000E-03 0.  1.
    9900012    2    1    2    0    0  0.60014322827E+01  0.35951093344E+02 -0.18018470038E+02  0.50528885836E+02  0.30000078988E+02 0.  0.
         12    1    1    2    0    0 -0.60014322827E+01 -0.35951093344E+02  0.18018470038E+02  0.40659114164E+02  0.00000000000E+00 0. -1.
         11    1    3    3    0    0  0.86859529825E+01  0.68444450225E+01  0.57337749259E+00  0.11073435280E+02  0.51100000000E-03 0. -1.
        -11    1    3    3    0    0 -0.33568125026E+01  0.17521420110E+02 -0.36006695247E+00  0.17843710414E+02  0.51100000000E-03 0.  1.
        -12    1    3    3    0    0  0.67229180281E+00  0.11585228211E+02 -0.18231780578E+02  0.21611740143E+02  0.00000000000E+00 0.  1.
</event>
<event>
 7    1  0.2575978E-011  0.5052885E+02  0.7816164E-02  0.1300439E+00
        -11   -1    0    0    0    0  0.00000000000E+00  0.00000000000E+00  0.45593999997E+02  0.45594000000E+02  0.51100000000E-03 0.  1.
         11   -1    0    0    0    0 -0.00000000000E+00 -0.00000000000E+00 -0.45593999997E+02  0.45594000000E+02  0.51100000000E-03 0. -1.
    9900012    2    1    2    0    0  0.51527727133E+01 -0.26159026036E+02  0.30697242413E+02  0.50528850949E+02  0.29999972943E+02 0.  0.
         12    1    1    2    0    0 -0.51527727133E+01  0.26159026036E+02 -0.30697242413E+02  0.40659149051E+02  0.00000000000E+00 0. -1.
         11    1    3    3    0    0 -0.51927086364E+01 -0.16357620758E+02  0.13342532237E+02  0.21738425578E+02  0.51100000000E-03 0. -1.
        -11    1    3    3    0    0 -0.39630717811E+01 -0.25247241013E+01  0.10170556186E+02  0.11203587957E+02  0.51100000000E-03 0.  1.
         12    1    3    3    0    0  0.14308553131E+02 -0.72766811773E+01  0.71841539906E+01  0.17586837414E+02  0.00000000000E+00 0. -1.
</event>
<event>
 7    1  0.2575978E-011  0.5052886E+02  0.7816164E-02  0.1300439E+00
        -11   -1    0    0    0    0  0.00000000000E+00  0.00000000000E+00  0.45593999997E+02  0.45594000000E+02  0.51100000000E-03 0. -1.
         11   -1    0    0    0    0 -0.00000000000E+00 -0.00000000000E+00 -0.45593999997E+02  0.45594000000E+02  0.51100000000E-03 0.  1.
    9900012    2    1    2    0    0  0.25874281343E+02  0.25469291399E+02 -0.18303063983E+02  0.50528863382E+02  0.30000010735E+02 0.  0.
         12    1    1    2    0    0 -0.25874281343E+02 -0.25469291399E+02  0.18303063983E+02  0.40659136618E+02  0.00000000000E+00 0. -1.
         11    1    3    3    0    0  0.49473703335E+01 -0.79445338433E+00  0.14025053401E+01  0.52033307493E+01  0.51100000000E-03 0. -1.
        -11    1    3    3    0    0 -0.13989541241E+01 -0.33097305396E+01 -0.62578759548E+00  0.36473276878E+01  0.51100000000E-03 0.  1.
        -12    1    3    3    0    0  0.22325865134E+02  0.29573475323E+02 -0.19079781727E+02  0.41678204945E+02  0.00000000000E+00 0.  1.
</event>
<event>
 7    1  0.2575978E-011  0.5052883E+02  0.7816164E-02  0.1300439E+00
        -11   -1    0    0    0    0  0.00000000000E+00  0.00000000000E+00  0.45593999997E+02  0.45594000000E+02  0.51100000000E-03 0.  1.
         11   -1    0    0    0    0 -0.00000000000E+00 -0.00000000000E+00 -0.45593999997E+02  0.45594000000E+02  0.51100000000E-03 0. -1.
    9900012    2    1    2    0    0  0.11030885529E+02 -0.31091981167E+02  0.23765017699E+02  0.50528833817E+02  0.29999920871E+02 0.  0.
         12    1    1    2    0    0 -0.11030885529E+02  0.31091981167E+02 -0.23765017699E+02  0.40659166183E+02  0.00000000000E+00 0. -1.
         11    1    3    3    0    0  0.50579509716E+01 -0.21112561318E+02  0.37453906964E+01  0.22030684628E+02  0.51100000000E-03 0. -1.
        -11    1    3    3    0    0 -0.22280829310E+01 -0.11632478756E+02  0.10537683883E+02  0.15853128948E+02  0.51100000000E-03 0.  1.
        -12    1    3    3    0    0  0.82010174881E+01  0.16530589070E+01  0.94819431191E+01  0.12645020241E+02  0.00000000000E+00 0.  1.
</event>
<event>
 7    1  0.2575978E-011  0.5052887E+02  0.7816164E-02  0.1300439E+00
        -11   -1    0    0    0    0  0.00000000000E+00  0.00000000000E+00  0.45593999997E+02  0.45594000000E+02  0.51100000000E-03 0. -1.
         11   -1    0    0    0    0 -0.00000000000E+00 -0.00000000000E+00 -0.45593999997E+02  0.45594000000E+02  0.51100000000E-03 0.  1.
    9900012    2    1    2    0    0 -0.25908731245E+02 -0.30628418392E+02  0.66183300219E+01  0.50528872363E+02  0.30000038034E+02 0.  0.
         12    1    1    2    0    0  0.25908731245E+02  0.30628418392E+02 -0.66183300219E+01  0.40659127637E+02  0.00000000000E+00 0. -1.
         11    1    3    3    0    0  0.29214257734E+01 -0.42189921661E+01  0.61248492620E+01  0.79905195194E+01  0.51100000000E-03 0. -1.
        -11    1    3    3    0    0 -0.15200547604E+02 -0.24348136518E+02 -0.60721863033E+00  0.28709878336E+02  0.51100000000E-03 0.  1.
         12    1    3    3    0    0 -0.13629609414E+02 -0.20612897086E+01  0.11006993903E+01  0.13828474507E+02  0.00000000000E+00 0. -1.
</event>
<event>
 7    1  0.2575978E-011  0.5052885E+02  0.7816164E-02  0.1300439E+00
        -11   -1    0    0    0    0  0.00000000000E+00  0.00000000000E+00  0.45593999997E+02  0.45594000000E+02  0.51100000000E-03 0. -1.
         11   -1    0    0    0    0 -0.00000000000E+00 -0.00000000000E+00 -0.45593999997E+02  0.45594000000E+02  0.51100000000E-03 0.  1.
    9900012    2    1    2    0    0  0.25237063002E+02 -0.13451711616E+02 -0.28901702881E+02  0.50528851905E+02  0.29999975850E+02 0.  0.
         12    1    1    2    0    0 -0.25237063002E+02  0.13451711616E+02  0.28901702881E+02  0.40659148095E+02  0.00000000000E+00 0. -1.
         11    1    3    3    0    0  0.12635251010E+02 -0.70406354999E+00 -0.30353818702E+01  0.13013793333E+02  0.51100000000E-03 0.  1.
        -11    1    3    3    0    0  0.10375904722E+02 -0.14495152593E+02 -0.81967122721E+01  0.19620268597E+02  0.51100000000E-03 0. -1.
        -12    1    3    3    0    0  0.22259072705E+01  0.17475045270E+01 -0.17669608739E+02  0.17894789975E+02  0.00000000000E+00 0.  1.
</event>
<event>
 7    1  0.2575978E-011  0.5052886E+02  0.7816164E-02  0.1300439E+00
        -11   -1    0    0    0    0  0.00000000000E+00  0.00000000000E+00  0.45593999997E+02  0.45594000000E+02  0.51100000000E-03 0.  1.
         11   -1    0    0    0    0 -0.00000000000E+00 -0.00000000000E+00 -0.45593999997E+02  0.45594000000E+02  0.51100000000E-03 0. -1.
    9900012    2    1    2    0    0  0.37119483200E+02 -0.62004436709E+01  0.15390378401E+02  0.50528864716E+02  0.30000014790E+02 0.  0.
         12    1    1    2    0    0 -0.37119483200E+02  0.62004436709E+01 -0.15390378401E+02  0.40659135284E+02  0.00000000000E+00 0. -1.
         11    1    3    3    0    0  0.17241997343E+02 -0.10102818548E+02  0.82920616778E+00  0.20001024927E+02  0.51100000000E-03 0. -1.
        -11    1    3    3    0    0  0.15940335314E+02 -0.43997795673E+01  0.50197624613E+01  0.17281503569E+02  0.51100000000E-03 0.  1.
         12    1    3    3    0    0  0.39371505428E+01  0.83021544446E+01  0.95414097716E+01  0.13246336220E+02  0.00000000000E+00 0. -1.
</event>
<event>
 7    1  0.2575978E-011  0.5052886E+02  0.7816164E-02  0.1300439E+00
        -11   -1    0    0    0    0  0.00000000000E+00  0.00000000000E+00  0.45593999997E+02  0.45594000000E+02  0.51100000000E-03 0.  1.
         11   -1    0    0    0    0 -0.00000000000E+00 -0.00000000000E+00 -0.45593999997E+02  0.45594000000E+02  0.51100000000E-03 0. -1.
    9900012    2    1    2    0    0 -0.34359393451E+01 -0.36658892140E+02  0.17247769600E+02  0.50528860704E+02  0.30000002597E+02 0.  0.
         12    1    1    2    0    0  0.34359393451E+01  0.36658892140E+02 -0.17247769600E+02  0.40659139296E+02  0.00000000000E+00 0. -1.
         11    1    3    3    0    0 -0.36635075094E+00 -0.48677816031E+01  0.68650019781E+01  0.84236430972E+01  0.51100000000E-03 0. -1.
        -11    1    3    3    0    0  0.42967255688E+01 -0.27419934205E+02  0.15832587285E+02  0.31952863140E+02  0.51100000000E-03 0.  1.
         12    1    3    3    0    0 -0.73663141630E+01 -0.43711763312E+01 -0.54498196635E+01  0.10152354467E+02  0.00000000000E+00 0. -1.
</event>
<event>
 7    1  0.2575978E-011  0.5052886E+02  0.7816164E-02  0.1300439E+00
        -11   -1    0    0    0    0  0.00000000000E+00  0.00000000000E+00  0.45593999997E+02  0.45594000000E+02  0.51100000000E-03 0. -1.
         11   -1    0    0    0    0 -0.00000000000E+00 -0.00000000000E+00 -0.45593999997E+02  0.45594000000E+02  0.51100000000E-03 0.  1.
    9900012    2    1    2    0    0 -0.34448967001E+02 -0.21553127510E+02  0.13773725886E+01  0.50528858492E+02  0.29999995873E+02 0.  0.
         12    1    1    2    0    0  0.34448967001E+02  0.21553127510E+02 -0.13773725886E+01  0.40659141508E+02  0.00000000000E+00 0. -1.
         11    1    3    3    0    0 -0.12612720935E+02 -0.34677261710E+01 -0.81058940403E+00  0.13105834946E+02  0.51100000000E-03 0.  1.
        -11    1    3    3    0    0 -0.21731051009E+02 -0.11406729326E+02  0.10555441449E+02  0.26716463020E+02  0.51100000000E-03 0. -1.
         12    1    3    3    0    0 -0.10519505702E+00 -0.66786720125E+01 -0.83674794560E+01  0.10706560526E+02  0.00000000000E+00 0. -1.
</event>
<event>
 7    1  0.2575978E-011  0.5052887E+02  0.7816164E-02  0.1300439E+00
        -11   -1    0    0    0    0  0.00000000000E+00  0.00000000000E+00  0.45593999997E+02  0.45594000000E+02  0.51100000000E-03 0.  1.
         11   -1    0    0    0    0 -0.00000000000E+00 -0.00000000000E+00 -0.45593999997E+02  0.45594000000E+02  0.51100000000E-03 0. -1.
    9900012    2    1    2    0    0 -0.37247614761E+02 -0.15962250043E+02  0.33146462124E+01  0.50528866815E+02  0.30000021172E+02 0.  0.
         12    1    1    2    0    0  0.37247614761E+02  0.15962250043E+02 -0.33146462124E+01  0.40659133185E+02  0.00000000000E+00 0. -1.
         11    1    3    3    0    0 -0.11817996017E+02 -0.11878877516E+02  0.24766790013E+01  0.16938320461E+02  0.51100000000E-03 0. -1.
        -11    1    3    3    0    0 -0.11377092568E+02 -0.72624992995E+01  0.97488031827E+01  0.16649963818E+02  0.51100000000E-03 0.  1.
         12    1    3    3    0    0 -0.14052526175E+02  0.31791267730E+01 -0.89108359716E+01  0.16940582536E+02  0.00000000000E+00 0. -1.
</event>
<event>
 7    1  0.2575978E-011  0.5052886E+02  0.7816164E-02  0.1300439E+00
        -11   -1    0    0    0    0  0.00000000000E+00  0.00000000000E+00  0.45593999997E+02  0.45594000000E+02  0.51100000000E-03 0. -1.
         11   -1    0    0    0    0 -0.00000000000E+00 -0.00000000000E+00 -0.45593999997E+02  0.45594000000E+02  0.51100000000E-03 0.  1.
    9900012    2    1    2    0    0 -0.25250985486E+02  0.13307936438E+02 -0.28956044717E+02  0.50528856306E+02  0.29999989228E+02 0.  0.
         12    1    1    2    0    0  0.25250985486E+02 -0.13307936438E+02  0.28956044717E+02  0.40659143694E+02  0.00000000000E+00 0. -1.
         11    1    3    3    0    0 -0.12702465642E+02  0.12221812579E+01 -0.17543784022E+02  0.21694024949E+02  0.51100000000E-03 0.  1.
        -11    1    3    3    0    0 -0.87016802733E+00 -0.37255367415E+01 -0.80226027115E+01  0.88881365277E+01  0.51100000000E-03 0. -1.
        -12    1    3    3    0    0 -0.11678351817E+02  0.15811291922E+02 -0.33896579841E+01  0.19946694830E+02  0.00000000000E+00 0.  1.
</event>
<event>
 7    1  0.2575978E-011  0.5052879E+02  0.7816164E-02  0.1300439E+00
        -11   -1    0    0    0    0  0.00000000000E+00  0.00000000000E+00  0.45593999997E+02  0.45594000000E+02  0.51100000000E-03 0.  1.
         11   -1    0    0    0    0 -0.00000000000E+00 -0.00000000000E+00 -0.45593999997E+02  0.45594000000E+02  0.51100000000E-03 0. -1.
    9900012    2    1    2    0    0  0.14020325000E+01  0.28816917222E+02  0.28649443362E+02  0.50528794176E+02  0.29999800377E+02 0.  0.
         12    1    1    2    0    0 -0.14020325000E+01 -0.28816917222E+02 -0.28649443362E+02  0.40659205824E+02  0.00000000000E+00 0. -1.
         11    1    3    3    0    0 -0.71327517502E+01  0.89705535976E+01  0.10967370752E+02  0.15862856012E+02  0.51100000000E-03 0. -1.
        -11    1    3    3    0    0 -0.35295320162E+01  0.18669712005E+01  0.11463054812E+02  0.12138566785E+02  0.51100000000E-03 0.  1.
        -12    1    3    3    0    0  0.12064316267E+02  0.17979392423E+02  0.62190177984E+01  0.22527371380E+02  0.00000000000E+00 0.  1.
</event>
<event>
 7    1  0.2575978E-011  0.5052886E+02  0.7816164E-02  0.1300439E+00
        -11   -1    0    0    0    0  0.00000000000E+00  0.00000000000E+00  0.45593999997E+02  0.45594000000E+02  0.51100000000E-03 0.  1.
         11   -1    0    0    0    0 -0.00000000000E+00 -0.00000000000E+00 -0.45593999997E+02  0.45594000000E+02  0.51100000000E-03 0. -1.
    9900012    2    1    2    0    0  0.98795387306E+01 -0.11492376161E+02  0.37729113188E+02  0.50528856166E+02  0.29999988802E+02 0.  0.
         12    1    1    2    0    0 -0.98795387306E+01  0.11492376161E+02 -0.37729113188E+02  0.40659143834E+02  0.00000000000E+00 0. -1.
         11    1    3    3    0    0  0.75637640769E+01 -0.70918857885E+01  0.17163175289E+01  0.10509572644E+02  0.51100000000E-03 0. -1.
        -11    1    3    3    0    0  0.88256297296E+01 -0.37102810419E+01  0.13337136887E+02  0.16417586490E+02  0.51100000000E-03 0.  1.
        -12    1    3    3    0    0 -0.65098550760E+01 -0.69020933067E+00  0.22675658772E+02  0.23601697032E+02  0.00000000000E+00 0.  1.
</event>
<event>
 7    1  0.2575978E-011  0.5052885E+02  0.7816164E-02  0.1300439E+00
        -11   -1    0    0    0    0  0.00000000000E+00  0.00000000000E+00  0.45593999997E+02  0.45594000000E+02  0.51100000000E-03 0.  1.
         11   -1    0    0    0    0 -0.00000000000E+00 -0.00000000000E+00 -0.45593999997E+02  0.45594000000E+02  0.51100000000E-03 0. -1.
    9900012    2    1    2    0    0  0.36303127521E+02 -0.15049934299E+02  0.10428264675E+02  0.50528852267E+02  0.29999976952E+02 0.  0.
         12    1    1    2    0    0 -0.36303127521E+02  0.15049934299E+02 -0.10428264675E+02  0.40659147733E+02  0.00000000000E+00 0. -1.
         11    1    3    3    0    0  0.19098186384E+02  0.11167188472E+01  0.89454541762E+01  0.21118923619E+02  0.51100000000E-03 0. -1.
        -11    1    3    3    0    0  0.23746981091E+01 -0.12586235394E+02 -0.36417042464E+01  0.13315949932E+02  0.51100000000E-03 0.  1.
         12    1    3    3    0    0  0.14830243028E+02 -0.35804177520E+01  0.51245147456E+01  0.16093978716E+02  0.00000000000E+00 0. -1.
</event>
<event>
 7    1  0.2575978E-011  0.5052880E+02  0.7816164E-02  0.1300439E+00
        -11   -1    0    0    0    0  0.00000000000E+00  0.00000000000E+00  0.45593999997E+02  0.45594000000E+02  0.51100000000E-03 0.  1.
         11   -1    0    0    0    0 -0.00000000000E+00 -0.00000000000E+00 -0.45593999997E+02  0.45594000000E+02  0.51100000000E-03 0. -1.
    9900012    2    1    2    0    0  0.36569077069E+02  0.17772415764E+02  0.12144393340E+00  0.50528795527E+02  0.29999804484E+02 0.  0.
         12    1    1    2    0    0 -0.36569077069E+02 -0.17772415764E+02 -0.12144393340E+00  0.40659204473E+02  0.00000000000E+00 0. -1.
         11    1    3    3    0    0 -0.25614742598E+00  0.15945982510E+01  0.12897484481E-01  0.16150918526E+01  0.51100000000E-03 0. -1.
        -11    1    3    3    0    0  0.32700858114E+02  0.18419057251E+02  0.92349645932E+01  0.38650903777E+02  0.51100000000E-03 0.  1.
         12    1    3    3    0    0  0.41243663801E+01 -0.22412397388E+01 -0.91264181443E+01  0.10262799898E+02  0.00000000000E+00 0. -1.
</event>
<event>
 7    1  0.2575978E-011  0.5052886E+02  0.7816164E-02  0.1300439E+00
        -11   -1    0    0    0    0  0.00000000000E+00  0.00000000000E+00  0.45593999997E+02  0.45594000000E+02  0.51100000000E-03 0.  1.
         11   -1    0    0    0    0 -0.00000000000E+00 -0.00000000000E+00 -0.45593999997E+02  0.45594000000E+02  0.51100000000E-03 0. -1.
    9900012    2    1    2    0    0 -0.12220452210E+02  0.63341086680E+01  0.38258406409E+02  0.50528855324E+02  0.29999986243E+02 0.  0.
         12    1    1    2    0    0  0.12220452210E+02 -0.63341086680E+01 -0.38258406409E+02  0.40659144676E+02  0.00000000000E+00 0. -1.
         11    1    3    3    0    0  0.65466101745E+01  0.53135643009E+01  0.72157539656E+01  0.11097710390E+02  0.51100000000E-03 0. -1.
        -11    1    3    3    0    0 -0.74661043755E+01 -0.32531335487E+01  0.26330393659E+01  0.85591173024E+01  0.51100000000E-03 0.  1.
        -12    1    3    3    0    0 -0.11300958009E+02  0.42736779157E+01  0.28409613077E+02  0.30872027631E+02  0.00000000000E+00 0.  1.
</event>
<event>
 7    1  0.2575978E-011  0.5052886E+02  0.7816164E-02  0.1300439E+00
        -11   -1    0    0    0    0  0.00000000000E+00  0.00000000000E+00  0.45593999997E+02  0.45594000000E+02  0.51100000000E-03 0.  1.
         11   -1    0    0    0    0 -0.00000000000E+00 -0.00000000000E+00 -0.45593999997E+02  0.45594000000E+02  0.51100000000E-03 0. -1.
    9900012    2    1    2    0    0  0.28764156495E+01 -0.25921603601E+02  0.31192341078E+02  0.50528862747E+02  0.30000008807E+02 0.  0.
         12    1    1    2    0    0 -0.28764156495E+01  0.25921603601E+02 -0.31192341078E+02  0.40659137253E+02  0.00000000000E+00 0. -1.
         11    1    3    3    0    0 -0.47983283653E+00 -0.45414824892E+01 -0.30267622356E+01  0.54787400598E+01  0.51100000000E-03 0. -1.
        -11    1    3    3    0    0  0.64220549855E+01 -0.21618645489E+02  0.18898122243E+02  0.29423589985E+02  0.51100000000E-03 0.  1.
        -12    1    3    3    0    0 -0.30658064995E+01  0.23852437724E+00  0.15320981070E+02  0.15626532703E+02  0.00000000000E+00 0.  1.
</event>
<event>
 7    1  0.2575978E-011  0.5052888E+02  0.7816164E-02  0.1300439E+00
        -11   -1    0    0    0    0  0.00000000000E+00  0.00000000000E+00  0.45593999997E+02  0.45594000000E+02  0.51100000000E-03 0.  1.
         11   -1    0    0    0    0 -0.00000000000E+00 -0.00000000000E+00 -0.45593999997E+02  0.45594000000E+02  0.51100000000E-03 0. -1.
    9900012    2    1    2    0    0 -0.38015562921E+02  0.67381107801E+01 -0.12750627296E+02  0.50528884693E+02  0.30000075512E+02 0.  0.
         12    1    1    2    0    0  0.38015562921E+02 -0.67381107801E+01  0.12750627296E+02  0.40659115307E+02  0.00000000000E+00 0. -1.
         11    1    3    3    0    0 -0.29670167870E+02  0.29697596607E+01 -0.90502310473E+01  0.31161595212E+02  0.51100000000E-03 0. -1.
        -11    1    3    3    0    0 -0.95942959703E+01  0.55522794781E+01  0.36740355560E+01  0.11678050355E+02  0.51100000000E-03 0.  1.
         12    1    3    3    0    0  0.12489009185E+01 -0.17839283586E+01 -0.73744318050E+01  0.76892391261E+01  0.00000000000E+00 0. -1.
</event>
<event>
 7    1  0.2575978E-011  0.5052883E+02  0.7816164E-02  0.1300439E+00
        -11   -1    0    0    0    0  0.00000000000E+00  0.00000000000E+00  0.45593999997E+02  0.45594000000E+02  0.51100000000E-03 0.  1.
         11   -1    0    0    0    0 -0.00000000000E+00 -0.00000000000E+00 -0.45593999997E+02  0.45594000000E+02  0.51100000000E-03 0. -1.
    9900012    2    1    2    0    0  0.11972460888E+02  0.30719030857E+02  0.23794320350E+02  0.50528826897E+02  0.29999899837E+02 0.  0.
         12    1    1    2    0    0 -0.11972460888E+02 -0.30719030857E+02 -0.23794320350E+02  0.40659173103E+02  0.00000000000E+00 0. -1.
         11    1    3    3    0    0  0.38874166623E+01  0.92458842952E+01  0.89684462421E+01  0.13454791450E+02  0.51100000000E-03 0. -1.
        -11    1    3    3    0    0  0.73718857582E+01  0.16932476042E+02  0.21894140035E+02  0.28642744503E+02  0.51100000000E-03 0.  1.
         12    1    3    3    0    0  0.71315846736E+00  0.45406705194E+01 -0.70682659273E+01  0.84312909441E+01  0.00000000000E+00 0. -1.
</event>
<event>
 7    1  0.2575978E-011  0.5052886E+02  0.7816164E-02  0.1300439E+00
        -11   -1    0    0    0    0  0.00000000000E+00  0.00000000000E+00  0.45593999997E+02  0.45594000000E+02  0.51100000000E-03 0. -1.
         11   -1    0    0    0    0 -0.00000000000E+00 -0.00000000000E+00 -0.45593999997E+02  0.45594000000E+02  0.51100000000E-03 0.  1.
    9900012    2    1    2    0    0 -0.29574745937E+02  0.39460172985E+01 -0.27621175379E+02  0.50528856144E+02  0.29999988735E+02 0.  0.
         12    1    1    2    0    0  0.29574745937E+02 -0.39460172985E+01  0.27621175379E+02  0.40659143856E+02  0.00000000000E+00 0. -1.
         11    1    3    3    0    0 -0.45269602235E+01  0.83072924250E+01 -0.24196727586E+01  0.97652082834E+01  0.51100000000E-03 0. -1.
        -11    1    3    3    0    0 -0.12460853015E+02  0.61043165019E+01 -0.49694725020E+01  0.14738765044E+02  0.51100000000E-03 0.  1.
         12    1    3    3    0    0 -0.12586932699E+02 -0.10465591628E+02 -0.20232030118E+02  0.26024882817E+02  0.00000000000E+00 0. -1.
</event>
<event>
 7    1  0.2575978E-011  0.5052887E+02  0.7816164E-02  0.1300439E+00
        -11   -1    0    0    0    0  0.00000000000E+00  0.00000000000E+00  0.45593999997E+02  0.45594000000E+02  0.51100000000E-03 0. -1.
         11   -1    0    0    0    0 -0.00000000000E+00 -0.00000000000E+00 -0.45593999997E+02  0.45594000000E+02  0.51100000000E-03 0.  1.
    9900012    2    1    2    0    0  0.12616249864E+02  0.38248677740E+02 -0.55707797875E+01  0.50528871912E+02  0.30000036662E+02 0.  0.
         12    1    1    2    0    0 -0.12616249864E+02 -0.38248677740E+02  0.55707797875E+01  0.40659128088E+02  0.00000000000E+00 0. -1.
         11    1    3    3    0    0  0.26651337606E+00  0.35794023073E+01 -0.16580519424E+01  0.39537686784E+01  0.51100000000E-03 0. -1.
        -11    1    3    3    0    0  0.11526363295E+02  0.39686323083E+02 -0.34709757689E+01  0.41471785152E+02  0.51100000000E-03 0.  1.
         12    1    3    3    0    0  0.82337319204E+00 -0.50170476503E+01 -0.44175207618E+00  0.51033180810E+01  0.00000000000E+00 0. -1.
</event>
<event>
 7    1  0.2575978E-011  0.5052886E+02  0.7816164E-02  0.1300439E+00
        -11   -1    0    0    0    0  0.00000000000E+00  0.00000000000E+00  0.45593999997E+02  0.45594000000E+02  0.51100000000E-03 0. -1.
         11   -1    0    0    0    0 -0.00000000000E+00 -0.00000000000E+00 -0.45593999997E+02  0.45594000000E+02  0.51100000000E-03 0.  1.
    9900012    2    1    2    0    0  0.20370492009E+02 -0.33371065377E+02 -0.11161564557E+02  0.50528862374E+02  0.30000007673E+02 0.  0.
         12    1    1    2    0    0 -0.20370492009E+02  0.33371065377E+02  0.11161564557E+02  0.40659137626E+02  0.00000000000E+00 0. -1.
         11    1    3    3    0    0 -0.36910392343E+01  0.36183539042E-01  0.22374963602E+01  0.43164186661E+01  0.51100000000E-03 0. -1.
        -11    1    3    3    0    0 -0.23788779963E+01 -0.41660750889E+01 -0.17163988890E+01  0.50952200712E+01  0.51100000000E-03 0.  1.
        -12    1    3    3    0    0  0.26440409240E+02 -0.29241173827E+02 -0.11682662028E+02  0.41117223637E+02  0.00000000000E+00 0.  1.
</event>
<event>
 7    1  0.2575978E-011  0.5052884E+02  0.7816164E-02  0.1300439E+00
        -11   -1    0    0    0    0  0.00000000000E+00  0.00000000000E+00  0.45593999997E+02  0.45594000000E+02  0.51100000000E-03 0. -1.
         11   -1    0    0    0    0 -0.00000000000E+00 -0.00000000000E+00 -0.45593999997E+02  0.45594000000E+02  0.51100000000E-03 0.  1.
    9900012    2    1    2    0    0  0.23905017132E+01 -0.28760644551E+02 -0.28640493199E+02  0.50528843293E+02  0.29999949673E+02 0.  0.
         12    1    1    2    0    0 -0.23905017132E+01  0.28760644551E+02  0.28640493199E+02  0.40659156707E+02  0.00000000000E+00 0. -1.
         11    1    3    3    0    0  0.94157699174E+00 -0.23054849921E+02 -0.94296086531E+01  0.24926495777E+02  0.51100000000E-03 0. -1.
        -11    1    3    3    0    0 -0.18119998054E+01 -0.36652805632E+01  0.16357438435E+01  0.44037805445E+01  0.51100000000E-03 0.  1.
         12    1    3    3    0    0  0.32609245268E+01 -0.20405140673E+01 -0.20846628389E+02  0.21198566971E+02  0.00000000000E+00 0. -1.
</event>
<event>
 7    1  0.2575978E-011  0.5052886E+02  0.7816164E-02  0.1300439E+00
        -11   -1    0    0    0    0  0.00000000000E+00  0.00000000000E+00  0.45593999997E+02  0.45594000000E+02  0.51100000000E-03 0.  1.
         11   -1    0    0    0    0 -0.00000000000E+00 -0.00000000000E+00 -0.45593999997E+02  0.45594000000E+02  0.51100000000E-03 0. -1.
    9900012    2    1    2    0    0 -0.13534588482E+02 -0.38104273361E+02  0.42479465282E+01  0.50528858550E+02  0.29999996049E+02 0.  0.
         12    1    1    2    0    0  0.13534588482E+02  0.38104273361E+02 -0.42479465282E+01  0.40659141450E+02  0.00000000000E+00 0. -1.
         11    1    3    3    0    0  0.21337385057E+01 -0.43443388052E+01 -0.11902881550E+01  0.49842658254E+01  0.51100000000E-03 0. -1.
        -11    1    3    3    0    0  0.65324504256E+01 -0.12539895163E+02 -0.96833084423E+00  0.14172492517E+02  0.51100000000E-03 0.  1.
         12    1    3    3    0    0 -0.22200777414E+02 -0.21220039393E+02  0.64065655274E+01  0.31372100208E+02  0.00000000000E+00 0. -1.
</event>
<event>
 7    1  0.2575978E-011  0.5052887E+02  0.7816164E-02  0.1300439E+00
        -11   -1    0    0    0    0  0.00000000000E+00  0.00000000000E+00  0.45593999997E+02  0.45594000000E+02  0.51100000000E-03 0.  1.
         11   -1    0    0    0    0 -0.00000000000E+00 -0.00000000000E+00 -0.45593999997E+02  0.45594000000E+02  0.51100000000E-03 0. -1.
    9900012    2    1    2    0    0  0.76210689034E+01 -0.31562440669E+02  0.24472363437E+02  0.50528869114E+02  0.30000028159E+02 0.  0.
         12    1    1    2    0    0 -0.76210689034E+01  0.31562440669E+02 -0.24472363437E+02  0.40659130886E+02  0.00000000000E+00 0. -1.
         11    1    3    3    0    0  0.15807632651E+01  0.19010499243E+00  0.74668937753E-01  0.15939034223E+01  0.51100000000E-03 0. -1.
        -11    1    3    3    0    0  0.50224917389E+01 -0.29447848753E+02  0.61315079734E+01  0.30495845778E+02  0.51100000000E-03 0.  1.
         12    1    3    3    0    0  0.10178138995E+01 -0.23046969081E+01  0.18266186526E+02  0.18439119913E+02  0.00000000000E+00 0. -1.
</event>
<event>
 7    1  0.2575978E-011  0.5052886E+02  0.7816164E-02  0.1300439E+00
        -11   -1    0    0    0    0  0.00000000000E+00  0.00000000000E+00  0.45593999997E+02  0.45594000000E+02  0.51100000000E-03 0. -1.
         11   -1    0    0    0    0 -0.00000000000E+00 -0.00000000000E+00 -0.45593999997E+02  0.45594000000E+02  0.51100000000E-03 0.  1.
    9900012    2    1    2    0    0  0.27568770175E+02 -0.19587678358E+02 -0.22571031928E+02  0.50528859396E+02  0.29999998619E+02 0.  0.
         12    1    1    2    0    0 -0.27568770175E+02  0.19587678358E+02  0.22571031928E+02  0.40659140604E+02  0.00000000000E+00 0. -1.
         11    1    3    3    0    0  0.18166058797E+02 -0.41393058307E+01 -0.97039111418E+01  0.21007271044E+02  0.51100000000E-03 0. -1.
        -11    1    3    3    0    0  0.14231698829E+02 -0.11592009774E+02 -0.14191260847E+02  0.23201461740E+02  0.51100000000E-03 0.  1.
        -12    1    3    3    0    0 -0.48289874519E+01 -0.38563627532E+01  0.13241400610E+01  0.63201266124E+01  0.00000000000E+00 0.  1.
</event>
<event>
 7    1  0.2575978E-011  0.5052886E+02  0.7816164E-02  0.1300439E+00
        -11   -1    0    0    0    0  0.00000000000E+00  0.00000000000E+00  0.45593999997E+02  0.45594000000E+02  0.51100000000E-03 0.  1.
         11   -1    0    0    0    0 -0.00000000000E+00 -0.00000000000E+00 -0.45593999997E+02  0.45594000000E+02  0.51100000000E-03 0. -1.
    9900012    2    1    2    0    0  0.19701600375E+01  0.14394384527E+01  0.40585858837E+02  0.50528862636E+02  0.30000008469E+02 0.  0.
         12    1    1    2    0    0 -0.19701600375E+01 -0.14394384527E+01 -0.40585858837E+02  0.40659137364E+02  0.00000000000E+00 0. -1.
         11    1    3    3    0    0 -0.11166919723E+01  0.52949358998E+01  0.49605251784E-01  0.54116363594E+01  0.51100000000E-03 0. -1.
        -11    1    3    3    0    0  0.97097688124E+01  0.24029628482E+01  0.27058882760E+02  0.28848517766E+02  0.51100000000E-03 0.  1.
        -12    1    3    3    0    0 -0.66229168026E+01 -0.62584602952E+01  0.13477370825E+02  0.16268708511E+02  0.00000000000E+00 0.  1.
</event>
<event>
 7    1  0.2575978E-011  0.5052885E+02  0.7816164E-02  0.1300439E+00
        -11   -1    0    0    0    0  0.00000000000E+00  0.00000000000E+00  0.45593999997E+02  0.45594000000E+02  0.51100000000E-03 0.  1.
         11   -1    0    0    0    0 -0.00000000000E+00 -0.00000000000E+00 -0.45593999997E+02  0.45594000000E+02  0.51100000000E-03 0. -1.
    9900012    2    1    2    0    0 -0.22942884530E+02  0.13188957333E+02  0.30868142610E+02  0.50528846366E+02  0.29999959013E+02 0.  0.
         12    1    1    2    0    0  0.22942884530E+02 -0.13188957333E+02 -0.30868142610E+02  0.40659153634E+02  0.00000000000E+00 0. -1.
         11    1    3    3    0    0 -0.64053608660E+01 -0.11493906635E-02  0.47634941833E+01  0.79824511424E+01  0.51100000000E-03 0.  1.
        -11    1    3    3    0    0  0.25740528850E+01  0.94191344507E+01  0.19790974937E+02  0.22068722919E+02  0.51100000000E-03 0. -1.
         12    1    3    3    0    0 -0.19111576549E+02  0.37709722729E+01  0.63136734896E+01  0.20477672304E+02  0.00000000000E+00 0. -1.
</event>
<event>
 7    1  0.2575978E-011  0.5052886E+02  0.7816164E-02  0.1300439E+00
        -11   -1    0    0    0    0  0.00000000000E+00  0.00000000000E+00  0.45593999997E+02  0.45594000000E+02  0.51100000000E-03 0.  1.
         11   -1    0    0    0    0 -0.00000000000E+00 -0.00000000000E+00 -0.45593999997E+02  0.45594000000E+02  0.51100000000E-03 0. -1.
    9900012    2    1    2    0    0  0.23853570798E+02  0.28599608749E+02  0.16316727865E+02  0.50528855043E+02  0.29999985389E+02 0.  0.
         12    1    1    2    0    0 -0.23853570798E+02 -0.28599608749E+02 -0.16316727865E+02  0.40659144957E+02  0.00000000000E+00 0. -1.
         11    1    3    3    0    0  0.95483463732E-01  0.23281647362E+02  0.79632321607E+01  0.24606041690E+02  0.51100000000E-03 0. -1.
        -11    1    3    3    0    0  0.37312099179E+01  0.20166271413E+01  0.13348451650E+01  0.44464057793E+01  0.51100000000E-03 0.  1.
        -12    1    3    3    0    0  0.20026877417E+02  0.33013342459E+01  0.70186505393E+01  0.21476407573E+02  0.00000000000E+00 0.  1.
</event>
<event>
 7    1  0.2575978E-011  0.5052886E+02  0.7816164E-02  0.1300439E+00
        -11   -1    0    0    0    0  0.00000000000E+00  0.00000000000E+00  0.45593999997E+02  0.45594000000E+02  0.51100000000E-03 0.  1.
         11   -1    0    0    0    0 -0.00000000000E+00 -0.00000000000E+00 -0.45593999997E+02  0.45594000000E+02  0.51100000000E-03 0. -1.
    9900012    2    1    2    0    0 -0.10823971204E+00 -0.37758587312E+02  0.15081211129E+02  0.50528861289E+02  0.30000004375E+02 0.  0.
         12    1    1    2    0    0  0.10823971204E+00  0.37758587312E+02 -0.15081211129E+02  0.40659138711E+02  0.00000000000E+00 0. -1.
         11    1    3    3    0    0  0.51126183723E+01 -0.12473137898E+02 -0.15681619271E+00  0.13481195319E+02  0.51100000000E-03 0. -1.
        -11    1    3    3    0    0 -0.12789700096E+02 -0.87495985514E+01  0.56902309792E+01  0.16507896056E+02  0.51100000000E-03 0.  1.
         12    1    3    3    0    0  0.75688420115E+01 -0.16535850862E+02  0.95477963420E+01  0.20539769914E+02  0.00000000000E+00 0. -1.
</event>
<event>
 7    1  0.2575978E-011  0.5052884E+02  0.7816164E-02  0.1300439E+00
        -11   -1    0    0    0    0  0.00000000000E+00  0.00000000000E+00  0.45593999997E+02  0.45594000000E+02  0.51100000000E-03 0.  1.
         11   -1    0    0    0    0 -0.00000000000E+00 -0.00000000000E+00 -0.45593999997E+02  0.45594000000E+02  0.51100000000E-03 0. -1.
    9900012    2    1    2    0    0  0.53902787291E+01  0.37762792193E+02  0.14074232474E+02  0.50528836228E+02  0.29999928197E+02 0.  0.
         12    1    1    2    0    0 -0.53902787291E+01 -0.37762792193E+02 -0.14074232474E+02  0.40659163772E+02  0.00000000000E+00 0. -1.
         11    1    3    3    0    0  0.69454752731E+01  0.41237833388E+01 -0.25581473945E+01  0.84728586762E+01  0.51100000000E-03 0. -1.
        -11    1    3    3    0    0  0.44506386768E+01  0.18446734048E+02  0.17338574502E+02  0.25704403275E+02  0.51100000000E-03 0.  1.
         12    1    3    3    0    0 -0.60058352208E+01  0.15192274805E+02 -0.70619463400E+00  0.16351574277E+02  0.00000000000E+00 0. -1.
</event>
<event>
 7    1  0.2575978E-011  0.5052889E+02  0.7816164E-02  0.1300439E+00
        -11   -1    0    0    0    0  0.00000000000E+00  0.00000000000E+00  0.45593999997E+02  0.45594000000E+02  0.51100000000E-03 0.  1.
         11   -1    0    0    0    0 -0.00000000000E+00 -0.00000000000E+00 -0.45593999997E+02  0.45594000000E+02  0.51100000000E-03 0. -1.
    9900012    2    1    2    0    0 -0.21011044987E+02 -0.13387088884E+02  0.32132311788E+02  0.50528885142E+02  0.30000076878E+02 0.  0.
         12    1    1    2    0    0  0.21011044987E+02  0.13387088884E+02 -0.32132311788E+02  0.40659114858E+02  0.00000000000E+00 0. -1.
         11    1    3    3    0    0 -0.17987491460E+02 -0.73327851682E+01  0.22476495912E+01  0.19554322189E+02  0.51100000000E-03 0. -1.
        -11    1    3    3    0    0 -0.20288863298E+01 -0.83052219689E+00  0.41210392911E+01  0.46678808852E+01  0.51100000000E-03 0.  1.
         12    1    3    3    0    0 -0.99466719716E+00 -0.52237815185E+01  0.25763622905E+02  0.26306682067E+02  0.00000000000E+00 0. -1.
</event>
<event>
 7    1  0.2575978E-011  0.5052886E+02  0.7816164E-02  0.1300439E+00
        -11   -1    0    0    0    0  0.00000000000E+00  0.00000000000E+00  0.45593999997E+02  0.45594000000E+02  0.51100000000E-03 0.  1.
         11   -1    0    0    0    0 -0.00000000000E+00 -0.00000000000E+00 -0.45593999997E+02  0.45594000000E+02  0.51100000000E-03 0. -1.
    9900012    2    1    2    0    0  0.14353708388E+02 -0.37958907623E+02  0.25015804889E+01  0.50528861823E+02  0.30000005996E+02 0.  0.
         12    1    1    2    0    0 -0.14353708388E+02  0.37958907623E+02 -0.25015804889E+01  0.40659138177E+02  0.00000000000E+00 0. -1.
         11    1    3    3    0    0 -0.29599306994E+01 -0.24187568409E+02  0.35827179795E+01  0.24629972059E+02  0.51100000000E-03 0.  1.
        -11    1    3    3    0    0  0.23381413777E+01  0.18784087602E+01  0.25491952219E+01  0.39362064367E+01  0.51100000000E-03 0. -1.
        -12    1    3    3    0    0  0.14975497709E+02 -0.15649747974E+02 -0.36303327124E+01  0.21962683326E+02  0.00000000000E+00 0.  1.
</event>
<event>
 7    1  0.2575978E-011  0.5052886E+02  0.7816164E-02  0.1300439E+00
        -11   -1    0    0    0    0  0.00000000000E+00  0.00000000000E+00  0.45593999997E+02  0.45594000000E+02  0.51100000000E-03 0. -1.
         11   -1    0    0    0    0 -0.00000000000E+00 -0.00000000000E+00 -0.45593999997E+02  0.45594000000E+02  0.51100000000E-03 0.  1.
    9900012    2    1    2    0    0 -0.25723380979E+02 -0.32319074996E+01 -0.31321364436E+02  0.50528862955E+02  0.30000009438E+02 0.  0.
         12    1    1    2    0    0  0.25723380979E+02  0.32319074996E+01  0.31321364436E+02  0.40659137045E+02  0.00000000000E+00 0. -1.
         11    1    3    3    0    0  0.11296650691E+01  0.17875718672E+01 -0.25702937002E+01  0.33283579007E+01  0.51100000000E-03 0. -1.
        -11    1    3    3    0    0  0.28431891948E+01 -0.41084778804E+01  0.10654686521E+01  0.51086729197E+01  0.51100000000E-03 0.  1.
        -12    1    3    3    0    0 -0.29696235243E+02 -0.91100148645E+00 -0.29816539388E+02  0.42091832134E+02  0.00000000000E+00 0.  1.
</event>
<event>
 7    1  0.2575978E-011  0.5052886E+02  0.7816164E-02  0.1300439E+00
        -11   -1    0    0    0    0  0.00000000000E+00  0.00000000000E+00  0.45593999997E+02  0.45594000000E+02  0.51100000000E-03 0.  1.
         11   -1    0    0    0    0 -0.00000000000E+00 -0.00000000000E+00 -0.45593999997E+02  0.45594000000E+02  0.51100000000E-03 0. -1.
    9900012    2    1    2    0    0  0.36515323161E+02  0.13505253093E+02 -0.11721989880E+02  0.50528859165E+02  0.29999997918E+02 0.  0.
         12    1    1    2    0    0 -0.36515323161E+02 -0.13505253093E+02  0.11721989880E+02  0.40659140835E+02  0.00000000000E+00 0. -1.
         11    1    3    3    0    0  0.50657594358E-01  0.78841435927E+01 -0.30335092542E+00  0.78901399498E+01  0.51100000000E-03 0. -1.
        -11    1    3    3    0    0  0.15143845627E+02 -0.69273292550E-01  0.40664912902E+01  0.15680472278E+02  0.51100000000E-03 0.  1.
        -12    1    3    3    0    0  0.21320819940E+02  0.56903827930E+01 -0.15485130245E+02  0.26958246937E+02  0.00000000000E+00 0.  1.
</event>
<event>
 7    1  0.2575978E-011  0.5052886E+02  0.7816164E-02  0.1300439E+00
        -11   -1    0    0    0    0  0.00000000000E+00  0.00000000000E+00  0.45593999997E+02  0.45594000000E+02  0.51100000000E-03 0.  1.
         11   -1    0    0    0    0 -0.00000000000E+00 -0.00000000000E+00 -0.45593999997E+02  0.45594000000E+02  0.51100000000E-03 0. -1.
    9900012    2    1    2    0    0 -0.75314160487E+01 -0.31403135703E+02  0.24703976368E+02  0.50528860707E+02  0.30000002604E+02 0.  0.
         12    1    1    2    0    0  0.75314160487E+01  0.31403135703E+02 -0.24703976368E+02  0.40659139293E+02  0.00000000000E+00 0. -1.
         11    1    3    3    0    0 -0.12877910170E+02 -0.12780602460E+02  0.40070622820E+01  0.18580659783E+02  0.51100000000E-03 0. -1.
        -11    1    3    3    0    0 -0.29945344293E+01 -0.14858122659E+02  0.12134424006E+02  0.19415851555E+02  0.51100000000E-03 0.  1.
        -12    1    3    3    0    0  0.83410285505E+01 -0.37644105848E+01  0.85624900798E+01  0.12532349369E+02  0.00000000000E+00 0.  1.
</event>
<event>
 7    1  0.2575978E-011  0.5052884E+02  0.7816164E-02  0.1300439E+00
        -11   -1    0    0    0    0  0.00000000000E+00  0.00000000000E+00  0.45593999997E+02  0.45594000000E+02  0.51100000000E-03 0.  1.
         11   -1    0    0    0    0 -0.00000000000E+00 -0.00000000000E+00 -0.45593999997E+02  0.45594000000E+02  0.51100000000E-03 0. -1.
    9900012    2    1    2    0    0 -0.17694029162E+02  0.85726663538E+01  0.35589297284E+02  0.50528839192E+02  0.29999937209E+02 0.  0.
         12    1    1    2    0    0  0.17694029162E+02 -0.85726663538E+01 -0.35589297284E+02  0.40659160808E+02  0.00000000000E+00 0. -1.
         11    1    3    3    0    0  0.35930716613E+00  0.14786349404E+01  0.12044200633E+01  0.19406418723E+01  0.51100000000E-03 0. -1.
        -11    1    3    3    0    0 -0.51145877524E+01  0.14401686439E+02  0.29004085265E+02  0.32784211787E+02  0.51100000000E-03 0.  1.
         12    1    3    3    0    0 -0.12938748575E+02 -0.73076550255E+01  0.53807919563E+01  0.15803985534E+02  0.00000000000E+00 0. -1.
</event>
<event>
 7    1  0.2575978E-011  0.5052886E+02  0.7816164E-02  0.1300439E+00
        -11   -1    0    0    0    0  0.00000000000E+00  0.00000000000E+00  0.45593999997E+02  0.45594000000E+02  0.51100000000E-03 0.  1.
         11   -1    0    0    0    0 -0.00000000000E+00 -0.00000000000E+00 -0.45593999997E+02  0.45594000000E+02  0.51100000000E-03 0. -1.
    9900012    2    1    2    0    0  0.22507597210E+01  0.37235018374E+02 -0.16175692407E+02  0.50528861575E+02  0.30000005242E+02 0.  0.
         12    1    1    2    0    0 -0.22507597210E+01 -0.37235018374E+02  0.16175692407E+02  0.40659138425E+02  0.00000000000E+00 0. -1.
         11    1    3    3    0    0  0.27373409660E+01  0.32036885616E+02 -0.17148348907E+02  0.36440649638E+02  0.51100000000E-03 0.  1.
        -11    1    3    3    0    0 -0.60462625349E+01  0.87828359545E-01 -0.13339398246E+01  0.61922855376E+01  0.51100000000E-03 0. -1.
        -12    1    3    3    0    0  0.55596812900E+01  0.51103043990E+01  0.23065963249E+01  0.78959263993E+01  0.00000000000E+00 0.  1.
</event>
<event>
 7    1  0.2575978E-011  0.5052886E+02  0.7816164E-02  0.1300439E+00
        -11   -1    0    0    0    0  0.00000000000E+00  0.00000000000E+00  0.45593999997E+02  0.45594000000E+02  0.51100000000E-03 0. -1.
         11   -1    0    0    0    0 -0.00000000000E+00 -0.00000000000E+00 -0.45593999997E+02  0.45594000000E+02  0.51100000000E-03 0.  1.
    9900012    2    1    2    0    0  0.10862628420E+02 -0.28003461580E+01 -0.39081033597E+02  0.50528858078E+02  0.29999994615E+02 0.  0.
         12    1    1    2    0    0 -0.10862628420E+02  0.28003461580E+01  0.39081033597E+02  0.40659141922E+02  0.00000000000E+00 0. -1.
         11    1    3    3    0    0 -0.47772207232E+01 -0.12886207159E+01 -0.12165207150E+02  0.13132960308E+02  0.51100000000E-03 0. -1.
        -11    1    3    3    0    0  0.14799679971E+02  0.15927958650E+01 -0.29648648683E+02  0.33175441141E+02  0.51100000000E-03 0.  1.
         12    1    3    3    0    0  0.84016917225E+00 -0.31045213070E+01  0.27328222363E+01  0.42204566292E+01  0.00000000000E+00 0. -1.
</event>
<event>
 7    1  0.2575978E-011  0.5052887E+02  0.7816164E-02  0.1300439E+00
        -11   -1    0    0    0    0  0.00000000000E+00  0.00000000000E+00  0.45593999997E+02  0.45594000000E+02  0.51100000000E-03 0.  1.
         11   -1    0    0    0    0 -0.00000000000E+00 -0.00000000000E+00 -0.45593999997E+02  0.45594000000E+02  0.51100000000E-03 0. -1.
    9900012    2    1    2    0    0 -0.29353915360E+02 -0.26363676558E+02  0.98218589825E+01  0.50528871843E+02  0.30000036454E+02 0.  0.
         12    1    1    2    0    0  0.29353915360E+02  0.26363676558E+02 -0.98218589825E+01  0.40659128157E+02  0.00000000000E+00 0. -1.
         11    1    3    3    0    0 -0.13341444319E+02 -0.34821364375E+01 -0.41535957825E+01  0.14400408636E+02  0.51100000000E-03 0. -1.
        -11    1    3    3    0    0 -0.11910031733E+02 -0.25326206910E+01  0.25751693113E+01  0.12445662726E+02  0.51100000000E-03 0.  1.
         12    1    3    3    0    0 -0.41024393081E+01 -0.20348919429E+02  0.11400285454E+02  0.23682800482E+02  0.00000000000E+00 0. -1.
</event>
<event>
 7    1  0.2575978E-011  0.5052885E+02  0.7816164E-02  0.1300439E+00
        -11   -1    0    0    0    0  0.00000000000E+00  0.00000000000E+00  0.45593999997E+02  0.45594000000E+02  0.51100000000E-03 0. -1.
         11   -1    0    0    0    0 -0.00000000000E+00 -0.00000000000E+00 -0.45593999997E+02  0.45594000000E+02  0.51100000000E-03 0.  1.
    9900012    2    1    2    0    0  0.42946313490E+01 -0.14516011669E+02  0.37736025617E+02  0.50528854872E+02  0.29999984868E+02 0.  0.
         12    1    1    2    0    0 -0.42946313490E+01  0.14516011669E+02 -0.37736025617E+02  0.40659145128E+02  0.00000000000E+00 0. -1.
         11    1    3    3    0    0  0.74233109492E+01  0.29242898352E+00  0.14567798379E+02  0.16352730965E+02  0.51100000000E-03 0. -1.
        -11    1    3    3    0    0 -0.94556485250E+00  0.46518855448E+01  0.84024321322E+01  0.96506475436E+01  0.51100000000E-03 0.  1.
        -12    1    3    3    0    0 -0.21831147477E+01 -0.19460326197E+02  0.14765795106E+02  0.24525476363E+02  0.00000000000E+00 0.  1.
</event>
<event>
 7    1  0.2575978E-011  0.5052885E+02  0.7816164E-02  0.1300439E+00
        -11   -1    0    0    0    0  0.00000000000E+00  0.00000000000E+00  0.45593999997E+02  0.45594000000E+02  0.51100000000E-03 0. -1.
         11   -1    0    0    0    0 -0.00000000000E+00 -0.00000000000E+00 -0.45593999997E+02  0.45594000000E+02  0.51100000000E-03 0.  1.
    9900012    2    1    2    0    0 -0.85641344326E+01  0.35536542386E+02  0.17803826051E+02  0.50528850164E+02  0.29999970558E+02 0.  0.
         12    1    1    2    0    0  0.85641344326E+01 -0.35536542386E+02 -0.17803826051E+02  0.40659149836E+02  0.00000000000E+00 0. -1.
         11    1    3    3    0    0 -0.42897534871E+01  0.73471552134E+01 -0.62673673842E+00  0.85308542310E+01  0.51100000000E-03 0. -1.
        -11    1    3    3    0    0 -0.90196715275E+01  0.20412141543E+02  0.10100754329E+01  0.22338984970E+02  0.51100000000E-03 0.  1.
         12    1    3    3    0    0  0.47452905821E+01  0.77772456294E+01  0.17420487357E+02  0.19659010963E+02  0.00000000000E+00 0. -1.
</event>
<event>
 7    1  0.2575978E-011  0.5052886E+02  0.7816164E-02  0.1300439E+00
        -11   -1    0    0    0    0  0.00000000000E+00  0.00000000000E+00  0.45593999997E+02  0.45594000000E+02  0.51100000000E-03 0.  1.
         11   -1    0    0    0    0 -0.00000000000E+00 -0.00000000000E+00 -0.45593999997E+02  0.45594000000E+02  0.51100000000E-03 0. -1.
    9900012    2    1    2    0    0  0.55017610614E+01  0.39110260343E+02  0.96583644514E+01  0.50528857821E+02  0.29999993833E+02 0.  0.
         12    1    1    2    0    0 -0.55017610614E+01 -0.39110260343E+02 -0.96583644514E+01  0.40659142179E+02  0.00000000000E+00 0. -1.
         11    1    3    3    0    0  0.50725272541E+01  0.11897842810E+02 -0.25285278737E-01  0.12934057209E+02  0.51100000000E-03 0. -1.
        -11    1    3    3    0    0 -0.17052959817E+01  0.30079725219E+02  0.12911869232E+02  0.32778259121E+02  0.51100000000E-03 0.  1.
         12    1    3    3    0    0  0.21345297890E+01 -0.28673076860E+01 -0.32282195023E+01  0.48165414917E+01  0.00000000000E+00 0. -1.
</event>
<event>
 7    1  0.2575978E-011  0.5052888E+02  0.7816164E-02  0.1300439E+00
        -11   -1    0    0    0    0  0.00000000000E+00  0.00000000000E+00  0.45593999997E+02  0.45594000000E+02  0.51100000000E-03 0.  1.
         11   -1    0    0    0    0 -0.00000000000E+00 -0.00000000000E+00 -0.45593999997E+02  0.45594000000E+02  0.51100000000E-03 0. -1.
    9900012    2    1    2    0    0  0.73807250163E+01  0.53823685243E+01  0.39619678681E+02  0.50528881325E+02  0.30000065275E+02 0.  0.
         12    1    1    2    0    0 -0.73807250163E+01 -0.53823685243E+01 -0.39619678681E+02  0.40659118675E+02  0.00000000000E+00 0. -1.
         11    1    3    3    0    0 -0.25080418594E+01 -0.73799996446E+01  0.30550874077E+01  0.83718712396E+01  0.51100000000E-03 0. -1.
        -11    1    3    3    0    0  0.11313672189E+02  0.38742123123E+01  0.19906783903E+02  0.23222591265E+02  0.51100000000E-03 0.  1.
        -12    1    3    3    0    0 -0.14249053134E+01  0.88881558567E+01  0.16657807370E+02  0.18934418820E+02  0.00000000000E+00 0.  1.
</event>
<event>
 7    1  0.2575978E-011  0.5052886E+02  0.7816164E-02  0.1300439E+00
        -11   -1    0    0    0    0  0.00000000000E+00  0.00000000000E+00  0.45593999997E+02  0.45594000000E+02  0.51100000000E-03 0.  1.
         11   -1    0    0    0    0 -0.00000000000E+00 -0.00000000000E+00 -0.45593999997E+02  0.45594000000E+02  0.51100000000E-03 0. -1.
    9900012    2    1    2    0    0  0.25147932491E+02 -0.22871028433E+02  0.22308373247E+02  0.50528856292E+02  0.29999989184E+02 0.  0.
         12    1    1    2    0    0 -0.25147932491E+02  0.22871028433E+02 -0.22308373247E+02  0.40659143708E+02  0.00000000000E+00 0. -1.
         11    1    3    3    0    0 -0.15888475419E+01 -0.18810600116E+01  0.18984207427E-02  0.24622808824E+01  0.51100000000E-03 0. -1.
        -11    1    3    3    0    0 -0.32134590320E+01 -0.57935532471E+01  0.10599658281E+02  0.12499773363E+02  0.51100000000E-03 0.  1.
         12    1    3    3    0    0  0.29950239065E+02 -0.15196415174E+02  0.11706816545E+02  0.35566802047E+02  0.00000000000E+00 0. -1.
</event>
<event>
 7    1  0.2575978E-011  0.5052886E+02  0.7816164E-02  0.1300439E+00
        -11   -1    0    0    0    0  0.00000000000E+00  0.00000000000E+00  0.45593999997E+02  0.45594000000E+02  0.51100000000E-03 0. -1.
         11   -1    0    0    0    0 -0.00000000000E+00 -0.00000000000E+00 -0.45593999997E+02  0.45594000000E+02  0.51100000000E-03 0.  1.
    9900012    2    1    2    0    0 -0.14515956308E+02  0.12225020922E+02 -0.35958333537E+02  0.50528857426E+02  0.29999992632E+02 0.  0.
         12    1    1    2    0    0  0.14515956308E+02 -0.12225020922E+02  0.35958333537E+02  0.40659142574E+02  0.00000000000E+00 0. -1.
         11    1    3    3    0    0 -0.17825479076E+01 -0.15215580987E+01  0.10290587965E+01  0.25596051177E+01  0.51100000000E-03 0. -1.
        -11    1    3    3    0    0 -0.15055063355E+02  0.15988991358E+01 -0.96212173226E+01  0.17938205989E+02  0.51100000000E-03 0.  1.
        -12    1    3    3    0    0  0.23216549545E+01  0.12147679885E+02 -0.27366175011E+02  0.30031046319E+02  0.00000000000E+00 0.  1.
</event>
<event>
 7    1  0.2575978E-011  0.5052886E+02  0.7816164E-02  0.1300439E+00
        -11   -1    0    0    0    0  0.00000000000E+00  0.00000000000E+00  0.45593999997E+02  0.45594000000E+02  0.51100000000E-03 0.  1.
         11   -1    0    0    0    0 -0.00000000000E+00 -0.00000000000E+00 -0.45593999997E+02  0.45594000000E+02  0.51100000000E-03 0. -1.
    9900012    2    1    2    0    0 -0.32740966830E+02  0.80784249347E+01  0.22714178006E+02  0.50528859073E+02  0.29999997639E+02 0.  0.
         12    1    1    2    0    0  0.32740966830E+02 -0.80784249347E+01 -0.22714178006E+02  0.40659140927E+02  0.00000000000E+00 0. -1.
         11    1    3    3    0    0 -0.11822230098E+02  0.84984753249E+01  0.10285267334E+02  0.17826270831E+02  0.51100000000E-03 0. -1.
        -11    1    3    3    0    0 -0.11412748225E+02  0.10342821986E+02  0.35052538148E+01  0.15795935973E+02  0.51100000000E-03 0.  1.
         12    1    3    3    0    0 -0.95059885066E+01 -0.10762872376E+02  0.89236568576E+01  0.16906652270E+02  0.00000000000E+00 0. -1.
</event>
<event>
 7    1  0.2575978E-011  0.5052887E+02  0.7816164E-02  0.1300439E+00
        -11   -1    0    0    0    0  0.00000000000E+00  0.00000000000E+00  0.45593999997E+02  0.45594000000E+02  0.51100000000E-03 0.  1.
         11   -1    0    0    0    0 -0.00000000000E+00 -0.00000000000E+00 -0.45593999997E+02  0.45594000000E+02  0.51100000000E-03 0. -1.
    9900012    2    1    2    0    0  0.31785999375E+02  0.13569183107E+02  0.21417110587E+02  0.50528866803E+02  0.30000021135E+02 0.  0.
         12    1    1    2    0    0 -0.31785999375E+02 -0.13569183107E+02 -0.21417110587E+02  0.40659133197E+02  0.00000000000E+00 0. -1.
         11    1    3    3    0    0 -0.13860009992E+01  0.70982492733E+01  0.45305540990E+01  0.85341702713E+01  0.51100000000E-03 0. -1.
        -11    1    3    3    0    0  0.22369795558E+02  0.11738684723E+02  0.16087105200E+02  0.29949948686E+02  0.51100000000E-03 0.  1.
        -12    1    3    3    0    0  0.10802204816E+02 -0.52677508888E+01  0.79945128766E+00  0.12044747846E+02  0.00000000000E+00 0.  1.
</event>
<event>
 7    1  0.2575978E-011  0.5052887E+02  0.7816164E-02  0.1300439E+00
        -11   -1    0    0    0    0  0.00000000000E+00  0.00000000000E+00  0.45593999997E+02  0.45594000000E+02  0.51100000000E-03 0. -1.
         11   -1    0    0    0    0 -0.00000000000E+00 -0.00000000000E+00 -0.45593999997E+02  0.45594000000E+02  0.51100000000E-03 0.  1.
    9900012    2    1    2    0    0  0.19446428033E+02 -0.35652849765E+02 -0.19686183505E+01  0.50528871655E+02  0.30000035881E+02 0.  0.
         12    1    1    2    0    0 -0.19446428033E+02  0.35652849765E+02  0.19686183505E+01  0.40659128345E+02  0.00000000000E+00 0. -1.
         11    1    3    3    0    0  0.14331858054E+01 -0.16051499005E+01  0.50446504225E+01  0.54844348753E+01  0.51100000000E-03 0. -1.
        -11    1    3    3    0    0  0.81549712481E+01  0.88038940852E+00 -0.12551939157E+01  0.82978402970E+01  0.51100000000E-03 0.  1.
        -12    1    3    3    0    0  0.98582709797E+01 -0.34928089273E+02 -0.57580748573E+01  0.36746596482E+02  0.00000000000E+00 0.  1.
</event>
<event>
 7    1  0.2575978E-011  0.5052884E+02  0.7816164E-02  0.1300439E+00
        -11   -1    0    0    0    0  0.00000000000E+00  0.00000000000E+00  0.45593999997E+02  0.45594000000E+02  0.51100000000E-03 0.  1.
         11   -1    0    0    0    0 -0.00000000000E+00 -0.00000000000E+00 -0.45593999997E+02  0.45594000000E+02  0.51100000000E-03 0. -1.
    9900012    2    1    2    0    0 -0.19745546275E+02  0.20651729255E+02  0.28927269569E+02  0.50528838134E+02  0.29999933991E+02 0.  0.
         12    1    1    2    0    0  0.19745546275E+02 -0.20651729255E+02 -0.28927269569E+02  0.40659161866E+02  0.00000000000E+00 0. -1.
         11    1    3    3    0    0 -0.19490567464E+02  0.55527207368E+01  0.18375887439E+02  0.27356684139E+02  0.51100000000E-03 0. -1.
        -11    1    3    3    0    0 -0.28636966532E+01  0.30652714452E+00  0.72384874887E+01  0.77904055605E+01  0.51100000000E-03 0.  1.
         12    1    3    3    0    0  0.26087178423E+01  0.14792481374E+02  0.33128946416E+01  0.15381748434E+02  0.00000000000E+00 0. -1.
</event>
<event>
 7    1  0.2575978E-011  0.5052887E+02  0.7816164E-02  0.1300439E+00
        -11   -1    0    0    0    0  0.00000000000E+00  0.00000000000E+00  0.45593999997E+02  0.45594000000E+02  0.51100000000E-03 0.  1.
         11   -1    0    0    0    0 -0.00000000000E+00 -0.00000000000E+00 -0.45593999997E+02  0.45594000000E+02  0.51100000000E-03 0. -1.
    9900012    2    1    2    0    0 -0.19998772320E+02 -0.23501557141E+02  0.26474348999E+02  0.50528865266E+02  0.30000016463E+02 0.  0.
         12    1    1    2    0    0  0.19998772320E+02  0.23501557141E+02 -0.26474348999E+02  0.40659134734E+02  0.00000000000E+00 0. -1.
         11    1    3    3    0    0 -0.10997144008E+02 -0.18823902774E+02  0.82509509234E+01  0.23309969613E+02  0.51100000000E-03 0. -1.
        -11    1    3    3    0    0 -0.76845303004E+01  0.36746586391E+01  0.17407955035E+01  0.86939916781E+01  0.51100000000E-03 0.  1.
        -12    1    3    3    0    0 -0.13170980119E+01 -0.83523130068E+01  0.16482602572E+02  0.18524903975E+02  0.00000000000E+00 0.  1.
</event>
<event>
 7    1  0.2575978E-011  0.5052886E+02  0.7816164E-02  0.1300439E+00
        -11   -1    0    0    0    0  0.00000000000E+00  0.00000000000E+00  0.45593999997E+02  0.45594000000E+02  0.51100000000E-03 0.  1.
         11   -1    0    0    0    0 -0.00000000000E+00 -0.00000000000E+00 -0.45593999997E+02  0.45594000000E+02  0.51100000000E-03 0. -1.
    9900012    2    1    2    0    0  0.10176364383E+02 -0.49320711335E+01  0.39054860115E+02  0.50528858146E+02  0.29999994821E+02 0.  0.
         12    1    1    2    0    0 -0.10176364383E+02  0.49320711335E+01 -0.39054860115E+02  0.40659141854E+02  0.00000000000E+00 0. -1.
         11    1    3    3    0    0  0.86622098591E+01  0.61710202890E+01  0.36149242339E+02  0.37681336136E+02  0.51100000000E-03 0. -1.
        -11    1    3    3    0    0 -0.14201730073E+01 -0.30039481734E+01  0.26149521456E+01  0.42283059237E+01  0.51100000000E-03 0.  1.
        -12    1    3    3    0    0  0.29343275317E+01 -0.80991432490E+01  0.29066562967E+00  0.86192160861E+01  0.00000000000E+00 0.  1.
</event>
<event>
 7    1  0.2575978E-011  0.5052885E+02  0.7816164E-02  0.1300439E+00
        -11   -1    0    0    0    0  0.00000000000E+00  0.00000000000E+00  0.45593999997E+02  0.45594000000E+02  0.51100000000E-03 0.  1.
         11   -1    0    0    0    0 -0.00000000000E+00 -0.00000000000E+00 -0.45593999997E+02  0.45594000000E+02  0.51100000000E-03 0. -1.
    9900012    2    1    2    0    0  0.27762137892E+02  0.17739641385E+01  0.29652704376E+02  0.50528854339E+02  0.29999983249E+02 0.  0.
         12    1    1    2    0    0 -0.27762137892E+02 -0.17739641385E+01 -0.29652704376E+02  0.40659145661E+02  0.00000000000E+00 0. -1.
         11    1    3    3    0    0  0.11397871028E+02  0.44790107975E+00  0.25825734023E+02  0.28232616199E+02  0.51100000000E-03 0.  1.
        -11    1    3    3    0    0  0.11188823358E+02  0.36531990576E+01  0.88434859782E+01  0.14722189918E+02  0.51100000000E-03 0. -1.
         12    1    3    3    0    0  0.51754435056E+01 -0.23271359988E+01 -0.50165156255E+01  0.75740482213E+01  0.00000000000E+00 0. -1.
</event>
<event>
 7    1  0.2575978E-011  0.5052886E+02  0.7816164E-02  0.1300439E+00
        -11   -1    0    0    0    0  0.00000000000E+00  0.00000000000E+00  0.45593999997E+02  0.45594000000E+02  0.51100000000E-03 0.  1.
         11   -1    0    0    0    0 -0.00000000000E+00 -0.00000000000E+00 -0.45593999997E+02  0.45594000000E+02  0.51100000000E-03 0. -1.
    9900012    2    1    2    0    0  0.17759971372E+02  0.38191688276E+00  0.36573259961E+02  0.50528858496E+02  0.29999995884E+02 0.  0.
         12    1    1    2    0    0 -0.17759971372E+02 -0.38191688276E+00 -0.36573259961E+02  0.40659141504E+02  0.00000000000E+00 0. -1.
         11    1    3    3    0    0  0.22883757024E+01  0.42529696189E+00 -0.10769283088E+01  0.25646277906E+01  0.51100000000E-03 0. -1.
        -11    1    3    3    0    0  0.22637745452E+01 -0.11095366100E+02  0.87051652146E+01  0.14283267335E+02  0.51100000000E-03 0.  1.
        -12    1    3    3    0    0  0.13207821125E+02  0.11051986021E+02  0.28945023055E+02  0.33680963370E+02  0.00000000000E+00 0.  1.
</event>
<event>
 7    1  0.2575978E-011  0.5052886E+02  0.7816164E-02  0.1300439E+00
        -11   -1    0    0    0    0  0.00000000000E+00  0.00000000000E+00  0.45593999997E+02  0.45594000000E+02  0.51100000000E-03 0. -1.
         11   -1    0    0    0    0 -0.00000000000E+00 -0.00000000000E+00 -0.45593999997E+02  0.45594000000E+02  0.51100000000E-03 0.  1.
    9900012    2    1    2    0    0 -0.21160439016E+02  0.66088517756E+00 -0.34712596495E+02  0.50528864447E+02  0.30000013972E+02 0.  0.
         12    1    1    2    0    0  0.21160439016E+02 -0.66088517756E+00  0.34712596495E+02  0.40659135553E+02  0.00000000000E+00 0. -1.
         11    1    3    3    0    0 -0.16984367099E+02 -0.78871465804E+01 -0.92281011830E+01  0.20876629485E+02  0.51100000000E-03 0. -1.
        -11    1    3    3    0    0  0.30822295307E+01  0.26970354979E+01 -0.23782322130E+01  0.47360456160E+01  0.51100000000E-03 0.  1.
        -12    1    3    3    0    0 -0.72583014471E+01  0.58509962601E+01 -0.23106263099E+02  0.24916189346E+02  0.00000000000E+00 0.  1.
</event>
<event>
 7    1  0.2575978E-011  0.5052886E+02  0.7816164E-02  0.1300439E+00
        -11   -1    0    0    0    0  0.00000000000E+00  0.00000000000E+00  0.45593999997E+02  0.45594000000E+02  0.51100000000E-03 0.  1.
         11   -1    0    0    0    0 -0.00000000000E+00 -0.00000000000E+00 -0.45593999997E+02  0.45594000000E+02  0.51100000000E-03 0. -1.
    9900012    2    1    2    0    0  0.73995409420E+01  0.34889021300E+02  0.19523542202E+02  0.50528859410E+02  0.29999998663E+02 0.  0.
         12    1    1    2    0    0 -0.73995409420E+01 -0.34889021300E+02 -0.19523542202E+02  0.40659140590E+02  0.00000000000E+00 0. -1.
         11    1    3    3    0    0  0.82047948468E+01  0.99800508251E+01  0.28022463588E+01  0.13220161038E+02  0.51100000000E-03 0. -1.
        -11    1    3    3    0    0  0.10629439660E+02  0.11120017710E+02  0.87979997234E+01  0.17721303021E+02  0.51100000000E-03 0.  1.
        -12    1    3    3    0    0 -0.11434693565E+02  0.13788952764E+02  0.79232961198E+01  0.19587395351E+02  0.00000000000E+00 0.  1.
</event>
<event>
 7    1  0.2575978E-011  0.5052886E+02  0.7816164E-02  0.1300439E+00
        -11   -1    0    0    0    0  0.00000000000E+00  0.00000000000E+00  0.45593999997E+02  0.45594000000E+02  0.51100000000E-03 0.  1.
         11   -1    0    0    0    0 -0.00000000000E+00 -0.00000000000E+00 -0.45593999997E+02  0.45594000000E+02  0.51100000000E-03 0. -1.
    9900012    2    1    2    0    0  0.30668761266E+02 -0.20727842310E+02  0.16821100343E+02  0.50528858578E+02  0.29999996135E+02 0.  0.
         12    1    1    2    0    0 -0.30668761266E+02  0.20727842310E+02 -0.16821100343E+02  0.40659141422E+02  0.00000000000E+00 0. -1.
         11    1    3    3    0    0 -0.13546398122E+01 -0.22541459685E+01  0.21241248771E+01  0.33805517039E+01  0.51100000000E-03 0. -1.
        -11    1    3    3    0    0  0.77979176385E+01 -0.10645792754E+02  0.17073531729E+02  0.21578830108E+02  0.51100000000E-03 0.  1.
        -12    1    3    3    0    0  0.24225483439E+02 -0.78279035877E+01 -0.23765562635E+01  0.25569476767E+02  0.00000000000E+00 0.  1.
</event>
<event>
 7    1  0.2575978E-011  0.5052888E+02  0.7816164E-02  0.1300439E+00
        -11   -1    0    0    0    0  0.00000000000E+00  0.00000000000E+00  0.45593999997E+02  0.45594000000E+02  0.51100000000E-03 0. -1.
         11   -1    0    0    0    0 -0.00000000000E+00 -0.00000000000E+00 -0.45593999997E+02  0.45594000000E+02  0.51100000000E-03 0.  1.
    9900012    2    1    2    0    0  0.14611329275E+02  0.24949048038E+02 -0.28587028625E+02  0.50528878677E+02  0.30000057225E+02 0.  0.
         12    1    1    2    0    0 -0.14611329275E+02 -0.24949048038E+02  0.28587028625E+02  0.40659121323E+02  0.00000000000E+00 0. -1.
         11    1    3    3    0    0 -0.85612205745E+01  0.55043897882E+01 -0.49194898438E+01  0.11304609027E+02  0.51100000000E-03 0. -1.
        -11    1    3    3    0    0  0.80896033643E+01  0.11519904455E+02 -0.87191312517E+01  0.16558174153E+02  0.51100000000E-03 0.  1.
        -12    1    3    3    0    0  0.15082946486E+02  0.79247537946E+01 -0.14948407529E+02  0.22666095497E+02  0.00000000000E+00 0.  1.
</event>
<event>
 7    1  0.2575978E-011  0.5052887E+02  0.7816164E-02  0.1300439E+00
        -11   -1    0    0    0    0  0.00000000000E+00  0.00000000000E+00  0.45593999997E+02  0.45594000000E+02  0.51100000000E-03 0.  1.
         11   -1    0    0    0    0 -0.00000000000E+00 -0.00000000000E+00 -0.45593999997E+02  0.45594000000E+02  0.51100000000E-03 0. -1.
    9900012    2    1    2    0    0 -0.24060042911E+02 -0.31872648216E+02 -0.76428838376E+01  0.50528867661E+02  0.30000023742E+02 0.  0.
         12    1    1    2    0    0  0.24060042911E+02  0.31872648216E+02  0.76428838376E+01  0.40659132339E+02  0.00000000000E+00 0. -1.
         11    1    3    3    0    0 -0.11158368677E+02 -0.12777735036E+01  0.72762995260E+00  0.11254836395E+02  0.51100000000E-03 0. -1.
        -11    1    3    3    0    0 -0.12795631907E+02 -0.71466328499E+01 -0.98182013466E+00  0.14688993431E+02  0.51100000000E-03 0.  1.
         12    1    3    3    0    0 -0.10604232746E+00 -0.23448241863E+02 -0.73886936556E+01  0.24585037835E+02  0.00000000000E+00 0. -1.
</event>
<event>
 7    1  0.2575978E-011  0.5052886E+02  0.7816164E-02  0.1300439E+00
        -11   -1    0    0    0    0  0.00000000000E+00  0.00000000000E+00  0.45593999997E+02  0.45594000000E+02  0.51100000000E-03 0.  1.
         11   -1    0    0    0    0 -0.00000000000E+00 -0.00000000000E+00 -0.45593999997E+02  0.45594000000E+02  0.51100000000E-03 0. -1.
    9900012    2    1    2    0    0 -0.20537941417E+02 -0.23012038512E+02  0.26491603480E+02  0.50528855775E+02  0.29999987615E+02 0.  0.
         12    1    1    2    0    0  0.20537941417E+02  0.23012038512E+02 -0.26491603480E+02  0.40659144225E+02  0.00000000000E+00 0. -1.
         11    1    3    3    0    0 -0.17854796161E+00 -0.12036750156E+02  0.77540138526E+01  0.14319216626E+02  0.51100000000E-03 0. -1.
        -11    1    3    3    0    0  0.18844857742E+01 -0.83800971080E+01  0.51128213616E+01  0.99959119999E+01  0.51100000000E-03 0.  1.
         12    1    3    3    0    0 -0.22243879230E+02 -0.25951912486E+01  0.13624768266E+02  0.26213727150E+02  0.00000000000E+00 0. -1.
</event>
<event>
 7    1  0.2575978E-011  0.5052887E+02  0.7816164E-02  0.1300439E+00
        -11   -1    0    0    0    0  0.00000000000E+00  0.00000000000E+00  0.45593999997E+02  0.45594000000E+02  0.51100000000E-03 0.  1.
         11   -1    0    0    0    0 -0.00000000000E+00 -0.00000000000E+00 -0.45593999997E+02  0.45594000000E+02  0.51100000000E-03 0. -1.
    9900012    2    1    2    0    0 -0.98276584320E+01 -0.21625911905E+02  0.32998519151E+02  0.50528865699E+02  0.30000017777E+02 0.  0.
         12    1    1    2    0    0  0.98276584320E+01  0.21625911905E+02 -0.32998519151E+02  0.40659134301E+02  0.00000000000E+00 0. -1.
         11    1    3    3    0    0  0.21666080070E+00  0.17173124047E+01  0.90819144934E+01  0.92453920914E+01  0.51100000000E-03 0. -1.
        -11    1    3    3    0    0  0.42271716461E+01 -0.17608080520E+00 -0.10452692448E+01  0.43580468826E+01  0.51100000000E-03 0.  1.
        -12    1    3    3    0    0 -0.14271490879E+02 -0.23167143505E+02  0.24961873902E+02  0.36925426725E+02  0.00000000000E+00 0.  1.
</event>
<event>
 7    1  0.2575978E-011  0.5052886E+02  0.7816164E-02  0.1300439E+00
        -11   -1    0    0    0    0  0.00000000000E+00  0.00000000000E+00  0.45593999997E+02  0.45594000000E+02  0.51100000000E-03 0.  1.
         11   -1    0    0    0    0 -0.00000000000E+00 -0.00000000000E+00 -0.45593999997E+02  0.45594000000E+02  0.51100000000E-03 0. -1.
    9900012    2    1    2    0    0 -0.18537302716E+02  0.33900173685E+02  0.12661447855E+02  0.50528860442E+02  0.30000001798E+02 0.  0.
         12    1    1    2    0    0  0.18537302716E+02 -0.33900173685E+02 -0.12661447855E+02  0.40659139558E+02  0.00000000000E+00 0. -1.
         11    1    3    3    0    0  0.51608856060E+01  0.14349756687E+02  0.72386808767E+01  0.16880425300E+02  0.51100000000E-03 0. -1.
        -11    1    3    3    0    0 -0.17931672439E+02  0.18923924502E+02  0.80442060796E+01  0.27283127510E+02  0.51100000000E-03 0.  1.
        -12    1    3    3    0    0 -0.57665158835E+01  0.62649249500E+00 -0.26214391011E+01  0.63653076314E+01  0.00000000000E+00 0.  1.
</event>
<event>
 7    1  0.2575978E-011  0.5052885E+02  0.7816164E-02  0.1300439E+00
        -11   -1    0    0    0    0  0.00000000000E+00  0.00000000000E+00  0.45593999997E+02  0.45594000000E+02  0.51100000000E-03 0.  1.
         11   -1    0    0    0    0 -0.00000000000E+00 -0.00000000000E+00 -0.45593999997E+02  0.45594000000E+02  0.51100000000E-03 0. -1.
    9900012    2    1    2    0    0 -0.38712126535E+02 -0.68345530883E+01 -0.10383969471E+02  0.50528847540E+02  0.29999962582E+02 0.  0.
         12    1    1    2    0    0  0.38712126535E+02  0.68345530883E+01  0.10383969471E+02  0.40659152460E+02  0.00000000000E+00 0. -1.
         11    1    3    3    0    0 -0.12715106395E+02  0.10046906405E+02  0.17965380282E+01  0.16304656025E+02  0.51100000000E-03 0. -1.
        -11    1    3    3    0    0 -0.72370573589E+01 -0.87302828131E+00 -0.34273254593E+01  0.80550442370E+01  0.51100000000E-03 0.  1.
        -12    1    3    3    0    0 -0.18759962781E+02 -0.16008431212E+02 -0.87531820400E+01  0.26169147278E+02  0.00000000000E+00 0.  1.
</event>
<event>
 7    1  0.2575978E-011  0.5052885E+02  0.7816164E-02  0.1300439E+00
        -11   -1    0    0    0    0  0.00000000000E+00  0.00000000000E+00  0.45593999997E+02  0.45594000000E+02  0.51100000000E-03 0. -1.
         11   -1    0    0    0    0 -0.00000000000E+00 -0.00000000000E+00 -0.45593999997E+02  0.45594000000E+02  0.51100000000E-03 0.  1.
    9900012    2    1    2    0    0  0.18316671213E+02 -0.36283366925E+02 -0.10878770302E+01  0.50528848064E+02  0.29999964175E+02 0.  0.
         12    1    1    2    0    0 -0.18316671213E+02  0.36283366925E+02  0.10878770302E+01  0.40659151936E+02  0.00000000000E+00 0. -1.
         11    1    3    3    0    0  0.95780526584E+01 -0.14650479158E+02  0.12518216703E+02  0.21519325779E+02  0.51100000000E-03 0. -1.
        -11    1    3    3    0    0  0.22338684656E+00 -0.10490088212E+02 -0.17332518593E+01  0.10634661003E+02  0.51100000000E-03 0.  1.
        -12    1    3    3    0    0  0.85152317076E+01 -0.11142799555E+02 -0.11872841874E+02  0.18374861282E+02  0.00000000000E+00 0.  1.
</event>
<event>
 7    1  0.2575978E-011  0.5052873E+02  0.7816164E-02  0.1300439E+00
        -11   -1    0    0    0    0  0.00000000000E+00  0.00000000000E+00  0.45593999997E+02  0.45594000000E+02  0.51100000000E-03 0. -1.
         11   -1    0    0    0    0 -0.00000000000E+00 -0.00000000000E+00 -0.45593999997E+02  0.45594000000E+02  0.51100000000E-03 0.  1.
    9900012    2    1    2    0    0 -0.36370002388E+02 -0.36518130522E+01 -0.17806283314E+02  0.50528726301E+02  0.29999594060E+02 0.  0.
         12    1    1    2    0    0  0.36370002388E+02  0.36518130522E+01  0.17806283314E+02  0.40659273699E+02  0.00000000000E+00 0. -1.
         11    1    3    3    0    0 -0.32215234074E+01 -0.42562120536E+01 -0.83848926388E+01  0.99398178522E+01  0.51100000000E-03 0. -1.
        -11    1    3    3    0    0 -0.56940435384E+01  0.46987184958E+01 -0.10470099553E+02  0.12811052737E+02  0.51100000000E-03 0.  1.
        -12    1    3    3    0    0 -0.27454435443E+02 -0.40943194943E+01  0.10487088779E+01  0.27777855711E+02  0.00000000000E+00 0.  1.
</event>
<event>
 7    1  0.2575978E-011  0.5052886E+02  0.7816164E-02  0.1300439E+00
        -11   -1    0    0    0    0  0.00000000000E+00  0.00000000000E+00  0.45593999997E+02  0.45594000000E+02  0.51100000000E-03 0. -1.
         11   -1    0    0    0    0 -0.00000000000E+00 -0.00000000000E+00 -0.45593999997E+02  0.45594000000E+02  0.51100000000E-03 0.  1.
    9900012    2    1    2    0    0  0.12185342642E+02  0.10236766689E+02 -0.37415130842E+02  0.50528856090E+02  0.29999988572E+02 0.  0.
         12    1    1    2    0    0 -0.12185342642E+02 -0.10236766689E+02  0.37415130842E+02  0.40659143910E+02  0.00000000000E+00 0. -1.
         11    1    3    3    0    0  0.54775075912E+01  0.11913224032E+02 -0.17344230654E+02  0.21742822573E+02  0.51100000000E-03 0. -1.
        -11    1    3    3    0    0  0.12307154266E+02 -0.51601026808E+01 -0.97074791801E+01  0.16502359168E+02  0.51100000000E-03 0.  1.
         12    1    3    3    0    0 -0.55993192154E+01  0.34836453383E+01 -0.10363421008E+02  0.12283674349E+02  0.00000000000E+00 0. -1.
</event>
<event>
 7    1  0.2575978E-011  0.5052886E+02  0.7816164E-02  0.1300439E+00
        -11   -1    0    0    0    0  0.00000000000E+00  0.00000000000E+00  0.45593999997E+02  0.45594000000E+02  0.51100000000E-03 0.  1.
         11   -1    0    0    0    0 -0.00000000000E+00 -0.00000000000E+00 -0.45593999997E+02  0.45594000000E+02  0.51100000000E-03 0. -1.
    9900012    2    1    2    0    0 -0.18665186930E+02 -0.11128639505E+02  0.34364655074E+02  0.50528864019E+02  0.30000012673E+02 0.  0.
         12    1    1    2    0    0  0.18665186930E+02  0.11128639505E+02 -0.34364655074E+02  0.40659135981E+02  0.00000000000E+00 0. -1.
         11    1    3    3    0    0 -0.21943115463E+02 -0.63018680992E+01  0.15378901716E+02  0.27526795600E+02  0.51100000000E-03 0. -1.
        -11    1    3    3    0    0 -0.33488618321E+01 -0.48841949575E+01  0.11948807710E+02  0.13335825505E+02  0.51100000000E-03 0.  1.
         12    1    3    3    0    0  0.66267903659E+01  0.57423551521E-01  0.70369456482E+01  0.96662429140E+01  0.00000000000E+00 0. -1.
</event>
<event>
 7    1  0.2575978E-011  0.5052892E+02  0.7816164E-02  0.1300439E+00
        -11   -1    0    0    0    0  0.00000000000E+00  0.00000000000E+00  0.45593999997E+02  0.45594000000E+02  0.51100000000E-03 0.  1.
         11   -1    0    0    0    0 -0.00000000000E+00 -0.00000000000E+00 -0.45593999997E+02  0.45594000000E+02  0.51100000000E-03 0. -1.
    9900012    2    1    2    0    0  0.22442559474E+02 -0.33880212371E+02  0.12741817143E+01  0.50528919770E+02  0.30000182133E+02 0.  0.
         12    1    1    2    0    0 -0.22442559474E+02  0.33880212371E+02 -0.12741817143E+01  0.40659080230E+02  0.00000000000E+00 0. -1.
         11    1    3    3    0    0  0.12154401388E+02 -0.98967853083E+01  0.71662334922E+01  0.17234579637E+02  0.51100000000E-03 0. -1.
        -11    1    3    3    0    0  0.88574431047E+00 -0.55790537904E+01  0.69547610208E+01  0.89598596695E+01  0.51100000000E-03 0.  1.
        -12    1    3    3    0    0  0.94024137763E+01 -0.18404373272E+02 -0.12846812799E+02  0.24334480464E+02  0.00000000000E+00 0.  1.
</event>
<event>
 7    1  0.2575978E-011  0.5052887E+02  0.7816164E-02  0.1300439E+00
        -11   -1    0    0    0    0  0.00000000000E+00  0.00000000000E+00  0.45593999997E+02  0.45594000000E+02  0.51100000000E-03 0.  1.
         11   -1    0    0    0    0 -0.00000000000E+00 -0.00000000000E+00 -0.45593999997E+02  0.45594000000E+02  0.51100000000E-03 0. -1.
    9900012    2    1    2    0    0  0.18534989730E+02  0.31676418347E+02 -0.17499232775E+02  0.50528874686E+02  0.30000045096E+02 0.  0.
         12    1    1    2    0    0 -0.18534989730E+02 -0.31676418347E+02  0.17499232775E+02  0.40659125314E+02  0.00000000000E+00 0. -1.
         11    1    3    3    0    0  0.22503030085E+01  0.14541638568E+02 -0.12530549849E+02  0.19327125903E+02  0.51100000000E-03 0. -1.
        -11    1    3    3    0    0  0.26983017181E+01 -0.40011272335E+01  0.18476574504E+01  0.51675612833E+01  0.51100000000E-03 0.  1.
         12    1    3    3    0    0  0.13586385003E+02  0.21135907012E+02 -0.68163403766E+01  0.26034187500E+02  0.00000000000E+00 0. -1.
</event>
<event>
 7    1  0.2575978E-011  0.5052886E+02  0.7816164E-02  0.1300439E+00
        -11   -1    0    0    0    0  0.00000000000E+00  0.00000000000E+00  0.45593999997E+02  0.45594000000E+02  0.51100000000E-03 0.  1.
         11   -1    0    0    0    0 -0.00000000000E+00 -0.00000000000E+00 -0.45593999997E+02  0.45594000000E+02  0.51100000000E-03 0. -1.
    9900012    2    1    2    0    0  0.11564454014E+02  0.87483565725E+00  0.38970033644E+02  0.50528862574E+02  0.30000008279E+02 0.  0.
         12    1    1    2    0    0 -0.11564454014E+02 -0.87483565725E+00 -0.38970033644E+02  0.40659137426E+02  0.00000000000E+00 0. -1.
         11    1    3    3    0    0  0.92160745700E+01  0.22718255485E+01  0.16314684015E+02  0.18875013552E+02  0.51100000000E-03 0. -1.
        -11    1    3    3    0    0 -0.43424299240E+01  0.13164390725E+01  0.23900290471E+02  0.24327219207E+02  0.51100000000E-03 0.  1.
         12    1    3    3    0    0  0.66908093679E+01 -0.27134289637E+01 -0.12449408429E+01  0.73266298147E+01  0.00000000000E+00 0. -1.
</event>
<event>
 7    1  0.2575978E-011  0.5052888E+02  0.7816164E-02  0.1300439E+00
        -11   -1    0    0    0    0  0.00000000000E+00  0.00000000000E+00  0.45593999997E+02  0.45594000000E+02  0.51100000000E-03 0.  1.
         11   -1    0    0    0    0 -0.00000000000E+00 -0.00000000000E+00 -0.45593999997E+02  0.45594000000E+02  0.51100000000E-03 0. -1.
    9900012    2    1    2    0    0 -0.28345906640E+02  0.23506898562E+02  0.17236573026E+02  0.50528878601E+02  0.30000056995E+02 0.  0.
         12    1    1    2    0    0  0.28345906640E+02 -0.23506898562E+02 -0.17236573026E+02  0.40659121399E+02  0.00000000000E+00 0. -1.
         11    1    3    3    0    0  0.23616341196E+01 -0.89834758814E+00 -0.78919254051E+00  0.26471058217E+01  0.51100000000E-03 0. -1.
        -11    1    3    3    0    0 -0.86308264116E+01  0.13766807758E+02  0.16759158504E+02  0.23342783776E+02  0.51100000000E-03 0.  1.
        -12    1    3    3    0    0 -0.22076714349E+02  0.10638438392E+02  0.12666070630E+01  0.24538989003E+02  0.00000000000E+00 0.  1.
</event>
<event>
 7    1  0.2575978E-011  0.5052887E+02  0.7816164E-02  0.1300439E+00
        -11   -1    0    0    0    0  0.00000000000E+00  0.00000000000E+00  0.45593999997E+02  0.45594000000E+02  0.51100000000E-03 0.  1.
         11   -1    0    0    0    0 -0.00000000000E+00 -0.00000000000E+00 -0.45593999997E+02  0.45594000000E+02  0.51100000000E-03 0. -1.
    9900012    2    1    2    0    0  0.21253351045E+01  0.54514556719E+01  0.40235918279E+02  0.50528873866E+02  0.30000042602E+02 0.  0.
         12    1    1    2    0    0 -0.21253351045E+01 -0.54514556719E+01 -0.40235918279E+02  0.40659126134E+02  0.00000000000E+00 0. -1.
         11    1    3    3    0    0 -0.67099032641E+01 -0.14646104750E+01  0.69956924748E+01  0.98034483280E+01  0.51100000000E-03 0. -1.
        -11    1    3    3    0    0 -0.29054719729E+01 -0.42764588967E+01  0.20351885753E+01  0.55562452140E+01  0.51100000000E-03 0.  1.
        -12    1    3    3    0    0  0.11740710341E+02  0.11192525044E+02  0.31205037229E+02  0.35169180324E+02  0.00000000000E+00 0.  1.
</event>
<event>
 7    1  0.2575978E-011  0.5052886E+02  0.7816164E-02  0.1300439E+00
        -11   -1    0    0    0    0  0.00000000000E+00  0.00000000000E+00  0.45593999997E+02  0.45594000000E+02  0.51100000000E-03 0.  1.
         11   -1    0    0    0    0 -0.00000000000E+00 -0.00000000000E+00 -0.45593999997E+02  0.45594000000E+02  0.51100000000E-03 0. -1.
    9900012    2    1    2    0    0  0.26294380943E+01  0.11741477301E+02  0.38837986494E+02  0.50528862912E+02  0.30000009306E+02 0.  0.
         12    1    1    2    0    0 -0.26294380943E+01 -0.11741477301E+02 -0.38837986494E+02  0.40659137088E+02  0.00000000000E+00 0. -1.
         11    1    3    3    0    0  0.13901793895E+01 -0.35372493073E+01  0.18802208668E+02  0.19182486347E+02  0.51100000000E-03 0. -1.
        -11    1    3    3    0    0 -0.52122816625E+01  0.17148896480E+01  0.14216152681E+02  0.15238363558E+02  0.51100000000E-03 0.  1.
         12    1    3    3    0    0  0.64515403673E+01  0.13563836960E+02  0.58196251451E+01  0.16108013006E+02  0.00000000000E+00 0. -1.
</event>
<event>
 7    1  0.2575978E-011  0.5052886E+02  0.7816164E-02  0.1300439E+00
        -11   -1    0    0    0    0  0.00000000000E+00  0.00000000000E+00  0.45593999997E+02  0.45594000000E+02  0.51100000000E-03 0.  1.
         11   -1    0    0    0    0 -0.00000000000E+00 -0.00000000000E+00 -0.45593999997E+02  0.45594000000E+02  0.51100000000E-03 0. -1.
    9900012    2    1    2    0    0  0.24341332896E+02 -0.21414355545E+02  0.24537539106E+02  0.50528856675E+02  0.29999990349E+02 0.  0.
         12    1    1    2    0    0 -0.24341332896E+02  0.21414355545E+02 -0.24537539106E+02  0.40659143325E+02  0.00000000000E+00 0. -1.
         11    1    3    3    0    0  0.43422426453E+01  0.54750022191E+01  0.64218233434E+01  0.94905498157E+01  0.51100000000E-03 0. -1.
        -11    1    3    3    0    0  0.68300766561E+01 -0.10961798873E+02  0.15548174704E+02  0.20212786016E+02  0.51100000000E-03 0.  1.
        -12    1    3    3    0    0  0.13169013594E+02 -0.15927558892E+02  0.25675410593E+01  0.20825520843E+02  0.00000000000E+00 0.  1.
</event>
<event>
 7    1  0.2575978E-011  0.5052885E+02  0.7816164E-02  0.1300439E+00
        -11   -1    0    0    0    0  0.00000000000E+00  0.00000000000E+00  0.45593999997E+02  0.45594000000E+02  0.51100000000E-03 0. -1.
         11   -1    0    0    0    0 -0.00000000000E+00 -0.00000000000E+00 -0.45593999997E+02  0.45594000000E+02  0.51100000000E-03 0.  1.
    9900012    2    1    2    0    0  0.35140273783E+02  0.57775339492E+01 -0.19620080347E+02  0.50528852285E+02  0.29999977006E+02 0.  0.
         12    1    1    2    0    0 -0.35140273783E+02 -0.57775339492E+01  0.19620080347E+02  0.40659147715E+02  0.00000000000E+00 0. -1.
         11    1    3    3    0    0  0.15177557340E+02  0.16112389248E+01 -0.20679792529E+01  0.15402301001E+02  0.51100000000E-03 0. -1.
        -11    1    3    3    0    0  0.17098505078E+02  0.66516416832E+01 -0.12500986094E+01  0.18389289268E+02  0.51100000000E-03 0.  1.
        -12    1    3    3    0    0  0.28642113641E+01 -0.24853466589E+01 -0.16302002485E+02  0.16737262015E+02  0.00000000000E+00 0.  1.
</event>
<event>
 7    1  0.2575978E-011  0.5052887E+02  0.7816164E-02  0.1300439E+00
        -11   -1    0    0    0    0  0.00000000000E+00  0.00000000000E+00  0.45593999997E+02  0.45594000000E+02  0.51100000000E-03 0.  1.
         11   -1    0    0    0    0 -0.00000000000E+00 -0.00000000000E+00 -0.45593999997E+02  0.45594000000E+02  0.51100000000E-03 0. -1.
    9900012    2    1    2    0    0 -0.71961515845E+01 -0.36002068237E+02 -0.17470877323E+02  0.50528867331E+02  0.30000022739E+02 0.  0.
         12    1    1    2    0    0  0.71961515845E+01  0.36002068237E+02  0.17470877323E+02  0.40659132669E+02  0.00000000000E+00 0. -1.
         11    1    3    3    0    0 -0.15622097765E+01 -0.10197989737E+01  0.16457480878E+01  0.24877653350E+01  0.51100000000E-03 0. -1.
        -11    1    3    3    0    0 -0.15379305410E+02 -0.26005927363E+02 -0.95064958362E+01  0.31673407714E+02  0.51100000000E-03 0.  1.
        -12    1    3    3    0    0  0.97453636023E+01 -0.89763419005E+01 -0.96101295744E+01  0.16367694281E+02  0.00000000000E+00 0.  1.
</event>
<event>
 7    1  0.2575978E-011  0.5052886E+02  0.7816164E-02  0.1300439E+00
        -11   -1    0    0    0    0  0.00000000000E+00  0.00000000000E+00  0.45593999997E+02  0.45594000000E+02  0.51100000000E-03 0.  1.
         11   -1    0    0    0    0 -0.00000000000E+00 -0.00000000000E+00 -0.45593999997E+02  0.45594000000E+02  0.51100000000E-03 0. -1.
    9900012    2    1    2    0    0  0.17156663837E+02 -0.91054777554E+01  0.35719814758E+02  0.50528855819E+02  0.29999987749E+02 0.  0.
         12    1    1    2    0    0 -0.17156663837E+02  0.91054777554E+01 -0.35719814758E+02  0.40659144181E+02  0.00000000000E+00 0. -1.
         11    1    3    3    0    0  0.59298881849E+01 -0.54878222628E+01 -0.11416554034E+01  0.81598495326E+01  0.51100000000E-03 0. -1.
        -11    1    3    3    0    0  0.93830655462E+01 -0.31910021046E+01  0.62885196880E+01  0.11737542060E+02  0.51100000000E-03 0.  1.
        -12    1    3    3    0    0  0.18437101057E+01 -0.42665338802E+00  0.30572950473E+02  0.30631464227E+02  0.00000000000E+00 0.  1.
</event>
<event>
 7    1  0.2575978E-011  0.5052887E+02  0.7816164E-02  0.1300439E+00
        -11   -1    0    0    0    0  0.00000000000E+00  0.00000000000E+00  0.45593999997E+02  0.45594000000E+02  0.51100000000E-03 0.  1.
         11   -1    0    0    0    0 -0.00000000000E+00 -0.00000000000E+00 -0.45593999997E+02  0.45594000000E+02  0.51100000000E-03 0. -1.
    9900012    2    1    2    0    0 -0.17950028596E+02 -0.33900928096E+02  0.13479174343E+02  0.50528873185E+02  0.30000040533E+02 0.  0.
         12    1    1    2    0    0  0.17950028596E+02  0.33900928096E+02 -0.13479174343E+02  0.40659126815E+02  0.00000000000E+00 0. -1.
         11    1    3    3    0    0 -0.12232268032E+02 -0.29046305363E+02  0.65851125473E+01  0.32197514562E+02  0.51100000000E-03 0. -1.
        -11    1    3    3    0    0 -0.95201712165E+01 -0.20056779500E+01 -0.27235858877E+00  0.97329637569E+01  0.51100000000E-03 0.  1.
         12    1    3    3    0    0  0.38024106524E+01 -0.28489447829E+01  0.71664203841E+01  0.85983948657E+01  0.00000000000E+00 0. -1.
</event>
<event>
 7    1  0.2575978E-011  0.5052885E+02  0.7816164E-02  0.1300439E+00
        -11   -1    0    0    0    0  0.00000000000E+00  0.00000000000E+00  0.45593999997E+02  0.45594000000E+02  0.51100000000E-03 0.  1.
         11   -1    0    0    0    0 -0.00000000000E+00 -0.00000000000E+00 -0.45593999997E+02  0.45594000000E+02  0.51100000000E-03 0. -1.
    9900012    2    1    2    0    0  0.45105149648E+01  0.20965817871E+02  0.34543541859E+02  0.50528849143E+02  0.29999967456E+02 0.  0.
         12    1    1    2    0    0 -0.45105149648E+01 -0.20965817871E+02 -0.34543541859E+02  0.40659150857E+02  0.00000000000E+00 0. -1.
         11    1    3    3    0    0  0.44251329063E+00  0.66843234489E+01  0.17864315485E+02  0.19079039965E+02  0.51100000000E-03 0. -1.
        -11    1    3    3    0    0  0.32544731774E+01 -0.55061119005E+01  0.67384133499E+01  0.92905908670E+01  0.51100000000E-03 0.  1.
         12    1    3    3    0    0  0.81352849673E+00  0.19787606322E+02  0.99408130242E+01  0.22159218311E+02  0.00000000000E+00 0. -1.
</event>
<event>
 7    1  0.2575978E-011  0.5052884E+02  0.7816164E-02  0.1300439E+00
        -11   -1    0    0    0    0  0.00000000000E+00  0.00000000000E+00  0.45593999997E+02  0.45594000000E+02  0.51100000000E-03 0.  1.
         11   -1    0    0    0    0 -0.00000000000E+00 -0.00000000000E+00 -0.45593999997E+02  0.45594000000E+02  0.51100000000E-03 0. -1.
    9900012    2    1    2    0    0  0.64296047457E+01 -0.38035617821E+02  0.12849888828E+02  0.50528835189E+02  0.29999925042E+02 0.  0.
         12    1    1    2    0    0 -0.64296047457E+01  0.38035617821E+02 -0.12849888828E+02  0.40659164811E+02  0.00000000000E+00 0. -1.
         11    1    3    3    0    0  0.27831673964E+00 -0.42213438195E+00 -0.50923941670E+01  0.51174345386E+01  0.51100000000E-03 0. -1.
        -11    1    3    3    0    0 -0.12923294546E+01 -0.32352389554E+01 -0.28934283792E+01  0.45286658702E+01  0.51100000000E-03 0.  1.
        -12    1    3    3    0    0  0.74436174606E+01 -0.34378244484E+02  0.20835711374E+02  0.40882734781E+02  0.00000000000E+00 0.  1.
</event>
<event>
 7    1  0.2575978E-011  0.5052884E+02  0.7816164E-02  0.1300439E+00
        -11   -1    0    0    0    0  0.00000000000E+00  0.00000000000E+00  0.45593999997E+02  0.45594000000E+02  0.51100000000E-03 0.  1.
         11   -1    0    0    0    0 -0.00000000000E+00 -0.00000000000E+00 -0.45593999997E+02  0.45594000000E+02  0.51100000000E-03 0. -1.
    9900012    2    1    2    0    0  0.81800841353E+01  0.19286776785E+02  0.34846426072E+02  0.50528844264E+02  0.29999952624E+02 0.  0.
         12    1    1    2    0    0 -0.81800841353E+01 -0.19286776785E+02 -0.34846426072E+02  0.40659155736E+02  0.00000000000E+00 0. -1.
         11    1    3    3    0    0  0.77922531689E+01  0.48794733496E+01  0.41984637508E+01  0.10107203755E+02  0.51100000000E-03 0. -1.
        -11    1    3    3    0    0  0.89624106342E+01  0.99473606596E+01  0.75228076898E+01  0.15357975917E+02  0.51100000000E-03 0.  1.
        -12    1    3    3    0    0 -0.85745796678E+01  0.44599427754E+01  0.23125154631E+02  0.25063664592E+02  0.00000000000E+00 0.  1.
</event>
<event>
 7    1  0.2575978E-011  0.5052887E+02  0.7816164E-02  0.1300439E+00
        -11   -1    0    0    0    0  0.00000000000E+00  0.00000000000E+00  0.45593999997E+02  0.45594000000E+02  0.51100000000E-03 0. -1.
         11   -1    0    0    0    0 -0.00000000000E+00 -0.00000000000E+00 -0.45593999997E+02  0.45594000000E+02  0.51100000000E-03 0.  1.
    9900012    2    1    2    0    0  0.91260535891E+01  0.39428494775E+02 -0.39081264001E+01  0.50528874256E+02  0.30000043789E+02 0.  0.
         12    1    1    2    0    0 -0.91260535891E+01 -0.39428494775E+02  0.39081264001E+01  0.40659125744E+02  0.00000000000E+00 0. -1.
         11    1    3    3    0    0 -0.30545106030E+01  0.11264381884E+01 -0.94043729711E+01  0.99519409794E+01  0.51100000000E-03 0. -1.
        -11    1    3    3    0    0  0.11158290899E+01  0.32488163150E+01  0.72109241427E+00  0.35099653185E+01  0.51100000000E-03 0.  1.
         12    1    3    3    0    0  0.11064735102E+02  0.35053240271E+02  0.47751541567E+01  0.37066967958E+02  0.00000000000E+00 0. -1.
</event>
<event>
 7    1  0.2575978E-011  0.5052887E+02  0.7816164E-02  0.1300439E+00
        -11   -1    0    0    0    0  0.00000000000E+00  0.00000000000E+00  0.45593999997E+02  0.45594000000E+02  0.51100000000E-03 0.  1.
         11   -1    0    0    0    0 -0.00000000000E+00 -0.00000000000E+00 -0.45593999997E+02  0.45594000000E+02  0.51100000000E-03 0. -1.
    9900012    2    1    2    0    0 -0.28611783675E+02 -0.27924360962E+02  0.74000771861E+01  0.50528865201E+02  0.30000016265E+02 0.  0.
         12    1    1    2    0    0  0.28611783675E+02  0.27924360962E+02 -0.74000771861E+01  0.40659134799E+02  0.00000000000E+00 0. -1.
         11    1    3    3    0    0 -0.12038656915E+02  0.13953512534E+01 -0.47320688705E+01  0.13010332105E+02  0.51100000000E-03 0. -1.
        -11    1    3    3    0    0  0.10446762726E+01 -0.13075644624E+01 -0.96183451531E+00  0.19303365597E+01  0.51100000000E-03 0.  1.
         12    1    3    3    0    0 -0.17617803033E+02 -0.28012147753E+02  0.13093980572E+02  0.35588196536E+02  0.00000000000E+00 0. -1.
</event>
<event>
 7    1  0.2575978E-011  0.5052886E+02  0.7816164E-02  0.1300439E+00
        -11   -1    0    0    0    0  0.00000000000E+00  0.00000000000E+00  0.45593999997E+02  0.45594000000E+02  0.51100000000E-03 0.  1.
         11   -1    0    0    0    0 -0.00000000000E+00 -0.00000000000E+00 -0.45593999997E+02  0.45594000000E+02  0.51100000000E-03 0. -1.
    9900012    2    1    2    0    0 -0.19714684918E+02  0.32288874360E+01  0.35412862302E+02  0.50528864103E+02  0.30000012927E+02 0.  0.
         12    1    1    2    0    0  0.19714684918E+02 -0.32288874360E+01 -0.35412862302E+02  0.40659135897E+02  0.00000000000E+00 0. -1.
         11    1    3    3    0    0  0.12205958485E+01  0.82852428702E+01  0.15750368315E+02  0.17838419379E+02  0.51100000000E-03 0. -1.
        -11    1    3    3    0    0 -0.20384845410E+01  0.15633537036E+01  0.10247561580E+02  0.10564658661E+02  0.51100000000E-03 0.  1.
         12    1    3    3    0    0 -0.18896796225E+02 -0.66197091378E+01  0.94149324078E+01  0.22125786063E+02  0.00000000000E+00 0. -1.
</event>
<event>
 7    1  0.2575978E-011  0.5052884E+02  0.7816164E-02  0.1300439E+00
        -11   -1    0    0    0    0  0.00000000000E+00  0.00000000000E+00  0.45593999997E+02  0.45594000000E+02  0.51100000000E-03 0.  1.
         11   -1    0    0    0    0 -0.00000000000E+00 -0.00000000000E+00 -0.45593999997E+02  0.45594000000E+02  0.51100000000E-03 0. -1.
    9900012    2    1    2    0    0 -0.27387811247E+02  0.19116277078E+02  0.23187122284E+02  0.50528844893E+02  0.29999954536E+02 0.  0.
         12    1    1    2    0    0  0.27387811247E+02 -0.19116277078E+02 -0.23187122284E+02  0.40659155107E+02  0.00000000000E+00 0. -1.
         11    1    3    3    0    0 -0.56737179007E+01  0.18565113334E+00 -0.14522894829E+01  0.58595807156E+01  0.51100000000E-03 0. -1.
        -11    1    3    3    0    0 -0.22354652178E+02  0.47724853353E+01  0.12774519463E+02  0.26185786947E+02  0.51100000000E-03 0.  1.
        -12    1    3    3    0    0  0.64055883127E+00  0.14158140610E+02  0.11864892303E+02  0.18483477230E+02  0.00000000000E+00 0.  1.
</event>
<event>
 7    1  0.2575978E-011  0.5052886E+02  0.7816164E-02  0.1300439E+00
        -11   -1    0    0    0    0  0.00000000000E+00  0.00000000000E+00  0.45593999997E+02  0.45594000000E+02  0.51100000000E-03 0.  1.
         11   -1    0    0    0    0 -0.00000000000E+00 -0.00000000000E+00 -0.45593999997E+02  0.45594000000E+02  0.51100000000E-03 0. -1.
    9900012    2    1    2    0    0 -0.37940340995E+02  0.95244403972E+01  0.11089693859E+02  0.50528858967E+02  0.29999997315E+02 0.  0.
         12    1    1    2    0    0  0.37940340995E+02 -0.95244403972E+01 -0.11089693859E+02  0.40659141033E+02  0.00000000000E+00 0. -1.
         11    1    3    3    0    0 -0.62889033277E+01 -0.29703859032E+01  0.92091471671E+00  0.70158094084E+01  0.51100000000E-03 0. -1.
        -11    1    3    3    0    0 -0.15698407965E+02  0.11856774456E+02  0.17139509562E+02  0.26091874242E+02  0.51100000000E-03 0.  1.
         12    1    3    3    0    0 -0.15953029702E+02  0.63805184403E+00 -0.69707304197E+01  0.17421175316E+02  0.00000000000E+00 0. -1.
</event>
<event>
 7    1  0.2575978E-011  0.5052886E+02  0.7816164E-02  0.1300439E+00
        -11   -1    0    0    0    0  0.00000000000E+00  0.00000000000E+00  0.45593999997E+02  0.45594000000E+02  0.51100000000E-03 0.  1.
         11   -1    0    0    0    0 -0.00000000000E+00 -0.00000000000E+00 -0.45593999997E+02  0.45594000000E+02  0.51100000000E-03 0. -1.
    9900012    2    1    2    0    0 -0.15668195218E+02 -0.37478567346E+02  0.17407186030E+01  0.50528862615E+02  0.30000008403E+02 0.  0.
         12    1    1    2    0    0  0.15668195218E+02  0.37478567346E+02 -0.17407186030E+01  0.40659137385E+02  0.00000000000E+00 0. -1.
         11    1    3    3    0    0  0.43061590508E+01 -0.20869755374E+01  0.25765341997E+01  0.54347954338E+01  0.51100000000E-03 0. -1.
        -11    1    3    3    0    0 -0.49964549411E+01 -0.25508336788E+02 -0.54659213542E+01  0.26561553120E+02  0.51100000000E-03 0.  1.
        -12    1    3    3    0    0 -0.14977899328E+02 -0.98832550206E+01  0.46301057575E+01  0.18532514060E+02  0.00000000000E+00 0.  1.
</event>
<event>
 7    1  0.2575978E-011  0.5052886E+02  0.7816164E-02  0.1300439E+00
        -11   -1    0    0    0    0  0.00000000000E+00  0.00000000000E+00  0.45593999997E+02  0.45594000000E+02  0.51100000000E-03 0. -1.
         11   -1    0    0    0    0 -0.00000000000E+00 -0.00000000000E+00 -0.45593999997E+02  0.45594000000E+02  0.51100000000E-03 0.  1.
    9900012    2    1    2    0    0 -0.12837764964E+02  0.29843058940E+02 -0.24448905995E+02  0.50528863505E+02  0.30000011111E+02 0.  0.
         12    1    1    2    0    0  0.12837764964E+02 -0.29843058940E+02  0.24448905995E+02  0.40659136495E+02  0.00000000000E+00 0. -1.
         11    1    3    3    0    0 -0.41902509990E+01  0.87357050967E+01  0.52186947676E+01  0.11004795423E+02  0.51100000000E-03 0. -1.
        -11    1    3    3    0    0  0.23476936882E+01  0.10690062829E+02 -0.13278243705E+02  0.17207581617E+02  0.51100000000E-03 0.  1.
        -12    1    3    3    0    0 -0.10995207653E+02  0.10417291014E+02 -0.16389357057E+02  0.22316486465E+02  0.00000000000E+00 0.  1.
</event>
<event>
 7    1  0.2575978E-011  0.5052887E+02  0.7816164E-02  0.1300439E+00
        -11   -1    0    0    0    0  0.00000000000E+00  0.00000000000E+00  0.45593999997E+02  0.45594000000E+02  0.51100000000E-03 0.  1.
         11   -1    0    0    0    0 -0.00000000000E+00 -0.00000000000E+00 -0.45593999997E+02  0.45594000000E+02  0.51100000000E-03 0. -1.
    9900012    2    1    2    0    0  0.38115980637E+02 -0.13480039302E+02  0.43157520242E+01  0.50528866278E+02  0.30000019538E+02 0.  0.
         12    1    1    2    0    0 -0.38115980637E+02  0.13480039302E+02 -0.43157520242E+01  0.40659133722E+02  0.00000000000E+00 0. -1.
         11    1    3    3    0    0  0.92953114577E+00  0.15000679081E+01  0.15760571553E+01  0.23660490904E+01  0.51100000000E-03 0.  1.
        -11    1    3    3    0    0  0.96072272594E+01  0.77473419119E+01  0.10298065487E+01  0.12384693137E+02  0.51100000000E-03 0. -1.
        -12    1    3    3    0    0  0.27579222232E+02 -0.22727449122E+02  0.17098883201E+01  0.35778124050E+02  0.00000000000E+00 0.  1.
</event>
<event>
 7    1  0.2575978E-011  0.5052886E+02  0.7816164E-02  0.1300439E+00
        -11   -1    0    0    0    0  0.00000000000E+00  0.00000000000E+00  0.45593999997E+02  0.45594000000E+02  0.51100000000E-03 0.  1.
         11   -1    0    0    0    0 -0.00000000000E+00 -0.00000000000E+00 -0.45593999997E+02  0.45594000000E+02  0.51100000000E-03 0. -1.
    9900012    2    1    2    0    0 -0.11728517613E+02  0.28106582559E+02  0.26937473779E+02  0.50528860780E+02  0.30000002826E+02 0.  0.
         12    1    1    2    0    0  0.11728517613E+02 -0.28106582559E+02 -0.26937473779E+02  0.40659139220E+02  0.00000000000E+00 0. -1.
         11    1    3    3    0    0 -0.65752669432E+01  0.81569890007E+01  0.24195818814E+02  0.26366802105E+02  0.51100000000E-03 0. -1.
        -11    1    3    3    0    0  0.17160328073E+01  0.57467102539E+01  0.55098550669E+01  0.81441973489E+01  0.51100000000E-03 0.  1.
         12    1    3    3    0    0 -0.68692834773E+01  0.14202883304E+02 -0.27682001015E+01  0.16017861325E+02  0.00000000000E+00 0. -1.
</event>
<event>
 7    1  0.2575978E-011  0.5052894E+02  0.7816164E-02  0.1300438E+00
        -11   -1    0    0    0    0  0.00000000000E+00  0.00000000000E+00  0.45593999997E+02  0.45594000000E+02  0.51100000000E-03 0.  1.
         11   -1    0    0    0    0 -0.00000000000E+00 -0.00000000000E+00 -0.45593999997E+02  0.45594000000E+02  0.51100000000E-03 0. -1.
    9900012    2    1    2    0    0 -0.12246348408E+02 -0.32224086540E+02  0.21559081558E+02  0.50528944424E+02  0.30000257071E+02 0.  0.
         12    1    1    2    0    0  0.12246348408E+02  0.32224086540E+02 -0.21559081558E+02  0.40659055576E+02  0.00000000000E+00 0. -1.
         11    1    3    3    0    0 -0.23619009252E+00 -0.15168799010E+01 -0.20883039744E+01  0.25918572770E+01  0.51100000000E-03 0. -1.
        -11    1    3    3    0    0 -0.12478886949E+02 -0.14445975677E+02 -0.17466542411E+00  0.19090294419E+02  0.51100000000E-03 0.  1.
        -12    1    3    3    0    0  0.46872863330E+00 -0.16261230963E+02  0.23822050956E+02  0.28846792728E+02  0.00000000000E+00 0.  1.
</event>
<event>
 7    1  0.2575978E-011  0.5052885E+02  0.7816164E-02  0.1300439E+00
        -11   -1    0    0    0    0  0.00000000000E+00  0.00000000000E+00  0.45593999997E+02  0.45594000000E+02  0.51100000000E-03 0.  1.
         11   -1    0    0    0    0 -0.00000000000E+00 -0.00000000000E+00 -0.45593999997E+02  0.45594000000E+02  0.51100000000E-03 0. -1.
    9900012    2    1    2    0    0 -0.20749634146E+02 -0.71688021467E+00  0.34958620657E+02  0.50528851058E+02  0.29999973276E+02 0.  0.
         12    1    1    2    0    0  0.20749634146E+02  0.71688021467E+00 -0.34958620657E+02  0.40659148942E+02  0.00000000000E+00 0. -1.
         11    1    3    3    0    0 -0.15163049672E+02  0.52623799016E+01  0.12597208833E+02  0.20403440598E+02  0.51100000000E-03 0. -1.
        -11    1    3    3    0    0 -0.10971109571E+02 -0.24308998760E+00  0.74436717981E+01  0.13260188085E+02  0.51100000000E-03 0.  1.
         12    1    3    3    0    0  0.53845250972E+01 -0.57361701287E+01  0.14917740026E+02  0.16865222375E+02  0.00000000000E+00 0. -1.
</event>
<event>
 7    1  0.2575978E-011  0.5052886E+02  0.7816164E-02  0.1300439E+00
        -11   -1    0    0    0    0  0.00000000000E+00  0.00000000000E+00  0.45593999997E+02  0.45594000000E+02  0.51100000000E-03 0.  1.
         11   -1    0    0    0    0 -0.00000000000E+00 -0.00000000000E+00 -0.45593999997E+02  0.45594000000E+02  0.51100000000E-03 0. -1.
    9900012    2    1    2    0    0  0.25943733784E+02  0.15910034291E+02  0.26962181011E+02  0.50528859347E+02  0.29999998470E+02 0.  0.
         12    1    1    2    0    0 -0.25943733784E+02 -0.15910034291E+02 -0.26962181011E+02  0.40659140653E+02  0.00000000000E+00 0. -1.
         11    1    3    3    0    0  0.78683853791E+01  0.29760755212E+01  0.13798307699E+02  0.16160501527E+02  0.51100000000E-03 0. -1.
        -11    1    3    3    0    0  0.69282842268E+01  0.69479096383E+01  0.18258968183E+02  0.20728349911E+02  0.51100000000E-03 0.  1.
        -12    1    3    3    0    0  0.11147064178E+02  0.59860491319E+01 -0.50950948712E+01  0.13640007908E+02  0.00000000000E+00 0.  1.
</event>
<event>
 7    1  0.2575978E-011  0.5052885E+02  0.7816164E-02  0.1300439E+00
        -11   -1    0    0    0    0  0.00000000000E+00  0.00000000000E+00  0.45593999997E+02  0.45594000000E+02  0.51100000000E-03 0.  1.
         11   -1    0    0    0    0 -0.00000000000E+00 -0.00000000000E+00 -0.45593999997E+02  0.45594000000E+02  0.51100000000E-03 0. -1.
    9900012    2    1    2    0    0  0.24249768238E+02  0.35041127332E+01  0.32447442752E+02  0.50528848425E+02  0.29999965274E+02 0.  0.
         12    1    1    2    0    0 -0.24249768238E+02 -0.35041127332E+01 -0.32447442752E+02  0.40659151575E+02  0.00000000000E+00 0. -1.
         11    1    3    3    0    0  0.25309817227E+02  0.16164145868E+01  0.18680880796E+02  0.31498808736E+02  0.51100000000E-03 0. -1.
        -11    1    3    3    0    0  0.51620264403E+01  0.40338092361E+01  0.71466313735E+01  0.96949715922E+01  0.51100000000E-03 0.  1.
         12    1    3    3    0    0 -0.62220754301E+01 -0.21461110897E+01  0.66199305823E+01  0.93350680973E+01  0.00000000000E+00 0. -1.
</event>
<event>
 7    1  0.2575978E-011  0.5052886E+02  0.7816164E-02  0.1300439E+00
        -11   -1    0    0    0    0  0.00000000000E+00  0.00000000000E+00  0.45593999997E+02  0.45594000000E+02  0.51100000000E-03 0. -1.
         11   -1    0    0    0    0 -0.00000000000E+00 -0.00000000000E+00 -0.45593999997E+02  0.45594000000E+02  0.51100000000E-03 0.  1.
    9900012    2    1    2    0    0 -0.67015505217E+01  0.39726126921E+02 -0.54854261356E+01  0.50528857861E+02  0.29999993956E+02 0.  0.
         12    1    1    2    0    0  0.67015505217E+01 -0.39726126921E+02  0.54854261356E+01  0.40659142139E+02  0.00000000000E+00 0. -1.
         11    1    3    3    0    0  0.10814996885E+01  0.18038201290E+02  0.42142305562E+01  0.18555486703E+02  0.51100000000E-03 0. -1.
        -11    1    3    3    0    0 -0.19283909899E+01  0.74098727253E+00 -0.10010466760E+02  0.10221408854E+02  0.51100000000E-03 0.  1.
         12    1    3    3    0    0 -0.58546592203E+01  0.20946938359E+02  0.31081006788E+00  0.21751962304E+02  0.00000000000E+00 0. -1.
</event>
<event>
 7    1  0.2575978E-011  0.5052886E+02  0.7816164E-02  0.1300439E+00
        -11   -1    0    0    0    0  0.00000000000E+00  0.00000000000E+00  0.45593999997E+02  0.45594000000E+02  0.51100000000E-03 0.  1.
         11   -1    0    0    0    0 -0.00000000000E+00 -0.00000000000E+00 -0.45593999997E+02  0.45594000000E+02  0.51100000000E-03 0. -1.
    9900012    2    1    2    0    0  0.34439150167E+02 -0.21077288724E+02 -0.47810251030E+01  0.50528863693E+02  0.30000011681E+02 0.  0.
         12    1    1    2    0    0 -0.34439150167E+02  0.21077288724E+02  0.47810251030E+01  0.40659136307E+02  0.00000000000E+00 0. -1.
         11    1    3    3    0    0  0.16176783556E+01 -0.19302569263E+01  0.19965669857E+01  0.32138847293E+01  0.51100000000E-03 0. -1.
        -11    1    3    3    0    0  0.29931699704E+02 -0.14899987911E+02  0.56117276697E+01  0.33902916904E+02  0.51100000000E-03 0.  1.
        -12    1    3    3    0    0  0.28897721074E+01 -0.42470438870E+01 -0.12389319758E+02  0.13412062059E+02  0.00000000000E+00 0.  1.
</event>
<event>
 7    1  0.2575978E-011  0.5052886E+02  0.7816164E-02  0.1300439E+00
        -11   -1    0    0    0    0  0.00000000000E+00  0.00000000000E+00  0.45593999997E+02  0.45594000000E+02  0.51100000000E-03 0.  1.
         11   -1    0    0    0    0 -0.00000000000E+00 -0.00000000000E+00 -0.45593999997E+02  0.45594000000E+02  0.51100000000E-03 0. -1.
    9900012    2    1    2    0    0  0.25439863512E+01  0.11306605544E+02  0.38972487987E+02  0.50528855697E+02  0.29999987378E+02 0.  0.
         12    1    1    2    0    0 -0.25439863512E+01 -0.11306605544E+02 -0.38972487987E+02  0.40659144303E+02  0.00000000000E+00 0. -1.
         11    1    3    3    0    0 -0.19507467069E+00  0.79263423388E+01  0.29484314540E+02  0.30531782803E+02  0.51100000000E-03 0. -1.
        -11    1    3    3    0    0  0.62767875201E+00  0.45319290990E+00  0.14111013382E+02  0.14132234903E+02  0.51100000000E-03 0.  1.
         12    1    3    3    0    0  0.21113822699E+01  0.29270702958E+01 -0.46228399343E+01  0.58648379913E+01  0.00000000000E+00 0. -1.
</event>
<event>
 7    1  0.2575978E-011  0.5052888E+02  0.7816164E-02  0.1300439E+00
        -11   -1    0    0    0    0  0.00000000000E+00  0.00000000000E+00  0.45593999997E+02  0.45594000000E+02  0.51100000000E-03 0.  1.
         11   -1    0    0    0    0 -0.00000000000E+00 -0.00000000000E+00 -0.45593999997E+02  0.45594000000E+02  0.51100000000E-03 0. -1.
    9900012    2    1    2    0    0  0.23721966031E+01 -0.63719985584E+01  0.40086583008E+02  0.50528882700E+02  0.30000069455E+02 0.  0.
         12    1    1    2    0    0 -0.23721966031E+01  0.63719985584E+01 -0.40086583008E+02  0.40659117300E+02  0.00000000000E+00 0. -1.
         11    1    3    3    0    0  0.40745012108E+01 -0.38719120446E+01  0.28418551948E+02  0.28969075893E+02  0.51100000000E-03 0. -1.
        -11    1    3    3    0    0  0.68917177239E+00 -0.63127368445E+01  0.14781091874E+02  0.16087457271E+02  0.51100000000E-03 0.  1.
         12    1    3    3    0    0 -0.23914763801E+01  0.38126503307E+01 -0.31130608137E+01  0.54723495366E+01  0.00000000000E+00 0. -1.
</event>
<event>
 7    1  0.2575978E-011  0.5052886E+02  0.7816164E-02  0.1300439E+00
        -11   -1    0    0    0    0  0.00000000000E+00  0.00000000000E+00  0.45593999997E+02  0.45594000000E+02  0.51100000000E-03 0. -1.
         11   -1    0    0    0    0 -0.00000000000E+00 -0.00000000000E+00 -0.45593999997E+02  0.45594000000E+02  0.51100000000E-03 0.  1.
    9900012    2    1    2    0    0 -0.11456443421E+02  0.18048389144E+02 -0.34585705740E+02  0.50528862182E+02  0.30000007089E+02 0.  0.
         12    1    1    2    0    0  0.11456443421E+02 -0.18048389144E+02  0.34585705740E+02  0.40659137818E+02  0.00000000000E+00 0. -1.
         11    1    3    3    0    0 -0.79942277996E+01  0.17379812518E+02 -0.14571731619E+02  0.24047888138E+02  0.51100000000E-03 0. -1.
        -11    1    3    3    0    0 -0.10185070772E+02 -0.83293815029E+00 -0.97819170960E+01  0.14146213448E+02  0.51100000000E-03 0.  1.
         12    1    3    3    0    0  0.67228551503E+01  0.15015147765E+01 -0.10232057025E+02  0.12334760596E+02  0.00000000000E+00 0. -1.
</event>
<event>
 7    1  0.2575978E-011  0.5052886E+02  0.7816164E-02  0.1300439E+00
        -11   -1    0    0    0    0  0.00000000000E+00  0.00000000000E+00  0.45593999997E+02  0.45594000000E+02  0.51100000000E-03 0. -1.
         11   -1    0    0    0    0 -0.00000000000E+00 -0.00000000000E+00 -0.45593999997E+02  0.45594000000E+02  0.51100000000E-03 0.  1.
    9900012    2    1    2    0    0 -0.19852792125E+02  0.32772639524E+02 -0.13600981578E+02  0.50528856423E+02  0.29999989584E+02 0.  0.
         12    1    1    2    0    0  0.19852792125E+02 -0.32772639524E+02  0.13600981578E+02  0.40659143577E+02  0.00000000000E+00 0. -1.
         11    1    3    3    0    0 -0.16871915198E+01  0.16283111629E+02  0.36080728813E+01  0.16763189724E+02  0.51100000000E-03 0. -1.
        -11    1    3    3    0    0 -0.77710133999E+01  0.13088786208E+02 -0.24837361350E+01  0.15423161774E+02  0.51100000000E-03 0.  1.
         12    1    3    3    0    0 -0.10394587205E+02  0.34007416871E+01 -0.14725318324E+02  0.18342504925E+02  0.00000000000E+00 0. -1.
</event>
<event>
 7    1  0.2575978E-011  0.5052885E+02  0.7816164E-02  0.1300439E+00
        -11   -1    0    0    0    0  0.00000000000E+00  0.00000000000E+00  0.45593999997E+02  0.45594000000E+02  0.51100000000E-03 0.  1.
         11   -1    0    0    0    0 -0.00000000000E+00 -0.00000000000E+00 -0.45593999997E+02  0.45594000000E+02  0.51100000000E-03 0. -1.
    9900012    2    1    2    0    0 -0.36264812019E+02 -0.44626480274E+01  0.17835763804E+02  0.50528852337E+02  0.29999977164E+02 0.  0.
         12    1    1    2    0    0  0.36264812019E+02  0.44626480274E+01 -0.17835763804E+02  0.40659147663E+02  0.00000000000E+00 0. -1.
         11    1    3    3    0    0 -0.57958500184E+01  0.77788330265E+01  0.10796594859E+02  0.14514426668E+02  0.51100000000E-03 0. -1.
        -11    1    3    3    0    0 -0.53437226646E+01  0.22983563982E+01 -0.97797175645E+00  0.58986645155E+01  0.51100000000E-03 0.  1.
        -12    1    3    3    0    0 -0.25125239336E+02 -0.14539837452E+02  0.80171407015E+01  0.30115761154E+02  0.00000000000E+00 0.  1.
</event>
<event>
 7    1  0.2575978E-011  0.5052886E+02  0.7816164E-02  0.1300439E+00
        -11   -1    0    0    0    0  0.00000000000E+00  0.00000000000E+00  0.45593999997E+02  0.45594000000E+02  0.51100000000E-03 0. -1.
         11   -1    0    0    0    0 -0.00000000000E+00 -0.00000000000E+00 -0.45593999997E+02  0.45594000000E+02  0.51100000000E-03 0.  1.
    9900012    2    1    2    0    0  0.26882169804E+02  0.11960790235E+02 -0.28061615501E+02  0.50528858089E+02  0.29999994647E+02 0.  0.
         12    1    1    2    0    0 -0.26882169804E+02 -0.11960790235E+02  0.28061615501E+02  0.40659141911E+02  0.00000000000E+00 0. -1.
         11    1    3    3    0    0  0.46160055579E+00 -0.37564540163E+01 -0.35583443013E+01  0.51947893391E+01  0.51100000000E-03 0. -1.
        -11    1    3    3    0    0  0.24595516335E+02  0.16210420235E+02 -0.28453297592E+02  0.40954942218E+02  0.51100000000E-03 0.  1.
         12    1    3    3    0    0  0.18250529135E+01 -0.49317598321E+00  0.39500263921E+01  0.43791265323E+01  0.00000000000E+00 0. -1.
</event>
<event>
 7    1  0.2575978E-011  0.5052885E+02  0.7816164E-02  0.1300439E+00
        -11   -1    0    0    0    0  0.00000000000E+00  0.00000000000E+00  0.45593999997E+02  0.45594000000E+02  0.51100000000E-03 0.  1.
         11   -1    0    0    0    0 -0.00000000000E+00 -0.00000000000E+00 -0.45593999997E+02  0.45594000000E+02  0.51100000000E-03 0. -1.
    9900012    2    1    2    0    0  0.32932796327E+02  0.20177047233E+02  0.12707649058E+02  0.50528847850E+02  0.29999963524E+02 0.  0.
         12    1    1    2    0    0 -0.32932796327E+02 -0.20177047233E+02 -0.12707649058E+02  0.40659152150E+02  0.00000000000E+00 0. -1.
         11    1    3    3    0    0  0.46004606790E+01 -0.91033857781E+00 -0.24920552267E+01  0.53106773861E+01  0.51100000000E-03 0. -1.
        -11    1    3    3    0    0  0.54263876352E+01 -0.53405378228E+01  0.26539326074E+01  0.80629018070E+01  0.51100000000E-03 0.  1.
         12    1    3    3    0    0  0.22905948013E+02  0.26427923634E+02  0.12545771677E+02  0.37155268657E+02  0.00000000000E+00 0. -1.
</event>
<event>
 7    1  0.2575978E-011  0.5052887E+02  0.7816164E-02  0.1300439E+00
        -11   -1    0    0    0    0  0.00000000000E+00  0.00000000000E+00  0.45593999997E+02  0.45594000000E+02  0.51100000000E-03 0.  1.
         11   -1    0    0    0    0 -0.00000000000E+00 -0.00000000000E+00 -0.45593999997E+02  0.45594000000E+02  0.51100000000E-03 0. -1.
    9900012    2    1    2    0    0  0.12001275634E+02  0.29087106391E+02  0.25750230755E+02  0.50528871148E+02  0.30000034342E+02 0.  0.
         12    1    1    2    0    0 -0.12001275634E+02 -0.29087106391E+02 -0.25750230755E+02  0.40659128852E+02  0.00000000000E+00 0. -1.
         11    1    3    3    0    0  0.12963904079E+02  0.21381514008E+02  0.10886624002E+02  0.27271790052E+02  0.51100000000E-03 0.  1.
        -11    1    3    3    0    0 -0.53435387865E+01  0.47262534065E+00 -0.83191188874E+00  0.54285227390E+01  0.51100000000E-03 0. -1.
        -12    1    3    3    0    0  0.43809103406E+01  0.72329670432E+01  0.15695518642E+02  0.17828558357E+02  0.00000000000E+00 0.  1.
</event>
<event>
 7    1  0.2575978E-011  0.5052885E+02  0.7816164E-02  0.1300439E+00
        -11   -1    0    0    0    0  0.00000000000E+00  0.00000000000E+00  0.45593999997E+02  0.45594000000E+02  0.51100000000E-03 0.  1.
         11   -1    0    0    0    0 -0.00000000000E+00 -0.00000000000E+00 -0.45593999997E+02  0.45594000000E+02  0.51100000000E-03 0. -1.
    9900012    2    1    2    0    0 -0.29863297251E+02 -0.65941437007E+00 -0.27584693061E+02  0.50528848001E+02  0.29999963983E+02 0.  0.
         12    1    1    2    0    0  0.29863297251E+02  0.65941437007E+00  0.27584693061E+02  0.40659151999E+02  0.00000000000E+00 0. -1.
         11    1    3    3    0    0 -0.56502388449E+01  0.60382589479E+01 -0.36430644509E+01  0.90364644071E+01  0.51100000000E-03 0. -1.
        -11    1    3    3    0    0 -0.46369309659E+01 -0.51215053539E+01  0.35017755596E+01  0.77455392454E+01  0.51100000000E-03 0.  1.
         12    1    3    3    0    0 -0.19576127441E+02 -0.15761679641E+01 -0.27443404170E+02  0.33746844348E+02  0.00000000000E+00 0. -1.
</event>
<event>
 7    1  0.2575978E-011  0.5052884E+02  0.7816164E-02  0.1300439E+00
        -11   -1    0    0    0    0  0.00000000000E+00  0.00000000000E+00  0.45593999997E+02  0.45594000000E+02  0.51100000000E-03 0. -1.
         11   -1    0    0    0    0 -0.00000000000E+00 -0.00000000000E+00 -0.45593999997E+02  0.45594000000E+02  0.51100000000E-03 0.  1.
    9900012    2    1    2    0    0 -0.11782972667E+02 -0.38589363564E+02 -0.50189887848E+01  0.50528835307E+02  0.29999925398E+02 0.  0.
         12    1    1    2    0    0  0.11782972667E+02  0.38589363564E+02  0.50189887848E+01  0.40659164693E+02  0.00000000000E+00 0. -1.
         11    1    3    3    0    0 -0.27643842437E+01 -0.21372384199E+02  0.35805350067E+01  0.21845843032E+02  0.51100000000E-03 0. -1.
        -11    1    3    3    0    0 -0.13221868559E+02 -0.78281608092E+01 -0.14250828819E+00  0.15366138705E+02  0.51100000000E-03 0.  1.
        -12    1    3    3    0    0  0.42032801352E+01 -0.93888185558E+01 -0.84570155032E+01  0.13316853569E+02  0.00000000000E+00 0.  1.
</event>
<event>
 7    1  0.2575978E-011  0.5052886E+02  0.7816164E-02  0.1300439E+00
        -11   -1    0    0    0    0  0.00000000000E+00  0.00000000000E+00  0.45593999997E+02  0.45594000000E+02  0.51100000000E-03 0.  1.
         11   -1    0    0    0    0 -0.00000000000E+00 -0.00000000000E+00 -0.45593999997E+02  0.45594000000E+02  0.51100000000E-03 0. -1.
    9900012    2    1    2    0    0 -0.14250702733E+02 -0.32322907000E+02  0.20132380738E+02  0.50528860812E+02  0.30000002926E+02 0.  0.
         12    1    1    2    0    0  0.14250702733E+02  0.32322907000E+02 -0.20132380738E+02  0.40659139188E+02  0.00000000000E+00 0. -1.
         11    1    3    3    0    0  0.48203365136E+01 -0.19727750945E+01  0.10851391171E+01  0.53202455623E+01  0.51100000000E-03 0.  1.
        -11    1    3    3    0    0 -0.13496856465E+02 -0.93610310560E+01  0.15767919684E+00  0.16426165099E+02  0.51100000000E-03 0. -1.
        -12    1    3    3    0    0 -0.55741827817E+01 -0.20989100849E+02  0.18889562424E+02  0.28782450151E+02  0.00000000000E+00 0.  1.
</event>
<event>
 7    1  0.2575978E-011  0.5052886E+02  0.7816164E-02  0.1300439E+00
        -11   -1    0    0    0    0  0.00000000000E+00  0.00000000000E+00  0.45593999997E+02  0.45594000000E+02  0.51100000000E-03 0.  1.
         11   -1    0    0    0    0 -0.00000000000E+00 -0.00000000000E+00 -0.45593999997E+02  0.45594000000E+02  0.51100000000E-03 0. -1.
    9900012    2    1    2    0    0 -0.78067239728E+01 -0.25460349530E+02  0.30724444790E+02  0.50528857792E+02  0.29999993746E+02 0.  0.
         12    1    1    2    0    0  0.78067239728E+01  0.25460349530E+02 -0.30724444790E+02  0.40659142208E+02  0.00000000000E+00 0. -1.
         11    1    3    3    0    0 -0.52533282179E+01 -0.10772984607E+01  0.12455758926E+02  0.13561119423E+02  0.51100000000E-03 0. -1.
        -11    1    3    3    0    0 -0.78308807657E+01 -0.93388584028E+01  0.17077325735E+02  0.20980277032E+02  0.51100000000E-03 0.  1.
         12    1    3    3    0    0  0.52774850108E+01 -0.15044192667E+02  0.11913601296E+01  0.15987461337E+02  0.00000000000E+00 0. -1.
</event>
<event>
 7    1  0.2575978E-011  0.5052887E+02  0.7816164E-02  0.1300439E+00
        -11   -1    0    0    0    0  0.00000000000E+00  0.00000000000E+00  0.45593999997E+02  0.45594000000E+02  0.51100000000E-03 0.  1.
         11   -1    0    0    0    0 -0.00000000000E+00 -0.00000000000E+00 -0.45593999997E+02  0.45594000000E+02  0.51100000000E-03 0. -1.
    9900012    2    1    2    0    0  0.15187598725E+02 -0.20006442363E+02  0.31972545086E+02  0.50528873960E+02  0.30000042889E+02 0.  0.
         12    1    1    2    0    0 -0.15187598725E+02  0.20006442363E+02 -0.31972545086E+02  0.40659126040E+02  0.00000000000E+00 0. -1.
         11    1    3    3    0    0 -0.36020496282E+01 -0.66010221909E+01  0.31543098349E+01  0.81546260665E+01  0.51100000000E-03 0. -1.
        -11    1    3    3    0    0 -0.24331173469E+01 -0.28371342613E+01  0.13828126373E+02  0.14324331401E+02  0.51100000000E-03 0.  1.
        -12    1    3    3    0    0  0.21222765700E+02 -0.10568285911E+02  0.14990108878E+02  0.28049916492E+02  0.00000000000E+00 0.  1.
</event>
<event>
 7    1  0.2575978E-011  0.5052886E+02  0.7816164E-02  0.1300439E+00
        -11   -1    0    0    0    0  0.00000000000E+00  0.00000000000E+00  0.45593999997E+02  0.45594000000E+02  0.51100000000E-03 0.  1.
         11   -1    0    0    0    0 -0.00000000000E+00 -0.00000000000E+00 -0.45593999997E+02  0.45594000000E+02  0.51100000000E-03 0. -1.
    9900012    2    1    2    0    0  0.34679386338E+01  0.25542604349E+02  0.31443831282E+02  0.50528858826E+02  0.29999996889E+02 0.  0.
         12    1    1    2    0    0 -0.34679386338E+01 -0.25542604349E+02 -0.31443831282E+02  0.40659141174E+02  0.00000000000E+00 0. -1.
         11    1    3    3    0    0  0.54767890093E+00  0.33304908898E+01 -0.12282181821E+01  0.35917463593E+01  0.51100000000E-03 0. -1.
        -11    1    3    3    0    0  0.39594262398E+01  0.22479731788E+02  0.11177123875E+02  0.25415418466E+02  0.51100000000E-03 0.  1.
        -12    1    3    3    0    0 -0.10391665069E+01 -0.26761832941E+00  0.21494925589E+02  0.21521694001E+02  0.00000000000E+00 0.  1.
</event>
<event>
 7    1  0.2575978E-011  0.5052885E+02  0.7816164E-02  0.1300439E+00
        -11   -1    0    0    0    0  0.00000000000E+00  0.00000000000E+00  0.45593999997E+02  0.45594000000E+02  0.51100000000E-03 0.  1.
         11   -1    0    0    0    0 -0.00000000000E+00 -0.00000000000E+00 -0.45593999997E+02  0.45594000000E+02  0.51100000000E-03 0. -1.
    9900012    2    1    2    0    0 -0.33906198885E+02 -0.18843677635E+02  0.12184074848E+02  0.50528853556E+02  0.29999980870E+02 0.  0.
         12    1    1    2    0    0  0.33906198885E+02  0.18843677635E+02 -0.12184074848E+02  0.40659146444E+02  0.00000000000E+00 0. -1.
         11    1    3    3    0    0 -0.63369415753E+01  0.43120447567E+01  0.85795364228E+00  0.77127584706E+01  0.51100000000E-03 0. -1.
        -11    1    3    3    0    0 -0.40997971885E+01 -0.10625359628E+02 -0.40498485025E+01  0.12087509147E+02  0.51100000000E-03 0.  1.
        -12    1    3    3    0    0 -0.23469460121E+02 -0.12530362763E+02  0.15375969708E+02  0.30728585939E+02  0.00000000000E+00 0.  1.
</event>
<event>
 7    1  0.2575978E-011  0.5052884E+02  0.7816164E-02  0.1300439E+00
        -11   -1    0    0    0    0  0.00000000000E+00  0.00000000000E+00  0.45593999997E+02  0.45594000000E+02  0.51100000000E-03 0.  1.
         11   -1    0    0    0    0 -0.00000000000E+00 -0.00000000000E+00 -0.45593999997E+02  0.45594000000E+02  0.51100000000E-03 0. -1.
    9900012    2    1    2    0    0 -0.13367279734E+02 -0.29399771098E+02  0.24700949876E+02  0.50528835807E+02  0.29999926920E+02 0.  0.
         12    1    1    2    0    0  0.13367279734E+02  0.29399771098E+02 -0.24700949876E+02  0.40659164193E+02  0.00000000000E+00 0. -1.
         11    1    3    3    0    0 -0.18731352073E+01  0.20404864287E+01  0.91360195068E+01  0.95466786403E+01  0.51100000000E-03 0. -1.
        -11    1    3    3    0    0 -0.93658945871E-01 -0.11656355499E+01  0.75687458999E+01  0.76585503192E+01  0.51100000000E-03 0.  1.
        -12    1    3    3    0    0 -0.11400485581E+02 -0.30274621976E+02  0.79961844691E+01  0.33323606848E+02  0.00000000000E+00 0.  1.
</event>
<event>
 7    1  0.2575978E-011  0.5052883E+02  0.7816164E-02  0.1300439E+00
        -11   -1    0    0    0    0  0.00000000000E+00  0.00000000000E+00  0.45593999997E+02  0.45594000000E+02  0.51100000000E-03 0.  1.
         11   -1    0    0    0    0 -0.00000000000E+00 -0.00000000000E+00 -0.45593999997E+02  0.45594000000E+02  0.51100000000E-03 0. -1.
    9900012    2    1    2    0    0  0.14545041278E+02 -0.35426781070E+02  0.13658452842E+02  0.50528826658E+02  0.29999899111E+02 0.  0.
         12    1    1    2    0    0 -0.14545041278E+02  0.35426781070E+02 -0.13658452842E+02  0.40659173342E+02  0.00000000000E+00 0. -1.
         11    1    3    3    0    0  0.95279858715E+01 -0.12406252108E+02  0.12885419176E+02  0.20266515086E+02  0.51100000000E-03 0.  1.
        -11    1    3    3    0    0 -0.38661683071E+01  0.12689036507E+01  0.16345269610E+01  0.43850943548E+01  0.51100000000E-03 0. -1.
         12    1    3    3    0    0  0.88832237140E+01 -0.24289432613E+02 -0.86149329558E+00  0.25877217218E+02  0.00000000000E+00 0. -1.
</event>
<event>
 7    1  0.2575978E-011  0.5052886E+02  0.7816164E-02  0.1300439E+00
        -11   -1    0    0    0    0  0.00000000000E+00  0.00000000000E+00  0.45593999997E+02  0.45594000000E+02  0.51100000000E-03 0.  1.
         11   -1    0    0    0    0 -0.00000000000E+00 -0.00000000000E+00 -0.45593999997E+02  0.45594000000E+02  0.51100000000E-03 0. -1.
    9900012    2    1    2    0    0 -0.39080459650E+02 -0.10422202033E+02  0.41546627704E+01  0.50528857800E+02  0.29999993770E+02 0.  0.
         12    1    1    2    0    0  0.39080459650E+02  0.10422202033E+02 -0.41546627704E+01  0.40659142200E+02  0.00000000000E+00 0. -1.
         11    1    3    3    0    0 -0.10782166779E+02 -0.63459209021E+01 -0.90344492705E+01  0.15432015631E+02  0.51100000000E-03 0. -1.
        -11    1    3    3    0    0 -0.70400881947E+01  0.19723436950E+01 -0.27880878842E+01  0.78247310338E+01  0.51100000000E-03 0.  1.
        -12    1    3    3    0    0 -0.21258204676E+02 -0.60486248264E+01  0.15977199925E+02  0.27272111136E+02  0.00000000000E+00 0.  1.
</event>
<event>
 7    1  0.2575978E-011  0.5052886E+02  0.7816164E-02  0.1300439E+00
        -11   -1    0    0    0    0  0.00000000000E+00  0.00000000000E+00  0.45593999997E+02  0.45594000000E+02  0.51100000000E-03 0. -1.
         11   -1    0    0    0    0 -0.00000000000E+00 -0.00000000000E+00 -0.45593999997E+02  0.45594000000E+02  0.51100000000E-03 0.  1.
    9900012    2    1    2    0    0  0.27377245738E+02 -0.21404513743E+02 -0.21106853012E+02  0.50528855434E+02  0.29999986576E+02 0.  0.
         12    1    1    2    0    0 -0.27377245738E+02  0.21404513743E+02  0.21106853012E+02  0.40659144566E+02  0.00000000000E+00 0. -1.
         11    1    3    3    0    0  0.44706956751E+01 -0.13004238075E+02  0.48301438146E+00  0.13759746759E+02  0.51100000000E-03 0. -1.
        -11    1    3    3    0    0  0.19139683279E+02 -0.93598198036E+01 -0.82046731451E+01  0.22830908095E+02  0.51100000000E-03 0.  1.
         12    1    3    3    0    0  0.37668667846E+01  0.95954413542E+00 -0.13385194249E+02  0.13938200580E+02  0.00000000000E+00 0. -1.
</event>
<event>
 7    1  0.2575978E-011  0.5052886E+02  0.7816164E-02  0.1300439E+00
        -11   -1    0    0    0    0  0.00000000000E+00  0.00000000000E+00  0.45593999997E+02  0.45594000000E+02  0.51100000000E-03 0.  1.
         11   -1    0    0    0    0 -0.00000000000E+00 -0.00000000000E+00 -0.45593999997E+02  0.45594000000E+02  0.51100000000E-03 0. -1.
    9900012    2    1    2    0    0  0.18115189629E+02  0.12123151417E+02  0.34322508210E+02  0.50528862462E+02  0.30000007938E+02 0.  0.
         12    1    1    2    0    0 -0.18115189629E+02 -0.12123151417E+02 -0.34322508210E+02  0.40659137538E+02  0.00000000000E+00 0. -1.
         11    1    3    3    0    0  0.28892006337E+01  0.66391375336E+01 -0.20677680320E+01  0.75300260549E+01  0.51100000000E-03 0. -1.
        -11    1    3    3    0    0 -0.21855310420E+01 -0.21480645389E+01  0.18699124037E+01  0.35898885578E+01  0.51100000000E-03 0.  1.
        -12    1    3    3    0    0  0.17411520037E+02  0.76320784227E+01  0.34520363838E+02  0.39408947849E+02  0.00000000000E+00 0.  1.
</event>
<event>
 7    1  0.2575978E-011  0.5052887E+02  0.7816164E-02  0.1300439E+00
        -11   -1    0    0    0    0  0.00000000000E+00  0.00000000000E+00  0.45593999997E+02  0.45594000000E+02  0.51100000000E-03 0.  1.
         11   -1    0    0    0    0 -0.00000000000E+00 -0.00000000000E+00 -0.45593999997E+02  0.45594000000E+02  0.51100000000E-03 0. -1.
    9900012    2    1    2    0    0 -0.92599003699E+01 -0.32052631124E+02  0.23238924733E+02  0.50528873846E+02  0.30000042543E+02 0.  0.
         12    1    1    2    0    0  0.92599003699E+01  0.32052631124E+02 -0.23238924733E+02  0.40659126154E+02  0.00000000000E+00 0. -1.
         11    1    3    3    0    0 -0.28175569066E+01 -0.67715920852E+00  0.12051436547E+02  0.12394930198E+02  0.51100000000E-03 0. -1.
        -11    1    3    3    0    0 -0.55116379506E+01 -0.74649254965E+01  0.10750520193E+02  0.14201301005E+02  0.51100000000E-03 0.  1.
         12    1    3    3    0    0 -0.93070551268E+00 -0.23910546419E+02  0.43696799315E+00  0.23932642642E+02  0.00000000000E+00 0. -1.
</event>
<event>
 7    1  0.2575978E-011  0.5052886E+02  0.7816164E-02  0.1300439E+00
        -11   -1    0    0    0    0  0.00000000000E+00  0.00000000000E+00  0.45593999997E+02  0.45594000000E+02  0.51100000000E-03 0.  1.
         11   -1    0    0    0    0 -0.00000000000E+00 -0.00000000000E+00 -0.45593999997E+02  0.45594000000E+02  0.51100000000E-03 0. -1.
    9900012    2    1    2    0    0  0.33706807030E+02 -0.34403591690E+01  0.22476227058E+02  0.50528859648E+02  0.29999999387E+02 0.  0.
         12    1    1    2    0    0 -0.33706807030E+02  0.34403591690E+01 -0.22476227058E+02  0.40659140352E+02  0.00000000000E+00 0. -1.
         11    1    3    3    0    0  0.28450709708E+01  0.45199654719E+01 -0.35058405397E+01  0.63886958643E+01  0.51100000000E-03 0. -1.
        -11    1    3    3    0    0  0.13072684233E+02  0.33012655768E+01  0.49012037827E+01  0.14346261752E+02  0.51100000000E-03 0.  1.
        -12    1    3    3    0    0  0.17789051826E+02 -0.11261590218E+02  0.21080863815E+02  0.29793902032E+02  0.00000000000E+00 0.  1.
</event>
<event>
 7    1  0.2575978E-011  0.5052886E+02  0.7816164E-02  0.1300439E+00
        -11   -1    0    0    0    0  0.00000000000E+00  0.00000000000E+00  0.45593999997E+02  0.45594000000E+02  0.51100000000E-03 0. -1.
         11   -1    0    0    0    0 -0.00000000000E+00 -0.00000000000E+00 -0.45593999997E+02  0.45594000000E+02  0.51100000000E-03 0.  1.
    9900012    2    1    2    0    0 -0.29972946236E+02  0.26730748736E+02  0.63447197428E+01  0.50528857084E+02  0.29999991594E+02 0.  0.
         12    1    1    2    0    0  0.29972946236E+02 -0.26730748736E+02 -0.63447197428E+01  0.40659142916E+02  0.00000000000E+00 0. -1.
         11    1    3    3    0    0 -0.57469013033E+01  0.23238550133E+01 -0.57396623377E+01  0.84481300134E+01  0.51100000000E-03 0. -1.
        -11    1    3    3    0    0 -0.12338284588E+02  0.10959875271E+02 -0.50585316653E+01  0.17260963919E+02  0.51100000000E-03 0.  1.
        -12    1    3    3    0    0 -0.11887760344E+02  0.13447018451E+02  0.17142913746E+02  0.24819763152E+02  0.00000000000E+00 0.  1.
</event>
<event>
 7    1  0.2575978E-011  0.5052886E+02  0.7816164E-02  0.1300439E+00
        -11   -1    0    0    0    0  0.00000000000E+00  0.00000000000E+00  0.45593999997E+02  0.45594000000E+02  0.51100000000E-03 0.  1.
         11   -1    0    0    0    0 -0.00000000000E+00 -0.00000000000E+00 -0.45593999997E+02  0.45594000000E+02  0.51100000000E-03 0. -1.
    9900012    2    1    2    0    0  0.30292226383E+02 -0.24948229368E+01  0.27005970548E+02  0.50528861224E+02  0.30000004177E+02 0.  0.
         12    1    1    2    0    0 -0.30292226383E+02  0.24948229368E+01 -0.27005970548E+02  0.40659138776E+02  0.00000000000E+00 0. -1.
         11    1    3    3    0    0  0.83734223271E+01 -0.48338756041E+00  0.10920051647E+02  0.13769364300E+02  0.51100000000E-03 0. -1.
        -11    1    3    3    0    0  0.12730541348E+02  0.20708641466E+00  0.22136206157E+02  0.25536663663E+02  0.51100000000E-03 0.  1.
         12    1    3    3    0    0  0.91882627080E+01 -0.22185217911E+01 -0.60502872549E+01  0.11222833261E+02  0.00000000000E+00 0. -1.
</event>
<event>
 7    1  0.2575978E-011  0.5052885E+02  0.7816164E-02  0.1300439E+00
        -11   -1    0    0    0    0  0.00000000000E+00  0.00000000000E+00  0.45593999997E+02  0.45594000000E+02  0.51100000000E-03 0. -1.
         11   -1    0    0    0    0 -0.00000000000E+00 -0.00000000000E+00 -0.45593999997E+02  0.45594000000E+02  0.51100000000E-03 0.  1.
    9900012    2    1    2    0    0 -0.21506812151E+02 -0.20640062406E+02 -0.27651612405E+02  0.50528845882E+02  0.29999957543E+02 0.  0.
         12    1    1    2    0    0  0.21506812151E+02  0.20640062406E+02  0.27651612405E+02  0.40659154118E+02  0.00000000000E+00 0. -1.
         11    1    3    3    0    0  0.10006926759E+01 -0.96777031577E+01 -0.18514724326E+02  0.20915409185E+02  0.51100000000E-03 0. -1.
        -11    1    3    3    0    0 -0.75281882209E+01 -0.52184704245E+01 -0.99825576236E+01  0.13548339693E+02  0.51100000000E-03 0.  1.
         12    1    3    3    0    0 -0.14979316606E+02 -0.57438888233E+01  0.84566954467E+00  0.16065097005E+02  0.00000000000E+00 0. -1.
</event>
<event>
 7    1  0.2575978E-011  0.5052886E+02  0.7816164E-02  0.1300439E+00
        -11   -1    0    0    0    0  0.00000000000E+00  0.00000000000E+00  0.45593999997E+02  0.45594000000E+02  0.51100000000E-03 0.  1.
         11   -1    0    0    0    0 -0.00000000000E+00 -0.00000000000E+00 -0.45593999997E+02  0.45594000000E+02  0.51100000000E-03 0. -1.
    9900012    2    1    2    0    0 -0.19237446346E+02  0.32547576395E+00  0.35818713534E+02  0.50528861844E+02  0.30000006060E+02 0.  0.
         12    1    1    2    0    0  0.19237446346E+02 -0.32547576395E+00 -0.35818713534E+02  0.40659138156E+02  0.00000000000E+00 0. -1.
         11    1    3    3    0    0 -0.14206412627E+02  0.75397878924E+01  0.29079324219E+02  0.33230673458E+02  0.51100000000E-03 0. -1.
        -11    1    3    3    0    0 -0.85007785802E+01 -0.85335405138E+01  0.62000234894E+01  0.13547134077E+02  0.51100000000E-03 0.  1.
         12    1    3    3    0    0  0.34697448610E+01  0.13192283853E+01  0.53936582553E+00  0.37510543087E+01  0.00000000000E+00 0. -1.
</event>
<event>
 7    1  0.2575978E-011  0.5052887E+02  0.7816164E-02  0.1300439E+00
        -11   -1    0    0    0    0  0.00000000000E+00  0.00000000000E+00  0.45593999997E+02  0.45594000000E+02  0.51100000000E-03 0. -1.
         11   -1    0    0    0    0 -0.00000000000E+00 -0.00000000000E+00 -0.45593999997E+02  0.45594000000E+02  0.51100000000E-03 0.  1.
    9900012    2    1    2    0    0  0.39845839773E+02  0.76641075531E+01 -0.25952647063E+01  0.50528869529E+02  0.30000029420E+02 0.  0.
         12    1    1    2    0    0 -0.39845839773E+02 -0.76641075531E+01  0.25952647063E+01  0.40659130471E+02  0.00000000000E+00 0. -1.
         11    1    3    3    0    0  0.73669966178E+00  0.12983866290E+01 -0.70741558869E+01  0.72299526972E+01  0.51100000000E-03 0. -1.
        -11    1    3    3    0    0  0.19164265409E+02 -0.39688249455E+01 -0.26086407750E+01  0.19744002813E+02  0.51100000000E-03 0.  1.
         12    1    3    3    0    0  0.19944874702E+02  0.10334545870E+02  0.70875319556E+01  0.23554914019E+02  0.00000000000E+00 0. -1.
</event>
<event>
 7    1  0.2575978E-011  0.5052886E+02  0.7816164E-02  0.1300439E+00
        -11   -1    0    0    0    0  0.00000000000E+00  0.00000000000E+00  0.45593999997E+02  0.45594000000E+02  0.51100000000E-03 0.  1.
         11   -1    0    0    0    0 -0.00000000000E+00 -0.00000000000E+00 -0.45593999997E+02  0.45594000000E+02  0.51100000000E-03 0. -1.
    9900012    2    1    2    0    0 -0.12997241717E+02 -0.15846088619E+02  0.35116080202E+02  0.50528857049E+02  0.29999991485E+02 0.  0.
         12    1    1    2    0    0  0.12997241717E+02  0.15846088619E+02 -0.35116080202E+02  0.40659142951E+02  0.00000000000E+00 0. -1.
         11    1    3    3    0    0  0.49576543239E+00  0.37771296467E+01  0.34744029517E+00  0.38253374690E+01  0.51100000000E-03 0. -1.
        -11    1    3    3    0    0  0.37355034853E+01  0.81177906790E+00  0.17002147899E+01  0.41837425993E+01  0.51100000000E-03 0.  1.
        -12    1    3    3    0    0 -0.17228510635E+02 -0.20434997334E+02  0.33068425117E+02  0.42519776980E+02  0.00000000000E+00 0.  1.
</event>
<event>
 7    1  0.2575978E-011  0.5052884E+02  0.7816164E-02  0.1300439E+00
        -11   -1    0    0    0    0  0.00000000000E+00  0.00000000000E+00  0.45593999997E+02  0.45594000000E+02  0.51100000000E-03 0.  1.
         11   -1    0    0    0    0 -0.00000000000E+00 -0.00000000000E+00 -0.45593999997E+02  0.45594000000E+02  0.51100000000E-03 0. -1.
    9900012    2    1    2    0    0 -0.32121587965E+02 -0.19069088053E+02  0.16054297905E+02  0.50528843420E+02  0.29999950060E+02 0.  0.
         12    1    1    2    0    0  0.32121587965E+02  0.19069088053E+02 -0.16054297905E+02  0.40659156580E+02  0.00000000000E+00 0. -1.
         11    1    3    3    0    0 -0.82129985034E+01  0.38798736409E+00 -0.47377596734E+01  0.94894807864E+01  0.51100000000E-03 0. -1.
        -11    1    3    3    0    0 -0.10743108999E+02 -0.18330282228E+02  0.81615280069E+01  0.22760144490E+02  0.51100000000E-03 0.  1.
        -12    1    3    3    0    0 -0.13165480463E+02 -0.11267931890E+01  0.12630529571E+02  0.18279218144E+02  0.00000000000E+00 0.  1.
</event>
<event>
 7    1  0.2575978E-011  0.5052886E+02  0.7816164E-02  0.1300439E+00
        -11   -1    0    0    0    0  0.00000000000E+00  0.00000000000E+00  0.45593999997E+02  0.45594000000E+02  0.51100000000E-03 0.  1.
         11   -1    0    0    0    0 -0.00000000000E+00 -0.00000000000E+00 -0.45593999997E+02  0.45594000000E+02  0.51100000000E-03 0. -1.
    9900012    2    1    2    0    0  0.39508799367E+01 -0.10948833105E+02  0.38957398411E+02  0.50528864623E+02  0.30000014508E+02 0.  0.
         12    1    1    2    0    0 -0.39508799367E+01  0.10948833105E+02 -0.38957398411E+02  0.40659135377E+02  0.00000000000E+00 0. -1.
         11    1    3    3    0    0  0.10441219846E+02 -0.64086860244E+01  0.19165617190E+02  0.22746674724E+02  0.51100000000E-03 0. -1.
        -11    1    3    3    0    0 -0.19095459980E+01  0.43063089060E+01  0.16699499866E+02  0.17351194724E+02  0.51100000000E-03 0.  1.
         12    1    3    3    0    0 -0.45807939110E+01 -0.88464559866E+01  0.30922813553E+01  0.10430995176E+02  0.00000000000E+00 0. -1.
</event>
<event>
 7    1  0.2575978E-011  0.5052886E+02  0.7816164E-02  0.1300439E+00
        -11   -1    0    0    0    0  0.00000000000E+00  0.00000000000E+00  0.45593999997E+02  0.45594000000E+02  0.51100000000E-03 0.  1.
         11   -1    0    0    0    0 -0.00000000000E+00 -0.00000000000E+00 -0.45593999997E+02  0.45594000000E+02  0.51100000000E-03 0. -1.
    9900012    2    1    2    0    0 -0.38123017750E+02  0.13326278862E+02 -0.47128798866E+01  0.50528862927E+02  0.30000009354E+02 0.  0.
         12    1    1    2    0    0  0.38123017750E+02 -0.13326278862E+02  0.47128798866E+01  0.40659137073E+02  0.00000000000E+00 0. -1.
         11    1    3    3    0    0 -0.16275834896E+01 -0.37288459537E+01  0.15240788701E+01  0.43446676311E+01  0.51100000000E-03 0. -1.
        -11    1    3    3    0    0 -0.74906071285E+01  0.14844613348E+02 -0.12877679327E+01  0.16677232597E+02  0.51100000000E-03 0.  1.
        -12    1    3    3    0    0 -0.29004827132E+02  0.22105114678E+01 -0.49491908239E+01  0.29506962699E+02  0.00000000000E+00 0.  1.
</event>
<event>
 7    1  0.2575978E-011  0.5052882E+02  0.7816164E-02  0.1300439E+00
        -11   -1    0    0    0    0  0.00000000000E+00  0.00000000000E+00  0.45593999997E+02  0.45594000000E+02  0.51100000000E-03 0. -1.
         11   -1    0    0    0    0 -0.00000000000E+00 -0.00000000000E+00 -0.45593999997E+02  0.45594000000E+02  0.51100000000E-03 0.  1.
    9900012    2    1    2    0    0  0.78788291787E+01 -0.32363990910E+02 -0.23316624742E+02  0.50528820887E+02  0.29999881567E+02 0.  0.
         12    1    1    2    0    0 -0.78788291787E+01  0.32363990910E+02  0.23316624742E+02  0.40659179113E+02  0.00000000000E+00 0. -1.
         11    1    3    3    0    0 -0.44678723390E+01 -0.33327466631E+01 -0.67556296164E+01  0.87582883792E+01  0.51100000000E-03 0. -1.
        -11    1    3    3    0    0 -0.46803525253E+01 -0.14230929525E+02 -0.10853853012E+02  0.18499491354E+02  0.51100000000E-03 0.  1.
        -12    1    3    3    0    0  0.17027054043E+02 -0.14800314722E+02 -0.57071421132E+01  0.23271041153E+02  0.00000000000E+00 0.  1.
</event>
<event>
 7    1  0.2575978E-011  0.5052889E+02  0.7816164E-02  0.1300439E+00
        -11   -1    0    0    0    0  0.00000000000E+00  0.00000000000E+00  0.45593999997E+02  0.45594000000E+02  0.51100000000E-03 0. -1.
         11   -1    0    0    0    0 -0.00000000000E+00 -0.00000000000E+00 -0.45593999997E+02  0.45594000000E+02  0.51100000000E-03 0.  1.
    9900012    2    1    2    0    0  0.10693240685E+02 -0.38234007644E+02 -0.87737557279E+01  0.50528886306E+02  0.30000080414E+02 0.  0.
         12    1    1    2    0    0 -0.10693240685E+02  0.38234007644E+02  0.87737557279E+01  0.40659113694E+02  0.00000000000E+00 0. -1.
         11    1    3    3    0    0  0.88172711354E+01 -0.14479050061E+01 -0.47836336617E+01  0.10135277522E+02  0.51100000000E-03 0. -1.
        -11    1    3    3    0    0  0.50620794941E+01 -0.30175939535E+02 -0.85306087667E+01  0.31764496876E+02  0.51100000000E-03 0.  1.
         12    1    3    3    0    0 -0.31861099448E+01 -0.66101631031E+01  0.45404867006E+01  0.86291119072E+01  0.00000000000E+00 0. -1.
</event>
<event>
 7    1  0.2575978E-011  0.5052887E+02  0.7816164E-02  0.1300439E+00
        -11   -1    0    0    0    0  0.00000000000E+00  0.00000000000E+00  0.45593999997E+02  0.45594000000E+02  0.51100000000E-03 0. -1.
         11   -1    0    0    0    0 -0.00000000000E+00 -0.00000000000E+00 -0.45593999997E+02  0.45594000000E+02  0.51100000000E-03 0.  1.
    9900012    2    1    2    0    0  0.22761284697E+01 -0.11039263844E+02 -0.39065565173E+02  0.50528874465E+02  0.30000044423E+02 0.  0.
         12    1    1    2    0    0 -0.22761284697E+01  0.11039263844E+02  0.39065565173E+02  0.40659125535E+02  0.00000000000E+00 0. -1.
         11    1    3    3    0    0  0.17273631228E+01  0.66924512850E+01 -0.55780872750E+01  0.88818773617E+01  0.51100000000E-03 0. -1.
        -11    1    3    3    0    0  0.37909996249E+01 -0.59319484878E+01 -0.26784783285E+02  0.27694481524E+02  0.51100000000E-03 0.  1.
         12    1    3    3    0    0 -0.32422342780E+01 -0.11799766641E+02 -0.67026946129E+01  0.13952515578E+02  0.00000000000E+00 0. -1.
</event>
<event>
 7    1  0.2575978E-011  0.5052891E+02  0.7816164E-02  0.1300439E+00
        -11   -1    0    0    0    0  0.00000000000E+00  0.00000000000E+00  0.45593999997E+02  0.45594000000E+02  0.51100000000E-03 0. -1.
         11   -1    0    0    0    0 -0.00000000000E+00 -0.00000000000E+00 -0.45593999997E+02  0.45594000000E+02  0.51100000000E-03 0.  1.
    9900012    2    1    2    0    0  0.68322216441E+01 -0.27568555802E+02 -0.29093932882E+02  0.50528911814E+02  0.30000157948E+02 0.  0.
         12    1    1    2    0    0 -0.68322216441E+01  0.27568555802E+02  0.29093932882E+02  0.40659088186E+02  0.00000000000E+00 0. -1.
         11    1    3    3    0    0  0.23017879187E+01 -0.48472310638E+01 -0.92503176074E+01  0.10694028834E+02  0.51100000000E-03 0. -1.
        -11    1    3    3    0    0  0.13757213151E+02 -0.21037185188E+02 -0.13767670258E+02  0.28659602560E+02  0.51100000000E-03 0.  1.
         12    1    3    3    0    0 -0.92267794261E+01 -0.16841395508E+01 -0.60759450166E+01  0.11175280419E+02  0.00000000000E+00 0. -1.
</event>
<event>
 7    1  0.2575978E-011  0.5052886E+02  0.7816164E-02  0.1300439E+00
        -11   -1    0    0    0    0  0.00000000000E+00  0.00000000000E+00  0.45593999997E+02  0.45594000000E+02  0.51100000000E-03 0. -1.
         11   -1    0    0    0    0 -0.00000000000E+00 -0.00000000000E+00 -0.45593999997E+02  0.45594000000E+02  0.51100000000E-03 0.  1.
    9900012    2    1    2    0    0  0.26289192761E+02  0.24493728036E+02 -0.19028962292E+02  0.50528858654E+02  0.29999996365E+02 0.  0.
         12    1    1    2    0    0 -0.26289192761E+02 -0.24493728036E+02  0.19028962292E+02  0.40659141346E+02  0.00000000000E+00 0. -1.
         11    1    3    3    0    0  0.59247441150E+01  0.91923289128E+01 -0.12025479459E+02  0.16254650416E+02  0.51100000000E-03 0. -1.
        -11    1    3    3    0    0  0.38047613313E+01  0.86243109121E+01 -0.12441629241E+02  0.15609262825E+02  0.51100000000E-03 0.  1.
         12    1    3    3    0    0  0.16559687314E+02  0.66770882106E+01  0.54381464081E+01  0.18664945413E+02  0.00000000000E+00 0. -1.
</event>
<event>
 7    1  0.2575978E-011  0.5052886E+02  0.7816164E-02  0.1300439E+00
        -11   -1    0    0    0    0  0.00000000000E+00  0.00000000000E+00  0.45593999997E+02  0.45594000000E+02  0.51100000000E-03 0.  1.
         11   -1    0    0    0    0 -0.00000000000E+00 -0.00000000000E+00 -0.45593999997E+02  0.45594000000E+02  0.51100000000E-03 0. -1.
    9900012    2    1    2    0    0 -0.27431458993E+02 -0.33836621793E+01  0.29819984227E+02  0.50528861156E+02  0.30000003970E+02 0.  0.
         12    1    1    2    0    0  0.27431458993E+02  0.33836621793E+01 -0.29819984227E+02  0.40659138844E+02  0.00000000000E+00 0. -1.
         11    1    3    3    0    0 -0.18790635692E+02 -0.31729681180E+01  0.10809800167E+00  0.19056951535E+02  0.51100000000E-03 0. -1.
        -11    1    3    3    0    0 -0.20621796210E+01 -0.18292060040E+01  0.38352373744E+01  0.47230948935E+01  0.51100000000E-03 0.  1.
        -12    1    3    3    0    0 -0.65786436804E+01  0.16185119427E+01  0.25876648851E+02  0.26748814727E+02  0.00000000000E+00 0.  1.
</event>
<event>
 7    1  0.2575978E-011  0.5052886E+02  0.7816164E-02  0.1300439E+00
        -11   -1    0    0    0    0  0.00000000000E+00  0.00000000000E+00  0.45593999997E+02  0.45594000000E+02  0.51100000000E-03 0.  1.
         11   -1    0    0    0    0 -0.00000000000E+00 -0.00000000000E+00 -0.45593999997E+02  0.45594000000E+02  0.51100000000E-03 0. -1.
    9900012    2    1    2    0    0  0.19289108122E+02  0.13952637550E+02  0.32960880753E+02  0.50528862690E+02  0.30000008633E+02 0.  0.
         12    1    1    2    0    0 -0.19289108122E+02 -0.13952637550E+02 -0.32960880753E+02  0.40659137310E+02  0.00000000000E+00 0. -1.
         11    1    3    3    0    0 -0.56945024747E+01  0.41085379821E+01  0.41380835990E+01  0.81505324316E+01  0.51100000000E-03 0. -1.
        -11    1    3    3    0    0  0.73499079989E+00  0.65283112759E+01  0.54408521363E+01  0.85300604817E+01  0.51100000000E-03 0.  1.
        -12    1    3    3    0    0  0.24248619797E+02  0.33157882920E+01  0.23381945018E+02  0.33848269777E+02  0.00000000000E+00 0.  1.
</event>
<event>
 7    1  0.2575978E-011  0.5052885E+02  0.7816164E-02  0.1300439E+00
        -11   -1    0    0    0    0  0.00000000000E+00  0.00000000000E+00  0.45593999997E+02  0.45594000000E+02  0.51100000000E-03 0. -1.
         11   -1    0    0    0    0 -0.00000000000E+00 -0.00000000000E+00 -0.45593999997E+02  0.45594000000E+02  0.51100000000E-03 0.  1.
    9900012    2    1    2    0    0  0.23859554404E+02 -0.20238342849E+02 -0.25967238479E+02  0.50528851806E+02  0.29999975548E+02 0.  0.
         12    1    1    2    0    0 -0.23859554404E+02  0.20238342849E+02  0.25967238479E+02  0.40659148194E+02  0.00000000000E+00 0. -1.
         11    1    3    3    0    0  0.80415372054E+00 -0.14844338068E+02 -0.10228013984E+02  0.18044758414E+02  0.51100000000E-03 0.  1.
        -11    1    3    3    0    0 -0.83728654579E+00 -0.25702690453E+01 -0.59021623268E+01  0.64917526230E+01  0.51100000000E-03 0. -1.
         12    1    3    3    0    0  0.23892687230E+02 -0.28237357363E+01 -0.98370621679E+01  0.25992340769E+02  0.00000000000E+00 0. -1.
</event>
<event>
 7    1  0.2575978E-011  0.5052884E+02  0.7816164E-02  0.1300439E+00
        -11   -1    0    0    0    0  0.00000000000E+00  0.00000000000E+00  0.45593999997E+02  0.45594000000E+02  0.51100000000E-03 0.  1.
         11   -1    0    0    0    0 -0.00000000000E+00 -0.00000000000E+00 -0.45593999997E+02  0.45594000000E+02  0.51100000000E-03 0. -1.
    9900012    2    1    2    0    0  0.28437457840E+02 -0.27998297962E+02 -0.77828789675E+01  0.50528844793E+02  0.29999954231E+02 0.  0.
         12    1    1    2    0    0 -0.28437457840E+02  0.27998297962E+02  0.77828789675E+01  0.40659155207E+02  0.00000000000E+00 0. -1.
         11    1    3    3    0    0  0.18669018224E+02 -0.20170969639E+02 -0.99981405563E+01  0.29246590784E+02  0.51100000000E-03 0.  1.
        -11    1    3    3    0    0  0.93432957943E+01 -0.31758488549E+01 -0.62023437281E+01  0.11655567778E+02  0.51100000000E-03 0. -1.
         12    1    3    3    0    0  0.42514382163E+00 -0.46514794677E+01  0.84176053170E+01  0.96266862304E+01  0.00000000000E+00 0. -1.
</event>
<event>
 7    1  0.2575978E-011  0.5052886E+02  0.7816164E-02  0.1300439E+00
        -11   -1    0    0    0    0  0.00000000000E+00  0.00000000000E+00  0.45593999997E+02  0.45594000000E+02  0.51100000000E-03 0.  1.
         11   -1    0    0    0    0 -0.00000000000E+00 -0.00000000000E+00 -0.45593999997E+02  0.45594000000E+02  0.51100000000E-03 0. -1.
    9900012    2    1    2    0    0  0.78452454172E+01 -0.23747250240E+02  0.32057540283E+02  0.50528860085E+02  0.30000000716E+02 0.  0.
         12    1    1    2    0    0 -0.78452454172E+01  0.23747250240E+02 -0.32057540283E+02  0.40659139915E+02  0.00000000000E+00 0. -1.
         11    1    3    3    0    0  0.22511764580E+01 -0.19422294245E+02  0.61862275935E+01  0.20507625930E+02  0.51100000000E-03 0. -1.
        -11    1    3    3    0    0  0.26616968774E+01 -0.58970523880E+01  0.34075486055E+01  0.73124034964E+01  0.51100000000E-03 0.  1.
         12    1    3    3    0    0  0.29323720819E+01  0.15720963931E+01  0.22463764084E+02  0.22708830659E+02  0.00000000000E+00 0. -1.
</event>
<event>
 7    1  0.2575978E-011  0.5052886E+02  0.7816164E-02  0.1300439E+00
        -11   -1    0    0    0    0  0.00000000000E+00  0.00000000000E+00  0.45593999997E+02  0.45594000000E+02  0.51100000000E-03 0.  1.
         11   -1    0    0    0    0 -0.00000000000E+00 -0.00000000000E+00 -0.45593999997E+02  0.45594000000E+02  0.51100000000E-03 0. -1.
    9900012    2    1    2    0    0  0.10070005501E+02  0.25845156094E+02  0.29728583062E+02  0.50528858897E+02  0.29999997104E+02 0.  0.
         12    1    1    2    0    0 -0.10070005501E+02 -0.25845156094E+02 -0.29728583062E+02  0.40659141103E+02  0.00000000000E+00 0. -1.
         11    1    3    3    0    0  0.19653208327E+01  0.14588950911E+01 -0.36649295215E+01  0.44071044373E+01  0.51100000000E-03 0. -1.
        -11    1    3    3    0    0  0.63704986502E+01 -0.69020248731E+00  0.45305129554E+01  0.78476225970E+01  0.51100000000E-03 0.  1.
        -12    1    3    3    0    0  0.17341860184E+01  0.25076463490E+02  0.28862999628E+02  0.38274131863E+02  0.00000000000E+00 0.  1.
</event>
<event>
 7    1  0.2575978E-011  0.5052886E+02  0.7816164E-02  0.1300439E+00
        -11   -1    0    0    0    0  0.00000000000E+00  0.00000000000E+00  0.45593999997E+02  0.45594000000E+02  0.51100000000E-03 0.  1.
         11   -1    0    0    0    0 -0.00000000000E+00 -0.00000000000E+00 -0.45593999997E+02  0.45594000000E+02  0.51100000000E-03 0. -1.
    9900012    2    1    2    0    0  0.25592175384E+02  0.20092454689E+02  0.24382356502E+02  0.50528862222E+02  0.30000007209E+02 0.  0.
         12    1    1    2    0    0 -0.25592175384E+02 -0.20092454689E+02 -0.24382356502E+02  0.40659137778E+02  0.00000000000E+00 0. -1.
         11    1    3    3    0    0  0.23869933644E+01  0.10283248447E+02  0.28408175927E+01  0.10932208414E+02  0.51100000000E-03 0. -1.
        -11    1    3    3    0    0  0.76919679756E+01 -0.18574465527E+01  0.18273025193E+02  0.19912808165E+02  0.51100000000E-03 0.  1.
         12    1    3    3    0    0  0.15513214044E+02  0.11666652795E+02  0.32685137161E+01  0.19683845643E+02  0.00000000000E+00 0. -1.
</event>
