<event>
 7    1  0.4994895E-011  0.5052886E+02  0.7816164E-02  0.1300439E+00
        -11   -1    0    0    0    0  0.00000000000E+00  0.00000000000E+00  0.45593999997E+02  0.45594000000E+02  0.51100000000E-03 0.  1.
         11   -1    0    0    0    0 -0.00000000000E+00 -0.00000000000E+00 -0.45593999997E+02  0.45594000000E+02  0.51100000000E-03 0. -1.
    9900012    2    1    2    0    0  0.63595561159E+01  0.27838274455E+02 -0.28943953267E+02  0.50528857002E+02  0.29999991343E+02 0.  0.
        -12    1    1    2    0    0 -0.63595561159E+01 -0.27838274455E+02  0.28943953267E+02  0.40659142998E+02  0.00000000000E+00 0.  1.
         11    1    3    3    0    0  0.10226109102E+02  0.87451718329E+01 -0.11676795510E+02  0.17815692279E+02  0.51100000000E-03 0. -1.
        -11    1    3    3    0    0 -0.96556884827E+01  0.84592286644E+01 -0.16038760767E+02  0.20543434885E+02  0.51100000000E-03 0.  1.
        -12    1    3    3    0    0  0.57891354969E+01  0.10633873958E+02 -0.12283969897E+01  0.12169729838E+02  0.00000000000E+00 0.  1.
</event>
<event>
 7    1  0.4994895E-011  0.5052889E+02  0.7816164E-02  0.1300439E+00
        -11   -1    0    0    0    0  0.00000000000E+00  0.00000000000E+00  0.45593999997E+02  0.45594000000E+02  0.51100000000E-03 0.  1.
         11   -1    0    0    0    0 -0.00000000000E+00 -0.00000000000E+00 -0.45593999997E+02  0.45594000000E+02  0.51100000000E-03 0. -1.
    9900012    2    1    2    0    0  0.20694739439E+02  0.34688299696E+02 -0.46489684013E+01  0.50528889294E+02  0.30000089497E+02 0.  0.
        -12    1    1    2    0    0 -0.20694739439E+02 -0.34688299696E+02  0.46489684013E+01  0.40659110706E+02  0.00000000000E+00 0.  1.
         11    1    3    3    0    0  0.11357716744E+02  0.44376519897E+01 -0.65647833180E+01  0.13848713482E+02  0.51100000000E-03 0. -1.
        -11    1    3    3    0    0 -0.23210185377E+01  0.22121143044E+02 -0.57969028844E+00  0.22250126690E+02  0.51100000000E-03 0.  1.
        -12    1    3    3    0    0  0.11658041233E+02  0.81295046616E+01  0.24955052051E+01  0.14430049122E+02  0.00000000000E+00 0.  1.
</event>
<event>
 7    1  0.4994895E-011  0.5052885E+02  0.7816164E-02  0.1300439E+00
        -11   -1    0    0    0    0  0.00000000000E+00  0.00000000000E+00  0.45593999997E+02  0.45594000000E+02  0.51100000000E-03 0.  1.
         11   -1    0    0    0    0 -0.00000000000E+00 -0.00000000000E+00 -0.45593999997E+02  0.45594000000E+02  0.51100000000E-03 0. -1.
    9900012    2    1    2    0    0  0.12912519740E+02  0.36896670244E+02 -0.11183437096E+02  0.50528847200E+02  0.29999961549E+02 0.  0.
        -12    1    1    2    0    0 -0.12912519740E+02 -0.36896670244E+02  0.11183437096E+02  0.40659152800E+02  0.00000000000E+00 0.  1.
         11    1    3    3    0    0  0.12883051004E+02  0.50935004906E+01 -0.60141936473E+01  0.15102558589E+02  0.51100000000E-03 0. -1.
        -11    1    3    3    0    0  0.51489871735E+01  0.28323853267E+02 -0.33978737431E+01  0.28987898838E+02  0.51100000000E-03 0.  1.
         12    1    3    3    0    0 -0.51195184378E+01  0.34793164868E+01 -0.17713697051E+01  0.64383897740E+01  0.00000000000E+00 0. -1.
</event>
<event>
 7    1  0.4994895E-011  0.5052887E+02  0.7816164E-02  0.1300439E+00
        -11   -1    0    0    0    0  0.00000000000E+00  0.00000000000E+00  0.45593999997E+02  0.45594000000E+02  0.51100000000E-03 0.  1.
         11   -1    0    0    0    0 -0.00000000000E+00 -0.00000000000E+00 -0.45593999997E+02  0.45594000000E+02  0.51100000000E-03 0. -1.
    9900012    2    1    2    0    0  0.18181596948E+02  0.12425012876E+02 -0.34179135316E+02  0.50528871830E+02  0.30000036416E+02 0.  0.
        -12    1    1    2    0    0 -0.18181596948E+02 -0.12425012876E+02  0.34179135316E+02  0.40659128170E+02  0.00000000000E+00 0.  1.
         11    1    3    3    0    0  0.12274408529E+02  0.19279826959E+02 -0.20431495045E+02  0.30656464609E+02  0.51100000000E-03 0. -1.
        -11    1    3    3    0    0  0.45131307163E+01 -0.73899302320E+01 -0.15386244621E+02  0.17655479079E+02  0.51100000000E-03 0.  1.
         12    1    3    3    0    0  0.13940577025E+01  0.53511614869E+00  0.16386043500E+01  0.22169281419E+01  0.00000000000E+00 0. -1.
</event>
<event>
 7    1  0.4994895E-011  0.5052890E+02  0.7816164E-02  0.1300439E+00
        -11   -1    0    0    0    0  0.00000000000E+00  0.00000000000E+00  0.45593999997E+02  0.45594000000E+02  0.51100000000E-03 0. -1.
         11   -1    0    0    0    0 -0.00000000000E+00 -0.00000000000E+00 -0.45593999997E+02  0.45594000000E+02  0.51100000000E-03 0.  1.
    9900012    2    1    2    0    0 -0.21651536924E+02 -0.11907338000E+02  0.32289143647E+02  0.50528898352E+02  0.30000117030E+02 0.  0.
        -12    1    1    2    0    0  0.21651536924E+02  0.11907338000E+02 -0.32289143647E+02  0.40659101648E+02  0.00000000000E+00 0.  1.
         11    1    3    3    0    0 -0.15151507274E+02 -0.98022584121E+01  0.26434796852E+02  0.32007044967E+02  0.51100000000E-03 0. -1.
        -11    1    3    3    0    0 -0.37257366420E+01 -0.79760400042E+01 -0.12561940149E+01  0.88924884784E+01  0.51100000000E-03 0.  1.
        -12    1    3    3    0    0 -0.27742930074E+01  0.58709604159E+01  0.71105408093E+01  0.96293649062E+01  0.00000000000E+00 0.  1.
</event>
<event>
 7    1  0.4994895E-011  0.5052880E+02  0.7816164E-02  0.1300439E+00
        -11   -1    0    0    0    0  0.00000000000E+00  0.00000000000E+00  0.45593999997E+02  0.45594000000E+02  0.51100000000E-03 0.  1.
         11   -1    0    0    0    0 -0.00000000000E+00 -0.00000000000E+00 -0.45593999997E+02  0.45594000000E+02  0.51100000000E-03 0. -1.
    9900012    2    1    2    0    0 -0.12263143658E+02 -0.27867347268E+02 -0.26948039130E+02  0.50528799945E+02  0.29999817914E+02 0.  0.
        -12    1    1    2    0    0  0.12263143658E+02  0.27867347268E+02  0.26948039130E+02  0.40659200055E+02  0.00000000000E+00 0.  1.
         11    1    3    3    0    0 -0.16340371013E+01 -0.80040407163E+01 -0.25665798575E+01  0.85628311593E+01  0.51100000000E-03 0. -1.
        -11    1    3    3    0    0  0.71715097391E+01  0.28488019861E+00 -0.39024822816E+01  0.81695212152E+01  0.51100000000E-03 0.  1.
        -12    1    3    3    0    0 -0.17800616296E+02 -0.20148186750E+02 -0.20478976991E+02  0.33796447571E+02  0.00000000000E+00 0.  1.
</event>
<event>
 7    1  0.4994895E-011  0.5052892E+02  0.7816164E-02  0.1300439E+00
        -11   -1    0    0    0    0  0.00000000000E+00  0.00000000000E+00  0.45593999997E+02  0.45594000000E+02  0.51100000000E-03 0. -1.
         11   -1    0    0    0    0 -0.00000000000E+00 -0.00000000000E+00 -0.45593999997E+02  0.45594000000E+02  0.51100000000E-03 0.  1.
    9900012    2    1    2    0    0 -0.10296265959E+02  0.76832044953E+01  0.38576111407E+02  0.50528916202E+02  0.30000171287E+02 0.  0.
        -12    1    1    2    0    0  0.10296265959E+02 -0.76832044953E+01 -0.38576111407E+02  0.40659083798E+02  0.00000000000E+00 0.  1.
         11    1    3    3    0    0 -0.67730282783E+01 -0.81890352766E+01  0.26674888178E+02  0.28713827164E+02  0.51100000000E-03 0. -1.
        -11    1    3    3    0    0 -0.33330996097E+01  0.33471264064E+01  0.28628983911E+00  0.47323113087E+01  0.51100000000E-03 0.  1.
         12    1    3    3    0    0 -0.19013807142E+00  0.12525113366E+02  0.11614933389E+02  0.17082777729E+02  0.00000000000E+00 0. -1.
</event>
<event>
 7    1  0.4994895E-011  0.5052886E+02  0.7816164E-02  0.1300439E+00
        -11   -1    0    0    0    0  0.00000000000E+00  0.00000000000E+00  0.45593999997E+02  0.45594000000E+02  0.51100000000E-03 0. -1.
         11   -1    0    0    0    0 -0.00000000000E+00 -0.00000000000E+00 -0.45593999997E+02  0.45594000000E+02  0.51100000000E-03 0.  1.
    9900012    2    1    2    0    0  0.12360036712E+02 -0.28334303492E+01  0.38631159965E+02  0.50528863815E+02  0.30000012053E+02 0.  0.
        -12    1    1    2    0    0 -0.12360036712E+02  0.28334303492E+01 -0.38631159965E+02  0.40659136185E+02  0.00000000000E+00 0.  1.
         11    1    3    3    0    0  0.71820781628E+01 -0.31674434384E+01  0.36645969806E+02  0.37477220388E+02  0.51100000000E-03 0. -1.
        -11    1    3    3    0    0  0.50680964850E+01 -0.37927730625E+01 -0.26342198020E+01  0.68563724892E+01  0.51100000000E-03 0.  1.
        -12    1    3    3    0    0  0.10986206387E+00  0.41267861517E+01  0.46194099607E+01  0.61952709384E+01  0.00000000000E+00 0.  1.
</event>
<event>
 7    1  0.4994895E-011  0.5052887E+02  0.7816164E-02  0.1300439E+00
        -11   -1    0    0    0    0  0.00000000000E+00  0.00000000000E+00  0.45593999997E+02  0.45594000000E+02  0.51100000000E-03 0.  1.
         11   -1    0    0    0    0 -0.00000000000E+00 -0.00000000000E+00 -0.45593999997E+02  0.45594000000E+02  0.51100000000E-03 0. -1.
    9900012    2    1    2    0    0 -0.93680026167E+01 -0.17835247710E+02 -0.35317267910E+02  0.50528868842E+02  0.30000027332E+02 0.  0.
        -12    1    1    2    0    0  0.93680026167E+01  0.17835247710E+02  0.35317267910E+02  0.40659131158E+02  0.00000000000E+00 0.  1.
         11    1    3    3    0    0 -0.12736701440E+02 -0.27823660513E+01 -0.59299380658E+01  0.14322335359E+02  0.51100000000E-03 0. -1.
        -11    1    3    3    0    0  0.20655057317E+01 -0.78327011064E+01 -0.27447076310E+02  0.28617468770E+02  0.51100000000E-03 0.  1.
         12    1    3    3    0    0  0.13031930920E+01 -0.72201805519E+01 -0.19402535338E+01  0.75890647126E+01  0.00000000000E+00 0. -1.
</event>
<event>
 7    1  0.4994895E-011  0.5052886E+02  0.7816164E-02  0.1300439E+00
        -11   -1    0    0    0    0  0.00000000000E+00  0.00000000000E+00  0.45593999997E+02  0.45594000000E+02  0.51100000000E-03 0.  1.
         11   -1    0    0    0    0 -0.00000000000E+00 -0.00000000000E+00 -0.45593999997E+02  0.45594000000E+02  0.51100000000E-03 0. -1.
    9900012    2    1    2    0    0 -0.85147861661E+01  0.33880570623E+02 -0.20803146764E+02  0.50528861243E+02  0.30000004234E+02 0.  0.
        -12    1    1    2    0    0  0.85147861661E+01 -0.33880570623E+02  0.20803146764E+02  0.40659138757E+02  0.00000000000E+00 0.  1.
         11    1    3    3    0    0 -0.78792831172E+01  0.15688595225E+02 -0.96771126822E+01  0.20046486792E+02  0.51100000000E-03 0. -1.
        -11    1    3    3    0    0  0.20758466987E+01  0.26327322712E-01  0.53935935056E+01  0.57793324709E+01  0.51100000000E-03 0.  1.
        -12    1    3    3    0    0 -0.27113497476E+01  0.18165648075E+02 -0.16519627587E+02  0.24703041980E+02  0.00000000000E+00 0.  1.
</event>
<event>
 7    1  0.4994895E-011  0.5052881E+02  0.7816164E-02  0.1300439E+00
        -11   -1    0    0    0    0  0.00000000000E+00  0.00000000000E+00  0.45593999997E+02  0.45594000000E+02  0.51100000000E-03 0.  1.
         11   -1    0    0    0    0 -0.00000000000E+00 -0.00000000000E+00 -0.45593999997E+02  0.45594000000E+02  0.51100000000E-03 0. -1.
    9900012    2    1    2    0    0 -0.35228885398E+02 -0.19034628339E+01 -0.20210686675E+02  0.50528814162E+02  0.29999861127E+02 0.  0.
        -12    1    1    2    0    0  0.35228885398E+02  0.19034628339E+01  0.20210686675E+02  0.40659185838E+02  0.00000000000E+00 0.  1.
         11    1    3    3    0    0 -0.19692332026E+02  0.66781140802E+01 -0.18079277862E+02  0.27554408659E+02  0.51100000000E-03 0. -1.
        -11    1    3    3    0    0 -0.10446326277E+02 -0.52503886482E+01  0.57413277086E+01  0.13025174001E+02  0.51100000000E-03 0.  1.
         12    1    3    3    0    0 -0.50902270943E+01 -0.33311882658E+01 -0.78727365218E+01  0.99492315017E+01  0.00000000000E+00 0. -1.
</event>
<event>
 7    1  0.4994895E-011  0.5052886E+02  0.7816164E-02  0.1300439E+00
        -11   -1    0    0    0    0  0.00000000000E+00  0.00000000000E+00  0.45593999997E+02  0.45594000000E+02  0.51100000000E-03 0.  1.
         11   -1    0    0    0    0 -0.00000000000E+00 -0.00000000000E+00 -0.45593999997E+02  0.45594000000E+02  0.51100000000E-03 0. -1.
    9900012    2    1    2    0    0  0.21908040136E+02  0.82099859968E+01 -0.33253564525E+02  0.50528860237E+02  0.30000001176E+02 0.  0.
        -12    1    1    2    0    0 -0.21908040136E+02 -0.82099859968E+01  0.33253564525E+02  0.40659139763E+02  0.00000000000E+00 0.  1.
         11    1    3    3    0    0  0.19708183075E+02  0.15304914756E+02 -0.27152189566E+02  0.36876744627E+02  0.51100000000E-03 0. -1.
        -11    1    3    3    0    0 -0.12084862308E+01 -0.49131120533E+01 -0.77721554672E+01  0.92739155638E+01  0.51100000000E-03 0.  1.
        -12    1    3    3    0    0  0.34083432918E+01 -0.21818167064E+01  0.16707805079E+01  0.43782000458E+01  0.00000000000E+00 0.  1.
</event>
<event>
 7    1  0.4994895E-011  0.5052886E+02  0.7816164E-02  0.1300439E+00
        -11   -1    0    0    0    0  0.00000000000E+00  0.00000000000E+00  0.45593999997E+02  0.45594000000E+02  0.51100000000E-03 0.  1.
         11   -1    0    0    0    0 -0.00000000000E+00 -0.00000000000E+00 -0.45593999997E+02  0.45594000000E+02  0.51100000000E-03 0. -1.
    9900012    2    1    2    0    0 -0.51991043493E+01  0.11983691856E+02 -0.38503582206E+02  0.50528863275E+02  0.30000010411E+02 0.  0.
        -12    1    1    2    0    0  0.51991043493E+01 -0.11983691856E+02  0.38503582206E+02  0.40659136725E+02  0.00000000000E+00 0.  1.
         11    1    3    3    0    0  0.72287447000E+01 -0.50579298522E+01 -0.21736974730E+02  0.23459187433E+02  0.51100000000E-03 0. -1.
        -11    1    3    3    0    0 -0.93319273370E+01  0.10718446022E+02 -0.11213220732E+02  0.18102659263E+02  0.51100000000E-03 0.  1.
         12    1    3    3    0    0 -0.30959217123E+01  0.63231756856E+01 -0.55533867434E+01  0.89670165786E+01  0.00000000000E+00 0. -1.
</event>
<event>
 7    1  0.4994895E-011  0.5052886E+02  0.7816164E-02  0.1300439E+00
        -11   -1    0    0    0    0  0.00000000000E+00  0.00000000000E+00  0.45593999997E+02  0.45594000000E+02  0.51100000000E-03 0.  1.
         11   -1    0    0    0    0 -0.00000000000E+00 -0.00000000000E+00 -0.45593999997E+02  0.45594000000E+02  0.51100000000E-03 0. -1.
    9900012    2    1    2    0    0  0.87269569892E+01 -0.85414008044E+01 -0.38782084050E+02  0.50528863890E+02  0.30000012280E+02 0.  0.
        -12    1    1    2    0    0 -0.87269569892E+01  0.85414008044E+01  0.38782084050E+02  0.40659136110E+02  0.00000000000E+00 0.  1.
         11    1    3    3    0    0  0.81588917256E+01  0.18577664125E+01 -0.17956650852E+02  0.19810606258E+02  0.51100000000E-03 0. -1.
        -11    1    3    3    0    0 -0.94457919522E+00 -0.64826404241E+01  0.25045285735E+01  0.70135241042E+01  0.51100000000E-03 0.  1.
        -12    1    3    3    0    0  0.15126444588E+01 -0.39165267928E+01 -0.23329961771E+02  0.23704733528E+02  0.00000000000E+00 0.  1.
</event>
<event>
 7    1  0.4994895E-011  0.5052884E+02  0.7816164E-02  0.1300439E+00
        -11   -1    0    0    0    0  0.00000000000E+00  0.00000000000E+00  0.45593999997E+02  0.45594000000E+02  0.51100000000E-03 0. -1.
         11   -1    0    0    0    0 -0.00000000000E+00 -0.00000000000E+00 -0.45593999997E+02  0.45594000000E+02  0.51100000000E-03 0.  1.
    9900012    2    1    2    0    0  0.17911153880E+02 -0.36892457426E+01  0.36314559683E+02  0.50528840977E+02  0.29999942634E+02 0.  0.
        -12    1    1    2    0    0 -0.17911153880E+02  0.36892457426E+01 -0.36314559683E+02  0.40659159023E+02  0.00000000000E+00 0.  1.
         11    1    3    3    0    0  0.17113135149E+02  0.37688995280E+01  0.34139218984E+02  0.38373822736E+02  0.51100000000E-03 0. -1.
        -11    1    3    3    0    0 -0.61631550318E+00 -0.24761748792E+01 -0.35904725534E+01  0.44048587094E+01  0.51100000000E-03 0.  1.
        -12    1    3    3    0    0  0.14143342342E+01 -0.49819703914E+01  0.57658132530E+01  0.77501595322E+01  0.00000000000E+00 0.  1.
</event>
<event>
 7    1  0.4994895E-011  0.5052885E+02  0.7816164E-02  0.1300439E+00
        -11   -1    0    0    0    0  0.00000000000E+00  0.00000000000E+00  0.45593999997E+02  0.45594000000E+02  0.51100000000E-03 0.  1.
         11   -1    0    0    0    0 -0.00000000000E+00 -0.00000000000E+00 -0.45593999997E+02  0.45594000000E+02  0.51100000000E-03 0. -1.
    9900012    2    1    2    0    0  0.17594041482E+02  0.91797677257E+01 -0.35487294646E+02  0.50528849585E+02  0.29999968798E+02 0.  0.
        -12    1    1    2    0    0 -0.17594041482E+02 -0.91797677257E+01  0.35487294646E+02  0.40659150415E+02  0.00000000000E+00 0.  1.
         11    1    3    3    0    0  0.31687020039E+01  0.36041924757E+01 -0.24870684553E+02  0.25329465572E+02  0.51100000000E-03 0. -1.
        -11    1    3    3    0    0  0.16347042407E+02  0.85904567100E+01 -0.11169061316E+02  0.21581697637E+02  0.51100000000E-03 0.  1.
         12    1    3    3    0    0 -0.19217029281E+01 -0.30148814600E+01  0.55245122301E+00  0.36176863761E+01  0.00000000000E+00 0. -1.
</event>
<event>
 7    1  0.4994895E-011  0.5052889E+02  0.7816164E-02  0.1300439E+00
        -11   -1    0    0    0    0  0.00000000000E+00  0.00000000000E+00  0.45593999997E+02  0.45594000000E+02  0.51100000000E-03 0.  1.
         11   -1    0    0    0    0 -0.00000000000E+00 -0.00000000000E+00 -0.45593999997E+02  0.45594000000E+02  0.51100000000E-03 0. -1.
    9900012    2    1    2    0    0  0.94002148431E+01 -0.84836722054E+01 -0.38637117266E+02  0.50528885845E+02  0.30000079015E+02 0.  0.
        -12    1    1    2    0    0 -0.94002148431E+01  0.84836722054E+01  0.38637117266E+02  0.40659114155E+02  0.00000000000E+00 0.  1.
         11    1    3    3    0    0  0.11868943205E+02 -0.70341884103E+01 -0.11482407971E+02  0.17949855500E+02  0.51100000000E-03 0. -1.
        -11    1    3    3    0    0  0.24951552138E+01  0.72884685728E+01 -0.14499743194E+02  0.16419199939E+02  0.51100000000E-03 0.  1.
        -12    1    3    3    0    0 -0.49638835760E+01 -0.87379523678E+01 -0.12654966101E+02  0.16159830406E+02  0.00000000000E+00 0.  1.
</event>
<event>
 7    1  0.4994895E-011  0.5052888E+02  0.7816164E-02  0.1300439E+00
        -11   -1    0    0    0    0  0.00000000000E+00  0.00000000000E+00  0.45593999997E+02  0.45594000000E+02  0.51100000000E-03 0.  1.
         11   -1    0    0    0    0 -0.00000000000E+00 -0.00000000000E+00 -0.45593999997E+02  0.45594000000E+02  0.51100000000E-03 0. -1.
    9900012    2    1    2    0    0  0.98345021192E+01 -0.70281243064E+01 -0.38820772595E+02  0.50528876201E+02  0.30000049701E+02 0.  0.
        -12    1    1    2    0    0 -0.98345021192E+01  0.70281243064E+01  0.38820772595E+02  0.40659123799E+02  0.00000000000E+00 0.  1.
         11    1    3    3    0    0  0.12528549319E+02  0.73634755457E+01 -0.26677233078E+02  0.30378612298E+02  0.51100000000E-03 0. -1.
        -11    1    3    3    0    0 -0.36444992974E+01 -0.64192500500E+01 -0.87123046543E+01  0.11418992906E+02  0.51100000000E-03 0.  1.
         12    1    3    3    0    0  0.95045209778E+00 -0.79723498021E+01 -0.34312348625E+01  0.87312709979E+01  0.00000000000E+00 0. -1.
</event>
<event>
 7    1  0.4994895E-011  0.5052886E+02  0.7816164E-02  0.1300439E+00
        -11   -1    0    0    0    0  0.00000000000E+00  0.00000000000E+00  0.45593999997E+02  0.45594000000E+02  0.51100000000E-03 0. -1.
         11   -1    0    0    0    0 -0.00000000000E+00 -0.00000000000E+00 -0.45593999997E+02  0.45594000000E+02  0.51100000000E-03 0.  1.
    9900012    2    1    2    0    0  0.18298433934E+02 -0.37028408787E+01  0.36119548287E+02  0.50528862239E+02  0.30000007261E+02 0.  0.
        -12    1    1    2    0    0 -0.18298433934E+02  0.37028408787E+01 -0.36119548287E+02  0.40659137761E+02  0.00000000000E+00 0.  1.
         11    1    3    3    0    0  0.43429748482E+01 -0.10947525712E+02  0.10674719684E+01  0.11825787349E+02  0.51100000000E-03 0. -1.
        -11    1    3    3    0    0  0.47145937563E+01  0.13413487637E+01  0.15849316827E+02  0.16589980558E+02  0.51100000000E-03 0.  1.
         12    1    3    3    0    0  0.92408653298E+01  0.59033360701E+01  0.19202759492E+02  0.22113094332E+02  0.00000000000E+00 0. -1.
</event>
<event>
 7    1  0.4994895E-011  0.5052890E+02  0.7816164E-02  0.1300439E+00
        -11   -1    0    0    0    0  0.00000000000E+00  0.00000000000E+00  0.45593999997E+02  0.45594000000E+02  0.51100000000E-03 0.  1.
         11   -1    0    0    0    0 -0.00000000000E+00 -0.00000000000E+00 -0.45593999997E+02  0.45594000000E+02  0.51100000000E-03 0. -1.
    9900012    2    1    2    0    0  0.39013776750E+02  0.90478906270E+01 -0.70159115255E+01  0.50528903655E+02  0.30000133149E+02 0.  0.
        -12    1    1    2    0    0 -0.39013776750E+02 -0.90478906270E+01  0.70159115255E+01  0.40659096345E+02  0.00000000000E+00 0.  1.
         11    1    3    3    0    0  0.12720978935E+02  0.46802450141E+01 -0.56164721024E+01  0.14672176307E+02  0.51100000000E-03 0. -1.
        -11    1    3    3    0    0  0.12094197238E+02 -0.98896306142E+01 -0.18375289291E+01  0.15730572569E+02  0.51100000000E-03 0.  1.
        -12    1    3    3    0    0  0.14198600577E+02  0.14257276227E+02  0.43808950602E+00  0.20126154779E+02  0.00000000000E+00 0.  1.
</event>
<event>
 7    1  0.4994895E-011  0.5052886E+02  0.7816164E-02  0.1300439E+00
        -11   -1    0    0    0    0  0.00000000000E+00  0.00000000000E+00  0.45593999997E+02  0.45594000000E+02  0.51100000000E-03 0. -1.
         11   -1    0    0    0    0 -0.00000000000E+00 -0.00000000000E+00 -0.45593999997E+02  0.45594000000E+02  0.51100000000E-03 0.  1.
    9900012    2    1    2    0    0  0.28688041832E+02  0.28769150181E+02 -0.15804199002E+01  0.50528862363E+02  0.30000007640E+02 0.  0.
        -12    1    1    2    0    0 -0.28688041832E+02 -0.28769150181E+02  0.15804199002E+01  0.40659137637E+02  0.00000000000E+00 0.  1.
         11    1    3    3    0    0  0.19904325170E+02  0.13274391418E+02  0.81166979061E+01  0.25264053775E+02  0.51100000000E-03 0. -1.
        -11    1    3    3    0    0  0.48867093320E+01  0.84277460688E+01 -0.13250934856E+02  0.16446705041E+02  0.51100000000E-03 0.  1.
        -12    1    3    3    0    0  0.38970073304E+01  0.70670126938E+01  0.35538170496E+01  0.88181035472E+01  0.00000000000E+00 0.  1.
</event>
<event>
 7    1  0.4994895E-011  0.5052886E+02  0.7816164E-02  0.1300439E+00
        -11   -1    0    0    0    0  0.00000000000E+00  0.00000000000E+00  0.45593999997E+02  0.45594000000E+02  0.51100000000E-03 0.  1.
         11   -1    0    0    0    0 -0.00000000000E+00 -0.00000000000E+00 -0.45593999997E+02  0.45594000000E+02  0.51100000000E-03 0. -1.
    9900012    2    1    2    0    0 -0.21826797703E+02  0.30935947476E+02 -0.14823080873E+02  0.50528859936E+02  0.30000000260E+02 0.  0.
        -12    1    1    2    0    0  0.21826797703E+02 -0.30935947476E+02  0.14823080873E+02  0.40659140064E+02  0.00000000000E+00 0.  1.
         11    1    3    3    0    0 -0.29161958961E+01  0.13694742940E+01 -0.66461955380E+01  0.73859037184E+01  0.51100000000E-03 0. -1.
        -11    1    3    3    0    0 -0.70721518460E+01  0.29690226890E+02 -0.57586144669E+01  0.31059403493E+02  0.51100000000E-03 0.  1.
        -12    1    3    3    0    0 -0.11838449961E+02 -0.12375370750E+00 -0.24182708681E+01  0.12083552725E+02  0.00000000000E+00 0.  1.
</event>
<event>
 7    1  0.4994895E-011  0.5052886E+02  0.7816164E-02  0.1300439E+00
        -11   -1    0    0    0    0  0.00000000000E+00  0.00000000000E+00  0.45593999997E+02  0.45594000000E+02  0.51100000000E-03 0. -1.
         11   -1    0    0    0    0 -0.00000000000E+00 -0.00000000000E+00 -0.45593999997E+02  0.45594000000E+02  0.51100000000E-03 0.  1.
    9900012    2    1    2    0    0 -0.21413299652E+02  0.30522001733E+02  0.16218625006E+02  0.50528858483E+02  0.29999995846E+02 0.  0.
        -12    1    1    2    0    0  0.21413299652E+02 -0.30522001733E+02 -0.16218625006E+02  0.40659141517E+02  0.00000000000E+00 0.  1.
         11    1    3    3    0    0 -0.14406780056E+02  0.64855715170E+01 -0.41268098726E+01  0.16329375661E+02  0.51100000000E-03 0. -1.
        -11    1    3    3    0    0 -0.18404607956E+01  0.19106908123E+02  0.10041533290E+02  0.21663185939E+02  0.51100000000E-03 0.  1.
        -12    1    3    3    0    0 -0.51660588003E+01  0.49295220930E+01  0.10303901589E+02  0.12536296883E+02  0.00000000000E+00 0.  1.
</event>
<event>
 7    1  0.4994895E-011  0.5052885E+02  0.7816164E-02  0.1300439E+00
        -11   -1    0    0    0    0  0.00000000000E+00  0.00000000000E+00  0.45593999997E+02  0.45594000000E+02  0.51100000000E-03 0.  1.
         11   -1    0    0    0    0 -0.00000000000E+00 -0.00000000000E+00 -0.45593999997E+02  0.45594000000E+02  0.51100000000E-03 0. -1.
    9900012    2    1    2    0    0 -0.27351254748E+02  0.70280638797E+01 -0.29252036037E+02  0.50528850593E+02  0.29999971862E+02 0.  0.
        -12    1    1    2    0    0  0.27351254748E+02 -0.70280638797E+01  0.29252036037E+02  0.40659149407E+02  0.00000000000E+00 0.  1.
         11    1    3    3    0    0 -0.16200860656E+02  0.28256509418E+01 -0.16393998395E+02  0.23221011452E+02  0.51100000000E-03 0. -1.
        -11    1    3    3    0    0  0.52433433437E+01 -0.31122545312E+01 -0.39748209947E+01  0.72785973847E+01  0.51100000000E-03 0.  1.
        -12    1    3    3    0    0 -0.16393737436E+02  0.73146674691E+01 -0.88832166476E+01  0.20029241756E+02  0.00000000000E+00 0.  1.
</event>
<event>
 7    1  0.4994895E-011  0.5052886E+02  0.7816164E-02  0.1300439E+00
        -11   -1    0    0    0    0  0.00000000000E+00  0.00000000000E+00  0.45593999997E+02  0.45594000000E+02  0.51100000000E-03 0.  1.
         11   -1    0    0    0    0 -0.00000000000E+00 -0.00000000000E+00 -0.45593999997E+02  0.45594000000E+02  0.51100000000E-03 0. -1.
    9900012    2    1    2    0    0 -0.44970547198E+01  0.20891735651E+02 -0.34590141091E+02  0.50528856129E+02  0.29999988689E+02 0.  0.
        -12    1    1    2    0    0  0.44970547198E+01 -0.20891735651E+02  0.34590141091E+02  0.40659143871E+02  0.00000000000E+00 0.  1.
         11    1    3    3    0    0 -0.15387512075E+02  0.60938403225E+01 -0.17631294690E+02  0.24182079531E+02  0.51100000000E-03 0. -1.
        -11    1    3    3    0    0  0.10946024516E+02  0.97893667840E+01 -0.14932984692E+02  0.20943762480E+02  0.51100000000E-03 0.  1.
        -12    1    3    3    0    0 -0.55567161102E-01  0.50085285448E+01 -0.20258617081E+01  0.54030141175E+01  0.00000000000E+00 0.  1.
</event>
<event>
 7    1  0.4994895E-011  0.5052886E+02  0.7816164E-02  0.1300439E+00
        -11   -1    0    0    0    0  0.00000000000E+00  0.00000000000E+00  0.45593999997E+02  0.45594000000E+02  0.51100000000E-03 0.  1.
         11   -1    0    0    0    0 -0.00000000000E+00 -0.00000000000E+00 -0.45593999997E+02  0.45594000000E+02  0.51100000000E-03 0. -1.
    9900012    2    1    2    0    0  0.19307952535E+02 -0.29315970221E+02 -0.20516877670E+02  0.50528863138E+02  0.30000009993E+02 0.  0.
        -12    1    1    2    0    0 -0.19307952535E+02  0.29315970221E+02  0.20516877670E+02  0.40659136862E+02  0.00000000000E+00 0.  1.
         11    1    3    3    0    0 -0.32901235535E+00 -0.77125625512E+01 -0.41544149993E+00  0.77307478381E+01  0.51100000000E-03 0. -1.
        -11    1    3    3    0    0  0.18942777060E+02 -0.39939117685E+01 -0.14881861217E+02  0.24418229410E+02  0.51100000000E-03 0.  1.
        -12    1    3    3    0    0  0.69418783068E+00 -0.17609495901E+02 -0.52195749523E+01  0.18379885890E+02  0.00000000000E+00 0.  1.
</event>
<event>
 7    1  0.4994895E-011  0.5052885E+02  0.7816164E-02  0.1300439E+00
        -11   -1    0    0    0    0  0.00000000000E+00  0.00000000000E+00  0.45593999997E+02  0.45594000000E+02  0.51100000000E-03 0.  1.
         11   -1    0    0    0    0 -0.00000000000E+00 -0.00000000000E+00 -0.45593999997E+02  0.45594000000E+02  0.51100000000E-03 0. -1.
    9900012    2    1    2    0    0  0.27449285551E+01  0.88261916026E+01 -0.39594575144E+02  0.50528847626E+02  0.29999962843E+02 0.  0.
        -12    1    1    2    0    0 -0.27449285551E+01 -0.88261916026E+01  0.39594575144E+02  0.40659152374E+02  0.00000000000E+00 0.  1.
         11    1    3    3    0    0  0.34386695874E+01  0.36998592599E+01 -0.58228731290E+00  0.50845320188E+01  0.51100000000E-03 0.  1.
        -11    1    3    3    0    0 -0.95102437622E+01  0.93378288213E+01 -0.25452551009E+02  0.28731030901E+02  0.51100000000E-03 0. -1.
         12    1    3    3    0    0  0.88165027299E+01 -0.42114964786E+01 -0.13559736822E+02  0.16713284705E+02  0.00000000000E+00 0. -1.
</event>
<event>
 7    1  0.4994895E-011  0.5052885E+02  0.7816164E-02  0.1300439E+00
        -11   -1    0    0    0    0  0.00000000000E+00  0.00000000000E+00  0.45593999997E+02  0.45594000000E+02  0.51100000000E-03 0.  1.
         11   -1    0    0    0    0 -0.00000000000E+00 -0.00000000000E+00 -0.45593999997E+02  0.45594000000E+02  0.51100000000E-03 0. -1.
    9900012    2    1    2    0    0 -0.38163200189E+02 -0.12303712458E+02 -0.67346287883E+01  0.50528850798E+02  0.29999972485E+02 0.  0.
        -12    1    1    2    0    0  0.38163200189E+02  0.12303712458E+02  0.67346287883E+01  0.40659149202E+02  0.00000000000E+00 0.  1.
         11    1    3    3    0    0 -0.72838374923E+01 -0.14183317357E+01  0.23558857639E+01  0.77856375154E+01  0.51100000000E-03 0. -1.
        -11    1    3    3    0    0 -0.95851901658E+01 -0.14367900130E+02 -0.11913890791E+02  0.20982211959E+02  0.51100000000E-03 0.  1.
        -12    1    3    3    0    0 -0.21294172531E+02  0.34825194076E+01  0.28233762383E+01  0.21761001323E+02  0.00000000000E+00 0.  1.
</event>
<event>
 7    1  0.4994895E-011  0.5052887E+02  0.7816164E-02  0.1300439E+00
        -11   -1    0    0    0    0  0.00000000000E+00  0.00000000000E+00  0.45593999997E+02  0.45594000000E+02  0.51100000000E-03 0. -1.
         11   -1    0    0    0    0 -0.00000000000E+00 -0.00000000000E+00 -0.45593999997E+02  0.45594000000E+02  0.51100000000E-03 0.  1.
    9900012    2    1    2    0    0 -0.24357888740E+02 -0.22896625955E+02  0.23143092230E+02  0.50528868898E+02  0.30000027502E+02 0.  0.
        -12    1    1    2    0    0  0.24357888740E+02  0.22896625955E+02 -0.23143092230E+02  0.40659131102E+02  0.00000000000E+00 0.  1.
         11    1    3    3    0    0 -0.17903996816E+02  0.10471975866E+01  0.88959337574E+01  0.20019674384E+02  0.51100000000E-03 0. -1.
        -11    1    3    3    0    0 -0.20623997511E+00 -0.44211940047E+01 -0.14865744390E+01  0.46689822423E+01  0.51100000000E-03 0.  1.
         12    1    3    3    0    0 -0.62476519492E+01 -0.19522629537E+02  0.15733732912E+02  0.25840212272E+02  0.00000000000E+00 0. -1.
</event>
<event>
 7    1  0.4994895E-011  0.5052886E+02  0.7816164E-02  0.1300439E+00
        -11   -1    0    0    0    0  0.00000000000E+00  0.00000000000E+00  0.45593999997E+02  0.45594000000E+02  0.51100000000E-03 0. -1.
         11   -1    0    0    0    0 -0.00000000000E+00 -0.00000000000E+00 -0.45593999997E+02  0.45594000000E+02  0.51100000000E-03 0.  1.
    9900012    2    1    2    0    0  0.38473966610E+02 -0.12792836073E+02  0.30434525893E+01  0.50528863693E+02  0.30000011683E+02 0.  0.
        -12    1    1    2    0    0 -0.38473966610E+02  0.12792836073E+02 -0.30434525893E+01  0.40659136307E+02  0.00000000000E+00 0.  1.
         11    1    3    3    0    0  0.18506145858E+02  0.15626665057E+01  0.54079878359E+01  0.19343363043E+02  0.51100000000E-03 0. -1.
        -11    1    3    3    0    0  0.16657796529E+02 -0.19069634345E+02 -0.15494579459E+01  0.25367971133E+02  0.51100000000E-03 0.  1.
        -12    1    3    3    0    0  0.33100242238E+01  0.47141317663E+01 -0.81507730073E+00  0.58175295168E+01  0.00000000000E+00 0.  1.
</event>
<event>
 7    1  0.4994895E-011  0.5052886E+02  0.7816164E-02  0.1300439E+00
        -11   -1    0    0    0    0  0.00000000000E+00  0.00000000000E+00  0.45593999997E+02  0.45594000000E+02  0.51100000000E-03 0.  1.
         11   -1    0    0    0    0 -0.00000000000E+00 -0.00000000000E+00 -0.45593999997E+02  0.45594000000E+02  0.51100000000E-03 0. -1.
    9900012    2    1    2    0    0  0.20063131278E+02  0.35159908869E+02  0.37970038486E+01  0.50528859987E+02  0.30000000418E+02 0.  0.
        -12    1    1    2    0    0 -0.20063131278E+02 -0.35159908869E+02 -0.37970038486E+01  0.40659140013E+02  0.00000000000E+00 0.  1.
         11    1    3    3    0    0  0.92856718255E+01  0.18744044048E+02 -0.80191436287E+01  0.22402445253E+02  0.51100000000E-03 0. -1.
        -11    1    3    3    0    0 -0.94377750943E+00  0.57885887773E+01  0.10778299154E+02  0.12270705316E+02  0.51100000000E-03 0.  1.
        -12    1    3    3    0    0  0.11721236962E+02  0.10627276044E+02  0.10378483229E+01  0.15855709419E+02  0.00000000000E+00 0.  1.
</event>
<event>
 7    1  0.4994895E-011  0.5052884E+02  0.7816164E-02  0.1300439E+00
        -11   -1    0    0    0    0  0.00000000000E+00  0.00000000000E+00  0.45593999997E+02  0.45594000000E+02  0.51100000000E-03 0.  1.
         11   -1    0    0    0    0 -0.00000000000E+00 -0.00000000000E+00 -0.45593999997E+02  0.45594000000E+02  0.51100000000E-03 0. -1.
    9900012    2    1    2    0    0 -0.39357876376E+02  0.10194668209E+02  0.43991331431E+00  0.50528840928E+02  0.29999942484E+02 0.  0.
        -12    1    1    2    0    0  0.39357876376E+02 -0.10194668209E+02 -0.43991331431E+00  0.40659159072E+02  0.00000000000E+00 0.  1.
         11    1    3    3    0    0 -0.37971429767E+02  0.81160324739E+01 -0.39813966691E+01  0.39032691187E+02  0.51100000000E-03 0. -1.
        -11    1    3    3    0    0 -0.76046748567E+00 -0.51480848476E+00  0.74233438622E+01  0.74799313453E+01  0.51100000000E-03 0.  1.
        -12    1    3    3    0    0 -0.62597912389E+00  0.25934442202E+01 -0.30020338787E+01  0.40162183949E+01  0.00000000000E+00 0.  1.
</event>
<event>
 7    1  0.4994895E-011  0.5052886E+02  0.7816164E-02  0.1300439E+00
        -11   -1    0    0    0    0  0.00000000000E+00  0.00000000000E+00  0.45593999997E+02  0.45594000000E+02  0.51100000000E-03 0. -1.
         11   -1    0    0    0    0 -0.00000000000E+00 -0.00000000000E+00 -0.45593999997E+02  0.45594000000E+02  0.51100000000E-03 0.  1.
    9900012    2    1    2    0    0 -0.10021906362E+02 -0.25957418359E+02  0.29646908025E+02  0.50528864121E+02  0.30000012983E+02 0.  0.
        -12    1    1    2    0    0  0.10021906362E+02  0.25957418359E+02 -0.29646908025E+02  0.40659135879E+02  0.00000000000E+00 0.  1.
         11    1    3    3    0    0 -0.14258126417E+02 -0.26174803453E+02  0.16565476280E+02  0.34100286060E+02  0.51100000000E-03 0. -1.
        -11    1    3    3    0    0  0.55068549212E+01  0.14395927876E+01  0.13470000295E+02  0.14623227644E+02  0.51100000000E-03 0.  1.
        -12    1    3    3    0    0 -0.12706348664E+01 -0.12222076934E+01 -0.38856855060E+00  0.18053504170E+01  0.00000000000E+00 0.  1.
</event>
<event>
 7    1  0.4994895E-011  0.5052894E+02  0.7816164E-02  0.1300439E+00
        -11   -1    0    0    0    0  0.00000000000E+00  0.00000000000E+00  0.45593999997E+02  0.45594000000E+02  0.51100000000E-03 0. -1.
         11   -1    0    0    0    0 -0.00000000000E+00 -0.00000000000E+00 -0.45593999997E+02  0.45594000000E+02  0.51100000000E-03 0.  1.
    9900012    2    1    2    0    0  0.13886014385E+02  0.29878813992E+02  0.23824235569E+02  0.50528940474E+02  0.30000245064E+02 0.  0.
        -12    1    1    2    0    0 -0.13886014385E+02 -0.29878813992E+02 -0.23824235569E+02  0.40659059526E+02  0.00000000000E+00 0.  1.
         11    1    3    3    0    0  0.24862414310E+01  0.64019810855E+01  0.65110656791E+01  0.94636533544E+01  0.51100000000E-03 0. -1.
        -11    1    3    3    0    0  0.59907739015E+01  0.22578107565E+02  0.48290861847E+00  0.23364364193E+02  0.51100000000E-03 0.  1.
        -12    1    3    3    0    0  0.54089990526E+01  0.89872534186E+00  0.16830261271E+02  0.17700922927E+02  0.00000000000E+00 0.  1.
</event>
<event>
 7    1  0.4994895E-011  0.5052886E+02  0.7816164E-02  0.1300439E+00
        -11   -1    0    0    0    0  0.00000000000E+00  0.00000000000E+00  0.45593999997E+02  0.45594000000E+02  0.51100000000E-03 0.  1.
         11   -1    0    0    0    0 -0.00000000000E+00 -0.00000000000E+00 -0.45593999997E+02  0.45594000000E+02  0.51100000000E-03 0. -1.
    9900012    2    1    2    0    0 -0.22822759304E+01 -0.12519762250E+02 -0.38616222775E+02  0.50528857220E+02  0.29999992005E+02 0.  0.
        -12    1    1    2    0    0  0.22822759304E+01  0.12519762250E+02  0.38616222775E+02  0.40659142780E+02  0.00000000000E+00 0.  1.
         11    1    3    3    0    0 -0.89910842604E+01 -0.42863125609E+01 -0.24649201743E+00  0.99635751677E+01  0.51100000000E-03 0. -1.
        -11    1    3    3    0    0  0.74197956637E+01 -0.49147335418E+01 -0.20089147001E+02  0.21972296215E+02  0.51100000000E-03 0.  1.
         12    1    3    3    0    0 -0.71098733368E+00 -0.33187161474E+01 -0.18280583756E+02  0.18592985837E+02  0.00000000000E+00 0. -1.
</event>
<event>
 7    1  0.4994895E-011  0.5052886E+02  0.7816164E-02  0.1300439E+00
        -11   -1    0    0    0    0  0.00000000000E+00  0.00000000000E+00  0.45593999997E+02  0.45594000000E+02  0.51100000000E-03 0. -1.
         11   -1    0    0    0    0 -0.00000000000E+00 -0.00000000000E+00 -0.45593999997E+02  0.45594000000E+02  0.51100000000E-03 0.  1.
    9900012    2    1    2    0    0  0.24683296088E+02  0.12672372563E+02 -0.29720554828E+02  0.50528861895E+02  0.30000006217E+02 0.  0.
        -12    1    1    2    0    0 -0.24683296088E+02 -0.12672372563E+02  0.29720554828E+02  0.40659138105E+02  0.00000000000E+00 0.  1.
         11    1    3    3    0    0  0.10724301874E+02  0.16201487621E+02 -0.53391367015E+01  0.20149571529E+02  0.51100000000E-03 0. -1.
        -11    1    3    3    0    0  0.66482940295E+01 -0.21732375355E+01 -0.21141860644E+02  0.22268835772E+02  0.51100000000E-03 0.  1.
        -12    1    3    3    0    0  0.73107001843E+01 -0.13558775224E+01 -0.32395574822E+01  0.81104545940E+01  0.00000000000E+00 0.  1.
</event>
<event>
 7    1  0.4994895E-011  0.5052886E+02  0.7816164E-02  0.1300439E+00
        -11   -1    0    0    0    0  0.00000000000E+00  0.00000000000E+00  0.45593999997E+02  0.45594000000E+02  0.51100000000E-03 0. -1.
         11   -1    0    0    0    0 -0.00000000000E+00 -0.00000000000E+00 -0.45593999997E+02  0.45594000000E+02  0.51100000000E-03 0.  1.
    9900012    2    1    2    0    0 -0.25919838627E+01  0.40056987261E+02  0.64718450374E+01  0.50528863426E+02  0.30000010869E+02 0.  0.
        -12    1    1    2    0    0  0.25919838627E+01 -0.40056987261E+02 -0.64718450374E+01  0.40659136574E+02  0.00000000000E+00 0.  1.
         11    1    3    3    0    0 -0.80873144939E+00  0.37316458384E+02  0.10115984009E+02  0.38671762897E+02  0.51100000000E-03 0. -1.
        -11    1    3    3    0    0 -0.39926437398E+01 -0.95939027083E+00  0.21507906925E+01  0.46354648730E+01  0.51100000000E-03 0.  1.
         12    1    3    3    0    0  0.22093913264E+01  0.36999191482E+01 -0.57949296637E+01  0.72216356557E+01  0.00000000000E+00 0. -1.
</event>
<event>
 7    1  0.4994895E-011  0.5052885E+02  0.7816164E-02  0.1300439E+00
        -11   -1    0    0    0    0  0.00000000000E+00  0.00000000000E+00  0.45593999997E+02  0.45594000000E+02  0.51100000000E-03 0.  1.
         11   -1    0    0    0    0 -0.00000000000E+00 -0.00000000000E+00 -0.45593999997E+02  0.45594000000E+02  0.51100000000E-03 0. -1.
    9900012    2    1    2    0    0  0.16073789400E+02 -0.35831512837E+02  0.10531025651E+02  0.50528849504E+02  0.29999968551E+02 0.  0.
        -12    1    1    2    0    0 -0.16073789400E+02  0.35831512837E+02 -0.10531025651E+02  0.40659150496E+02  0.00000000000E+00 0.  1.
         11    1    3    3    0    0  0.14856811439E+01 -0.14860563039E+02  0.94642900368E+01  0.17680960621E+02  0.51100000000E-03 0. -1.
        -11    1    3    3    0    0  0.12664999425E+02 -0.18007667781E+02 -0.77580040885E+01  0.23342342150E+02  0.51100000000E-03 0.  1.
        -12    1    3    3    0    0  0.19231088314E+01 -0.29632820160E+01  0.88247397023E+01  0.95055467332E+01  0.00000000000E+00 0.  1.
</event>
<event>
 7    1  0.4994895E-011  0.5052886E+02  0.7816164E-02  0.1300439E+00
        -11   -1    0    0    0    0  0.00000000000E+00  0.00000000000E+00  0.45593999997E+02  0.45594000000E+02  0.51100000000E-03 0. -1.
         11   -1    0    0    0    0 -0.00000000000E+00 -0.00000000000E+00 -0.45593999997E+02  0.45594000000E+02  0.51100000000E-03 0.  1.
    9900012    2    1    2    0    0  0.26542159405E+02  0.22940820501E+01  0.30715088198E+02  0.50528859806E+02  0.29999999866E+02 0.  0.
        -12    1    1    2    0    0 -0.26542159405E+02 -0.22940820501E+01 -0.30715088198E+02  0.40659140194E+02  0.00000000000E+00 0.  1.
         11    1    3    3    0    0  0.31386036630E+01 -0.10066412819E+02  0.93141566557E+01  0.14069009008E+02  0.51100000000E-03 0. -1.
        -11    1    3    3    0    0  0.20208860055E+02  0.12786170635E+02  0.22711877889E+02  0.32980503055E+02  0.51100000000E-03 0.  1.
         12    1    3    3    0    0  0.31946956867E+01 -0.42567576584E+00 -0.13109463474E+01  0.34793477426E+01  0.00000000000E+00 0. -1.
</event>
<event>
 7    1  0.4994895E-011  0.5052886E+02  0.7816164E-02  0.1300439E+00
        -11   -1    0    0    0    0  0.00000000000E+00  0.00000000000E+00  0.45593999997E+02  0.45594000000E+02  0.51100000000E-03 0.  1.
         11   -1    0    0    0    0 -0.00000000000E+00 -0.00000000000E+00 -0.45593999997E+02  0.45594000000E+02  0.51100000000E-03 0. -1.
    9900012    2    1    2    0    0 -0.10508481145E+01  0.37714430064E+02  0.15155306787E+02  0.50528857847E+02  0.29999993912E+02 0.  0.
        -12    1    1    2    0    0  0.10508481145E+01 -0.37714430064E+02 -0.15155306787E+02  0.40659142153E+02  0.00000000000E+00 0.  1.
         11    1    3    3    0    0  0.44325536676E+01  0.86116765713E+01 -0.18369651012E+01  0.98581411244E+01  0.51100000000E-03 0. -1.
        -11    1    3    3    0    0 -0.13377319936E+02  0.24132842265E+02  0.13407637750E+02  0.30677540884E+02  0.51100000000E-03 0.  1.
        -12    1    3    3    0    0  0.78939181535E+01  0.49699112283E+01  0.35846341383E+01  0.99931758384E+01  0.00000000000E+00 0.  1.
</event>
<event>
 7    1  0.4994895E-011  0.5052886E+02  0.7816164E-02  0.1300439E+00
        -11   -1    0    0    0    0  0.00000000000E+00  0.00000000000E+00  0.45593999997E+02  0.45594000000E+02  0.51100000000E-03 0.  1.
         11   -1    0    0    0    0 -0.00000000000E+00 -0.00000000000E+00 -0.45593999997E+02  0.45594000000E+02  0.51100000000E-03 0. -1.
    9900012    2    1    2    0    0  0.56205946350E+01  0.14393626853E+02 -0.37608484501E+02  0.50528859767E+02  0.29999999748E+02 0.  0.
        -12    1    1    2    0    0 -0.56205946350E+01 -0.14393626853E+02  0.37608484501E+02  0.40659140233E+02  0.00000000000E+00 0.  1.
         11    1    3    3    0    0  0.82094925039E+01  0.83303739927E+01 -0.83588584073E+01  0.14375723014E+02  0.51100000000E-03 0. -1.
        -11    1    3    3    0    0  0.12457024524E+01 -0.33412313375E+01 -0.24816818550E+02  0.25071698879E+02  0.51100000000E-03 0.  1.
        -12    1    3    3    0    0 -0.38346003213E+01  0.94044841982E+01 -0.44328075431E+01  0.11081437875E+02  0.00000000000E+00 0.  1.
</event>
<event>
 7    1  0.4994895E-011  0.5052884E+02  0.7816164E-02  0.1300439E+00
        -11   -1    0    0    0    0  0.00000000000E+00  0.00000000000E+00  0.45593999997E+02  0.45594000000E+02  0.51100000000E-03 0.  1.
         11   -1    0    0    0    0 -0.00000000000E+00 -0.00000000000E+00 -0.45593999997E+02  0.45594000000E+02  0.51100000000E-03 0. -1.
    9900012    2    1    2    0    0 -0.18074708550E+02 -0.16366601202E+02 -0.32536238418E+02  0.50528837017E+02  0.29999930596E+02 0.  0.
        -12    1    1    2    0    0  0.18074708550E+02  0.16366601202E+02  0.32536238418E+02  0.40659162983E+02  0.00000000000E+00 0.  1.
         11    1    3    3    0    0 -0.91229894163E+01 -0.13566775389E+02 -0.27001487423E+02  0.31565276075E+02  0.51100000000E-03 0. -1.
        -11    1    3    3    0    0 -0.94115758186E+01 -0.56821708937E+01  0.17348420490E+01  0.11129892302E+02  0.51100000000E-03 0.  1.
        -12    1    3    3    0    0  0.45985668489E+00  0.28823450804E+01 -0.72695930443E+01  0.78336686401E+01  0.00000000000E+00 0.  1.
</event>
<event>
 7    1  0.4994895E-011  0.5052887E+02  0.7816164E-02  0.1300439E+00
        -11   -1    0    0    0    0  0.00000000000E+00  0.00000000000E+00  0.45593999997E+02  0.45594000000E+02  0.51100000000E-03 0.  1.
         11   -1    0    0    0    0 -0.00000000000E+00 -0.00000000000E+00 -0.45593999997E+02  0.45594000000E+02  0.51100000000E-03 0. -1.
    9900012    2    1    2    0    0 -0.32451408316E+02 -0.77843439248E+01 -0.23226605920E+02  0.50528866530E+02  0.30000020303E+02 0.  0.
        -12    1    1    2    0    0  0.32451408316E+02  0.77843439248E+01  0.23226605920E+02  0.40659133470E+02  0.00000000000E+00 0.  1.
         11    1    3    3    0    0  0.34320604693E+01  0.26297985068E+01  0.64040393866E+00  0.43709262996E+01  0.51100000000E-03 0. -1.
        -11    1    3    3    0    0 -0.36292625422E+02 -0.82406655325E+01 -0.21802781081E+02  0.43132638356E+02  0.51100000000E-03 0.  1.
        -12    1    3    3    0    0  0.40915663654E+00 -0.21734768991E+01 -0.20642287775E+01  0.30253018742E+01  0.00000000000E+00 0.  1.
</event>
<event>
 7    1  0.4994895E-011  0.5052886E+02  0.7816164E-02  0.1300439E+00
        -11   -1    0    0    0    0  0.00000000000E+00  0.00000000000E+00  0.45593999997E+02  0.45594000000E+02  0.51100000000E-03 0. -1.
         11   -1    0    0    0    0 -0.00000000000E+00 -0.00000000000E+00 -0.45593999997E+02  0.45594000000E+02  0.51100000000E-03 0.  1.
    9900012    2    1    2    0    0  0.39487170792E+02  0.64921434975E+01  0.71958870196E+01  0.50528863581E+02  0.30000011341E+02 0.  0.
        -12    1    1    2    0    0 -0.39487170792E+02 -0.64921434975E+01 -0.71958870196E+01  0.40659136419E+02  0.00000000000E+00 0.  1.
         11    1    3    3    0    0  0.10851506388E+02 -0.49258261202E+01  0.45901991909E+01  0.12770625777E+02  0.51100000000E-03 0. -1.
        -11    1    3    3    0    0  0.17106340822E+02  0.14138108637E+02 -0.61485612096E+01  0.23028630383E+02  0.51100000000E-03 0.  1.
        -12    1    3    3    0    0  0.11529323582E+02 -0.27201390188E+01  0.87542490384E+01  0.14729607421E+02  0.00000000000E+00 0.  1.
</event>
<event>
 7    1  0.4994895E-011  0.5052886E+02  0.7816164E-02  0.1300439E+00
        -11   -1    0    0    0    0  0.00000000000E+00  0.00000000000E+00  0.45593999997E+02  0.45594000000E+02  0.51100000000E-03 0. -1.
         11   -1    0    0    0    0 -0.00000000000E+00 -0.00000000000E+00 -0.45593999997E+02  0.45594000000E+02  0.51100000000E-03 0.  1.
    9900012    2    1    2    0    0 -0.16701829057E+02 -0.29197853214E+02  0.22840754014E+02  0.50528858714E+02  0.29999996549E+02 0.  0.
        -12    1    1    2    0    0  0.16701829057E+02  0.29197853214E+02 -0.22840754014E+02  0.40659141286E+02  0.00000000000E+00 0.  1.
         11    1    3    3    0    0 -0.22464856483E+00 -0.16488075554E+02  0.94063218620E+01  0.18983835063E+02  0.51100000000E-03 0.  1.
        -11    1    3    3    0    0 -0.16785969971E+02 -0.94318591330E+01  0.17701935469E+02  0.26155062114E+02  0.51100000000E-03 0. -1.
        -12    1    3    3    0    0  0.30878947911E+00 -0.32779185269E+01 -0.42675033175E+01  0.53899615376E+01  0.00000000000E+00 0.  1.
</event>
<event>
 7    1  0.4994895E-011  0.5052886E+02  0.7816164E-02  0.1300439E+00
        -11   -1    0    0    0    0  0.00000000000E+00  0.00000000000E+00  0.45593999997E+02  0.45594000000E+02  0.51100000000E-03 0.  1.
         11   -1    0    0    0    0 -0.00000000000E+00 -0.00000000000E+00 -0.45593999997E+02  0.45594000000E+02  0.51100000000E-03 0. -1.
    9900012    2    1    2    0    0  0.98911503270E+01  0.11243579789E+02 -0.37800958636E+02  0.50528863080E+02  0.30000009818E+02 0.  0.
        -12    1    1    2    0    0 -0.98911503270E+01 -0.11243579789E+02  0.37800958636E+02  0.40659136920E+02  0.00000000000E+00 0.  1.
         11    1    3    3    0    0 -0.91194203389E-01  0.24975795711E+01 -0.34247796417E+02  0.34338866897E+02  0.51100000000E-03 0. -1.
        -11    1    3    3    0    0  0.98734786642E+01  0.67648574776E+01 -0.57086164125E+01  0.13260361203E+02  0.51100000000E-03 0.  1.
         12    1    3    3    0    0  0.10886586622E+00  0.19811427402E+01  0.21554541935E+01  0.29296349797E+01  0.00000000000E+00 0. -1.
</event>
<event>
 7    1  0.4994895E-011  0.5052886E+02  0.7816164E-02  0.1300439E+00
        -11   -1    0    0    0    0  0.00000000000E+00  0.00000000000E+00  0.45593999997E+02  0.45594000000E+02  0.51100000000E-03 0. -1.
         11   -1    0    0    0    0 -0.00000000000E+00 -0.00000000000E+00 -0.45593999997E+02  0.45594000000E+02  0.51100000000E-03 0.  1.
    9900012    2    1    2    0    0 -0.30803526081E+02  0.65097548931E+01  0.25728029220E+02  0.50528860618E+02  0.30000002333E+02 0.  0.
        -12    1    1    2    0    0  0.30803526081E+02 -0.65097548931E+01 -0.25728029220E+02  0.40659139382E+02  0.00000000000E+00 0.  1.
         11    1    3    3    0    0 -0.19797607514E+02  0.13098293016E+02  0.17357302695E+02  0.29407252513E+02  0.51100000000E-03 0. -1.
        -11    1    3    3    0    0 -0.13242524120E+02 -0.45873385414E+01  0.21017839306E+01  0.14171295492E+02  0.51100000000E-03 0.  1.
         12    1    3    3    0    0  0.22366055538E+01 -0.20011995816E+01  0.62689425942E+01  0.69503126130E+01  0.00000000000E+00 0. -1.
</event>
<event>
 7    1  0.4994895E-011  0.5052888E+02  0.7816164E-02  0.1300439E+00
        -11   -1    0    0    0    0  0.00000000000E+00  0.00000000000E+00  0.45593999997E+02  0.45594000000E+02  0.51100000000E-03 0. -1.
         11   -1    0    0    0    0 -0.00000000000E+00 -0.00000000000E+00 -0.45593999997E+02  0.45594000000E+02  0.51100000000E-03 0.  1.
    9900012    2    1    2    0    0 -0.67070280246E+01 -0.23108439086E+02  0.32774680327E+02  0.50528882296E+02  0.30000068228E+02 0.  0.
        -12    1    1    2    0    0  0.67070280246E+01  0.23108439086E+02 -0.32774680327E+02  0.40659117704E+02  0.00000000000E+00 0.  1.
         11    1    3    3    0    0 -0.11558394188E+02 -0.39783007131E+01  0.47615092853E+01  0.13118510727E+02  0.51100000000E-03 0. -1.
        -11    1    3    3    0    0  0.78419117836E+01 -0.99723017478E+01  0.74743342204E+01  0.14724403379E+02  0.51100000000E-03 0.  1.
         12    1    3    3    0    0 -0.29905456206E+01 -0.91578366252E+01  0.20538836821E+02  0.22685968190E+02  0.00000000000E+00 0. -1.
</event>
<event>
 7    1  0.4994895E-011  0.5052888E+02  0.7816164E-02  0.1300439E+00
        -11   -1    0    0    0    0  0.00000000000E+00  0.00000000000E+00  0.45593999997E+02  0.45594000000E+02  0.51100000000E-03 0.  1.
         11   -1    0    0    0    0 -0.00000000000E+00 -0.00000000000E+00 -0.45593999997E+02  0.45594000000E+02  0.51100000000E-03 0. -1.
    9900012    2    1    2    0    0  0.11587798264E+02 -0.34530217580E+02 -0.18070728719E+02  0.50528877639E+02  0.30000054072E+02 0.  0.
        -12    1    1    2    0    0 -0.11587798264E+02  0.34530217580E+02  0.18070728719E+02  0.40659122361E+02  0.00000000000E+00 0.  1.
         11    1    3    3    0    0  0.12382877130E+02 -0.26567524298E+02 -0.16576832297E+02  0.33674327946E+02  0.51100000000E-03 0.  1.
        -11    1    3    3    0    0 -0.66670782799E+01 -0.71950292859E+01  0.19542262685E+01  0.10001868815E+02  0.51100000000E-03 0. -1.
        -12    1    3    3    0    0  0.58719994141E+01 -0.76766399548E+00 -0.34481226909E+01  0.68526808783E+01  0.00000000000E+00 0.  1.
</event>
<event>
 7    1  0.4994895E-011  0.5052887E+02  0.7816164E-02  0.1300439E+00
        -11   -1    0    0    0    0  0.00000000000E+00  0.00000000000E+00  0.45593999997E+02  0.45594000000E+02  0.51100000000E-03 0.  1.
         11   -1    0    0    0    0 -0.00000000000E+00 -0.00000000000E+00 -0.45593999997E+02  0.45594000000E+02  0.51100000000E-03 0. -1.
    9900012    2    1    2    0    0  0.20420571576E+02  0.18509281410E+02 -0.29892673064E+02  0.50528866404E+02  0.30000019923E+02 0.  0.
        -12    1    1    2    0    0 -0.20420571576E+02 -0.18509281410E+02  0.29892673064E+02  0.40659133596E+02  0.00000000000E+00 0.  1.
         11    1    3    3    0    0  0.55581504113E+01  0.22901480914E+02 -0.12635360540E+02  0.26739917732E+02  0.51100000000E-03 0. -1.
        -11    1    3    3    0    0  0.90125508937E+01 -0.40264465914E+01 -0.13855009526E+02  0.17011749910E+02  0.51100000000E-03 0.  1.
        -12    1    3    3    0    0  0.58498702707E+01 -0.36575291275E+00 -0.34023029983E+01  0.67771987628E+01  0.00000000000E+00 0.  1.
</event>
<event>
 7    1  0.4994895E-011  0.5052887E+02  0.7816164E-02  0.1300439E+00
        -11   -1    0    0    0    0  0.00000000000E+00  0.00000000000E+00  0.45593999997E+02  0.45594000000E+02  0.51100000000E-03 0.  1.
         11   -1    0    0    0    0 -0.00000000000E+00 -0.00000000000E+00 -0.45593999997E+02  0.45594000000E+02  0.51100000000E-03 0. -1.
    9900012    2    1    2    0    0 -0.18936131770E+02  0.19247359884E+02 -0.30399456569E+02  0.50528869308E+02  0.30000028749E+02 0.  0.
        -12    1    1    2    0    0  0.18936131770E+02 -0.19247359884E+02  0.30399456569E+02  0.40659130692E+02  0.00000000000E+00 0.  1.
         11    1    3    3    0    0 -0.17099957021E+02  0.16581776584E+02 -0.11690277098E+02  0.26533496258E+02  0.51100000000E-03 0.  1.
        -11    1    3    3    0    0  0.47170483724E+01 -0.13089833899E+01 -0.14385461877E+02  0.15195574900E+02  0.51100000000E-03 0. -1.
         12    1    3    3    0    0 -0.65532231217E+01  0.39745666900E+01 -0.43237175946E+01  0.87997981507E+01  0.00000000000E+00 0. -1.
</event>
<event>
 7    1  0.4994895E-011  0.5052886E+02  0.7816164E-02  0.1300439E+00
        -11   -1    0    0    0    0  0.00000000000E+00  0.00000000000E+00  0.45593999997E+02  0.45594000000E+02  0.51100000000E-03 0.  1.
         11   -1    0    0    0    0 -0.00000000000E+00 -0.00000000000E+00 -0.45593999997E+02  0.45594000000E+02  0.51100000000E-03 0. -1.
    9900012    2    1    2    0    0  0.33472928969E+02 -0.22772874906E+02  0.37582565040E+01  0.50528864529E+02  0.30000014223E+02 0.  0.
        -12    1    1    2    0    0 -0.33472928969E+02  0.22772874906E+02 -0.37582565040E+01  0.40659135471E+02  0.00000000000E+00 0.  1.
         11    1    3    3    0    0  0.34609742108E+02 -0.21633224528E+02 -0.30397266501E+01  0.40927626252E+02  0.51100000000E-03 0. -1.
        -11    1    3    3    0    0 -0.13803162400E+01 -0.28386298591E-01 -0.10101302284E+01  0.17106846711E+01  0.51100000000E-03 0.  1.
         12    1    3    3    0    0  0.24350310086E+00 -0.11112640801E+01  0.78081133826E+01  0.78905536061E+01  0.00000000000E+00 0. -1.
</event>
<event>
 7    1  0.4994895E-011  0.5052887E+02  0.7816164E-02  0.1300439E+00
        -11   -1    0    0    0    0  0.00000000000E+00  0.00000000000E+00  0.45593999997E+02  0.45594000000E+02  0.51100000000E-03 0.  1.
         11   -1    0    0    0    0 -0.00000000000E+00 -0.00000000000E+00 -0.45593999997E+02  0.45594000000E+02  0.51100000000E-03 0. -1.
    9900012    2    1    2    0    0 -0.40150484606E+00 -0.24543492151E+02 -0.32413282469E+02  0.50528867034E+02  0.30000021838E+02 0.  0.
        -12    1    1    2    0    0  0.40150484606E+00  0.24543492151E+02  0.32413282469E+02  0.40659132966E+02  0.00000000000E+00 0.  1.
         11    1    3    3    0    0  0.25541007795E+01 -0.20498032359E+02 -0.27759718135E+02  0.34601946658E+02  0.51100000000E-03 0. -1.
        -11    1    3    3    0    0 -0.47138043581E+01 -0.45970177048E+01  0.35766181299E+01  0.74929781004E+01  0.51100000000E-03 0.  1.
        -12    1    3    3    0    0  0.17581987326E+01  0.55155791287E+00 -0.82301824641E+01  0.84339422756E+01  0.00000000000E+00 0.  1.
</event>
<event>
 7    1  0.4994895E-011  0.5052885E+02  0.7816164E-02  0.1300439E+00
        -11   -1    0    0    0    0  0.00000000000E+00  0.00000000000E+00  0.45593999997E+02  0.45594000000E+02  0.51100000000E-03 0. -1.
         11   -1    0    0    0    0 -0.00000000000E+00 -0.00000000000E+00 -0.45593999997E+02  0.45594000000E+02  0.51100000000E-03 0.  1.
    9900012    2    1    2    0    0  0.25814597999E+01 -0.36208939580E+02 -0.18314340083E+02  0.50528852285E+02  0.29999977006E+02 0.  0.
        -12    1    1    2    0    0 -0.25814597999E+01  0.36208939580E+02  0.18314340083E+02  0.40659147715E+02  0.00000000000E+00 0.  1.
         11    1    3    3    0    0 -0.56126513925E+01 -0.18249444082E+02 -0.12174764756E+02  0.22644402445E+02  0.51100000000E-03 0. -1.
        -11    1    3    3    0    0  0.10404175892E+02 -0.20658706661E+02 -0.72218037140E+01  0.24231869224E+02  0.51100000000E-03 0.  1.
        -12    1    3    3    0    0 -0.22100646999E+01  0.26992111635E+01  0.10822283867E+01  0.36525806171E+01  0.00000000000E+00 0.  1.
</event>
<event>
 7    1  0.4994895E-011  0.5052887E+02  0.7816164E-02  0.1300439E+00
        -11   -1    0    0    0    0  0.00000000000E+00  0.00000000000E+00  0.45593999997E+02  0.45594000000E+02  0.51100000000E-03 0.  1.
         11   -1    0    0    0    0 -0.00000000000E+00 -0.00000000000E+00 -0.45593999997E+02  0.45594000000E+02  0.51100000000E-03 0. -1.
    9900012    2    1    2    0    0  0.40385457716E+02  0.69229671250E+00 -0.46583514608E+01  0.50528871775E+02  0.30000036247E+02 0.  0.
        -12    1    1    2    0    0 -0.40385457716E+02 -0.69229671250E+00  0.46583514608E+01  0.40659128225E+02  0.00000000000E+00 0.  1.
         11    1    3    3    0    0  0.22741407043E+02  0.91772922061E+01  0.16848264566E+01  0.24581149831E+02  0.51100000000E-03 0. -1.
        -11    1    3    3    0    0  0.16958307724E+01 -0.67210290337E+01  0.28048446676E+01  0.74776485041E+01  0.51100000000E-03 0.  1.
         12    1    3    3    0    0  0.15948219901E+02 -0.17639664599E+01 -0.91480225849E+01  0.18470073440E+02  0.00000000000E+00 0. -1.
</event>
<event>
 7    1  0.4994895E-011  0.5052887E+02  0.7816164E-02  0.1300439E+00
        -11   -1    0    0    0    0  0.00000000000E+00  0.00000000000E+00  0.45593999997E+02  0.45594000000E+02  0.51100000000E-03 0. -1.
         11   -1    0    0    0    0 -0.00000000000E+00 -0.00000000000E+00 -0.45593999997E+02  0.45594000000E+02  0.51100000000E-03 0.  1.
    9900012    2    1    2    0    0 -0.13067386958E+02  0.29768590850E+02  0.24418011733E+02  0.50528869413E+02  0.30000029067E+02 0.  0.
        -12    1    1    2    0    0  0.13067386958E+02 -0.29768590850E+02 -0.24418011733E+02  0.40659130587E+02  0.00000000000E+00 0.  1.
         11    1    3    3    0    0 -0.42672957505E+01  0.13151283641E+01 -0.39620911847E+01  0.59697187918E+01  0.51100000000E-03 0. -1.
        -11    1    3    3    0    0  0.41289689629E+00  0.77355420199E+01  0.18051497457E+02  0.19643463414E+02  0.51100000000E-03 0.  1.
         12    1    3    3    0    0 -0.92129881035E+01  0.20717920466E+02  0.10328605461E+02  0.24915687207E+02  0.00000000000E+00 0. -1.
</event>
<event>
 7    1  0.4994895E-011  0.5052887E+02  0.7816164E-02  0.1300439E+00
        -11   -1    0    0    0    0  0.00000000000E+00  0.00000000000E+00  0.45593999997E+02  0.45594000000E+02  0.51100000000E-03 0.  1.
         11   -1    0    0    0    0 -0.00000000000E+00 -0.00000000000E+00 -0.45593999997E+02  0.45594000000E+02  0.51100000000E-03 0. -1.
    9900012    2    1    2    0    0  0.16729260696E+02  0.75501402216E+01 -0.36280744539E+02  0.50528865662E+02  0.30000017667E+02 0.  0.
        -12    1    1    2    0    0 -0.16729260696E+02 -0.75501402216E+01  0.36280744539E+02  0.40659134338E+02  0.00000000000E+00 0.  1.
         11    1    3    3    0    0  0.53555548883E+01 -0.44793096182E+00 -0.42341837783E+01  0.68418508342E+01  0.51100000000E-03 0. -1.
        -11    1    3    3    0    0 -0.62138662430E+01  0.47015530110E+01 -0.21610214214E+02  0.22972115554E+02  0.51100000000E-03 0.  1.
        -12    1    3    3    0    0  0.17587572051E+02  0.32965181724E+01 -0.10436346547E+02  0.20714899274E+02  0.00000000000E+00 0.  1.
</event>
<event>
 7    1  0.4994895E-011  0.5052886E+02  0.7816164E-02  0.1300439E+00
        -11   -1    0    0    0    0  0.00000000000E+00  0.00000000000E+00  0.45593999997E+02  0.45594000000E+02  0.51100000000E-03 0.  1.
         11   -1    0    0    0    0 -0.00000000000E+00 -0.00000000000E+00 -0.45593999997E+02  0.45594000000E+02  0.51100000000E-03 0. -1.
    9900012    2    1    2    0    0 -0.60481666517E+01  0.18764460670E+02 -0.35559537352E+02  0.50528855878E+02  0.29999987926E+02 0.  0.
        -12    1    1    2    0    0  0.60481666517E+01 -0.18764460670E+02  0.35559537352E+02  0.40659144122E+02  0.00000000000E+00 0.  1.
         11    1    3    3    0    0 -0.44386886939E+01  0.20190747880E+02 -0.12177456926E+02  0.23992888836E+02  0.51100000000E-03 0. -1.
        -11    1    3    3    0    0 -0.68693995419E+01 -0.12855276362E+01 -0.10420089316E+02  0.12546692512E+02  0.51100000000E-03 0.  1.
         12    1    3    3    0    0  0.52599215840E+01 -0.14075957375E+00 -0.12961991110E+02  0.13989274530E+02  0.00000000000E+00 0. -1.
</event>
<event>
 7    1  0.4994895E-011  0.5052887E+02  0.7816164E-02  0.1300439E+00
        -11   -1    0    0    0    0  0.00000000000E+00  0.00000000000E+00  0.45593999997E+02  0.45594000000E+02  0.51100000000E-03 0.  1.
         11   -1    0    0    0    0 -0.00000000000E+00 -0.00000000000E+00 -0.45593999997E+02  0.45594000000E+02  0.51100000000E-03 0. -1.
    9900012    2    1    2    0    0 -0.36580745110E+02 -0.14776961869E+02 -0.98313623942E+01  0.50528865707E+02  0.30000017804E+02 0.  0.
        -12    1    1    2    0    0  0.36580745110E+02  0.14776961869E+02  0.98313623942E+01  0.40659134293E+02  0.00000000000E+00 0.  1.
         11    1    3    3    0    0 -0.27906628108E+02 -0.17431699739E+02 -0.11149793261E+02  0.34741357748E+02  0.51100000000E-03 0. -1.
        -11    1    3    3    0    0 -0.12391478128E+01  0.66093952321E+01 -0.15320685846E+01  0.68968708155E+01  0.51100000000E-03 0.  1.
         12    1    3    3    0    0 -0.74349691889E+01 -0.39546573628E+01  0.28504994517E+01  0.88906371437E+01  0.00000000000E+00 0. -1.
</event>
<event>
 7    1  0.4994895E-011  0.5052888E+02  0.7816164E-02  0.1300439E+00
        -11   -1    0    0    0    0  0.00000000000E+00  0.00000000000E+00  0.45593999997E+02  0.45594000000E+02  0.51100000000E-03 0.  1.
         11   -1    0    0    0    0 -0.00000000000E+00 -0.00000000000E+00 -0.45593999997E+02  0.45594000000E+02  0.51100000000E-03 0. -1.
    9900012    2    1    2    0    0 -0.35597795034E+02 -0.13303880823E+01 -0.19600801189E+02  0.50528876166E+02  0.30000049593E+02 0.  0.
        -12    1    1    2    0    0  0.35597795034E+02  0.13303880823E+01  0.19600801189E+02  0.40659123834E+02  0.00000000000E+00 0.  1.
         11    1    3    3    0    0 -0.32714977012E+02 -0.55517272104E+00 -0.17920042351E+02  0.37305574057E+02  0.51100000000E-03 0. -1.
        -11    1    3    3    0    0  0.11836591789E+01  0.54870139694E+01 -0.12072925338E+01  0.57415961958E+01  0.51100000000E-03 0.  1.
         12    1    3    3    0    0 -0.40664772015E+01 -0.62622293307E+01 -0.47346630393E+00  0.74817059125E+01  0.00000000000E+00 0. -1.
</event>
<event>
 7    1  0.4994895E-011  0.5052885E+02  0.7816164E-02  0.1300439E+00
        -11   -1    0    0    0    0  0.00000000000E+00  0.00000000000E+00  0.45593999997E+02  0.45594000000E+02  0.51100000000E-03 0.  1.
         11   -1    0    0    0    0 -0.00000000000E+00 -0.00000000000E+00 -0.45593999997E+02  0.45594000000E+02  0.51100000000E-03 0. -1.
    9900012    2    1    2    0    0 -0.35554154821E+02 -0.71594080923E+01  0.18379638246E+02  0.50528854026E+02  0.29999982298E+02 0.  0.
        -12    1    1    2    0    0  0.35554154821E+02  0.71594080923E+01 -0.18379638246E+02  0.40659145974E+02  0.00000000000E+00 0.  1.
         11    1    3    3    0    0 -0.24128933136E+02 -0.11120617774E+02 -0.10315190625E+01  0.26588297911E+02  0.51100000000E-03 0. -1.
        -11    1    3    3    0    0 -0.11647279070E+02  0.17369461663E+01  0.16434779484E+02  0.20218260772E+02  0.51100000000E-03 0.  1.
         12    1    3    3    0    0  0.22205738436E+00  0.22242635154E+01  0.29763778242E+01  0.37222953430E+01  0.00000000000E+00 0. -1.
</event>
<event>
 7    1  0.4994895E-011  0.5052884E+02  0.7816164E-02  0.1300439E+00
        -11   -1    0    0    0    0  0.00000000000E+00  0.00000000000E+00  0.45593999997E+02  0.45594000000E+02  0.51100000000E-03 0.  1.
         11   -1    0    0    0    0 -0.00000000000E+00 -0.00000000000E+00 -0.45593999997E+02  0.45594000000E+02  0.51100000000E-03 0. -1.
    9900012    2    1    2    0    0  0.31351596064E+02  0.74478876899E+01 -0.24794633652E+02  0.50528837874E+02  0.29999933203E+02 0.  0.
        -12    1    1    2    0    0 -0.31351596064E+02 -0.74478876899E+01  0.24794633652E+02  0.40659162126E+02  0.00000000000E+00 0.  1.
         11    1    3    3    0    0  0.25678636626E+02 -0.44036336793E+00 -0.19571462521E+02  0.32289757576E+02  0.51100000000E-03 0. -1.
        -11    1    3    3    0    0  0.11932484113E+00  0.10588051668E+02 -0.75232469548E+00  0.10615416584E+02  0.51100000000E-03 0.  1.
        -12    1    3    3    0    0  0.55536345965E+01 -0.26998006104E+01 -0.44708464360E+01  0.76236637139E+01  0.00000000000E+00 0.  1.
</event>
<event>
 7    1  0.4994895E-011  0.5052886E+02  0.7816164E-02  0.1300439E+00
        -11   -1    0    0    0    0  0.00000000000E+00  0.00000000000E+00  0.45593999997E+02  0.45594000000E+02  0.51100000000E-03 0. -1.
         11   -1    0    0    0    0 -0.00000000000E+00 -0.00000000000E+00 -0.45593999997E+02  0.45594000000E+02  0.51100000000E-03 0.  1.
    9900012    2    1    2    0    0 -0.31404785927E+02 -0.25789932566E+02  0.13358940574E+01  0.50528858177E+02  0.29999994913E+02 0.  0.
        -12    1    1    2    0    0  0.31404785927E+02  0.25789932566E+02 -0.13358940574E+01  0.40659141823E+02  0.00000000000E+00 0.  1.
         11    1    3    3    0    0 -0.13379333745E+02 -0.15971993966E+02  0.64087620343E+01  0.21798701653E+02  0.51100000000E-03 0. -1.
        -11    1    3    3    0    0 -0.10359781718E+01  0.31213185322E+01 -0.65439051979E+01  0.73238361295E+01  0.51100000000E-03 0.  1.
         12    1    3    3    0    0 -0.16989474010E+02 -0.12939257133E+02  0.14710372210E+01  0.21406320394E+02  0.00000000000E+00 0. -1.
</event>
<event>
 7    1  0.4994895E-011  0.5052887E+02  0.7816164E-02  0.1300439E+00
        -11   -1    0    0    0    0  0.00000000000E+00  0.00000000000E+00  0.45593999997E+02  0.45594000000E+02  0.51100000000E-03 0.  1.
         11   -1    0    0    0    0 -0.00000000000E+00 -0.00000000000E+00 -0.45593999997E+02  0.45594000000E+02  0.51100000000E-03 0. -1.
    9900012    2    1    2    0    0 -0.26365952742E+02  0.29009577320E+02 -0.10791000851E+02  0.50528871386E+02  0.30000035063E+02 0.  0.
        -12    1    1    2    0    0  0.26365952742E+02 -0.29009577320E+02  0.10791000851E+02  0.40659128614E+02  0.00000000000E+00 0.  1.
         11    1    3    3    0    0 -0.21709822125E+02  0.28402364895E+02 -0.91059965280E+01  0.36890783150E+02  0.51100000000E-03 0. -1.
        -11    1    3    3    0    0 -0.57128966869E+01 -0.50466532820E+01  0.74895340044E-01  0.76230904151E+01  0.51100000000E-03 0.  1.
         12    1    3    3    0    0  0.10567660699E+01  0.56538657069E+01 -0.17598996634E+01  0.60149978208E+01  0.00000000000E+00 0. -1.
</event>
<event>
 7    1  0.4994895E-011  0.5052883E+02  0.7816164E-02  0.1300439E+00
        -11   -1    0    0    0    0  0.00000000000E+00  0.00000000000E+00  0.45593999997E+02  0.45594000000E+02  0.51100000000E-03 0.  1.
         11   -1    0    0    0    0 -0.00000000000E+00 -0.00000000000E+00 -0.45593999997E+02  0.45594000000E+02  0.51100000000E-03 0. -1.
    9900012    2    1    2    0    0 -0.21088593882E+02  0.13911024740E+02 -0.31857850956E+02  0.50528830447E+02  0.29999910626E+02 0.  0.
        -12    1    1    2    0    0  0.21088593882E+02 -0.13911024740E+02  0.31857850956E+02  0.40659169553E+02  0.00000000000E+00 0.  1.
         11    1    3    3    0    0 -0.16078229888E+02  0.14022924259E+02 -0.18485026506E+02  0.28228497769E+02  0.51100000000E-03 0. -1.
        -11    1    3    3    0    0  0.62969061671E+01 -0.87577541657E+00 -0.62477218624E+01  0.89135873019E+01  0.51100000000E-03 0.  1.
        -12    1    3    3    0    0 -0.11307270161E+02  0.76387589782E+00 -0.71251025871E+01  0.13386745376E+02  0.00000000000E+00 0.  1.
</event>
<event>
 7    1  0.4994895E-011  0.5052886E+02  0.7816164E-02  0.1300439E+00
        -11   -1    0    0    0    0  0.00000000000E+00  0.00000000000E+00  0.45593999997E+02  0.45594000000E+02  0.51100000000E-03 0. -1.
         11   -1    0    0    0    0 -0.00000000000E+00 -0.00000000000E+00 -0.45593999997E+02  0.45594000000E+02  0.51100000000E-03 0.  1.
    9900012    2    1    2    0    0  0.23188524251E+02 -0.22464471305E+02  0.24714482794E+02  0.50528858497E+02  0.29999995889E+02 0.  0.
        -12    1    1    2    0    0 -0.23188524251E+02  0.22464471305E+02 -0.24714482794E+02  0.40659141503E+02  0.00000000000E+00 0.  1.
         11    1    3    3    0    0  0.17990041554E+02 -0.15146547588E+02  0.38725260695E+01  0.23833924506E+02  0.51100000000E-03 0. -1.
        -11    1    3    3    0    0 -0.47985702648E+01 -0.17145737913E+01  0.79777388662E+01  0.94662747451E+01  0.51100000000E-03 0.  1.
         12    1    3    3    0    0  0.99970529622E+01 -0.56033499254E+01  0.12864217858E+02  0.17228659246E+02  0.00000000000E+00 0. -1.
</event>
<event>
 7    1  0.4994895E-011  0.5052888E+02  0.7816164E-02  0.1300439E+00
        -11   -1    0    0    0    0  0.00000000000E+00  0.00000000000E+00  0.45593999997E+02  0.45594000000E+02  0.51100000000E-03 0.  1.
         11   -1    0    0    0    0 -0.00000000000E+00 -0.00000000000E+00 -0.45593999997E+02  0.45594000000E+02  0.51100000000E-03 0. -1.
    9900012    2    1    2    0    0 -0.48975449604E+01 -0.23115340548E+02 -0.33088654369E+02  0.50528880933E+02  0.30000064085E+02 0.  0.
        -12    1    1    2    0    0  0.48975449604E+01  0.23115340548E+02  0.33088654369E+02  0.40659119067E+02  0.00000000000E+00 0.  1.
         11    1    3    3    0    0  0.65933207924E+01 -0.76077743547E+01 -0.13051476008E+02  0.16483056026E+02  0.51100000000E-03 0. -1.
        -11    1    3    3    0    0 -0.11539376569E+02 -0.18785111830E+02 -0.11424708991E+02  0.24830658748E+02  0.51100000000E-03 0.  1.
        -12    1    3    3    0    0  0.48510815814E-01  0.32775456361E+01 -0.86124693700E+01  0.92151661594E+01  0.00000000000E+00 0.  1.
</event>
<event>
 7    1  0.4994895E-011  0.5052886E+02  0.7816164E-02  0.1300439E+00
        -11   -1    0    0    0    0  0.00000000000E+00  0.00000000000E+00  0.45593999997E+02  0.45594000000E+02  0.51100000000E-03 0.  1.
         11   -1    0    0    0    0 -0.00000000000E+00 -0.00000000000E+00 -0.45593999997E+02  0.45594000000E+02  0.51100000000E-03 0. -1.
    9900012    2    1    2    0    0  0.40431839662E+02  0.35409506044E+01  0.24276615161E+01  0.50528861666E+02  0.30000005519E+02 0.  0.
        -12    1    1    2    0    0 -0.40431839662E+02 -0.35409506044E+01 -0.24276615161E+01  0.40659138334E+02  0.00000000000E+00 0.  1.
         11    1    3    3    0    0  0.11912665938E+02 -0.90224672795E+01  0.68127129195E+01  0.16423446141E+02  0.51100000000E-03 0. -1.
        -11    1    3    3    0    0  0.25932960052E+02  0.58225546582E+01 -0.39711845570E+01  0.26873609115E+02  0.51100000000E-03 0.  1.
        -12    1    3    3    0    0  0.25862136721E+01  0.67408632256E+01 -0.41386684642E+00  0.72318064100E+01  0.00000000000E+00 0.  1.
</event>
<event>
 7    1  0.4994895E-011  0.5052886E+02  0.7816164E-02  0.1300439E+00
        -11   -1    0    0    0    0  0.00000000000E+00  0.00000000000E+00  0.45593999997E+02  0.45594000000E+02  0.51100000000E-03 0.  1.
         11   -1    0    0    0    0 -0.00000000000E+00 -0.00000000000E+00 -0.45593999997E+02  0.45594000000E+02  0.51100000000E-03 0. -1.
    9900012    2    1    2    0    0 -0.27647299642E+02  0.10473855594E+02 -0.27912200916E+02  0.50528858489E+02  0.29999995862E+02 0.  0.
        -12    1    1    2    0    0  0.27647299642E+02 -0.10473855594E+02  0.27912200916E+02  0.40659141511E+02  0.00000000000E+00 0.  1.
         11    1    3    3    0    0 -0.27655163388E+02 -0.17553605584E+01 -0.22148492278E+02  0.35474569245E+02  0.51100000000E-03 0. -1.
        -11    1    3    3    0    0  0.29173522969E+01  0.51902353164E+01 -0.41801438000E+01  0.72748257376E+01  0.51100000000E-03 0.  1.
        -12    1    3    3    0    0 -0.29094885510E+01  0.70389808363E+01 -0.15835648374E+01  0.77794635057E+01  0.00000000000E+00 0.  1.
</event>
<event>
 7    1  0.4994895E-011  0.5052886E+02  0.7816164E-02  0.1300439E+00
        -11   -1    0    0    0    0  0.00000000000E+00  0.00000000000E+00  0.45593999997E+02  0.45594000000E+02  0.51100000000E-03 0. -1.
         11   -1    0    0    0    0 -0.00000000000E+00 -0.00000000000E+00 -0.45593999997E+02  0.45594000000E+02  0.51100000000E-03 0.  1.
    9900012    2    1    2    0    0  0.15706402652E+02 -0.46718339475E+00  0.37500083083E+02  0.50528861103E+02  0.30000003810E+02 0.  0.
        -12    1    1    2    0    0 -0.15706402652E+02  0.46718339475E+00 -0.37500083083E+02  0.40659138897E+02  0.00000000000E+00 0.  1.
         11    1    3    3    0    0  0.55842988618E+00 -0.38194998960E+01  0.29161338650E+02  0.29415711712E+02  0.51100000000E-03 0.  1.
        -11    1    3    3    0    0  0.85439689981E+01  0.15302466625E+01 -0.18118723154E+01  0.88670143022E+01  0.51100000000E-03 0. -1.
        -12    1    3    3    0    0  0.66040037675E+01  0.18220698388E+01  0.10150616749E+02  0.12246135090E+02  0.00000000000E+00 0.  1.
</event>
<event>
 7    1  0.4994895E-011  0.5052886E+02  0.7816164E-02  0.1300439E+00
        -11   -1    0    0    0    0  0.00000000000E+00  0.00000000000E+00  0.45593999997E+02  0.45594000000E+02  0.51100000000E-03 0.  1.
         11   -1    0    0    0    0 -0.00000000000E+00 -0.00000000000E+00 -0.45593999997E+02  0.45594000000E+02  0.51100000000E-03 0. -1.
    9900012    2    1    2    0    0  0.27429009795E+02 -0.29054075576E+02 -0.75283081905E+01  0.50528864371E+02  0.30000013741E+02 0.  0.
        -12    1    1    2    0    0 -0.27429009795E+02  0.29054075576E+02  0.75283081905E+01  0.40659135629E+02  0.00000000000E+00 0.  1.
         11    1    3    3    0    0  0.17420891984E+02 -0.24531961633E+02 -0.14746758967E+02  0.33507782967E+02  0.51100000000E-03 0. -1.
        -11    1    3    3    0    0  0.53550040648E-01 -0.19641033594E+01  0.64179482678E+01  0.67119765973E+01  0.51100000000E-03 0.  1.
         12    1    3    3    0    0  0.99545677700E+01 -0.25580105836E+01  0.80050250865E+00  0.10309104806E+02  0.00000000000E+00 0. -1.
</event>
<event>
 7    1  0.4994895E-011  0.5052886E+02  0.7816164E-02  0.1300439E+00
        -11   -1    0    0    0    0  0.00000000000E+00  0.00000000000E+00  0.45593999997E+02  0.45594000000E+02  0.51100000000E-03 0.  1.
         11   -1    0    0    0    0 -0.00000000000E+00 -0.00000000000E+00 -0.45593999997E+02  0.45594000000E+02  0.51100000000E-03 0. -1.
    9900012    2    1    2    0    0  0.15650731167E+02 -0.19846210370E+02 -0.31848835855E+02  0.50528858378E+02  0.29999995526E+02 0.  0.
        -12    1    1    2    0    0 -0.15650731167E+02  0.19846210370E+02  0.31848835855E+02  0.40659141622E+02  0.00000000000E+00 0.  1.
         11    1    3    3    0    0  0.23478170498E+02 -0.20009673997E+02 -0.22363824398E+02  0.38101865904E+02  0.51100000000E-03 0. -1.
        -11    1    3    3    0    0 -0.21479892767E+01  0.25138961637E+00 -0.39089665180E+01  0.44673341236E+01  0.51100000000E-03 0.  1.
         12    1    3    3    0    0 -0.56794500543E+01 -0.87925989823E-01 -0.55760449384E+01  0.79596583503E+01  0.00000000000E+00 0. -1.
</event>
<event>
 7    1  0.4994895E-011  0.5052881E+02  0.7816164E-02  0.1300439E+00
        -11   -1    0    0    0    0  0.00000000000E+00  0.00000000000E+00  0.45593999997E+02  0.45594000000E+02  0.51100000000E-03 0.  1.
         11   -1    0    0    0    0 -0.00000000000E+00 -0.00000000000E+00 -0.45593999997E+02  0.45594000000E+02  0.51100000000E-03 0. -1.
    9900012    2    1    2    0    0 -0.32150742436E+02 -0.24303731148E+02 -0.53691490298E+01  0.50528814713E+02  0.29999862803E+02 0.  0.
        -12    1    1    2    0    0  0.32150742436E+02  0.24303731148E+02  0.53691490298E+01  0.40659185287E+02  0.00000000000E+00 0.  1.
         11    1    3    3    0    0 -0.10339306097E+02  0.60056661428E+01 -0.28877471380E+01  0.12300746326E+02  0.51100000000E-03 0.  1.
        -11    1    3    3    0    0 -0.19067458079E+02 -0.21768444217E+02 -0.69261779551E-01  0.28938519635E+02  0.51100000000E-03 0. -1.
         12    1    3    3    0    0 -0.27439782595E+01 -0.85409530737E+01 -0.24121401122E+01  0.92895487521E+01  0.00000000000E+00 0. -1.
</event>
<event>
 7    1  0.4994895E-011  0.5052886E+02  0.7816164E-02  0.1300439E+00
        -11   -1    0    0    0    0  0.00000000000E+00  0.00000000000E+00  0.45593999997E+02  0.45594000000E+02  0.51100000000E-03 0.  1.
         11   -1    0    0    0    0 -0.00000000000E+00 -0.00000000000E+00 -0.45593999997E+02  0.45594000000E+02  0.51100000000E-03 0. -1.
    9900012    2    1    2    0    0  0.43600174664E+01  0.29722022200E+02 -0.27399953624E+02  0.50528858168E+02  0.29999994886E+02 0.  0.
        -12    1    1    2    0    0 -0.43600174664E+01 -0.29722022200E+02  0.27399953624E+02  0.40659141832E+02  0.00000000000E+00 0.  1.
         11    1    3    3    0    0  0.10403868053E+02  0.65599397210E+01  0.14727582071E+00  0.12300202032E+02  0.51100000000E-03 0. -1.
        -11    1    3    3    0    0 -0.25793369116E+01  0.10626806910E+02 -0.20981102450E+02  0.23659853429E+02  0.51100000000E-03 0.  1.
         12    1    3    3    0    0 -0.34645136746E+01  0.12535275569E+02 -0.65661269950E+01  0.14568802707E+02  0.00000000000E+00 0. -1.
</event>
<event>
 7    1  0.4994895E-011  0.5052886E+02  0.7816164E-02  0.1300439E+00
        -11   -1    0    0    0    0  0.00000000000E+00  0.00000000000E+00  0.45593999997E+02  0.45594000000E+02  0.51100000000E-03 0. -1.
         11   -1    0    0    0    0 -0.00000000000E+00 -0.00000000000E+00 -0.45593999997E+02  0.45594000000E+02  0.51100000000E-03 0.  1.
    9900012    2    1    2    0    0  0.22084143820E+02 -0.25675645907E+02 -0.22499275856E+02  0.50528860621E+02  0.30000002344E+02 0.  0.
        -12    1    1    2    0    0 -0.22084143820E+02  0.25675645907E+02  0.22499275856E+02  0.40659139379E+02  0.00000000000E+00 0.  1.
         11    1    3    3    0    0  0.43403640293E+01  0.62323105991E+01 -0.36515455675E+00  0.76035382173E+01  0.51100000000E-03 0.  1.
        -11    1    3    3    0    0  0.11857587729E+02 -0.23842830964E+02 -0.14240320197E+02  0.30197180245E+02  0.51100000000E-03 0. -1.
        -12    1    3    3    0    0  0.58861920611E+01 -0.80651255415E+01 -0.78938011019E+01  0.12728142159E+02  0.00000000000E+00 0.  1.
</event>
<event>
 7    1  0.4994895E-011  0.5052887E+02  0.7816164E-02  0.1300439E+00
        -11   -1    0    0    0    0  0.00000000000E+00  0.00000000000E+00  0.45593999997E+02  0.45594000000E+02  0.51100000000E-03 0.  1.
         11   -1    0    0    0    0 -0.00000000000E+00 -0.00000000000E+00 -0.45593999997E+02  0.45594000000E+02  0.51100000000E-03 0. -1.
    9900012    2    1    2    0    0 -0.21143910709E+02  0.11441293279E+02 -0.32790197443E+02  0.50528865721E+02  0.30000017846E+02 0.  0.
        -12    1    1    2    0    0  0.21143910709E+02 -0.11441293279E+02  0.32790197443E+02  0.40659134279E+02  0.00000000000E+00 0.  1.
         11    1    3    3    0    0 -0.35419217253E+01  0.12621486227E+02 -0.84916234139E+01  0.15619052229E+02  0.51100000000E-03 0. -1.
        -11    1    3    3    0    0  0.72709037899E+00 -0.52125608620E+01 -0.10055892482E+02  0.11349908591E+02  0.51100000000E-03 0.  1.
         12    1    3    3    0    0 -0.18329079363E+02  0.40323679145E+01 -0.14242681547E+02  0.23559904901E+02  0.00000000000E+00 0. -1.
</event>
<event>
 7    1  0.4994895E-011  0.5052886E+02  0.7816164E-02  0.1300439E+00
        -11   -1    0    0    0    0  0.00000000000E+00  0.00000000000E+00  0.45593999997E+02  0.45594000000E+02  0.51100000000E-03 0. -1.
         11   -1    0    0    0    0 -0.00000000000E+00 -0.00000000000E+00 -0.45593999997E+02  0.45594000000E+02  0.51100000000E-03 0.  1.
    9900012    2    1    2    0    0  0.28489868323E+02  0.38595910850E+01  0.28750587659E+02  0.50528864112E+02  0.30000012955E+02 0.  0.
        -12    1    1    2    0    0 -0.28489868323E+02 -0.38595910850E+01 -0.28750587659E+02  0.40659135888E+02  0.00000000000E+00 0.  1.
         11    1    3    3    0    0  0.21012133501E+02  0.85415504352E+01  0.32264694504E+02  0.39439553114E+02  0.51100000000E-03 0. -1.
        -11    1    3    3    0    0  0.27762223711E+01 -0.34943506837E+01 -0.42758239543E+01  0.61806608145E+01  0.51100000000E-03 0.  1.
         12    1    3    3    0    0  0.47015124510E+01 -0.11876086665E+01  0.76171710882E+00  0.49086501836E+01  0.00000000000E+00 0. -1.
</event>
<event>
 7    1  0.5503705E-011  0.5052886E+02  0.7816164E-02  0.1300439E+00
        -11   -1    0    0    0    0  0.00000000000E+00  0.00000000000E+00  0.45593999997E+02  0.45594000000E+02  0.51100000000E-03 0.  1.
         11   -1    0    0    0    0 -0.00000000000E+00 -0.00000000000E+00 -0.45593999997E+02  0.45594000000E+02  0.51100000000E-03 0. -1.
    9900012    2    1    2    0    0 -0.40528507650E+02 -0.32084660284E+01  0.55823264113E+00  0.50528858221E+02  0.29999995047E+02 0.  0.
        -12    1    1    2    0    0  0.40528507650E+02  0.32084660284E+01 -0.55823264113E+00  0.40659141779E+02  0.00000000000E+00 0.  1.
         11    1    3    3    0    0 -0.27149929928E+02  0.54854972777E+01 -0.21664902360E+01  0.27783143373E+02  0.51100000000E-03 0. -1.
        -11    1    3    3    0    0  0.92059058375E+00 -0.54244856234E+01 -0.38052012589E+01  0.66897001564E+01  0.51100000000E-03 0.  1.
        -12    1    3    3    0    0 -0.14299168305E+02 -0.32694776827E+01  0.65299241360E+01  0.16056014691E+02  0.00000000000E+00 0.  1.
</event>
<event>
 7    1  0.4994895E-011  0.5052886E+02  0.7816164E-02  0.1300439E+00
        -11   -1    0    0    0    0  0.00000000000E+00  0.00000000000E+00  0.45593999997E+02  0.45594000000E+02  0.51100000000E-03 0.  1.
         11   -1    0    0    0    0 -0.00000000000E+00 -0.00000000000E+00 -0.45593999997E+02  0.45594000000E+02  0.51100000000E-03 0. -1.
    9900012    2    1    2    0    0  0.18409950006E+02 -0.20815785650E+02 -0.29680677164E+02  0.50528858489E+02  0.29999995864E+02 0.  0.
        -12    1    1    2    0    0 -0.18409950006E+02  0.20815785650E+02  0.29680677164E+02  0.40659141511E+02  0.00000000000E+00 0.  1.
         11    1    3    3    0    0 -0.31388400673E+01 -0.12528063358E+02 -0.21977810188E+02  0.25491740415E+02  0.51100000000E-03 0. -1.
        -11    1    3    3    0    0  0.13497842609E+02 -0.22157282229E+01 -0.53107351263E+01  0.14673278928E+02  0.51100000000E-03 0.  1.
         12    1    3    3    0    0  0.80509474646E+01 -0.60719940694E+01 -0.23921318494E+01  0.10363839146E+02  0.00000000000E+00 0. -1.
</event>
<event>
 7    1  0.4994895E-011  0.5052886E+02  0.7816164E-02  0.1300439E+00
        -11   -1    0    0    0    0  0.00000000000E+00  0.00000000000E+00  0.45593999997E+02  0.45594000000E+02  0.51100000000E-03 0. -1.
         11   -1    0    0    0    0 -0.00000000000E+00 -0.00000000000E+00 -0.45593999997E+02  0.45594000000E+02  0.51100000000E-03 0.  1.
    9900012    2    1    2    0    0  0.34833524117E+02  0.20670511368E+02  0.35385737349E+01  0.50528856543E+02  0.29999989947E+02 0.  0.
        -12    1    1    2    0    0 -0.34833524117E+02 -0.20670511368E+02 -0.35385737349E+01  0.40659143457E+02  0.00000000000E+00 0.  1.
         11    1    3    3    0    0  0.26486395942E+02  0.10886175715E+02  0.48772094974E+01  0.29048668893E+02  0.51100000000E-03 0. -1.
        -11    1    3    3    0    0 -0.40969024712E+01  0.11039106755E+01 -0.42783347273E+01  0.60255603007E+01  0.51100000000E-03 0.  1.
        -12    1    3    3    0    0  0.12444030645E+02  0.86804249774E+01  0.29396989647E+01  0.15454627349E+02  0.00000000000E+00 0.  1.
</event>
<event>
 7    1  0.4994895E-011  0.5052885E+02  0.7816164E-02  0.1300439E+00
        -11   -1    0    0    0    0  0.00000000000E+00  0.00000000000E+00  0.45593999997E+02  0.45594000000E+02  0.51100000000E-03 0.  1.
         11   -1    0    0    0    0 -0.00000000000E+00 -0.00000000000E+00 -0.45593999997E+02  0.45594000000E+02  0.51100000000E-03 0. -1.
    9900012    2    1    2    0    0 -0.18184055422E+02 -0.13004076190E+01 -0.36343028711E+02  0.50528847679E+02  0.29999963006E+02 0.  0.
        -12    1    1    2    0    0  0.18184055422E+02  0.13004076190E+01  0.36343028711E+02  0.40659152321E+02  0.00000000000E+00 0.  1.
         11    1    3    3    0    0  0.10547736924E+01 -0.38139836196E+01  0.30814321702E+00  0.39691272461E+01  0.51100000000E-03 0. -1.
        -11    1    3    3    0    0 -0.15386538497E+02  0.11291230992E+02 -0.23172934433E+02  0.30020365666E+02  0.51100000000E-03 0.  1.
        -12    1    3    3    0    0 -0.38522906172E+01 -0.87776549911E+01 -0.13478237495E+02  0.16539354767E+02  0.00000000000E+00 0.  1.
</event>
<event>
 7    1  0.4994895E-011  0.5052888E+02  0.7816164E-02  0.1300439E+00
        -11   -1    0    0    0    0  0.00000000000E+00  0.00000000000E+00  0.45593999997E+02  0.45594000000E+02  0.51100000000E-03 0. -1.
         11   -1    0    0    0    0 -0.00000000000E+00 -0.00000000000E+00 -0.45593999997E+02  0.45594000000E+02  0.51100000000E-03 0.  1.
    9900012    2    1    2    0    0  0.14734263499E+02 -0.37709303641E+02 -0.37515628595E+01  0.50528876475E+02  0.30000050533E+02 0.  0.
        -12    1    1    2    0    0 -0.14734263499E+02  0.37709303641E+02  0.37515628595E+01  0.40659123525E+02  0.00000000000E+00 0.  1.
         11    1    3    3    0    0  0.13775544610E+02 -0.33483417172E+02 -0.46809123936E+00  0.36209445790E+02  0.51100000000E-03 0. -1.
        -11    1    3    3    0    0 -0.11489241609E+01 -0.19466676522E+01 -0.81994502428E+01  0.85053234048E+01  0.51100000000E-03 0.  1.
         12    1    3    3    0    0  0.21076430502E+01 -0.22792188170E+01  0.49159786226E+01  0.58141072798E+01  0.00000000000E+00 0. -1.
</event>
<event>
 7    1  0.4994895E-011  0.5052886E+02  0.7816164E-02  0.1300439E+00
        -11   -1    0    0    0    0  0.00000000000E+00  0.00000000000E+00  0.45593999997E+02  0.45594000000E+02  0.51100000000E-03 0. -1.
         11   -1    0    0    0    0 -0.00000000000E+00 -0.00000000000E+00 -0.45593999997E+02  0.45594000000E+02  0.51100000000E-03 0.  1.
    9900012    2    1    2    0    0 -0.22420932048E+02  0.25361563419E+02  0.22522401975E+02  0.50528859777E+02  0.29999999779E+02 0.  0.
        -12    1    1    2    0    0  0.22420932048E+02 -0.25361563419E+02 -0.22522401975E+02  0.40659140223E+02  0.00000000000E+00 0.  1.
         11    1    3    3    0    0 -0.30889106674E+01  0.81630250091E+01  0.92741605004E+01  0.12735242426E+02  0.51100000000E-03 0. -1.
        -11    1    3    3    0    0 -0.10731461595E+01  0.82598229238E+01 -0.56276455780E+01  0.10052199382E+02  0.51100000000E-03 0.  1.
        -12    1    3    3    0    0 -0.18258875221E+02  0.89387154857E+01  0.18875887053E+02  0.27741417968E+02  0.00000000000E+00 0.  1.
</event>
<event>
 7    1  0.6062783E-011  0.5052886E+02  0.7816164E-02  0.1300439E+00
        -11   -1    0    0    0    0  0.00000000000E+00  0.00000000000E+00  0.45593999997E+02  0.45594000000E+02  0.51100000000E-03 0. -1.
         11   -1    0    0    0    0 -0.00000000000E+00 -0.00000000000E+00 -0.45593999997E+02  0.45594000000E+02  0.51100000000E-03 0.  1.
    9900012    2    1    2    0    0  0.33316724995E+02  0.17535347456E+02  0.15351639629E+02  0.50528863092E+02  0.30000009854E+02 0.  0.
        -12    1    1    2    0    0 -0.33316724995E+02 -0.17535347456E+02 -0.15351639629E+02  0.40659136908E+02  0.00000000000E+00 0.  1.
         11    1    3    3    0    0  0.24479188451E+02  0.20244518373E+01  0.56078978921E+01  0.25194792944E+02  0.51100000000E-03 0. -1.
        -11    1    3    3    0    0 -0.40700941328E+01  0.35392803061E+01  0.41305980642E+00  0.54095092198E+01  0.51100000000E-03 0.  1.
        -12    1    3    3    0    0  0.12907630677E+02  0.11971615313E+02  0.93306819305E+01  0.19924560928E+02  0.00000000000E+00 0.  1.
</event>
<event>
 7    1  0.4994895E-011  0.5052886E+02  0.7816164E-02  0.1300439E+00
        -11   -1    0    0    0    0  0.00000000000E+00  0.00000000000E+00  0.45593999997E+02  0.45594000000E+02  0.51100000000E-03 0. -1.
         11   -1    0    0    0    0 -0.00000000000E+00 -0.00000000000E+00 -0.45593999997E+02  0.45594000000E+02  0.51100000000E-03 0.  1.
    9900012    2    1    2    0    0  0.19027212503E+02 -0.29833191911E+02  0.20027770457E+02  0.50528859026E+02  0.29999997496E+02 0.  0.
        -12    1    1    2    0    0 -0.19027212503E+02  0.29833191911E+02 -0.20027770457E+02  0.40659140974E+02  0.00000000000E+00 0.  1.
         11    1    3    3    0    0 -0.24396940325E+01 -0.21548693298E+02  0.57850286770E+01  0.22444706433E+02  0.51100000000E-03 0. -1.
        -11    1    3    3    0    0  0.44333390669E+01 -0.24757109799E+01  0.70838643295E+01  0.87157773169E+01  0.51100000000E-03 0.  1.
         12    1    3    3    0    0  0.17033567469E+02 -0.58087876334E+01  0.71588774504E+01  0.19368375276E+02  0.00000000000E+00 0. -1.
</event>
<event>
 7    1  0.4994895E-011  0.5052886E+02  0.7816164E-02  0.1300439E+00
        -11   -1    0    0    0    0  0.00000000000E+00  0.00000000000E+00  0.45593999997E+02  0.45594000000E+02  0.51100000000E-03 0.  1.
         11   -1    0    0    0    0 -0.00000000000E+00 -0.00000000000E+00 -0.45593999997E+02  0.45594000000E+02  0.51100000000E-03 0. -1.
    9900012    2    1    2    0    0  0.12814842551E+02 -0.86297483693E+01 -0.37609480495E+02  0.50528858720E+02  0.29999996565E+02 0.  0.
        -12    1    1    2    0    0 -0.12814842551E+02  0.86297483693E+01  0.37609480495E+02  0.40659141280E+02  0.00000000000E+00 0.  1.
         11    1    3    3    0    0  0.30666109774E+01 -0.19508017427E+01 -0.11649023961E+02  0.12202847612E+02  0.51100000000E-03 0. -1.
        -11    1    3    3    0    0 -0.39204864395E+01 -0.12555148202E+02 -0.10134748690E+02  0.16604670776E+02  0.51100000000E-03 0.  1.
        -12    1    3    3    0    0  0.13668718013E+02  0.58762015757E+01 -0.15825707844E+02  0.21721340332E+02  0.00000000000E+00 0.  1.
</event>
<event>
 7    1  0.4994895E-011  0.5052886E+02  0.7816164E-02  0.1300439E+00
        -11   -1    0    0    0    0  0.00000000000E+00  0.00000000000E+00  0.45593999997E+02  0.45594000000E+02  0.51100000000E-03 0. -1.
         11   -1    0    0    0    0 -0.00000000000E+00 -0.00000000000E+00 -0.45593999997E+02  0.45594000000E+02  0.51100000000E-03 0.  1.
    9900012    2    1    2    0    0  0.97084215010E+01  0.38584481469E+02  0.83755409158E+01  0.50528863955E+02  0.30000012478E+02 0.  0.
        -12    1    1    2    0    0 -0.97084215010E+01 -0.38584481469E+02 -0.83755409158E+01  0.40659136045E+02  0.00000000000E+00 0.  1.
         11    1    3    3    0    0  0.12450503067E+02  0.19297454920E+02  0.28848130962E+01  0.23145819058E+02  0.51100000000E-03 0. -1.
        -11    1    3    3    0    0 -0.78495117246E+01  0.37147377485E+01  0.66731940493E+01  0.10951969226E+02  0.51100000000E-03 0.  1.
        -12    1    3    3    0    0  0.51074301588E+01  0.15572288800E+02 -0.11824662298E+01  0.16431075671E+02  0.00000000000E+00 0.  1.
</event>
<event>
 7    1  0.4994895E-011  0.5052889E+02  0.7816164E-02  0.1300439E+00
        -11   -1    0    0    0    0  0.00000000000E+00  0.00000000000E+00  0.45593999997E+02  0.45594000000E+02  0.51100000000E-03 0.  1.
         11   -1    0    0    0    0 -0.00000000000E+00 -0.00000000000E+00 -0.45593999997E+02  0.45594000000E+02  0.51100000000E-03 0. -1.
    9900012    2    1    2    0    0 -0.23095887408E+02 -0.30602431583E+02 -0.13536398758E+02  0.50528893698E+02  0.30000102884E+02 0.  0.
        -12    1    1    2    0    0  0.23095887408E+02  0.30602431583E+02  0.13536398758E+02  0.40659106302E+02  0.00000000000E+00 0.  1.
         11    1    3    3    0    0 -0.93192364541E+01 -0.17512196823E+02  0.30124807566E+00  0.19839756962E+02  0.51100000000E-03 0. -1.
        -11    1    3    3    0    0  0.68362094400E+00  0.45325050513E+01 -0.19738862503E+01  0.49907080485E+01  0.51100000000E-03 0.  1.
        -12    1    3    3    0    0 -0.14460271898E+02 -0.17622739812E+02 -0.11863760583E+02  0.25698428688E+02  0.00000000000E+00 0.  1.
</event>
<event>
 7    1  0.4994895E-011  0.5052887E+02  0.7816164E-02  0.1300439E+00
        -11   -1    0    0    0    0  0.00000000000E+00  0.00000000000E+00  0.45593999997E+02  0.45594000000E+02  0.51100000000E-03 0.  1.
         11   -1    0    0    0    0 -0.00000000000E+00 -0.00000000000E+00 -0.45593999997E+02  0.45594000000E+02  0.51100000000E-03 0. -1.
    9900012    2    1    2    0    0 -0.27231962318E+02 -0.19942784524E+02 -0.22668709247E+02  0.50528870580E+02  0.30000032614E+02 0.  0.
        -12    1    1    2    0    0  0.27231962318E+02  0.19942784524E+02  0.22668709247E+02  0.40659129420E+02  0.00000000000E+00 0.  1.
         11    1    3    3    0    0 -0.17180687876E+02 -0.99145361617E+01 -0.17147407482E+02  0.26220367023E+02  0.51100000000E-03 0. -1.
        -11    1    3    3    0    0  0.70926262335E+00 -0.12390031708E+02 -0.11762799006E+01  0.12465936541E+02  0.51100000000E-03 0.  1.
        -12    1    3    3    0    0 -0.10760537066E+02  0.23617833460E+01 -0.43450218653E+01  0.11842567016E+02  0.00000000000E+00 0.  1.
</event>
<event>
 7    1  0.4994895E-011  0.5052886E+02  0.7816164E-02  0.1300439E+00
        -11   -1    0    0    0    0  0.00000000000E+00  0.00000000000E+00  0.45593999997E+02  0.45594000000E+02  0.51100000000E-03 0.  1.
         11   -1    0    0    0    0 -0.00000000000E+00 -0.00000000000E+00 -0.45593999997E+02  0.45594000000E+02  0.51100000000E-03 0. -1.
    9900012    2    1    2    0    0  0.13680601201E+02 -0.15623640948E+02 -0.34955809710E+02  0.50528860336E+02  0.30000001478E+02 0.  0.
        -12    1    1    2    0    0 -0.13680601201E+02  0.15623640948E+02  0.34955809710E+02  0.40659139664E+02  0.00000000000E+00 0.  1.
         11    1    3    3    0    0  0.10897859828E+02 -0.17332781098E+02 -0.30413855157E+02  0.36663213651E+02  0.51100000000E-03 0. -1.
        -11    1    3    3    0    0 -0.86484147373E-01 -0.26896807512E+01  0.34050371942E+01  0.43400622814E+01  0.51100000000E-03 0.  1.
         12    1    3    3    0    0  0.28692255205E+01  0.43988209012E+01 -0.79469917476E+01  0.95255844044E+01  0.00000000000E+00 0. -1.
</event>
<event>
 7    1  0.4994895E-011  0.5052885E+02  0.7816164E-02  0.1300439E+00
        -11   -1    0    0    0    0  0.00000000000E+00  0.00000000000E+00  0.45593999997E+02  0.45594000000E+02  0.51100000000E-03 0. -1.
         11   -1    0    0    0    0 -0.00000000000E+00 -0.00000000000E+00 -0.45593999997E+02  0.45594000000E+02  0.51100000000E-03 0.  1.
    9900012    2    1    2    0    0  0.29047079307E+01  0.39749727872E+02 -0.80428775099E+01  0.50528854993E+02  0.29999985236E+02 0.  0.
        -12    1    1    2    0    0 -0.29047079307E+01 -0.39749727872E+02  0.80428775099E+01  0.40659145007E+02  0.00000000000E+00 0.  1.
         11    1    3    3    0    0  0.36415856913E+01  0.22835322203E+02  0.32071199173E+01  0.23345207321E+02  0.51100000000E-03 0. -1.
        -11    1    3    3    0    0  0.18387720277E+00 -0.38864215521E+01 -0.12586183273E+01  0.40892791127E+01  0.51100000000E-03 0.  1.
        -12    1    3    3    0    0 -0.92075496343E+00  0.20800827222E+02 -0.99913790999E+01  0.23094368559E+02  0.00000000000E+00 0.  1.
</event>
<event>
 7    1  0.4994895E-011  0.5052887E+02  0.7816164E-02  0.1300439E+00
        -11   -1    0    0    0    0  0.00000000000E+00  0.00000000000E+00  0.45593999997E+02  0.45594000000E+02  0.51100000000E-03 0.  1.
         11   -1    0    0    0    0 -0.00000000000E+00 -0.00000000000E+00 -0.45593999997E+02  0.45594000000E+02  0.51100000000E-03 0. -1.
    9900012    2    1    2    0    0 -0.58582129393E+01 -0.30842590931E+02 -0.25837587509E+02  0.50528868154E+02  0.30000025241E+02 0.  0.
        -12    1    1    2    0    0  0.58582129393E+01  0.30842590931E+02  0.25837587509E+02  0.40659131846E+02  0.00000000000E+00 0.  1.
         11    1    3    3    0    0 -0.15677625841E+02 -0.12190768091E+02 -0.20241239069E+02  0.28356842877E+02  0.51100000000E-03 0. -1.
        -11    1    3    3    0    0  0.79075330463E+01 -0.15063629701E+02 -0.61036238161E+01  0.18074740458E+02  0.51100000000E-03 0.  1.
         12    1    3    3    0    0  0.19118798550E+01 -0.35881931394E+01  0.50727537616E+00  0.40972848196E+01  0.00000000000E+00 0. -1.
</event>
<event>
 7    1  0.4994895E-011  0.5052886E+02  0.7816164E-02  0.1300439E+00
        -11   -1    0    0    0    0  0.00000000000E+00  0.00000000000E+00  0.45593999997E+02  0.45594000000E+02  0.51100000000E-03 0. -1.
         11   -1    0    0    0    0 -0.00000000000E+00 -0.00000000000E+00 -0.45593999997E+02  0.45594000000E+02  0.51100000000E-03 0.  1.
    9900012    2    1    2    0    0  0.26192514734E+02  0.35981257197E+01  0.30889664480E+02  0.50528859473E+02  0.29999998853E+02 0.  0.
        -12    1    1    2    0    0 -0.26192514734E+02 -0.35981257197E+01 -0.30889664480E+02  0.40659140527E+02  0.00000000000E+00 0.  1.
         11    1    3    3    0    0  0.54908804895E+01  0.69119573539E+01  0.20916135810E+02  0.22702635540E+02  0.51100000000E-03 0. -1.
        -11    1    3    3    0    0  0.21321229643E+02 -0.13476605912E+00  0.11522567326E+02  0.24235976428E+02  0.51100000000E-03 0.  1.
         12    1    3    3    0    0 -0.61959539866E+00 -0.31790655750E+01 -0.15490386555E+01  0.35902475046E+01  0.00000000000E+00 0. -1.
</event>
<event>
 7    1  0.4994895E-011  0.5052886E+02  0.7816164E-02  0.1300439E+00
        -11   -1    0    0    0    0  0.00000000000E+00  0.00000000000E+00  0.45593999997E+02  0.45594000000E+02  0.51100000000E-03 0. -1.
         11   -1    0    0    0    0 -0.00000000000E+00 -0.00000000000E+00 -0.45593999997E+02  0.45594000000E+02  0.51100000000E-03 0.  1.
    9900012    2    1    2    0    0  0.21721394802E+02 -0.17838047978E+02  0.29379422071E+02  0.50528863400E+02  0.30000010792E+02 0.  0.
        -12    1    1    2    0    0 -0.21721394802E+02  0.17838047978E+02 -0.29379422071E+02  0.40659136600E+02  0.00000000000E+00 0.  1.
         11    1    3    3    0    0 -0.53537003460E+01 -0.53601883900E+01  0.10402687104E+01  0.76469527409E+01  0.51100000000E-03 0. -1.
        -11    1    3    3    0    0  0.15316277290E+02 -0.80375881209E+01  0.82003291009E+01  0.19142533020E+02  0.51100000000E-03 0.  1.
         12    1    3    3    0    0  0.11758817858E+02 -0.44402714672E+01  0.20138824260E+02  0.23739377639E+02  0.00000000000E+00 0. -1.
</event>
<event>
 7    1  0.4994895E-011  0.5052886E+02  0.7816164E-02  0.1300439E+00
        -11   -1    0    0    0    0  0.00000000000E+00  0.00000000000E+00  0.45593999997E+02  0.45594000000E+02  0.51100000000E-03 0.  1.
         11   -1    0    0    0    0 -0.00000000000E+00 -0.00000000000E+00 -0.45593999997E+02  0.45594000000E+02  0.51100000000E-03 0. -1.
    9900012    2    1    2    0    0  0.45401905057E+01  0.26513823013E+02 -0.30488841598E+02  0.50528860774E+02  0.30000002809E+02 0.  0.
        -12    1    1    2    0    0 -0.45401905057E+01 -0.26513823013E+02  0.30488841598E+02  0.40659139226E+02  0.00000000000E+00 0.  1.
         11    1    3    3    0    0  0.20557346090E+01  0.30921323382E+02 -0.18053514701E+02  0.35864797195E+02  0.51100000000E-03 0. -1.
        -11    1    3    3    0    0  0.37430945455E+01 -0.64763969376E+00 -0.57537356146E+01  0.68946114998E+01  0.51100000000E-03 0.  1.
         12    1    3    3    0    0 -0.12586386488E+01 -0.37598606754E+01 -0.66815912829E+01  0.77694520796E+01  0.00000000000E+00 0. -1.
</event>
<event>
 7    1  0.4994895E-011  0.5052886E+02  0.7816164E-02  0.1300439E+00
        -11   -1    0    0    0    0  0.00000000000E+00  0.00000000000E+00  0.45593999997E+02  0.45594000000E+02  0.51100000000E-03 0.  1.
         11   -1    0    0    0    0 -0.00000000000E+00 -0.00000000000E+00 -0.45593999997E+02  0.45594000000E+02  0.51100000000E-03 0. -1.
    9900012    2    1    2    0    0  0.32530126521E+02  0.23950578831E+02 -0.46180449412E+01  0.50528859615E+02  0.29999999285E+02 0.  0.
        -12    1    1    2    0    0 -0.32530126521E+02 -0.23950578831E+02  0.46180449412E+01  0.40659140385E+02  0.00000000000E+00 0.  1.
         11    1    3    3    0    0  0.17451854306E+02  0.48218690595E+01 -0.13824097021E+02  0.22779888030E+02  0.51100000000E-03 0. -1.
        -11    1    3    3    0    0  0.96964972268E+01  0.17766346144E+02  0.51838179723E+01  0.20893469861E+02  0.51100000000E-03 0.  1.
         12    1    3    3    0    0  0.53817749884E+01  0.13623636270E+01  0.40222341077E+01  0.68555017245E+01  0.00000000000E+00 0. -1.
</event>
<event>
 7    1  0.4994895E-011  0.5052880E+02  0.7816164E-02  0.1300439E+00
        -11   -1    0    0    0    0  0.00000000000E+00  0.00000000000E+00  0.45593999997E+02  0.45594000000E+02  0.51100000000E-03 0.  1.
         11   -1    0    0    0    0 -0.00000000000E+00 -0.00000000000E+00 -0.45593999997E+02  0.45594000000E+02  0.51100000000E-03 0. -1.
    9900012    2    1    2    0    0  0.61873650779E+00 -0.38708366493E+02 -0.12427788535E+02  0.50528801787E+02  0.29999823512E+02 0.  0.
        -12    1    1    2    0    0 -0.61873650779E+00  0.38708366493E+02  0.12427788535E+02  0.40659198213E+02  0.00000000000E+00 0.  1.
         11    1    3    3    0    0  0.14796030581E+02 -0.15721525263E+02 -0.27438941025E+01  0.21762762524E+02  0.51100000000E-03 0. -1.
        -11    1    3    3    0    0 -0.81488691365E+01 -0.11253331323E+02 -0.51205605276E+01  0.14807487108E+02  0.51100000000E-03 0.  1.
         12    1    3    3    0    0 -0.60284249369E+01 -0.11733509907E+02 -0.45633339047E+01  0.13958552156E+02  0.00000000000E+00 0. -1.
</event>
<event>
 7    1  0.4994895E-011  0.5052886E+02  0.7816164E-02  0.1300439E+00
        -11   -1    0    0    0    0  0.00000000000E+00  0.00000000000E+00  0.45593999997E+02  0.45594000000E+02  0.51100000000E-03 0.  1.
         11   -1    0    0    0    0 -0.00000000000E+00 -0.00000000000E+00 -0.45593999997E+02  0.45594000000E+02  0.51100000000E-03 0. -1.
    9900012    2    1    2    0    0 -0.33606555787E+02  0.12695713860E+02 -0.19041645988E+02  0.50528855590E+02  0.29999987051E+02 0.  0.
        -12    1    1    2    0    0  0.33606555787E+02 -0.12695713860E+02  0.19041645988E+02  0.40659144410E+02  0.00000000000E+00 0.  1.
         11    1    3    3    0    0  0.21384615592E+00  0.92539277658E+01 -0.10810283243E+02  0.14231764941E+02  0.51100000000E-03 0. -1.
        -11    1    3    3    0    0 -0.12860015571E+02  0.21213229186E+01  0.15563664179E+01  0.13126396616E+02  0.51100000000E-03 0.  1.
         12    1    3    3    0    0 -0.20960386371E+02  0.13204631752E+01 -0.97877291629E+01  0.23170694033E+02  0.00000000000E+00 0. -1.
</event>
<event>
 7    1  0.4994895E-011  0.5052888E+02  0.7816164E-02  0.1300439E+00
        -11   -1    0    0    0    0  0.00000000000E+00  0.00000000000E+00  0.45593999997E+02  0.45594000000E+02  0.51100000000E-03 0.  1.
         11   -1    0    0    0    0 -0.00000000000E+00 -0.00000000000E+00 -0.45593999997E+02  0.45594000000E+02  0.51100000000E-03 0. -1.
    9900012    2    1    2    0    0  0.16879163108E+02  0.24167751336E+02 -0.28003177487E+02  0.50528876777E+02  0.30000051452E+02 0.  0.
        -12    1    1    2    0    0 -0.16879163108E+02 -0.24167751336E+02  0.28003177487E+02  0.40659123223E+02  0.00000000000E+00 0.  1.
         11    1    3    3    0    0  0.90756966005E+01  0.24900612516E+02 -0.29098071885E+02  0.39358691037E+02  0.51100000000E-03 0. -1.
        -11    1    3    3    0    0 -0.41722721723E+00  0.16501915075E+01  0.19265314995E+01  0.25707458922E+01  0.51100000000E-03 0.  1.
         12    1    3    3    0    0  0.82206937252E+01 -0.23830526878E+01 -0.83163710219E+00  0.85994398484E+01  0.00000000000E+00 0. -1.
</event>
<event>
 7    1  0.4994895E-011  0.5052886E+02  0.7816164E-02  0.1300439E+00
        -11   -1    0    0    0    0  0.00000000000E+00  0.00000000000E+00  0.45593999997E+02  0.45594000000E+02  0.51100000000E-03 0. -1.
         11   -1    0    0    0    0 -0.00000000000E+00 -0.00000000000E+00 -0.45593999997E+02  0.45594000000E+02  0.51100000000E-03 0.  1.
    9900012    2    1    2    0    0  0.13616201823E+02  0.36838621908E+02 -0.10520491535E+02  0.50528858860E+02  0.29999996990E+02 0.  0.
        -12    1    1    2    0    0 -0.13616201823E+02 -0.36838621908E+02  0.10520491535E+02  0.40659141140E+02  0.00000000000E+00 0.  1.
         11    1    3    3    0    0  0.45046881235E+01  0.14252651849E+02  0.10269998832E+02  0.18135687913E+02  0.51100000000E-03 0. -1.
        -11    1    3    3    0    0  0.80917313176E+01  0.19189970863E+02 -0.19740244159E+02  0.28695092562E+02  0.51100000000E-03 0.  1.
        -12    1    3    3    0    0  0.10197823814E+01  0.33959991959E+01 -0.10502462080E+01  0.36980783850E+01  0.00000000000E+00 0.  1.
</event>
<event>
 7    1  0.4994895E-011  0.5052885E+02  0.7816164E-02  0.1300439E+00
        -11   -1    0    0    0    0  0.00000000000E+00  0.00000000000E+00  0.45593999997E+02  0.45594000000E+02  0.51100000000E-03 0.  1.
         11   -1    0    0    0    0 -0.00000000000E+00 -0.00000000000E+00 -0.45593999997E+02  0.45594000000E+02  0.51100000000E-03 0. -1.
    9900012    2    1    2    0    0 -0.11847091145E+02  0.84620730127E+00 -0.38885687714E+02  0.50528851652E+02  0.29999975082E+02 0.  0.
        -12    1    1    2    0    0  0.11847091145E+02 -0.84620730127E+00  0.38885687714E+02  0.40659148348E+02  0.00000000000E+00 0.  1.
         11    1    3    3    0    0 -0.20042860374E+02  0.25338308110E+01 -0.33582980567E+02  0.39191237982E+02  0.51100000000E-03 0. -1.
        -11    1    3    3    0    0  0.30423243454E+01  0.93582608520E+00  0.40955365548E+00  0.32092432663E+01  0.51100000000E-03 0.  1.
         12    1    3    3    0    0  0.51534448836E+01 -0.26234495949E+01 -0.57122608022E+01  0.81283704036E+01  0.00000000000E+00 0. -1.
</event>
<event>
 7    1  0.4994895E-011  0.5052884E+02  0.7816164E-02  0.1300439E+00
        -11   -1    0    0    0    0  0.00000000000E+00  0.00000000000E+00  0.45593999997E+02  0.45594000000E+02  0.51100000000E-03 0. -1.
         11   -1    0    0    0    0 -0.00000000000E+00 -0.00000000000E+00 -0.45593999997E+02  0.45594000000E+02  0.51100000000E-03 0.  1.
    9900012    2    1    2    0    0  0.10416474107E+01  0.40504315258E+02  0.33885863683E+01  0.50528842343E+02  0.29999946784E+02 0.  0.
        -12    1    1    2    0    0 -0.10416474107E+01 -0.40504315258E+02 -0.33885863683E+01  0.40659157657E+02  0.00000000000E+00 0.  1.
         11    1    3    3    0    0  0.53844212650E+01  0.65010838121E+01  0.16605492519E+01  0.86031103196E+01  0.51100000000E-03 0. -1.
        -11    1    3    3    0    0 -0.84432739047E+00  0.22994830626E+02 -0.10334533434E+02  0.25224545701E+02  0.51100000000E-03 0.  1.
        -12    1    3    3    0    0 -0.34984464639E+01  0.11008400820E+02  0.12062570551E+02  0.16701186322E+02  0.00000000000E+00 0.  1.
</event>
<event>
 7    1  0.4994895E-011  0.5052885E+02  0.7816164E-02  0.1300439E+00
        -11   -1    0    0    0    0  0.00000000000E+00  0.00000000000E+00  0.45593999997E+02  0.45594000000E+02  0.51100000000E-03 0.  1.
         11   -1    0    0    0    0 -0.00000000000E+00 -0.00000000000E+00 -0.45593999997E+02  0.45594000000E+02  0.51100000000E-03 0. -1.
    9900012    2    1    2    0    0  0.10367871896E+02 -0.38927929969E+02  0.55036023812E+01  0.50528854184E+02  0.29999982777E+02 0.  0.
        -12    1    1    2    0    0 -0.10367871896E+02  0.38927929969E+02 -0.55036023812E+01  0.40659145816E+02  0.00000000000E+00 0.  1.
         11    1    3    3    0    0 -0.23629385588E+01 -0.31280288183E+02 -0.29175066508E+01  0.31504789362E+02  0.51100000000E-03 0. -1.
        -11    1    3    3    0    0  0.70343014183E+00 -0.36055844047E+01  0.43606319381E+01  0.57017684997E+01  0.51100000000E-03 0.  1.
         12    1    3    3    0    0  0.12027380313E+02 -0.40420573818E+01  0.40604770940E+01  0.13322296322E+02  0.00000000000E+00 0. -1.
</event>
<event>
 7    1  0.4994895E-011  0.5052886E+02  0.7816164E-02  0.1300439E+00
        -11   -1    0    0    0    0  0.00000000000E+00  0.00000000000E+00  0.45593999997E+02  0.45594000000E+02  0.51100000000E-03 0. -1.
         11   -1    0    0    0    0 -0.00000000000E+00 -0.00000000000E+00 -0.45593999997E+02  0.45594000000E+02  0.51100000000E-03 0.  1.
    9900012    2    1    2    0    0  0.38493658298E+02 -0.92464893357E+01 -0.92685851694E+01  0.50528856315E+02  0.29999989254E+02 0.  0.
        -12    1    1    2    0    0 -0.38493658298E+02  0.92464893357E+01  0.92685851694E+01  0.40659143685E+02  0.00000000000E+00 0.  1.
         11    1    3    3    0    0  0.16878265273E+02  0.91275019397E+01  0.19601158862E+01  0.19288058089E+02  0.51100000000E-03 0. -1.
        -11    1    3    3    0    0  0.88230919080E+01 -0.81922881845E+01 -0.83186428952E+01  0.14634218681E+02  0.51100000000E-03 0.  1.
         12    1    3    3    0    0  0.12792301116E+02 -0.10181703091E+02 -0.29100581605E+01  0.16606579545E+02  0.00000000000E+00 0. -1.
</event>
<event>
 7    1  0.4994895E-011  0.5052886E+02  0.7816164E-02  0.1300439E+00
        -11   -1    0    0    0    0  0.00000000000E+00  0.00000000000E+00  0.45593999997E+02  0.45594000000E+02  0.51100000000E-03 0. -1.
         11   -1    0    0    0    0 -0.00000000000E+00 -0.00000000000E+00 -0.45593999997E+02  0.45594000000E+02  0.51100000000E-03 0.  1.
    9900012    2    1    2    0    0  0.24971871217E+02  0.30947067727E+02  0.84764437147E+01  0.50528862638E+02  0.30000008474E+02 0.  0.
        -12    1    1    2    0    0 -0.24971871217E+02 -0.30947067727E+02 -0.84764437147E+01  0.40659137362E+02  0.00000000000E+00 0.  1.
         11    1    3    3    0    0  0.27017129680E+02  0.15419520516E+02  0.90576343831E+01  0.32399500767E+02  0.51100000000E-03 0. -1.
        -11    1    3    3    0    0 -0.24739420059E+01  0.51147155093E+00 -0.17322766267E+01  0.30631315297E+01  0.51100000000E-03 0.  1.
         12    1    3    3    0    0  0.42868354290E+00  0.15016075660E+02  0.11510859584E+01  0.15066230341E+02  0.00000000000E+00 0. -1.
</event>
<event>
 7    1  0.4994895E-011  0.5052885E+02  0.7816164E-02  0.1300439E+00
        -11   -1    0    0    0    0  0.00000000000E+00  0.00000000000E+00  0.45593999997E+02  0.45594000000E+02  0.51100000000E-03 0.  1.
         11   -1    0    0    0    0 -0.00000000000E+00 -0.00000000000E+00 -0.45593999997E+02  0.45594000000E+02  0.51100000000E-03 0. -1.
    9900012    2    1    2    0    0  0.54552569889E+01 -0.30952915266E+02 -0.25793864072E+02  0.50528853230E+02  0.29999979878E+02 0.  0.
        -12    1    1    2    0    0 -0.54552569889E+01  0.30952915266E+02  0.25793864072E+02  0.40659146770E+02  0.00000000000E+00 0.  1.
         11    1    3    3    0    0  0.46605188607E+01 -0.13162371951E+02 -0.28294388791E+02  0.31552193406E+02  0.51100000000E-03 0. -1.
        -11    1    3    3    0    0 -0.17587877515E+01 -0.14428799907E+02  0.25346490059E+01  0.14754932970E+02  0.51100000000E-03 0.  1.
        -12    1    3    3    0    0  0.25535258796E+01 -0.33617434081E+01 -0.34124287160E-01  0.42217268537E+01  0.00000000000E+00 0.  1.
</event>
<event>
 7    1  0.4994895E-011  0.5052886E+02  0.7816164E-02  0.1300439E+00
        -11   -1    0    0    0    0  0.00000000000E+00  0.00000000000E+00  0.45593999997E+02  0.45594000000E+02  0.51100000000E-03 0.  1.
         11   -1    0    0    0    0 -0.00000000000E+00 -0.00000000000E+00 -0.45593999997E+02  0.45594000000E+02  0.51100000000E-03 0. -1.
    9900012    2    1    2    0    0 -0.86753952936E+01  0.67859139938E+01 -0.39138916015E+02  0.50528857620E+02  0.29999993221E+02 0.  0.
        -12    1    1    2    0    0  0.86753952936E+01 -0.67859139938E+01  0.39138916015E+02  0.40659142380E+02  0.00000000000E+00 0.  1.
         11    1    3    3    0    0 -0.15091879912E+01  0.14890183269E+01 -0.16015850410E+02  0.16155565251E+02  0.51100000000E-03 0. -1.
        -11    1    3    3    0    0 -0.68564971763E+01  0.10541925802E+01  0.32490831229E+01  0.76602491426E+01  0.51100000000E-03 0.  1.
        -12    1    3    3    0    0 -0.30971012609E+00  0.42427030867E+01 -0.26372148729E+02  0.26713043226E+02  0.00000000000E+00 0.  1.
</event>
<event>
 7    1  0.4994895E-011  0.5052885E+02  0.7816164E-02  0.1300439E+00
        -11   -1    0    0    0    0  0.00000000000E+00  0.00000000000E+00  0.45593999997E+02  0.45594000000E+02  0.51100000000E-03 0. -1.
         11   -1    0    0    0    0 -0.00000000000E+00 -0.00000000000E+00 -0.45593999997E+02  0.45594000000E+02  0.51100000000E-03 0.  1.
    9900012    2    1    2    0    0  0.11677511773E+02  0.36570751338E+02  0.13393369210E+02  0.50528850065E+02  0.29999970257E+02 0.  0.
        -12    1    1    2    0    0 -0.11677511773E+02 -0.36570751338E+02 -0.13393369210E+02  0.40659149935E+02  0.00000000000E+00 0.  1.
         11    1    3    3    0    0 -0.28107366337E+00  0.64967143986E-01  0.11718507036E+01  0.12068377964E+01  0.51100000000E-03 0. -1.
        -11    1    3    3    0    0  0.12231313043E+02  0.10818982137E+01  0.19091008209E+01  0.12426591999E+02  0.51100000000E-03 0.  1.
        -12    1    3    3    0    0 -0.27272760715E+00  0.35423885981E+02  0.10312417686E+02  0.36895420269E+02  0.00000000000E+00 0.  1.
</event>
<event>
 7    1  0.4994895E-011  0.5052886E+02  0.7816164E-02  0.1300439E+00
        -11   -1    0    0    0    0  0.00000000000E+00  0.00000000000E+00  0.45593999997E+02  0.45594000000E+02  0.51100000000E-03 0. -1.
         11   -1    0    0    0    0 -0.00000000000E+00 -0.00000000000E+00 -0.45593999997E+02  0.45594000000E+02  0.51100000000E-03 0.  1.
    9900012    2    1    2    0    0  0.37549154591E+01  0.40430331222E+02  0.21106089218E+01  0.50528859050E+02  0.29999997568E+02 0.  0.
        -12    1    1    2    0    0 -0.37549154591E+01 -0.40430331222E+02 -0.21106089218E+01  0.40659140950E+02  0.00000000000E+00 0.  1.
         11    1    3    3    0    0 -0.17247099092E+01 -0.50978698051E+00  0.82097215238E+01  0.84044056777E+01  0.51100000000E-03 0. -1.
        -11    1    3    3    0    0 -0.22936125368E-02  0.21009652656E+02 -0.31535007623E+01  0.21245001231E+02  0.51100000000E-03 0.  1.
         12    1    3    3    0    0  0.54819189808E+01  0.19930465546E+02 -0.29456118397E+01  0.20879452141E+02  0.00000000000E+00 0. -1.
</event>
<event>
 7    1  0.4994895E-011  0.5052886E+02  0.7816164E-02  0.1300439E+00
        -11   -1    0    0    0    0  0.00000000000E+00  0.00000000000E+00  0.45593999997E+02  0.45594000000E+02  0.51100000000E-03 0. -1.
         11   -1    0    0    0    0 -0.00000000000E+00 -0.00000000000E+00 -0.45593999997E+02  0.45594000000E+02  0.51100000000E-03 0.  1.
    9900012    2    1    2    0    0 -0.98541447886E+01 -0.34253637176E+02  0.19564000625E+02  0.50528856505E+02  0.29999989833E+02 0.  0.
        -12    1    1    2    0    0  0.98541447886E+01  0.34253637176E+02 -0.19564000625E+02  0.40659143495E+02  0.00000000000E+00 0.  1.
         11    1    3    3    0    0  0.89363995850E+01 -0.82113345448E+01  0.59528681102E+01  0.13517466166E+02  0.51100000000E-03 0. -1.
        -11    1    3    3    0    0 -0.12282839762E+02 -0.71567845591E+01  0.35837734354E+01  0.14660530350E+02  0.51100000000E-03 0.  1.
         12    1    3    3    0    0 -0.65077046119E+01 -0.18885518072E+02  0.10027359080E+02  0.22350859989E+02  0.00000000000E+00 0. -1.
</event>
<event>
 7    1  0.4994895E-011  0.5052886E+02  0.7816164E-02  0.1300439E+00
        -11   -1    0    0    0    0  0.00000000000E+00  0.00000000000E+00  0.45593999997E+02  0.45594000000E+02  0.51100000000E-03 0.  1.
         11   -1    0    0    0    0 -0.00000000000E+00 -0.00000000000E+00 -0.45593999997E+02  0.45594000000E+02  0.51100000000E-03 0. -1.
    9900012    2    1    2    0    0 -0.22078790243E+02  0.14333390934E+02 -0.30987842961E+02  0.50528862212E+02  0.30000007180E+02 0.  0.
        -12    1    1    2    0    0  0.22078790243E+02 -0.14333390934E+02  0.30987842961E+02  0.40659137788E+02  0.00000000000E+00 0.  1.
         11    1    3    3    0    0 -0.79379301755E+01  0.14933628937E+02 -0.17571968499E+02  0.24388482648E+02  0.51100000000E-03 0. -1.
        -11    1    3    3    0    0 -0.75039094077E+01 -0.80439215983E+01 -0.11630830596E+02  0.16009045933E+02  0.51100000000E-03 0.  1.
        -12    1    3    3    0    0 -0.66369506602E+01  0.74436835949E+01 -0.17850438660E+01  0.10131333630E+02  0.00000000000E+00 0.  1.
</event>
<event>
 7    1  0.4994895E-011  0.5052884E+02  0.7816164E-02  0.1300439E+00
        -11   -1    0    0    0    0  0.00000000000E+00  0.00000000000E+00  0.45593999997E+02  0.45594000000E+02  0.51100000000E-03 0.  1.
         11   -1    0    0    0    0 -0.00000000000E+00 -0.00000000000E+00 -0.45593999997E+02  0.45594000000E+02  0.51100000000E-03 0. -1.
    9900012    2    1    2    0    0 -0.18711515801E+02  0.69279142237E+01 -0.35426687216E+02  0.50528843760E+02  0.29999951094E+02 0.  0.
        -12    1    1    2    0    0  0.18711515801E+02 -0.69279142237E+01  0.35426687216E+02  0.40659156240E+02  0.00000000000E+00 0.  1.
         11    1    3    3    0    0 -0.13626347473E+02 -0.31180013294E+01 -0.82202381280E+01  0.16216398888E+02  0.51100000000E-03 0. -1.
        -11    1    3    3    0    0  0.41366738353E+01  0.44451227935E+01 -0.21010902726E+02  0.21870738915E+02  0.51100000000E-03 0.  1.
        -12    1    3    3    0    0 -0.92218421628E+01  0.56007927596E+01 -0.61955463619E+01  0.12441705958E+02  0.00000000000E+00 0.  1.
</event>
<event>
 7    1  0.4994895E-011  0.5052886E+02  0.7816164E-02  0.1300439E+00
        -11   -1    0    0    0    0  0.00000000000E+00  0.00000000000E+00  0.45593999997E+02  0.45594000000E+02  0.51100000000E-03 0.  1.
         11   -1    0    0    0    0 -0.00000000000E+00 -0.00000000000E+00 -0.45593999997E+02  0.45594000000E+02  0.51100000000E-03 0. -1.
    9900012    2    1    2    0    0  0.13448333051E+02  0.11330337111E+01 -0.38353931262E+02  0.50528862398E+02  0.30000007746E+02 0.  0.
        -12    1    1    2    0    0 -0.13448333051E+02 -0.11330337111E+01  0.38353931262E+02  0.40659137602E+02  0.00000000000E+00 0.  1.
         11    1    3    3    0    0  0.19895374537E+02  0.42720046973E+01 -0.33100948165E+02  0.38855485092E+02  0.51100000000E-03 0. -1.
        -11    1    3    3    0    0 -0.46624358756E+01 -0.34976590742E+01  0.29340163760E+00  0.58359242692E+01  0.51100000000E-03 0.  1.
         12    1    3    3    0    0 -0.17846056104E+01  0.35868808808E+00 -0.55463847351E+01  0.58374530370E+01  0.00000000000E+00 0. -1.
</event>
<event>
 7    1  0.4994895E-011  0.5052886E+02  0.7816164E-02  0.1300439E+00
        -11   -1    0    0    0    0  0.00000000000E+00  0.00000000000E+00  0.45593999997E+02  0.45594000000E+02  0.51100000000E-03 0.  1.
         11   -1    0    0    0    0 -0.00000000000E+00 -0.00000000000E+00 -0.45593999997E+02  0.45594000000E+02  0.51100000000E-03 0. -1.
    9900012    2    1    2    0    0  0.17443723664E+02 -0.23597368508E+02 -0.28143316223E+02  0.50528861497E+02  0.30000005007E+02 0.  0.
        -12    1    1    2    0    0 -0.17443723664E+02  0.23597368508E+02  0.28143316223E+02  0.40659138503E+02  0.00000000000E+00 0.  1.
         11    1    3    3    0    0  0.54777718076E+01 -0.23284937697E+02 -0.66777798169E+01  0.24835197827E+02  0.51100000000E-03 0. -1.
        -11    1    3    3    0    0  0.59261175062E+01  0.35301070075E+01 -0.93108737268E+01  0.11587618133E+02  0.51100000000E-03 0.  1.
         12    1    3    3    0    0  0.60398343501E+01 -0.38425378180E+01 -0.12154662679E+02  0.14106045537E+02  0.00000000000E+00 0. -1.
</event>
<event>
 7    1  0.4994895E-011  0.5052886E+02  0.7816164E-02  0.1300439E+00
        -11   -1    0    0    0    0  0.00000000000E+00  0.00000000000E+00  0.45593999997E+02  0.45594000000E+02  0.51100000000E-03 0.  1.
         11   -1    0    0    0    0 -0.00000000000E+00 -0.00000000000E+00 -0.45593999997E+02  0.45594000000E+02  0.51100000000E-03 0. -1.
    9900012    2    1    2    0    0 -0.21789270793E+02 -0.33582512094E+02 -0.71139486145E+01  0.50528859514E+02  0.29999998977E+02 0.  0.
        -12    1    1    2    0    0  0.21789270793E+02  0.33582512094E+02  0.71139486145E+01  0.40659140486E+02  0.00000000000E+00 0.  1.
         11    1    3    3    0    0 -0.80604374705E+01  0.24994917542E+01  0.19344683151E+01  0.86579604508E+01  0.51100000000E-03 0. -1.
        -11    1    3    3    0    0 -0.96083835391E+01 -0.24229667930E+02  0.55247786788E+00  0.26071115708E+02  0.51100000000E-03 0.  1.
         12    1    3    3    0    0 -0.41204497830E+01 -0.11852335918E+02 -0.96008947975E+01  0.15799783354E+02  0.00000000000E+00 0. -1.
</event>
<event>
 7    1  0.4994895E-011  0.5052887E+02  0.7816164E-02  0.1300439E+00
        -11   -1    0    0    0    0  0.00000000000E+00  0.00000000000E+00  0.45593999997E+02  0.45594000000E+02  0.51100000000E-03 0.  1.
         11   -1    0    0    0    0 -0.00000000000E+00 -0.00000000000E+00 -0.45593999997E+02  0.45594000000E+02  0.51100000000E-03 0. -1.
    9900012    2    1    2    0    0 -0.33461137015E+02 -0.18884776358E+02  0.13299715474E+02  0.50528869413E+02  0.30000029067E+02 0.  0.
        -12    1    1    2    0    0  0.33461137015E+02  0.18884776358E+02 -0.13299715474E+02  0.40659130587E+02  0.00000000000E+00 0.  1.
         11    1    3    3    0    0 -0.18950260742E+02  0.51573604361E+01  0.17970328039E+01  0.19721563732E+02  0.51100000000E-03 0. -1.
        -11    1    3    3    0    0 -0.85954130420E+01 -0.94166843373E+01  0.42094795602E+01  0.13426644692E+02  0.51100000000E-03 0.  1.
         12    1    3    3    0    0 -0.59154632308E+01 -0.14625452456E+02  0.72932031103E+01  0.17380660989E+02  0.00000000000E+00 0. -1.
</event>
<event>
 7    1  0.4994895E-011  0.5052885E+02  0.7816164E-02  0.1300439E+00
        -11   -1    0    0    0    0  0.00000000000E+00  0.00000000000E+00  0.45593999997E+02  0.45594000000E+02  0.51100000000E-03 0.  1.
         11   -1    0    0    0    0 -0.00000000000E+00 -0.00000000000E+00 -0.45593999997E+02  0.45594000000E+02  0.51100000000E-03 0. -1.
    9900012    2    1    2    0    0 -0.11923826204E+02 -0.35184074848E+02 -0.16524810363E+02  0.50528854512E+02  0.29999983774E+02 0.  0.
        -12    1    1    2    0    0  0.11923826204E+02  0.35184074848E+02  0.16524810363E+02  0.40659145488E+02  0.00000000000E+00 0.  1.
         11    1    3    3    0    0 -0.11941997611E+02 -0.36165455904E+02 -0.94898733260E+01  0.39250594947E+02  0.51100000000E-03 0. -1.
        -11    1    3    3    0    0  0.42140175451E-01  0.31398997350E+01  0.72574162551E+00  0.32229562995E+01  0.51100000000E-03 0.  1.
         12    1    3    3    0    0 -0.23968768646E-01 -0.21585186789E+01 -0.77606786626E+01  0.80553032651E+01  0.00000000000E+00 0. -1.
</event>
<event>
 7    1  0.4994895E-011  0.5052886E+02  0.7816164E-02  0.1300439E+00
        -11   -1    0    0    0    0  0.00000000000E+00  0.00000000000E+00  0.45593999997E+02  0.45594000000E+02  0.51100000000E-03 0.  1.
         11   -1    0    0    0    0 -0.00000000000E+00 -0.00000000000E+00 -0.45593999997E+02  0.45594000000E+02  0.51100000000E-03 0. -1.
    9900012    2    1    2    0    0  0.43088665628E+01  0.23286538371E+02 -0.33050509477E+02  0.50528863548E+02  0.30000011240E+02 0.  0.
        -12    1    1    2    0    0 -0.43088665628E+01 -0.23286538371E+02  0.33050509477E+02  0.40659136452E+02  0.00000000000E+00 0.  1.
         11    1    3    3    0    0  0.11204255502E+02  0.10556045794E+02 -0.13569550259E+02  0.20520675882E+02  0.51100000000E-03 0. -1.
        -11    1    3    3    0    0 -0.69386897273E+01 -0.81844990423E+00 -0.94817137795E+00  0.70508371560E+01  0.51100000000E-03 0.  1.
         12    1    3    3    0    0  0.43300788020E-01  0.13548942481E+02 -0.18532787840E+02  0.22957350510E+02  0.00000000000E+00 0. -1.
</event>
<event>
 7    1  0.4994895E-011  0.5052885E+02  0.7816164E-02  0.1300439E+00
        -11   -1    0    0    0    0  0.00000000000E+00  0.00000000000E+00  0.45593999997E+02  0.45594000000E+02  0.51100000000E-03 0. -1.
         11   -1    0    0    0    0 -0.00000000000E+00 -0.00000000000E+00 -0.45593999997E+02  0.45594000000E+02  0.51100000000E-03 0.  1.
    9900012    2    1    2    0    0  0.17187432102E+02  0.68855537692E+01  0.36198721006E+02  0.50528854959E+02  0.29999985135E+02 0.  0.
        -12    1    1    2    0    0 -0.17187432102E+02 -0.68855537692E+01 -0.36198721006E+02  0.40659145041E+02  0.00000000000E+00 0.  1.
         11    1    3    3    0    0 -0.23903074879E+01  0.13212696966E+02  0.13744880936E+02  0.19214855794E+02  0.51100000000E-03 0. -1.
        -11    1    3    3    0    0  0.10943206374E+02 -0.38503792202E+01  0.73265622869E+01  0.13720703374E+02  0.51100000000E-03 0.  1.
         12    1    3    3    0    0  0.86345332166E+01 -0.24767639765E+01  0.15127277783E+02  0.17593295791E+02  0.00000000000E+00 0. -1.
</event>
<event>
 7    1  0.4994895E-011  0.5052886E+02  0.7816164E-02  0.1300439E+00
        -11   -1    0    0    0    0  0.00000000000E+00  0.00000000000E+00  0.45593999997E+02  0.45594000000E+02  0.51100000000E-03 0.  1.
         11   -1    0    0    0    0 -0.00000000000E+00 -0.00000000000E+00 -0.45593999997E+02  0.45594000000E+02  0.51100000000E-03 0. -1.
    9900012    2    1    2    0    0  0.98634249777E+01 -0.27226423015E+02 -0.28541203534E+02  0.50528861277E+02  0.30000004338E+02 0.  0.
        -12    1    1    2    0    0 -0.98634249777E+01  0.27226423015E+02  0.28541203534E+02  0.40659138723E+02  0.00000000000E+00 0.  1.
         11    1    3    3    0    0  0.17173910931E+02 -0.27749440459E+02 -0.27111407068E+02  0.42426442886E+02  0.51100000000E-03 0. -1.
        -11    1    3    3    0    0 -0.50661993037E+01  0.16326176680E+01 -0.23401865224E+00  0.53279058574E+01  0.51100000000E-03 0.  1.
         12    1    3    3    0    0 -0.22442866495E+01 -0.11096002239E+01 -0.11957778143E+01  0.27745125343E+01  0.00000000000E+00 0. -1.
</event>
<event>
 7    1  0.4994895E-011  0.5052886E+02  0.7816164E-02  0.1300439E+00
        -11   -1    0    0    0    0  0.00000000000E+00  0.00000000000E+00  0.45593999997E+02  0.45594000000E+02  0.51100000000E-03 0.  1.
         11   -1    0    0    0    0 -0.00000000000E+00 -0.00000000000E+00 -0.45593999997E+02  0.45594000000E+02  0.51100000000E-03 0. -1.
    9900012    2    1    2    0    0  0.14100545671E+02  0.37565861209E+02 -0.65685917938E+01  0.50528859395E+02  0.29999998616E+02 0.  0.
        -12    1    1    2    0    0 -0.14100545671E+02 -0.37565861209E+02  0.65685917938E+01  0.40659140605E+02  0.00000000000E+00 0.  1.
         11    1    3    3    0    0  0.11556255647E+02  0.25591573105E+02 -0.11634531644E+02  0.30394703245E+02  0.51100000000E-03 0. -1.
        -11    1    3    3    0    0  0.40900889341E+01  0.11214410741E+02  0.95779528614E+01  0.15304542366E+02  0.51100000000E-03 0.  1.
         12    1    3    3    0    0 -0.15457989100E+01  0.75987736387E+00 -0.45120130116E+01  0.48296137832E+01  0.00000000000E+00 0. -1.
</event>
<event>
 7    1  0.4994895E-011  0.5052887E+02  0.7816164E-02  0.1300439E+00
        -11   -1    0    0    0    0  0.00000000000E+00  0.00000000000E+00  0.45593999997E+02  0.45594000000E+02  0.51100000000E-03 0.  1.
         11   -1    0    0    0    0 -0.00000000000E+00 -0.00000000000E+00 -0.45593999997E+02  0.45594000000E+02  0.51100000000E-03 0. -1.
    9900012    2    1    2    0    0  0.13944236246E+02 -0.20530267989E+02 -0.32206078604E+02  0.50528866620E+02  0.30000020578E+02 0.  0.
        -12    1    1    2    0    0 -0.13944236246E+02  0.20530267989E+02  0.32206078604E+02  0.40659133380E+02  0.00000000000E+00 0.  1.
         11    1    3    3    0    0  0.17418726485E+02 -0.24450537664E+02 -0.20100331254E+02  0.36128439507E+02  0.51100000000E-03 0. -1.
        -11    1    3    3    0    0 -0.39606420416E+01  0.29114477075E+01 -0.43491485753E+01  0.65634066403E+01  0.51100000000E-03 0.  1.
         12    1    3    3    0    0  0.48615180297E+00  0.10088219676E+01 -0.77565987749E+01  0.78370204729E+01  0.00000000000E+00 0. -1.
</event>
<event>
 7    1  0.4994895E-011  0.5052886E+02  0.7816164E-02  0.1300439E+00
        -11   -1    0    0    0    0  0.00000000000E+00  0.00000000000E+00  0.45593999997E+02  0.45594000000E+02  0.51100000000E-03 0. -1.
         11   -1    0    0    0    0 -0.00000000000E+00 -0.00000000000E+00 -0.45593999997E+02  0.45594000000E+02  0.51100000000E-03 0.  1.
    9900012    2    1    2    0    0 -0.39457340927E+02 -0.31959463531E+01  0.92773794344E+01  0.50528860864E+02  0.30000003082E+02 0.  0.
        -12    1    1    2    0    0  0.39457340927E+02  0.31959463531E+01 -0.92773794344E+01  0.40659139136E+02  0.00000000000E+00 0.  1.
         11    1    3    3    0    0 -0.61720475810E+01 -0.79389909253E+01 -0.25959986090E+01  0.10385612996E+02  0.51100000000E-03 0. -1.
        -11    1    3    3    0    0 -0.15078548531E+02  0.11454906882E+02  0.54947510832E+01  0.19717246441E+02  0.51100000000E-03 0.  1.
         12    1    3    3    0    0 -0.18206744815E+02 -0.67118623101E+01  0.63786269602E+01  0.20426001428E+02  0.00000000000E+00 0. -1.
</event>
<event>
 7    1  0.4994895E-011  0.5052887E+02  0.7816164E-02  0.1300439E+00
        -11   -1    0    0    0    0  0.00000000000E+00  0.00000000000E+00  0.45593999997E+02  0.45594000000E+02  0.51100000000E-03 0.  1.
         11   -1    0    0    0    0 -0.00000000000E+00 -0.00000000000E+00 -0.45593999997E+02  0.45594000000E+02  0.51100000000E-03 0. -1.
    9900012    2    1    2    0    0  0.66409887635E+01  0.19353563786E+02 -0.35135479062E+02  0.50528867546E+02  0.30000023392E+02 0.  0.
        -12    1    1    2    0    0 -0.66409887635E+01 -0.19353563786E+02  0.35135479062E+02  0.40659132454E+02  0.00000000000E+00 0.  1.
         11    1    3    3    0    0  0.60485354205E+00  0.10680313891E+02 -0.34768724916E+02  0.36377179456E+02  0.51100000000E-03 0. -1.
        -11    1    3    3    0    0  0.84688777465E+01  0.59235544662E+01 -0.11468277503E+01  0.10398346116E+02  0.51100000000E-03 0.  1.
        -12    1    3    3    0    0 -0.24327425250E+01  0.27496954294E+01  0.78007360396E+00  0.37533419741E+01  0.00000000000E+00 0.  1.
</event>
<event>
 7    1  0.4994895E-011  0.5052883E+02  0.7816164E-02  0.1300439E+00
        -11   -1    0    0    0    0  0.00000000000E+00  0.00000000000E+00  0.45593999997E+02  0.45594000000E+02  0.51100000000E-03 0.  1.
         11   -1    0    0    0    0 -0.00000000000E+00 -0.00000000000E+00 -0.45593999997E+02  0.45594000000E+02  0.51100000000E-03 0. -1.
    9900012    2    1    2    0    0 -0.38722164667E+02 -0.10023380059E+02 -0.73002422803E+01  0.50528834715E+02  0.29999923600E+02 0.  0.
        -12    1    1    2    0    0  0.38722164667E+02  0.10023380059E+02  0.73002422803E+01  0.40659165285E+02  0.00000000000E+00 0.  1.
         11    1    3    3    0    0 -0.19656464012E+02 -0.10305858834E+02  0.98245012168E+01  0.24271549769E+02  0.51100000000E-03 0. -1.
        -11    1    3    3    0    0 -0.50398699951E+01  0.71817737804E-01 -0.82195379052E+01  0.96419007977E+01  0.51100000000E-03 0.  1.
         12    1    3    3    0    0 -0.14025830660E+02  0.21066103769E+00 -0.89052055919E+01  0.16615384149E+02  0.00000000000E+00 0. -1.
</event>
<event>
 7    1  0.4994895E-011  0.5052886E+02  0.7816164E-02  0.1300439E+00
        -11   -1    0    0    0    0  0.00000000000E+00  0.00000000000E+00  0.45593999997E+02  0.45594000000E+02  0.51100000000E-03 0.  1.
         11   -1    0    0    0    0 -0.00000000000E+00 -0.00000000000E+00 -0.45593999997E+02  0.45594000000E+02  0.51100000000E-03 0. -1.
    9900012    2    1    2    0    0 -0.13185806968E+02  0.35283427850E+02 -0.15309461783E+02  0.50528863188E+02  0.30000010145E+02 0.  0.
        -12    1    1    2    0    0  0.13185806968E+02 -0.35283427850E+02  0.15309461783E+02  0.40659136812E+02  0.00000000000E+00 0.  1.
         11    1    3    3    0    0  0.59260780348E+01  0.19313515744E+02 -0.22631250188E+01  0.20328601191E+02  0.51100000000E-03 0. -1.
        -11    1    3    3    0    0 -0.39710527461E+01 -0.83862298312E+00 -0.43889634195E+01  0.59779217608E+01  0.51100000000E-03 0.  1.
         12    1    3    3    0    0 -0.15140832256E+02  0.16808535089E+02 -0.86573733442E+01  0.24222340235E+02  0.00000000000E+00 0. -1.
</event>
<event>
 7    1  0.4994895E-011  0.5052890E+02  0.7816164E-02  0.1300439E+00
        -11   -1    0    0    0    0  0.00000000000E+00  0.00000000000E+00  0.45593999997E+02  0.45594000000E+02  0.51100000000E-03 0. -1.
         11   -1    0    0    0    0 -0.00000000000E+00 -0.00000000000E+00 -0.45593999997E+02  0.45594000000E+02  0.51100000000E-03 0.  1.
    9900012    2    1    2    0    0 -0.26597569979E+02 -0.17182681826E+02  0.25504650823E+02  0.50528898963E+02  0.30000118889E+02 0.  0.
        -12    1    1    2    0    0  0.26597569979E+02  0.17182681826E+02 -0.25504650823E+02  0.40659101037E+02  0.00000000000E+00 0.  1.
         11    1    3    3    0    0 -0.21132779770E+02 -0.23129447355E+02  0.18254959976E+02  0.36260298947E+02  0.51100000000E-03 0. -1.
        -11    1    3    3    0    0 -0.47872522128E+01  0.22707110017E+01 -0.83286103547E+00  0.53635408050E+01  0.51100000000E-03 0.  1.
         12    1    3    3    0    0 -0.67753799551E+00  0.36760545271E+01  0.80825518824E+01  0.89050592111E+01  0.00000000000E+00 0. -1.
</event>
<event>
 7    1  0.4994895E-011  0.5052887E+02  0.7816164E-02  0.1300439E+00
        -11   -1    0    0    0    0  0.00000000000E+00  0.00000000000E+00  0.45593999997E+02  0.45594000000E+02  0.51100000000E-03 0. -1.
         11   -1    0    0    0    0 -0.00000000000E+00 -0.00000000000E+00 -0.45593999997E+02  0.45594000000E+02  0.51100000000E-03 0.  1.
    9900012    2    1    2    0    0 -0.68162929648E+01 -0.15422004524E+02  0.36998167223E+02  0.50528874934E+02  0.30000045848E+02 0.  0.
        -12    1    1    2    0    0  0.68162929648E+01  0.15422004524E+02 -0.36998167223E+02  0.40659125066E+02  0.00000000000E+00 0.  1.
         11    1    3    3    0    0 -0.75561009477E+01 -0.38772969153E+01  0.19232428826E+01  0.87078674972E+01  0.51100000000E-03 0.  1.
        -11    1    3    3    0    0  0.10073204051E+02 -0.69593290943E+01  0.16695032287E+02  0.20703280045E+02  0.51100000000E-03 0. -1.
         12    1    3    3    0    0 -0.93333960685E+01 -0.45853785149E+01  0.18379892053E+02  0.21117727392E+02  0.00000000000E+00 0. -1.
</event>
<event>
 7    1  0.4994895E-011  0.5052887E+02  0.7816164E-02  0.1300439E+00
        -11   -1    0    0    0    0  0.00000000000E+00  0.00000000000E+00  0.45593999997E+02  0.45594000000E+02  0.51100000000E-03 0. -1.
         11   -1    0    0    0    0 -0.00000000000E+00 -0.00000000000E+00 -0.45593999997E+02  0.45594000000E+02  0.51100000000E-03 0.  1.
    9900012    2    1    2    0    0  0.39334509605E+02 -0.56143026037E+01  0.86279316287E+01  0.50528865186E+02  0.30000016221E+02 0.  0.
        -12    1    1    2    0    0 -0.39334509605E+02  0.56143026037E+01 -0.86279316287E+01  0.40659134814E+02  0.00000000000E+00 0.  1.
         11    1    3    3    0    0  0.18054405005E+01  0.25694662478E-01  0.12210405002E+02  0.12343187035E+02  0.51100000000E-03 0. -1.
        -11    1    3    3    0    0  0.17170109359E+02 -0.16191187303E+01 -0.22232353349E+01  0.17388990093E+02  0.51100000000E-03 0.  1.
         12    1    3    3    0    0  0.20358959746E+02 -0.40208785358E+01 -0.13592380381E+01  0.20796688058E+02  0.00000000000E+00 0. -1.
</event>
<event>
 7    1  0.4994895E-011  0.5052887E+02  0.7816164E-02  0.1300439E+00
        -11   -1    0    0    0    0  0.00000000000E+00  0.00000000000E+00  0.45593999997E+02  0.45594000000E+02  0.51100000000E-03 0. -1.
         11   -1    0    0    0    0 -0.00000000000E+00 -0.00000000000E+00 -0.45593999997E+02  0.45594000000E+02  0.51100000000E-03 0.  1.
    9900012    2    1    2    0    0 -0.25886361335E+02  0.14585071191E+02  0.27754936513E+02  0.50528874263E+02  0.30000043811E+02 0.  0.
        -12    1    1    2    0    0  0.25886361335E+02 -0.14585071191E+02 -0.27754936513E+02  0.40659125737E+02  0.00000000000E+00 0.  1.
         11    1    3    3    0    0 -0.84796058101E+01 -0.42666403186E+01  0.43934874738E+01  0.10459955389E+02  0.51100000000E-03 0.  1.
        -11    1    3    3    0    0 -0.19268893132E+02  0.12307342841E+02  0.97589428945E+01  0.24859563492E+02  0.51100000000E-03 0. -1.
         12    1    3    3    0    0  0.18621376065E+01  0.65443686689E+01  0.13602506144E+02  0.15209355382E+02  0.00000000000E+00 0. -1.
</event>
<event>
 7    1  0.4994895E-011  0.5052886E+02  0.7816164E-02  0.1300439E+00
        -11   -1    0    0    0    0  0.00000000000E+00  0.00000000000E+00  0.45593999997E+02  0.45594000000E+02  0.51100000000E-03 0. -1.
         11   -1    0    0    0    0 -0.00000000000E+00 -0.00000000000E+00 -0.45593999997E+02  0.45594000000E+02  0.51100000000E-03 0.  1.
    9900012    2    1    2    0    0  0.28677464548E+02 -0.23550478287E+02  0.16617564297E+02  0.50528862729E+02  0.30000008750E+02 0.  0.
        -12    1    1    2    0    0 -0.28677464548E+02  0.23550478287E+02 -0.16617564297E+02  0.40659137271E+02  0.00000000000E+00 0.  1.
         11    1    3    3    0    0  0.20713038107E+02 -0.27481282853E+01  0.41987038254E+01  0.21312232891E+02  0.51100000000E-03 0. -1.
        -11    1    3    3    0    0  0.70218997077E+01 -0.19804574035E+02  0.49037248940E+01  0.21577181149E+02  0.51100000000E-03 0.  1.
        -12    1    3    3    0    0  0.94252673343E+00 -0.99777596632E+00  0.75151355781E+01  0.76394486895E+01  0.00000000000E+00 0.  1.
</event>
<event>
 7    1  0.4994895E-011  0.5052886E+02  0.7816164E-02  0.1300439E+00
        -11   -1    0    0    0    0  0.00000000000E+00  0.00000000000E+00  0.45593999997E+02  0.45594000000E+02  0.51100000000E-03 0.  1.
         11   -1    0    0    0    0 -0.00000000000E+00 -0.00000000000E+00 -0.45593999997E+02  0.45594000000E+02  0.51100000000E-03 0. -1.
    9900012    2    1    2    0    0  0.23387854554E+02  0.26606676142E+02 -0.19956423766E+02  0.50528858279E+02  0.29999995226E+02 0.  0.
        -12    1    1    2    0    0 -0.23387854554E+02 -0.26606676142E+02  0.19956423766E+02  0.40659141721E+02  0.00000000000E+00 0.  1.
         11    1    3    3    0    0  0.94924298152E+01  0.12885000898E+02 -0.12011566139E+02  0.20010177243E+02  0.51100000000E-03 0. -1.
        -11    1    3    3    0    0 -0.34159717304E+01 -0.28587745223E+01  0.15780308940E+01  0.47256360837E+01  0.51100000000E-03 0.  1.
        -12    1    3    3    0    0  0.17311396469E+02  0.16580449766E+02 -0.95228885211E+01  0.25793044952E+02  0.00000000000E+00 0.  1.
</event>
<event>
 7    1  0.4994895E-011  0.5052887E+02  0.7816164E-02  0.1300439E+00
        -11   -1    0    0    0    0  0.00000000000E+00  0.00000000000E+00  0.45593999997E+02  0.45594000000E+02  0.51100000000E-03 0. -1.
         11   -1    0    0    0    0 -0.00000000000E+00 -0.00000000000E+00 -0.45593999997E+02  0.45594000000E+02  0.51100000000E-03 0.  1.
    9900012    2    1    2    0    0 -0.35874775695E+02  0.13553607384E+02  0.13507967060E+02  0.50528868450E+02  0.30000026140E+02 0.  0.
        -12    1    1    2    0    0  0.35874775695E+02 -0.13553607384E+02 -0.13507967060E+02  0.40659131550E+02  0.00000000000E+00 0.  1.
         11    1    3    3    0    0 -0.52244778701E+01  0.74901761228E+01  0.62291777507E+01  0.11054436353E+02  0.51100000000E-03 0.  1.
        -11    1    3    3    0    0 -0.29137918552E+02 -0.30090170602E+01  0.76293635220E+01  0.30270111814E+02  0.51100000000E-03 0. -1.
        -12    1    3    3    0    0 -0.15123792736E+01  0.90724483209E+01 -0.35057421251E+00  0.92043202835E+01  0.00000000000E+00 0.  1.
</event>
<event>
 7    1  0.4994895E-011  0.5052885E+02  0.7816164E-02  0.1300439E+00
        -11   -1    0    0    0    0  0.00000000000E+00  0.00000000000E+00  0.45593999997E+02  0.45594000000E+02  0.51100000000E-03 0.  1.
         11   -1    0    0    0    0 -0.00000000000E+00 -0.00000000000E+00 -0.45593999997E+02  0.45594000000E+02  0.51100000000E-03 0. -1.
    9900012    2    1    2    0    0 -0.54511727331E+01  0.89512218030E+01 -0.39285197519E+02  0.50528850967E+02  0.29999973001E+02 0.  0.
        -12    1    1    2    0    0  0.54511727331E+01 -0.89512218030E+01  0.39285197519E+02  0.40659149033E+02  0.00000000000E+00 0.  1.
         11    1    3    3    0    0 -0.74754003360E+01  0.14581676720E+02 -0.28900037628E+02  0.33222267853E+02  0.51100000000E-03 0. -1.
        -11    1    3    3    0    0  0.17667236946E+01 -0.76569652274E+01 -0.12241288460E+02  0.14546462543E+02  0.51100000000E-03 0.  1.
        -12    1    3    3    0    0  0.25750390833E+00  0.20265103100E+01  0.18561285689E+01  0.27601205705E+01  0.00000000000E+00 0.  1.
</event>
<event>
 7    1  0.4994895E-011  0.5052886E+02  0.7816164E-02  0.1300439E+00
        -11   -1    0    0    0    0  0.00000000000E+00  0.00000000000E+00  0.45593999997E+02  0.45594000000E+02  0.51100000000E-03 0. -1.
         11   -1    0    0    0    0 -0.00000000000E+00 -0.00000000000E+00 -0.45593999997E+02  0.45594000000E+02  0.51100000000E-03 0.  1.
    9900012    2    1    2    0    0 -0.34419002802E+02  0.14883901392E+02  0.15715203506E+02  0.50528857169E+02  0.29999991851E+02 0.  0.
        -12    1    1    2    0    0  0.34419002802E+02 -0.14883901392E+02 -0.15715203506E+02  0.40659142831E+02  0.00000000000E+00 0.  1.
         11    1    3    3    0    0 -0.27031809181E+02  0.18892706455E+02  0.14611507253E+02  0.36071445900E+02  0.51100000000E-03 0. -1.
        -11    1    3    3    0    0 -0.91868745201E+01 -0.55652877919E+01 -0.15957789182E+01  0.10858987166E+02  0.51100000000E-03 0.  1.
         12    1    3    3    0    0  0.17996808999E+01  0.15564827287E+01  0.26994751713E+01  0.35984241032E+01  0.00000000000E+00 0. -1.
</event>
<event>
 7    1  0.4994895E-011  0.5052894E+02  0.7816164E-02  0.1300439E+00
        -11   -1    0    0    0    0  0.00000000000E+00  0.00000000000E+00  0.45593999997E+02  0.45594000000E+02  0.51100000000E-03 0.  1.
         11   -1    0    0    0    0 -0.00000000000E+00 -0.00000000000E+00 -0.45593999997E+02  0.45594000000E+02  0.51100000000E-03 0. -1.
    9900012    2    1    2    0    0 -0.12643314780E+01  0.20720700193E+02 -0.34960164255E+02  0.50528941535E+02  0.30000248287E+02 0.  0.
        -12    1    1    2    0    0  0.12643314780E+01 -0.20720700193E+02  0.34960164255E+02  0.40659058465E+02  0.00000000000E+00 0.  1.
         11    1    3    3    0    0 -0.73053903125E+01  0.52632367496E+01 -0.16489670744E+02  0.18787752133E+02  0.51100000000E-03 0. -1.
        -11    1    3    3    0    0  0.12175324913E+02  0.98563089091E+01 -0.60363273288E+01  0.16787573081E+02  0.51100000000E-03 0.  1.
        -12    1    3    3    0    0 -0.61342660786E+01  0.56011545346E+01 -0.12434166182E+02  0.14953616321E+02  0.00000000000E+00 0.  1.
</event>
<event>
 7    1  0.4994895E-011  0.5052885E+02  0.7816164E-02  0.1300439E+00
        -11   -1    0    0    0    0  0.00000000000E+00  0.00000000000E+00  0.45593999997E+02  0.45594000000E+02  0.51100000000E-03 0.  1.
         11   -1    0    0    0    0 -0.00000000000E+00 -0.00000000000E+00 -0.45593999997E+02  0.45594000000E+02  0.51100000000E-03 0. -1.
    9900012    2    1    2    0    0  0.16328532881E+02 -0.32407086173E+02 -0.18339200075E+02  0.50528849988E+02  0.29999970024E+02 0.  0.
        -12    1    1    2    0    0 -0.16328532881E+02  0.32407086173E+02  0.18339200075E+02  0.40659150012E+02  0.00000000000E+00 0.  1.
         11    1    3    3    0    0 -0.16442409217E+01 -0.16216210311E+02  0.15574338943E+01  0.16373594769E+02  0.51100000000E-03 0. -1.
        -11    1    3    3    0    0  0.92462966716E+01 -0.37106941722E+01 -0.11901642867E+01  0.10033929672E+02  0.51100000000E-03 0.  1.
         12    1    3    3    0    0  0.87264771313E+01 -0.12480181690E+02 -0.18706469683E+02  0.24121325547E+02  0.00000000000E+00 0. -1.
</event>
<event>
 7    1  0.4994895E-011  0.5052883E+02  0.7816164E-02  0.1300439E+00
        -11   -1    0    0    0    0  0.00000000000E+00  0.00000000000E+00  0.45593999997E+02  0.45594000000E+02  0.51100000000E-03 0. -1.
         11   -1    0    0    0    0 -0.00000000000E+00 -0.00000000000E+00 -0.45593999997E+02  0.45594000000E+02  0.51100000000E-03 0.  1.
    9900012    2    1    2    0    0 -0.38531980224E+02 -0.12626645085E+02  0.30038042775E+01  0.50528825067E+02  0.29999894273E+02 0.  0.
        -12    1    1    2    0    0  0.38531980224E+02  0.12626645085E+02 -0.30038042775E+01  0.40659174933E+02  0.00000000000E+00 0.  1.
         11    1    3    3    0    0 -0.40745284245E+02 -0.11595448961E+02  0.44176389591E+01  0.42592818163E+02  0.51100000000E-03 0. -1.
        -11    1    3    3    0    0  0.21691495867E+01 -0.67803644746E+00  0.28568302016E+01  0.36505372777E+01  0.51100000000E-03 0.  1.
         12    1    3    3    0    0  0.44154434504E-01 -0.35315967623E+00 -0.42706648832E+01  0.42854696260E+01  0.00000000000E+00 0. -1.
</event>
<event>
 7    1  0.4994895E-011  0.5052886E+02  0.7816164E-02  0.1300439E+00
        -11   -1    0    0    0    0  0.00000000000E+00  0.00000000000E+00  0.45593999997E+02  0.45594000000E+02  0.51100000000E-03 0.  1.
         11   -1    0    0    0    0 -0.00000000000E+00 -0.00000000000E+00 -0.45593999997E+02  0.45594000000E+02  0.51100000000E-03 0. -1.
    9900012    2    1    2    0    0  0.28065537875E+02 -0.21969926392E+02 -0.19565626456E+02  0.50528858094E+02  0.29999994662E+02 0.  0.
        -12    1    1    2    0    0 -0.28065537875E+02  0.21969926392E+02  0.19565626456E+02  0.40659141906E+02  0.00000000000E+00 0.  1.
         11    1    3    3    0    0  0.13579812485E+02 -0.20451507112E+02 -0.22652832645E+02  0.33403985951E+02  0.51100000000E-03 0. -1.
        -11    1    3    3    0    0 -0.50478140804E+00  0.37795043876E+00 -0.12539995766E+01  0.14036260197E+01  0.51100000000E-03 0.  1.
         12    1    3    3    0    0  0.14990506798E+02 -0.18963697194E+01  0.43412057655E+01  0.15721246124E+02  0.00000000000E+00 0. -1.
</event>
<event>
 7    1  0.4994895E-011  0.5052887E+02  0.7816164E-02  0.1300439E+00
        -11   -1    0    0    0    0  0.00000000000E+00  0.00000000000E+00  0.45593999997E+02  0.45594000000E+02  0.51100000000E-03 0. -1.
         11   -1    0    0    0    0 -0.00000000000E+00 -0.00000000000E+00 -0.45593999997E+02  0.45594000000E+02  0.51100000000E-03 0.  1.
    9900012    2    1    2    0    0  0.23476730950E+02 -0.13581062137E+02  0.30291297873E+02  0.50528869762E+02  0.30000030129E+02 0.  0.
        -12    1    1    2    0    0 -0.23476730950E+02  0.13581062137E+02 -0.30291297873E+02  0.40659130238E+02  0.00000000000E+00 0.  1.
         11    1    3    3    0    0  0.90740479253E+01 -0.85039949700E+01  0.28879127301E+02  0.31442968532E+02  0.51100000000E-03 0. -1.
        -11    1    3    3    0    0  0.11567414094E+02  0.14133371329E+01  0.25044318299E+01  0.11919512143E+02  0.51100000000E-03 0.  1.
         12    1    3    3    0    0  0.28352689305E+01 -0.64904043002E+01 -0.10922612578E+01  0.71663890869E+01  0.00000000000E+00 0. -1.
</event>
<event>
 7    1  0.4994895E-011  0.5052884E+02  0.7816164E-02  0.1300439E+00
        -11   -1    0    0    0    0  0.00000000000E+00  0.00000000000E+00  0.45593999997E+02  0.45594000000E+02  0.51100000000E-03 0.  1.
         11   -1    0    0    0    0 -0.00000000000E+00 -0.00000000000E+00 -0.45593999997E+02  0.45594000000E+02  0.51100000000E-03 0. -1.
    9900012    2    1    2    0    0 -0.93458623624E+01 -0.47229333344E+01 -0.39287608874E+02  0.50528838011E+02  0.29999933619E+02 0.  0.
        -12    1    1    2    0    0  0.93458623624E+01  0.47229333344E+01  0.39287608874E+02  0.40659161989E+02  0.00000000000E+00 0.  1.
         11    1    3    3    0    0 -0.15959818074E+01  0.85889007536E+01 -0.18261209054E+02  0.20243224310E+02  0.51100000000E-03 0. -1.
        -11    1    3    3    0    0 -0.50979853914E+01 -0.14756796308E+02 -0.92912537126E+01  0.18168100840E+02  0.51100000000E-03 0.  1.
        -12    1    3    3    0    0 -0.26518951635E+01  0.14449622202E+01 -0.11735146107E+02  0.12117512861E+02  0.00000000000E+00 0.  1.
</event>
<event>
 7    1  0.4994895E-011  0.5052887E+02  0.7816164E-02  0.1300439E+00
        -11   -1    0    0    0    0  0.00000000000E+00  0.00000000000E+00  0.45593999997E+02  0.45594000000E+02  0.51100000000E-03 0.  1.
         11   -1    0    0    0    0 -0.00000000000E+00 -0.00000000000E+00 -0.45593999997E+02  0.45594000000E+02  0.51100000000E-03 0. -1.
    9900012    2    1    2    0    0  0.14231301284E+02 -0.36733999326E+02  0.10062203360E+02  0.50528873360E+02  0.30000041065E+02 0.  0.
        -12    1    1    2    0    0 -0.14231301284E+02  0.36733999326E+02 -0.10062203360E+02  0.40659126640E+02  0.00000000000E+00 0.  1.
         11    1    3    3    0    0  0.83795890636E+01 -0.91545924240E+01 -0.86801130478E+01  0.15144914596E+02  0.51100000000E-03 0. -1.
        -11    1    3    3    0    0  0.86647322579E+01 -0.19809096744E+02  0.14982644855E+02  0.26305085935E+02  0.51100000000E-03 0.  1.
         12    1    3    3    0    0 -0.28130200375E+01 -0.77703101573E+01  0.37596715528E+01  0.90788728296E+01  0.00000000000E+00 0. -1.
</event>
<event>
 7    1  0.4994895E-011  0.5052886E+02  0.7816164E-02  0.1300439E+00
        -11   -1    0    0    0    0  0.00000000000E+00  0.00000000000E+00  0.45593999997E+02  0.45594000000E+02  0.51100000000E-03 0.  1.
         11   -1    0    0    0    0 -0.00000000000E+00 -0.00000000000E+00 -0.45593999997E+02  0.45594000000E+02  0.51100000000E-03 0. -1.
    9900012    2    1    2    0    0  0.12027912365E+02 -0.32450471389E+02 -0.21341551392E+02  0.50528860990E+02  0.30000003466E+02 0.  0.
        -12    1    1    2    0    0 -0.12027912365E+02  0.32450471389E+02  0.21341551392E+02  0.40659139010E+02  0.00000000000E+00 0.  1.
         11    1    3    3    0    0  0.12762345749E+02 -0.49070817756E+01 -0.10874636956E+02  0.17470393521E+02  0.51100000000E-03 0. -1.
        -11    1    3    3    0    0  0.81162336293E+00 -0.15339260063E+02  0.20636049373E+01  0.15498712764E+02  0.51100000000E-03 0.  1.
        -12    1    3    3    0    0 -0.15460567472E+01 -0.12204129550E+02 -0.12530519373E+02  0.17559754705E+02  0.00000000000E+00 0.  1.
</event>
<event>
 7    1  0.4994895E-011  0.5052886E+02  0.7816164E-02  0.1300439E+00
        -11   -1    0    0    0    0  0.00000000000E+00  0.00000000000E+00  0.45593999997E+02  0.45594000000E+02  0.51100000000E-03 0.  1.
         11   -1    0    0    0    0 -0.00000000000E+00 -0.00000000000E+00 -0.45593999997E+02  0.45594000000E+02  0.51100000000E-03 0. -1.
    9900012    2    1    2    0    0  0.23694560683E+02  0.25030980855E+02 -0.21568104263E+02  0.50528864126E+02  0.30000012997E+02 0.  0.
        -12    1    1    2    0    0 -0.23694560683E+02 -0.25030980855E+02  0.21568104263E+02  0.40659135874E+02  0.00000000000E+00 0.  1.
         11    1    3    3    0    0  0.22162231362E+01  0.56926535819E+01  0.28099016558E+01  0.67240982570E+01  0.51100000000E-03 0.  1.
        -11    1    3    3    0    0  0.24923866421E+02  0.19230251779E+02 -0.17272966431E+02  0.35907618557E+02  0.51100000000E-03 0. -1.
        -12    1    3    3    0    0 -0.34455288745E+01  0.10807549436E+00 -0.71050394883E+01  0.78971473120E+01  0.00000000000E+00 0.  1.
</event>
<event>
 7    1  0.4994895E-011  0.5052882E+02  0.7816164E-02  0.1300439E+00
        -11   -1    0    0    0    0  0.00000000000E+00  0.00000000000E+00  0.45593999997E+02  0.45594000000E+02  0.51100000000E-03 0.  1.
         11   -1    0    0    0    0 -0.00000000000E+00 -0.00000000000E+00 -0.45593999997E+02  0.45594000000E+02  0.51100000000E-03 0. -1.
    9900012    2    1    2    0    0  0.26791042970E+02  0.70273727737E+01 -0.29766166945E+02  0.50528823347E+02  0.29999889045E+02 0.  0.
        -12    1    1    2    0    0 -0.26791042970E+02 -0.70273727737E+01  0.29766166945E+02  0.40659176653E+02  0.00000000000E+00 0.  1.
         11    1    3    3    0    0 -0.59710294764E+00  0.26917163894E+01 -0.17301292790E+02  0.17519606203E+02  0.51100000000E-03 0. -1.
        -11    1    3    3    0    0  0.24698505995E+01  0.31303868441E+01  0.16844459192E+01  0.43286074081E+01  0.51100000000E-03 0.  1.
         12    1    3    3    0    0  0.24918295319E+02  0.12052695401E+01 -0.14149320074E+02  0.28680609735E+02  0.00000000000E+00 0. -1.
</event>
<event>
 7    1  0.4994895E-011  0.5052886E+02  0.7816164E-02  0.1300439E+00
        -11   -1    0    0    0    0  0.00000000000E+00  0.00000000000E+00  0.45593999997E+02  0.45594000000E+02  0.51100000000E-03 0. -1.
         11   -1    0    0    0    0 -0.00000000000E+00 -0.00000000000E+00 -0.45593999997E+02  0.45594000000E+02  0.51100000000E-03 0.  1.
    9900012    2    1    2    0    0 -0.14554645287E+02  0.51601205967E+01  0.37612507996E+02  0.50528864474E+02  0.30000014054E+02 0.  0.
        -12    1    1    2    0    0  0.14554645287E+02 -0.51601205967E+01 -0.37612507996E+02  0.40659135526E+02  0.00000000000E+00 0.  1.
         11    1    3    3    0    0 -0.10255811316E+02  0.10926500945E+02  0.34950282955E+02  0.38027521186E+02  0.51100000000E-03 0. -1.
        -11    1    3    3    0    0 -0.18201609141E+00 -0.68795217736E+01  0.40881495739E+01  0.80046184725E+01  0.51100000000E-03 0.  1.
        -12    1    3    3    0    0 -0.41168178801E+01  0.11131414253E+01 -0.14259245328E+01  0.44967248152E+01  0.00000000000E+00 0.  1.
</event>
<event>
 7    1  0.4994895E-011  0.5052882E+02  0.7816164E-02  0.1300439E+00
        -11   -1    0    0    0    0  0.00000000000E+00  0.00000000000E+00  0.45593999997E+02  0.45594000000E+02  0.51100000000E-03 0. -1.
         11   -1    0    0    0    0 -0.00000000000E+00 -0.00000000000E+00 -0.45593999997E+02  0.45594000000E+02  0.51100000000E-03 0.  1.
    9900012    2    1    2    0    0  0.12897187604E+02  0.38531427321E+02  0.14698415408E+01  0.50528821779E+02  0.29999884280E+02 0.  0.
        -12    1    1    2    0    0 -0.12897187604E+02 -0.38531427321E+02 -0.14698415408E+01  0.40659178221E+02  0.00000000000E+00 0.  1.
         11    1    3    3    0    0 -0.23843807631E-01  0.27309546992E+02  0.97322767007E+01  0.28991880509E+02  0.51100000000E-03 0. -1.
        -11    1    3    3    0    0  0.31041306265E+01 -0.12891311991E+01  0.47082173810E+00  0.33939887397E+01  0.51100000000E-03 0.  1.
         12    1    3    3    0    0  0.98169007847E+01  0.12511011528E+02 -0.87332568979E+01  0.18142952530E+02  0.00000000000E+00 0. -1.
</event>
<event>
 7    1  0.4994895E-011  0.5052886E+02  0.7816164E-02  0.1300439E+00
        -11   -1    0    0    0    0  0.00000000000E+00  0.00000000000E+00  0.45593999997E+02  0.45594000000E+02  0.51100000000E-03 0.  1.
         11   -1    0    0    0    0 -0.00000000000E+00 -0.00000000000E+00 -0.45593999997E+02  0.45594000000E+02  0.51100000000E-03 0. -1.
    9900012    2    1    2    0    0 -0.19755344691E+02  0.35280031789E+02 -0.42674573180E+01  0.50528862296E+02  0.30000007436E+02 0.  0.
        -12    1    1    2    0    0  0.19755344691E+02 -0.35280031789E+02  0.42674573180E+01  0.40659137704E+02  0.00000000000E+00 0.  1.
         11    1    3    3    0    0  0.53770276184E+01  0.11008083711E+02  0.65832887569E+01  0.13907912285E+02  0.51100000000E-03 0.  1.
        -11    1    3    3    0    0 -0.19184453547E+02  0.18729155197E+02 -0.76239473250E+01  0.27873806439E+02  0.51100000000E-03 0. -1.
        -12    1    3    3    0    0 -0.59479187619E+01  0.55427928804E+01 -0.32267987499E+01  0.87471435730E+01  0.00000000000E+00 0.  1.
</event>
<event>
 7    1  0.4994895E-011  0.5052886E+02  0.7816164E-02  0.1300439E+00
        -11   -1    0    0    0    0  0.00000000000E+00  0.00000000000E+00  0.45593999997E+02  0.45594000000E+02  0.51100000000E-03 0. -1.
         11   -1    0    0    0    0 -0.00000000000E+00 -0.00000000000E+00 -0.45593999997E+02  0.45594000000E+02  0.51100000000E-03 0.  1.
    9900012    2    1    2    0    0  0.13217075728E+02 -0.23870538009E+02  0.30144183671E+02  0.50528862222E+02  0.30000007210E+02 0.  0.
        -12    1    1    2    0    0 -0.13217075728E+02  0.23870538009E+02 -0.30144183671E+02  0.40659137778E+02  0.00000000000E+00 0.  1.
         11    1    3    3    0    0 -0.89481601283E+01 -0.57906411675E+01  0.10206132059E+02  0.14756904373E+02  0.51100000000E-03 0. -1.
        -11    1    3    3    0    0  0.93898956497E+01 -0.56603281515E+01  0.12035652408E+02  0.16280859445E+02  0.51100000000E-03 0.  1.
         12    1    3    3    0    0  0.12775340206E+02 -0.12419568690E+02  0.79023992043E+01  0.19491098405E+02  0.00000000000E+00 0. -1.
</event>
<event>
 7    1  0.4994895E-011  0.5052886E+02  0.7816164E-02  0.1300439E+00
        -11   -1    0    0    0    0  0.00000000000E+00  0.00000000000E+00  0.45593999997E+02  0.45594000000E+02  0.51100000000E-03 0.  1.
         11   -1    0    0    0    0 -0.00000000000E+00 -0.00000000000E+00 -0.45593999997E+02  0.45594000000E+02  0.51100000000E-03 0. -1.
    9900012    2    1    2    0    0 -0.27971801816E+02  0.22503654994E+02 -0.19087408024E+02  0.50528864126E+02  0.30000012998E+02 0.  0.
        -12    1    1    2    0    0  0.27971801816E+02 -0.22503654994E+02  0.19087408024E+02  0.40659135874E+02  0.00000000000E+00 0.  1.
         11    1    3    3    0    0 -0.40917562525E+01 -0.33481767285E+01 -0.82369771804E+01  0.97877755372E+01  0.51100000000E-03 0. -1.
        -11    1    3    3    0    0 -0.15882540745E+02  0.82430763604E+01  0.12331614530E+01  0.17936669028E+02  0.51100000000E-03 0.  1.
         12    1    3    3    0    0 -0.79975048191E+01  0.17608755362E+02 -0.12083592296E+02  0.22804419561E+02  0.00000000000E+00 0. -1.
</event>
<event>
 7    1  0.4994895E-011  0.5052886E+02  0.7816164E-02  0.1300439E+00
        -11   -1    0    0    0    0  0.00000000000E+00  0.00000000000E+00  0.45593999997E+02  0.45594000000E+02  0.51100000000E-03 0.  1.
         11   -1    0    0    0    0 -0.00000000000E+00 -0.00000000000E+00 -0.45593999997E+02  0.45594000000E+02  0.51100000000E-03 0. -1.
    9900012    2    1    2    0    0  0.15508435109E+02  0.26054304726E+02 -0.27089253789E+02  0.50528855578E+02  0.29999987014E+02 0.  0.
        -12    1    1    2    0    0 -0.15508435109E+02 -0.26054304726E+02  0.27089253789E+02  0.40659144422E+02  0.00000000000E+00 0.  1.
         11    1    3    3    0    0  0.16509238328E+02  0.61907175806E+01 -0.20525884900E+02  0.27059044431E+02  0.51100000000E-03 0. -1.
        -11    1    3    3    0    0  0.47991588246E+00  0.10903429191E+02  0.18738704536E+01  0.11073684035E+02  0.51100000000E-03 0.  1.
         12    1    3    3    0    0 -0.14807191014E+01  0.89601579551E+01 -0.84372393424E+01  0.12396127111E+02  0.00000000000E+00 0. -1.
</event>
<event>
 7    1  0.4994895E-011  0.5052888E+02  0.7816164E-02  0.1300439E+00
        -11   -1    0    0    0    0  0.00000000000E+00  0.00000000000E+00  0.45593999997E+02  0.45594000000E+02  0.51100000000E-03 0. -1.
         11   -1    0    0    0    0 -0.00000000000E+00 -0.00000000000E+00 -0.45593999997E+02  0.45594000000E+02  0.51100000000E-03 0.  1.
    9900012    2    1    2    0    0  0.25607657444E+02  0.28279821588E+02 -0.14059301531E+02  0.50528875706E+02  0.30000048194E+02 0.  0.
        -12    1    1    2    0    0 -0.25607657444E+02 -0.28279821588E+02  0.14059301531E+02  0.40659124294E+02  0.00000000000E+00 0.  1.
         11    1    3    3    0    0  0.13626383791E+02  0.26976549499E+02 -0.19068056652E+02  0.35735183543E+02  0.51100000000E-03 0. -1.
        -11    1    3    3    0    0  0.40787683805E+00 -0.14290515625E+01 -0.65280848599E+00  0.16231793074E+01  0.51100000000E-03 0.  1.
         12    1    3    3    0    0  0.11573396815E+02  0.27323236515E+01  0.56615636071E+01  0.13170512855E+02  0.00000000000E+00 0. -1.
</event>
<event>
 7    1  0.4994895E-011  0.5052885E+02  0.7816164E-02  0.1300439E+00
        -11   -1    0    0    0    0  0.00000000000E+00  0.00000000000E+00  0.45593999997E+02  0.45594000000E+02  0.51100000000E-03 0.  1.
         11   -1    0    0    0    0 -0.00000000000E+00 -0.00000000000E+00 -0.45593999997E+02  0.45594000000E+02  0.51100000000E-03 0. -1.
    9900012    2    1    2    0    0  0.30393019950E+02 -0.15831153228E+02 -0.21881622111E+02  0.50528850225E+02  0.29999970744E+02 0.  0.
        -12    1    1    2    0    0 -0.30393019950E+02  0.15831153228E+02  0.21881622111E+02  0.40659149775E+02  0.00000000000E+00 0.  1.
         11    1    3    3    0    0  0.38253907810E+00  0.23037427633E+01 -0.12231222213E+02  0.12452163023E+02  0.51100000000E-03 0. -1.
        -11    1    3    3    0    0  0.12679855578E+02 -0.22843839526E+01 -0.57035771506E+00  0.12896606364E+02  0.51100000000E-03 0.  1.
         12    1    3    3    0    0  0.17330625294E+02 -0.15850512039E+02 -0.90800421825E+01  0.25180080838E+02  0.00000000000E+00 0. -1.
</event>
<event>
 7    1  0.4994895E-011  0.5052875E+02  0.7816164E-02  0.1300439E+00
        -11   -1    0    0    0    0  0.00000000000E+00  0.00000000000E+00  0.45593999997E+02  0.45594000000E+02  0.51100000000E-03 0.  1.
         11   -1    0    0    0    0 -0.00000000000E+00 -0.00000000000E+00 -0.45593999997E+02  0.45594000000E+02  0.51100000000E-03 0. -1.
    9900012    2    1    2    0    0 -0.48273308149E+01 -0.34878415129E+02 -0.20331449913E+02  0.50528747421E+02  0.29999658260E+02 0.  0.
        -12    1    1    2    0    0  0.48273308149E+01  0.34878415129E+02  0.20331449913E+02  0.40659252579E+02  0.00000000000E+00 0.  1.
         11    1    3    3    0    0  0.39748318710E+01 -0.18395992619E+01 -0.14304646782E+02  0.14960158210E+02  0.51100000000E-03 0.  1.
        -11    1    3    3    0    0 -0.86618246128E+01 -0.18839210239E+02 -0.21353230513E+01  0.20844727219E+02  0.51100000000E-03 0. -1.
        -12    1    3    3    0    0 -0.14033807311E+00 -0.14199605628E+02 -0.38914800802E+01  0.14723861992E+02  0.00000000000E+00 0.  1.
</event>
<event>
 7    1  0.4994895E-011  0.5052881E+02  0.7816164E-02  0.1300439E+00
        -11   -1    0    0    0    0  0.00000000000E+00  0.00000000000E+00  0.45593999997E+02  0.45594000000E+02  0.51100000000E-03 0.  1.
         11   -1    0    0    0    0 -0.00000000000E+00 -0.00000000000E+00 -0.45593999997E+02  0.45594000000E+02  0.51100000000E-03 0. -1.
    9900012    2    1    2    0    0  0.87216492418E+01 -0.39710713366E+02  0.40270960399E+00  0.50528805510E+02  0.29999834827E+02 0.  0.
        -12    1    1    2    0    0 -0.87216492418E+01  0.39710713366E+02 -0.40270960399E+00  0.40659194490E+02  0.00000000000E+00 0.  1.
         11    1    3    3    0    0 -0.26230545852E+01 -0.36077666673E+01 -0.67478441480E+01  0.80888686842E+01  0.51100000000E-03 0.  1.
        -11    1    3    3    0    0  0.16092802877E+02 -0.30434207533E+02  0.55024358692E+01  0.34863965543E+02  0.51100000000E-03 0. -1.
         12    1    3    3    0    0 -0.47480990500E+01 -0.56687391662E+01  0.16481178828E+01  0.75759712829E+01  0.00000000000E+00 0. -1.
</event>
<event>
 7    1  0.4994895E-011  0.5052886E+02  0.7816164E-02  0.1300439E+00
        -11   -1    0    0    0    0  0.00000000000E+00  0.00000000000E+00  0.45593999997E+02  0.45594000000E+02  0.51100000000E-03 0.  1.
         11   -1    0    0    0    0 -0.00000000000E+00 -0.00000000000E+00 -0.45593999997E+02  0.45594000000E+02  0.51100000000E-03 0. -1.
    9900012    2    1    2    0    0 -0.22913020735E+02 -0.89973207926E+01 -0.32360580900E+02  0.50528862075E+02  0.30000006762E+02 0.  0.
        -12    1    1    2    0    0  0.22913020735E+02  0.89973207926E+01  0.32360580900E+02  0.40659137925E+02  0.00000000000E+00 0.  1.
         11    1    3    3    0    0 -0.15870529044E+02 -0.17436792885E+02 -0.17435987584E+02  0.29324547764E+02  0.51100000000E-03 0. -1.
        -11    1    3    3    0    0 -0.25480288955E+01  0.71133520105E+01 -0.25539812728E+01  0.79759042547E+01  0.51100000000E-03 0.  1.
         12    1    3    3    0    0 -0.44944627955E+01  0.13261200816E+01 -0.12370612043E+02  0.13228410056E+02  0.00000000000E+00 0. -1.
</event>
<event>
 7    1  0.4994895E-011  0.5052884E+02  0.7816164E-02  0.1300439E+00
        -11   -1    0    0    0    0  0.00000000000E+00  0.00000000000E+00  0.45593999997E+02  0.45594000000E+02  0.51100000000E-03 0. -1.
         11   -1    0    0    0    0 -0.00000000000E+00 -0.00000000000E+00 -0.45593999997E+02  0.45594000000E+02  0.51100000000E-03 0.  1.
    9900012    2    1    2    0    0 -0.11400616011E+02 -0.12044378573E+02  0.37123123067E+02  0.50528839078E+02  0.29999936861E+02 0.  0.
        -12    1    1    2    0    0  0.11400616011E+02  0.12044378573E+02 -0.37123123067E+02  0.40659160922E+02  0.00000000000E+00 0.  1.
         11    1    3    3    0    0 -0.92076923088E+01 -0.25541784018E+01 -0.13129676268E+01  0.96451702531E+01  0.51100000000E-03 0. -1.
        -11    1    3    3    0    0  0.97754611723E+00  0.10161051497E+01  0.14305372677E+02  0.14374691433E+02  0.51100000000E-03 0.  1.
         12    1    3    3    0    0 -0.31704698193E+01 -0.10506305321E+02  0.24130718017E+02  0.26508977392E+02  0.00000000000E+00 0. -1.
</event>
<event>
 7    1  0.4994895E-011  0.5052887E+02  0.7816164E-02  0.1300439E+00
        -11   -1    0    0    0    0  0.00000000000E+00  0.00000000000E+00  0.45593999997E+02  0.45594000000E+02  0.51100000000E-03 0. -1.
         11   -1    0    0    0    0 -0.00000000000E+00 -0.00000000000E+00 -0.45593999997E+02  0.45594000000E+02  0.51100000000E-03 0.  1.
    9900012    2    1    2    0    0  0.10046983891E+02  0.32082648879E+02 -0.22867597397E+02  0.50528865047E+02  0.30000015798E+02 0.  0.
        -12    1    1    2    0    0 -0.10046983891E+02 -0.32082648879E+02  0.22867597397E+02  0.40659134953E+02  0.00000000000E+00 0.  1.
         11    1    3    3    0    0  0.68791560590E+01  0.28884425059E+02 -0.41654765312E+01  0.29983061786E+02  0.51100000000E-03 0. -1.
        -11    1    3    3    0    0 -0.14786312933E+01 -0.13347436249E+01 -0.50622360000E+01  0.54400482191E+01  0.51100000000E-03 0.  1.
         12    1    3    3    0    0  0.46464591254E+01  0.45329674453E+01 -0.13639884865E+02  0.15105755043E+02  0.00000000000E+00 0. -1.
</event>
<event>
 7    1  0.4994895E-011  0.5052886E+02  0.7816164E-02  0.1300439E+00
        -11   -1    0    0    0    0  0.00000000000E+00  0.00000000000E+00  0.45593999997E+02  0.45594000000E+02  0.51100000000E-03 0.  1.
         11   -1    0    0    0    0 -0.00000000000E+00 -0.00000000000E+00 -0.45593999997E+02  0.45594000000E+02  0.51100000000E-03 0. -1.
    9900012    2    1    2    0    0 -0.28900387899E+02 -0.28598594453E+02 -0.23192110929E+00  0.50528858189E+02  0.29999994953E+02 0.  0.
        -12    1    1    2    0    0  0.28900387899E+02  0.28598594453E+02  0.23192110929E+00  0.40659141811E+02  0.00000000000E+00 0.  1.
         11    1    3    3    0    0 -0.87343178092E+01 -0.87520730824E+00 -0.54232657777E+00  0.87947946993E+01  0.51100000000E-03 0. -1.
        -11    1    3    3    0    0 -0.66913818020E+01 -0.23200370498E+02 -0.77934341994E+01  0.25372611189E+02  0.51100000000E-03 0.  1.
        -12    1    3    3    0    0 -0.13474688288E+02 -0.45230166460E+01  0.81038396679E+01  0.16361452301E+02  0.00000000000E+00 0.  1.
</event>
<event>
 7    1  0.4994895E-011  0.5052884E+02  0.7816164E-02  0.1300439E+00
        -11   -1    0    0    0    0  0.00000000000E+00  0.00000000000E+00  0.45593999997E+02  0.45594000000E+02  0.51100000000E-03 0.  1.
         11   -1    0    0    0    0 -0.00000000000E+00 -0.00000000000E+00 -0.45593999997E+02  0.45594000000E+02  0.51100000000E-03 0. -1.
    9900012    2    1    2    0    0 -0.27816854605E+02 -0.29644896885E+02  0.75512334364E+00  0.50528837162E+02  0.29999931037E+02 0.  0.
        -12    1    1    2    0    0  0.27816854605E+02  0.29644896885E+02 -0.75512334364E+00  0.40659162838E+02  0.00000000000E+00 0.  1.
         11    1    3    3    0    0 -0.32427505876E+02 -0.18031396201E+02  0.12997281555E+00  0.37103790635E+02  0.51100000000E-03 0. -1.
        -11    1    3    3    0    0  0.32065202451E+01 -0.69672890191E+01 -0.19733009199E+01  0.79195205120E+01  0.51100000000E-03 0.  1.
         12    1    3    3    0    0  0.14041310260E+01 -0.46462116651E+01  0.25984514480E+01  0.55055260151E+01  0.00000000000E+00 0. -1.
</event>
<event>
 7    1  0.4994895E-011  0.5052886E+02  0.7816164E-02  0.1300439E+00
        -11   -1    0    0    0    0  0.00000000000E+00  0.00000000000E+00  0.45593999997E+02  0.45594000000E+02  0.51100000000E-03 0.  1.
         11   -1    0    0    0    0 -0.00000000000E+00 -0.00000000000E+00 -0.45593999997E+02  0.45594000000E+02  0.51100000000E-03 0. -1.
    9900012    2    1    2    0    0 -0.35543471091E+02  0.64392972796E+01  0.18664482554E+02  0.50528858400E+02  0.29999995592E+02 0.  0.
        -12    1    1    2    0    0  0.35543471091E+02 -0.64392972796E+01 -0.18664482554E+02  0.40659141600E+02  0.00000000000E+00 0.  1.
         11    1    3    3    0    0 -0.91104865858E+01  0.13548277084E+02  0.28293438987E+01  0.16569911434E+02  0.51100000000E-03 0. -1.
        -11    1    3    3    0    0 -0.22568213416E+02 -0.10081755100E+01  0.10142175526E+02  0.24762964267E+02  0.51100000000E-03 0.  1.
         12    1    3    3    0    0 -0.38647710897E+01 -0.61008042940E+01  0.56929631292E+01  0.91959826990E+01  0.00000000000E+00 0. -1.
</event>
<event>
 7    1  0.4994895E-011  0.5052886E+02  0.7816164E-02  0.1300439E+00
        -11   -1    0    0    0    0  0.00000000000E+00  0.00000000000E+00  0.45593999997E+02  0.45594000000E+02  0.51100000000E-03 0.  1.
         11   -1    0    0    0    0 -0.00000000000E+00 -0.00000000000E+00 -0.45593999997E+02  0.45594000000E+02  0.51100000000E-03 0. -1.
    9900012    2    1    2    0    0 -0.21304892936E+02 -0.32296971961E+02 -0.12496910843E+02  0.50528860296E+02  0.30000001357E+02 0.  0.
        -12    1    1    2    0    0  0.21304892936E+02  0.32296971961E+02  0.12496910843E+02  0.40659139704E+02  0.00000000000E+00 0.  1.
         11    1    3    3    0    0 -0.23159045624E+02 -0.10683639106E+02 -0.88232840417E+01  0.26987624577E+02  0.51100000000E-03 0. -1.
        -11    1    3    3    0    0 -0.28938629789E+01 -0.13515186039E+02 -0.28959627858E+01  0.14121660572E+02  0.51100000000E-03 0.  1.
         12    1    3    3    0    0  0.47480156674E+01 -0.80981468157E+01 -0.77766401514E+00  0.94195751468E+01  0.00000000000E+00 0. -1.
</event>
<event>
 7    1  0.5463781E-011  0.5052886E+02  0.7816164E-02  0.1300439E+00
        -11   -1    0    0    0    0  0.00000000000E+00  0.00000000000E+00  0.45593999997E+02  0.45594000000E+02  0.51100000000E-03 0.  1.
         11   -1    0    0    0    0 -0.00000000000E+00 -0.00000000000E+00 -0.45593999997E+02  0.45594000000E+02  0.51100000000E-03 0. -1.
    9900012    2    1    2    0    0 -0.22860347667E+02  0.31828848461E+02  0.10839491877E+02  0.50528859896E+02  0.30000000140E+02 0.  0.
        -12    1    1    2    0    0  0.22860347667E+02 -0.31828848461E+02 -0.10839491877E+02  0.40659140104E+02  0.00000000000E+00 0.  1.
         11    1    3    3    0    0 -0.52641988558E+01  0.20065972220E+02 -0.84394605708E+00  0.20762159713E+02  0.51100000000E-03 0. -1.
        -11    1    3    3    0    0 -0.20216740936E+02  0.13077890665E+02  0.87482577506E+01  0.25617959564E+02  0.51100000000E-03 0.  1.
        -12    1    3    3    0    0  0.26205921238E+01 -0.13150144236E+01  0.29351801834E+01  0.41487406189E+01  0.00000000000E+00 0.  1.
</event>
<event>
 7    1  0.4994895E-011  0.5052886E+02  0.7816164E-02  0.1300439E+00
        -11   -1    0    0    0    0  0.00000000000E+00  0.00000000000E+00  0.45593999997E+02  0.45594000000E+02  0.51100000000E-03 0. -1.
         11   -1    0    0    0    0 -0.00000000000E+00 -0.00000000000E+00 -0.45593999997E+02  0.45594000000E+02  0.51100000000E-03 0.  1.
    9900012    2    1    2    0    0 -0.54061316197E+01  0.29725901242E+02  0.27208645468E+02  0.50528857707E+02  0.29999993488E+02 0.  0.
        -12    1    1    2    0    0  0.54061316197E+01 -0.29725901242E+02 -0.27208645468E+02  0.40659142293E+02  0.00000000000E+00 0.  1.
         11    1    3    3    0    0 -0.60874048204E+01  0.10660225381E+02  0.59773880245E+01  0.13653793263E+02  0.51100000000E-03 0. -1.
        -11    1    3    3    0    0  0.79955057237E+01  0.16495524696E+02  0.22497020656E+02  0.29019758536E+02  0.51100000000E-03 0.  1.
        -12    1    3    3    0    0 -0.73142325230E+01  0.25701511648E+01 -0.12657632123E+01  0.78553059088E+01  0.00000000000E+00 0.  1.
</event>
<event>
 7    1  0.4994895E-011  0.5052884E+02  0.7816164E-02  0.1300439E+00
        -11   -1    0    0    0    0  0.00000000000E+00  0.00000000000E+00  0.45593999997E+02  0.45594000000E+02  0.51100000000E-03 0.  1.
         11   -1    0    0    0    0 -0.00000000000E+00 -0.00000000000E+00 -0.45593999997E+02  0.45594000000E+02  0.51100000000E-03 0. -1.
    9900012    2    1    2    0    0 -0.56848443435E+01 -0.52780597254E+01 -0.39912298238E+02  0.50528844570E+02  0.29999953555E+02 0.  0.
        -12    1    1    2    0    0  0.56848443435E+01  0.52780597254E+01  0.39912298238E+02  0.40659155430E+02  0.00000000000E+00 0.  1.
         11    1    3    3    0    0  0.23048582837E+01 -0.27537741241E+01 -0.27731387334E+02  0.27962930593E+02  0.51100000000E-03 0. -1.
        -11    1    3    3    0    0 -0.96947963143E+00  0.20757376638E+01  0.38446736587E+01  0.44754992356E+01  0.51100000000E-03 0.  1.
         12    1    3    3    0    0 -0.70202229958E+01 -0.46000232650E+01 -0.16025584563E+02  0.18090414742E+02  0.00000000000E+00 0. -1.
</event>
<event>
 7    1  0.4994895E-011  0.5052888E+02  0.7816164E-02  0.1300439E+00
        -11   -1    0    0    0    0  0.00000000000E+00  0.00000000000E+00  0.45593999997E+02  0.45594000000E+02  0.51100000000E-03 0.  1.
         11   -1    0    0    0    0 -0.00000000000E+00 -0.00000000000E+00 -0.45593999997E+02  0.45594000000E+02  0.51100000000E-03 0. -1.
    9900012    2    1    2    0    0  0.22877542833E+02  0.49697889842E+01 -0.33242794927E+02  0.50528878229E+02  0.30000055866E+02 0.  0.
        -12    1    1    2    0    0 -0.22877542833E+02 -0.49697889842E+01  0.33242794927E+02  0.40659121771E+02  0.00000000000E+00 0.  1.
         11    1    3    3    0    0  0.20481356665E+02  0.90913410756E+01 -0.22803587432E+02  0.31970956405E+02  0.51100000000E-03 0. -1.
        -11    1    3    3    0    0  0.34807344279E+01 -0.58732593351E+01  0.10305941440E+01  0.69045500886E+01  0.51100000000E-03 0.  1.
        -12    1    3    3    0    0 -0.10845482599E+01  0.17517072436E+01 -0.11469801638E+02  0.11653371736E+02  0.00000000000E+00 0.  1.
</event>
<event>
 7    1  0.4994895E-011  0.5052886E+02  0.7816164E-02  0.1300439E+00
        -11   -1    0    0    0    0  0.00000000000E+00  0.00000000000E+00  0.45593999997E+02  0.45594000000E+02  0.51100000000E-03 0.  1.
         11   -1    0    0    0    0 -0.00000000000E+00 -0.00000000000E+00 -0.45593999997E+02  0.45594000000E+02  0.51100000000E-03 0. -1.
    9900012    2    1    2    0    0  0.17473398840E+02 -0.19807967197E+02 -0.30911014359E+02  0.50528855393E+02  0.29999986451E+02 0.  0.
        -12    1    1    2    0    0 -0.17473398840E+02  0.19807967197E+02  0.30911014359E+02  0.40659144607E+02  0.00000000000E+00 0.  1.
         11    1    3    3    0    0  0.14754784475E+02 -0.14710681407E+02 -0.45534480496E+01  0.21327018117E+02  0.51100000000E-03 0. -1.
        -11    1    3    3    0    0 -0.11205794337E+01  0.11205126672E+01 -0.18123854636E+02  0.18193002887E+02  0.51100000000E-03 0.  1.
         12    1    3    3    0    0  0.38391937981E+01 -0.62177984569E+01 -0.82337116734E+01  0.11008834388E+02  0.00000000000E+00 0. -1.
</event>
<event>
 7    1  0.4994895E-011  0.5052886E+02  0.7816164E-02  0.1300439E+00
        -11   -1    0    0    0    0  0.00000000000E+00  0.00000000000E+00  0.45593999997E+02  0.45594000000E+02  0.51100000000E-03 0.  1.
         11   -1    0    0    0    0 -0.00000000000E+00 -0.00000000000E+00 -0.45593999997E+02  0.45594000000E+02  0.51100000000E-03 0. -1.
    9900012    2    1    2    0    0  0.69145825963E+01  0.77520345144E+01 -0.39309795327E+02  0.50528862033E+02  0.30000006635E+02 0.  0.
        -12    1    1    2    0    0 -0.69145825963E+01 -0.77520345144E+01  0.39309795327E+02  0.40659137967E+02  0.00000000000E+00 0.  1.
         11    1    3    3    0    0  0.15499458199E+01 -0.22520426406E+01 -0.13077876727E+02  0.13360572145E+02  0.51100000000E-03 0. -1.
        -11    1    3    3    0    0  0.14305835113E+02  0.90758512113E+01 -0.13937850221E+02  0.21938360525E+02  0.51100000000E-03 0.  1.
        -12    1    3    3    0    0 -0.89411983362E+01  0.92822594368E+00 -0.12294068380E+02  0.15229929363E+02  0.00000000000E+00 0.  1.
</event>
<event>
 7    1  0.4994895E-011  0.5052887E+02  0.7816164E-02  0.1300439E+00
        -11   -1    0    0    0    0  0.00000000000E+00  0.00000000000E+00  0.45593999997E+02  0.45594000000E+02  0.51100000000E-03 0. -1.
         11   -1    0    0    0    0 -0.00000000000E+00 -0.00000000000E+00 -0.45593999997E+02  0.45594000000E+02  0.51100000000E-03 0.  1.
    9900012    2    1    2    0    0  0.20918143016E+02  0.33050001768E+02  0.11103772265E+02  0.50528867168E+02  0.30000022243E+02 0.  0.
        -12    1    1    2    0    0 -0.20918143016E+02 -0.33050001768E+02 -0.11103772265E+02  0.40659132832E+02  0.00000000000E+00 0.  1.
         11    1    3    3    0    0  0.76091208613E+01  0.28711470883E+00  0.44608821478E+01  0.88249999963E+01  0.51100000000E-03 0. -1.
        -11    1    3    3    0    0 -0.30139837279E+01  0.16508086880E+02  0.80762315760E+01  0.18623279708E+02  0.51100000000E-03 0.  1.
        -12    1    3    3    0    0  0.16323005883E+02  0.16254800180E+02 -0.14333414584E+01  0.23080587464E+02  0.00000000000E+00 0.  1.
</event>
<event>
 7    1  0.4994895E-011  0.5052887E+02  0.7816164E-02  0.1300439E+00
        -11   -1    0    0    0    0  0.00000000000E+00  0.00000000000E+00  0.45593999997E+02  0.45594000000E+02  0.51100000000E-03 0.  1.
         11   -1    0    0    0    0 -0.00000000000E+00 -0.00000000000E+00 -0.45593999997E+02  0.45594000000E+02  0.51100000000E-03 0. -1.
    9900012    2    1    2    0    0  0.37871468253E+02  0.11294915492E+02 -0.95573003332E+01  0.50528865562E+02  0.30000017363E+02 0.  0.
        -12    1    1    2    0    0 -0.37871468253E+02 -0.11294915492E+02  0.95573003332E+01  0.40659134438E+02  0.00000000000E+00 0.  1.
         11    1    3    3    0    0  0.43877973896E+01 -0.38425256992E+01  0.61533156246E+01  0.84782700546E+01  0.51100000000E-03 0.  1.
        -11    1    3    3    0    0  0.30390471234E+02  0.15935406175E+02 -0.17359054483E+02  0.38455879715E+02  0.51100000000E-03 0. -1.
         12    1    3    3    0    0  0.30931996289E+01 -0.79796498404E+00  0.16484385255E+01  0.35947157930E+01  0.00000000000E+00 0. -1.
</event>
<event>
 7    1  0.4994895E-011  0.5052886E+02  0.7816164E-02  0.1300439E+00
        -11   -1    0    0    0    0  0.00000000000E+00  0.00000000000E+00  0.45593999997E+02  0.45594000000E+02  0.51100000000E-03 0.  1.
         11   -1    0    0    0    0 -0.00000000000E+00 -0.00000000000E+00 -0.45593999997E+02  0.45594000000E+02  0.51100000000E-03 0. -1.
    9900012    2    1    2    0    0  0.20040136408E+02  0.77211585823E+01 -0.34524518175E+02  0.50528859425E+02  0.29999998708E+02 0.  0.
        -12    1    1    2    0    0 -0.20040136408E+02 -0.77211585823E+01  0.34524518175E+02  0.40659140575E+02  0.00000000000E+00 0.  1.
         11    1    3    3    0    0  0.74923018839E+01  0.50418033742E+01 -0.27354465491E+02  0.28806616450E+02  0.51100000000E-03 0. -1.
        -11    1    3    3    0    0  0.16106025381E+02  0.42264918220E+00 -0.44784132559E+01  0.16722406270E+02  0.51100000000E-03 0.  1.
        -12    1    3    3    0    0 -0.35581908570E+01  0.22567060259E+01 -0.26916394284E+01  0.49998367048E+01  0.00000000000E+00 0.  1.
</event>
<event>
 7    1  0.4994895E-011  0.5052886E+02  0.7816164E-02  0.1300439E+00
        -11   -1    0    0    0    0  0.00000000000E+00  0.00000000000E+00  0.45593999997E+02  0.45594000000E+02  0.51100000000E-03 0. -1.
         11   -1    0    0    0    0 -0.00000000000E+00 -0.00000000000E+00 -0.45593999997E+02  0.45594000000E+02  0.51100000000E-03 0.  1.
    9900012    2    1    2    0    0 -0.22236921032E+02  0.31404414355E+02  0.13131944759E+02  0.50528857472E+02  0.29999992771E+02 0.  0.
        -12    1    1    2    0    0  0.22236921032E+02 -0.31404414355E+02 -0.13131944759E+02  0.40659142528E+02  0.00000000000E+00 0.  1.
         11    1    3    3    0    0 -0.17106724746E+02  0.20398002276E+02  0.74165611969E+01  0.27635555154E+02  0.51100000000E-03 0. -1.
        -11    1    3    3    0    0  0.65568140684E+01  0.74295933849E+01  0.19010742865E+01  0.10089834106E+02  0.51100000000E-03 0.  1.
        -12    1    3    3    0    0 -0.11687010354E+02  0.35768186942E+01  0.38143092759E+01  0.12803468211E+02  0.00000000000E+00 0.  1.
</event>
<event>
 7    1  0.4994895E-011  0.5052886E+02  0.7816164E-02  0.1300439E+00
        -11   -1    0    0    0    0  0.00000000000E+00  0.00000000000E+00  0.45593999997E+02  0.45594000000E+02  0.51100000000E-03 0.  1.
         11   -1    0    0    0    0 -0.00000000000E+00 -0.00000000000E+00 -0.45593999997E+02  0.45594000000E+02  0.51100000000E-03 0. -1.
    9900012    2    1    2    0    0 -0.37542266016E+02 -0.14384666021E+02 -0.60684114034E+01  0.50528856242E+02  0.29999989034E+02 0.  0.
        -12    1    1    2    0    0  0.37542266016E+02  0.14384666021E+02  0.60684114034E+01  0.40659143758E+02  0.00000000000E+00 0.  1.
         11    1    3    3    0    0 -0.22061063354E+02 -0.15890061057E+02 -0.13221799753E+02  0.30232441940E+02  0.51100000000E-03 0. -1.
        -11    1    3    3    0    0  0.14497091372E+01  0.11017556742E+01  0.17348079367E+01  0.25149713689E+01  0.51100000000E-03 0.  1.
         12    1    3    3    0    0 -0.16930911799E+02  0.40363936173E+00  0.54185804127E+01  0.17781442933E+02  0.00000000000E+00 0. -1.
</event>
<event>
 7    1  0.4994895E-011  0.5052886E+02  0.7816164E-02  0.1300439E+00
        -11   -1    0    0    0    0  0.00000000000E+00  0.00000000000E+00  0.45593999997E+02  0.45594000000E+02  0.51100000000E-03 0.  1.
         11   -1    0    0    0    0 -0.00000000000E+00 -0.00000000000E+00 -0.45593999997E+02  0.45594000000E+02  0.51100000000E-03 0. -1.
    9900012    2    1    2    0    0  0.26129552881E+02  0.20590023986E+02 -0.23376549872E+02  0.50528859509E+02  0.29999998964E+02 0.  0.
        -12    1    1    2    0    0 -0.26129552881E+02 -0.20590023986E+02  0.23376549872E+02  0.40659140491E+02  0.00000000000E+00 0.  1.
         11    1    3    3    0    0  0.68839527017E+01 -0.46658420442E+01 -0.30915710579E+01  0.88722431576E+01  0.51100000000E-03 0. -1.
        -11    1    3    3    0    0  0.12670440243E+02  0.21505831949E+02 -0.22671439058E+02  0.33719949778E+02  0.51100000000E-03 0.  1.
        -12    1    3    3    0    0  0.65751599369E+01  0.37500340816E+01  0.23864602441E+01  0.79366665739E+01  0.00000000000E+00 0.  1.
</event>
<event>
 7    1  0.4994895E-011  0.5052886E+02  0.7816164E-02  0.1300439E+00
        -11   -1    0    0    0    0  0.00000000000E+00  0.00000000000E+00  0.45593999997E+02  0.45594000000E+02  0.51100000000E-03 0.  1.
         11   -1    0    0    0    0 -0.00000000000E+00 -0.00000000000E+00 -0.45593999997E+02  0.45594000000E+02  0.51100000000E-03 0. -1.
    9900012    2    1    2    0    0 -0.93667736433E+01 -0.32348443252E+02 -0.22781737090E+02  0.50528858665E+02  0.29999996397E+02 0.  0.
        -12    1    1    2    0    0  0.93667736433E+01  0.32348443252E+02  0.22781737090E+02  0.40659141335E+02  0.00000000000E+00 0.  1.
         11    1    3    3    0    0 -0.40418933920E+01 -0.74083850611E+00 -0.13975813867E+02  0.14567399129E+02  0.51100000000E-03 0. -1.
        -11    1    3    3    0    0 -0.64545143156E+01 -0.31997181928E+02 -0.63830396335E+01  0.33259939891E+02  0.51100000000E-03 0.  1.
        -12    1    3    3    0    0  0.11296340642E+01  0.38957718208E+00 -0.24228835898E+01  0.27015196445E+01  0.00000000000E+00 0.  1.
</event>
<event>
 7    1  0.4994895E-011  0.5052887E+02  0.7816164E-02  0.1300439E+00
        -11   -1    0    0    0    0  0.00000000000E+00  0.00000000000E+00  0.45593999997E+02  0.45594000000E+02  0.51100000000E-03 0.  1.
         11   -1    0    0    0    0 -0.00000000000E+00 -0.00000000000E+00 -0.45593999997E+02  0.45594000000E+02  0.51100000000E-03 0. -1.
    9900012    2    1    2    0    0  0.54440843523E+01  0.96350785454E+01 -0.39124057051E+02  0.50528872696E+02  0.30000039047E+02 0.  0.
        -12    1    1    2    0    0 -0.54440843523E+01 -0.96350785454E+01  0.39124057051E+02  0.40659127304E+02  0.00000000000E+00 0.  1.
         11    1    3    3    0    0 -0.76183428832E+01 -0.56905582168E+01 -0.80987779262E+01  0.12490468577E+02  0.51100000000E-03 0. -1.
        -11    1    3    3    0    0  0.42202695068E+01  0.14763935120E+01 -0.25089544010E+01  0.51269157356E+01  0.51100000000E-03 0.  1.
         12    1    3    3    0    0  0.88421577286E+01  0.13849243250E+02 -0.28516324724E+02  0.32911488384E+02  0.00000000000E+00 0. -1.
</event>
<event>
 7    1  0.4994895E-011  0.5052886E+02  0.7816164E-02  0.1300439E+00
        -11   -1    0    0    0    0  0.00000000000E+00  0.00000000000E+00  0.45593999997E+02  0.45594000000E+02  0.51100000000E-03 0. -1.
         11   -1    0    0    0    0 -0.00000000000E+00 -0.00000000000E+00 -0.45593999997E+02  0.45594000000E+02  0.51100000000E-03 0.  1.
    9900012    2    1    2    0    0  0.19829661447E+02  0.56934367289E+01  0.35036191939E+02  0.50528862767E+02  0.30000008868E+02 0.  0.
        -12    1    1    2    0    0 -0.19829661447E+02 -0.56934367289E+01 -0.35036191939E+02  0.40659137233E+02  0.00000000000E+00 0.  1.
         11    1    3    3    0    0 -0.32176017999E+01  0.69837461261E+01  0.82679051789E+01  0.11290878071E+02  0.51100000000E-03 0. -1.
        -11    1    3    3    0    0  0.19810283250E+02 -0.40240924754E+01  0.28260312174E+02  0.34746019731E+02  0.51100000000E-03 0.  1.
        -12    1    3    3    0    0  0.32369799975E+01  0.27337830782E+01 -0.14920254136E+01  0.44919649662E+01  0.00000000000E+00 0.  1.
</event>
<event>
 7    1  0.4994895E-011  0.5052886E+02  0.7816164E-02  0.1300439E+00
        -11   -1    0    0    0    0  0.00000000000E+00  0.00000000000E+00  0.45593999997E+02  0.45594000000E+02  0.51100000000E-03 0.  1.
         11   -1    0    0    0    0 -0.00000000000E+00 -0.00000000000E+00 -0.45593999997E+02  0.45594000000E+02  0.51100000000E-03 0. -1.
    9900012    2    1    2    0    0  0.32218780651E+01 -0.29243382784E+02 -0.28064385363E+02  0.50528860059E+02  0.30000000636E+02 0.  0.
        -12    1    1    2    0    0 -0.32218780651E+01  0.29243382784E+02  0.28064385363E+02  0.40659139941E+02  0.00000000000E+00 0.  1.
         11    1    3    3    0    0 -0.25284783609E+00 -0.68226482321E+01 -0.13760262551E+02  0.15360901232E+02  0.51100000000E-03 0. -1.
        -11    1    3    3    0    0  0.12489866632E+02 -0.72236621828E+01 -0.71779139653E+01  0.16115226122E+02  0.51100000000E-03 0.  1.
        -12    1    3    3    0    0 -0.90151407309E+01 -0.15197072369E+02 -0.71262088463E+01  0.19052732705E+02  0.00000000000E+00 0.  1.
</event>
<event>
 7    1  0.4994895E-011  0.5052888E+02  0.7816164E-02  0.1300439E+00
        -11   -1    0    0    0    0  0.00000000000E+00  0.00000000000E+00  0.45593999997E+02  0.45594000000E+02  0.51100000000E-03 0.  1.
         11   -1    0    0    0    0 -0.00000000000E+00 -0.00000000000E+00 -0.45593999997E+02  0.45594000000E+02  0.51100000000E-03 0. -1.
    9900012    2    1    2    0    0  0.38444362874E+02 -0.11912580378E+02  0.57693534080E+01  0.50528879906E+02  0.30000060962E+02 0.  0.
        -12    1    1    2    0    0 -0.38444362874E+02  0.11912580378E+02 -0.57693534080E+01  0.40659120094E+02  0.00000000000E+00 0.  1.
         11    1    3    3    0    0  0.22383250808E+02 -0.80862205655E+01  0.58833198467E+01  0.24515512078E+02  0.51100000000E-03 0. -1.
        -11    1    3    3    0    0  0.64122457930E+01 -0.10455348872E+02 -0.51078247056E+01  0.13286123951E+02  0.51100000000E-03 0.  1.
        -12    1    3    3    0    0  0.96488662729E+01  0.66289890598E+01  0.49938582670E+01  0.12727243877E+02  0.00000000000E+00 0.  1.
</event>
<event>
 7    1  0.4994895E-011  0.5052886E+02  0.7816164E-02  0.1300439E+00
        -11   -1    0    0    0    0  0.00000000000E+00  0.00000000000E+00  0.45593999997E+02  0.45594000000E+02  0.51100000000E-03 0. -1.
         11   -1    0    0    0    0 -0.00000000000E+00 -0.00000000000E+00 -0.45593999997E+02  0.45594000000E+02  0.51100000000E-03 0.  1.
    9900012    2    1    2    0    0  0.28843955232E+02 -0.41154643235E+01  0.28359381598E+02  0.50528864192E+02  0.30000013198E+02 0.  0.
        -12    1    1    2    0    0 -0.28843955232E+02  0.41154643235E+01 -0.28359381598E+02  0.40659135808E+02  0.00000000000E+00 0.  1.
         11    1    3    3    0    0  0.19979671334E+02 -0.12941111045E+02  0.21900123294E+02  0.32346174770E+02  0.51100000000E-03 0. -1.
        -11    1    3    3    0    0 -0.91415169093E+00  0.62277547325E+01  0.22492256405E+00  0.62985071837E+01  0.51100000000E-03 0.  1.
         12    1    3    3    0    0  0.97784355893E+01  0.25978919892E+01  0.62343357394E+01  0.11884182238E+02  0.00000000000E+00 0. -1.
</event>
<event>
 7    1  0.4994895E-011  0.5052885E+02  0.7816164E-02  0.1300439E+00
        -11   -1    0    0    0    0  0.00000000000E+00  0.00000000000E+00  0.45593999997E+02  0.45594000000E+02  0.51100000000E-03 0. -1.
         11   -1    0    0    0    0 -0.00000000000E+00 -0.00000000000E+00 -0.45593999997E+02  0.45594000000E+02  0.51100000000E-03 0.  1.
    9900012    2    1    2    0    0 -0.19364923929E+02 -0.33288182885E+02  0.13040814150E+02  0.50528853031E+02  0.29999979272E+02 0.  0.
        -12    1    1    2    0    0  0.19364923929E+02  0.33288182885E+02 -0.13040814150E+02  0.40659146969E+02  0.00000000000E+00 0.  1.
         11    1    3    3    0    0 -0.31652758017E+01 -0.29875673404E+02  0.14397799133E+02  0.33314733262E+02  0.51100000000E-03 0. -1.
        -11    1    3    3    0    0 -0.26315859348E+01  0.95300448268E+00  0.49157658174E+00  0.28416737802E+01  0.51100000000E-03 0.  1.
         12    1    3    3    0    0 -0.13568062192E+02 -0.43655139641E+01 -0.18485615638E+01  0.14372445988E+02  0.00000000000E+00 0. -1.
</event>
<event>
 7    1  0.4994895E-011  0.5052886E+02  0.7816164E-02  0.1300439E+00
        -11   -1    0    0    0    0  0.00000000000E+00  0.00000000000E+00  0.45593999997E+02  0.45594000000E+02  0.51100000000E-03 0. -1.
         11   -1    0    0    0    0 -0.00000000000E+00 -0.00000000000E+00 -0.45593999997E+02  0.45594000000E+02  0.51100000000E-03 0.  1.
    9900012    2    1    2    0    0  0.37003803126E+02  0.14631929518E+02  0.83540929372E+01  0.50528859871E+02  0.30000000065E+02 0.  0.
        -12    1    1    2    0    0 -0.37003803126E+02 -0.14631929518E+02 -0.83540929372E+01  0.40659140129E+02  0.00000000000E+00 0.  1.
         11    1    3    3    0    0  0.20970852742E+01 -0.38515994574E+01  0.88137882267E+01  0.98445643984E+01  0.51100000000E-03 0. -1.
        -11    1    3    3    0    0  0.10218274793E+02  0.52699453565E+01 -0.45893328506E+01  0.12379315009E+02  0.51100000000E-03 0.  1.
         12    1    3    3    0    0  0.24688443058E+02  0.13213583619E+02  0.41296375610E+01  0.28304980464E+02  0.00000000000E+00 0. -1.
</event>
<event>
 7    1  0.4994895E-011  0.5052888E+02  0.7816164E-02  0.1300439E+00
        -11   -1    0    0    0    0  0.00000000000E+00  0.00000000000E+00  0.45593999997E+02  0.45594000000E+02  0.51100000000E-03 0.  1.
         11   -1    0    0    0    0 -0.00000000000E+00 -0.00000000000E+00 -0.45593999997E+02  0.45594000000E+02  0.51100000000E-03 0. -1.
    9900012    2    1    2    0    0 -0.26728729931E+02 -0.93344925432E+00 -0.30624623471E+02  0.50528881785E+02  0.30000066674E+02 0.  0.
        -12    1    1    2    0    0  0.26728729931E+02  0.93344925432E+00  0.30624623471E+02  0.40659118215E+02  0.00000000000E+00 0.  1.
         11    1    3    3    0    0 -0.29932382525E+02 -0.60716523212E+01 -0.30937731355E+02  0.43473620820E+02  0.51100000000E-03 0. -1.
        -11    1    3    3    0    0  0.31483773781E+01  0.41732652948E+01 -0.11010644882E+01  0.53423559039E+01  0.51100000000E-03 0.  1.
         12    1    3    3    0    0  0.55275215374E-01  0.96493777213E+00  0.14141723715E+01  0.17129050615E+01  0.00000000000E+00 0. -1.
</event>
<event>
 7    1  0.4994895E-011  0.5052887E+02  0.7816164E-02  0.1300439E+00
        -11   -1    0    0    0    0  0.00000000000E+00  0.00000000000E+00  0.45593999997E+02  0.45594000000E+02  0.51100000000E-03 0.  1.
         11   -1    0    0    0    0 -0.00000000000E+00 -0.00000000000E+00 -0.45593999997E+02  0.45594000000E+02  0.51100000000E-03 0. -1.
    9900012    2    1    2    0    0  0.25769705868E+02 -0.18167374141E+02 -0.25671652612E+02  0.50528868535E+02  0.30000026398E+02 0.  0.
        -12    1    1    2    0    0 -0.25769705868E+02  0.18167374141E+02  0.25671652612E+02  0.40659131465E+02  0.00000000000E+00 0.  1.
         11    1    3    3    0    0  0.76926884140E+01 -0.98628504551E+00 -0.21937187712E+02  0.23267797880E+02  0.51100000000E-03 0. -1.
        -11    1    3    3    0    0  0.14526976819E+02 -0.10869826039E+02  0.16775797467E+01  0.18220879443E+02  0.51100000000E-03 0.  1.
        -12    1    3    3    0    0  0.35500406354E+01 -0.63112630568E+01 -0.54120446461E+01  0.90401912113E+01  0.00000000000E+00 0.  1.
</event>
<event>
 7    1  0.4994895E-011  0.5052886E+02  0.7816164E-02  0.1300439E+00
        -11   -1    0    0    0    0  0.00000000000E+00  0.00000000000E+00  0.45593999997E+02  0.45594000000E+02  0.51100000000E-03 0. -1.
         11   -1    0    0    0    0 -0.00000000000E+00 -0.00000000000E+00 -0.45593999997E+02  0.45594000000E+02  0.51100000000E-03 0.  1.
    9900012    2    1    2    0    0  0.12731013751E+02 -0.42079217787E+01  0.38384638005E+02  0.50528858942E+02  0.29999997239E+02 0.  0.
        -12    1    1    2    0    0 -0.12731013751E+02  0.42079217787E+01 -0.38384638005E+02  0.40659141058E+02  0.00000000000E+00 0.  1.
         11    1    3    3    0    0 -0.45797202516E+01 -0.60829239725E+01  0.16755776603E+02  0.18404669285E+02  0.51100000000E-03 0. -1.
        -11    1    3    3    0    0  0.14052662349E+02 -0.58067311396E+01  0.11906693576E+02  0.19312296543E+02  0.51100000000E-03 0.  1.
        -12    1    3    3    0    0  0.32580716536E+01  0.76817333334E+01  0.97221678264E+01  0.12811893113E+02  0.00000000000E+00 0.  1.
</event>
<event>
 7    1  0.4994895E-011  0.5052886E+02  0.7816164E-02  0.1300439E+00
        -11   -1    0    0    0    0  0.00000000000E+00  0.00000000000E+00  0.45593999997E+02  0.45594000000E+02  0.51100000000E-03 0.  1.
         11   -1    0    0    0    0 -0.00000000000E+00 -0.00000000000E+00 -0.45593999997E+02  0.45594000000E+02  0.51100000000E-03 0. -1.
    9900012    2    1    2    0    0 -0.16670131268E+01  0.69790258734E+00 -0.40618953095E+02  0.50528863864E+02  0.30000012200E+02 0.  0.
        -12    1    1    2    0    0  0.16670131268E+01 -0.69790258734E+00  0.40618953095E+02  0.40659136136E+02  0.00000000000E+00 0.  1.
         11    1    3    3    0    0 -0.28526374437E+01  0.68724629929E+01 -0.19440944108E+02  0.20816306014E+02  0.51100000000E-03 0. -1.
        -11    1    3    3    0    0  0.64125598952E+01 -0.10884611767E+01  0.80260622589E+00  0.65536134428E+01  0.51100000000E-03 0.  1.
        -12    1    3    3    0    0 -0.52269355783E+01 -0.50860992288E+01 -0.21980615213E+02  0.23158944407E+02  0.00000000000E+00 0.  1.
</event>
<event>
 7    1  0.4994895E-011  0.5052885E+02  0.7816164E-02  0.1300439E+00
        -11   -1    0    0    0    0  0.00000000000E+00  0.00000000000E+00  0.45593999997E+02  0.45594000000E+02  0.51100000000E-03 0.  1.
         11   -1    0    0    0    0 -0.00000000000E+00 -0.00000000000E+00 -0.45593999997E+02  0.45594000000E+02  0.51100000000E-03 0. -1.
    9900012    2    1    2    0    0 -0.16149030632E+02  0.24706858899E+02 -0.27963299002E+02  0.50528853943E+02  0.29999982044E+02 0.  0.
        -12    1    1    2    0    0  0.16149030632E+02 -0.24706858899E+02  0.27963299002E+02  0.40659146057E+02  0.00000000000E+00 0.  1.
         11    1    3    3    0    0 -0.63262830840E+01  0.97168622978E+01 -0.24575043368E+02  0.27173001810E+02  0.51100000000E-03 0. -1.
        -11    1    3    3    0    0 -0.96236758004E+01  0.22594811372E+01 -0.38669451513E+01  0.10614784783E+02  0.51100000000E-03 0.  1.
         12    1    3    3    0    0 -0.19907174713E+00  0.12730515464E+02  0.47868951718E+00  0.12741067349E+02  0.00000000000E+00 0. -1.
</event>
<event>
 7    1  0.4994895E-011  0.5052886E+02  0.7816164E-02  0.1300439E+00
        -11   -1    0    0    0    0  0.00000000000E+00  0.00000000000E+00  0.45593999997E+02  0.45594000000E+02  0.51100000000E-03 0.  1.
         11   -1    0    0    0    0 -0.00000000000E+00 -0.00000000000E+00 -0.45593999997E+02  0.45594000000E+02  0.51100000000E-03 0. -1.
    9900012    2    1    2    0    0 -0.10520004406E+02  0.18764519926E+02 -0.34501996474E+02  0.50528862510E+02  0.30000008086E+02 0.  0.
        -12    1    1    2    0    0  0.10520004406E+02 -0.18764519926E+02  0.34501996474E+02  0.40659137490E+02  0.00000000000E+00 0.  1.
         11    1    3    3    0    0 -0.35143220196E+01 -0.67631583487E+00 -0.22314404347E+02  0.22599568668E+02  0.51100000000E-03 0. -1.
        -11    1    3    3    0    0 -0.91098523940E+00  0.86763077071E+01  0.21578989798E+01  0.89869203737E+01  0.51100000000E-03 0.  1.
         12    1    3    3    0    0 -0.60946971466E+01  0.10764528054E+02 -0.14345491107E+02  0.18942373468E+02  0.00000000000E+00 0. -1.
</event>
<event>
 7    1  0.4994895E-011  0.5052886E+02  0.7816164E-02  0.1300439E+00
        -11   -1    0    0    0    0  0.00000000000E+00  0.00000000000E+00  0.45593999997E+02  0.45594000000E+02  0.51100000000E-03 0.  1.
         11   -1    0    0    0    0 -0.00000000000E+00 -0.00000000000E+00 -0.45593999997E+02  0.45594000000E+02  0.51100000000E-03 0. -1.
    9900012    2    1    2    0    0  0.22907833720E+02 -0.30928406190E+02 -0.13108400521E+02  0.50528864256E+02  0.30000013393E+02 0.  0.
        -12    1    1    2    0    0 -0.22907833720E+02  0.30928406190E+02  0.13108400521E+02  0.40659135744E+02  0.00000000000E+00 0.  1.
         11    1    3    3    0    0  0.10800738396E+02 -0.15258401244E+02 -0.15920374137E+02  0.24554695505E+02  0.51100000000E-03 0. -1.
        -11    1    3    3    0    0  0.45479251659E+01 -0.16606125683E+02  0.52100826856E+01  0.17988662968E+02  0.51100000000E-03 0.  1.
        -12    1    3    3    0    0  0.75591701578E+01  0.93612073668E+00 -0.23981090703E+01  0.79855057837E+01  0.00000000000E+00 0.  1.
</event>
<event>
 7    1  0.4994895E-011  0.5052891E+02  0.7816164E-02  0.1300439E+00
        -11   -1    0    0    0    0  0.00000000000E+00  0.00000000000E+00  0.45593999997E+02  0.45594000000E+02  0.51100000000E-03 0.  1.
         11   -1    0    0    0    0 -0.00000000000E+00 -0.00000000000E+00 -0.45593999997E+02  0.45594000000E+02  0.51100000000E-03 0. -1.
    9900012    2    1    2    0    0 -0.79233868088E+01  0.10130115566E+00 -0.39879464197E+02  0.50528905259E+02  0.30000138026E+02 0.  0.
        -12    1    1    2    0    0  0.79233868088E+01 -0.10130115566E+00  0.39879464197E+02  0.40659094741E+02  0.00000000000E+00 0.  1.
         11    1    3    3    0    0 -0.12005890736E+02 -0.10065360637E+02 -0.29230018064E+02  0.33163939051E+02  0.51100000000E-03 0.  1.
        -11    1    3    3    0    0  0.55539256992E+01  0.99040552462E+01 -0.11021862733E+02  0.15824596657E+02  0.51100000000E-03 0. -1.
         12    1    3    3    0    0 -0.14714217724E+01  0.26260654685E+00  0.37241659940E+00  0.15403695512E+01  0.00000000000E+00 0. -1.
</event>
<event>
 7    1  0.4994895E-011  0.5052886E+02  0.7816164E-02  0.1300439E+00
        -11   -1    0    0    0    0  0.00000000000E+00  0.00000000000E+00  0.45593999997E+02  0.45594000000E+02  0.51100000000E-03 0.  1.
         11   -1    0    0    0    0 -0.00000000000E+00 -0.00000000000E+00 -0.45593999997E+02  0.45594000000E+02  0.51100000000E-03 0. -1.
    9900012    2    1    2    0    0 -0.15954553371E+02  0.54009054227E+01 -0.37006051333E+02  0.50528863414E+02  0.30000010834E+02 0.  0.
        -12    1    1    2    0    0  0.15954553371E+02 -0.54009054227E+01  0.37006051333E+02  0.40659136586E+02  0.00000000000E+00 0.  1.
         11    1    3    3    0    0 -0.48541480890E+01  0.14615988034E+02 -0.17268422980E+02  0.23138459161E+02  0.51100000000E-03 0. -1.
        -11    1    3    3    0    0 -0.13108389961E+02 -0.93560083919E+01 -0.14102911471E+02  0.21406935620E+02  0.51100000000E-03 0.  1.
         12    1    3    3    0    0  0.20079846786E+01  0.14092578016E+00 -0.56347168818E+01  0.59834686331E+01  0.00000000000E+00 0. -1.
</event>
<event>
 7    1  0.4994895E-011  0.5052886E+02  0.7816164E-02  0.1300439E+00
        -11   -1    0    0    0    0  0.00000000000E+00  0.00000000000E+00  0.45593999997E+02  0.45594000000E+02  0.51100000000E-03 0.  1.
         11   -1    0    0    0    0 -0.00000000000E+00 -0.00000000000E+00 -0.45593999997E+02  0.45594000000E+02  0.51100000000E-03 0. -1.
    9900012    2    1    2    0    0 -0.86965875513E+01 -0.35841939371E+02 -0.17114036148E+02  0.50528862206E+02  0.30000007160E+02 0.  0.
        -12    1    1    2    0    0  0.86965875513E+01  0.35841939371E+02  0.17114036148E+02  0.40659137794E+02  0.00000000000E+00 0.  1.
         11    1    3    3    0    0 -0.17822378626E+02 -0.19652648048E+02 -0.78132114024E+01  0.27657006849E+02  0.51100000000E-03 0. -1.
        -11    1    3    3    0    0  0.29436225276E+01 -0.80494321862E+01  0.66456887454E+00  0.85965065087E+01  0.51100000000E-03 0.  1.
         12    1    3    3    0    0  0.61821685472E+01 -0.81398591368E+01 -0.99653936205E+01  0.14275348848E+02  0.00000000000E+00 0. -1.
</event>
<event>
 7    1  0.4994895E-011  0.5052886E+02  0.7816164E-02  0.1300439E+00
        -11   -1    0    0    0    0  0.00000000000E+00  0.00000000000E+00  0.45593999997E+02  0.45594000000E+02  0.51100000000E-03 0.  1.
         11   -1    0    0    0    0 -0.00000000000E+00 -0.00000000000E+00 -0.45593999997E+02  0.45594000000E+02  0.51100000000E-03 0. -1.
    9900012    2    1    2    0    0 -0.32484499501E+01 -0.53323060578E+01 -0.40176860634E+02  0.50528855329E+02  0.29999986258E+02 0.  0.
        -12    1    1    2    0    0  0.32484499501E+01  0.53323060578E+01  0.40176860634E+02  0.40659144671E+02  0.00000000000E+00 0.  1.
         11    1    3    3    0    0 -0.74497648788E+01  0.73564994343E+01 -0.28288102871E+02  0.30163452140E+02  0.51100000000E-03 0. -1.
        -11    1    3    3    0    0 -0.32395203143E+00  0.14742935129E+01 -0.36224081966E+00  0.15523224386E+01  0.51100000000E-03 0.  1.
         12    1    3    3    0    0  0.45252669601E+01 -0.14163099005E+02 -0.11526516943E+02  0.18813080750E+02  0.00000000000E+00 0. -1.
</event>
<event>
 7    1  0.4994895E-011  0.5052886E+02  0.7816164E-02  0.1300439E+00
        -11   -1    0    0    0    0  0.00000000000E+00  0.00000000000E+00  0.45593999997E+02  0.45594000000E+02  0.51100000000E-03 0.  1.
         11   -1    0    0    0    0 -0.00000000000E+00 -0.00000000000E+00 -0.45593999997E+02  0.45594000000E+02  0.51100000000E-03 0. -1.
    9900012    2    1    2    0    0 -0.16849440097E+02 -0.24396562211E+02 -0.27822104543E+02  0.50528863505E+02  0.30000011111E+02 0.  0.
        -12    1    1    2    0    0  0.16849440097E+02  0.24396562211E+02  0.27822104543E+02  0.40659136495E+02  0.00000000000E+00 0.  1.
         11    1    3    3    0    0 -0.11758823474E+02 -0.85428325094E+00 -0.22040191275E+02  0.24995394797E+02  0.51100000000E-03 0. -1.
        -11    1    3    3    0    0 -0.27625146120E-01 -0.11770269440E+02 -0.46975007692E+01  0.12673062754E+02  0.51100000000E-03 0.  1.
         12    1    3    3    0    0 -0.50629914770E+01 -0.11772009520E+02 -0.10844124991E+01  0.12860405954E+02  0.00000000000E+00 0. -1.
</event>
<event>
 7    1  0.4994895E-011  0.5052886E+02  0.7816164E-02  0.1300439E+00
        -11   -1    0    0    0    0  0.00000000000E+00  0.00000000000E+00  0.45593999997E+02  0.45594000000E+02  0.51100000000E-03 0. -1.
         11   -1    0    0    0    0 -0.00000000000E+00 -0.00000000000E+00 -0.45593999997E+02  0.45594000000E+02  0.51100000000E-03 0.  1.
    9900012    2    1    2    0    0 -0.24793897865E+02  0.28229817806E+02  0.15540452690E+02  0.50528860135E+02  0.30000000867E+02 0.  0.
        -12    1    1    2    0    0  0.24793897865E+02 -0.28229817806E+02 -0.15540452690E+02  0.40659139865E+02  0.00000000000E+00 0.  1.
         11    1    3    3    0    0 -0.27598051422E+00  0.14318396581E+02  0.11838681133E+02  0.18580823909E+02  0.51100000000E-03 0. -1.
        -11    1    3    3    0    0 -0.14107153249E+02  0.90564523448E+00 -0.21334810804E+01  0.14296283009E+02  0.51100000000E-03 0.  1.
         12    1    3    3    0    0 -0.10410764102E+02  0.13005775991E+02  0.58352526373E+01  0.17651753217E+02  0.00000000000E+00 0. -1.
</event>
<event>
 7    1  0.4994895E-011  0.5052886E+02  0.7816164E-02  0.1300439E+00
        -11   -1    0    0    0    0  0.00000000000E+00  0.00000000000E+00  0.45593999997E+02  0.45594000000E+02  0.51100000000E-03 0. -1.
         11   -1    0    0    0    0 -0.00000000000E+00 -0.00000000000E+00 -0.45593999997E+02  0.45594000000E+02  0.51100000000E-03 0.  1.
    9900012    2    1    2    0    0 -0.37795578355E+02  0.12133944463E+02 -0.87992864117E+01  0.50528858435E+02  0.29999995699E+02 0.  0.
        -12    1    1    2    0    0  0.37795578355E+02 -0.12133944463E+02  0.87992864117E+01  0.40659141565E+02  0.00000000000E+00 0.  1.
         11    1    3    3    0    0 -0.19121516873E+02  0.10754989598E+02 -0.27191216768E+01  0.22106465835E+02  0.51100000000E-03 0. -1.
        -11    1    3    3    0    0  0.31134171057E+01  0.16542705701E+01  0.31792396976E+01  0.47473721688E+01  0.51100000000E-03 0.  1.
        -12    1    3    3    0    0 -0.21787478588E+02 -0.27531570448E+00 -0.92594044326E+01  0.23675020431E+02  0.00000000000E+00 0.  1.
</event>
<event>
 7    1  0.4994895E-011  0.5052886E+02  0.7816164E-02  0.1300439E+00
        -11   -1    0    0    0    0  0.00000000000E+00  0.00000000000E+00  0.45593999997E+02  0.45594000000E+02  0.51100000000E-03 0.  1.
         11   -1    0    0    0    0 -0.00000000000E+00 -0.00000000000E+00 -0.45593999997E+02  0.45594000000E+02  0.51100000000E-03 0. -1.
    9900012    2    1    2    0    0 -0.83309433306E+01 -0.36353737671E+02 -0.16191573786E+02  0.50528856857E+02  0.29999990903E+02 0.  0.
        -12    1    1    2    0    0  0.83309433306E+01  0.36353737671E+02  0.16191573786E+02  0.40659143143E+02  0.00000000000E+00 0.  1.
         11    1    3    3    0    0 -0.63025931619E+01 -0.95061645765E+00  0.45730449530E+01  0.78446856289E+01  0.51100000000E-03 0. -1.
        -11    1    3    3    0    0  0.37173538055E+01 -0.23147583204E+02 -0.15778989289E+02  0.28259614837E+02  0.51100000000E-03 0.  1.
         12    1    3    3    0    0 -0.57457039742E+01 -0.12255538010E+02 -0.49856294499E+01  0.14424556391E+02  0.00000000000E+00 0. -1.
</event>
<event>
 7    1  0.4994895E-011  0.5052885E+02  0.7816164E-02  0.1300439E+00
        -11   -1    0    0    0    0  0.00000000000E+00  0.00000000000E+00  0.45593999997E+02  0.45594000000E+02  0.51100000000E-03 0.  1.
         11   -1    0    0    0    0 -0.00000000000E+00 -0.00000000000E+00 -0.45593999997E+02  0.45594000000E+02  0.51100000000E-03 0. -1.
    9900012    2    1    2    0    0  0.13844845985E+02  0.39950673334E+01 -0.38020073545E+02  0.50528852005E+02  0.29999976154E+02 0.  0.
        -12    1    1    2    0    0 -0.13844845985E+02 -0.39950673334E+01  0.38020073545E+02  0.40659147995E+02  0.00000000000E+00 0.  1.
         11    1    3    3    0    0 -0.43772649061E+01  0.65983057228E+01 -0.21543670559E+01  0.82060577711E+01  0.51100000000E-03 0.  1.
        -11    1    3    3    0    0  0.42471650071E+01 -0.20915737328E+01 -0.22450479858E+02  0.22944217951E+02  0.51100000000E-03 0. -1.
         12    1    3    3    0    0  0.13974945884E+02 -0.51166465658E+00 -0.13415226631E+02  0.19378576283E+02  0.00000000000E+00 0. -1.
</event>
<event>
 7    1  0.6902625E-011  0.5052888E+02  0.7816164E-02  0.1300439E+00
        -11   -1    0    0    0    0  0.00000000000E+00  0.00000000000E+00  0.45593999997E+02  0.45594000000E+02  0.51100000000E-03 0. -1.
         11   -1    0    0    0    0 -0.00000000000E+00 -0.00000000000E+00 -0.45593999997E+02  0.45594000000E+02  0.51100000000E-03 0.  1.
    9900012    2    1    2    0    0 -0.27707681477E+02  0.29756472868E+02  0.29709343983E-01  0.50528878354E+02  0.30000056246E+02 0.  0.
        -12    1    1    2    0    0  0.27707681477E+02 -0.29756472868E+02 -0.29709343983E-01  0.40659121646E+02  0.00000000000E+00 0.  1.
         11    1    3    3    0    0 -0.18987102738E+02  0.15001134375E+02  0.82867329865E+00  0.24212203589E+02  0.51100000000E-03 0. -1.
        -11    1    3    3    0    0 -0.53783221906E+00  0.40642325113E+00  0.77074719375E+01  0.77368964891E+01  0.51100000000E-03 0.  1.
        -12    1    3    3    0    0 -0.81827465197E+01  0.14348915242E+02 -0.85064358921E+01  0.18579778276E+02  0.00000000000E+00 0.  1.
</event>
<event>
 7    1  0.4994895E-011  0.5052886E+02  0.7816164E-02  0.1300439E+00
        -11   -1    0    0    0    0  0.00000000000E+00  0.00000000000E+00  0.45593999997E+02  0.45594000000E+02  0.51100000000E-03 0.  1.
         11   -1    0    0    0    0 -0.00000000000E+00 -0.00000000000E+00 -0.45593999997E+02  0.45594000000E+02  0.51100000000E-03 0. -1.
    9900012    2    1    2    0    0 -0.94741917727E+01  0.63701053025E+01 -0.39023418094E+02  0.50528859440E+02  0.29999998755E+02 0.  0.
        -12    1    1    2    0    0  0.94741917727E+01 -0.63701053025E+01  0.39023418094E+02  0.40659140560E+02  0.00000000000E+00 0.  1.
         11    1    3    3    0    0 -0.65069447713E+01 -0.16922892704E+01 -0.34648344461E+02  0.35294644741E+02  0.51100000000E-03 0. -1.
        -11    1    3    3    0    0 -0.73264451973E+01  0.30851590951E+01 -0.28450945936E+01  0.84433150705E+01  0.51100000000E-03 0.  1.
         12    1    3    3    0    0  0.43591981959E+01  0.49772354779E+01 -0.15299790393E+01  0.67908996292E+01  0.00000000000E+00 0. -1.
</event>
<event>
 7    1  0.4994895E-011  0.5052885E+02  0.7816164E-02  0.1300439E+00
        -11   -1    0    0    0    0  0.00000000000E+00  0.00000000000E+00  0.45593999997E+02  0.45594000000E+02  0.51100000000E-03 0.  1.
         11   -1    0    0    0    0 -0.00000000000E+00 -0.00000000000E+00 -0.45593999997E+02  0.45594000000E+02  0.51100000000E-03 0. -1.
    9900012    2    1    2    0    0  0.24148151656E+02  0.37008555231E+00 -0.32709267761E+02  0.50528851102E+02  0.29999973408E+02 0.  0.
        -12    1    1    2    0    0 -0.24148151656E+02 -0.37008555231E+00  0.32709267761E+02  0.40659148898E+02  0.00000000000E+00 0.  1.
         11    1    3    3    0    0  0.12980866593E+02 -0.11447718836E+02 -0.22830105551E+02  0.28649029369E+02  0.51100000000E-03 0. -1.
        -11    1    3    3    0    0  0.13205842950E+02  0.89336673975E+01 -0.74877208390E+01  0.17614501549E+02  0.51100000000E-03 0.  1.
        -12    1    3    3    0    0 -0.20385578870E+01  0.28841369911E+01 -0.23914413705E+01  0.42653201838E+01  0.00000000000E+00 0.  1.
</event>
<event>
 7    1  0.4994895E-011  0.5052886E+02  0.7816164E-02  0.1300439E+00
        -11   -1    0    0    0    0  0.00000000000E+00  0.00000000000E+00  0.45593999997E+02  0.45594000000E+02  0.51100000000E-03 0.  1.
         11   -1    0    0    0    0 -0.00000000000E+00 -0.00000000000E+00 -0.45593999997E+02  0.45594000000E+02  0.51100000000E-03 0. -1.
    9900012    2    1    2    0    0 -0.13113939982E+02  0.27581535974E+02 -0.26841184313E+02  0.50528859283E+02  0.29999998277E+02 0.  0.
        -12    1    1    2    0    0  0.13113939982E+02 -0.27581535974E+02  0.26841184313E+02  0.40659140717E+02  0.00000000000E+00 0.  1.
         11    1    3    3    0    0  0.71985456915E+00 -0.29504673262E+01  0.39698595666E+01  0.49983230471E+01  0.51100000000E-03 0.  1.
        -11    1    3    3    0    0 -0.11292409998E+02  0.24654140167E+02 -0.24802182206E+02  0.36749059762E+02  0.51100000000E-03 0. -1.
        -12    1    3    3    0    0 -0.25413845528E+01  0.58778631330E+01 -0.60088616738E+01  0.87814764744E+01  0.00000000000E+00 0.  1.
</event>
<event>
 7    1  0.4994895E-011  0.5052886E+02  0.7816164E-02  0.1300439E+00
        -11   -1    0    0    0    0  0.00000000000E+00  0.00000000000E+00  0.45593999997E+02  0.45594000000E+02  0.51100000000E-03 0. -1.
         11   -1    0    0    0    0 -0.00000000000E+00 -0.00000000000E+00 -0.45593999997E+02  0.45594000000E+02  0.51100000000E-03 0.  1.
    9900012    2    1    2    0    0 -0.14016900973E+01 -0.35939192016E+02  0.18962472963E+02  0.50528860329E+02  0.30000001457E+02 0.  0.
        -12    1    1    2    0    0  0.14016900973E+01  0.35939192016E+02 -0.18962472963E+02  0.40659139671E+02  0.00000000000E+00 0.  1.
         11    1    3    3    0    0  0.54757497073E+01  0.17263014563E+01  0.19423005648E+01  0.60610628870E+01  0.51100000000E-03 0. -1.
        -11    1    3    3    0    0 -0.99166437502E+01 -0.14011810998E+02  0.83852432096E+01  0.19104527596E+02  0.51100000000E-03 0.  1.
        -12    1    3    3    0    0  0.30392039456E+01 -0.23653682474E+02  0.86349291886E+01  0.25363269846E+02  0.00000000000E+00 0.  1.
</event>
<event>
 7    1  0.4994895E-011  0.5052886E+02  0.7816164E-02  0.1300439E+00
        -11   -1    0    0    0    0  0.00000000000E+00  0.00000000000E+00  0.45593999997E+02  0.45594000000E+02  0.51100000000E-03 0.  1.
         11   -1    0    0    0    0 -0.00000000000E+00 -0.00000000000E+00 -0.45593999997E+02  0.45594000000E+02  0.51100000000E-03 0. -1.
    9900012    2    1    2    0    0 -0.36068740433E+02  0.17856802386E+02 -0.57746343458E+01  0.50528857981E+02  0.29999994319E+02 0.  0.
        -12    1    1    2    0    0  0.36068740433E+02 -0.17856802386E+02  0.57746343458E+01  0.40659142019E+02  0.00000000000E+00 0.  1.
         11    1    3    3    0    0 -0.20238121026E+02  0.94631130234E+01 -0.15252241107E+02  0.27051116609E+02  0.51100000000E-03 0. -1.
        -11    1    3    3    0    0 -0.87395774713E+01 -0.12995716311E+01  0.68590388991E+01  0.11185504713E+02  0.51100000000E-03 0.  1.
        -12    1    3    3    0    0 -0.70910419364E+01  0.96932609936E+01  0.26185678619E+01  0.12292236659E+02  0.00000000000E+00 0.  1.
</event>
<event>
 7    1  0.4994895E-011  0.5052886E+02  0.7816164E-02  0.1300439E+00
        -11   -1    0    0    0    0  0.00000000000E+00  0.00000000000E+00  0.45593999997E+02  0.45594000000E+02  0.51100000000E-03 0.  1.
         11   -1    0    0    0    0 -0.00000000000E+00 -0.00000000000E+00 -0.45593999997E+02  0.45594000000E+02  0.51100000000E-03 0. -1.
    9900012    2    1    2    0    0  0.41061654363E+01  0.37985040821E+02 -0.13908327710E+02  0.50528862030E+02  0.30000006627E+02 0.  0.
        -12    1    1    2    0    0 -0.41061654363E+01 -0.37985040821E+02  0.13908327710E+02  0.40659137970E+02  0.00000000000E+00 0.  1.
         11    1    3    3    0    0 -0.20684125463E+01  0.17715792473E+02 -0.60287389892E+01  0.18827462056E+02  0.51100000000E-03 0. -1.
        -11    1    3    3    0    0  0.78568682170E+01  0.84938434486E+01  0.63151260929E+01  0.13181675635E+02  0.51100000000E-03 0.  1.
        -12    1    3    3    0    0 -0.16822902344E+01  0.11775404899E+02 -0.14194714814E+02  0.18519724340E+02  0.00000000000E+00 0.  1.
</event>
<event>
 7    1  0.4994895E-011  0.5052885E+02  0.7816164E-02  0.1300439E+00
        -11   -1    0    0    0    0  0.00000000000E+00  0.00000000000E+00  0.45593999997E+02  0.45594000000E+02  0.51100000000E-03 0.  1.
         11   -1    0    0    0    0 -0.00000000000E+00 -0.00000000000E+00 -0.45593999997E+02  0.45594000000E+02  0.51100000000E-03 0. -1.
    9900012    2    1    2    0    0  0.33363254589E+02  0.31582808368E+01  0.23023576804E+02  0.50528848712E+02  0.29999966145E+02 0.  0.
        -12    1    1    2    0    0 -0.33363254589E+02 -0.31582808368E+01 -0.23023576804E+02  0.40659151288E+02  0.00000000000E+00 0.  1.
         11    1    3    3    0    0  0.14833855837E+01  0.36762896579E+00  0.31791925078E-01  0.15285924355E+01  0.51100000000E-03 0. -1.
        -11    1    3    3    0    0  0.35645972806E+02 -0.22279999843E+01  0.23422664563E+02  0.42710895293E+02  0.51100000000E-03 0.  1.
        -12    1    3    3    0    0 -0.37661038003E+01  0.50186518554E+01 -0.43087968444E+00  0.62893609836E+01  0.00000000000E+00 0.  1.
</event>
<event>
 7    1  0.4994895E-011  0.5052886E+02  0.7816164E-02  0.1300439E+00
        -11   -1    0    0    0    0  0.00000000000E+00  0.00000000000E+00  0.45593999997E+02  0.45594000000E+02  0.51100000000E-03 0. -1.
         11   -1    0    0    0    0 -0.00000000000E+00 -0.00000000000E+00 -0.45593999997E+02  0.45594000000E+02  0.51100000000E-03 0.  1.
    9900012    2    1    2    0    0 -0.11902550011E+02 -0.35416945001E+02  0.16035430235E+02  0.50528859420E+02  0.29999998692E+02 0.  0.
        -12    1    1    2    0    0  0.11902550011E+02  0.35416945001E+02 -0.16035430235E+02  0.40659140580E+02  0.00000000000E+00 0.  1.
         11    1    3    3    0    0 -0.49041177488E+01 -0.31111741247E+01  0.11582782056E+02  0.12957261121E+02  0.51100000000E-03 0. -1.
        -11    1    3    3    0    0  0.40765606495E+01 -0.20124440301E+02  0.48707958189E+01  0.21102987853E+02  0.51100000000E-03 0.  1.
        -12    1    3    3    0    0 -0.11074992911E+02 -0.12181330575E+02 -0.41814764072E+00  0.16468610446E+02  0.00000000000E+00 0.  1.
</event>
<event>
 7    1  0.4994895E-011  0.5052886E+02  0.7816164E-02  0.1300439E+00
        -11   -1    0    0    0    0  0.00000000000E+00  0.00000000000E+00  0.45593999997E+02  0.45594000000E+02  0.51100000000E-03 0. -1.
         11   -1    0    0    0    0 -0.00000000000E+00 -0.00000000000E+00 -0.45593999997E+02  0.45594000000E+02  0.51100000000E-03 0.  1.
    9900012    2    1    2    0    0 -0.23484655155E+01 -0.37559720407E+01  0.40417110872E+02  0.50528862436E+02  0.30000007860E+02 0.  0.
        -12    1    1    2    0    0  0.23484655155E+01  0.37559720407E+01 -0.40417110872E+02  0.40659137564E+02  0.00000000000E+00 0.  1.
         11    1    3    3    0    0 -0.63235259341E+01  0.22706592213E+01  0.19800557736E+01  0.70045338650E+01  0.51100000000E-03 0. -1.
        -11    1    3    3    0    0  0.25242940579E+01 -0.62421650898E+01  0.40465117441E+02  0.41021487239E+02  0.51100000000E-03 0.  1.
        -12    1    3    3    0    0  0.14507663607E+01  0.21553382780E+00 -0.20280623432E+01  0.25028413318E+01  0.00000000000E+00 0.  1.
</event>
<event>
 7    1  0.4994895E-011  0.5052886E+02  0.7816164E-02  0.1300439E+00
        -11   -1    0    0    0    0  0.00000000000E+00  0.00000000000E+00  0.45593999997E+02  0.45594000000E+02  0.51100000000E-03 0.  1.
         11   -1    0    0    0    0 -0.00000000000E+00 -0.00000000000E+00 -0.45593999997E+02  0.45594000000E+02  0.51100000000E-03 0. -1.
    9900012    2    1    2    0    0  0.10924283396E+02 -0.37747652457E+02 -0.10437453524E+02  0.50528859948E+02  0.30000000298E+02 0.  0.
        -12    1    1    2    0    0 -0.10924283396E+02  0.37747652457E+02  0.10437453524E+02  0.40659140052E+02  0.00000000000E+00 0.  1.
         11    1    3    3    0    0  0.13254621056E+01  0.44149542033E+01 -0.58048792847E+00  0.46460345357E+01  0.51100000000E-03 0. -1.
        -11    1    3    3    0    0  0.18323537207E+00 -0.84419654746E+01  0.24171563079E+01  0.87831088547E+01  0.51100000000E-03 0.  1.
         12    1    3    3    0    0  0.94155859185E+01 -0.33720641185E+02 -0.12274121903E+02  0.37099716557E+02  0.00000000000E+00 0. -1.
</event>
<event>
 7    1  0.4994895E-011  0.5052887E+02  0.7816164E-02  0.1300439E+00
        -11   -1    0    0    0    0  0.00000000000E+00  0.00000000000E+00  0.45593999997E+02  0.45594000000E+02  0.51100000000E-03 0.  1.
         11   -1    0    0    0    0 -0.00000000000E+00 -0.00000000000E+00 -0.45593999997E+02  0.45594000000E+02  0.51100000000E-03 0. -1.
    9900012    2    1    2    0    0  0.29553848883E+02 -0.26101632497E+02 -0.99216742859E+01  0.50528870356E+02  0.30000031933E+02 0.  0.
        -12    1    1    2    0    0 -0.29553848883E+02  0.26101632497E+02  0.99216742859E+01  0.40659129644E+02  0.00000000000E+00 0.  1.
         11    1    3    3    0    0  0.21613808867E+02 -0.85228057313E+01  0.38266922095E+01  0.23546518316E+02  0.51100000000E-03 0. -1.
        -11    1    3    3    0    0  0.12410130464E+01 -0.52232936228E+01 -0.11576458207E+02  0.12760771706E+02  0.51100000000E-03 0.  1.
         12    1    3    3    0    0  0.66990269696E+01 -0.12355533143E+02 -0.21719082881E+01  0.14221580334E+02  0.00000000000E+00 0. -1.
</event>
<event>
 7    1  0.4994895E-011  0.5052886E+02  0.7816164E-02  0.1300439E+00
        -11   -1    0    0    0    0  0.00000000000E+00  0.00000000000E+00  0.45593999997E+02  0.45594000000E+02  0.51100000000E-03 0.  1.
         11   -1    0    0    0    0 -0.00000000000E+00 -0.00000000000E+00 -0.45593999997E+02  0.45594000000E+02  0.51100000000E-03 0. -1.
    9900012    2    1    2    0    0  0.19366578796E+02  0.17903239917E+02 -0.30944714877E+02  0.50528858929E+02  0.29999997201E+02 0.  0.
        -12    1    1    2    0    0 -0.19366578796E+02 -0.17903239917E+02  0.30944714877E+02  0.40659141071E+02  0.00000000000E+00 0.  1.
         11    1    3    3    0    0  0.15238444306E+02 -0.33844755203E+01 -0.20522054134E+02  0.25784095205E+02  0.51100000000E-03 0. -1.
        -11    1    3    3    0    0 -0.45113444252E+00  0.57250932155E+01 -0.50743671703E+01  0.76635120572E+01  0.51100000000E-03 0.  1.
         12    1    3    3    0    0  0.45792689330E+01  0.15562622222E+02 -0.53482935729E+01  0.17081251667E+02  0.00000000000E+00 0. -1.
</event>
<event>
 7    1  0.4994895E-011  0.5052885E+02  0.7816164E-02  0.1300439E+00
        -11   -1    0    0    0    0  0.00000000000E+00  0.00000000000E+00  0.45593999997E+02  0.45594000000E+02  0.51100000000E-03 0.  1.
         11   -1    0    0    0    0 -0.00000000000E+00 -0.00000000000E+00 -0.45593999997E+02  0.45594000000E+02  0.51100000000E-03 0. -1.
    9900012    2    1    2    0    0 -0.31707817662E+02  0.22660521803E+02 -0.11587991440E+02  0.50528849801E+02  0.29999969455E+02 0.  0.
        -12    1    1    2    0    0  0.31707817662E+02 -0.22660521803E+02  0.11587991440E+02  0.40659150199E+02  0.00000000000E+00 0.  1.
         11    1    3    3    0    0 -0.25117475725E+02  0.17501470894E+02 -0.10127117906E+02  0.32245117267E+02  0.51100000000E-03 0. -1.
        -11    1    3    3    0    0 -0.17617390718E+01 -0.58075997910E+01  0.69546385366E+00  0.61086504338E+01  0.51100000000E-03 0.  1.
        -12    1    3    3    0    0 -0.48286028660E+01  0.10966650700E+02 -0.21563373877E+01  0.12175082100E+02  0.00000000000E+00 0.  1.
</event>
<event>
 7    1  0.4994895E-011  0.5052888E+02  0.7816164E-02  0.1300439E+00
        -11   -1    0    0    0    0  0.00000000000E+00  0.00000000000E+00  0.45593999997E+02  0.45594000000E+02  0.51100000000E-03 0.  1.
         11   -1    0    0    0    0 -0.00000000000E+00 -0.00000000000E+00 -0.45593999997E+02  0.45594000000E+02  0.51100000000E-03 0. -1.
    9900012    2    1    2    0    0  0.29820408723E+02  0.21829166093E+02 -0.16952730738E+02  0.50528876200E+02  0.30000049698E+02 0.  0.
        -12    1    1    2    0    0 -0.29820408723E+02 -0.21829166093E+02  0.16952730738E+02  0.40659123800E+02  0.00000000000E+00 0.  1.
         11    1    3    3    0    0  0.23777020589E+02  0.18399722123E+02 -0.81092942359E+01  0.31139318161E+02  0.51100000000E-03 0. -1.
        -11    1    3    3    0    0  0.13122710582E+01 -0.62858561436E+01 -0.38337021876E+01  0.74787241901E+01  0.51100000000E-03 0.  1.
        -12    1    3    3    0    0  0.47311170756E+01  0.97153001133E+01 -0.50097343140E+01  0.11910833849E+02  0.00000000000E+00 0.  1.
</event>
<event>
 7    1  0.4994895E-011  0.5052886E+02  0.7816164E-02  0.1300439E+00
        -11   -1    0    0    0    0  0.00000000000E+00  0.00000000000E+00  0.45593999997E+02  0.45594000000E+02  0.51100000000E-03 0.  1.
         11   -1    0    0    0    0 -0.00000000000E+00 -0.00000000000E+00 -0.45593999997E+02  0.45594000000E+02  0.51100000000E-03 0. -1.
    9900012    2    1    2    0    0  0.26294646545E+02 -0.13950870924E+02 -0.27697122836E+02  0.50528857733E+02  0.29999993566E+02 0.  0.
        -12    1    1    2    0    0 -0.26294646545E+02  0.13950870924E+02  0.27697122836E+02  0.40659142267E+02  0.00000000000E+00 0.  1.
         11    1    3    3    0    0  0.15054753412E+01 -0.19657552138E+01 -0.29111574030E+01  0.38217126069E+01  0.51100000000E-03 0. -1.
        -11    1    3    3    0    0 -0.56950199792E+01 -0.54247761519E+01 -0.83020388240E+01  0.11436139985E+02  0.51100000000E-03 0.  1.
        -12    1    3    3    0    0  0.30484191183E+02 -0.65603395581E+01 -0.16483926609E+02  0.35271005141E+02  0.00000000000E+00 0.  1.
</event>
<event>
 7    1  0.4994895E-011  0.5052882E+02  0.7816164E-02  0.1300439E+00
        -11   -1    0    0    0    0  0.00000000000E+00  0.00000000000E+00  0.45593999997E+02  0.45594000000E+02  0.51100000000E-03 0.  1.
         11   -1    0    0    0    0 -0.00000000000E+00 -0.00000000000E+00 -0.45593999997E+02  0.45594000000E+02  0.51100000000E-03 0. -1.
    9900012    2    1    2    0    0 -0.25343829963E+02 -0.20447505609E+02  0.24346640761E+02  0.50528817530E+02  0.29999871363E+02 0.  0.
        -12    1    1    2    0    0  0.25343829963E+02  0.20447505609E+02 -0.24346640761E+02  0.40659182470E+02  0.00000000000E+00 0.  1.
         11    1    3    3    0    0 -0.11983420123E+02  0.27983840324E+01  0.58705236644E+01  0.13634381519E+02  0.51100000000E-03 0. -1.
        -11    1    3    3    0    0 -0.16550389661E+02 -0.22740265684E+02  0.18500439832E+02  0.33664541517E+02  0.51100000000E-03 0.  1.
        -12    1    3    3    0    0  0.31899798214E+01 -0.50562395728E+00 -0.24322735083E-01  0.32298944940E+01  0.00000000000E+00 0.  1.
</event>
<event>
 7    1  0.4994895E-011  0.5052886E+02  0.7816164E-02  0.1300439E+00
        -11   -1    0    0    0    0  0.00000000000E+00  0.00000000000E+00  0.45593999997E+02  0.45594000000E+02  0.51100000000E-03 0.  1.
         11   -1    0    0    0    0 -0.00000000000E+00 -0.00000000000E+00 -0.45593999997E+02  0.45594000000E+02  0.51100000000E-03 0. -1.
    9900012    2    1    2    0    0  0.18537734973E+02 -0.32926418809E+01 -0.36037158592E+02  0.50528857020E+02  0.29999991398E+02 0.  0.
        -12    1    1    2    0    0 -0.18537734973E+02  0.32926418809E+01  0.36037158592E+02  0.40659142980E+02  0.00000000000E+00 0.  1.
         11    1    3    3    0    0  0.21379712655E+02 -0.44171430881E+01 -0.38267857746E+02  0.44057147014E+02  0.51100000000E-03 0. -1.
        -11    1    3    3    0    0 -0.85905000078E+00 -0.15682594852E+01  0.25477447498E+01  0.31126208069E+01  0.51100000000E-03 0.  1.
         12    1    3    3    0    0 -0.19829276815E+01  0.26927606924E+01 -0.31704559585E+00  0.33590891989E+01  0.00000000000E+00 0. -1.
</event>
<event>
 7    1  0.4994895E-011  0.5052885E+02  0.7816164E-02  0.1300439E+00
        -11   -1    0    0    0    0  0.00000000000E+00  0.00000000000E+00  0.45593999997E+02  0.45594000000E+02  0.51100000000E-03 0.  1.
         11   -1    0    0    0    0 -0.00000000000E+00 -0.00000000000E+00 -0.45593999997E+02  0.45594000000E+02  0.51100000000E-03 0. -1.
    9900012    2    1    2    0    0  0.33541696923E+02  0.21430688501E+02 -0.82973628741E+01  0.50528854992E+02  0.29999985233E+02 0.  0.
        -12    1    1    2    0    0 -0.33541696923E+02 -0.21430688501E+02  0.82973628741E+01  0.40659145008E+02  0.00000000000E+00 0.  1.
         11    1    3    3    0    0  0.16578888109E+02  0.18600867435E+02 -0.45640912762E+01  0.25331457315E+02  0.51100000000E-03 0. -1.
        -11    1    3    3    0    0  0.45330317328E+01 -0.29438939861E+01  0.62340336583E+01  0.82509432434E+01  0.51100000000E-03 0.  1.
        -12    1    3    3    0    0  0.12429777081E+02  0.57737150523E+01 -0.99673052562E+01  0.16946454433E+02  0.00000000000E+00 0.  1.
</event>
<event>
 7    1  0.4994895E-011  0.5052888E+02  0.7816164E-02  0.1300439E+00
        -11   -1    0    0    0    0  0.00000000000E+00  0.00000000000E+00  0.45593999997E+02  0.45594000000E+02  0.51100000000E-03 0. -1.
         11   -1    0    0    0    0 -0.00000000000E+00 -0.00000000000E+00 -0.45593999997E+02  0.45594000000E+02  0.51100000000E-03 0.  1.
    9900012    2    1    2    0    0  0.31992127128E+01  0.13358250819E+02  0.38268605968E+02  0.50528880116E+02  0.30000061602E+02 0.  0.
        -12    1    1    2    0    0 -0.31992127128E+01 -0.13358250819E+02 -0.38268605968E+02  0.40659119884E+02  0.00000000000E+00 0.  1.
         11    1    3    3    0    0  0.27116237177E+00  0.17560055064E+02  0.25172210991E+02  0.30693146944E+02  0.51100000000E-03 0. -1.
        -11    1    3    3    0    0 -0.33605594810E+01 -0.27405515042E+01 -0.89397120066E+00  0.44275464245E+01  0.51100000000E-03 0.  1.
        -12    1    3    3    0    0  0.62886098220E+01 -0.14612527405E+01  0.13990366178E+02  0.15408186748E+02  0.00000000000E+00 0.  1.
</event>
<event>
 7    1  0.4994895E-011  0.5052886E+02  0.7816164E-02  0.1300439E+00
        -11   -1    0    0    0    0  0.00000000000E+00  0.00000000000E+00  0.45593999997E+02  0.45594000000E+02  0.51100000000E-03 0.  1.
         11   -1    0    0    0    0 -0.00000000000E+00 -0.00000000000E+00 -0.45593999997E+02  0.45594000000E+02  0.51100000000E-03 0. -1.
    9900012    2    1    2    0    0  0.26652703005E+02 -0.17479238096E+02 -0.25244316698E+02  0.50528857517E+02  0.29999992908E+02 0.  0.
        -12    1    1    2    0    0 -0.26652703005E+02  0.17479238096E+02  0.25244316698E+02  0.40659142483E+02  0.00000000000E+00 0.  1.
         11    1    3    3    0    0  0.14792594635E+02 -0.15838313902E+02 -0.27507458692E+02  0.35019042352E+02  0.51100000000E-03 0. -1.
        -11    1    3    3    0    0  0.13055039883E+02 -0.46607640960E+00  0.33830348091E+01  0.13494303181E+02  0.51100000000E-03 0.  1.
         12    1    3    3    0    0 -0.11949315131E+01 -0.11748477853E+01 -0.11198928148E+01  0.20155119836E+01  0.00000000000E+00 0. -1.
</event>
<event>
 7    1  0.4994895E-011  0.5052886E+02  0.7816164E-02  0.1300439E+00
        -11   -1    0    0    0    0  0.00000000000E+00  0.00000000000E+00  0.45593999997E+02  0.45594000000E+02  0.51100000000E-03 0.  1.
         11   -1    0    0    0    0 -0.00000000000E+00 -0.00000000000E+00 -0.45593999997E+02  0.45594000000E+02  0.51100000000E-03 0. -1.
    9900012    2    1    2    0    0  0.32564739798E+02 -0.22365077738E+02 -0.96180555889E+01  0.50528856211E+02  0.29999988939E+02 0.  0.
        -12    1    1    2    0    0 -0.32564739798E+02  0.22365077738E+02  0.96180555889E+01  0.40659143789E+02  0.00000000000E+00 0.  1.
         11    1    3    3    0    0  0.18060255970E+01  0.30944709260E+01 -0.89806266324E+01  0.96689779057E+01  0.51100000000E-03 0. -1.
        -11    1    3    3    0    0  0.12332373784E+02 -0.78307852197E+01  0.35087270709E+01  0.15023974382E+02  0.51100000000E-03 0.  1.
         12    1    3    3    0    0  0.18426340416E+02 -0.17628763445E+02 -0.41461560274E+01  0.25835903923E+02  0.00000000000E+00 0. -1.
</event>
<event>
 7    1  0.4994895E-011  0.5052886E+02  0.7816164E-02  0.1300439E+00
        -11   -1    0    0    0    0  0.00000000000E+00  0.00000000000E+00  0.45593999997E+02  0.45594000000E+02  0.51100000000E-03 0. -1.
         11   -1    0    0    0    0 -0.00000000000E+00 -0.00000000000E+00 -0.45593999997E+02  0.45594000000E+02  0.51100000000E-03 0.  1.
    9900012    2    1    2    0    0 -0.14842208946E+02  0.45619448621E+01  0.37577425724E+02  0.50528862879E+02  0.30000009208E+02 0.  0.
        -12    1    1    2    0    0  0.14842208946E+02 -0.45619448621E+01 -0.37577425724E+02  0.40659137121E+02  0.00000000000E+00 0.  1.
         11    1    3    3    0    0 -0.62918410661E+01 -0.10940495767E+02  0.99618464096E+01  0.16078560128E+02  0.51100000000E-03 0. -1.
        -11    1    3    3    0    0 -0.15779225044E+01  0.10544445572E+02  0.21289376475E+02  0.23809929080E+02  0.51100000000E-03 0.  1.
         12    1    3    3    0    0 -0.69724453756E+01  0.49579950568E+01  0.63262028400E+01  0.10640373672E+02  0.00000000000E+00 0. -1.
</event>
<event>
 7    1  0.4994895E-011  0.5052886E+02  0.7816164E-02  0.1300439E+00
        -11   -1    0    0    0    0  0.00000000000E+00  0.00000000000E+00  0.45593999997E+02  0.45594000000E+02  0.51100000000E-03 0.  1.
         11   -1    0    0    0    0 -0.00000000000E+00 -0.00000000000E+00 -0.45593999997E+02  0.45594000000E+02  0.51100000000E-03 0. -1.
    9900012    2    1    2    0    0 -0.96884653922E+01  0.27677465138E+02 -0.28164825560E+02  0.50528857892E+02  0.29999994048E+02 0.  0.
        -12    1    1    2    0    0  0.96884653922E+01 -0.27677465138E+02  0.28164825560E+02  0.40659142108E+02  0.00000000000E+00 0.  1.
         11    1    3    3    0    0 -0.12631588028E+02  0.25647312066E+02 -0.19809004099E+02  0.34781292040E+02  0.51100000000E-03 0. -1.
        -11    1    3    3    0    0  0.78283997160E+01  0.13070484558E+01 -0.30595320229E+01  0.85060539759E+01  0.51100000000E-03 0.  1.
         12    1    3    3    0    0 -0.48852770799E+01  0.72310461665E+00 -0.52962894378E+01  0.72415118755E+01  0.00000000000E+00 0. -1.
</event>
<event>
 7    1  0.4994895E-011  0.5052885E+02  0.7816164E-02  0.1300439E+00
        -11   -1    0    0    0    0  0.00000000000E+00  0.00000000000E+00  0.45593999997E+02  0.45594000000E+02  0.51100000000E-03 0.  1.
         11   -1    0    0    0    0 -0.00000000000E+00 -0.00000000000E+00 -0.45593999997E+02  0.45594000000E+02  0.51100000000E-03 0. -1.
    9900012    2    1    2    0    0 -0.73170085432E+01 -0.89419593567E+01 -0.38982937554E+02  0.50528847629E+02  0.29999962854E+02 0.  0.
        -12    1    1    2    0    0  0.73170085432E+01  0.89419593567E+01  0.38982937554E+02  0.40659152371E+02  0.00000000000E+00 0.  1.
         11    1    3    3    0    0 -0.99733021574E+00 -0.41152588528E+01 -0.41769766582E+02  0.41983847175E+02  0.51100000000E-03 0. -1.
        -11    1    3    3    0    0 -0.15131206302E+01 -0.10316835728E+01  0.12914613506E+01  0.22409323321E+01  0.51100000000E-03 0.  1.
         12    1    3    3    0    0 -0.48065576973E+01 -0.37950169310E+01  0.14953676776E+01  0.63040681227E+01  0.00000000000E+00 0. -1.
</event>
<event>
 7    1  0.4994895E-011  0.5052886E+02  0.7816164E-02  0.1300439E+00
        -11   -1    0    0    0    0  0.00000000000E+00  0.00000000000E+00  0.45593999997E+02  0.45594000000E+02  0.51100000000E-03 0.  1.
         11   -1    0    0    0    0 -0.00000000000E+00 -0.00000000000E+00 -0.45593999997E+02  0.45594000000E+02  0.51100000000E-03 0. -1.
    9900012    2    1    2    0    0  0.44117334860E+01  0.37930364321E+02 -0.13963869873E+02  0.50528860908E+02  0.30000003216E+02 0.  0.
        -12    1    1    2    0    0 -0.44117334860E+01 -0.37930364321E+02  0.13963869873E+02  0.40659139092E+02  0.00000000000E+00 0.  1.
         11    1    3    3    0    0  0.12854307025E+02  0.32436812379E+02 -0.45674528751E+01  0.35188657724E+02  0.51100000000E-03 0. -1.
        -11    1    3    3    0    0 -0.22172097349E+01  0.47478924666E+01 -0.67236252960E+01  0.85244143063E+01  0.51100000000E-03 0.  1.
         12    1    3    3    0    0 -0.62253638039E+01  0.74565947570E+00 -0.26727917020E+01  0.68157888778E+01  0.00000000000E+00 0. -1.
</event>
<event>
 7    1  0.4994895E-011  0.5052883E+02  0.7816164E-02  0.1300439E+00
        -11   -1    0    0    0    0  0.00000000000E+00  0.00000000000E+00  0.45593999997E+02  0.45594000000E+02  0.51100000000E-03 0.  1.
         11   -1    0    0    0    0 -0.00000000000E+00 -0.00000000000E+00 -0.45593999997E+02  0.45594000000E+02  0.51100000000E-03 0. -1.
    9900012    2    1    2    0    0  0.39883866774E+01 -0.36295876834E+02 -0.17884911820E+02  0.50528831608E+02  0.29999914157E+02 0.  0.
        -12    1    1    2    0    0 -0.39883866774E+01  0.36295876834E+02  0.17884911820E+02  0.40659168392E+02  0.00000000000E+00 0.  1.
         11    1    3    3    0    0  0.11241458808E+02 -0.30980444069E+02 -0.98954081860E+01  0.34410425953E+02  0.51100000000E-03 0. -1.
        -11    1    3    3    0    0 -0.34077682370E+01 -0.80855682970E+01 -0.71208468251E+01  0.11300254812E+02  0.51100000000E-03 0.  1.
         12    1    3    3    0    0 -0.38453038940E+01  0.27701355314E+01 -0.86865680939E+00  0.48181508436E+01  0.00000000000E+00 0. -1.
</event>
<event>
 7    1  0.4994895E-011  0.5052887E+02  0.7816164E-02  0.1300439E+00
        -11   -1    0    0    0    0  0.00000000000E+00  0.00000000000E+00  0.45593999997E+02  0.45594000000E+02  0.51100000000E-03 0. -1.
         11   -1    0    0    0    0 -0.00000000000E+00 -0.00000000000E+00 -0.45593999997E+02  0.45594000000E+02  0.51100000000E-03 0.  1.
    9900012    2    1    2    0    0  0.39731529562E+02  0.62814458119E+01  0.59256921368E+01  0.50528870274E+02  0.30000031684E+02 0.  0.
        -12    1    1    2    0    0 -0.39731529562E+02 -0.62814458119E+01 -0.59256921368E+01  0.40659129726E+02  0.00000000000E+00 0.  1.
         11    1    3    3    0    0 -0.59439753820E+00  0.82531627201E+01  0.30420709944E+01  0.88160194824E+01  0.51100000000E-03 0. -1.
        -11    1    3    3    0    0  0.13119739129E+02 -0.52966260517E+01  0.20072619736E+01  0.14290238040E+02  0.51100000000E-03 0.  1.
         12    1    3    3    0    0  0.27206187971E+02  0.33249091435E+01  0.87635916880E+00  0.27422612751E+02  0.00000000000E+00 0. -1.
</event>
<event>
 7    1  0.4994895E-011  0.5052886E+02  0.7816164E-02  0.1300439E+00
        -11   -1    0    0    0    0  0.00000000000E+00  0.00000000000E+00  0.45593999997E+02  0.45594000000E+02  0.51100000000E-03 0.  1.
         11   -1    0    0    0    0 -0.00000000000E+00 -0.00000000000E+00 -0.45593999997E+02  0.45594000000E+02  0.51100000000E-03 0. -1.
    9900012    2    1    2    0    0  0.61175780251E+01 -0.16005211729E+02 -0.36872404095E+02  0.50528858997E+02  0.29999997407E+02 0.  0.
        -12    1    1    2    0    0 -0.61175780251E+01  0.16005211729E+02  0.36872404095E+02  0.40659141003E+02  0.00000000000E+00 0.  1.
         11    1    3    3    0    0  0.32563507659E+01  0.66583235713E+00 -0.11033630585E+02  0.11523374384E+02  0.51100000000E-03 0. -1.
        -11    1    3    3    0    0  0.32310558889E+01 -0.21828991638E+02 -0.14123247239E+02  0.26199441042E+02  0.51100000000E-03 0.  1.
        -12    1    3    3    0    0 -0.36982862964E+00  0.51579475514E+01 -0.11715526270E+02  0.12806043571E+02  0.00000000000E+00 0.  1.
</event>
<event>
 7    1  0.4994895E-011  0.5052885E+02  0.7816164E-02  0.1300439E+00
        -11   -1    0    0    0    0  0.00000000000E+00  0.00000000000E+00  0.45593999997E+02  0.45594000000E+02  0.51100000000E-03 0.  1.
         11   -1    0    0    0    0 -0.00000000000E+00 -0.00000000000E+00 -0.45593999997E+02  0.45594000000E+02  0.51100000000E-03 0. -1.
    9900012    2    1    2    0    0 -0.40387211708E+02 -0.42250167327E+01 -0.20465879783E+01  0.50528853940E+02  0.29999982037E+02 0.  0.
        -12    1    1    2    0    0  0.40387211708E+02  0.42250167327E+01  0.20465879783E+01  0.40659146060E+02  0.00000000000E+00 0.  1.
         11    1    3    3    0    0 -0.17406756247E+02  0.11726684307E+02 -0.65855224390E+01  0.21997258782E+02  0.51100000000E-03 0. -1.
        -11    1    3    3    0    0 -0.16733472224E+02 -0.10028761959E+02  0.39385914644E+01  0.19902202444E+02  0.51100000000E-03 0.  1.
         12    1    3    3    0    0 -0.62469832369E+01 -0.59229390803E+01  0.60034299632E+00  0.86293927147E+01  0.00000000000E+00 0. -1.
</event>
<event>
 7    1  0.4994895E-011  0.5052886E+02  0.7816164E-02  0.1300439E+00
        -11   -1    0    0    0    0  0.00000000000E+00  0.00000000000E+00  0.45593999997E+02  0.45594000000E+02  0.51100000000E-03 0.  1.
         11   -1    0    0    0    0 -0.00000000000E+00 -0.00000000000E+00 -0.45593999997E+02  0.45594000000E+02  0.51100000000E-03 0. -1.
    9900012    2    1    2    0    0 -0.25554732555E+01  0.13133958485E+02 -0.38394457522E+02  0.50528859854E+02  0.30000000011E+02 0.  0.
        -12    1    1    2    0    0  0.25554732555E+01 -0.13133958485E+02  0.38394457522E+02  0.40659140146E+02  0.00000000000E+00 0.  1.
         11    1    3    3    0    0  0.48746488437E+01 -0.60836355688E+01 -0.18760070910E+02  0.20315341097E+02  0.51100000000E-03 0. -1.
        -11    1    3    3    0    0 -0.57966895343E+01  0.86913256255E+01 -0.37737249416E+01  0.11107733832E+02  0.51100000000E-03 0.  1.
         12    1    3    3    0    0 -0.16334325649E+01  0.10526268429E+02 -0.15860661670E+02  0.19105784924E+02  0.00000000000E+00 0. -1.
</event>
<event>
 7    1  0.4994895E-011  0.5052886E+02  0.7816164E-02  0.1300439E+00
        -11   -1    0    0    0    0  0.00000000000E+00  0.00000000000E+00  0.45593999997E+02  0.45594000000E+02  0.51100000000E-03 0. -1.
         11   -1    0    0    0    0 -0.00000000000E+00 -0.00000000000E+00 -0.45593999997E+02  0.45594000000E+02  0.51100000000E-03 0.  1.
    9900012    2    1    2    0    0 -0.32974907223E+02 -0.14653339555E+02  0.18737673770E+02  0.50528864683E+02  0.30000014689E+02 0.  0.
        -12    1    1    2    0    0  0.32974907223E+02  0.14653339555E+02 -0.18737673770E+02  0.40659135317E+02  0.00000000000E+00 0.  1.
         11    1    3    3    0    0 -0.87846825564E+01 -0.80173654086E+01  0.12308905409E+02  0.17116014383E+02  0.51100000000E-03 0. -1.
        -11    1    3    3    0    0  0.11583014146E+01 -0.28875865712E+01 -0.45694691703E+01  0.55280979670E+01  0.51100000000E-03 0.  1.
        -12    1    3    3    0    0 -0.25348526081E+02 -0.37483875757E+01  0.10998237531E+02  0.27884752333E+02  0.00000000000E+00 0.  1.
</event>
<event>
 7    1  0.4994895E-011  0.5052884E+02  0.7816164E-02  0.1300439E+00
        -11   -1    0    0    0    0  0.00000000000E+00  0.00000000000E+00  0.45593999997E+02  0.45594000000E+02  0.51100000000E-03 0.  1.
         11   -1    0    0    0    0 -0.00000000000E+00 -0.00000000000E+00 -0.45593999997E+02  0.45594000000E+02  0.51100000000E-03 0. -1.
    9900012    2    1    2    0    0 -0.65052119735E+01 -0.34031756021E+02 -0.21276499004E+02  0.50528836082E+02  0.29999927754E+02 0.  0.
        -12    1    1    2    0    0  0.65052119735E+01  0.34031756021E+02  0.21276499004E+02  0.40659163918E+02  0.00000000000E+00 0.  1.
         11    1    3    3    0    0 -0.87663039197E+01 -0.24727992201E+02 -0.27347591374E+02  0.37897393537E+02  0.51100000000E-03 0. -1.
        -11    1    3    3    0    0  0.13631814430E+01 -0.91454399863E+01  0.34716315363E+01  0.98767181784E+01  0.51100000000E-03 0.  1.
         12    1    3    3    0    0  0.89791050323E+00 -0.15832383284E+00  0.25994608335E+01  0.27547243660E+01  0.00000000000E+00 0. -1.
</event>
<event>
 7    1  0.4994895E-011  0.5052885E+02  0.7816164E-02  0.1300439E+00
        -11   -1    0    0    0    0  0.00000000000E+00  0.00000000000E+00  0.45593999997E+02  0.45594000000E+02  0.51100000000E-03 0. -1.
         11   -1    0    0    0    0 -0.00000000000E+00 -0.00000000000E+00 -0.45593999997E+02  0.45594000000E+02  0.51100000000E-03 0.  1.
    9900012    2    1    2    0    0  0.18788738465E+02 -0.16253329481E+02  0.32186623395E+02  0.50528854192E+02  0.29999982801E+02 0.  0.
        -12    1    1    2    0    0 -0.18788738465E+02  0.16253329481E+02 -0.32186623395E+02  0.40659145808E+02  0.00000000000E+00 0.  1.
         11    1    3    3    0    0  0.42270206308E+01 -0.34584408431E+01  0.94895121939E+01  0.10948943256E+02  0.51100000000E-03 0. -1.
        -11    1    3    3    0    0  0.13048937109E+02 -0.10188185215E+02 -0.12901041226E+00  0.16555679436E+02  0.51100000000E-03 0.  1.
        -12    1    3    3    0    0  0.15127807252E+01 -0.26067034222E+01  0.22826121613E+02  0.23024231500E+02  0.00000000000E+00 0.  1.
</event>
<event>
 7    1  0.4994895E-011  0.5052886E+02  0.7816164E-02  0.1300439E+00
        -11   -1    0    0    0    0  0.00000000000E+00  0.00000000000E+00  0.45593999997E+02  0.45594000000E+02  0.51100000000E-03 0. -1.
         11   -1    0    0    0    0 -0.00000000000E+00 -0.00000000000E+00 -0.45593999997E+02  0.45594000000E+02  0.51100000000E-03 0.  1.
    9900012    2    1    2    0    0  0.25669624047E+02  0.26801263438E+02 -0.16611090595E+02  0.50528860175E+02  0.30000000988E+02 0.  0.
        -12    1    1    2    0    0 -0.25669624047E+02 -0.26801263438E+02  0.16611090595E+02  0.40659139825E+02  0.00000000000E+00 0.  1.
         11    1    3    3    0    0  0.11247844711E+02  0.15266937907E+02 -0.35870830811E+01  0.19299237524E+02  0.51100000000E-03 0. -1.
        -11    1    3    3    0    0  0.85473130164E+01 -0.50432734534E+01 -0.85065432354E+01  0.13071053707E+02  0.51100000000E-03 0.  1.
        -12    1    3    3    0    0  0.58744663194E+01  0.16577598984E+02 -0.45174642782E+01  0.18158568945E+02  0.00000000000E+00 0.  1.
</event>
<event>
 7    1  0.4994895E-011  0.5052886E+02  0.7816164E-02  0.1300439E+00
        -11   -1    0    0    0    0  0.00000000000E+00  0.00000000000E+00  0.45593999997E+02  0.45594000000E+02  0.51100000000E-03 0. -1.
         11   -1    0    0    0    0 -0.00000000000E+00 -0.00000000000E+00 -0.45593999997E+02  0.45594000000E+02  0.51100000000E-03 0.  1.
    9900012    2    1    2    0    0  0.38045295326E+02  0.69535433736E+01  0.12544693113E+02  0.50528860963E+02  0.30000003383E+02 0.  0.
        -12    1    1    2    0    0 -0.38045295326E+02 -0.69535433736E+01 -0.12544693113E+02  0.40659139037E+02  0.00000000000E+00 0.  1.
         11    1    3    3    0    0  0.37369757342E+02  0.39287580713E+01  0.18229362581E+01  0.37619901656E+02  0.51100000000E-03 0. -1.
        -11    1    3    3    0    0 -0.25116052913E+01  0.24365579713E+01  0.77852544099E+01  0.85355235560E+01  0.51100000000E-03 0.  1.
         12    1    3    3    0    0  0.31871432762E+01  0.58822733103E+00  0.29365024454E+01  0.43734357509E+01  0.00000000000E+00 0. -1.
</event>
<event>
 7    1  0.4994895E-011  0.5052887E+02  0.7816164E-02  0.1300439E+00
        -11   -1    0    0    0    0  0.00000000000E+00  0.00000000000E+00  0.45593999997E+02  0.45594000000E+02  0.51100000000E-03 0.  1.
         11   -1    0    0    0    0 -0.00000000000E+00 -0.00000000000E+00 -0.45593999997E+02  0.45594000000E+02  0.51100000000E-03 0. -1.
    9900012    2    1    2    0    0  0.24262982253E+02  0.23426972671E+02 -0.22707924081E+02  0.50528866064E+02  0.30000018889E+02 0.  0.
        -12    1    1    2    0    0 -0.24262982253E+02 -0.23426972671E+02  0.22707924081E+02  0.40659133936E+02  0.00000000000E+00 0.  1.
         11    1    3    3    0    0  0.15115297975E+02  0.90700697752E+01 -0.82217463957E+01  0.19450848636E+02  0.51100000000E-03 0. -1.
        -11    1    3    3    0    0 -0.40972962581E+01  0.96251989309E+01 -0.13359920374E+02  0.16968198601E+02  0.51100000000E-03 0.  1.
        -12    1    3    3    0    0  0.13244980536E+02  0.47317039648E+01 -0.11262573112E+01  0.14109818828E+02  0.00000000000E+00 0.  1.
</event>
<event>
 7    1  0.4994895E-011  0.5052885E+02  0.7816164E-02  0.1300439E+00
        -11   -1    0    0    0    0  0.00000000000E+00  0.00000000000E+00  0.45593999997E+02  0.45594000000E+02  0.51100000000E-03 0.  1.
         11   -1    0    0    0    0 -0.00000000000E+00 -0.00000000000E+00 -0.45593999997E+02  0.45594000000E+02  0.51100000000E-03 0. -1.
    9900012    2    1    2    0    0 -0.26225323724E+02 -0.30881526759E+02 -0.34249187300E+01  0.50528851365E+02  0.29999974209E+02 0.  0.
        -12    1    1    2    0    0  0.26225323724E+02  0.30881526759E+02  0.34249187300E+01  0.40659148635E+02  0.00000000000E+00 0.  1.
         11    1    3    3    0    0  0.47352387514E+01 -0.86335024163E+01 -0.63197831549E+01  0.11700406377E+02  0.51100000000E-03 0.  1.
        -11    1    3    3    0    0 -0.55364033829E+01 -0.25898326444E+01 -0.17476536545E+01  0.63571447286E+01  0.51100000000E-03 0. -1.
         12    1    3    3    0    0 -0.25424159092E+02 -0.19658191699E+02  0.46425180794E+01  0.32471300259E+02  0.00000000000E+00 0. -1.
</event>
<event>
 7    1  0.4994895E-011  0.5052888E+02  0.7816164E-02  0.1300439E+00
        -11   -1    0    0    0    0  0.00000000000E+00  0.00000000000E+00  0.45593999997E+02  0.45594000000E+02  0.51100000000E-03 0. -1.
         11   -1    0    0    0    0 -0.00000000000E+00 -0.00000000000E+00 -0.45593999997E+02  0.45594000000E+02  0.51100000000E-03 0.  1.
    9900012    2    1    2    0    0  0.33389305377E+02 -0.23103627192E+02 -0.21309728440E+01  0.50528876199E+02  0.30000049695E+02 0.  0.
        -12    1    1    2    0    0 -0.33389305377E+02  0.23103627192E+02  0.21309728440E+01  0.40659123801E+02  0.00000000000E+00 0.  1.
         11    1    3    3    0    0  0.12624438029E+02 -0.11734225098E+02 -0.69723602598E+01  0.18592532965E+02  0.51100000000E-03 0. -1.
        -11    1    3    3    0    0  0.13396761662E+02  0.43476612179E+01  0.35783014116E+01  0.14532020587E+02  0.51100000000E-03 0.  1.
        -12    1    3    3    0    0  0.73681056865E+01 -0.15717063312E+02  0.12630860042E+01  0.17404322647E+02  0.00000000000E+00 0.  1.
</event>
<event>
 7    1  0.4994895E-011  0.5052888E+02  0.7816164E-02  0.1300439E+00
        -11   -1    0    0    0    0  0.00000000000E+00  0.00000000000E+00  0.45593999997E+02  0.45594000000E+02  0.51100000000E-03 0.  1.
         11   -1    0    0    0    0 -0.00000000000E+00 -0.00000000000E+00 -0.45593999997E+02  0.45594000000E+02  0.51100000000E-03 0. -1.
    9900012    2    1    2    0    0  0.29269119066E+02 -0.11819612934E+02 -0.25627712296E+02  0.50528877797E+02  0.30000054552E+02 0.  0.
        -12    1    1    2    0    0 -0.29269119066E+02  0.11819612934E+02  0.25627712296E+02  0.40659122203E+02  0.00000000000E+00 0.  1.
         11    1    3    3    0    0  0.16469360787E+02 -0.82993598148E+01 -0.21706772219E+02  0.28483384253E+02  0.51100000000E-03 0. -1.
        -11    1    3    3    0    0 -0.19782070427E+01 -0.63401848341E+01 -0.92942030061E+00  0.67063454423E+01  0.51100000000E-03 0.  1.
         12    1    3    3    0    0  0.14777965321E+02  0.28199317147E+01 -0.29915197756E+01  0.15339148102E+02  0.00000000000E+00 0. -1.
</event>
<event>
 7    1  0.4994895E-011  0.5052887E+02  0.7816164E-02  0.1300439E+00
        -11   -1    0    0    0    0  0.00000000000E+00  0.00000000000E+00  0.45593999997E+02  0.45594000000E+02  0.51100000000E-03 0. -1.
         11   -1    0    0    0    0 -0.00000000000E+00 -0.00000000000E+00 -0.45593999997E+02  0.45594000000E+02  0.51100000000E-03 0.  1.
    9900012    2    1    2    0    0 -0.10260649616E+02 -0.27682337764E+02  0.27956614185E+02  0.50528867799E+02  0.30000024162E+02 0.  0.
        -12    1    1    2    0    0  0.10260649616E+02  0.27682337764E+02 -0.27956614185E+02  0.40659132201E+02  0.00000000000E+00 0.  1.
         11    1    3    3    0    0  0.42315727198E-01 -0.14635632153E+02  0.12636412436E+01  0.14690143247E+02  0.51100000000E-03 0. -1.
        -11    1    3    3    0    0  0.27639357306E+01 -0.42397958475E+01  0.16035865795E+02  0.16815594001E+02  0.51100000000E-03 0.  1.
         12    1    3    3    0    0 -0.13066901074E+02 -0.88069097633E+01  0.10657107146E+02  0.19023130551E+02  0.00000000000E+00 0. -1.
</event>
<event>
 7    1  0.4994895E-011  0.5052887E+02  0.7816164E-02  0.1300439E+00
        -11   -1    0    0    0    0  0.00000000000E+00  0.00000000000E+00  0.45593999997E+02  0.45594000000E+02  0.51100000000E-03 0.  1.
         11   -1    0    0    0    0 -0.00000000000E+00 -0.00000000000E+00 -0.45593999997E+02  0.45594000000E+02  0.51100000000E-03 0. -1.
    9900012    2    1    2    0    0 -0.12106059059E+02 -0.15370370737E+01 -0.38784611363E+02  0.50528865387E+02  0.30000016829E+02 0.  0.
        -12    1    1    2    0    0  0.12106059059E+02  0.15370370737E+01  0.38784611363E+02  0.40659134613E+02  0.00000000000E+00 0.  1.
         11    1    3    3    0    0 -0.14219149326E+02  0.25501674545E+01 -0.68513076966E+01  0.15988370117E+02  0.51100000000E-03 0. -1.
        -11    1    3    3    0    0  0.32838247641E+01 -0.53530354465E+01 -0.64619262658E+01  0.90108259832E+01  0.51100000000E-03 0.  1.
         12    1    3    3    0    0 -0.11707344981E+01  0.12658309183E+01 -0.25471377401E+02  0.25529669286E+02  0.00000000000E+00 0. -1.
</event>
<event>
 7    1  0.4994895E-011  0.5052886E+02  0.7816164E-02  0.1300439E+00
        -11   -1    0    0    0    0  0.00000000000E+00  0.00000000000E+00  0.45593999997E+02  0.45594000000E+02  0.51100000000E-03 0. -1.
         11   -1    0    0    0    0 -0.00000000000E+00 -0.00000000000E+00 -0.45593999997E+02  0.45594000000E+02  0.51100000000E-03 0.  1.
    9900012    2    1    2    0    0 -0.12926810779E+02 -0.25418645692E+02  0.28981991352E+02  0.50528858242E+02  0.29999995112E+02 0.  0.
        -12    1    1    2    0    0  0.12926810779E+02  0.25418645692E+02 -0.28981991352E+02  0.40659141758E+02  0.00000000000E+00 0.  1.
         11    1    3    3    0    0  0.52293651701E+00 -0.69950541823E+01  0.10744872187E+02  0.12831855836E+02  0.51100000000E-03 0. -1.
        -11    1    3    3    0    0 -0.19245021628E+02 -0.15889934165E+02  0.90587064750E+01  0.26550348934E+02  0.51100000000E-03 0.  1.
        -12    1    3    3    0    0  0.57952743317E+01 -0.25336573447E+01  0.91784126906E+01  0.11146653473E+02  0.00000000000E+00 0.  1.
</event>
<event>
 7    1  0.5393373E-011  0.5052886E+02  0.7816164E-02  0.1300439E+00
        -11   -1    0    0    0    0  0.00000000000E+00  0.00000000000E+00  0.45593999997E+02  0.45594000000E+02  0.51100000000E-03 0. -1.
         11   -1    0    0    0    0 -0.00000000000E+00 -0.00000000000E+00 -0.45593999997E+02  0.45594000000E+02  0.51100000000E-03 0.  1.
    9900012    2    1    2    0    0 -0.32417808937E+02  0.20449590739E+02  0.13567077263E+02  0.50528859783E+02  0.29999999798E+02 0.  0.
        -12    1    1    2    0    0  0.32417808937E+02 -0.20449590739E+02 -0.13567077263E+02  0.40659140217E+02  0.00000000000E+00 0.  1.
         11    1    3    3    0    0 -0.26213967223E+02  0.23461481706E+02  0.38885388355E+01  0.35393981635E+02  0.51100000000E-03 0. -1.
        -11    1    3    3    0    0  0.18125930365E+01 -0.30349348866E+01  0.21500281202E+01  0.41375046176E+01  0.51100000000E-03 0.  1.
        -12    1    3    3    0    0 -0.80164347508E+01  0.23043919380E-01  0.75285103073E+01  0.10997373531E+02  0.00000000000E+00 0.  1.
</event>
<event>
 7    1  0.4994895E-011  0.5052887E+02  0.7816164E-02  0.1300439E+00
        -11   -1    0    0    0    0  0.00000000000E+00  0.00000000000E+00  0.45593999997E+02  0.45594000000E+02  0.51100000000E-03 0. -1.
         11   -1    0    0    0    0 -0.00000000000E+00 -0.00000000000E+00 -0.45593999997E+02  0.45594000000E+02  0.51100000000E-03 0.  1.
    9900012    2    1    2    0    0 -0.36357143461E+02 -0.75786766743E+01 -0.16549523709E+02  0.50528868729E+02  0.30000026988E+02 0.  0.
        -12    1    1    2    0    0  0.36357143461E+02  0.75786766743E+01  0.16549523709E+02  0.40659131271E+02  0.00000000000E+00 0.  1.
         11    1    3    3    0    0 -0.31071532699E+02 -0.82265511522E+01 -0.73758602185E+00  0.32150588199E+02  0.51100000000E-03 0. -1.
        -11    1    3    3    0    0 -0.72881297345E+01  0.50590722148E+00 -0.13164062402E+02  0.15055408209E+02  0.51100000000E-03 0.  1.
         12    1    3    3    0    0  0.20025189729E+01  0.14196725638E+00 -0.26478752846E+01  0.33228723210E+01  0.00000000000E+00 0. -1.
</event>
<event>
 7    1  0.4994895E-011  0.5052885E+02  0.7816164E-02  0.1300439E+00
        -11   -1    0    0    0    0  0.00000000000E+00  0.00000000000E+00  0.45593999997E+02  0.45594000000E+02  0.51100000000E-03 0. -1.
         11   -1    0    0    0    0 -0.00000000000E+00 -0.00000000000E+00 -0.45593999997E+02  0.45594000000E+02  0.51100000000E-03 0.  1.
    9900012    2    1    2    0    0 -0.28098410594E+02 -0.24403472088E+02  0.16374257178E+02  0.50528850649E+02  0.29999972032E+02 0.  0.
        -12    1    1    2    0    0  0.28098410594E+02  0.24403472088E+02 -0.16374257178E+02  0.40659149351E+02  0.00000000000E+00 0.  1.
         11    1    3    3    0    0 -0.16206400403E+02 -0.25573189749E+02  0.13027603724E+02  0.32959883299E+02  0.51100000000E-03 0. -1.
        -11    1    3    3    0    0 -0.84853238117E+01  0.25320519562E+00  0.80436597219E+01  0.11694669514E+02  0.51100000000E-03 0.  1.
         12    1    3    3    0    0 -0.34066863785E+01  0.91651246571E+00 -0.46970062684E+01  0.58742978361E+01  0.00000000000E+00 0. -1.
</event>
<event>
 7    1  0.4994895E-011  0.5052886E+02  0.7816164E-02  0.1300439E+00
        -11   -1    0    0    0    0  0.00000000000E+00  0.00000000000E+00  0.45593999997E+02  0.45594000000E+02  0.51100000000E-03 0.  1.
         11   -1    0    0    0    0 -0.00000000000E+00 -0.00000000000E+00 -0.45593999997E+02  0.45594000000E+02  0.51100000000E-03 0. -1.
    9900012    2    1    2    0    0  0.49593257836E+01 -0.37911727184E+02 -0.13830110314E+02  0.50528856851E+02  0.29999990883E+02 0.  0.
        -12    1    1    2    0    0 -0.49593257836E+01  0.37911727184E+02  0.13830110314E+02  0.40659143149E+02  0.00000000000E+00 0.  1.
         11    1    3    3    0    0 -0.17605359903E+00 -0.27988088018E+02  0.16091301051E+01  0.28034859830E+02  0.51100000000E-03 0. -1.
        -11    1    3    3    0    0  0.62776788379E+01 -0.15531999803E+01 -0.22814298298E+01  0.68575946293E+01  0.51100000000E-03 0.  1.
         12    1    3    3    0    0 -0.11422994553E+01 -0.83704391864E+01 -0.13157810590E+02  0.15636402391E+02  0.00000000000E+00 0. -1.
</event>
<event>
 7    1  0.4994895E-011  0.5052887E+02  0.7816164E-02  0.1300439E+00
        -11   -1    0    0    0    0  0.00000000000E+00  0.00000000000E+00  0.45593999997E+02  0.45594000000E+02  0.51100000000E-03 0.  1.
         11   -1    0    0    0    0 -0.00000000000E+00 -0.00000000000E+00 -0.45593999997E+02  0.45594000000E+02  0.51100000000E-03 0. -1.
    9900012    2    1    2    0    0  0.39000906188E+02 -0.90950699323E+01 -0.70266810230E+01  0.50528865396E+02  0.30000016856E+02 0.  0.
        -12    1    1    2    0    0 -0.39000906188E+02  0.90950699323E+01  0.70266810230E+01  0.40659134604E+02  0.00000000000E+00 0.  1.
         11    1    3    3    0    0  0.22479910467E+02 -0.58478773314E+01  0.16232305991E+01  0.23284735810E+02  0.51100000000E-03 0.  1.
        -11    1    3    3    0    0  0.15040767830E+02 -0.86668913967E+01 -0.11619834314E+02  0.20889237735E+02  0.51100000000E-03 0. -1.
        -12    1    3    3    0    0  0.14802278916E+01  0.54196987959E+01  0.29699226916E+01  0.63548918514E+01  0.00000000000E+00 0.  1.
</event>
<event>
 7    1  0.4994895E-011  0.5052886E+02  0.7816164E-02  0.1300439E+00
        -11   -1    0    0    0    0  0.00000000000E+00  0.00000000000E+00  0.45593999997E+02  0.45594000000E+02  0.51100000000E-03 0.  1.
         11   -1    0    0    0    0 -0.00000000000E+00 -0.00000000000E+00 -0.45593999997E+02  0.45594000000E+02  0.51100000000E-03 0. -1.
    9900012    2    1    2    0    0 -0.87077471341E+01  0.34940089968E+02 -0.18882023211E+02  0.50528861449E+02  0.30000004861E+02 0.  0.
        -12    1    1    2    0    0  0.87077471341E+01 -0.34940089968E+02  0.18882023211E+02  0.40659138551E+02  0.00000000000E+00 0.  1.
         11    1    3    3    0    0  0.17840559771E+00  0.61946788943E+01 -0.72938954981E+01  0.95711434510E+01  0.51100000000E-03 0. -1.
        -11    1    3    3    0    0 -0.15841957398E+02  0.17297358753E+02 -0.32747907385E+00  0.23457908620E+02  0.51100000000E-03 0.  1.
        -12    1    3    3    0    0  0.69558046664E+01  0.11448052321E+02 -0.11260648639E+02  0.17499809378E+02  0.00000000000E+00 0.  1.
</event>
<event>
 7    1  0.4994895E-011  0.5052882E+02  0.7816164E-02  0.1300439E+00
        -11   -1    0    0    0    0  0.00000000000E+00  0.00000000000E+00  0.45593999997E+02  0.45594000000E+02  0.51100000000E-03 0.  1.
         11   -1    0    0    0    0 -0.00000000000E+00 -0.00000000000E+00 -0.45593999997E+02  0.45594000000E+02  0.51100000000E-03 0. -1.
    9900012    2    1    2    0    0 -0.12673854390E+02  0.16667992335E+02 -0.34852835133E+02  0.50528823048E+02  0.29999888137E+02 0.  0.
        -12    1    1    2    0    0  0.12673854390E+02 -0.16667992335E+02  0.34852835133E+02  0.40659176952E+02  0.00000000000E+00 0.  1.
         11    1    3    3    0    0 -0.12462604019E+01  0.27408486165E+00 -0.21251836463E+01  0.24788491870E+01  0.51100000000E-03 0. -1.
        -11    1    3    3    0    0 -0.36999552897E+01 -0.50794492339E+01 -0.21911933699E+02  0.22795247583E+02  0.51100000000E-03 0.  1.
        -12    1    3    3    0    0 -0.77276386984E+01  0.21473356707E+02 -0.10815717788E+02  0.25254726278E+02  0.00000000000E+00 0.  1.
</event>
<event>
 7    1  0.4994895E-011  0.5052884E+02  0.7816164E-02  0.1300439E+00
        -11   -1    0    0    0    0  0.00000000000E+00  0.00000000000E+00  0.45593999997E+02  0.45594000000E+02  0.51100000000E-03 0.  1.
         11   -1    0    0    0    0 -0.00000000000E+00 -0.00000000000E+00 -0.45593999997E+02  0.45594000000E+02  0.51100000000E-03 0. -1.
    9900012    2    1    2    0    0 -0.31072534827E+02  0.21170622319E+02 -0.15474796277E+02  0.50528843716E+02  0.29999950959E+02 0.  0.
        -12    1    1    2    0    0  0.31072534827E+02 -0.21170622319E+02  0.15474796277E+02  0.40659156284E+02  0.00000000000E+00 0.  1.
         11    1    3    3    0    0 -0.95223887662E+01  0.10065931417E+02 -0.76007879614E+00  0.13877196516E+02  0.51100000000E-03 0. -1.
        -11    1    3    3    0    0 -0.10676931857E+02  0.92676761047E+01 -0.19944315807E+02  0.24447135364E+02  0.51100000000E-03 0.  1.
        -12    1    3    3    0    0 -0.10873214204E+02  0.18370147965E+01  0.52295983265E+01  0.12204511835E+02  0.00000000000E+00 0.  1.
</event>
<event>
 7    1  0.4994895E-011  0.5052890E+02  0.7816164E-02  0.1300439E+00
        -11   -1    0    0    0    0  0.00000000000E+00  0.00000000000E+00  0.45593999997E+02  0.45594000000E+02  0.51100000000E-03 0. -1.
         11   -1    0    0    0    0 -0.00000000000E+00 -0.00000000000E+00 -0.45593999997E+02  0.45594000000E+02  0.51100000000E-03 0.  1.
    9900012    2    1    2    0    0  0.29870633691E+02  0.96742786223E+01  0.25832464796E+02  0.50528896943E+02  0.30000112749E+02 0.  0.
        -12    1    1    2    0    0 -0.29870633691E+02 -0.96742786223E+01 -0.25832464796E+02  0.40659103057E+02  0.00000000000E+00 0.  1.
         11    1    3    3    0    0  0.69585288775E+01  0.14560302143E+02  0.39098380942E+01  0.16604528202E+02  0.51100000000E-03 0. -1.
        -11    1    3    3    0    0  0.28169165268E+01 -0.32604011272E+01  0.23764508502E+00  0.43152879019E+01  0.51100000000E-03 0.  1.
         12    1    3    3    0    0  0.20095188287E+02 -0.16256223934E+01  0.21684981616E+02  0.29609080839E+02  0.00000000000E+00 0. -1.
</event>
<event>
 7    1  0.4994895E-011  0.5052887E+02  0.7816164E-02  0.1300439E+00
        -11   -1    0    0    0    0  0.00000000000E+00  0.00000000000E+00  0.45593999997E+02  0.45594000000E+02  0.51100000000E-03 0.  1.
         11   -1    0    0    0    0 -0.00000000000E+00 -0.00000000000E+00 -0.45593999997E+02  0.45594000000E+02  0.51100000000E-03 0. -1.
    9900012    2    1    2    0    0 -0.77111869704E+01  0.27906616465E+02 -0.28546866794E+02  0.50528865101E+02  0.30000015960E+02 0.  0.
        -12    1    1    2    0    0  0.77111869704E+01 -0.27906616465E+02  0.28546866794E+02  0.40659134899E+02  0.00000000000E+00 0.  1.
         11    1    3    3    0    0 -0.13009964705E+02  0.22697095447E+02 -0.31254944998E+02  0.40758912037E+02  0.51100000000E-03 0. -1.
        -11    1    3    3    0    0  0.36779364191E+01  0.56791799561E+01  0.22768547345E+00  0.67699440332E+01  0.51100000000E-03 0.  1.
         12    1    3    3    0    0  0.16208413155E+01 -0.46965893725E+00  0.24803927306E+01  0.30000090308E+01  0.00000000000E+00 0. -1.
</event>
<event>
 7    1  0.4994895E-011  0.5052884E+02  0.7816164E-02  0.1300439E+00
        -11   -1    0    0    0    0  0.00000000000E+00  0.00000000000E+00  0.45593999997E+02  0.45594000000E+02  0.51100000000E-03 0.  1.
         11   -1    0    0    0    0 -0.00000000000E+00 -0.00000000000E+00 -0.45593999997E+02  0.45594000000E+02  0.51100000000E-03 0. -1.
    9900012    2    1    2    0    0 -0.23704832238E+02 -0.32622209294E+02 -0.51999989635E+01  0.50528836213E+02  0.29999928152E+02 0.  0.
        -12    1    1    2    0    0  0.23704832238E+02  0.32622209294E+02  0.51999989635E+01  0.40659163787E+02  0.00000000000E+00 0.  1.
         11    1    3    3    0    0 -0.23349922300E+02 -0.11474414285E+02  0.52593647137E+01  0.26543209528E+02  0.51100000000E-03 0. -1.
        -11    1    3    3    0    0  0.16695742274E+01 -0.14111147071E+02 -0.60957646212E+01  0.15461898213E+02  0.51100000000E-03 0.  1.
        -12    1    3    3    0    0 -0.20244841655E+01 -0.70366479380E+01 -0.43635990560E+01  0.85237284718E+01  0.00000000000E+00 0.  1.
</event>
<event>
 7    1  0.4994895E-011  0.5052884E+02  0.7816164E-02  0.1300439E+00
        -11   -1    0    0    0    0  0.00000000000E+00  0.00000000000E+00  0.45593999997E+02  0.45594000000E+02  0.51100000000E-03 0.  1.
         11   -1    0    0    0    0 -0.00000000000E+00 -0.00000000000E+00 -0.45593999997E+02  0.45594000000E+02  0.51100000000E-03 0. -1.
    9900012    2    1    2    0    0 -0.27773133923E+02 -0.20523666562E+01 -0.29624450735E+02  0.50528840415E+02  0.29999940925E+02 0.  0.
        -12    1    1    2    0    0  0.27773133923E+02  0.20523666562E+01  0.29624450735E+02  0.40659159585E+02  0.00000000000E+00 0.  1.
         11    1    3    3    0    0 -0.14517269322E+02  0.58965414281E+01 -0.14688338561E+02  0.21477141321E+02  0.51100000000E-03 0. -1.
        -11    1    3    3    0    0 -0.18684361265E+01 -0.10207085420E+02 -0.31401369573E+00  0.10381437820E+02  0.51100000000E-03 0.  1.
        -12    1    3    3    0    0 -0.11387428474E+02  0.22581773361E+01 -0.14622098478E+02  0.18670261274E+02  0.00000000000E+00 0.  1.
</event>
<event>
 7    1  0.4994895E-011  0.5052886E+02  0.7816164E-02  0.1300439E+00
        -11   -1    0    0    0    0  0.00000000000E+00  0.00000000000E+00  0.45593999997E+02  0.45594000000E+02  0.51100000000E-03 0.  1.
         11   -1    0    0    0    0 -0.00000000000E+00 -0.00000000000E+00 -0.45593999997E+02  0.45594000000E+02  0.51100000000E-03 0. -1.
    9900012    2    1    2    0    0  0.31663635252E+02  0.24622714129E+02  0.66559431515E+01  0.50528862925E+02  0.30000009348E+02 0.  0.
        -12    1    1    2    0    0 -0.31663635252E+02 -0.24622714129E+02 -0.66559431515E+01  0.40659137075E+02  0.00000000000E+00 0.  1.
         11    1    3    3    0    0  0.73241652848E+01  0.22127381496E+02  0.13260048717E+01  0.23345721196E+02  0.51100000000E-03 0.  1.
        -11    1    3    3    0    0  0.20379775400E+02  0.61198672821E+01  0.45317804055E+01  0.21756034906E+02  0.51100000000E-03 0. -1.
        -12    1    3    3    0    0  0.39596945669E+01 -0.36245346491E+01  0.79815787431E+00  0.54271068239E+01  0.00000000000E+00 0.  1.
</event>
<event>
 7    1  0.4994895E-011  0.5052886E+02  0.7816164E-02  0.1300439E+00
        -11   -1    0    0    0    0  0.00000000000E+00  0.00000000000E+00  0.45593999997E+02  0.45594000000E+02  0.51100000000E-03 0.  1.
         11   -1    0    0    0    0 -0.00000000000E+00 -0.00000000000E+00 -0.45593999997E+02  0.45594000000E+02  0.51100000000E-03 0. -1.
    9900012    2    1    2    0    0  0.25686325166E+02 -0.24149437773E+02 -0.20252985558E+02  0.50528855035E+02  0.29999985363E+02 0.  0.
        -12    1    1    2    0    0 -0.25686325166E+02  0.24149437773E+02  0.20252985558E+02  0.40659144965E+02  0.00000000000E+00 0.  1.
         11    1    3    3    0    0  0.70425000557E+01 -0.21006156999E+01  0.15918025257E+01  0.75195231827E+01  0.51100000000E-03 0. -1.
        -11    1    3    3    0    0  0.60355883115E+00 -0.15899376284E+02 -0.17121841435E+02  0.23373316065E+02  0.51100000000E-03 0.  1.
        -12    1    3    3    0    0  0.18040266279E+02 -0.61494457885E+01 -0.47229466494E+01  0.19636015787E+02  0.00000000000E+00 0.  1.
</event>
<event>
 7    1  0.4994895E-011  0.5052887E+02  0.7816164E-02  0.1300439E+00
        -11   -1    0    0    0    0  0.00000000000E+00  0.00000000000E+00  0.45593999997E+02  0.45594000000E+02  0.51100000000E-03 0.  1.
         11   -1    0    0    0    0 -0.00000000000E+00 -0.00000000000E+00 -0.45593999997E+02  0.45594000000E+02  0.51100000000E-03 0. -1.
    9900012    2    1    2    0    0  0.28787662980E+02 -0.82628463113E+01 -0.27498381743E+02  0.50528866124E+02  0.30000019072E+02 0.  0.
        -12    1    1    2    0    0 -0.28787662980E+02  0.82628463113E+01  0.27498381743E+02  0.40659133876E+02  0.00000000000E+00 0.  1.
         11    1    3    3    0    0 -0.46205622819E+00 -0.85347739698E+01  0.16992280985E+01  0.87145418162E+01  0.51100000000E-03 0. -1.
        -11    1    3    3    0    0  0.79561610859E+01  0.23236139709E+01 -0.10693158479E+02  0.13529350303E+02  0.51100000000E-03 0.  1.
         12    1    3    3    0    0  0.21293558122E+02 -0.20516863124E+01 -0.18504451363E+02  0.28284974005E+02  0.00000000000E+00 0. -1.
</event>
<event>
 7    1  0.4994895E-011  0.5052886E+02  0.7816164E-02  0.1300439E+00
        -11   -1    0    0    0    0  0.00000000000E+00  0.00000000000E+00  0.45593999997E+02  0.45594000000E+02  0.51100000000E-03 0.  1.
         11   -1    0    0    0    0 -0.00000000000E+00 -0.00000000000E+00 -0.45593999997E+02  0.45594000000E+02  0.51100000000E-03 0. -1.
    9900012    2    1    2    0    0 -0.20801236644E+02  0.13747044937E+02 -0.32116867819E+02  0.50528857253E+02  0.29999992106E+02 0.  0.
        -12    1    1    2    0    0  0.20801236644E+02 -0.13747044937E+02  0.32116867819E+02  0.40659142747E+02  0.00000000000E+00 0.  1.
         11    1    3    3    0    0 -0.97382534794E+01 -0.14452015448E+01 -0.13103898735E+02  0.16390068660E+02  0.51100000000E-03 0. -1.
        -11    1    3    3    0    0  0.88507004292E+00  0.91097000581E+01  0.18515048287E+01  0.93379898545E+01  0.51100000000E-03 0.  1.
        -12    1    3    3    0    0 -0.11948053208E+02  0.60825464240E+01 -0.20864473912E+02  0.24800798739E+02  0.00000000000E+00 0.  1.
</event>
<event>
 7    1  0.4994895E-011  0.5052886E+02  0.7816164E-02  0.1300439E+00
        -11   -1    0    0    0    0  0.00000000000E+00  0.00000000000E+00  0.45593999997E+02  0.45594000000E+02  0.51100000000E-03 0.  1.
         11   -1    0    0    0    0 -0.00000000000E+00 -0.00000000000E+00 -0.45593999997E+02  0.45594000000E+02  0.51100000000E-03 0. -1.
    9900012    2    1    2    0    0 -0.25064211044E+02 -0.16562237986E+02 -0.27397873108E+02  0.50528857692E+02  0.29999993441E+02 0.  0.
        -12    1    1    2    0    0  0.25064211044E+02  0.16562237986E+02  0.27397873108E+02  0.40659142308E+02  0.00000000000E+00 0.  1.
         11    1    3    3    0    0 -0.10198268060E+02 -0.64337878224E+01  0.39208522488E+01  0.12679565442E+02  0.51100000000E-03 0. -1.
        -11    1    3    3    0    0 -0.38986469773E+00  0.21031321127E+01 -0.19369831584E+01  0.28856651197E+01  0.51100000000E-03 0.  1.
         12    1    3    3    0    0 -0.14476078286E+02 -0.12231582277E+02 -0.29381742198E+02  0.34963627131E+02  0.00000000000E+00 0. -1.
</event>
<event>
 7    1  0.4994895E-011  0.5052887E+02  0.7816164E-02  0.1300439E+00
        -11   -1    0    0    0    0  0.00000000000E+00  0.00000000000E+00  0.45593999997E+02  0.45594000000E+02  0.51100000000E-03 0.  1.
         11   -1    0    0    0    0 -0.00000000000E+00 -0.00000000000E+00 -0.45593999997E+02  0.45594000000E+02  0.51100000000E-03 0. -1.
    9900012    2    1    2    0    0  0.77623194462E+01  0.21927798446E+02 -0.33347901857E+02  0.50528874258E+02  0.30000043794E+02 0.  0.
        -12    1    1    2    0    0 -0.77623194462E+01 -0.21927798446E+02  0.33347901857E+02  0.40659125742E+02  0.00000000000E+00 0.  1.
         11    1    3    3    0    0  0.13726918679E+02  0.10826203056E+02 -0.13135721928E+02  0.21867376611E+02  0.51100000000E-03 0. -1.
        -11    1    3    3    0    0 -0.43780545719E+01 -0.32893861413E+01 -0.32796055280E+01  0.63830428247E+01  0.51100000000E-03 0.  1.
        -12    1    3    3    0    0 -0.15865446610E+01  0.14390981531E+02 -0.16932574401E+02  0.22278454822E+02  0.00000000000E+00 0.  1.
</event>
<event>
 7    1  0.4994895E-011  0.5052884E+02  0.7816164E-02  0.1300439E+00
        -11   -1    0    0    0    0  0.00000000000E+00  0.00000000000E+00  0.45593999997E+02  0.45594000000E+02  0.51100000000E-03 0.  1.
         11   -1    0    0    0    0 -0.00000000000E+00 -0.00000000000E+00 -0.45593999997E+02  0.45594000000E+02  0.51100000000E-03 0. -1.
    9900012    2    1    2    0    0 -0.11331812476E+02  0.38015223387E+02 -0.89219063523E+01  0.50528836259E+02  0.29999928293E+02 0.  0.
        -12    1    1    2    0    0  0.11331812476E+02 -0.38015223387E+02  0.89219063523E+01  0.40659163741E+02  0.00000000000E+00 0.  1.
         11    1    3    3    0    0 -0.66397697773E+01  0.13148167114E+02 -0.99022476088E+01  0.17748671756E+02  0.51100000000E-03 0. -1.
        -11    1    3    3    0    0 -0.80105071456E+01  0.25673979138E+02  0.51574192412E+01  0.27384674600E+02  0.51100000000E-03 0.  1.
        -12    1    3    3    0    0  0.33184644471E+01 -0.80692286433E+00 -0.41770779847E+01  0.53954899023E+01  0.00000000000E+00 0.  1.
</event>
<event>
 7    1  0.4994895E-011  0.5052886E+02  0.7816164E-02  0.1300439E+00
        -11   -1    0    0    0    0  0.00000000000E+00  0.00000000000E+00  0.45593999997E+02  0.45594000000E+02  0.51100000000E-03 0.  1.
         11   -1    0    0    0    0 -0.00000000000E+00 -0.00000000000E+00 -0.45593999997E+02  0.45594000000E+02  0.51100000000E-03 0. -1.
    9900012    2    1    2    0    0  0.38117446480E+02 -0.13283704409E+02 -0.48753788739E+01  0.50528857754E+02  0.29999993630E+02 0.  0.
        -12    1    1    2    0    0 -0.38117446480E+02  0.13283704409E+02  0.48753788739E+01  0.40659142246E+02  0.00000000000E+00 0.  1.
         11    1    3    3    0    0  0.30095306670E+02 -0.12055624047E+02  0.24619402456E+01  0.32513484968E+02  0.51100000000E-03 0. -1.
        -11    1    3    3    0    0  0.57593191420E+01  0.57683778465E+01 -0.68475578290E+01  0.10645796750E+02  0.51100000000E-03 0.  1.
        -12    1    3    3    0    0  0.22628206686E+01 -0.69964582081E+01 -0.48976129054E+00  0.73695760365E+01  0.00000000000E+00 0.  1.
</event>
<event>
 7    1  0.4994895E-011  0.5052885E+02  0.7816164E-02  0.1300439E+00
        -11   -1    0    0    0    0  0.00000000000E+00  0.00000000000E+00  0.45593999997E+02  0.45594000000E+02  0.51100000000E-03 0.  1.
         11   -1    0    0    0    0 -0.00000000000E+00 -0.00000000000E+00 -0.45593999997E+02  0.45594000000E+02  0.51100000000E-03 0. -1.
    9900012    2    1    2    0    0  0.26786185212E+02 -0.18147524666E+02 -0.24623844888E+02  0.50528854574E+02  0.29999983963E+02 0.  0.
        -12    1    1    2    0    0 -0.26786185212E+02  0.18147524666E+02  0.24623844888E+02  0.40659145426E+02  0.00000000000E+00 0.  1.
         11    1    3    3    0    0  0.14868615083E+02 -0.55107043262E+01 -0.20666546383E+02  0.26048986858E+02  0.51100000000E-03 0. -1.
        -11    1    3    3    0    0 -0.29518090637E+01  0.14768174899E+01  0.87984760429E+00  0.34158891543E+01  0.51100000000E-03 0.  1.
        -12    1    3    3    0    0  0.14869379193E+02 -0.14113637830E+02 -0.48371461095E+01  0.21063978562E+02  0.00000000000E+00 0.  1.
</event>
<event>
 7    1  0.4994895E-011  0.5052886E+02  0.7816164E-02  0.1300439E+00
        -11   -1    0    0    0    0  0.00000000000E+00  0.00000000000E+00  0.45593999997E+02  0.45594000000E+02  0.51100000000E-03 0.  1.
         11   -1    0    0    0    0 -0.00000000000E+00 -0.00000000000E+00 -0.45593999997E+02  0.45594000000E+02  0.51100000000E-03 0. -1.
    9900012    2    1    2    0    0  0.16868995522E+02 -0.35495975208E+02 -0.10422972007E+02  0.50528860666E+02  0.30000002482E+02 0.  0.
        -12    1    1    2    0    0 -0.16868995522E+02  0.35495975208E+02  0.10422972007E+02  0.40659139334E+02  0.00000000000E+00 0.  1.
         11    1    3    3    0    0  0.31280397963E+00 -0.78046640115E+01 -0.13510591528E+02  0.15605983159E+02  0.51100000000E-03 0.  1.
        -11    1    3    3    0    0  0.12383405724E+02 -0.27581010098E+02  0.43892736447E+01  0.30550394085E+02  0.51100000000E-03 0. -1.
         12    1    3    3    0    0  0.41727858189E+01 -0.11030109795E+00 -0.13016541242E+01  0.43724834227E+01  0.00000000000E+00 0. -1.
</event>
<event>
 7    1  0.4994895E-011  0.5052886E+02  0.7816164E-02  0.1300439E+00
        -11   -1    0    0    0    0  0.00000000000E+00  0.00000000000E+00  0.45593999997E+02  0.45594000000E+02  0.51100000000E-03 0.  1.
         11   -1    0    0    0    0 -0.00000000000E+00 -0.00000000000E+00 -0.45593999997E+02  0.45594000000E+02  0.51100000000E-03 0. -1.
    9900012    2    1    2    0    0 -0.80946715639E+01  0.37357902946E+02 -0.13857457549E+02  0.50528858962E+02  0.29999997300E+02 0.  0.
        -12    1    1    2    0    0  0.80946715639E+01 -0.37357902946E+02  0.13857457549E+02  0.40659141038E+02  0.00000000000E+00 0.  1.
         11    1    3    3    0    0  0.44275689459E+01  0.21730696366E+02 -0.14966058793E+02  0.26754615441E+02  0.51100000000E-03 0. -1.
        -11    1    3    3    0    0 -0.22468608684E+01  0.82375817559E+00  0.48149725135E+01  0.53768877486E+01  0.51100000000E-03 0.  1.
         12    1    3    3    0    0 -0.10275379641E+02  0.14803448404E+02 -0.37063712699E+01  0.18397355773E+02  0.00000000000E+00 0. -1.
</event>
<event>
 7    1  0.4994895E-011  0.5052886E+02  0.7816164E-02  0.1300439E+00
        -11   -1    0    0    0    0  0.00000000000E+00  0.00000000000E+00  0.45593999997E+02  0.45594000000E+02  0.51100000000E-03 0.  1.
         11   -1    0    0    0    0 -0.00000000000E+00 -0.00000000000E+00 -0.45593999997E+02  0.45594000000E+02  0.51100000000E-03 0. -1.
    9900012    2    1    2    0    0  0.23562391465E+02 -0.18592535918E+02 -0.27428034948E+02  0.50528858536E+02  0.29999996007E+02 0.  0.
        -12    1    1    2    0    0 -0.23562391465E+02  0.18592535918E+02  0.27428034948E+02  0.40659141464E+02  0.00000000000E+00 0.  1.
         11    1    3    3    0    0  0.19258201784E+02 -0.96085093039E+01 -0.10630700506E+02  0.24004449181E+02  0.51100000000E-03 0. -1.
        -11    1    3    3    0    0 -0.26346929886E+01  0.38081450395E+01 -0.87372217015E+01  0.98885094482E+01  0.51100000000E-03 0.  1.
        -12    1    3    3    0    0  0.69388826705E+01 -0.12792171653E+02 -0.80601127408E+01  0.16635899907E+02  0.00000000000E+00 0.  1.
</event>
<event>
 7    1  0.4994895E-011  0.5052885E+02  0.7816164E-02  0.1300439E+00
        -11   -1    0    0    0    0  0.00000000000E+00  0.00000000000E+00  0.45593999997E+02  0.45594000000E+02  0.51100000000E-03 0.  1.
         11   -1    0    0    0    0 -0.00000000000E+00 -0.00000000000E+00 -0.45593999997E+02  0.45594000000E+02  0.51100000000E-03 0. -1.
    9900012    2    1    2    0    0  0.30457065389E+02  0.93858679724E+01 -0.25247557855E+02  0.50528849402E+02  0.29999968243E+02 0.  0.
        -12    1    1    2    0    0 -0.30457065389E+02 -0.93858679724E+01  0.25247557855E+02  0.40659150598E+02  0.00000000000E+00 0.  1.
         11    1    3    3    0    0  0.15689430482E+02 -0.47889835192E+01  0.16828062398E+01  0.16490131264E+02  0.51100000000E-03 0. -1.
        -11    1    3    3    0    0  0.13213905164E+02  0.11190635318E+02 -0.23879948051E+02  0.29497280005E+02  0.51100000000E-03 0.  1.
         12    1    3    3    0    0  0.15537297431E+01  0.29842161736E+01 -0.30504160431E+01  0.45414381336E+01  0.00000000000E+00 0. -1.
</event>
<event>
 7    1  0.4994895E-011  0.5052888E+02  0.7816164E-02  0.1300439E+00
        -11   -1    0    0    0    0  0.00000000000E+00  0.00000000000E+00  0.45593999997E+02  0.45594000000E+02  0.51100000000E-03 0. -1.
         11   -1    0    0    0    0 -0.00000000000E+00 -0.00000000000E+00 -0.45593999997E+02  0.45594000000E+02  0.51100000000E-03 0.  1.
    9900012    2    1    2    0    0 -0.39461134755E+02  0.97269809092E+01  0.11700363332E+01  0.50528876808E+02  0.30000051545E+02 0.  0.
        -12    1    1    2    0    0  0.39461134755E+02 -0.97269809092E+01 -0.11700363332E+01  0.40659123192E+02  0.00000000000E+00 0.  1.
         11    1    3    3    0    0 -0.28694234416E+02  0.10807500995E+02  0.42515999485E+01  0.30955407749E+02  0.51100000000E-03 0. -1.
        -11    1    3    3    0    0  0.36096079399E+01  0.10959836900E+01  0.18736149786E+01  0.42119927680E+01  0.51100000000E-03 0.  1.
        -12    1    3    3    0    0 -0.14376508278E+02 -0.21765037754E+01 -0.49551785939E+01  0.15361476291E+02  0.00000000000E+00 0.  1.
</event>
<event>
 7    1  0.4994895E-011  0.5052883E+02  0.7816164E-02  0.1300439E+00
        -11   -1    0    0    0    0  0.00000000000E+00  0.00000000000E+00  0.45593999997E+02  0.45594000000E+02  0.51100000000E-03 0.  1.
         11   -1    0    0    0    0 -0.00000000000E+00 -0.00000000000E+00 -0.45593999997E+02  0.45594000000E+02  0.51100000000E-03 0. -1.
    9900012    2    1    2    0    0  0.17161991002E+02  0.18050116125E+02 -0.32137631835E+02  0.50528831203E+02  0.29999912925E+02 0.  0.
        -12    1    1    2    0    0 -0.17161991002E+02 -0.18050116125E+02  0.32137631835E+02  0.40659168797E+02  0.00000000000E+00 0.  1.
         11    1    3    3    0    0  0.80061078198E+01  0.18490917568E+02 -0.99590348759E+01  0.22476524884E+02  0.51100000000E-03 0. -1.
        -11    1    3    3    0    0  0.97884509471E+01 -0.53143858059E+01 -0.10192379440E+02  0.15097717289E+02  0.51100000000E-03 0.  1.
        -12    1    3    3    0    0 -0.63256776473E+00  0.48735843627E+01 -0.11986217520E+02  0.12954589030E+02  0.00000000000E+00 0.  1.
</event>
<event>
 7    1  0.4994895E-011  0.5052887E+02  0.7816164E-02  0.1300439E+00
        -11   -1    0    0    0    0  0.00000000000E+00  0.00000000000E+00  0.45593999997E+02  0.45594000000E+02  0.51100000000E-03 0.  1.
         11   -1    0    0    0    0 -0.00000000000E+00 -0.00000000000E+00 -0.45593999997E+02  0.45594000000E+02  0.51100000000E-03 0. -1.
    9900012    2    1    2    0    0  0.16493857167E+02  0.37047371148E+00 -0.37161548122E+02  0.50528865309E+02  0.30000016593E+02 0.  0.
        -12    1    1    2    0    0 -0.16493857167E+02 -0.37047371148E+00  0.37161548122E+02  0.40659134691E+02  0.00000000000E+00 0.  1.
         11    1    3    3    0    0  0.94189829670E+01  0.24714810047E+01 -0.66046823341E+01  0.11766362543E+02  0.51100000000E-03 0. -1.
        -11    1    3    3    0    0  0.23753826079E+01 -0.12178473885E+02 -0.19264038509E+02  0.22914206262E+02  0.51100000000E-03 0.  1.
        -12    1    3    3    0    0  0.46994915921E+01  0.10077466592E+02 -0.11292827279E+02  0.15848296504E+02  0.00000000000E+00 0.  1.
</event>
<event>
 7    1  0.6375439E-011  0.5052888E+02  0.7816164E-02  0.1300439E+00
        -11   -1    0    0    0    0  0.00000000000E+00  0.00000000000E+00  0.45593999997E+02  0.45594000000E+02  0.51100000000E-03 0. -1.
         11   -1    0    0    0    0 -0.00000000000E+00 -0.00000000000E+00 -0.45593999997E+02  0.45594000000E+02  0.51100000000E-03 0.  1.
    9900012    2    1    2    0    0  0.15845818692E+02  0.20912991135E+02  0.31059954457E+02  0.50528881230E+02  0.30000064988E+02 0.  0.
        -12    1    1    2    0    0 -0.15845818692E+02 -0.20912991135E+02 -0.31059954457E+02  0.40659118770E+02  0.00000000000E+00 0.  1.
         11    1    3    3    0    0  0.82142089081E+01  0.12445661681E+02  0.26061231541E+02  0.30025914013E+02  0.51100000000E-03 0. -1.
        -11    1    3    3    0    0  0.44478546039E+01 -0.35528626622E+01 -0.22368465305E+01  0.61163491019E+01  0.51100000000E-03 0.  1.
         12    1    3    3    0    0  0.31837551795E+01  0.12020192117E+02  0.72355694473E+01  0.14386618115E+02  0.00000000000E+00 0. -1.
</event>
<event>
 7    1  0.4994895E-011  0.5052886E+02  0.7816164E-02  0.1300439E+00
        -11   -1    0    0    0    0  0.00000000000E+00  0.00000000000E+00  0.45593999997E+02  0.45594000000E+02  0.51100000000E-03 0.  1.
         11   -1    0    0    0    0 -0.00000000000E+00 -0.00000000000E+00 -0.45593999997E+02  0.45594000000E+02  0.51100000000E-03 0. -1.
    9900012    2    1    2    0    0  0.18668358655E+02 -0.31026721131E+02  0.18493257889E+02  0.50528860482E+02  0.30000001920E+02 0.  0.
        -12    1    1    2    0    0 -0.18668358655E+02  0.31026721131E+02 -0.18493257889E+02  0.40659139518E+02  0.00000000000E+00 0.  1.
         11    1    3    3    0    0  0.11116635658E+02 -0.31723815988E+02  0.23676337428E+02  0.41116286840E+02  0.51100000000E-03 0. -1.
        -11    1    3    3    0    0  0.27506069146E+01  0.92315079228E+00 -0.28605720223E+01  0.40744224547E+01  0.51100000000E-03 0.  1.
         12    1    3    3    0    0  0.48011160831E+01 -0.22605593522E+00 -0.23225075172E+01  0.53381511871E+01  0.00000000000E+00 0. -1.
</event>
<event>
 7    1  0.4994895E-011  0.5052886E+02  0.7816164E-02  0.1300439E+00
        -11   -1    0    0    0    0  0.00000000000E+00  0.00000000000E+00  0.45593999997E+02  0.45594000000E+02  0.51100000000E-03 0.  1.
         11   -1    0    0    0    0 -0.00000000000E+00 -0.00000000000E+00 -0.45593999997E+02  0.45594000000E+02  0.51100000000E-03 0. -1.
    9900012    2    1    2    0    0 -0.21787401805E+02 -0.19449267860E+02 -0.28287821483E+02  0.50528859061E+02  0.29999997600E+02 0.  0.
        -12    1    1    2    0    0  0.21787401805E+02  0.19449267860E+02  0.28287821483E+02  0.40659140939E+02  0.00000000000E+00 0.  1.
         11    1    3    3    0    0 -0.16587331070E+02 -0.26108984061E+02 -0.26339407278E+02  0.40627367337E+02  0.51100000000E-03 0. -1.
        -11    1    3    3    0    0 -0.20822869763E+01  0.37902695058E+01 -0.33153781402E+01  0.54492012673E+01  0.51100000000E-03 0.  1.
         12    1    3    3    0    0 -0.31177837592E+01  0.28694466953E+01  0.13669639355E+01  0.44522904563E+01  0.00000000000E+00 0. -1.
</event>
<event>
 7    1  0.4994895E-011  0.5052886E+02  0.7816164E-02  0.1300439E+00
        -11   -1    0    0    0    0  0.00000000000E+00  0.00000000000E+00  0.45593999997E+02  0.45594000000E+02  0.51100000000E-03 0. -1.
         11   -1    0    0    0    0 -0.00000000000E+00 -0.00000000000E+00 -0.45593999997E+02  0.45594000000E+02  0.51100000000E-03 0.  1.
    9900012    2    1    2    0    0 -0.66229892097E+01 -0.21493826009E+02  0.33872066179E+02  0.50528863144E+02  0.30000010014E+02 0.  0.
        -12    1    1    2    0    0  0.66229892097E+01  0.21493826009E+02 -0.33872066179E+02  0.40659136856E+02  0.00000000000E+00 0.  1.
         11    1    3    3    0    0  0.51551524451E+01 -0.22270378262E+02  0.22610406310E+02  0.32152384335E+02  0.51100000000E-03 0. -1.
        -11    1    3    3    0    0 -0.72709547766E+01  0.40528058535E+01  0.92704379482E+01  0.12459255141E+02  0.51100000000E-03 0.  1.
         12    1    3    3    0    0 -0.45071868782E+01 -0.32762536001E+01  0.19912219218E+01  0.59172236690E+01  0.00000000000E+00 0. -1.
</event>
<event>
 7    1  0.4994895E-011  0.5052886E+02  0.7816164E-02  0.1300439E+00
        -11   -1    0    0    0    0  0.00000000000E+00  0.00000000000E+00  0.45593999997E+02  0.45594000000E+02  0.51100000000E-03 0. -1.
         11   -1    0    0    0    0 -0.00000000000E+00 -0.00000000000E+00 -0.45593999997E+02  0.45594000000E+02  0.51100000000E-03 0.  1.
    9900012    2    1    2    0    0 -0.33364275746E+02 -0.21828057695E+02  0.79703729558E+01  0.50528857808E+02  0.29999993792E+02 0.  0.
        -12    1    1    2    0    0  0.33364275746E+02  0.21828057695E+02 -0.79703729558E+01  0.40659142192E+02  0.00000000000E+00 0.  1.
         11    1    3    3    0    0  0.22456249238E+01 -0.26075092130E+01 -0.56606089285E+01  0.66245323833E+01  0.51100000000E-03 0. -1.
        -11    1    3    3    0    0 -0.52901610567E+01 -0.75851429300E+01  0.34481452409E+01  0.98696455427E+01  0.51100000000E-03 0.  1.
         12    1    3    3    0    0 -0.30319739613E+02 -0.11635405552E+02  0.10182836643E+02  0.34034679882E+02  0.00000000000E+00 0. -1.
</event>
<event>
 7    1  0.4994895E-011  0.5052887E+02  0.7816164E-02  0.1300439E+00
        -11   -1    0    0    0    0  0.00000000000E+00  0.00000000000E+00  0.45593999997E+02  0.45594000000E+02  0.51100000000E-03 0. -1.
         11   -1    0    0    0    0 -0.00000000000E+00 -0.00000000000E+00 -0.45593999997E+02  0.45594000000E+02  0.51100000000E-03 0.  1.
    9900012    2    1    2    0    0  0.34512404213E+02  0.30841753221E+01  0.21273146183E+02  0.50528869039E+02  0.30000027930E+02 0.  0.
        -12    1    1    2    0    0 -0.34512404213E+02 -0.30841753221E+01 -0.21273146183E+02  0.40659130961E+02  0.00000000000E+00 0.  1.
         11    1    3    3    0    0  0.10395924138E+02 -0.93262207404E+01  0.46677657317E+01  0.14725544784E+02  0.51100000000E-03 0.  1.
        -11    1    3    3    0    0  0.21744082009E+02  0.74902918688E+01  0.58344998984E+01  0.23726587703E+02  0.51100000000E-03 0. -1.
         12    1    3    3    0    0  0.23723980659E+01  0.49201041937E+01  0.10770880553E+02  0.12076736552E+02  0.00000000000E+00 0. -1.
</event>
<event>
 7    1  0.4994895E-011  0.5052886E+02  0.7816164E-02  0.1300439E+00
        -11   -1    0    0    0    0  0.00000000000E+00  0.00000000000E+00  0.45593999997E+02  0.45594000000E+02  0.51100000000E-03 0. -1.
         11   -1    0    0    0    0 -0.00000000000E+00 -0.00000000000E+00 -0.45593999997E+02  0.45594000000E+02  0.51100000000E-03 0.  1.
    9900012    2    1    2    0    0 -0.18017703188E+02 -0.69221502345E+01  0.35785640112E+02  0.50528857974E+02  0.29999994298E+02 0.  0.
        -12    1    1    2    0    0  0.18017703188E+02  0.69221502345E+01 -0.35785640112E+02  0.40659142026E+02  0.00000000000E+00 0.  1.
         11    1    3    3    0    0 -0.13234134905E+02  0.73059827223E+01  0.29647553641E+02  0.33279079726E+02  0.51100000000E-03 0. -1.
        -11    1    3    3    0    0 -0.32983988301E+01 -0.49701830743E+01 -0.13829179747E+00  0.59666807789E+01  0.51100000000E-03 0.  1.
         12    1    3    3    0    0 -0.14851694526E+01 -0.92579498824E+01  0.62763782688E+01  0.11283097469E+02  0.00000000000E+00 0. -1.
</event>
<event>
 7    1  0.4994895E-011  0.5052888E+02  0.7816164E-02  0.1300439E+00
        -11   -1    0    0    0    0  0.00000000000E+00  0.00000000000E+00  0.45593999997E+02  0.45594000000E+02  0.51100000000E-03 0.  1.
         11   -1    0    0    0    0 -0.00000000000E+00 -0.00000000000E+00 -0.45593999997E+02  0.45594000000E+02  0.51100000000E-03 0. -1.
    9900012    2    1    2    0    0 -0.89793490183E+01 -0.22181815308E+02 -0.32870999291E+02  0.50528877610E+02  0.30000053984E+02 0.  0.
        -12    1    1    2    0    0  0.89793490183E+01  0.22181815308E+02  0.32870999291E+02  0.40659122390E+02  0.00000000000E+00 0.  1.
         11    1    3    3    0    0  0.48353567223E+01 -0.45830853952E+00 -0.12005421583E+02  0.12950709208E+02  0.51100000000E-03 0.  1.
        -11    1    3    3    0    0 -0.12796605594E+02 -0.24404510705E+02 -0.15819347882E+02  0.31773967728E+02  0.51100000000E-03 0. -1.
         12    1    3    3    0    0 -0.10181001468E+01  0.26810039371E+01 -0.50462298252E+01  0.58042006744E+01  0.00000000000E+00 0. -1.
</event>
<event>
 7    1  0.4994895E-011  0.5052886E+02  0.7816164E-02  0.1300439E+00
        -11   -1    0    0    0    0  0.00000000000E+00  0.00000000000E+00  0.45593999997E+02  0.45594000000E+02  0.51100000000E-03 0.  1.
         11   -1    0    0    0    0 -0.00000000000E+00 -0.00000000000E+00 -0.45593999997E+02  0.45594000000E+02  0.51100000000E-03 0. -1.
    9900012    2    1    2    0    0 -0.98776559514E+01 -0.37220146116E+02 -0.13048310237E+02  0.50528858788E+02  0.29999996773E+02 0.  0.
        -12    1    1    2    0    0  0.98776559514E+01  0.37220146116E+02  0.13048310237E+02  0.40659141212E+02  0.00000000000E+00 0.  1.
         11    1    3    3    0    0 -0.10304968071E+02 -0.35425614439E+02 -0.16581784539E+02  0.40449006218E+02  0.51100000000E-03 0. -1.
        -11    1    3    3    0    0  0.37049351643E+01 -0.35046649444E+01  0.20299086588E+00  0.51039618431E+01  0.51100000000E-03 0.  1.
         12    1    3    3    0    0 -0.32776230444E+01  0.17101332667E+01  0.33304834356E+01  0.49758907269E+01  0.00000000000E+00 0. -1.
</event>
<event>
 7    1  0.4994895E-011  0.5052886E+02  0.7816164E-02  0.1300439E+00
        -11   -1    0    0    0    0  0.00000000000E+00  0.00000000000E+00  0.45593999997E+02  0.45594000000E+02  0.51100000000E-03 0.  1.
         11   -1    0    0    0    0 -0.00000000000E+00 -0.00000000000E+00 -0.45593999997E+02  0.45594000000E+02  0.51100000000E-03 0. -1.
    9900012    2    1    2    0    0  0.10862539022E+02  0.38308566527E+02 -0.82234242720E+01  0.50528859206E+02  0.29999998042E+02 0.  0.
        -12    1    1    2    0    0 -0.10862539022E+02 -0.38308566527E+02  0.82234242720E+01  0.40659140794E+02  0.00000000000E+00 0.  1.
         11    1    3    3    0    0  0.21012493131E+01  0.31426171226E+02 -0.27378676675E+01  0.31615113573E+02  0.51100000000E-03 0. -1.
        -11    1    3    3    0    0  0.10339253645E+02  0.92369951734E+01 -0.13912659679E+01  0.13934054221E+02  0.51100000000E-03 0.  1.
         12    1    3    3    0    0 -0.15779639357E+01 -0.23545998726E+01 -0.40942906366E+01  0.49796914121E+01  0.00000000000E+00 0. -1.
</event>
<event>
 7    1  0.4994895E-011  0.5052886E+02  0.7816164E-02  0.1300439E+00
        -11   -1    0    0    0    0  0.00000000000E+00  0.00000000000E+00  0.45593999997E+02  0.45594000000E+02  0.51100000000E-03 0.  1.
         11   -1    0    0    0    0 -0.00000000000E+00 -0.00000000000E+00 -0.45593999997E+02  0.45594000000E+02  0.51100000000E-03 0. -1.
    9900012    2    1    2    0    0  0.28699191524E+00 -0.31661702874E+02 -0.25507251032E+02  0.50528860210E+02  0.30000001094E+02 0.  0.
        -12    1    1    2    0    0 -0.28699191524E+00  0.31661702874E+02  0.25507251032E+02  0.40659139790E+02  0.00000000000E+00 0.  1.
         11    1    3    3    0    0 -0.18267552199E+01 -0.17054053217E+02 -0.12562775702E+01  0.17197557948E+02  0.51100000000E-03 0. -1.
        -11    1    3    3    0    0  0.10244035689E+01  0.31593089982E+01 -0.99751659249E+01  0.10513542291E+02  0.51100000000E-03 0.  1.
        -12    1    3    3    0    0  0.10893435662E+01 -0.17766958655E+02 -0.14275807537E+02  0.22817759971E+02  0.00000000000E+00 0.  1.
</event>
<event>
 7    1  0.4994895E-011  0.5052886E+02  0.7816164E-02  0.1300439E+00
        -11   -1    0    0    0    0  0.00000000000E+00  0.00000000000E+00  0.45593999997E+02  0.45594000000E+02  0.51100000000E-03 0. -1.
         11   -1    0    0    0    0 -0.00000000000E+00 -0.00000000000E+00 -0.45593999997E+02  0.45594000000E+02  0.51100000000E-03 0.  1.
    9900012    2    1    2    0    0 -0.57712807154E+01 -0.32585097606E+02  0.23623489588E+02  0.50528861698E+02  0.30000005618E+02 0.  0.
        -12    1    1    2    0    0  0.57712807154E+01  0.32585097606E+02 -0.23623489588E+02  0.40659138302E+02  0.00000000000E+00 0.  1.
         11    1    3    3    0    0 -0.86886651175E+00 -0.76439580123E+00  0.13056746512E+02  0.13107931175E+02  0.51100000000E-03 0. -1.
        -11    1    3    3    0    0 -0.46019426354E+01 -0.21751398942E+02 -0.78133260125E+00  0.22246611266E+02  0.51100000000E-03 0.  1.
        -12    1    3    3    0    0 -0.30047156826E+00 -0.10069302863E+02  0.11348075677E+02  0.15174319257E+02  0.00000000000E+00 0.  1.
</event>
<event>
 7    1  0.4994895E-011  0.5052883E+02  0.7816164E-02  0.1300439E+00
        -11   -1    0    0    0    0  0.00000000000E+00  0.00000000000E+00  0.45593999997E+02  0.45594000000E+02  0.51100000000E-03 0.  1.
         11   -1    0    0    0    0 -0.00000000000E+00 -0.00000000000E+00 -0.45593999997E+02  0.45594000000E+02  0.51100000000E-03 0. -1.
    9900012    2    1    2    0    0  0.22373596073E+01  0.30695461955E+02 -0.26569738225E+02  0.50528829423E+02  0.29999907515E+02 0.  0.
        -12    1    1    2    0    0 -0.22373596073E+01 -0.30695461955E+02  0.26569738225E+02  0.40659170577E+02  0.00000000000E+00 0.  1.
         11    1    3    3    0    0  0.55903953082E+01  0.27203100865E+02 -0.24810919532E+02  0.37240340287E+02  0.51100000000E-03 0. -1.
        -11    1    3    3    0    0 -0.73795062920E+01  0.29783475604E+00 -0.30475728821E+01  0.79895881864E+01  0.51100000000E-03 0.  1.
         12    1    3    3    0    0  0.40264705912E+01  0.31945263341E+01  0.12887541894E+01  0.52989009504E+01  0.00000000000E+00 0. -1.
</event>
<event>
 7    1  0.4994895E-011  0.5052886E+02  0.7816164E-02  0.1300439E+00
        -11   -1    0    0    0    0  0.00000000000E+00  0.00000000000E+00  0.45593999997E+02  0.45594000000E+02  0.51100000000E-03 0. -1.
         11   -1    0    0    0    0 -0.00000000000E+00 -0.00000000000E+00 -0.45593999997E+02  0.45594000000E+02  0.51100000000E-03 0.  1.
    9900012    2    1    2    0    0  0.21615439370E+02  0.43981406148E+01  0.34155454067E+02  0.50528857085E+02  0.29999991596E+02 0.  0.
        -12    1    1    2    0    0 -0.21615439370E+02 -0.43981406148E+01 -0.34155454067E+02  0.40659142915E+02  0.00000000000E+00 0.  1.
         11    1    3    3    0    0  0.80122094135E+01 -0.55946423014E+01  0.25488118713E+02  0.27297247443E+02  0.51100000000E-03 0. -1.
        -11    1    3    3    0    0  0.45069445588E+01  0.98553520323E+01  0.25356084172E+00  0.10839963390E+02  0.51100000000E-03 0.  1.
         12    1    3    3    0    0  0.90962853977E+01  0.13743088398E+00  0.84137745123E+01  0.12391646252E+02  0.00000000000E+00 0. -1.
</event>
<event>
 7    1  0.4994895E-011  0.5052888E+02  0.7816164E-02  0.1300439E+00
        -11   -1    0    0    0    0  0.00000000000E+00  0.00000000000E+00  0.45593999997E+02  0.45594000000E+02  0.51100000000E-03 0.  1.
         11   -1    0    0    0    0 -0.00000000000E+00 -0.00000000000E+00 -0.45593999997E+02  0.45594000000E+02  0.51100000000E-03 0. -1.
    9900012    2    1    2    0    0  0.39202049763E+02  0.10638847578E+02 -0.17828588699E+01  0.50528875942E+02  0.30000048913E+02 0.  0.
        -12    1    1    2    0    0 -0.39202049763E+02 -0.10638847578E+02  0.17828588699E+01  0.40659124058E+02  0.00000000000E+00 0.  1.
         11    1    3    3    0    0  0.31935390414E+01  0.11117657010E+01 -0.56697794406E+00  0.34287284572E+01  0.51100000000E-03 0. -1.
        -11    1    3    3    0    0  0.24666868711E+02  0.14906177847E+02 -0.11341951946E+02  0.30972381636E+02  0.51100000000E-03 0.  1.
        -12    1    3    3    0    0  0.11341642011E+02 -0.53790959697E+01  0.10126071021E+02  0.16127765849E+02  0.00000000000E+00 0.  1.
</event>
<event>
 7    1  0.4994895E-011  0.5052886E+02  0.7816164E-02  0.1300439E+00
        -11   -1    0    0    0    0  0.00000000000E+00  0.00000000000E+00  0.45593999997E+02  0.45594000000E+02  0.51100000000E-03 0.  1.
         11   -1    0    0    0    0 -0.00000000000E+00 -0.00000000000E+00 -0.45593999997E+02  0.45594000000E+02  0.51100000000E-03 0. -1.
    9900012    2    1    2    0    0 -0.18326724995E+02  0.13562892454E+02 -0.33665181963E+02  0.50528863543E+02  0.30000011226E+02 0.  0.
        -12    1    1    2    0    0  0.18326724995E+02 -0.13562892454E+02  0.33665181963E+02  0.40659136457E+02  0.00000000000E+00 0.  1.
         11    1    3    3    0    0  0.32828493349E+01 -0.13917441872E+01 -0.85593975771E+01  0.92723966041E+01  0.51100000000E-03 0. -1.
        -11    1    3    3    0    0 -0.12373237835E+02  0.18167711053E+02 -0.12447644739E+02  0.25260771944E+02  0.51100000000E-03 0.  1.
        -12    1    3    3    0    0 -0.92363364953E+01 -0.32130744117E+01 -0.12658139648E+02  0.15995694995E+02  0.00000000000E+00 0.  1.
</event>
<event>
 7    1  0.4994895E-011  0.5052884E+02  0.7816164E-02  0.1300439E+00
        -11   -1    0    0    0    0  0.00000000000E+00  0.00000000000E+00  0.45593999997E+02  0.45594000000E+02  0.51100000000E-03 0.  1.
         11   -1    0    0    0    0 -0.00000000000E+00 -0.00000000000E+00 -0.45593999997E+02  0.45594000000E+02  0.51100000000E-03 0. -1.
    9900012    2    1    2    0    0  0.12614190691E+02 -0.37903555646E+02  0.75743157216E+01  0.50528836260E+02  0.29999928296E+02 0.  0.
        -12    1    1    2    0    0 -0.12614190691E+02  0.37903555646E+02 -0.75743157216E+01  0.40659163740E+02  0.00000000000E+00 0.  1.
         11    1    3    3    0    0  0.58671765554E+01 -0.26709344785E+02  0.15847656025E+02  0.31606345270E+02  0.51100000000E-03 0. -1.
        -11    1    3    3    0    0  0.14537605635E+01 -0.83747708042E+01 -0.95562122557E+01  0.12789503459E+02  0.51100000000E-03 0.  1.
         12    1    3    3    0    0  0.52932535718E+01 -0.28194400566E+01  0.12828719522E+01  0.61329875309E+01  0.00000000000E+00 0. -1.
</event>
<event>
 7    1  0.4994895E-011  0.5052881E+02  0.7816164E-02  0.1300439E+00
        -11   -1    0    0    0    0  0.00000000000E+00  0.00000000000E+00  0.45593999997E+02  0.45594000000E+02  0.51100000000E-03 0.  1.
         11   -1    0    0    0    0 -0.00000000000E+00 -0.00000000000E+00 -0.45593999997E+02  0.45594000000E+02  0.51100000000E-03 0. -1.
    9900012    2    1    2    0    0 -0.49641876914E+01 -0.71854288248E+01 -0.39710150737E+02  0.50528811390E+02  0.29999852701E+02 0.  0.
        -12    1    1    2    0    0  0.49641876914E+01  0.71854288248E+01  0.39710150737E+02  0.40659188610E+02  0.00000000000E+00 0.  1.
         11    1    3    3    0    0 -0.65650876406E+01  0.54676848933E+01 -0.34269917235E+02  0.35318878541E+02  0.51100000000E-03 0. -1.
        -11    1    3    3    0    0  0.20406770170E+01 -0.64554013730E+00 -0.38741977474E+00  0.21751273755E+01  0.51100000000E-03 0.  1.
         12    1    3    3    0    0 -0.43977706783E+00 -0.12007573581E+02 -0.50528137274E+01  0.13034805474E+02  0.00000000000E+00 0. -1.
</event>
<event>
 7    1  0.4994895E-011  0.5052886E+02  0.7816164E-02  0.1300439E+00
        -11   -1    0    0    0    0  0.00000000000E+00  0.00000000000E+00  0.45593999997E+02  0.45594000000E+02  0.51100000000E-03 0. -1.
         11   -1    0    0    0    0 -0.00000000000E+00 -0.00000000000E+00 -0.45593999997E+02  0.45594000000E+02  0.51100000000E-03 0.  1.
    9900012    2    1    2    0    0 -0.34251493785E+02  0.48499287025E+01  0.21365360776E+02  0.50528864790E+02  0.30000015017E+02 0.  0.
        -12    1    1    2    0    0  0.34251493785E+02 -0.48499287025E+01 -0.21365360776E+02  0.40659135210E+02  0.00000000000E+00 0.  1.
         11    1    3    3    0    0 -0.29486619589E+02  0.49906315560E+01  0.16828192295E+02  0.34315524100E+02  0.51100000000E-03 0. -1.
        -11    1    3    3    0    0  0.16983744700E+01 -0.99821520111E+00 -0.45910118335E+01  0.49958281941E+01  0.51100000000E-03 0.  1.
        -12    1    3    3    0    0 -0.64632486664E+01  0.85751234757E+00  0.91281803141E+01  0.11217512496E+02  0.00000000000E+00 0.  1.
</event>
<event>
 7    1  0.4994895E-011  0.5052897E+02  0.7816164E-02  0.1300438E+00
        -11   -1    0    0    0    0  0.00000000000E+00  0.00000000000E+00  0.45593999997E+02  0.45594000000E+02  0.51100000000E-03 0.  1.
         11   -1    0    0    0    0 -0.00000000000E+00 -0.00000000000E+00 -0.45593999997E+02  0.45594000000E+02  0.51100000000E-03 0. -1.
    9900012    2    1    2    0    0  0.27294903450E+00 -0.39839676896E+02  0.81167821367E+01  0.50528972606E+02  0.30000342731E+02 0.  0.
        -12    1    1    2    0    0 -0.27294903450E+00  0.39839676896E+02 -0.81167821367E+01  0.40659027394E+02  0.00000000000E+00 0.  1.
         11    1    3    3    0    0  0.41904220578E+01  0.56669852146E+00 -0.54991163450E+01  0.69369348472E+01  0.51100000000E-03 0. -1.
        -11    1    3    3    0    0 -0.38651276405E+01 -0.21883663193E+02  0.35290350588E+01  0.22500844765E+02  0.51100000000E-03 0.  1.
         12    1    3    3    0    0 -0.52345382789E-01 -0.18522712224E+02  0.10086863423E+02  0.21091192994E+02  0.00000000000E+00 0. -1.
</event>
<event>
 7    1  0.4994895E-011  0.5052887E+02  0.7816164E-02  0.1300439E+00
        -11   -1    0    0    0    0  0.00000000000E+00  0.00000000000E+00  0.45593999997E+02  0.45594000000E+02  0.51100000000E-03 0.  1.
         11   -1    0    0    0    0 -0.00000000000E+00 -0.00000000000E+00 -0.45593999997E+02  0.45594000000E+02  0.51100000000E-03 0. -1.
    9900012    2    1    2    0    0  0.16661750564E+02  0.34643099601E+02 -0.13244129852E+02  0.50528865019E+02  0.30000015713E+02 0.  0.
        -12    1    1    2    0    0 -0.16661750564E+02 -0.34643099601E+02  0.13244129852E+02  0.40659134981E+02  0.00000000000E+00 0.  1.
         11    1    3    3    0    0  0.82348421197E+01  0.65196006425E+01  0.53729559631E+01  0.11797731702E+02  0.51100000000E-03 0.  1.
        -11    1    3    3    0    0  0.11108576592E+02  0.27884755918E+02 -0.19618453266E+02  0.35858664159E+02  0.51100000000E-03 0. -1.
         12    1    3    3    0    0 -0.26816681469E+01  0.23874304077E+00  0.10013674509E+01  0.28724691576E+01  0.00000000000E+00 0. -1.
</event>
<event>
 7    1  0.4994895E-011  0.5052883E+02  0.7816164E-02  0.1300439E+00
        -11   -1    0    0    0    0  0.00000000000E+00  0.00000000000E+00  0.45593999997E+02  0.45594000000E+02  0.51100000000E-03 0. -1.
         11   -1    0    0    0    0 -0.00000000000E+00 -0.00000000000E+00 -0.45593999997E+02  0.45594000000E+02  0.51100000000E-03 0.  1.
    9900012    2    1    2    0    0 -0.82014449763E+01 -0.26357299265E+02  0.29852930218E+02  0.50528826781E+02  0.29999899483E+02 0.  0.
        -12    1    1    2    0    0  0.82014449763E+01  0.26357299265E+02 -0.29852930218E+02  0.40659173219E+02  0.00000000000E+00 0.  1.
         11    1    3    3    0    0  0.39553521906E+01 -0.66341825689E+01  0.18245938949E+02  0.19813416609E+02  0.51100000000E-03 0. -1.
        -11    1    3    3    0    0 -0.11545967949E+02 -0.22645828500E+02  0.99238757816E+01  0.27287840426E+02  0.51100000000E-03 0.  1.
         12    1    3    3    0    0 -0.61082921839E+00  0.29227118037E+01  0.16831154869E+01  0.34275697460E+01  0.00000000000E+00 0. -1.
</event>
<event>
 7    1  0.4994895E-011  0.5052885E+02  0.7816164E-02  0.1300439E+00
        -11   -1    0    0    0    0  0.00000000000E+00  0.00000000000E+00  0.45593999997E+02  0.45594000000E+02  0.51100000000E-03 0.  1.
         11   -1    0    0    0    0 -0.00000000000E+00 -0.00000000000E+00 -0.45593999997E+02  0.45594000000E+02  0.51100000000E-03 0. -1.
    9900012    2    1    2    0    0 -0.14677406276E+02  0.34801371909E+02 -0.15053403949E+02  0.50528847130E+02  0.29999961335E+02 0.  0.
        -12    1    1    2    0    0  0.14677406276E+02 -0.34801371909E+02  0.15053403949E+02  0.40659152870E+02  0.00000000000E+00 0.  1.
         11    1    3    3    0    0 -0.65042344145E+01  0.12534495657E+02 -0.16287504562E+02  0.21556935121E+02  0.51100000000E-03 0. -1.
        -11    1    3    3    0    0 -0.98825997026E+01  0.87027775865E+01  0.60306129695E+01  0.14483521935E+02  0.51100000000E-03 0.  1.
        -12    1    3    3    0    0  0.17094278411E+01  0.13564098665E+02 -0.47965123564E+01  0.14488390073E+02  0.00000000000E+00 0.  1.
</event>
<event>
 7    1  0.4994895E-011  0.5052886E+02  0.7816164E-02  0.1300439E+00
        -11   -1    0    0    0    0  0.00000000000E+00  0.00000000000E+00  0.45593999997E+02  0.45594000000E+02  0.51100000000E-03 0.  1.
         11   -1    0    0    0    0 -0.00000000000E+00 -0.00000000000E+00 -0.45593999997E+02  0.45594000000E+02  0.51100000000E-03 0. -1.
    9900012    2    1    2    0    0 -0.16052258017E+02 -0.34613800934E+02  0.14049033843E+02  0.50528861366E+02  0.30000004609E+02 0.  0.
        -12    1    1    2    0    0  0.16052258017E+02  0.34613800934E+02 -0.14049033843E+02  0.40659138634E+02  0.00000000000E+00 0.  1.
         11    1    3    3    0    0 -0.13837225864E+02 -0.28246719487E+02  0.19527440824E+02  0.37022519185E+02  0.51100000000E-03 0. -1.
        -11    1    3    3    0    0  0.40629288647E+01 -0.14118057989E+01 -0.13652779851E+01  0.45127121347E+01  0.51100000000E-03 0.  1.
         12    1    3    3    0    0 -0.62779610173E+01 -0.49552756481E+01 -0.41131289959E+01  0.89936300469E+01  0.00000000000E+00 0. -1.
</event>
<event>
 7    1  0.4994895E-011  0.5052886E+02  0.7816164E-02  0.1300439E+00
        -11   -1    0    0    0    0  0.00000000000E+00  0.00000000000E+00  0.45593999997E+02  0.45594000000E+02  0.51100000000E-03 0.  1.
         11   -1    0    0    0    0 -0.00000000000E+00 -0.00000000000E+00 -0.45593999997E+02  0.45594000000E+02  0.51100000000E-03 0. -1.
    9900012    2    1    2    0    0  0.35201385664E+02 -0.47349311299E+01 -0.19789106045E+02  0.50528857811E+02  0.29999993802E+02 0.  0.
        -12    1    1    2    0    0 -0.35201385664E+02  0.47349311299E+01  0.19789106045E+02  0.40659142189E+02  0.00000000000E+00 0.  1.
         11    1    3    3    0    0  0.20383935939E+02 -0.71004270515E+01 -0.89619762213E+01  0.23371733498E+02  0.51100000000E-03 0. -1.
        -11    1    3    3    0    0  0.22700579162E+01  0.34011721119E+00 -0.13894165880E+02  0.14082495816E+02  0.51100000000E-03 0.  1.
         12    1    3    3    0    0  0.12547391810E+02  0.20253787104E+01  0.30670360562E+01  0.13074628496E+02  0.00000000000E+00 0. -1.
</event>
<event>
 7    1  0.4994895E-011  0.5052886E+02  0.7816164E-02  0.1300439E+00
        -11   -1    0    0    0    0  0.00000000000E+00  0.00000000000E+00  0.45593999997E+02  0.45594000000E+02  0.51100000000E-03 0.  1.
         11   -1    0    0    0    0 -0.00000000000E+00 -0.00000000000E+00 -0.45593999997E+02  0.45594000000E+02  0.51100000000E-03 0. -1.
    9900012    2    1    2    0    0  0.22486475145E+02 -0.28840737667E+02 -0.17768952924E+02  0.50528863246E+02  0.30000010321E+02 0.  0.
        -12    1    1    2    0    0 -0.22486475145E+02  0.28840737667E+02  0.17768952924E+02  0.40659136754E+02  0.00000000000E+00 0.  1.
         11    1    3    3    0    0  0.11040236856E+02 -0.24101858631E+02 -0.17551943718E+02  0.31793979742E+02  0.51100000000E-03 0. -1.
        -11    1    3    3    0    0  0.13785824439E+02 -0.64244664110E+01  0.16517617400E+01  0.15298726785E+02  0.51100000000E-03 0.  1.
         12    1    3    3    0    0 -0.23395861499E+01  0.16855873748E+01 -0.18687709451E+01  0.34361567188E+01  0.00000000000E+00 0. -1.
</event>
<event>
 7    1  0.4994895E-011  0.5052886E+02  0.7816164E-02  0.1300439E+00
        -11   -1    0    0    0    0  0.00000000000E+00  0.00000000000E+00  0.45593999997E+02  0.45594000000E+02  0.51100000000E-03 0.  1.
         11   -1    0    0    0    0 -0.00000000000E+00 -0.00000000000E+00 -0.45593999997E+02  0.45594000000E+02  0.51100000000E-03 0. -1.
    9900012    2    1    2    0    0  0.22068015428E+02 -0.30873782213E+02 -0.14593768524E+02  0.50528858189E+02  0.29999994953E+02 0.  0.
        -12    1    1    2    0    0 -0.22068015428E+02  0.30873782213E+02  0.14593768524E+02  0.40659141811E+02  0.00000000000E+00 0.  1.
         11    1    3    3    0    0  0.83037280608E+01 -0.10081317882E+02 -0.15296620083E+01  0.13150085021E+02  0.51100000000E-03 0. -1.
        -11    1    3    3    0    0 -0.29611964020E+01 -0.14579256032E+02 -0.12655828887E+02  0.19531855919E+02  0.51100000000E-03 0.  1.
        -12    1    3    3    0    0  0.16725483769E+02 -0.62132082983E+01 -0.40827762881E+00  0.17846917249E+02  0.00000000000E+00 0.  1.
</event>
<event>
 7    1  0.4994895E-011  0.5052886E+02  0.7816164E-02  0.1300439E+00
        -11   -1    0    0    0    0  0.00000000000E+00  0.00000000000E+00  0.45593999997E+02  0.45594000000E+02  0.51100000000E-03 0.  1.
         11   -1    0    0    0    0 -0.00000000000E+00 -0.00000000000E+00 -0.45593999997E+02  0.45594000000E+02  0.51100000000E-03 0. -1.
    9900012    2    1    2    0    0 -0.40124006429E+02 -0.63044031122E+01 -0.18665759975E+01  0.50528862079E+02  0.30000006775E+02 0.  0.
        -12    1    1    2    0    0  0.40124006429E+02  0.63044031122E+01  0.18665759975E+01  0.40659137921E+02  0.00000000000E+00 0.  1.
         11    1    3    3    0    0 -0.25292252305E+02 -0.27961469733E+01 -0.11224249278E+02  0.27811872225E+02  0.51100000000E-03 0. -1.
        -11    1    3    3    0    0  0.23567793549E+01  0.85236288572E+00  0.29284488190E+01  0.38544447282E+01  0.51100000000E-03 0.  1.
         12    1    3    3    0    0 -0.17188533479E+02 -0.43606190246E+01  0.64292244611E+01  0.18862545125E+02  0.00000000000E+00 0. -1.
</event>
<event>
 7    1  0.4994895E-011  0.5052886E+02  0.7816164E-02  0.1300439E+00
        -11   -1    0    0    0    0  0.00000000000E+00  0.00000000000E+00  0.45593999997E+02  0.45594000000E+02  0.51100000000E-03 0. -1.
         11   -1    0    0    0    0 -0.00000000000E+00 -0.00000000000E+00 -0.45593999997E+02  0.45594000000E+02  0.51100000000E-03 0.  1.
    9900012    2    1    2    0    0 -0.10712586321E+02 -0.25064469366E+02  0.30169166107E+02  0.50528859406E+02  0.29999998649E+02 0.  0.
        -12    1    1    2    0    0  0.10712586321E+02  0.25064469366E+02 -0.30169166107E+02  0.40659140594E+02  0.00000000000E+00 0.  1.
         11    1    3    3    0    0 -0.17555731642E+01  0.38225435963E+01 -0.11000513909E+01  0.43478718937E+01  0.51100000000E-03 0. -1.
        -11    1    3    3    0    0 -0.92169750905E+01 -0.13851865529E+02  0.79649992332E+01  0.18446355236E+02  0.51100000000E-03 0.  1.
         12    1    3    3    0    0  0.25996193324E+00 -0.15035147434E+02  0.23304218264E+02  0.27734632276E+02  0.00000000000E+00 0. -1.
</event>
<event>
 7    1  0.4994895E-011  0.5052875E+02  0.7816164E-02  0.1300439E+00
        -11   -1    0    0    0    0  0.00000000000E+00  0.00000000000E+00  0.45593999997E+02  0.45594000000E+02  0.51100000000E-03 0.  1.
         11   -1    0    0    0    0 -0.00000000000E+00 -0.00000000000E+00 -0.45593999997E+02  0.45594000000E+02  0.51100000000E-03 0. -1.
    9900012    2    1    2    0    0  0.14199349058E+02  0.18425446847E+02 -0.33347508473E+02  0.50528746114E+02  0.29999654286E+02 0.  0.
        -12    1    1    2    0    0 -0.14199349058E+02 -0.18425446847E+02  0.33347508473E+02  0.40659253886E+02  0.00000000000E+00 0.  1.
         11    1    3    3    0    0  0.12833066560E+02  0.16228225275E+02 -0.38874003658E+02  0.44036701211E+02  0.51100000000E-03 0. -1.
        -11    1    3    3    0    0 -0.10748150523E+00  0.16620724857E+01  0.18173291480E+01  0.24651009543E+01  0.51100000000E-03 0.  1.
         12    1    3    3    0    0  0.14737640029E+01  0.53514908699E+00  0.37091660362E+01  0.40269439486E+01  0.00000000000E+00 0. -1.
</event>
<event>
 7    1  0.4994895E-011  0.5052886E+02  0.7816164E-02  0.1300439E+00
        -11   -1    0    0    0    0  0.00000000000E+00  0.00000000000E+00  0.45593999997E+02  0.45594000000E+02  0.51100000000E-03 0. -1.
         11   -1    0    0    0    0 -0.00000000000E+00 -0.00000000000E+00 -0.45593999997E+02  0.45594000000E+02  0.51100000000E-03 0.  1.
    9900012    2    1    2    0    0  0.23278138423E+02  0.32947593663E+02 -0.50744112136E+01  0.50528864424E+02  0.30000013903E+02 0.  0.
        -12    1    1    2    0    0 -0.23278138423E+02 -0.32947593663E+02  0.50744112136E+01  0.40659135576E+02  0.00000000000E+00 0.  1.
         11    1    3    3    0    0  0.61655302431E+01  0.74199269339E+01  0.32388018245E+01  0.10176390146E+02  0.51100000000E-03 0. -1.
        -11    1    3    3    0    0  0.11232905440E+02  0.25700976346E+01 -0.11689936724E+02  0.16414572409E+02  0.51100000000E-03 0.  1.
        -12    1    3    3    0    0  0.58797027391E+01  0.22957569095E+02  0.33767236859E+01  0.23937901869E+02  0.00000000000E+00 0.  1.
</event>
<event>
 7    1  0.4994895E-011  0.5052884E+02  0.7816164E-02  0.1300439E+00
        -11   -1    0    0    0    0  0.00000000000E+00  0.00000000000E+00  0.45593999997E+02  0.45594000000E+02  0.51100000000E-03 0.  1.
         11   -1    0    0    0    0 -0.00000000000E+00 -0.00000000000E+00 -0.45593999997E+02  0.45594000000E+02  0.51100000000E-03 0. -1.
    9900012    2    1    2    0    0  0.30946008375E+02 -0.19786520526E+02 -0.17435753984E+02  0.50528839336E+02  0.29999937646E+02 0.  0.
        -12    1    1    2    0    0 -0.30946008375E+02  0.19786520526E+02  0.17435753984E+02  0.40659160664E+02  0.00000000000E+00 0.  1.
         11    1    3    3    0    0  0.47880607803E+01  0.38677749953E+01 -0.10253659666E+02  0.11959211774E+02  0.51100000000E-03 0. -1.
        -11    1    3    3    0    0  0.26214207224E+02 -0.24889966359E+02 -0.56285915248E+01  0.36583823318E+02  0.51100000000E-03 0.  1.
        -12    1    3    3    0    0 -0.56259629190E-01  0.12356708381E+01 -0.15535027935E+01  0.19858042440E+01  0.00000000000E+00 0.  1.
</event>
<event>
 7    1  0.4994895E-011  0.5052888E+02  0.7816164E-02  0.1300439E+00
        -11   -1    0    0    0    0  0.00000000000E+00  0.00000000000E+00  0.45593999997E+02  0.45594000000E+02  0.51100000000E-03 0. -1.
         11   -1    0    0    0    0 -0.00000000000E+00 -0.00000000000E+00 -0.45593999997E+02  0.45594000000E+02  0.51100000000E-03 0.  1.
    9900012    2    1    2    0    0 -0.22128424954E+02  0.11035402419E+02  0.32275635547E+02  0.50528881127E+02  0.30000064674E+02 0.  0.
        -12    1    1    2    0    0  0.22128424954E+02 -0.11035402419E+02 -0.32275635547E+02  0.40659118873E+02  0.00000000000E+00 0.  1.
         11    1    3    3    0    0  0.16241741700E+01  0.63908727475E+01  0.17682474810E+02  0.18871966296E+02  0.51100000000E-03 0. -1.
        -11    1    3    3    0    0 -0.18199447576E+02  0.95402927731E+01  0.12094384068E+02  0.23843472996E+02  0.51100000000E-03 0.  1.
        -12    1    3    3    0    0 -0.55531515486E+01 -0.48957631014E+01  0.24987766688E+01  0.78134418349E+01  0.00000000000E+00 0.  1.
</event>
<event>
 7    1  0.4994895E-011  0.5052886E+02  0.7816164E-02  0.1300439E+00
        -11   -1    0    0    0    0  0.00000000000E+00  0.00000000000E+00  0.45593999997E+02  0.45594000000E+02  0.51100000000E-03 0.  1.
         11   -1    0    0    0    0 -0.00000000000E+00 -0.00000000000E+00 -0.45593999997E+02  0.45594000000E+02  0.51100000000E-03 0. -1.
    9900012    2    1    2    0    0  0.26225759230E+02  0.53776839894E+00 -0.31065834800E+02  0.50528859160E+02  0.29999997902E+02 0.  0.
        -12    1    1    2    0    0 -0.26225759230E+02 -0.53776839894E+00  0.31065834800E+02  0.40659140840E+02  0.00000000000E+00 0.  1.
         11    1    3    3    0    0  0.90894050241E+01  0.93244353118E+01 -0.99116539030E+01  0.16364695565E+02  0.51100000000E-03 0. -1.
        -11    1    3    3    0    0 -0.29412279460E+01 -0.50015388880E+01 -0.19416210103E+01  0.61185051677E+01  0.51100000000E-03 0.  1.
        -12    1    3    3    0    0  0.20077582152E+02 -0.37851280249E+01 -0.19212559887E+02  0.28045658427E+02  0.00000000000E+00 0.  1.
</event>
<event>
 7    1  0.4994895E-011  0.5052885E+02  0.7816164E-02  0.1300439E+00
        -11   -1    0    0    0    0  0.00000000000E+00  0.00000000000E+00  0.45593999997E+02  0.45594000000E+02  0.51100000000E-03 0.  1.
         11   -1    0    0    0    0 -0.00000000000E+00 -0.00000000000E+00 -0.45593999997E+02  0.45594000000E+02  0.51100000000E-03 0. -1.
    9900012    2    1    2    0    0  0.20651859160E+01 -0.11322872701E+02 -0.38996072901E+02  0.50528854156E+02  0.29999982693E+02 0.  0.
        -12    1    1    2    0    0 -0.20651859160E+01  0.11322872701E+02  0.38996072901E+02  0.40659145844E+02  0.00000000000E+00 0.  1.
         11    1    3    3    0    0  0.93475633740E+00 -0.19741884753E+01 -0.18526610092E+02  0.18654931555E+02  0.51100000000E-03 0. -1.
        -11    1    3    3    0    0  0.10739652137E+02 -0.67918097489E+01 -0.53716082682E+01  0.13795759614E+02  0.51100000000E-03 0.  1.
        -12    1    3    3    0    0 -0.96092225581E+01 -0.25568744769E+01 -0.15097854540E+02  0.18078162987E+02  0.00000000000E+00 0.  1.
</event>
<event>
 7    1  0.4994895E-011  0.5052886E+02  0.7816164E-02  0.1300439E+00
        -11   -1    0    0    0    0  0.00000000000E+00  0.00000000000E+00  0.45593999997E+02  0.45594000000E+02  0.51100000000E-03 0.  1.
         11   -1    0    0    0    0 -0.00000000000E+00 -0.00000000000E+00 -0.45593999997E+02  0.45594000000E+02  0.51100000000E-03 0. -1.
    9900012    2    1    2    0    0  0.28045707893E+02 -0.13232004228E+02 -0.26296729997E+02  0.50528859876E+02  0.30000000080E+02 0.  0.
        -12    1    1    2    0    0 -0.28045707893E+02  0.13232004228E+02  0.26296729997E+02  0.40659140124E+02  0.00000000000E+00 0.  1.
         11    1    3    3    0    0  0.20982463416E+02 -0.80210167950E+01 -0.99258748938E+01  0.24558572314E+02  0.51100000000E-03 0. -1.
        -11    1    3    3    0    0 -0.40279382679E+00  0.52619746571E+01 -0.10665856604E+02  0.11900046955E+02  0.51100000000E-03 0.  1.
        -12    1    3    3    0    0  0.74660383036E+01 -0.10472962090E+02 -0.57049984985E+01  0.14070240608E+02  0.00000000000E+00 0.  1.
</event>
<event>
 7    1  0.4994895E-011  0.5052886E+02  0.7816164E-02  0.1300439E+00
        -11   -1    0    0    0    0  0.00000000000E+00  0.00000000000E+00  0.45593999997E+02  0.45594000000E+02  0.51100000000E-03 0. -1.
         11   -1    0    0    0    0 -0.00000000000E+00 -0.00000000000E+00 -0.45593999997E+02  0.45594000000E+02  0.51100000000E-03 0.  1.
    9900012    2    1    2    0    0  0.23425954068E+01  0.40591449165E+02  0.11040883491E+00  0.50528859716E+02  0.29999999592E+02 0.  0.
        -12    1    1    2    0    0 -0.23425954068E+01 -0.40591449165E+02 -0.11040883491E+00  0.40659140284E+02  0.00000000000E+00 0.  1.
         11    1    3    3    0    0 -0.59235570798E+01  0.14889822782E+02 -0.21380562087E+01  0.16166837525E+02  0.51100000000E-03 0. -1.
        -11    1    3    3    0    0  0.78200157292E+01  0.61746755813E-01 -0.26451717314E+01  0.82555067934E+01  0.51100000000E-03 0.  1.
        -12    1    3    3    0    0  0.44613675736E+00  0.25639879627E+02  0.48936367750E+01  0.26106515397E+02  0.00000000000E+00 0.  1.
</event>
<event>
 7    1  0.4994895E-011  0.5052887E+02  0.7816164E-02  0.1300439E+00
        -11   -1    0    0    0    0  0.00000000000E+00  0.00000000000E+00  0.45593999997E+02  0.45594000000E+02  0.51100000000E-03 0.  1.
         11   -1    0    0    0    0 -0.00000000000E+00 -0.00000000000E+00 -0.45593999997E+02  0.45594000000E+02  0.51100000000E-03 0. -1.
    9900012    2    1    2    0    0  0.20229368262E+02  0.34697186273E+02  0.63279356581E+01  0.50528870088E+02  0.30000031120E+02 0.  0.
        -12    1    1    2    0    0 -0.20229368262E+02 -0.34697186273E+02 -0.63279356581E+01  0.40659129912E+02  0.00000000000E+00 0.  1.
         11    1    3    3    0    0  0.22895187199E+02  0.15399941269E+02 -0.57825516280E+00  0.27598589951E+02  0.51100000000E-03 0. -1.
        -11    1    3    3    0    0 -0.27652396239E+01  0.22726794130E+00  0.12150249075E+01  0.30289415117E+01  0.51100000000E-03 0.  1.
         12    1    3    3    0    0  0.99420686293E-01  0.19069977063E+02  0.56911659134E+01  0.19901338626E+02  0.00000000000E+00 0. -1.
</event>
<event>
 7    1  0.4994895E-011  0.5052886E+02  0.7816164E-02  0.1300439E+00
        -11   -1    0    0    0    0  0.00000000000E+00  0.00000000000E+00  0.45593999997E+02  0.45594000000E+02  0.51100000000E-03 0.  1.
         11   -1    0    0    0    0 -0.00000000000E+00 -0.00000000000E+00 -0.45593999997E+02  0.45594000000E+02  0.51100000000E-03 0. -1.
    9900012    2    1    2    0    0 -0.22363816392E+02  0.33556695972E+02 -0.51936190896E+01  0.50528858255E+02  0.29999995152E+02 0.  0.
        -12    1    1    2    0    0  0.22363816392E+02 -0.33556695972E+02  0.51936190896E+01  0.40659141745E+02  0.00000000000E+00 0.  1.
         11    1    3    3    0    0  0.38370001083E+00  0.22232191866E+01 -0.91916144115E+01  0.94644442521E+01  0.51100000000E-03 0. -1.
        -11    1    3    3    0    0 -0.63925973554E+01  0.89697580291E+01  0.72225610062E+01  0.13171455796E+02  0.51100000000E-03 0.  1.
        -12    1    3    3    0    0 -0.16354919047E+02  0.22363718756E+02 -0.32245656843E+01  0.27892958207E+02  0.00000000000E+00 0.  1.
</event>
<event>
 7    1  0.4994895E-011  0.5052888E+02  0.7816164E-02  0.1300439E+00
        -11   -1    0    0    0    0  0.00000000000E+00  0.00000000000E+00  0.45593999997E+02  0.45594000000E+02  0.51100000000E-03 0.  1.
         11   -1    0    0    0    0 -0.00000000000E+00 -0.00000000000E+00 -0.45593999997E+02  0.45594000000E+02  0.51100000000E-03 0. -1.
    9900012    2    1    2    0    0 -0.19423618274E+01  0.13140468710E+02 -0.38428107765E+02  0.50528878591E+02  0.30000056964E+02 0.  0.
        -12    1    1    2    0    0  0.19423618274E+01 -0.13140468710E+02  0.38428107765E+02  0.40659121409E+02  0.00000000000E+00 0.  1.
         11    1    3    3    0    0 -0.15408431400E+02  0.96181055047E+01 -0.18577296852E+02  0.25981602535E+02  0.51100000000E-03 0. -1.
        -11    1    3    3    0    0  0.64192825508E+01  0.30749853425E+01 -0.76395603655E+01  0.10441532750E+02  0.51100000000E-03 0.  1.
         12    1    3    3    0    0  0.70467870219E+01  0.44737786319E+00 -0.12211250547E+02  0.14105743306E+02  0.00000000000E+00 0. -1.
</event>
<event>
 7    1  0.4994895E-011  0.5052886E+02  0.7816164E-02  0.1300439E+00
        -11   -1    0    0    0    0  0.00000000000E+00  0.00000000000E+00  0.45593999997E+02  0.45594000000E+02  0.51100000000E-03 0.  1.
         11   -1    0    0    0    0 -0.00000000000E+00 -0.00000000000E+00 -0.45593999997E+02  0.45594000000E+02  0.51100000000E-03 0. -1.
    9900012    2    1    2    0    0  0.14640320977E+02  0.10439765232E+02 -0.36466938673E+02  0.50528864340E+02  0.30000013648E+02 0.  0.
        -12    1    1    2    0    0 -0.14640320977E+02 -0.10439765232E+02  0.36466938673E+02  0.40659135660E+02  0.00000000000E+00 0.  1.
         11    1    3    3    0    0  0.13968754072E+02  0.59270878759E+01 -0.71432625928E+01  0.16771483588E+02  0.51100000000E-03 0. -1.
        -11    1    3    3    0    0 -0.85082199572E+00  0.10397818540E+02 -0.15841946890E+02  0.18968547915E+02  0.51100000000E-03 0.  1.
         12    1    3    3    0    0  0.15223889001E+01 -0.58851411837E+01 -0.13481729190E+02  0.14788832837E+02  0.00000000000E+00 0. -1.
</event>
<event>
 7    1  0.4994895E-011  0.5052886E+02  0.7816164E-02  0.1300439E+00
        -11   -1    0    0    0    0  0.00000000000E+00  0.00000000000E+00  0.45593999997E+02  0.45594000000E+02  0.51100000000E-03 0.  1.
         11   -1    0    0    0    0 -0.00000000000E+00 -0.00000000000E+00 -0.45593999997E+02  0.45594000000E+02  0.51100000000E-03 0. -1.
    9900012    2    1    2    0    0  0.55520697828E+01 -0.11461607284E+02 -0.38613103360E+02  0.50528859927E+02  0.30000000233E+02 0.  0.
        -12    1    1    2    0    0 -0.55520697828E+01  0.11461607284E+02  0.38613103360E+02  0.40659140073E+02  0.00000000000E+00 0.  1.
         11    1    3    3    0    0  0.23172389546E+01 -0.94720172681E+01 -0.39859330918E+02  0.41034801924E+02  0.51100000000E-03 0. -1.
        -11    1    3    3    0    0  0.11485142524E+01 -0.50767196040E+00  0.48859576875E+01  0.50447396952E+01  0.51100000000E-03 0.  1.
         12    1    3    3    0    0  0.20863165758E+01 -0.14819180560E+01 -0.36397301297E+01  0.44493183069E+01  0.00000000000E+00 0. -1.
</event>
<event>
 7    1  0.4994895E-011  0.5052888E+02  0.7816164E-02  0.1300439E+00
        -11   -1    0    0    0    0  0.00000000000E+00  0.00000000000E+00  0.45593999997E+02  0.45594000000E+02  0.51100000000E-03 0. -1.
         11   -1    0    0    0    0 -0.00000000000E+00 -0.00000000000E+00 -0.45593999997E+02  0.45594000000E+02  0.51100000000E-03 0.  1.
    9900012    2    1    2    0    0  0.78060884843E+01 -0.79528253179E+01  0.39102195684E+02  0.50528878572E+02  0.30000056908E+02 0.  0.
        -12    1    1    2    0    0 -0.78060884843E+01  0.79528253179E+01 -0.39102195684E+02  0.40659121428E+02  0.00000000000E+00 0.  1.
         11    1    3    3    0    0  0.16375679433E+02 -0.10018076018E+02  0.29529134940E+02  0.35220654942E+02  0.51100000000E-03 0. -1.
        -11    1    3    3    0    0 -0.29575174192E+01 -0.25438183901E+00 -0.98566080206E+00  0.31278022448E+01  0.51100000000E-03 0.  1.
         12    1    3    3    0    0 -0.56120735300E+01  0.23196325391E+01  0.10558721546E+02  0.12180421385E+02  0.00000000000E+00 0. -1.
</event>
<event>
 7    1  0.4994895E-011  0.5052885E+02  0.7816164E-02  0.1300439E+00
        -11   -1    0    0    0    0  0.00000000000E+00  0.00000000000E+00  0.45593999997E+02  0.45594000000E+02  0.51100000000E-03 0.  1.
         11   -1    0    0    0    0 -0.00000000000E+00 -0.00000000000E+00 -0.45593999997E+02  0.45594000000E+02  0.51100000000E-03 0. -1.
    9900012    2    1    2    0    0  0.44837322782E+01  0.13182725700E+02 -0.38200497529E+02  0.50528854368E+02  0.29999983337E+02 0.  0.
        -12    1    1    2    0    0 -0.44837322782E+01 -0.13182725700E+02  0.38200497529E+02  0.40659145632E+02  0.00000000000E+00 0.  1.
         11    1    3    3    0    0  0.90773221982E+01 -0.35793664129E+01 -0.10105303823E+02  0.14047306070E+02  0.51100000000E-03 0.  1.
        -11    1    3    3    0    0 -0.84915777869E+01  0.48030033992E+01 -0.17499547590E+02  0.20035216522E+02  0.51100000000E-03 0. -1.
        -12    1    3    3    0    0  0.38979878669E+01  0.11959088714E+02 -0.10595646116E+02  0.16446331776E+02  0.00000000000E+00 0.  1.
</event>
<event>
 7    1  0.4994895E-011  0.5052887E+02  0.7816164E-02  0.1300439E+00
        -11   -1    0    0    0    0  0.00000000000E+00  0.00000000000E+00  0.45593999997E+02  0.45594000000E+02  0.51100000000E-03 0. -1.
         11   -1    0    0    0    0 -0.00000000000E+00 -0.00000000000E+00 -0.45593999997E+02  0.45594000000E+02  0.51100000000E-03 0.  1.
    9900012    2    1    2    0    0 -0.29758942076E+01  0.98987369427E+01  0.39323328552E+02  0.50528866859E+02  0.30000021305E+02 0.  0.
        -12    1    1    2    0    0  0.29758942076E+01 -0.98987369427E+01 -0.39323328552E+02  0.40659133141E+02  0.00000000000E+00 0.  1.
         11    1    3    3    0    0 -0.88261341654E+01 -0.11094128755E+01  0.12434554287E+02  0.15288871175E+02  0.51100000000E-03 0. -1.
        -11    1    3    3    0    0  0.78641714100E+01  0.15745975015E+02  0.21536702767E+02  0.27813854236E+02  0.51100000000E-03 0.  1.
         12    1    3    3    0    0 -0.20139314523E+01 -0.47378251964E+01  0.53520714975E+01  0.74261414477E+01  0.00000000000E+00 0. -1.
</event>
<event>
 7    1  0.4994895E-011  0.5052886E+02  0.7816164E-02  0.1300439E+00
        -11   -1    0    0    0    0  0.00000000000E+00  0.00000000000E+00  0.45593999997E+02  0.45594000000E+02  0.51100000000E-03 0.  1.
         11   -1    0    0    0    0 -0.00000000000E+00 -0.00000000000E+00 -0.45593999997E+02  0.45594000000E+02  0.51100000000E-03 0. -1.
    9900012    2    1    2    0    0 -0.95118435465E+01  0.36327824368E+02 -0.15587808269E+02  0.50528858868E+02  0.29999997015E+02 0.  0.
        -12    1    1    2    0    0  0.95118435465E+01 -0.36327824368E+02  0.15587808269E+02  0.40659141132E+02  0.00000000000E+00 0.  1.
         11    1    3    3    0    0 -0.14870498556E+02  0.15458171255E+02 -0.12676032474E+02  0.24915227982E+02  0.51100000000E-03 0. -1.
        -11    1    3    3    0    0  0.16485473306E+01  0.15340453911E+02  0.40793463766E+01  0.15958956784E+02  0.51100000000E-03 0.  1.
        -12    1    3    3    0    0  0.37101076788E+01  0.55291992015E+01 -0.69911221718E+01  0.96546741021E+01  0.00000000000E+00 0.  1.
</event>
<event>
 7    1  0.4994895E-011  0.5052885E+02  0.7816164E-02  0.1300439E+00
        -11   -1    0    0    0    0  0.00000000000E+00  0.00000000000E+00  0.45593999997E+02  0.45594000000E+02  0.51100000000E-03 0. -1.
         11   -1    0    0    0    0 -0.00000000000E+00 -0.00000000000E+00 -0.45593999997E+02  0.45594000000E+02  0.51100000000E-03 0.  1.
    9900012    2    1    2    0    0 -0.61375654547E+01 -0.37273566653E+02 -0.15039204222E+02  0.50528854111E+02  0.29999982557E+02 0.  0.
        -12    1    1    2    0    0  0.61375654547E+01  0.37273566653E+02  0.15039204222E+02  0.40659145889E+02  0.00000000000E+00 0.  1.
         11    1    3    3    0    0 -0.12788201427E+02 -0.11231452946E+02  0.23970308874E+01  0.17188059470E+02  0.51100000000E-03 0. -1.
        -11    1    3    3    0    0 -0.90248208340E+00 -0.40080114148E+01 -0.63039957394E+01  0.75245592533E+01  0.51100000000E-03 0.  1.
         12    1    3    3    0    0  0.75531180561E+01 -0.22034102292E+02 -0.11132239370E+02  0.25816235388E+02  0.00000000000E+00 0. -1.
</event>
<event>
 7    1  0.4994895E-011  0.5052886E+02  0.7816164E-02  0.1300439E+00
        -11   -1    0    0    0    0  0.00000000000E+00  0.00000000000E+00  0.45593999997E+02  0.45594000000E+02  0.51100000000E-03 0. -1.
         11   -1    0    0    0    0 -0.00000000000E+00 -0.00000000000E+00 -0.45593999997E+02  0.45594000000E+02  0.51100000000E-03 0.  1.
    9900012    2    1    2    0    0 -0.20482539260E+02  0.34700823819E+02 -0.54299328602E+01  0.50528858849E+02  0.29999996958E+02 0.  0.
        -12    1    1    2    0    0  0.20482539260E+02 -0.34700823819E+02  0.54299328602E+01  0.40659141151E+02  0.00000000000E+00 0.  1.
         11    1    3    3    0    0 -0.63156396402E+01  0.17607339854E+02 -0.99473571991E+01  0.21186213354E+02  0.51100000000E-03 0.  1.
        -11    1    3    3    0    0 -0.17602077427E+02  0.89644735362E+01  0.53873833773E+01  0.20474833710E+02  0.51100000000E-03 0. -1.
        -12    1    3    3    0    0  0.34351778074E+01  0.81290104294E+01 -0.86995903839E+00  0.88678117853E+01  0.00000000000E+00 0.  1.
</event>
<event>
 7    1  0.4994895E-011  0.5052885E+02  0.7816164E-02  0.1300439E+00
        -11   -1    0    0    0    0  0.00000000000E+00  0.00000000000E+00  0.45593999997E+02  0.45594000000E+02  0.51100000000E-03 0.  1.
         11   -1    0    0    0    0 -0.00000000000E+00 -0.00000000000E+00 -0.45593999997E+02  0.45594000000E+02  0.51100000000E-03 0. -1.
    9900012    2    1    2    0    0 -0.61896573359E+01 -0.13434493104E+02 -0.37873060089E+02  0.50528854124E+02  0.29999982595E+02 0.  0.
        -12    1    1    2    0    0  0.61896573359E+01  0.13434493104E+02  0.37873060089E+02  0.40659145876E+02  0.00000000000E+00 0.  1.
         11    1    3    3    0    0  0.81615103112E+01 -0.15208479521E+02 -0.16118674544E+02  0.23616091319E+02  0.51100000000E-03 0. -1.
        -11    1    3    3    0    0 -0.85388858616E+01  0.42317742208E+01 -0.13375367518E+02  0.16423183044E+02  0.51100000000E-03 0.  1.
         12    1    3    3    0    0 -0.58122817856E+01 -0.24577878038E+01 -0.83790180272E+01  0.10489579760E+02  0.00000000000E+00 0. -1.
</event>
<event>
 7    1  0.4994895E-011  0.5052885E+02  0.7816164E-02  0.1300439E+00
        -11   -1    0    0    0    0  0.00000000000E+00  0.00000000000E+00  0.45593999997E+02  0.45594000000E+02  0.51100000000E-03 0.  1.
         11   -1    0    0    0    0 -0.00000000000E+00 -0.00000000000E+00 -0.45593999997E+02  0.45594000000E+02  0.51100000000E-03 0. -1.
    9900012    2    1    2    0    0  0.32519965380E+02 -0.20759422838E+02 -0.12832160899E+02  0.50528854187E+02  0.29999982787E+02 0.  0.
        -12    1    1    2    0    0 -0.32519965380E+02  0.20759422838E+02  0.12832160899E+02  0.40659145813E+02  0.00000000000E+00 0.  1.
         11    1    3    3    0    0  0.15671062773E+02 -0.14844668227E+02 -0.69369992573E+01  0.22673075269E+02  0.51100000000E-03 0. -1.
        -11    1    3    3    0    0  0.68837812458E+01  0.53006459673E+01 -0.90277056669E+01  0.12529276187E+02  0.51100000000E-03 0.  1.
        -12    1    3    3    0    0  0.99651213609E+01 -0.11215400578E+02  0.31325440247E+01  0.15326502730E+02  0.00000000000E+00 0.  1.
</event>
<event>
 7    1  0.4994895E-011  0.5052886E+02  0.7816164E-02  0.1300439E+00
        -11   -1    0    0    0    0  0.00000000000E+00  0.00000000000E+00  0.45593999997E+02  0.45594000000E+02  0.51100000000E-03 0. -1.
         11   -1    0    0    0    0 -0.00000000000E+00 -0.00000000000E+00 -0.45593999997E+02  0.45594000000E+02  0.51100000000E-03 0.  1.
    9900012    2    1    2    0    0 -0.33345924279E+02 -0.63281329586E+01  0.22386812334E+02  0.50528864504E+02  0.30000014147E+02 0.  0.
        -12    1    1    2    0    0  0.33345924279E+02  0.63281329586E+01 -0.22386812334E+02  0.40659135496E+02  0.00000000000E+00 0.  1.
         11    1    3    3    0    0 -0.19910450597E+02 -0.12545615314E+02  0.15200691471E+01  0.23582389977E+02  0.51100000000E-03 0. -1.
        -11    1    3    3    0    0 -0.12962869182E+02  0.35908965446E+01  0.13271955089E+02  0.18896436373E+02  0.51100000000E-03 0.  1.
        -12    1    3    3    0    0 -0.47260450012E+00  0.26265858109E+01  0.75947880979E+01  0.80500381545E+01  0.00000000000E+00 0.  1.
</event>
<event>
 7    1  0.4994895E-011  0.5052885E+02  0.7816164E-02  0.1300439E+00
        -11   -1    0    0    0    0  0.00000000000E+00  0.00000000000E+00  0.45593999997E+02  0.45594000000E+02  0.51100000000E-03 0. -1.
         11   -1    0    0    0    0 -0.00000000000E+00 -0.00000000000E+00 -0.45593999997E+02  0.45594000000E+02  0.51100000000E-03 0.  1.
    9900012    2    1    2    0    0  0.18513053136E+02  0.81538172469E+01  0.35269651008E+02  0.50528853989E+02  0.29999982185E+02 0.  0.
        -12    1    1    2    0    0 -0.18513053136E+02 -0.81538172469E+01 -0.35269651008E+02  0.40659146011E+02  0.00000000000E+00 0.  1.
         11    1    3    3    0    0  0.96883186004E+00 -0.27303473744E+01  0.24649037292E+02  0.24818712127E+02  0.51100000000E-03 0. -1.
        -11    1    3    3    0    0  0.17944347139E+02  0.70480260934E+01  0.10253005192E+02  0.21835713448E+02  0.51100000000E-03 0.  1.
         12    1    3    3    0    0 -0.40012586246E+00  0.38361385279E+01  0.36760852412E+00  0.38744284144E+01  0.00000000000E+00 0. -1.
</event>
<event>
 7    1  0.4994895E-011  0.5052885E+02  0.7816164E-02  0.1300439E+00
        -11   -1    0    0    0    0  0.00000000000E+00  0.00000000000E+00  0.45593999997E+02  0.45594000000E+02  0.51100000000E-03 0. -1.
         11   -1    0    0    0    0 -0.00000000000E+00 -0.00000000000E+00 -0.45593999997E+02  0.45594000000E+02  0.51100000000E-03 0.  1.
    9900012    2    1    2    0    0 -0.27594350163E+02  0.10095716676E+02 -0.28103282036E+02  0.50528854444E+02  0.29999983569E+02 0.  0.
        -12    1    1    2    0    0  0.27594350163E+02 -0.10095716676E+02  0.28103282036E+02  0.40659145556E+02  0.00000000000E+00 0.  1.
         11    1    3    3    0    0  0.21036655755E+00  0.47567033928E+01  0.93769674000E+00  0.48528091548E+01  0.51100000000E-03 0. -1.
        -11    1    3    3    0    0 -0.91731336467E+01 -0.61607262801E+01 -0.18083860951E+02  0.21192615609E+02  0.51100000000E-03 0.  1.
        -12    1    3    3    0    0 -0.18631583074E+02  0.11499739563E+02 -0.10957117824E+02  0.24483429680E+02  0.00000000000E+00 0.  1.
</event>
<event>
 7    1  0.4994895E-011  0.5052887E+02  0.7816164E-02  0.1300439E+00
        -11   -1    0    0    0    0  0.00000000000E+00  0.00000000000E+00  0.45593999997E+02  0.45594000000E+02  0.51100000000E-03 0.  1.
         11   -1    0    0    0    0 -0.00000000000E+00 -0.00000000000E+00 -0.45593999997E+02  0.45594000000E+02  0.51100000000E-03 0. -1.
    9900012    2    1    2    0    0  0.77707777690E+01 -0.71859480220E+01 -0.39257384108E+02  0.50528867654E+02  0.30000023722E+02 0.  0.
        -12    1    1    2    0    0 -0.77707777690E+01  0.71859480220E+01  0.39257384108E+02  0.40659132346E+02  0.00000000000E+00 0.  1.
         11    1    3    3    0    0  0.10200625056E+02 -0.68984165828E+01 -0.29185993558E+02  0.31677486060E+02  0.51100000000E-03 0. -1.
        -11    1    3    3    0    0  0.45690569268E+01  0.22076132149E+01  0.13269320173E+01  0.52450534932E+01  0.51100000000E-03 0.  1.
         12    1    3    3    0    0 -0.69989042135E+01 -0.24951446541E+01 -0.11398322567E+02  0.13606328101E+02  0.00000000000E+00 0. -1.
</event>
<event>
 7    1  0.4994895E-011  0.5052885E+02  0.7816164E-02  0.1300439E+00
        -11   -1    0    0    0    0  0.00000000000E+00  0.00000000000E+00  0.45593999997E+02  0.45594000000E+02  0.51100000000E-03 0.  1.
         11   -1    0    0    0    0 -0.00000000000E+00 -0.00000000000E+00 -0.45593999997E+02  0.45594000000E+02  0.51100000000E-03 0. -1.
    9900012    2    1    2    0    0  0.26835309034E+02 -0.31036684365E+01 -0.30387498131E+02  0.50528848369E+02  0.29999965101E+02 0.  0.
        -12    1    1    2    0    0 -0.26835309034E+02  0.31036684365E+01  0.30387498131E+02  0.40659151631E+02  0.00000000000E+00 0.  1.
         11    1    3    3    0    0  0.14214557773E+02 -0.20321720572E+01  0.42041905229E+00  0.14365240283E+02  0.51100000000E-03 0. -1.
        -11    1    3    3    0    0  0.31955641440E+01  0.61287360437E+01 -0.91064582862E+01  0.11432437119E+02  0.51100000000E-03 0.  1.
         12    1    3    3    0    0  0.94251871178E+01 -0.72002324231E+01 -0.21701458897E+02  0.24731170967E+02  0.00000000000E+00 0. -1.
</event>
<event>
 7    1  0.4994895E-011  0.5052886E+02  0.7816164E-02  0.1300439E+00
        -11   -1    0    0    0    0  0.00000000000E+00  0.00000000000E+00  0.45593999997E+02  0.45594000000E+02  0.51100000000E-03 0.  1.
         11   -1    0    0    0    0 -0.00000000000E+00 -0.00000000000E+00 -0.45593999997E+02  0.45594000000E+02  0.51100000000E-03 0. -1.
    9900012    2    1    2    0    0 -0.23015478538E+02  0.11302394709E+02 -0.31554855314E+02  0.50528864835E+02  0.30000015153E+02 0.  0.
        -12    1    1    2    0    0  0.23015478538E+02 -0.11302394709E+02  0.31554855314E+02  0.40659135165E+02  0.00000000000E+00 0.  1.
         11    1    3    3    0    0  0.88790227487E-01  0.77911382406E+01 -0.19442880382E+02  0.20946009563E+02  0.51100000000E-03 0. -1.
        -11    1    3    3    0    0 -0.66450485870E+01 -0.74274234863E+00  0.25274474802E+01  0.71481695521E+01  0.51100000000E-03 0.  1.
        -12    1    3    3    0    0 -0.16459220178E+02  0.42539988175E+01 -0.14639422412E+02  0.22434685720E+02  0.00000000000E+00 0.  1.
</event>
<event>
 7    1  0.4994895E-011  0.5052874E+02  0.7816164E-02  0.1300439E+00
        -11   -1    0    0    0    0  0.00000000000E+00  0.00000000000E+00  0.45593999997E+02  0.45594000000E+02  0.51100000000E-03 0. -1.
         11   -1    0    0    0    0 -0.00000000000E+00 -0.00000000000E+00 -0.45593999997E+02  0.45594000000E+02  0.51100000000E-03 0.  1.
    9900012    2    1    2    0    0  0.37501684786E+02 -0.70179173967E+01  0.14055173032E+02  0.50528740103E+02  0.29999636015E+02 0.  0.
        -12    1    1    2    0    0 -0.37501684786E+02  0.70179173967E+01 -0.14055173032E+02  0.40659259897E+02  0.00000000000E+00 0.  1.
         11    1    3    3    0    0  0.34142661645E+02 -0.12455790106E+02  0.13910418117E+02  0.38914878695E+02  0.51100000000E-03 0. -1.
        -11    1    3    3    0    0 -0.71111996929E+00 -0.11578316385E+01 -0.29660140194E+01  0.32624385264E+01  0.51100000000E-03 0.  1.
         12    1    3    3    0    0  0.40701431106E+01  0.65957043481E+01  0.31107689347E+01  0.83514228819E+01  0.00000000000E+00 0. -1.
</event>
<event>
 7    1  0.4994895E-011  0.5052886E+02  0.7816164E-02  0.1300439E+00
        -11   -1    0    0    0    0  0.00000000000E+00  0.00000000000E+00  0.45593999997E+02  0.45594000000E+02  0.51100000000E-03 0.  1.
         11   -1    0    0    0    0 -0.00000000000E+00 -0.00000000000E+00 -0.45593999997E+02  0.45594000000E+02  0.51100000000E-03 0. -1.
    9900012    2    1    2    0    0 -0.33443740596E+02 -0.11394210595E+01 -0.23095094788E+02  0.50528862421E+02  0.30000007814E+02 0.  0.
        -12    1    1    2    0    0  0.33443740596E+02  0.11394210595E+01  0.23095094788E+02  0.40659137579E+02  0.00000000000E+00 0.  1.
         11    1    3    3    0    0 -0.22657288492E+02  0.12447102390E+01 -0.21889392861E+02  0.31528519557E+02  0.51100000000E-03 0. -1.
        -11    1    3    3    0    0  0.37901876655E+01 -0.20888130370E+01 -0.88476941904E+00  0.44171800540E+01  0.51100000000E-03 0.  1.
        -12    1    3    3    0    0 -0.14576639770E+02 -0.29531826144E+00 -0.32093250838E+00  0.14583162809E+02  0.00000000000E+00 0.  1.
</event>
<event>
 7    1  0.4994895E-011  0.5052887E+02  0.7816164E-02  0.1300439E+00
        -11   -1    0    0    0    0  0.00000000000E+00  0.00000000000E+00  0.45593999997E+02  0.45594000000E+02  0.51100000000E-03 0. -1.
         11   -1    0    0    0    0 -0.00000000000E+00 -0.00000000000E+00 -0.45593999997E+02  0.45594000000E+02  0.51100000000E-03 0.  1.
    9900012    2    1    2    0    0  0.31444554919E+02 -0.25606706315E+02 -0.29498510147E+01  0.50528867405E+02  0.30000022965E+02 0.  0.
        -12    1    1    2    0    0 -0.31444554919E+02  0.25606706315E+02  0.29498510147E+01  0.40659132595E+02  0.00000000000E+00 0.  1.
         11    1    3    3    0    0  0.30272068197E+02 -0.11035491099E+02 -0.18607360324E+01  0.32274487069E+02  0.51100000000E-03 0. -1.
        -11    1    3    3    0    0 -0.22133172389E+01 -0.30078183336E+01  0.37294072554E+01  0.52777100210E+01  0.51100000000E-03 0.  1.
         12    1    3    3    0    0  0.33858039610E+01 -0.11563396882E+02 -0.48185222378E+01  0.12976670315E+02  0.00000000000E+00 0. -1.
</event>
<event>
 7    1  0.4994895E-011  0.5052886E+02  0.7816164E-02  0.1300439E+00
        -11   -1    0    0    0    0  0.00000000000E+00  0.00000000000E+00  0.45593999997E+02  0.45594000000E+02  0.51100000000E-03 0. -1.
         11   -1    0    0    0    0 -0.00000000000E+00 -0.00000000000E+00 -0.45593999997E+02  0.45594000000E+02  0.51100000000E-03 0.  1.
    9900012    2    1    2    0    0 -0.38502075853E+02 -0.79655503722E+01  0.10358841189E+02  0.50528862915E+02  0.30000009316E+02 0.  0.
        -12    1    1    2    0    0  0.38502075853E+02  0.79655503722E+01 -0.10358841189E+02  0.40659137085E+02  0.00000000000E+00 0.  1.
         11    1    3    3    0    0 -0.28617699852E+02 -0.69705726103E+01  0.97664240820E+01  0.31031349744E+02  0.51100000000E-03 0. -1.
        -11    1    3    3    0    0 -0.19263913951E+01  0.73903118682E+01  0.18811267524E+01  0.78655153319E+01  0.51100000000E-03 0.  1.
        -12    1    3    3    0    0 -0.79579846065E+01 -0.83852896301E+01 -0.12887096458E+01  0.11631997839E+02  0.00000000000E+00 0.  1.
</event>
<event>
 7    1  0.4994895E-011  0.5052881E+02  0.7816164E-02  0.1300439E+00
        -11   -1    0    0    0    0  0.00000000000E+00  0.00000000000E+00  0.45593999997E+02  0.45594000000E+02  0.51100000000E-03 0.  1.
         11   -1    0    0    0    0 -0.00000000000E+00 -0.00000000000E+00 -0.45593999997E+02  0.45594000000E+02  0.51100000000E-03 0. -1.
    9900012    2    1    2    0    0 -0.90047374767E+01 -0.29384616079E+02 -0.26620074776E+02  0.50528814811E+02  0.29999863098E+02 0.  0.
        -12    1    1    2    0    0  0.90047374767E+01  0.29384616079E+02  0.26620074776E+02  0.40659185189E+02  0.00000000000E+00 0.  1.
         11    1    3    3    0    0 -0.10545487882E+01 -0.14918733030E+01 -0.15257898976E+01  0.23802928752E+01  0.51100000000E-03 0. -1.
        -11    1    3    3    0    0 -0.12469978865E+02 -0.31578567868E+02 -0.16465206872E+02  0.37733398456E+02  0.51100000000E-03 0.  1.
        -12    1    3    3    0    0  0.45197901765E+01  0.36858250911E+01 -0.86290780066E+01  0.10415123479E+02  0.00000000000E+00 0.  1.
</event>
<event>
 7    1  0.4994895E-011  0.5052885E+02  0.7816164E-02  0.1300439E+00
        -11   -1    0    0    0    0  0.00000000000E+00  0.00000000000E+00  0.45593999997E+02  0.45594000000E+02  0.51100000000E-03 0.  1.
         11   -1    0    0    0    0 -0.00000000000E+00 -0.00000000000E+00 -0.45593999997E+02  0.45594000000E+02  0.51100000000E-03 0. -1.
    9900012    2    1    2    0    0 -0.36790774109E+02  0.17005151890E+02  0.32296315721E+01  0.50528846412E+02  0.29999959155E+02 0.  0.
        -12    1    1    2    0    0  0.36790774109E+02 -0.17005151890E+02 -0.32296315721E+01  0.40659153588E+02  0.00000000000E+00 0.  1.
         11    1    3    3    0    0 -0.15194326029E+02  0.22324877555E+01 -0.82375651429E+01  0.17427249490E+02  0.51100000000E-03 0. -1.
        -11    1    3    3    0    0 -0.25025290549E+01  0.64732238416E+01  0.10076889517E+02  0.12235562152E+02  0.51100000000E-03 0.  1.
         12    1    3    3    0    0 -0.19093919025E+02  0.82994402930E+01  0.13903071985E+01  0.20866034770E+02  0.00000000000E+00 0. -1.
</event>
<event>
 7    1  0.4994895E-011  0.5052886E+02  0.7816164E-02  0.1300439E+00
        -11   -1    0    0    0    0  0.00000000000E+00  0.00000000000E+00  0.45593999997E+02  0.45594000000E+02  0.51100000000E-03 0.  1.
         11   -1    0    0    0    0 -0.00000000000E+00 -0.00000000000E+00 -0.45593999997E+02  0.45594000000E+02  0.51100000000E-03 0. -1.
    9900012    2    1    2    0    0  0.11355734326E+02  0.38774731391E+02  0.45533708571E+01  0.50528859789E+02  0.29999999814E+02 0.  0.
        -12    1    1    2    0    0 -0.11355734326E+02 -0.38774731391E+02 -0.45533708571E+01  0.40659140211E+02  0.00000000000E+00 0.  1.
         11    1    3    3    0    0  0.12121197778E+02  0.24336401250E+02 -0.96270038230E+01  0.28842036410E+02  0.51100000000E-03 0. -1.
        -11    1    3    3    0    0 -0.22982708615E+01  0.12071671556E+02  0.74026213509E+01  0.14345943895E+02  0.51100000000E-03 0.  1.
         12    1    3    3    0    0  0.15328074097E+01  0.23666585852E+01  0.67777533292E+01  0.73408794845E+01  0.00000000000E+00 0. -1.
</event>
<event>
 7    1  0.4994895E-011  0.5052888E+02  0.7816164E-02  0.1300439E+00
        -11   -1    0    0    0    0  0.00000000000E+00  0.00000000000E+00  0.45593999997E+02  0.45594000000E+02  0.51100000000E-03 0.  1.
         11   -1    0    0    0    0 -0.00000000000E+00 -0.00000000000E+00 -0.45593999997E+02  0.45594000000E+02  0.51100000000E-03 0. -1.
    9900012    2    1    2    0    0 -0.29462865681E+02  0.23891934914E+02 -0.14638272576E+02  0.50528880087E+02  0.30000061511E+02 0.  0.
        -12    1    1    2    0    0  0.29462865681E+02 -0.23891934914E+02  0.14638272576E+02  0.40659119913E+02  0.00000000000E+00 0.  1.
         11    1    3    3    0    0  0.17716491029E+01  0.20752932203E+00 -0.67284457483E+01  0.69608757647E+01  0.51100000000E-03 0. -1.
        -11    1    3    3    0    0 -0.26337623488E+02  0.15797719331E+02  0.96180256210E+00  0.30727242172E+02  0.51100000000E-03 0.  1.
        -12    1    3    3    0    0 -0.48968912960E+01  0.78866862614E+01 -0.88716293903E+01  0.12840762150E+02  0.00000000000E+00 0.  1.
</event>
<event>
 7    1  0.4994895E-011  0.5052885E+02  0.7816164E-02  0.1300439E+00
        -11   -1    0    0    0    0  0.00000000000E+00  0.00000000000E+00  0.45593999997E+02  0.45594000000E+02  0.51100000000E-03 0.  1.
         11   -1    0    0    0    0 -0.00000000000E+00 -0.00000000000E+00 -0.45593999997E+02  0.45594000000E+02  0.51100000000E-03 0. -1.
    9900012    2    1    2    0    0 -0.21713037570E+02 -0.96169124435E+01 -0.33003419265E+02  0.50528847419E+02  0.29999962214E+02 0.  0.
        -12    1    1    2    0    0  0.21713037570E+02  0.96169124435E+01  0.33003419265E+02  0.40659152581E+02  0.00000000000E+00 0.  1.
         11    1    3    3    0    0 -0.12902147641E+00 -0.11195827095E+02 -0.48979313302E+01  0.12221003332E+02  0.51100000000E-03 0. -1.
        -11    1    3    3    0    0 -0.97033703801E+01  0.79079698380E+01 -0.14745159162E+02  0.19341951884E+02  0.51100000000E-03 0.  1.
         12    1    3    3    0    0 -0.11880645714E+02 -0.63290551868E+01 -0.13360328772E+02  0.18965892202E+02  0.00000000000E+00 0. -1.
</event>
<event>
 7    1  0.4994895E-011  0.5052888E+02  0.7816164E-02  0.1300439E+00
        -11   -1    0    0    0    0  0.00000000000E+00  0.00000000000E+00  0.45593999997E+02  0.45594000000E+02  0.51100000000E-03 0.  1.
         11   -1    0    0    0    0 -0.00000000000E+00 -0.00000000000E+00 -0.45593999997E+02  0.45594000000E+02  0.51100000000E-03 0. -1.
    9900012    2    1    2    0    0  0.27722554686E+02 -0.49548291794E+01 -0.29327018147E+02  0.50528876007E+02  0.30000049110E+02 0.  0.
        -12    1    1    2    0    0 -0.27722554686E+02  0.49548291794E+01  0.29327018147E+02  0.40659123993E+02  0.00000000000E+00 0.  1.
         11    1    3    3    0    0  0.92628358891E+01 -0.12380665596E+02 -0.22783779880E+02  0.27535098242E+02  0.51100000000E-03 0. -1.
        -11    1    3    3    0    0  0.12337860453E+02 -0.10323001448E+00 -0.37729815970E+01  0.12902280705E+02  0.51100000000E-03 0.  1.
         12    1    3    3    0    0  0.61218583436E+01  0.75290664307E+01 -0.27702566699E+01  0.10091497060E+02  0.00000000000E+00 0. -1.
</event>
<event>
 7    1  0.4994895E-011  0.5052886E+02  0.7816164E-02  0.1300439E+00
        -11   -1    0    0    0    0  0.00000000000E+00  0.00000000000E+00  0.45593999997E+02  0.45594000000E+02  0.51100000000E-03 0.  1.
         11   -1    0    0    0    0 -0.00000000000E+00 -0.00000000000E+00 -0.45593999997E+02  0.45594000000E+02  0.51100000000E-03 0. -1.
    9900012    2    1    2    0    0 -0.10385126320E+02  0.39116975887E+02  0.38957731873E+01  0.50528859577E+02  0.29999999170E+02 0.  0.
        -12    1    1    2    0    0  0.10385126320E+02 -0.39116975887E+02 -0.38957731873E+01  0.40659140423E+02  0.00000000000E+00 0.  1.
         11    1    3    3    0    0 -0.11309658713E+02  0.25360645006E+02  0.47568265239E+01  0.28172647980E+02  0.51100000000E-03 0. -1.
        -11    1    3    3    0    0  0.17795774412E+01 -0.33904985098E+01 -0.32502868450E+01  0.50226229054E+01  0.51100000000E-03 0.  1.
        -12    1    3    3    0    0 -0.85504504763E+00  0.17146829391E+02  0.23892335084E+01  0.17333588692E+02  0.00000000000E+00 0.  1.
</event>
<event>
 7    1  0.4994895E-011  0.5052886E+02  0.7816164E-02  0.1300439E+00
        -11   -1    0    0    0    0  0.00000000000E+00  0.00000000000E+00  0.45593999997E+02  0.45594000000E+02  0.51100000000E-03 0. -1.
         11   -1    0    0    0    0 -0.00000000000E+00 -0.00000000000E+00 -0.45593999997E+02  0.45594000000E+02  0.51100000000E-03 0.  1.
    9900012    2    1    2    0    0  0.24501260072E+02 -0.24015358516E+02  0.21820086692E+02  0.50528863598E+02  0.30000011392E+02 0.  0.
        -12    1    1    2    0    0 -0.24501260072E+02  0.24015358516E+02 -0.21820086692E+02  0.40659136402E+02  0.00000000000E+00 0.  1.
         11    1    3    3    0    0  0.26389908575E+02 -0.15233108078E+02  0.13722731817E+02  0.33418381545E+02  0.51100000000E-03 0. -1.
        -11    1    3    3    0    0 -0.99905457728E+00 -0.62436681849E+01 -0.20229319103E+01  0.66388068376E+01  0.51100000000E-03 0.  1.
         12    1    3    3    0    0 -0.88959392571E+00 -0.25385822529E+01  0.10120286785E+02  0.10471675215E+02  0.00000000000E+00 0. -1.
</event>
<event>
 7    1  0.4994895E-011  0.5052875E+02  0.7816164E-02  0.1300439E+00
        -11   -1    0    0    0    0  0.00000000000E+00  0.00000000000E+00  0.45593999997E+02  0.45594000000E+02  0.51100000000E-03 0. -1.
         11   -1    0    0    0    0 -0.00000000000E+00 -0.00000000000E+00 -0.45593999997E+02  0.45594000000E+02  0.51100000000E-03 0.  1.
    9900012    2    1    2    0    0  0.38458735740E+02  0.11877398502E+02  0.57470012817E+01  0.50528745535E+02  0.29999652527E+02 0.  0.
        -12    1    1    2    0    0 -0.38458735740E+02 -0.11877398502E+02 -0.57470012817E+01  0.40659254465E+02  0.00000000000E+00 0.  1.
         11    1    3    3    0    0  0.33255946188E+02  0.15935237318E+02  0.40455979122E+01  0.37097932664E+02  0.51100000000E-03 0. -1.
        -11    1    3    3    0    0  0.45710448963E+01 -0.60986223187E+01  0.52738794539E+01  0.92683035333E+01  0.51100000000E-03 0.  1.
         12    1    3    3    0    0  0.63174465588E+00  0.20407835035E+01 -0.35724760843E+01  0.41625093383E+01  0.00000000000E+00 0. -1.
</event>
<event>
 7    1  0.4994895E-011  0.5052886E+02  0.7816164E-02  0.1300439E+00
        -11   -1    0    0    0    0  0.00000000000E+00  0.00000000000E+00  0.45593999997E+02  0.45594000000E+02  0.51100000000E-03 0. -1.
         11   -1    0    0    0    0 -0.00000000000E+00 -0.00000000000E+00 -0.45593999997E+02  0.45594000000E+02  0.51100000000E-03 0.  1.
    9900012    2    1    2    0    0 -0.96251989992E+01  0.24286164278E+02  0.31156117823E+02  0.50528857007E+02  0.29999991359E+02 0.  0.
        -12    1    1    2    0    0  0.96251989992E+01 -0.24286164278E+02 -0.31156117823E+02  0.40659142993E+02  0.00000000000E+00 0.  1.
         11    1    3    3    0    0  0.58577795068E+01  0.14083071546E+02  0.22701801150E+02  0.27349922497E+02  0.51100000000E-03 0.  1.
        -11    1    3    3    0    0 -0.12397031855E+02  0.56736266224E+01  0.10624040892E+02  0.17284290063E+02  0.51100000000E-03 0. -1.
         12    1    3    3    0    0 -0.30859466507E+01  0.45294661092E+01 -0.21697242181E+01  0.58946444463E+01  0.00000000000E+00 0. -1.
</event>
<event>
 7    1  0.4994895E-011  0.5052887E+02  0.7816164E-02  0.1300439E+00
        -11   -1    0    0    0    0  0.00000000000E+00  0.00000000000E+00  0.45593999997E+02  0.45594000000E+02  0.51100000000E-03 0. -1.
         11   -1    0    0    0    0 -0.00000000000E+00 -0.00000000000E+00 -0.45593999997E+02  0.45594000000E+02  0.51100000000E-03 0.  1.
    9900012    2    1    2    0    0  0.11962502511E+02 -0.36980886003E+01  0.38683164899E+02  0.50528873445E+02  0.30000041323E+02 0.  0.
        -12    1    1    2    0    0 -0.11962502511E+02  0.36980886003E+01 -0.38683164899E+02  0.40659126555E+02  0.00000000000E+00 0.  1.
         11    1    3    3    0    0 -0.45679217520E+01 -0.96259845684E+01  0.10414562763E+02  0.14899282058E+02  0.51100000000E-03 0. -1.
        -11    1    3    3    0    0  0.39687756236E+01  0.63673645976E+01  0.17638240435E+02  0.19167734289E+02  0.51100000000E-03 0.  1.
         12    1    3    3    0    0  0.12561648639E+02 -0.43946862953E+00  0.10630361701E+02  0.16461857098E+02  0.00000000000E+00 0. -1.
</event>
<event>
 7    1  0.4994895E-011  0.5052886E+02  0.7816164E-02  0.1300439E+00
        -11   -1    0    0    0    0  0.00000000000E+00  0.00000000000E+00  0.45593999997E+02  0.45594000000E+02  0.51100000000E-03 0.  1.
         11   -1    0    0    0    0 -0.00000000000E+00 -0.00000000000E+00 -0.45593999997E+02  0.45594000000E+02  0.51100000000E-03 0. -1.
    9900012    2    1    2    0    0  0.93835832258E+01  0.36698832976E+02 -0.14775310711E+02  0.50528858560E+02  0.29999996080E+02 0.  0.
        -12    1    1    2    0    0 -0.93835832258E+01 -0.36698832976E+02  0.14775310711E+02  0.40659141440E+02  0.00000000000E+00 0.  1.
         11    1    3    3    0    0  0.95086979363E+01  0.89170219906E+01 -0.16341632978E+02  0.20904008856E+02  0.51100000000E-03 0. -1.
        -11    1    3    3    0    0 -0.20553695624E+01  0.26662671396E+02 -0.25757601886E+00  0.26743016577E+02  0.51100000000E-03 0.  1.
        -12    1    3    3    0    0  0.19302548519E+01  0.11191395901E+01  0.18238982853E+01  0.28818331268E+01  0.00000000000E+00 0.  1.
</event>
<event>
 7    1  0.4994895E-011  0.5052887E+02  0.7816164E-02  0.1300439E+00
        -11   -1    0    0    0    0  0.00000000000E+00  0.00000000000E+00  0.45593999997E+02  0.45594000000E+02  0.51100000000E-03 0. -1.
         11   -1    0    0    0    0 -0.00000000000E+00 -0.00000000000E+00 -0.45593999997E+02  0.45594000000E+02  0.51100000000E-03 0.  1.
    9900012    2    1    2    0    0 -0.16150328694E+02  0.13867731497E+02  0.34641277797E+02  0.50528865464E+02  0.30000017065E+02 0.  0.
        -12    1    1    2    0    0  0.16150328694E+02 -0.13867731497E+02 -0.34641277797E+02  0.40659134536E+02  0.00000000000E+00 0.  1.
         11    1    3    3    0    0 -0.55775035189E+01  0.17479493908E+02  0.19786114875E+02  0.26983913632E+02  0.51100000000E-03 0. -1.
        -11    1    3    3    0    0 -0.13329286945E+02 -0.42096029318E+01  0.79381550660E+01  0.16074979111E+02  0.51100000000E-03 0.  1.
         12    1    3    3    0    0  0.27564617698E+01  0.59784052024E+00  0.69170078568E+01  0.74699727219E+01  0.00000000000E+00 0. -1.
</event>
<event>
 7    1  0.4994895E-011  0.5052886E+02  0.7816164E-02  0.1300439E+00
        -11   -1    0    0    0    0  0.00000000000E+00  0.00000000000E+00  0.45593999997E+02  0.45594000000E+02  0.51100000000E-03 0. -1.
         11   -1    0    0    0    0 -0.00000000000E+00 -0.00000000000E+00 -0.45593999997E+02  0.45594000000E+02  0.51100000000E-03 0.  1.
    9900012    2    1    2    0    0  0.19989495167E+02  0.20482509552E+02  0.28879961590E+02  0.50528864544E+02  0.30000014268E+02 0.  0.
        -12    1    1    2    0    0 -0.19989495167E+02 -0.20482509552E+02 -0.28879961590E+02  0.40659135456E+02  0.00000000000E+00 0.  1.
         11    1    3    3    0    0  0.53142362841E+01  0.12051796139E+02  0.19820897901E+02  0.23798211935E+02  0.51100000000E-03 0. -1.
        -11    1    3    3    0    0  0.32250297813E+01 -0.51433470764E+01 -0.12480305711E+01  0.61977751496E+01  0.51100000000E-03 0.  1.
        -12    1    3    3    0    0  0.11450229102E+02  0.13574060490E+02  0.10307094260E+02  0.20532877459E+02  0.00000000000E+00 0.  1.
</event>
<event>
 7    1  0.4994895E-011  0.5052886E+02  0.7816164E-02  0.1300439E+00
        -11   -1    0    0    0    0  0.00000000000E+00  0.00000000000E+00  0.45593999997E+02  0.45594000000E+02  0.51100000000E-03 0.  1.
         11   -1    0    0    0    0 -0.00000000000E+00 -0.00000000000E+00 -0.45593999997E+02  0.45594000000E+02  0.51100000000E-03 0. -1.
    9900012    2    1    2    0    0  0.14768916685E+02 -0.25865944961E+02 -0.27676662156E+02  0.50528860353E+02  0.30000001529E+02 0.  0.
        -12    1    1    2    0    0 -0.14768916685E+02  0.25865944961E+02  0.27676662156E+02  0.40659139647E+02  0.00000000000E+00 0.  1.
         11    1    3    3    0    0  0.17149601937E+02 -0.19168555809E+02 -0.15285530348E+02  0.29919722871E+02  0.51100000000E-03 0. -1.
        -11    1    3    3    0    0 -0.55737460819E+00  0.11147814147E+01  0.30023364141E+01  0.32507581056E+01  0.51100000000E-03 0.  1.
        -12    1    3    3    0    0 -0.18233106436E+01 -0.78121705660E+01 -0.15393468222E+02  0.17358379376E+02  0.00000000000E+00 0.  1.
</event>
<event>
 7    1  0.4994895E-011  0.5052886E+02  0.7816164E-02  0.1300439E+00
        -11   -1    0    0    0    0  0.00000000000E+00  0.00000000000E+00  0.45593999997E+02  0.45594000000E+02  0.51100000000E-03 0.  1.
         11   -1    0    0    0    0 -0.00000000000E+00 -0.00000000000E+00 -0.45593999997E+02  0.45594000000E+02  0.51100000000E-03 0. -1.
    9900012    2    1    2    0    0 -0.16060719140E+02  0.37308579273E+02 -0.18134553897E+01  0.50528863178E+02  0.30000010115E+02 0.  0.
        -12    1    1    2    0    0  0.16060719140E+02 -0.37308579273E+02  0.18134553897E+01  0.40659136822E+02  0.00000000000E+00 0.  1.
         11    1    3    3    0    0 -0.21925953086E+01  0.17616032504E+02  0.77280318706E+01  0.19361160921E+02  0.51100000000E-03 0. -1.
        -11    1    3    3    0    0 -0.16180515742E+02  0.87524972270E+01 -0.71259064532E+01  0.19727996361E+02  0.51100000000E-03 0.  1.
        -12    1    3    3    0    0  0.23123919105E+01  0.10940049543E+02 -0.24155808071E+01  0.11439705896E+02  0.00000000000E+00 0.  1.
</event>
<event>
 7    1  0.4994895E-011  0.5052887E+02  0.7816164E-02  0.1300439E+00
        -11   -1    0    0    0    0  0.00000000000E+00  0.00000000000E+00  0.45593999997E+02  0.45594000000E+02  0.51100000000E-03 0.  1.
         11   -1    0    0    0    0 -0.00000000000E+00 -0.00000000000E+00 -0.45593999997E+02  0.45594000000E+02  0.51100000000E-03 0. -1.
    9900012    2    1    2    0    0  0.17726555472E+02 -0.12817943617E+02 -0.34272940529E+02  0.50528869414E+02  0.30000029072E+02 0.  0.
        -12    1    1    2    0    0 -0.17726555472E+02  0.12817943617E+02  0.34272940529E+02  0.40659130586E+02  0.00000000000E+00 0.  1.
         11    1    3    3    0    0  0.14875317396E+02 -0.11415712316E+02 -0.24004607302E+02  0.30460051335E+02  0.51100000000E-03 0. -1.
        -11    1    3    3    0    0  0.31150026053E+01  0.68814079299E+01 -0.88923812107E+01  0.11667538737E+02  0.51100000000E-03 0.  1.
         12    1    3    3    0    0 -0.26376452961E+00 -0.82836392311E+01 -0.13759520164E+01  0.84012793424E+01  0.00000000000E+00 0. -1.
</event>
<event>
 7    1  0.4994895E-011  0.5052886E+02  0.7816164E-02  0.1300439E+00
        -11   -1    0    0    0    0  0.00000000000E+00  0.00000000000E+00  0.45593999997E+02  0.45594000000E+02  0.51100000000E-03 0. -1.
         11   -1    0    0    0    0 -0.00000000000E+00 -0.00000000000E+00 -0.45593999997E+02  0.45594000000E+02  0.51100000000E-03 0.  1.
    9900012    2    1    2    0    0  0.18434489623E+02  0.30113617428E+01  0.36114632442E+02  0.50528863467E+02  0.30000010994E+02 0.  0.
        -12    1    1    2    0    0 -0.18434489623E+02 -0.30113617428E+01 -0.36114632442E+02  0.40659136533E+02  0.00000000000E+00 0.  1.
         11    1    3    3    0    0  0.52405273704E+01 -0.31382707543E+01  0.15977391557E+02  0.17105230536E+02  0.51100000000E-03 0. -1.
        -11    1    3    3    0    0  0.56172241593E+01  0.14403703809E+02  0.11183063194E+02  0.19080901271E+02  0.51100000000E-03 0.  1.
        -12    1    3    3    0    0  0.75767380929E+01 -0.82540713115E+01  0.89541776913E+01  0.14342731660E+02  0.00000000000E+00 0.  1.
</event>
<event>
 7    1  0.4994895E-011  0.5052884E+02  0.7816164E-02  0.1300439E+00
        -11   -1    0    0    0    0  0.00000000000E+00  0.00000000000E+00  0.45593999997E+02  0.45594000000E+02  0.51100000000E-03 0.  1.
         11   -1    0    0    0    0 -0.00000000000E+00 -0.00000000000E+00 -0.45593999997E+02  0.45594000000E+02  0.51100000000E-03 0. -1.
    9900012    2    1    2    0    0 -0.16568872895E+02  0.50246484796E+01 -0.36788488461E+02  0.50528837138E+02  0.29999930966E+02 0.  0.
        -12    1    1    2    0    0  0.16568872895E+02 -0.50246484796E+01  0.36788488461E+02  0.40659162862E+02  0.00000000000E+00 0.  1.
         11    1    3    3    0    0 -0.13939520920E+02  0.69577715482E+01 -0.18187648805E+02  0.23948097998E+02  0.51100000000E-03 0. -1.
        -11    1    3    3    0    0  0.22977553611E+01 -0.10419552675E+01 -0.20913689075E+02  0.21065320825E+02  0.51100000000E-03 0.  1.
        -12    1    3    3    0    0 -0.49271073364E+01 -0.89116780111E+00  0.23128494195E+01  0.55154183152E+01  0.00000000000E+00 0.  1.
</event>
<event>
 7    1  0.4994895E-011  0.5052886E+02  0.7816164E-02  0.1300439E+00
        -11   -1    0    0    0    0  0.00000000000E+00  0.00000000000E+00  0.45593999997E+02  0.45594000000E+02  0.51100000000E-03 0.  1.
         11   -1    0    0    0    0 -0.00000000000E+00 -0.00000000000E+00 -0.45593999997E+02  0.45594000000E+02  0.51100000000E-03 0. -1.
    9900012    2    1    2    0    0  0.17500947065E+02  0.22720719007E+02 -0.28821026092E+02  0.50528858772E+02  0.29999996724E+02 0.  0.
        -12    1    1    2    0    0 -0.17500947065E+02 -0.22720719007E+02  0.28821026092E+02  0.40659141228E+02  0.00000000000E+00 0.  1.
         11    1    3    3    0    0  0.17858588517E+02  0.16536028306E+02 -0.86413664350E+01  0.25827168449E+02  0.51100000000E-03 0. -1.
        -11    1    3    3    0    0 -0.24004939924E+01  0.83394794098E+01 -0.19911426354E+02  0.21720363440E+02  0.51100000000E-03 0.  1.
        -12    1    3    3    0    0  0.20428525403E+01 -0.21547887086E+01 -0.26823330292E+00  0.29813268833E+01  0.00000000000E+00 0.  1.
</event>
<event>
 7    1  0.4994895E-011  0.5052885E+02  0.7816164E-02  0.1300439E+00
        -11   -1    0    0    0    0  0.00000000000E+00  0.00000000000E+00  0.45593999997E+02  0.45594000000E+02  0.51100000000E-03 0.  1.
         11   -1    0    0    0    0 -0.00000000000E+00 -0.00000000000E+00 -0.45593999997E+02  0.45594000000E+02  0.51100000000E-03 0. -1.
    9900012    2    1    2    0    0  0.16954573377E+02  0.13649275821E+02 -0.34342479744E+02  0.50528853381E+02  0.29999980337E+02 0.  0.
        -12    1    1    2    0    0 -0.16954573377E+02 -0.13649275821E+02  0.34342479744E+02  0.40659146619E+02  0.00000000000E+00 0.  1.
         11    1    3    3    0    0  0.66583123553E+01 -0.25986297629E+01 -0.24551249524E+02  0.25570487941E+02  0.51100000000E-03 0. -1.
        -11    1    3    3    0    0  0.33518292771E+01  0.15603751320E+02 -0.62883845850E+01  0.17153879903E+02  0.51100000000E-03 0.  1.
        -12    1    3    3    0    0  0.69444317443E+01  0.64415426360E+00 -0.35028456350E+01  0.78044855377E+01  0.00000000000E+00 0.  1.
</event>
<event>
 7    1  0.4994895E-011  0.5052887E+02  0.7816164E-02  0.1300439E+00
        -11   -1    0    0    0    0  0.00000000000E+00  0.00000000000E+00  0.45593999997E+02  0.45594000000E+02  0.51100000000E-03 0. -1.
         11   -1    0    0    0    0 -0.00000000000E+00 -0.00000000000E+00 -0.45593999997E+02  0.45594000000E+02  0.51100000000E-03 0.  1.
    9900012    2    1    2    0    0 -0.33480807665E+02 -0.83604178640E+01  0.21501256347E+02  0.50528867038E+02  0.30000021848E+02 0.  0.
        -12    1    1    2    0    0  0.33480807665E+02  0.83604178640E+01 -0.21501256347E+02  0.40659132962E+02  0.00000000000E+00 0.  1.
         11    1    3    3    0    0 -0.15452091211E+00  0.27247430837E+01  0.95302990496E-01  0.27307845952E+01  0.51100000000E-03 0. -1.
        -11    1    3    3    0    0 -0.31667445337E+02 -0.12882655679E+02  0.25758559623E+02  0.42805295299E+02  0.51100000000E-03 0.  1.
        -12    1    3    3    0    0 -0.16588414155E+01  0.17974947312E+01 -0.43526062664E+01  0.49927871435E+01  0.00000000000E+00 0.  1.
</event>
<event>
 7    1  0.4994895E-011  0.5052883E+02  0.7816164E-02  0.1300439E+00
        -11   -1    0    0    0    0  0.00000000000E+00  0.00000000000E+00  0.45593999997E+02  0.45594000000E+02  0.51100000000E-03 0. -1.
         11   -1    0    0    0    0 -0.00000000000E+00 -0.00000000000E+00 -0.45593999997E+02  0.45594000000E+02  0.51100000000E-03 0.  1.
    9900012    2    1    2    0    0  0.11910320238E+02 -0.29584529881E+02  0.25220389589E+02  0.50528828987E+02  0.29999906188E+02 0.  0.
        -12    1    1    2    0    0 -0.11910320238E+02  0.29584529881E+02 -0.25220389589E+02  0.40659171013E+02  0.00000000000E+00 0.  1.
         11    1    3    3    0    0  0.30986247113E+01 -0.22723119945E+02  0.78205835870E+01  0.24230212196E+02  0.51100000000E-03 0. -1.
        -11    1    3    3    0    0  0.10775003624E+02  0.14599578821E+01  0.11964834727E+02  0.16167543117E+02  0.51100000000E-03 0.  1.
        -12    1    3    3    0    0 -0.19633080973E+01 -0.83213678175E+01  0.54349712751E+01  0.10131073675E+02  0.00000000000E+00 0.  1.
</event>
<event>
 7    1  0.4994895E-011  0.5052886E+02  0.7816164E-02  0.1300439E+00
        -11   -1    0    0    0    0  0.00000000000E+00  0.00000000000E+00  0.45593999997E+02  0.45594000000E+02  0.51100000000E-03 0.  1.
         11   -1    0    0    0    0 -0.00000000000E+00 -0.00000000000E+00 -0.45593999997E+02  0.45594000000E+02  0.51100000000E-03 0. -1.
    9900012    2    1    2    0    0 -0.34483525883E+01 -0.37781175754E+02 -0.14623862047E+02  0.50528859353E+02  0.29999998491E+02 0.  0.
        -12    1    1    2    0    0  0.34483525883E+01  0.37781175754E+02  0.14623862047E+02  0.40659140647E+02  0.00000000000E+00 0.  1.
         11    1    3    3    0    0 -0.62301678443E+01 -0.32809977219E+02 -0.17397645235E+02  0.37656176870E+02  0.51100000000E-03 0. -1.
        -11    1    3    3    0    0 -0.20806590025E+01  0.22153604136E+01 -0.12771206992E+01  0.32966651616E+01  0.51100000000E-03 0.  1.
         12    1    3    3    0    0  0.48624742584E+01 -0.71865589487E+01  0.40509038876E+01  0.95760173216E+01  0.00000000000E+00 0. -1.
</event>
<event>
 7    1  0.4994895E-011  0.5052883E+02  0.7816164E-02  0.1300439E+00
        -11   -1    0    0    0    0  0.00000000000E+00  0.00000000000E+00  0.45593999997E+02  0.45594000000E+02  0.51100000000E-03 0.  1.
         11   -1    0    0    0    0 -0.00000000000E+00 -0.00000000000E+00 -0.45593999997E+02  0.45594000000E+02  0.51100000000E-03 0. -1.
    9900012    2    1    2    0    0  0.82054874233E-01 -0.76440902431E+01 -0.39934058272E+02  0.50528833030E+02  0.29999918477E+02 0.  0.
        -12    1    1    2    0    0 -0.82054874233E-01  0.76440902431E+01  0.39934058272E+02  0.40659166970E+02  0.00000000000E+00 0.  1.
         11    1    3    3    0    0 -0.86793805324E+01 -0.34014982290E+01 -0.18669797543E+02  0.20867754484E+02  0.51100000000E-03 0. -1.
        -11    1    3    3    0    0  0.75491754406E+01 -0.46432866689E+01 -0.24568780821E+02  0.26118482962E+02  0.51100000000E-03 0.  1.
        -12    1    3    3    0    0  0.12122599661E+01  0.40069465474E+00  0.33045200926E+01  0.35425955843E+01  0.00000000000E+00 0.  1.
</event>
<event>
 7    1  0.4994895E-011  0.5052886E+02  0.7816164E-02  0.1300439E+00
        -11   -1    0    0    0    0  0.00000000000E+00  0.00000000000E+00  0.45593999997E+02  0.45594000000E+02  0.51100000000E-03 0.  1.
         11   -1    0    0    0    0 -0.00000000000E+00 -0.00000000000E+00 -0.45593999997E+02  0.45594000000E+02  0.51100000000E-03 0. -1.
    9900012    2    1    2    0    0 -0.11288540219E+02  0.17244171018E+02 -0.35048149284E+02  0.50528863971E+02  0.30000012527E+02 0.  0.
        -12    1    1    2    0    0  0.11288540219E+02 -0.17244171018E+02  0.35048149284E+02  0.40659136029E+02  0.00000000000E+00 0.  1.
         11    1    3    3    0    0 -0.46223736271E+01 -0.51623907230E+01 -0.12540583170E+02  0.14327694945E+02  0.51100000000E-03 0. -1.
        -11    1    3    3    0    0  0.47747242597E+01  0.10668780055E+02 -0.69293390015E+01  0.13588105051E+02  0.51100000000E-03 0.  1.
         12    1    3    3    0    0 -0.11440890851E+02  0.11737781686E+02 -0.15578227113E+02  0.22613063976E+02  0.00000000000E+00 0. -1.
</event>
<event>
 7    1  0.4994895E-011  0.5052885E+02  0.7816164E-02  0.1300439E+00
        -11   -1    0    0    0    0  0.00000000000E+00  0.00000000000E+00  0.45593999997E+02  0.45594000000E+02  0.51100000000E-03 0. -1.
         11   -1    0    0    0    0 -0.00000000000E+00 -0.00000000000E+00 -0.45593999997E+02  0.45594000000E+02  0.51100000000E-03 0.  1.
    9900012    2    1    2    0    0  0.25741565887E+02 -0.29672851306E+02  0.10490946576E+02  0.50528852456E+02  0.29999977525E+02 0.  0.
        -12    1    1    2    0    0 -0.25741565887E+02  0.29672851306E+02 -0.10490946576E+02  0.40659147544E+02  0.00000000000E+00 0.  1.
         11    1    3    3    0    0  0.19188828059E+02 -0.83254063515E+01  0.68671725173E+01  0.22015484820E+02  0.51100000000E-03 0. -1.
        -11    1    3    3    0    0 -0.52635290936E+01 -0.27008419912E+01  0.24608794591E+01  0.64074342723E+01  0.51100000000E-03 0.  1.
         12    1    3    3    0    0  0.11816266921E+02 -0.18646602964E+02  0.11628946000E+01  0.22105933364E+02  0.00000000000E+00 0. -1.
</event>
<event>
 7    1  0.4994895E-011  0.5052883E+02  0.7816164E-02  0.1300439E+00
        -11   -1    0    0    0    0  0.00000000000E+00  0.00000000000E+00  0.45593999997E+02  0.45594000000E+02  0.51100000000E-03 0.  1.
         11   -1    0    0    0    0 -0.00000000000E+00 -0.00000000000E+00 -0.45593999997E+02  0.45594000000E+02  0.51100000000E-03 0. -1.
    9900012    2    1    2    0    0 -0.18238158231E+02  0.99015811738E+01 -0.34964221105E+02  0.50528825354E+02  0.29999895147E+02 0.  0.
        -12    1    1    2    0    0  0.18238158231E+02 -0.99015811738E+01  0.34964221105E+02  0.40659174646E+02  0.00000000000E+00 0.  1.
         11    1    3    3    0    0 -0.21572261103E+02  0.15348442505E+02 -0.26634723541E+02  0.37554568761E+02  0.51100000000E-03 0. -1.
        -11    1    3    3    0    0 -0.22509055818E+00 -0.24514624195E+01 -0.79321808561E+01  0.83054095112E+01  0.51100000000E-03 0.  1.
         12    1    3    3    0    0  0.35591934304E+01 -0.29953989115E+01 -0.39731670731E+00  0.46688470825E+01  0.00000000000E+00 0. -1.
</event>
<event>
 7    1  0.4994895E-011  0.5052886E+02  0.7816164E-02  0.1300439E+00
        -11   -1    0    0    0    0  0.00000000000E+00  0.00000000000E+00  0.45593999997E+02  0.45594000000E+02  0.51100000000E-03 0.  1.
         11   -1    0    0    0    0 -0.00000000000E+00 -0.00000000000E+00 -0.45593999997E+02  0.45594000000E+02  0.51100000000E-03 0. -1.
    9900012    2    1    2    0    0 -0.17186347817E+02  0.18514325008E+02 -0.31859296138E+02  0.50528861640E+02  0.30000005440E+02 0.  0.
        -12    1    1    2    0    0  0.17186347817E+02 -0.18514325008E+02  0.31859296138E+02  0.40659138360E+02  0.00000000000E+00 0.  1.
         11    1    3    3    0    0  0.22012724478E+01  0.54755471492E+01 -0.34246884698E+01  0.68231743601E+01  0.51100000000E-03 0. -1.
        -11    1    3    3    0    0 -0.21964573355E+02  0.13891035403E+02 -0.15014748992E+02  0.30014097268E+02  0.51100000000E-03 0.  1.
        -12    1    3    3    0    0  0.25769530904E+01 -0.85225754428E+00 -0.13419858677E+02  0.13691590012E+02  0.00000000000E+00 0.  1.
</event>
<event>
 7    1  0.4994895E-011  0.5052887E+02  0.7816164E-02  0.1300439E+00
        -11   -1    0    0    0    0  0.00000000000E+00  0.00000000000E+00  0.45593999997E+02  0.45594000000E+02  0.51100000000E-03 0.  1.
         11   -1    0    0    0    0 -0.00000000000E+00 -0.00000000000E+00 -0.45593999997E+02  0.45594000000E+02  0.51100000000E-03 0. -1.
    9900012    2    1    2    0    0 -0.10372628379E+02  0.39117494606E+02  0.39236968528E+01  0.50528865715E+02  0.30000017829E+02 0.  0.
        -12    1    1    2    0    0  0.10372628379E+02 -0.39117494606E+02 -0.39236968528E+01  0.40659134285E+02  0.00000000000E+00 0.  1.
         11    1    3    3    0    0  0.69961081438E+00  0.20815893528E+02 -0.64048895734E+01  0.21790215450E+02  0.51100000000E-03 0. -1.
        -11    1    3    3    0    0 -0.14103959413E+02  0.17666937486E+02  0.11578055705E+02  0.25398695349E+02  0.51100000000E-03 0.  1.
        -12    1    3    3    0    0  0.30317202194E+01  0.63466359212E+00 -0.12494692786E+01  0.33399549162E+01  0.00000000000E+00 0.  1.
</event>
<event>
 7    1  0.4994895E-011  0.5052886E+02  0.7816164E-02  0.1300439E+00
        -11   -1    0    0    0    0  0.00000000000E+00  0.00000000000E+00  0.45593999997E+02  0.45594000000E+02  0.51100000000E-03 0. -1.
         11   -1    0    0    0    0 -0.00000000000E+00 -0.00000000000E+00 -0.45593999997E+02  0.45594000000E+02  0.51100000000E-03 0.  1.
    9900012    2    1    2    0    0  0.55450802323E+01 -0.52975249324E+01  0.39929359430E+02  0.50528862900E+02  0.30000009272E+02 0.  0.
        -12    1    1    2    0    0 -0.55450802323E+01  0.52975249324E+01 -0.39929359430E+02  0.40659137100E+02  0.00000000000E+00 0.  1.
         11    1    3    3    0    0  0.62006291979E+01  0.63638730888E+01  0.25646470840E+02  0.27141999741E+02  0.51100000000E-03 0. -1.
        -11    1    3    3    0    0 -0.54918394309E+01 -0.19401952595E+01  0.50710976612E+00  0.58465219195E+01  0.51100000000E-03 0.  1.
        -12    1    3    3    0    0  0.48362904652E+01 -0.97212027617E+01  0.13775778824E+02  0.17540341240E+02  0.00000000000E+00 0.  1.
</event>
<event>
 7    1  0.4994895E-011  0.5052885E+02  0.7816164E-02  0.1300439E+00
        -11   -1    0    0    0    0  0.00000000000E+00  0.00000000000E+00  0.45593999997E+02  0.45594000000E+02  0.51100000000E-03 0.  1.
         11   -1    0    0    0    0 -0.00000000000E+00 -0.00000000000E+00 -0.45593999997E+02  0.45594000000E+02  0.51100000000E-03 0. -1.
    9900012    2    1    2    0    0 -0.48235965896E+01 -0.13897293620E+02 -0.37904674405E+02  0.50528853480E+02  0.29999980636E+02 0.  0.
        -12    1    1    2    0    0  0.48235965896E+01  0.13897293620E+02  0.37904674405E+02  0.40659146520E+02  0.00000000000E+00 0.  1.
         11    1    3    3    0    0 -0.11648629458E+02  0.29699697504E+01 -0.80673242660E+01  0.14477327435E+02  0.51100000000E-03 0. -1.
        -11    1    3    3    0    0 -0.20659278587E+01 -0.36665336730E+01 -0.47994487712E+01  0.63832778305E+01  0.51100000000E-03 0.  1.
         12    1    3    3    0    0  0.88909607275E+01 -0.13200729697E+02 -0.25037901368E+02  0.29668248214E+02  0.00000000000E+00 0. -1.
</event>
<event>
 7    1  0.4994895E-011  0.5052886E+02  0.7816164E-02  0.1300439E+00
        -11   -1    0    0    0    0  0.00000000000E+00  0.00000000000E+00  0.45593999997E+02  0.45594000000E+02  0.51100000000E-03 0.  1.
         11   -1    0    0    0    0 -0.00000000000E+00 -0.00000000000E+00 -0.45593999997E+02  0.45594000000E+02  0.51100000000E-03 0. -1.
    9900012    2    1    2    0    0  0.23280648089E+01  0.32105648101E+02 -0.24838940817E+02  0.50528861954E+02  0.30000006395E+02 0.  0.
        -12    1    1    2    0    0 -0.23280648089E+01 -0.32105648101E+02  0.24838940817E+02  0.40659138046E+02  0.00000000000E+00 0.  1.
         11    1    3    3    0    0 -0.34216320861E+01  0.16774334104E+02 -0.24975337439E+02  0.30279586047E+02  0.51100000000E-03 0. -1.
        -11    1    3    3    0    0  0.34831868418E+01  0.14723564550E+02 -0.38602590069E+01  0.15614657969E+02  0.51100000000E-03 0.  1.
         12    1    3    3    0    0  0.22665100532E+01  0.60774944739E+00  0.39966556285E+01  0.46346179373E+01  0.00000000000E+00 0. -1.
</event>
<event>
 7    1  0.4994895E-011  0.5052885E+02  0.7816164E-02  0.1300439E+00
        -11   -1    0    0    0    0  0.00000000000E+00  0.00000000000E+00  0.45593999997E+02  0.45594000000E+02  0.51100000000E-03 0. -1.
         11   -1    0    0    0    0 -0.00000000000E+00 -0.00000000000E+00 -0.45593999997E+02  0.45594000000E+02  0.51100000000E-03 0.  1.
    9900012    2    1    2    0    0 -0.11830279956E+02 -0.14562051438E+02  0.36071558718E+02  0.50528853252E+02  0.29999979946E+02 0.  0.
        -12    1    1    2    0    0  0.11830279956E+02  0.14562051438E+02 -0.36071558718E+02  0.40659146748E+02  0.00000000000E+00 0.  1.
         11    1    3    3    0    0  0.13186250507E+01  0.64594485554E+01  0.37616945995E+01  0.75903619271E+01  0.51100000000E-03 0. -1.
        -11    1    3    3    0    0 -0.12331155350E+02 -0.18716610069E+02  0.33430096790E+02  0.40248481417E+02  0.51100000000E-03 0.  1.
        -12    1    3    3    0    0 -0.81774965694E+00 -0.23048899246E+01 -0.11202326719E+01  0.26900099080E+01  0.00000000000E+00 0.  1.
</event>
<event>
 7    1  0.4994895E-011  0.5052884E+02  0.7816164E-02  0.1300439E+00
        -11   -1    0    0    0    0  0.00000000000E+00  0.00000000000E+00  0.45593999997E+02  0.45594000000E+02  0.51100000000E-03 0. -1.
         11   -1    0    0    0    0 -0.00000000000E+00 -0.00000000000E+00 -0.45593999997E+02  0.45594000000E+02  0.51100000000E-03 0.  1.
    9900012    2    1    2    0    0  0.25485229477E+02 -0.19724188019E+02  0.24791663211E+02  0.50528842615E+02  0.29999947613E+02 0.  0.
        -12    1    1    2    0    0 -0.25485229477E+02  0.19724188019E+02 -0.24791663211E+02  0.40659157385E+02  0.00000000000E+00 0.  1.
         11    1    3    3    0    0  0.11419377019E+02  0.78308807804E+00 -0.71383765174E+00  0.11468433323E+02  0.51100000000E-03 0. -1.
        -11    1    3    3    0    0 -0.10014684801E+01 -0.12460239304E+02  0.10976639407E+02  0.16635718066E+02  0.51100000000E-03 0.  1.
        -12    1    3    3    0    0  0.15067320938E+02 -0.80470367932E+01  0.14528861455E+02  0.22424691226E+02  0.00000000000E+00 0.  1.
</event>
<event>
 7    1  0.4994895E-011  0.5052886E+02  0.7816164E-02  0.1300439E+00
        -11   -1    0    0    0    0  0.00000000000E+00  0.00000000000E+00  0.45593999997E+02  0.45594000000E+02  0.51100000000E-03 0.  1.
         11   -1    0    0    0    0 -0.00000000000E+00 -0.00000000000E+00 -0.45593999997E+02  0.45594000000E+02  0.51100000000E-03 0. -1.
    9900012    2    1    2    0    0 -0.35265724826E+02 -0.20235483346E+02  0.14014075336E+00  0.50528858676E+02  0.29999996433E+02 0.  0.
        -12    1    1    2    0    0  0.35265724826E+02  0.20235483346E+02 -0.14014075336E+00  0.40659141324E+02  0.00000000000E+00 0.  1.
         11    1    3    3    0    0 -0.22497366056E+02 -0.23959026127E+02  0.15419883019E+01  0.32902038547E+02  0.51100000000E-03 0. -1.
        -11    1    3    3    0    0 -0.38593305016E+01  0.41826608115E+01  0.42175982100E+01  0.70835879543E+01  0.51100000000E-03 0.  1.
         12    1    3    3    0    0 -0.89090282686E+01 -0.45911803077E+00 -0.56194457585E+01  0.10543232175E+02  0.00000000000E+00 0. -1.
</event>
<event>
 7    1  0.4994895E-011  0.5052887E+02  0.7816164E-02  0.1300439E+00
        -11   -1    0    0    0    0  0.00000000000E+00  0.00000000000E+00  0.45593999997E+02  0.45594000000E+02  0.51100000000E-03 0. -1.
         11   -1    0    0    0    0 -0.00000000000E+00 -0.00000000000E+00 -0.45593999997E+02  0.45594000000E+02  0.51100000000E-03 0.  1.
    9900012    2    1    2    0    0 -0.11110912077E+02  0.31196571545E+02  0.23589965746E+02  0.50528869079E+02  0.30000028053E+02 0.  0.
        -12    1    1    2    0    0  0.11110912077E+02 -0.31196571545E+02 -0.23589965746E+02  0.40659130921E+02  0.00000000000E+00 0.  1.
         11    1    3    3    0    0  0.63240008323E+01  0.11769572059E+02  0.64635171554E+01  0.14842266244E+02  0.51100000000E-03 0. -1.
        -11    1    3    3    0    0 -0.89072202249E+01  0.97244257902E+00 -0.21910175418E+00  0.89628244736E+01  0.51100000000E-03 0.  1.
        -12    1    3    3    0    0 -0.85276926845E+01  0.18454556906E+02  0.17345550345E+02  0.26723778361E+02  0.00000000000E+00 0.  1.
</event>
<event>
 7    1  0.4994895E-011  0.5052886E+02  0.7816164E-02  0.1300439E+00
        -11   -1    0    0    0    0  0.00000000000E+00  0.00000000000E+00  0.45593999997E+02  0.45594000000E+02  0.51100000000E-03 0.  1.
         11   -1    0    0    0    0 -0.00000000000E+00 -0.00000000000E+00 -0.45593999997E+02  0.45594000000E+02  0.51100000000E-03 0. -1.
    9900012    2    1    2    0    0  0.26267654163E+02  0.45874718796E+01 -0.30694152436E+02  0.50528861455E+02  0.30000004879E+02 0.  0.
        -12    1    1    2    0    0 -0.26267654163E+02 -0.45874718796E+01  0.30694152436E+02  0.40659138545E+02  0.00000000000E+00 0.  1.
         11    1    3    3    0    0  0.88775106691E+01 -0.54911343269E+01 -0.15367676740E+02  0.18577627419E+02  0.51100000000E-03 0. -1.
        -11    1    3    3    0    0  0.15244771473E+02  0.15140782194E+01 -0.12967814308E+01  0.15374561212E+02  0.51100000000E-03 0.  1.
        -12    1    3    3    0    0  0.21453720211E+01  0.85645279871E+01 -0.14029694264E+02  0.16576672824E+02  0.00000000000E+00 0.  1.
</event>
<event>
 7    1  0.4994895E-011  0.5052886E+02  0.7816164E-02  0.1300439E+00
        -11   -1    0    0    0    0  0.00000000000E+00  0.00000000000E+00  0.45593999997E+02  0.45594000000E+02  0.51100000000E-03 0.  1.
         11   -1    0    0    0    0 -0.00000000000E+00 -0.00000000000E+00 -0.45593999997E+02  0.45594000000E+02  0.51100000000E-03 0. -1.
    9900012    2    1    2    0    0 -0.22393862878E+02 -0.26078274351E+02  0.21716453268E+02  0.50528857974E+02  0.29999994299E+02 0.  0.
        -12    1    1    2    0    0  0.22393862878E+02  0.26078274351E+02 -0.21716453268E+02  0.40659142026E+02  0.00000000000E+00 0.  1.
         11    1    3    3    0    0 -0.14007870847E+02 -0.16052951185E+02  0.85325470690E+00  0.21322423204E+02  0.51100000000E-03 0. -1.
        -11    1    3    3    0    0 -0.98418967930E+01 -0.10647013244E+02  0.22603352802E+02  0.26853926745E+02  0.51100000000E-03 0.  1.
        -12    1    3    3    0    0  0.14559047615E+01  0.62169007911E+00 -0.17401542404E+01  0.23525080253E+01  0.00000000000E+00 0.  1.
</event>
<event>
 7    1  0.4994895E-011  0.5052885E+02  0.7816164E-02  0.1300439E+00
        -11   -1    0    0    0    0  0.00000000000E+00  0.00000000000E+00  0.45593999997E+02  0.45594000000E+02  0.51100000000E-03 0.  1.
         11   -1    0    0    0    0 -0.00000000000E+00 -0.00000000000E+00 -0.45593999997E+02  0.45594000000E+02  0.51100000000E-03 0. -1.
    9900012    2    1    2    0    0  0.40458023620E+02  0.32969922134E+01  0.23333194875E+01  0.50528853271E+02  0.29999980004E+02 0.  0.
        -12    1    1    2    0    0 -0.40458023620E+02 -0.32969922134E+01 -0.23333194875E+01  0.40659146729E+02  0.00000000000E+00 0.  1.
         11    1    3    3    0    0  0.28239781641E+02  0.87440046491E+01 -0.87296135455E+01  0.30824487625E+02  0.51100000000E-03 0. -1.
        -11    1    3    3    0    0  0.85817361542E+00 -0.27916377489E+01  0.65932689734E+01  0.72111649053E+01  0.51100000000E-03 0.  1.
         12    1    3    3    0    0  0.11360068364E+02 -0.26553746867E+01  0.44696640596E+01  0.12493200741E+02  0.00000000000E+00 0. -1.
</event>
<event>
 7    1  0.4994895E-011  0.5052885E+02  0.7816164E-02  0.1300439E+00
        -11   -1    0    0    0    0  0.00000000000E+00  0.00000000000E+00  0.45593999997E+02  0.45594000000E+02  0.51100000000E-03 0.  1.
         11   -1    0    0    0    0 -0.00000000000E+00 -0.00000000000E+00 -0.45593999997E+02  0.45594000000E+02  0.51100000000E-03 0. -1.
    9900012    2    1    2    0    0  0.37580043296E+02  0.21059865706E+00  0.15519733223E+02  0.50528854347E+02  0.29999983273E+02 0.  0.
        -12    1    1    2    0    0 -0.37580043296E+02 -0.21059865706E+00 -0.15519733223E+02  0.40659145653E+02  0.00000000000E+00 0.  1.
         11    1    3    3    0    0  0.40186392077E+02 -0.57362144362E+01  0.11778125925E+02  0.42267889878E+02  0.51100000000E-03 0. -1.
        -11    1    3    3    0    0 -0.78136108018E-01  0.33205558358E+01  0.31313524838E+01  0.45648181726E+01  0.51100000000E-03 0.  1.
         12    1    3    3    0    0 -0.25282126731E+01  0.26262572574E+01  0.61025481477E+00  0.36961462960E+01  0.00000000000E+00 0. -1.
</event>
<event>
 7    1  0.4994895E-011  0.5052886E+02  0.7816164E-02  0.1300439E+00
        -11   -1    0    0    0    0  0.00000000000E+00  0.00000000000E+00  0.45593999997E+02  0.45594000000E+02  0.51100000000E-03 0.  1.
         11   -1    0    0    0    0 -0.00000000000E+00 -0.00000000000E+00 -0.45593999997E+02  0.45594000000E+02  0.51100000000E-03 0. -1.
    9900012    2    1    2    0    0  0.23975116833E+02 -0.73427724855E+01 -0.32006920995E+02  0.50528861709E+02  0.30000005651E+02 0.  0.
        -12    1    1    2    0    0 -0.23975116833E+02  0.73427724855E+01  0.32006920995E+02  0.40659138291E+02  0.00000000000E+00 0.  1.
         11    1    3    3    0    0  0.17949352071E+02  0.57889349807E+01 -0.23634504626E+02  0.30237076862E+02  0.51100000000E-03 0. -1.
        -11    1    3    3    0    0  0.34803605538E+01 -0.14619109307E+02 -0.50583015750E+01  0.15856155953E+02  0.51100000000E-03 0.  1.
        -12    1    3    3    0    0  0.25454042085E+01  0.14874018406E+01 -0.33141147942E+01  0.44356288944E+01  0.00000000000E+00 0.  1.
</event>
<event>
 7    1  0.4994895E-011  0.5052886E+02  0.7816164E-02  0.1300439E+00
        -11   -1    0    0    0    0  0.00000000000E+00  0.00000000000E+00  0.45593999997E+02  0.45594000000E+02  0.51100000000E-03 0.  1.
         11   -1    0    0    0    0 -0.00000000000E+00 -0.00000000000E+00 -0.45593999997E+02  0.45594000000E+02  0.51100000000E-03 0. -1.
    9900012    2    1    2    0    0  0.12391196050E+02 -0.34594970341E+02 -0.17401493366E+02  0.50528859775E+02  0.29999999774E+02 0.  0.
        -12    1    1    2    0    0 -0.12391196050E+02  0.34594970341E+02  0.17401493366E+02  0.40659140225E+02  0.00000000000E+00 0.  1.
         11    1    3    3    0    0 -0.13321803721E+01 -0.22273579267E+02 -0.10136629278E+02  0.24507923031E+02  0.51100000000E-03 0. -1.
        -11    1    3    3    0    0  0.17406554921E+02 -0.80698530013E+01 -0.68809241592E+01  0.20382781930E+02  0.51100000000E-03 0.  1.
        -12    1    3    3    0    0 -0.36831784991E+01 -0.42515380726E+01 -0.38393992849E+00  0.56381548141E+01  0.00000000000E+00 0.  1.
</event>
<event>
 7    1  0.4994895E-011  0.5052886E+02  0.7816164E-02  0.1300439E+00
        -11   -1    0    0    0    0  0.00000000000E+00  0.00000000000E+00  0.45593999997E+02  0.45594000000E+02  0.51100000000E-03 0.  1.
         11   -1    0    0    0    0 -0.00000000000E+00 -0.00000000000E+00 -0.45593999997E+02  0.45594000000E+02  0.51100000000E-03 0. -1.
    9900012    2    1    2    0    0  0.93603801898E+01  0.52028201938E+01 -0.39223457523E+02  0.50528859880E+02  0.30000000091E+02 0.  0.
        -12    1    1    2    0    0 -0.93603801898E+01 -0.52028201938E+01  0.39223457523E+02  0.40659140120E+02  0.00000000000E+00 0.  1.
         11    1    3    3    0    0 -0.15390585706E+01  0.10844759808E+02 -0.15969713090E+02  0.19365155641E+02  0.51100000000E-03 0. -1.
        -11    1    3    3    0    0  0.53443888609E+01 -0.98876081771E+01 -0.20998392133E+02  0.23817215626E+02  0.51100000000E-03 0.  1.
         12    1    3    3    0    0  0.55550498995E+01  0.42456685633E+01 -0.22553522997E+01  0.73464886123E+01  0.00000000000E+00 0. -1.
</event>
<event>
 7    1  0.4994895E-011  0.5052886E+02  0.7816164E-02  0.1300439E+00
        -11   -1    0    0    0    0  0.00000000000E+00  0.00000000000E+00  0.45593999997E+02  0.45594000000E+02  0.51100000000E-03 0.  1.
         11   -1    0    0    0    0 -0.00000000000E+00 -0.00000000000E+00 -0.45593999997E+02  0.45594000000E+02  0.51100000000E-03 0. -1.
    9900012    2    1    2    0    0  0.24726897825E+02 -0.14248213529E+02 -0.28960920796E+02  0.50528855909E+02  0.29999988022E+02 0.  0.
        -12    1    1    2    0    0 -0.24726897825E+02  0.14248213529E+02  0.28960920796E+02  0.40659144091E+02  0.00000000000E+00 0.  1.
         11    1    3    3    0    0  0.22579064764E+02 -0.12900325187E+02 -0.14213051764E+02  0.29635171608E+02  0.51100000000E-03 0. -1.
        -11    1    3    3    0    0 -0.20622795052E+01  0.97737823855E+00 -0.15805328824E+02  0.15969241825E+02  0.51100000000E-03 0.  1.
        -12    1    3    3    0    0  0.42101125666E+01 -0.23252665804E+01  0.10574597911E+01  0.49244424764E+01  0.00000000000E+00 0.  1.
</event>
<event>
 7    1  0.4994895E-011  0.5052884E+02  0.7816164E-02  0.1300439E+00
        -11   -1    0    0    0    0  0.00000000000E+00  0.00000000000E+00  0.45593999997E+02  0.45594000000E+02  0.51100000000E-03 0.  1.
         11   -1    0    0    0    0 -0.00000000000E+00 -0.00000000000E+00 -0.45593999997E+02  0.45594000000E+02  0.51100000000E-03 0. -1.
    9900012    2    1    2    0    0 -0.13642852025E+02  0.37374326077E+02 -0.83785203441E+01  0.50528840341E+02  0.29999940700E+02 0.  0.
        -12    1    1    2    0    0  0.13642852025E+02 -0.37374326077E+02  0.83785203441E+01  0.40659159659E+02  0.00000000000E+00 0.  1.
         11    1    3    3    0    0 -0.13008248879E+02  0.42451520671E+01 -0.36815041618E+01  0.14170015107E+02  0.51100000000E-03 0. -1.
        -11    1    3    3    0    0 -0.65586598994E+01  0.25392034055E+02 -0.23155924079E+01  0.26327426414E+02  0.51100000000E-03 0.  1.
         12    1    3    3    0    0  0.59240567537E+01  0.77371399550E+01 -0.23814237744E+01  0.10031398821E+02  0.00000000000E+00 0. -1.
</event>
<event>
 7    1  0.4994895E-011  0.5052886E+02  0.7816164E-02  0.1300439E+00
        -11   -1    0    0    0    0  0.00000000000E+00  0.00000000000E+00  0.45593999997E+02  0.45594000000E+02  0.51100000000E-03 0.  1.
         11   -1    0    0    0    0 -0.00000000000E+00 -0.00000000000E+00 -0.45593999997E+02  0.45594000000E+02  0.51100000000E-03 0. -1.
    9900012    2    1    2    0    0  0.19947147038E+02 -0.35392168532E+02 -0.16343492598E+01  0.50528863685E+02  0.30000011657E+02 0.  0.
        -12    1    1    2    0    0 -0.19947147038E+02  0.35392168532E+02  0.16343492598E+01  0.40659136315E+02  0.00000000000E+00 0.  1.
         11    1    3    3    0    0 -0.11609114621E+01 -0.10350769700E+02  0.80006429217E+01  0.13133789865E+02  0.51100000000E-03 0.  1.
        -11    1    3    3    0    0  0.12573573252E+02 -0.52370576256E+01 -0.79343823089E+01  0.15763119608E+02  0.51100000000E-03 0. -1.
        -12    1    3    3    0    0  0.85344852487E+01 -0.19804341206E+02 -0.17006098727E+01  0.21631954212E+02  0.00000000000E+00 0.  1.
</event>
<event>
 7    1  0.4994895E-011  0.5052885E+02  0.7816164E-02  0.1300439E+00
        -11   -1    0    0    0    0  0.00000000000E+00  0.00000000000E+00  0.45593999997E+02  0.45594000000E+02  0.51100000000E-03 0. -1.
         11   -1    0    0    0    0 -0.00000000000E+00 -0.00000000000E+00 -0.45593999997E+02  0.45594000000E+02  0.51100000000E-03 0.  1.
    9900012    2    1    2    0    0 -0.25079901867E+02 -0.28718791675E+02  0.14120758434E+02  0.50528852300E+02  0.29999977051E+02 0.  0.
        -12    1    1    2    0    0  0.25079901867E+02  0.28718791675E+02 -0.14120758434E+02  0.40659147700E+02  0.00000000000E+00 0.  1.
         11    1    3    3    0    0 -0.26216793333E+02 -0.13764760888E+02  0.86485527417E+00  0.29623248807E+02  0.51100000000E-03 0. -1.
        -11    1    3    3    0    0 -0.11232274531E+01 -0.13002264607E+02  0.96916891828E+01  0.16255748654E+02  0.51100000000E-03 0.  1.
         12    1    3    3    0    0  0.22601189189E+01 -0.19517661799E+01  0.35642139773E+01  0.46498548391E+01  0.00000000000E+00 0. -1.
</event>
<event>
 7    1  0.4994895E-011  0.5052900E+02  0.7816164E-02  0.1300438E+00
        -11   -1    0    0    0    0  0.00000000000E+00  0.00000000000E+00  0.45593999997E+02  0.45594000000E+02  0.51100000000E-03 0. -1.
         11   -1    0    0    0    0 -0.00000000000E+00 -0.00000000000E+00 -0.45593999997E+02  0.45594000000E+02  0.51100000000E-03 0.  1.
    9900012    2    1    2    0    0  0.17981998109E+02  0.19533616488E+02  0.30793506094E+02  0.50528997963E+02  0.30000419804E+02 0.  0.
        -12    1    1    2    0    0 -0.17981998109E+02 -0.19533616488E+02 -0.30793506094E+02  0.40659002037E+02  0.00000000000E+00 0.  1.
         11    1    3    3    0    0  0.83227850276E+01  0.11663107550E+02  0.13261911213E+02  0.19523706555E+02  0.51100000000E-03 0. -1.
        -11    1    3    3    0    0  0.13045792903E+01 -0.76885696127E+01  0.67503719143E+01  0.10314240207E+02  0.51100000000E-03 0.  1.
        -12    1    3    3    0    0  0.83546337909E+01  0.15559078550E+02  0.10781222967E+02  0.20691051200E+02  0.00000000000E+00 0.  1.
</event>
<event>
 7    1  0.4994895E-011  0.5052886E+02  0.7816164E-02  0.1300439E+00
        -11   -1    0    0    0    0  0.00000000000E+00  0.00000000000E+00  0.45593999997E+02  0.45594000000E+02  0.51100000000E-03 0.  1.
         11   -1    0    0    0    0 -0.00000000000E+00 -0.00000000000E+00 -0.45593999997E+02  0.45594000000E+02  0.51100000000E-03 0. -1.
    9900012    2    1    2    0    0  0.49215216381E+01 -0.18764777740E+02 -0.35732723309E+02  0.50528858667E+02  0.29999996403E+02 0.  0.
        -12    1    1    2    0    0 -0.49215216381E+01  0.18764777740E+02  0.35732723309E+02  0.40659141333E+02  0.00000000000E+00 0.  1.
         11    1    3    3    0    0 -0.16542937974E-01  0.72183847835E+01 -0.69370400279E+01  0.10011387374E+02  0.51100000000E-03 0. -1.
        -11    1    3    3    0    0  0.81938912996E+01 -0.16197671328E+02 -0.19367634433E+02  0.26544484830E+02  0.51100000000E-03 0.  1.
         12    1    3    3    0    0 -0.32558267235E+01 -0.97854911960E+01 -0.94280488482E+01  0.13972986463E+02  0.00000000000E+00 0. -1.
</event>
<event>
 7    1  0.4994895E-011  0.5052886E+02  0.7816164E-02  0.1300439E+00
        -11   -1    0    0    0    0  0.00000000000E+00  0.00000000000E+00  0.45593999997E+02  0.45594000000E+02  0.51100000000E-03 0.  1.
         11   -1    0    0    0    0 -0.00000000000E+00 -0.00000000000E+00 -0.45593999997E+02  0.45594000000E+02  0.51100000000E-03 0. -1.
    9900012    2    1    2    0    0 -0.36001110101E+02 -0.84929907163E+01  0.16880595674E+02  0.50528864125E+02  0.30000012995E+02 0.  0.
        -12    1    1    2    0    0  0.36001110101E+02  0.84929907163E+01 -0.16880595674E+02  0.40659135875E+02  0.00000000000E+00 0.  1.
         11    1    3    3    0    0  0.37207052274E+01  0.15319501518E+00  0.61704847298E+01  0.72070797250E+01  0.51100000000E-03 0.  1.
        -11    1    3    3    0    0 -0.91546936614E+01 -0.43877885869E+01  0.67857501779E+01  0.12210958622E+02  0.51100000000E-03 0. -1.
         12    1    3    3    0    0 -0.30567121666E+02 -0.42583971445E+01  0.39243607659E+01  0.31110825779E+02  0.00000000000E+00 0. -1.
</event>
<event>
 7    1  0.4994895E-011  0.5052873E+02  0.7816164E-02  0.1300439E+00
        -11   -1    0    0    0    0  0.00000000000E+00  0.00000000000E+00  0.45593999997E+02  0.45594000000E+02  0.51100000000E-03 0.  1.
         11   -1    0    0    0    0 -0.00000000000E+00 -0.00000000000E+00 -0.45593999997E+02  0.45594000000E+02  0.51100000000E-03 0. -1.
    9900012    2    1    2    0    0  0.28778582616E+02 -0.11281922164E+02 -0.26413771737E+02  0.50528733867E+02  0.29999617059E+02 0.  0.
        -12    1    1    2    0    0 -0.28778582616E+02  0.11281922164E+02  0.26413771737E+02  0.40659266133E+02  0.00000000000E+00 0.  1.
         11    1    3    3    0    0  0.29406972336E+02 -0.45107068920E+01 -0.21878338163E+02  0.36929367442E+02  0.51100000000E-03 0. -1.
        -11    1    3    3    0    0 -0.46110619829E+01 -0.25829802870E+01  0.12400274266E+01  0.54287519793E+01  0.51100000000E-03 0.  1.
         12    1    3    3    0    0  0.39826722631E+01 -0.41882349850E+01 -0.57754610005E+01  0.81706144453E+01  0.00000000000E+00 0. -1.
</event>
<event>
 7    1  0.4994895E-011  0.5052886E+02  0.7816164E-02  0.1300439E+00
        -11   -1    0    0    0    0  0.00000000000E+00  0.00000000000E+00  0.45593999997E+02  0.45594000000E+02  0.51100000000E-03 0. -1.
         11   -1    0    0    0    0 -0.00000000000E+00 -0.00000000000E+00 -0.45593999997E+02  0.45594000000E+02  0.51100000000E-03 0.  1.
    9900012    2    1    2    0    0 -0.70197052186E+01 -0.38991039007E+02 -0.91426518749E+01  0.50528862435E+02  0.30000007857E+02 0.  0.
        -12    1    1    2    0    0  0.70197052186E+01  0.38991039007E+02  0.91426518749E+01  0.40659137565E+02  0.00000000000E+00 0.  1.
         11    1    3    3    0    0  0.33801083947E+01 -0.11850899902E+01  0.52344322409E+01  0.63426218704E+01  0.51100000000E-03 0. -1.
        -11    1    3    3    0    0 -0.21274523947E+01 -0.66109138807E+01 -0.91584341259E+01  0.11493787536E+02  0.51100000000E-03 0.  1.
         12    1    3    3    0    0 -0.82723612186E+01 -0.31195035136E+02 -0.52186499899E+01  0.32692453028E+02  0.00000000000E+00 0. -1.
</event>
<event>
 7    1  0.4994895E-011  0.5052886E+02  0.7816164E-02  0.1300439E+00
        -11   -1    0    0    0    0  0.00000000000E+00  0.00000000000E+00  0.45593999997E+02  0.45594000000E+02  0.51100000000E-03 0.  1.
         11   -1    0    0    0    0 -0.00000000000E+00 -0.00000000000E+00 -0.45593999997E+02  0.45594000000E+02  0.51100000000E-03 0. -1.
    9900012    2    1    2    0    0  0.18613790993E+02  0.50684648431E+01 -0.35791108302E+02  0.50528856078E+02  0.29999988535E+02 0.  0.
        -12    1    1    2    0    0 -0.18613790993E+02 -0.50684648431E+01  0.35791108302E+02  0.40659143922E+02  0.00000000000E+00 0.  1.
         11    1    3    3    0    0  0.10733676828E+02  0.73459336835E-01 -0.20975373805E+01  0.10936950116E+02  0.51100000000E-03 0. -1.
        -11    1    3    3    0    0  0.55418078901E+01  0.11749940578E+02 -0.26151517577E+02  0.29200592633E+02  0.51100000000E-03 0.  1.
         12    1    3    3    0    0  0.23383062752E+01 -0.67549350714E+01 -0.75420533438E+01  0.10391313329E+02  0.00000000000E+00 0. -1.
</event>
<event>
 7    1  0.4994895E-011  0.5052886E+02  0.7816164E-02  0.1300439E+00
        -11   -1    0    0    0    0  0.00000000000E+00  0.00000000000E+00  0.45593999997E+02  0.45594000000E+02  0.51100000000E-03 0. -1.
         11   -1    0    0    0    0 -0.00000000000E+00 -0.00000000000E+00 -0.45593999997E+02  0.45594000000E+02  0.51100000000E-03 0.  1.
    9900012    2    1    2    0    0 -0.91362688046E+01  0.24391800373E+02  0.31220737701E+02  0.50528858400E+02  0.29999995591E+02 0.  0.
        -12    1    1    2    0    0  0.91362688046E+01 -0.24391800373E+02 -0.31220737701E+02  0.40659141600E+02  0.00000000000E+00 0.  1.
         11    1    3    3    0    0 -0.25447579741E+01  0.91291020049E+01  0.18844949743E+02  0.21093800692E+02  0.51100000000E-03 0. -1.
        -11    1    3    3    0    0 -0.14106390654E+02  0.11726313807E+02  0.76123873106E+01  0.19860642830E+02  0.51100000000E-03 0.  1.
        -12    1    3    3    0    0  0.75148798234E+01  0.35363845613E+01  0.47634006469E+01  0.95744148776E+01  0.00000000000E+00 0.  1.
</event>
<event>
 7    1  0.4994895E-011  0.5052887E+02  0.7816164E-02  0.1300439E+00
        -11   -1    0    0    0    0  0.00000000000E+00  0.00000000000E+00  0.45593999997E+02  0.45594000000E+02  0.51100000000E-03 0.  1.
         11   -1    0    0    0    0 -0.00000000000E+00 -0.00000000000E+00 -0.45593999997E+02  0.45594000000E+02  0.51100000000E-03 0. -1.
    9900012    2    1    2    0    0 -0.15030417861E+02  0.31377360110E+02 -0.21040736660E+02  0.50528870794E+02  0.30000033265E+02 0.  0.
        -12    1    1    2    0    0  0.15030417861E+02 -0.31377360110E+02  0.21040736660E+02  0.40659129206E+02  0.00000000000E+00 0.  1.
         11    1    3    3    0    0 -0.27785474598E+01  0.16423467860E+00 -0.62407192040E+01  0.68332917003E+01  0.51100000000E-03 0. -1.
        -11    1    3    3    0    0 -0.94893922065E+01  0.30721757381E+02 -0.19943376830E+02  0.37836665031E+02  0.51100000000E-03 0.  1.
        -12    1    3    3    0    0 -0.27624781949E+01  0.49136805061E+00  0.51433593741E+01  0.58589140623E+01  0.00000000000E+00 0.  1.
</event>
<event>
 7    1  0.4994895E-011  0.5052877E+02  0.7816164E-02  0.1300439E+00
        -11   -1    0    0    0    0  0.00000000000E+00  0.00000000000E+00  0.45593999997E+02  0.45594000000E+02  0.51100000000E-03 0.  1.
         11   -1    0    0    0    0 -0.00000000000E+00 -0.00000000000E+00 -0.45593999997E+02  0.45594000000E+02  0.51100000000E-03 0. -1.
    9900012    2    1    2    0    0 -0.24378328560E+02  0.30020558146E+02 -0.12555339820E+02  0.50528765222E+02  0.29999712368E+02 0.  0.
        -12    1    1    2    0    0  0.24378328560E+02 -0.30020558146E+02  0.12555339820E+02  0.40659234778E+02  0.00000000000E+00 0.  1.
         11    1    3    3    0    0 -0.19550036827E+02  0.33130574449E+02 -0.95672234476E+01  0.39640518009E+02  0.51100000000E-03 0. -1.
        -11    1    3    3    0    0 -0.38298154022E+01 -0.20659914959E+01 -0.60792700140E+01  0.74761842567E+01  0.51100000000E-03 0.  1.
         12    1    3    3    0    0 -0.99847633087E+00 -0.10440248076E+01  0.30911536420E+01  0.34120629567E+01  0.00000000000E+00 0. -1.
</event>
<event>
 7    1  0.4994895E-011  0.5052886E+02  0.7816164E-02  0.1300439E+00
        -11   -1    0    0    0    0  0.00000000000E+00  0.00000000000E+00  0.45593999997E+02  0.45594000000E+02  0.51100000000E-03 0. -1.
         11   -1    0    0    0    0 -0.00000000000E+00 -0.00000000000E+00 -0.45593999997E+02  0.45594000000E+02  0.51100000000E-03 0.  1.
    9900012    2    1    2    0    0  0.96001959698E+01  0.33245371557E+02  0.21348242381E+02  0.50528856559E+02  0.29999989997E+02 0.  0.
        -12    1    1    2    0    0 -0.96001959698E+01 -0.33245371557E+02 -0.21348242381E+02  0.40659143441E+02  0.00000000000E+00 0.  1.
         11    1    3    3    0    0  0.13176296379E+02  0.14267494191E+02  0.10507653315E+02  0.22081371226E+02  0.51100000000E-03 0.  1.
        -11    1    3    3    0    0 -0.34014539430E+01  0.14311902767E+01  0.10245509156E+02  0.10889841719E+02  0.51100000000E-03 0. -1.
        -12    1    3    3    0    0 -0.17464646568E+00  0.17546687089E+02  0.59507990931E+00  0.17557643614E+02  0.00000000000E+00 0.  1.
</event>
<event>
 7    1  0.4994895E-011  0.5052886E+02  0.7816164E-02  0.1300439E+00
        -11   -1    0    0    0    0  0.00000000000E+00  0.00000000000E+00  0.45593999997E+02  0.45594000000E+02  0.51100000000E-03 0. -1.
         11   -1    0    0    0    0 -0.00000000000E+00 -0.00000000000E+00 -0.45593999997E+02  0.45594000000E+02  0.51100000000E-03 0.  1.
    9900012    2    1    2    0    0  0.69719061260E+01 -0.38745883338E+02 -0.10164379230E+02  0.50528861350E+02  0.30000004559E+02 0.  0.
        -12    1    1    2    0    0 -0.69719061260E+01  0.38745883338E+02  0.10164379230E+02  0.40659138650E+02  0.00000000000E+00 0.  1.
         11    1    3    3    0    0  0.78237604199E+01 -0.23166637413E+02 -0.14915969294E+02  0.28642458979E+02  0.51100000000E-03 0.  1.
        -11    1    3    3    0    0 -0.49537747845E+01 -0.16054332232E+02  0.55227906609E+01  0.17685663261E+02  0.51100000000E-03 0. -1.
        -12    1    3    3    0    0  0.41019204906E+01  0.47508630710E+00 -0.77120059710E+00  0.42007391101E+01  0.00000000000E+00 0.  1.
</event>
<event>
 7    1  0.4994895E-011  0.5052887E+02  0.7816164E-02  0.1300439E+00
        -11   -1    0    0    0    0  0.00000000000E+00  0.00000000000E+00  0.45593999997E+02  0.45594000000E+02  0.51100000000E-03 0.  1.
         11   -1    0    0    0    0 -0.00000000000E+00 -0.00000000000E+00 -0.45593999997E+02  0.45594000000E+02  0.51100000000E-03 0. -1.
    9900012    2    1    2    0    0  0.53164399938E+01  0.25348180838E+02 -0.31342779515E+02  0.50528872689E+02  0.30000039025E+02 0.  0.
        -12    1    1    2    0    0 -0.53164399938E+01 -0.25348180838E+02  0.31342779515E+02  0.40659127311E+02  0.00000000000E+00 0.  1.
         11    1    3    3    0    0  0.11730742796E+02  0.12025319797E+01 -0.83847923350E+01  0.14469317623E+02  0.51100000000E-03 0. -1.
        -11    1    3    3    0    0 -0.45514022179E+01  0.20744284274E+01 -0.15037752179E+01  0.52230121210E+01  0.51100000000E-03 0.  1.
         12    1    3    3    0    0 -0.18629005848E+01  0.22071220431E+02 -0.21454211962E+02  0.30836542945E+02  0.00000000000E+00 0. -1.
</event>
<event>
 7    1  0.4994895E-011  0.5052886E+02  0.7816164E-02  0.1300439E+00
        -11   -1    0    0    0    0  0.00000000000E+00  0.00000000000E+00  0.45593999997E+02  0.45594000000E+02  0.51100000000E-03 0. -1.
         11   -1    0    0    0    0 -0.00000000000E+00 -0.00000000000E+00 -0.45593999997E+02  0.45594000000E+02  0.51100000000E-03 0.  1.
    9900012    2    1    2    0    0 -0.30004975007E+02 -0.25438616270E+02  0.10283200684E+02  0.50528856635E+02  0.29999990227E+02 0.  0.
        -12    1    1    2    0    0  0.30004975007E+02  0.25438616270E+02 -0.10283200684E+02  0.40659143365E+02  0.00000000000E+00 0.  1.
         11    1    3    3    0    0 -0.92417495831E+01 -0.10872705366E+02  0.71395507992E+01  0.15956153773E+02  0.51100000000E-03 0. -1.
        -11    1    3    3    0    0 -0.22324633092E+02 -0.30673415140E+01 -0.60165760560E-01  0.22534450223E+02  0.51100000000E-03 0.  1.
        -12    1    3    3    0    0  0.15614076686E+01 -0.11498569390E+02  0.32038156454E+01  0.12038252639E+02  0.00000000000E+00 0.  1.
</event>
<event>
 7    1  0.4994895E-011  0.5052886E+02  0.7816164E-02  0.1300439E+00
        -11   -1    0    0    0    0  0.00000000000E+00  0.00000000000E+00  0.45593999997E+02  0.45594000000E+02  0.51100000000E-03 0.  1.
         11   -1    0    0    0    0 -0.00000000000E+00 -0.00000000000E+00 -0.45593999997E+02  0.45594000000E+02  0.51100000000E-03 0. -1.
    9900012    2    1    2    0    0  0.33327907798E+02  0.25267080863E+01 -0.23152361344E+02  0.50528861694E+02  0.30000005606E+02 0.  0.
        -12    1    1    2    0    0 -0.33327907798E+02 -0.25267080863E+01  0.23152361344E+02  0.40659138306E+02  0.00000000000E+00 0.  1.
         11    1    3    3    0    0  0.24074629015E+02  0.46408872747E+01 -0.26007822512E+02  0.35742585651E+02  0.51100000000E-03 0. -1.
        -11    1    3    3    0    0  0.56177509314E+00  0.38283492151E+01  0.15838216403E+01  0.41809496789E+01  0.51100000000E-03 0.  1.
         12    1    3    3    0    0  0.86915036897E+01 -0.59425284035E+01  0.12716395277E+01  0.10605326365E+02  0.00000000000E+00 0. -1.
</event>
<event>
 7    1  0.4994895E-011  0.5052893E+02  0.7816164E-02  0.1300439E+00
        -11   -1    0    0    0    0  0.00000000000E+00  0.00000000000E+00  0.45593999997E+02  0.45594000000E+02  0.51100000000E-03 0. -1.
         11   -1    0    0    0    0 -0.00000000000E+00 -0.00000000000E+00 -0.45593999997E+02  0.45594000000E+02  0.51100000000E-03 0.  1.
    9900012    2    1    2    0    0 -0.13489938019E+02 -0.26751621411E+01  0.38262585209E+02  0.50528925403E+02  0.30000199254E+02 0.  0.
        -12    1    1    2    0    0  0.13489938019E+02  0.26751621411E+01 -0.38262585209E+02  0.40659074597E+02  0.00000000000E+00 0.  1.
         11    1    3    3    0    0 -0.16661401264E+02 -0.34566160098E+01  0.31660054549E+02  0.35943143165E+02  0.51100000000E-03 0. -1.
        -11    1    3    3    0    0  0.28736793715E+01  0.61476726275E+00 -0.34474562622E+01  0.45300029645E+01  0.51100000000E-03 0.  1.
         12    1    3    3    0    0  0.29778387304E+00  0.16668660600E+00  0.10049986922E+02  0.10055779273E+02  0.00000000000E+00 0. -1.
</event>
<event>
 7    1  0.4994895E-011  0.5052885E+02  0.7816164E-02  0.1300439E+00
        -11   -1    0    0    0    0  0.00000000000E+00  0.00000000000E+00  0.45593999997E+02  0.45594000000E+02  0.51100000000E-03 0. -1.
         11   -1    0    0    0    0 -0.00000000000E+00 -0.00000000000E+00 -0.45593999997E+02  0.45594000000E+02  0.51100000000E-03 0.  1.
    9900012    2    1    2    0    0 -0.15374048660E+02 -0.28557027350E+02  0.24521440979E+02  0.50528852800E+02  0.29999978572E+02 0.  0.
        -12    1    1    2    0    0  0.15374048660E+02  0.28557027350E+02 -0.24521440979E+02  0.40659147200E+02  0.00000000000E+00 0.  1.
         11    1    3    3    0    0 -0.15161358025E+02 -0.12996895550E+02  0.28519053474E+01  0.20172244186E+02  0.51100000000E-03 0. -1.
        -11    1    3    3    0    0  0.37675294177E+01  0.34530724676E+00  0.88838992510E+00  0.38862259235E+01  0.51100000000E-03 0.  1.
         12    1    3    3    0    0 -0.39802200528E+01 -0.15905439047E+02  0.20781145707E+02  0.26470382691E+02  0.00000000000E+00 0. -1.
</event>
<event>
 7    1  0.4994895E-011  0.5052886E+02  0.7816164E-02  0.1300439E+00
        -11   -1    0    0    0    0  0.00000000000E+00  0.00000000000E+00  0.45593999997E+02  0.45594000000E+02  0.51100000000E-03 0.  1.
         11   -1    0    0    0    0 -0.00000000000E+00 -0.00000000000E+00 -0.45593999997E+02  0.45594000000E+02  0.51100000000E-03 0. -1.
    9900012    2    1    2    0    0 -0.35448425678E+02  0.39407583244E+01 -0.19520374702E+02  0.50528862187E+02  0.30000007102E+02 0.  0.
        -12    1    1    2    0    0  0.35448425678E+02 -0.39407583244E+01  0.19520374702E+02  0.40659137813E+02  0.00000000000E+00 0.  1.
         11    1    3    3    0    0 -0.19409537541E+02 -0.16104958483E+01  0.43172185128E+01  0.19948990460E+02  0.51100000000E-03 0. -1.
        -11    1    3    3    0    0 -0.70694705233E+01  0.37439026743E+01 -0.18076524994E+02  0.19767523285E+02  0.51100000000E-03 0.  1.
         12    1    3    3    0    0 -0.89694176140E+01  0.18073514984E+01 -0.57610682213E+01  0.10812348442E+02  0.00000000000E+00 0. -1.
</event>
<event>
 7    1  0.4994895E-011  0.5052886E+02  0.7816164E-02  0.1300439E+00
        -11   -1    0    0    0    0  0.00000000000E+00  0.00000000000E+00  0.45593999997E+02  0.45594000000E+02  0.51100000000E-03 0.  1.
         11   -1    0    0    0    0 -0.00000000000E+00 -0.00000000000E+00 -0.45593999997E+02  0.45594000000E+02  0.51100000000E-03 0. -1.
    9900012    2    1    2    0    0 -0.18837227631E+02  0.33611180213E+02 -0.12985114299E+02  0.50528858672E+02  0.29999996421E+02 0.  0.
        -12    1    1    2    0    0  0.18837227631E+02 -0.33611180213E+02  0.12985114299E+02  0.40659141328E+02  0.00000000000E+00 0.  1.
         11    1    3    3    0    0 -0.46575664895E+01  0.21697299056E+02 -0.87734745306E+01  0.23862932920E+02  0.51100000000E-03 0. -1.
        -11    1    3    3    0    0 -0.18333717457E+02  0.64182931280E+01 -0.26795635764E+01  0.19608665015E+02  0.51100000000E-03 0.  1.
        -12    1    3    3    0    0  0.41540563154E+01  0.54955880288E+01 -0.15320761916E+01  0.70572607370E+01  0.00000000000E+00 0.  1.
</event>
<event>
 7    1  0.4994895E-011  0.5052885E+02  0.7816164E-02  0.1300439E+00
        -11   -1    0    0    0    0  0.00000000000E+00  0.00000000000E+00  0.45593999997E+02  0.45594000000E+02  0.51100000000E-03 0. -1.
         11   -1    0    0    0    0 -0.00000000000E+00 -0.00000000000E+00 -0.45593999997E+02  0.45594000000E+02  0.51100000000E-03 0.  1.
    9900012    2    1    2    0    0 -0.40272771131E+02 -0.55747749184E+01 -0.43845878757E+00  0.50528850278E+02  0.29999970905E+02 0.  0.
        -12    1    1    2    0    0  0.40272771131E+02  0.55747749184E+01  0.43845878757E+00  0.40659149722E+02  0.00000000000E+00 0.  1.
         11    1    3    3    0    0 -0.21257917032E+02  0.64202430341E+01 -0.15535422318E+01  0.22260549204E+02  0.51100000000E-03 0. -1.
        -11    1    3    3    0    0 -0.17669294375E+02 -0.12045452843E+02  0.67893944696E+01  0.22436416279E+02  0.51100000000E-03 0.  1.
        -12    1    3    3    0    0 -0.13455597248E+01  0.50434890848E-01 -0.56743110254E+01  0.58318847952E+01  0.00000000000E+00 0.  1.
</event>
<event>
 7    1  0.4994895E-011  0.5052886E+02  0.7816164E-02  0.1300439E+00
        -11   -1    0    0    0    0  0.00000000000E+00  0.00000000000E+00  0.45593999997E+02  0.45594000000E+02  0.51100000000E-03 0.  1.
         11   -1    0    0    0    0 -0.00000000000E+00 -0.00000000000E+00 -0.45593999997E+02  0.45594000000E+02  0.51100000000E-03 0. -1.
    9900012    2    1    2    0    0  0.25677245310E+02  0.23686725192E+02 -0.20803447224E+02  0.50528864576E+02  0.30000014365E+02 0.  0.
        -12    1    1    2    0    0 -0.25677245310E+02 -0.23686725192E+02  0.20803447224E+02  0.40659135424E+02  0.00000000000E+00 0.  1.
         11    1    3    3    0    0 -0.31247465330E+01  0.45954275497E+01 -0.11742405137E+02  0.12990999728E+02  0.51100000000E-03 0. -1.
        -11    1    3    3    0    0  0.29366204202E+02  0.16442079127E+02 -0.77889331005E+01  0.34545381665E+02  0.51100000000E-03 0.  1.
        -12    1    3    3    0    0 -0.56421235935E+00  0.26492185152E+01 -0.12721089865E+01  0.29924831832E+01  0.00000000000E+00 0.  1.
</event>
<event>
 7    1  0.4994895E-011  0.5052884E+02  0.7816164E-02  0.1300439E+00
        -11   -1    0    0    0    0  0.00000000000E+00  0.00000000000E+00  0.45593999997E+02  0.45594000000E+02  0.51100000000E-03 0.  1.
         11   -1    0    0    0    0 -0.00000000000E+00 -0.00000000000E+00 -0.45593999997E+02  0.45594000000E+02  0.51100000000E-03 0. -1.
    9900012    2    1    2    0    0  0.26481492896E+02 -0.30462413561E+02 -0.48927612814E+01  0.50528840898E+02  0.29999942392E+02 0.  0.
        -12    1    1    2    0    0 -0.26481492896E+02  0.30462413561E+02  0.48927612814E+01  0.40659159102E+02  0.00000000000E+00 0.  1.
         11    1    3    3    0    0  0.63972210550E+01 -0.11456687023E+02 -0.13408995638E+02  0.18761164118E+02  0.51100000000E-03 0. -1.
        -11    1    3    3    0    0  0.11895420041E+02 -0.98859560833E+01  0.11353484822E+02  0.19186838289E+02  0.51100000000E-03 0.  1.
        -12    1    3    3    0    0  0.81888517999E+01 -0.91197704542E+01 -0.28372504656E+01  0.12580838491E+02  0.00000000000E+00 0.  1.
</event>
<event>
 7    1  0.4994895E-011  0.5052886E+02  0.7816164E-02  0.1300439E+00
        -11   -1    0    0    0    0  0.00000000000E+00  0.00000000000E+00  0.45593999997E+02  0.45594000000E+02  0.51100000000E-03 0.  1.
         11   -1    0    0    0    0 -0.00000000000E+00 -0.00000000000E+00 -0.45593999997E+02  0.45594000000E+02  0.51100000000E-03 0. -1.
    9900012    2    1    2    0    0  0.56281303201E+01  0.16124954525E+02 -0.36898184338E+02  0.50528855681E+02  0.29999987328E+02 0.  0.
        -12    1    1    2    0    0 -0.56281303201E+01 -0.16124954525E+02  0.36898184338E+02  0.40659144319E+02  0.00000000000E+00 0.  1.
         11    1    3    3    0    0 -0.34943023628E+01  0.17735078005E+02 -0.36992866857E+02  0.41172992841E+02  0.51100000000E-03 0. -1.
        -11    1    3    3    0    0  0.58872373341E+01 -0.14751527425E+01 -0.39011617885E+00  0.60817620749E+01  0.51100000000E-03 0.  1.
         12    1    3    3    0    0  0.32351953488E+01 -0.13497073753E+00  0.48479869872E+00  0.32741007656E+01  0.00000000000E+00 0. -1.
</event>
<event>
 7    1  0.4994895E-011  0.5052886E+02  0.7816164E-02  0.1300439E+00
        -11   -1    0    0    0    0  0.00000000000E+00  0.00000000000E+00  0.45593999997E+02  0.45594000000E+02  0.51100000000E-03 0.  1.
         11   -1    0    0    0    0 -0.00000000000E+00 -0.00000000000E+00 -0.45593999997E+02  0.45594000000E+02  0.51100000000E-03 0. -1.
    9900012    2    1    2    0    0 -0.22218771312E+02 -0.22274246273E+02 -0.25755581674E+02  0.50528857940E+02  0.29999994196E+02 0.  0.
        -12    1    1    2    0    0  0.22218771312E+02  0.22274246273E+02  0.25755581674E+02  0.40659142060E+02  0.00000000000E+00 0.  1.
         11    1    3    3    0    0 -0.34162311306E+01 -0.27383049645E+01 -0.99194874890E+01  0.10842747877E+02  0.51100000000E-03 0. -1.
        -11    1    3    3    0    0 -0.10251319150E+02 -0.17551089377E+02  0.13681833364E+01  0.20371602994E+02  0.51100000000E-03 0.  1.
        -12    1    3    3    0    0 -0.85512210309E+01 -0.19848519321E+01 -0.17204277522E+02  0.19314507070E+02  0.00000000000E+00 0.  1.
</event>
<event>
 7    1  0.4994895E-011  0.5052887E+02  0.7816164E-02  0.1300439E+00
        -11   -1    0    0    0    0  0.00000000000E+00  0.00000000000E+00  0.45593999997E+02  0.45594000000E+02  0.51100000000E-03 0. -1.
         11   -1    0    0    0    0 -0.00000000000E+00 -0.00000000000E+00 -0.45593999997E+02  0.45594000000E+02  0.51100000000E-03 0.  1.
    9900012    2    1    2    0    0 -0.94804139038E+01 -0.36934108988E+02  0.14112349374E+02  0.50528867454E+02  0.30000023114E+02 0.  0.
        -12    1    1    2    0    0  0.94804139038E+01  0.36934108988E+02 -0.14112349374E+02  0.40659132546E+02  0.00000000000E+00 0.  1.
         11    1    3    3    0    0  0.62894061582E+01 -0.11449162506E+01  0.44280032026E+01  0.77765465129E+01  0.51100000000E-03 0. -1.
        -11    1    3    3    0    0 -0.95303549014E+01 -0.19224592642E+02 -0.19885491284E+01  0.21549175268E+02  0.51100000000E-03 0.  1.
         12    1    3    3    0    0 -0.62394651606E+01 -0.16564600095E+02  0.11672895300E+02  0.21203145674E+02  0.00000000000E+00 0. -1.
</event>
<event>
 7    1  0.4994895E-011  0.5052886E+02  0.7816164E-02  0.1300439E+00
        -11   -1    0    0    0    0  0.00000000000E+00  0.00000000000E+00  0.45593999997E+02  0.45594000000E+02  0.51100000000E-03 0.  1.
         11   -1    0    0    0    0 -0.00000000000E+00 -0.00000000000E+00 -0.45593999997E+02  0.45594000000E+02  0.51100000000E-03 0. -1.
    9900012    2    1    2    0    0  0.79288648666E+01  0.38164357972E+02 -0.11566350846E+02  0.50528860937E+02  0.30000003303E+02 0.  0.
        -12    1    1    2    0    0 -0.79288648666E+01 -0.38164357972E+02  0.11566350846E+02  0.40659139063E+02  0.00000000000E+00 0.  1.
         11    1    3    3    0    0  0.13171368374E+02  0.25336290262E+02 -0.46837591161E+01  0.28937003107E+02  0.51100000000E-03 0. -1.
        -11    1    3    3    0    0 -0.94578158727E+01  0.36592921220E+01 -0.18246091253E+01  0.10303877845E+02  0.51100000000E-03 0.  1.
        -12    1    3    3    0    0  0.42153123651E+01  0.91687755877E+01 -0.50579826050E+01  0.11287979985E+02  0.00000000000E+00 0.  1.
</event>
<event>
 7    1  0.4994895E-011  0.5052887E+02  0.7816164E-02  0.1300439E+00
        -11   -1    0    0    0    0  0.00000000000E+00  0.00000000000E+00  0.45593999997E+02  0.45594000000E+02  0.51100000000E-03 0.  1.
         11   -1    0    0    0    0 -0.00000000000E+00 -0.00000000000E+00 -0.45593999997E+02  0.45594000000E+02  0.51100000000E-03 0. -1.
    9900012    2    1    2    0    0  0.97534335866E+01  0.38826084592E+02  0.71112802208E+01  0.50528872884E+02  0.30000039618E+02 0.  0.
        -12    1    1    2    0    0 -0.97534335866E+01 -0.38826084592E+02 -0.71112802208E+01  0.40659127116E+02  0.00000000000E+00 0.  1.
         11    1    3    3    0    0  0.59289661385E+01  0.25253525539E+02 -0.47055237062E+01  0.26363519211E+02  0.51100000000E-03 0. -1.
        -11    1    3    3    0    0  0.82658318863E+01  0.17914753723E+01  0.53927813542E+01  0.10030725386E+02  0.51100000000E-03 0.  1.
        -12    1    3    3    0    0 -0.44413644381E+01  0.11781083681E+02  0.64240225728E+01  0.14134628286E+02  0.00000000000E+00 0.  1.
</event>
<event>
 7    1  0.4994895E-011  0.5052885E+02  0.7816164E-02  0.1300439E+00
        -11   -1    0    0    0    0  0.00000000000E+00  0.00000000000E+00  0.45593999997E+02  0.45594000000E+02  0.51100000000E-03 0. -1.
         11   -1    0    0    0    0 -0.00000000000E+00 -0.00000000000E+00 -0.45593999997E+02  0.45594000000E+02  0.51100000000E-03 0.  1.
    9900012    2    1    2    0    0  0.85399246806E+01 -0.24945109965E+02  0.30951213730E+02  0.50528850279E+02  0.29999970908E+02 0.  0.
        -12    1    1    2    0    0 -0.85399246806E+01  0.24945109965E+02 -0.30951213730E+02  0.40659149721E+02  0.00000000000E+00 0.  1.
         11    1    3    3    0    0 -0.16847896621E+01  0.25699608001E+01  0.54106050128E+01  0.62223678439E+01  0.51100000000E-03 0. -1.
        -11    1    3    3    0    0  0.86031793239E+01 -0.21684553234E+02  0.29091322266E+02  0.37289939325E+02  0.51100000000E-03 0.  1.
        -12    1    3    3    0    0  0.16215350188E+01 -0.58305175313E+01 -0.35507135495E+01  0.70165431098E+01  0.00000000000E+00 0.  1.
</event>
<event>
 7    1  0.4994895E-011  0.5052885E+02  0.7816164E-02  0.1300439E+00
        -11   -1    0    0    0    0  0.00000000000E+00  0.00000000000E+00  0.45593999997E+02  0.45594000000E+02  0.51100000000E-03 0.  1.
         11   -1    0    0    0    0 -0.00000000000E+00 -0.00000000000E+00 -0.45593999997E+02  0.45594000000E+02  0.51100000000E-03 0. -1.
    9900012    2    1    2    0    0  0.27784851811E+02 -0.27139132252E+02 -0.12026453635E+02  0.50528854945E+02  0.29999985090E+02 0.  0.
        -12    1    1    2    0    0 -0.27784851811E+02  0.27139132252E+02  0.12026453635E+02  0.40659145055E+02  0.00000000000E+00 0.  1.
         11    1    3    3    0    0  0.28582478715E+02 -0.28478167937E+02 -0.12922686651E+02  0.42366967901E+02  0.51100000000E-03 0. -1.
        -11    1    3    3    0    0  0.25784596770E+01  0.32635753789E+01  0.98686202510E+00  0.42747251932E+01  0.51100000000E-03 0.  1.
         12    1    3    3    0    0 -0.33760865811E+01 -0.19245396943E+01 -0.90629009415E-01  0.38871618509E+01  0.00000000000E+00 0. -1.
</event>
<event>
 7    1  0.4994895E-011  0.5052884E+02  0.7816164E-02  0.1300439E+00
        -11   -1    0    0    0    0  0.00000000000E+00  0.00000000000E+00  0.45593999997E+02  0.45594000000E+02  0.51100000000E-03 0.  1.
         11   -1    0    0    0    0 -0.00000000000E+00 -0.00000000000E+00 -0.45593999997E+02  0.45594000000E+02  0.51100000000E-03 0. -1.
    9900012    2    1    2    0    0  0.73627068658E+01 -0.36397904264E+02 -0.16557487654E+02  0.50528840090E+02  0.29999939936E+02 0.  0.
        -12    1    1    2    0    0 -0.73627068658E+01  0.36397904264E+02  0.16557487654E+02  0.40659159910E+02  0.00000000000E+00 0.  1.
         11    1    3    3    0    0 -0.19214205541E+01 -0.18045786402E+02  0.25857861732E+01  0.18331081643E+02  0.51100000000E-03 0. -1.
        -11    1    3    3    0    0  0.12696507027E+02 -0.81675283773E+01 -0.12175223746E+02  0.19394480761E+02  0.51100000000E-03 0.  1.
        -12    1    3    3    0    0 -0.34123796066E+01 -0.10184589485E+02 -0.69680500813E+01  0.12803277685E+02  0.00000000000E+00 0.  1.
</event>
<event>
 7    1  0.4994895E-011  0.5052886E+02  0.7816164E-02  0.1300439E+00
        -11   -1    0    0    0    0  0.00000000000E+00  0.00000000000E+00  0.45593999997E+02  0.45594000000E+02  0.51100000000E-03 0.  1.
         11   -1    0    0    0    0 -0.00000000000E+00 -0.00000000000E+00 -0.45593999997E+02  0.45594000000E+02  0.51100000000E-03 0. -1.
    9900012    2    1    2    0    0  0.30550600880E+02 -0.39056759964E+01 -0.26543779829E+02  0.50528858756E+02  0.29999996673E+02 0.  0.
        -12    1    1    2    0    0 -0.30550600880E+02  0.39056759964E+01  0.26543779829E+02  0.40659141244E+02  0.00000000000E+00 0.  1.
         11    1    3    3    0    0  0.41129723589E+01  0.51871742203E+01 -0.20988748671E+01  0.69446809852E+01  0.51100000000E-03 0. -1.
        -11    1    3    3    0    0  0.13825244525E+02 -0.87312880161E+01 -0.31508051854E+00  0.16354572834E+02  0.51100000000E-03 0.  1.
        -12    1    3    3    0    0  0.12612383996E+02 -0.36156220059E+00 -0.24129824444E+02  0.27229604936E+02  0.00000000000E+00 0.  1.
</event>
<event>
 7    1  0.4994895E-011  0.5052885E+02  0.7816164E-02  0.1300439E+00
        -11   -1    0    0    0    0  0.00000000000E+00  0.00000000000E+00  0.45593999997E+02  0.45594000000E+02  0.51100000000E-03 0.  1.
         11   -1    0    0    0    0 -0.00000000000E+00 -0.00000000000E+00 -0.45593999997E+02  0.45594000000E+02  0.51100000000E-03 0. -1.
    9900012    2    1    2    0    0  0.20663915648E+02  0.34332645205E+02  0.68875418278E+01  0.50528853807E+02  0.29999981633E+02 0.  0.
        -12    1    1    2    0    0 -0.20663915648E+02 -0.34332645205E+02 -0.68875418278E+01  0.40659146193E+02  0.00000000000E+00 0.  1.
         11    1    3    3    0    0  0.17070393462E+02  0.87642196422E+01  0.10941110660E+02  0.22088861031E+02  0.51100000000E-03 0. -1.
        -11    1    3    3    0    0 -0.23237919946E+01  0.12740242801E+01  0.11677856889E+01  0.28960094573E+01  0.51100000000E-03 0.  1.
         12    1    3    3    0    0  0.59173141802E+01  0.24294401283E+02 -0.52213545208E+01  0.25543983320E+02  0.00000000000E+00 0. -1.
</event>
<event>
 7    1  0.4994895E-011  0.5052886E+02  0.7816164E-02  0.1300439E+00
        -11   -1    0    0    0    0  0.00000000000E+00  0.00000000000E+00  0.45593999997E+02  0.45594000000E+02  0.51100000000E-03 0. -1.
         11   -1    0    0    0    0 -0.00000000000E+00 -0.00000000000E+00 -0.45593999997E+02  0.45594000000E+02  0.51100000000E-03 0.  1.
    9900012    2    1    2    0    0 -0.68431928566E+01 -0.97203336513E+01  0.38882530333E+02  0.50528864005E+02  0.30000012628E+02 0.  0.
        -12    1    1    2    0    0  0.68431928566E+01  0.97203336513E+01 -0.38882530333E+02  0.40659135995E+02  0.00000000000E+00 0.  1.
         11    1    3    3    0    0 -0.25808071403E+01 -0.47534399791E+01  0.12777162134E+02  0.13874856021E+02  0.51100000000E-03 0. -1.
        -11    1    3    3    0    0 -0.12936868345E+02 -0.25416054246E+01  0.57279441279E+01  0.14374688341E+02  0.51100000000E-03 0.  1.
        -12    1    3    3    0    0  0.86744826287E+01 -0.24252882476E+01  0.20377424071E+02  0.22279319643E+02  0.00000000000E+00 0.  1.
</event>
<event>
 7    1  0.4994895E-011  0.5052884E+02  0.7816164E-02  0.1300439E+00
        -11   -1    0    0    0    0  0.00000000000E+00  0.00000000000E+00  0.45593999997E+02  0.45594000000E+02  0.51100000000E-03 0.  1.
         11   -1    0    0    0    0 -0.00000000000E+00 -0.00000000000E+00 -0.45593999997E+02  0.45594000000E+02  0.51100000000E-03 0. -1.
    9900012    2    1    2    0    0 -0.29282930388E+02  0.23820062945E+02 -0.15109007682E+02  0.50528837147E+02  0.29999930992E+02 0.  0.
        -12    1    1    2    0    0  0.29282930388E+02 -0.23820062945E+02  0.15109007682E+02  0.40659162853E+02  0.00000000000E+00 0.  1.
         11    1    3    3    0    0  0.22741927512E+01 -0.26873422197E+01 -0.67162118998E+01  0.75829587510E+01  0.51100000000E-03 0.  1.
        -11    1    3    3    0    0 -0.19076557558E+02  0.16814194565E+02 -0.86956832772E+00  0.25443827080E+02  0.51100000000E-03 0. -1.
        -12    1    3    3    0    0 -0.12480565581E+02  0.96932105996E+01 -0.75232274545E+01  0.17502051316E+02  0.00000000000E+00 0.  1.
</event>
<event>
 7    1  0.4994895E-011  0.5052886E+02  0.7816164E-02  0.1300439E+00
        -11   -1    0    0    0    0  0.00000000000E+00  0.00000000000E+00  0.45593999997E+02  0.45594000000E+02  0.51100000000E-03 0.  1.
         11   -1    0    0    0    0 -0.00000000000E+00 -0.00000000000E+00 -0.45593999997E+02  0.45594000000E+02  0.51100000000E-03 0. -1.
    9900012    2    1    2    0    0 -0.11395161509E+02 -0.62010406023E+01 -0.38533923233E+02  0.50528857731E+02  0.29999993558E+02 0.  0.
        -12    1    1    2    0    0  0.11395161509E+02  0.62010406023E+01  0.38533923233E+02  0.40659142269E+02  0.00000000000E+00 0.  1.
         11    1    3    3    0    0  0.34936333508E+01  0.30500439928E+01 -0.12019134542E+02  0.12882850528E+02  0.51100000000E-03 0. -1.
        -11    1    3    3    0    0 -0.50787694064E+00 -0.10448807868E+02 -0.46491878513E+01  0.11447727844E+02  0.51100000000E-03 0.  1.
        -12    1    3    3    0    0 -0.14380917920E+02  0.11977232733E+01 -0.21865600840E+02  0.26198279358E+02  0.00000000000E+00 0.  1.
</event>
<event>
 7    1  0.4994895E-011  0.5052886E+02  0.7816164E-02  0.1300439E+00
        -11   -1    0    0    0    0  0.00000000000E+00  0.00000000000E+00  0.45593999997E+02  0.45594000000E+02  0.51100000000E-03 0.  1.
         11   -1    0    0    0    0 -0.00000000000E+00 -0.00000000000E+00 -0.45593999997E+02  0.45594000000E+02  0.51100000000E-03 0. -1.
    9900012    2    1    2    0    0  0.95743241984E+01 -0.25865038090E+02 -0.29874701229E+02  0.50528860157E+02  0.30000000933E+02 0.  0.
        -12    1    1    2    0    0 -0.95743241984E+01  0.25865038090E+02  0.29874701229E+02  0.40659139843E+02  0.00000000000E+00 0.  1.
         11    1    3    3    0    0  0.12056639247E+02 -0.16161191527E+02 -0.24426564153E+02  0.31673391010E+02  0.51100000000E-03 0. -1.
        -11    1    3    3    0    0 -0.43241943757E+01 -0.69324821494E+01  0.38116603560E+01  0.90159148555E+01  0.51100000000E-03 0.  1.
         12    1    3    3    0    0  0.18418793268E+01 -0.27713644137E+01 -0.92597974320E+01  0.98395542912E+01  0.00000000000E+00 0. -1.
</event>
<event>
 7    1  0.4994895E-011  0.5052887E+02  0.7816164E-02  0.1300439E+00
        -11   -1    0    0    0    0  0.00000000000E+00  0.00000000000E+00  0.45593999997E+02  0.45594000000E+02  0.51100000000E-03 0.  1.
         11   -1    0    0    0    0 -0.00000000000E+00 -0.00000000000E+00 -0.45593999997E+02  0.45594000000E+02  0.51100000000E-03 0. -1.
    9900012    2    1    2    0    0  0.36092042657E+02  0.10369293144E+02 -0.15588693734E+02  0.50528866268E+02  0.30000019509E+02 0.  0.
        -12    1    1    2    0    0 -0.36092042657E+02 -0.10369293144E+02  0.15588693734E+02  0.40659133732E+02  0.00000000000E+00 0.  1.
         11    1    3    3    0    0  0.34733239918E+01 -0.52875228638E+01 -0.77236479142E+01  0.99838176542E+01  0.51100000000E-03 0. -1.
        -11    1    3    3    0    0  0.78907625899E+01  0.92569533403E+01  0.33979261827E+01  0.12629379320E+02  0.51100000000E-03 0.  1.
        -12    1    3    3    0    0  0.24727956076E+02  0.63998626675E+01 -0.11262972002E+02  0.27915669295E+02  0.00000000000E+00 0.  1.
</event>
<event>
 7    1  0.4994895E-011  0.5052886E+02  0.7816164E-02  0.1300439E+00
        -11   -1    0    0    0    0  0.00000000000E+00  0.00000000000E+00  0.45593999997E+02  0.45594000000E+02  0.51100000000E-03 0.  1.
         11   -1    0    0    0    0 -0.00000000000E+00 -0.00000000000E+00 -0.45593999997E+02  0.45594000000E+02  0.51100000000E-03 0. -1.
    9900012    2    1    2    0    0 -0.38911971038E+02  0.10162850557E+02 -0.59783387559E+01  0.50528861350E+02  0.30000004559E+02 0.  0.
        -12    1    1    2    0    0  0.38911971038E+02 -0.10162850557E+02  0.59783387559E+01  0.40659138650E+02  0.00000000000E+00 0.  1.
         11    1    3    3    0    0 -0.23289595332E+02  0.83242152106E+00 -0.65544662238E+01  0.24208659692E+02  0.51100000000E-03 0. -1.
        -11    1    3    3    0    0 -0.26802954427E+01  0.67738733267E+01 -0.78163272573E+01  0.10684770262E+02  0.51100000000E-03 0.  1.
        -12    1    3    3    0    0 -0.12942080263E+02  0.25565557089E+01  0.83924547251E+01  0.15635431396E+02  0.00000000000E+00 0.  1.
</event>
<event>
 7    1  0.4994895E-011  0.5052886E+02  0.7816164E-02  0.1300439E+00
        -11   -1    0    0    0    0  0.00000000000E+00  0.00000000000E+00  0.45593999997E+02  0.45594000000E+02  0.51100000000E-03 0.  1.
         11   -1    0    0    0    0 -0.00000000000E+00 -0.00000000000E+00 -0.45593999997E+02  0.45594000000E+02  0.51100000000E-03 0. -1.
    9900012    2    1    2    0    0  0.99238587715E+00 -0.29324746065E+01 -0.40541111535E+02  0.50528856360E+02  0.29999989391E+02 0.  0.
        -12    1    1    2    0    0 -0.99238587715E+00  0.29324746065E+01  0.40541111535E+02  0.40659143640E+02  0.00000000000E+00 0.  1.
         11    1    3    3    0    0  0.10721212465E+02 -0.98159427086E+01 -0.26470040371E+02  0.30198678207E+02  0.51100000000E-03 0. -1.
        -11    1    3    3    0    0 -0.67062180108E+01  0.79259265921E+01 -0.68653677959E+01  0.12446965397E+02  0.51100000000E-03 0.  1.
        -12    1    3    3    0    0 -0.30226085770E+01 -0.10424584900E+01 -0.72057033687E+01  0.78832127556E+01  0.00000000000E+00 0.  1.
</event>
<event>
 7    1  0.4994895E-011  0.5052886E+02  0.7816164E-02  0.1300439E+00
        -11   -1    0    0    0    0  0.00000000000E+00  0.00000000000E+00  0.45593999997E+02  0.45594000000E+02  0.51100000000E-03 0. -1.
         11   -1    0    0    0    0 -0.00000000000E+00 -0.00000000000E+00 -0.45593999997E+02  0.45594000000E+02  0.51100000000E-03 0.  1.
    9900012    2    1    2    0    0  0.36308588393E+02  0.13449177591E+02  0.12408537624E+02  0.50528858654E+02  0.29999996366E+02 0.  0.
        -12    1    1    2    0    0 -0.36308588393E+02 -0.13449177591E+02 -0.12408537624E+02  0.40659141346E+02  0.00000000000E+00 0.  1.
         11    1    3    3    0    0  0.91064405374E+01  0.49571834535E-01  0.12697358743E+02  0.15625384345E+02  0.51100000000E-03 0. -1.
        -11    1    3    3    0    0  0.17261527410E+02  0.15149408193E+02  0.50055461220E+01  0.23505752262E+02  0.51100000000E-03 0.  1.
        -12    1    3    3    0    0  0.99406204455E+01 -0.17498024367E+01 -0.52943672400E+01  0.11397722048E+02  0.00000000000E+00 0.  1.
</event>
<event>
 7    1  0.4994895E-011  0.5052886E+02  0.7816164E-02  0.1300439E+00
        -11   -1    0    0    0    0  0.00000000000E+00  0.00000000000E+00  0.45593999997E+02  0.45594000000E+02  0.51100000000E-03 0. -1.
         11   -1    0    0    0    0 -0.00000000000E+00 -0.00000000000E+00 -0.45593999997E+02  0.45594000000E+02  0.51100000000E-03 0.  1.
    9900012    2    1    2    0    0 -0.39499533148E+02  0.60986274679E+01  0.74672027094E+01  0.50528862132E+02  0.30000006936E+02 0.  0.
        -12    1    1    2    0    0  0.39499533148E+02 -0.60986274679E+01 -0.74672027094E+01  0.40659137868E+02  0.00000000000E+00 0.  1.
         11    1    3    3    0    0 -0.60346899698E+01 -0.93173843253E+01 -0.20747398315E+01  0.11293169587E+02  0.51100000000E-03 0. -1.
        -11    1    3    3    0    0 -0.75285451946E+01  0.50465736946E+01 -0.15248732381E+01  0.91908725078E+01  0.51100000000E-03 0.  1.
         12    1    3    3    0    0 -0.25936297983E+02  0.10369438099E+02  0.11066815779E+02  0.30044820037E+02  0.00000000000E+00 0. -1.
</event>
<event>
 7    1  0.4994895E-011  0.5052886E+02  0.7816164E-02  0.1300439E+00
        -11   -1    0    0    0    0  0.00000000000E+00  0.00000000000E+00  0.45593999997E+02  0.45594000000E+02  0.51100000000E-03 0.  1.
         11   -1    0    0    0    0 -0.00000000000E+00 -0.00000000000E+00 -0.45593999997E+02  0.45594000000E+02  0.51100000000E-03 0. -1.
    9900012    2    1    2    0    0  0.38753699059E+02 -0.19483792526E+01 -0.12145794232E+02  0.50528859699E+02  0.29999999541E+02 0.  0.
        -12    1    1    2    0    0 -0.38753699059E+02  0.19483792526E+01  0.12145794232E+02  0.40659140301E+02  0.00000000000E+00 0.  1.
         11    1    3    3    0    0  0.67643253352E+01 -0.69619157175E+01  0.34156387080E+01  0.10290333121E+02  0.51100000000E-03 0. -1.
        -11    1    3    3    0    0  0.29715722772E+02  0.28864406640E+01 -0.63612013303E+01  0.30525736718E+02  0.51100000000E-03 0.  1.
         12    1    3    3    0    0  0.22736509523E+01  0.21270958010E+01 -0.92002316092E+01  0.97127898599E+01  0.00000000000E+00 0. -1.
</event>
<event>
 7    1  0.4994895E-011  0.5052882E+02  0.7816164E-02  0.1300439E+00
        -11   -1    0    0    0    0  0.00000000000E+00  0.00000000000E+00  0.45593999997E+02  0.45594000000E+02  0.51100000000E-03 0. -1.
         11   -1    0    0    0    0 -0.00000000000E+00 -0.00000000000E+00 -0.45593999997E+02  0.45594000000E+02  0.51100000000E-03 0.  1.
    9900012    2    1    2    0    0 -0.30344786085E+02 -0.12546026773E+02  0.23978325081E+02  0.50528820175E+02  0.29999879405E+02 0.  0.
        -12    1    1    2    0    0  0.30344786085E+02  0.12546026773E+02 -0.23978325081E+02  0.40659179825E+02  0.00000000000E+00 0.  1.
         11    1    3    3    0    0 -0.23815947601E+02  0.46986559116E+01  0.11679355576E+02  0.26938523984E+02  0.51100000000E-03 0. -1.
        -11    1    3    3    0    0 -0.23739132580E+00 -0.11792475001E+02  0.68345252960E+01  0.13631931543E+02  0.51100000000E-03 0.  1.
         12    1    3    3    0    0 -0.62914471583E+01 -0.54522076836E+01  0.54644442092E+01  0.99583646492E+01  0.00000000000E+00 0. -1.
</event>
<event>
 7    1  0.4994895E-011  0.5052886E+02  0.7816164E-02  0.1300439E+00
        -11   -1    0    0    0    0  0.00000000000E+00  0.00000000000E+00  0.45593999997E+02  0.45594000000E+02  0.51100000000E-03 0.  1.
         11   -1    0    0    0    0 -0.00000000000E+00 -0.00000000000E+00 -0.45593999997E+02  0.45594000000E+02  0.51100000000E-03 0. -1.
    9900012    2    1    2    0    0 -0.36893366220E+02  0.68443044774E+01 -0.15658889974E+02  0.50528858223E+02  0.29999995054E+02 0.  0.
        -12    1    1    2    0    0  0.36893366220E+02 -0.68443044774E+01  0.15658889974E+02  0.40659141777E+02  0.00000000000E+00 0.  1.
         11    1    3    3    0    0 -0.30734402407E+02  0.97615274592E+01 -0.22136213505E+02  0.39113972673E+02  0.51100000000E-03 0. -1.
        -11    1    3    3    0    0 -0.55443028899E+01 -0.73778018588E+00  0.71264305030E+01  0.90592287814E+01  0.51100000000E-03 0.  1.
        -12    1    3    3    0    0 -0.61466092321E+00 -0.21794427959E+01 -0.64910697224E+00  0.23556567688E+01  0.00000000000E+00 0.  1.
</event>
<event>
 7    1  0.4994895E-011  0.5052886E+02  0.7816164E-02  0.1300439E+00
        -11   -1    0    0    0    0  0.00000000000E+00  0.00000000000E+00  0.45593999997E+02  0.45594000000E+02  0.51100000000E-03 0.  1.
         11   -1    0    0    0    0 -0.00000000000E+00 -0.00000000000E+00 -0.45593999997E+02  0.45594000000E+02  0.51100000000E-03 0. -1.
    9900012    2    1    2    0    0 -0.33900240286E+01  0.27284866108E+01 -0.40425596467E+02  0.50528858939E+02  0.29999997232E+02 0.  0.
        -12    1    1    2    0    0  0.33900240286E+01 -0.27284866108E+01  0.40425596467E+02  0.40659141061E+02  0.00000000000E+00 0.  1.
         11    1    3    3    0    0  0.35002281889E+01  0.42460404549E+01  0.22042958703E+01  0.59278476249E+01  0.51100000000E-03 0.  1.
        -11    1    3    3    0    0 -0.75412973580E+01  0.11948341572E+01 -0.40147015341E+02  0.40866632300E+02  0.51100000000E-03 0. -1.
         12    1    3    3    0    0  0.65104514050E+00 -0.27123880014E+01 -0.24828769957E+01  0.37343790141E+01  0.00000000000E+00 0. -1.
</event>
<event>
 7    1  0.4994895E-011  0.5052888E+02  0.7816164E-02  0.1300439E+00
        -11   -1    0    0    0    0  0.00000000000E+00  0.00000000000E+00  0.45593999997E+02  0.45594000000E+02  0.51100000000E-03 0.  1.
         11   -1    0    0    0    0 -0.00000000000E+00 -0.00000000000E+00 -0.45593999997E+02  0.45594000000E+02  0.51100000000E-03 0. -1.
    9900012    2    1    2    0    0  0.11062885119E+02 -0.36700023018E+02 -0.13560419863E+02  0.50528879209E+02  0.30000058843E+02 0.  0.
        -12    1    1    2    0    0 -0.11062885119E+02  0.36700023018E+02  0.13560419863E+02  0.40659120791E+02  0.00000000000E+00 0.  1.
         11    1    3    3    0    0  0.82626494667E+01 -0.20013317528E+02 -0.11173674563E+02  0.24365041723E+02  0.51100000000E-03 0. -1.
        -11    1    3    3    0    0 -0.46292124307E+01  0.19518360577E+01 -0.34119881973E+01  0.60729675979E+01  0.51100000000E-03 0.  1.
        -12    1    3    3    0    0  0.74294480835E+01 -0.18638541547E+02  0.10252428973E+01  0.20090869887E+02  0.00000000000E+00 0.  1.
</event>
<event>
 7    1  0.4994895E-011  0.5052886E+02  0.7816164E-02  0.1300439E+00
        -11   -1    0    0    0    0  0.00000000000E+00  0.00000000000E+00  0.45593999997E+02  0.45594000000E+02  0.51100000000E-03 0. -1.
         11   -1    0    0    0    0 -0.00000000000E+00 -0.00000000000E+00 -0.45593999997E+02  0.45594000000E+02  0.51100000000E-03 0.  1.
    9900012    2    1    2    0    0  0.54975845786E+01  0.15443465942E+02  0.37208089875E+02  0.50528855535E+02  0.29999986884E+02 0.  0.
        -12    1    1    2    0    0 -0.54975845786E+01 -0.15443465942E+02 -0.37208089875E+02  0.40659144465E+02  0.00000000000E+00 0.  1.
         11    1    3    3    0    0  0.10745398276E+01  0.96334129882E+01  0.22307520032E+02  0.24322473803E+02  0.51100000000E-03 0. -1.
        -11    1    3    3    0    0  0.47328777854E+01 -0.71385003373E+01  0.67257979022E+01  0.10890118313E+02  0.51100000000E-03 0.  1.
         12    1    3    3    0    0 -0.30983303429E+00  0.12948553291E+02  0.81747719405E+01  0.15316263419E+02  0.00000000000E+00 0. -1.
</event>
<event>
 7    1  0.4994895E-011  0.5052886E+02  0.7816164E-02  0.1300439E+00
        -11   -1    0    0    0    0  0.00000000000E+00  0.00000000000E+00  0.45593999997E+02  0.45594000000E+02  0.51100000000E-03 0. -1.
         11   -1    0    0    0    0 -0.00000000000E+00 -0.00000000000E+00 -0.45593999997E+02  0.45594000000E+02  0.51100000000E-03 0.  1.
    9900012    2    1    2    0    0 -0.18121078440E+02  0.18192075865E+02  0.31525235169E+02  0.50528861291E+02  0.30000004380E+02 0.  0.
        -12    1    1    2    0    0  0.18121078440E+02 -0.18192075865E+02 -0.31525235169E+02  0.40659138709E+02  0.00000000000E+00 0.  1.
         11    1    3    3    0    0 -0.99254629212E+01  0.92354185295E+01  0.20238537505E+02  0.24359929602E+02  0.51100000000E-03 0. -1.
        -11    1    3    3    0    0 -0.84906830847E+01 -0.45331277802E+01  0.21172667479E+01  0.98551390380E+01  0.51100000000E-03 0.  1.
         12    1    3    3    0    0  0.29506756575E+00  0.13489785115E+02  0.91694309165E+01  0.16313792651E+02  0.00000000000E+00 0. -1.
</event>
<event>
 7    1  0.4994895E-011  0.5052886E+02  0.7816164E-02  0.1300439E+00
        -11   -1    0    0    0    0  0.00000000000E+00  0.00000000000E+00  0.45593999997E+02  0.45594000000E+02  0.51100000000E-03 0.  1.
         11   -1    0    0    0    0 -0.00000000000E+00 -0.00000000000E+00 -0.45593999997E+02  0.45594000000E+02  0.51100000000E-03 0. -1.
    9900012    2    1    2    0    0  0.52613835143E+00 -0.21423316138E+02 -0.34553297836E+02  0.50528859733E+02  0.29999999644E+02 0.  0.
        -12    1    1    2    0    0 -0.52613835143E+00  0.21423316138E+02  0.34553297836E+02  0.40659140267E+02  0.00000000000E+00 0.  1.
         11    1    3    3    0    0  0.66864332185E+01 -0.10842368088E+02 -0.40663931910E+01  0.13371644954E+02  0.51100000000E-03 0. -1.
        -11    1    3    3    0    0 -0.12369771305E+01 -0.58064701363E+01 -0.29661208157E+02  0.30249503756E+02  0.51100000000E-03 0.  1.
        -12    1    3    3    0    0 -0.49233177365E+01 -0.47744779141E+01 -0.82569648759E+00  0.69077110229E+01  0.00000000000E+00 0.  1.
</event>
<event>
 7    1  0.4994895E-011  0.5052885E+02  0.7816164E-02  0.1300439E+00
        -11   -1    0    0    0    0  0.00000000000E+00  0.00000000000E+00  0.45593999997E+02  0.45594000000E+02  0.51100000000E-03 0. -1.
         11   -1    0    0    0    0 -0.00000000000E+00 -0.00000000000E+00 -0.45593999997E+02  0.45594000000E+02  0.51100000000E-03 0.  1.
    9900012    2    1    2    0    0  0.13565498937E+02  0.25516726289E+02  0.28601400154E+02  0.50528853763E+02  0.29999981499E+02 0.  0.
        -12    1    1    2    0    0 -0.13565498937E+02 -0.25516726289E+02 -0.28601400154E+02  0.40659146237E+02  0.00000000000E+00 0.  1.
         11    1    3    3    0    0  0.15383833727E+02  0.28932036111E+02  0.20002182575E+02  0.38390263892E+02  0.51100000000E-03 0. -1.
        -11    1    3    3    0    0  0.15700836491E+01 -0.35270782854E+01  0.12717451737E+01  0.40648222525E+01  0.51100000000E-03 0.  1.
         12    1    3    3    0    0 -0.33884184395E+01  0.11176846356E+00  0.73274724050E+01  0.80737676184E+01  0.00000000000E+00 0. -1.
</event>
<event>
 7    1  0.4994895E-011  0.5052886E+02  0.7816164E-02  0.1300439E+00
        -11   -1    0    0    0    0  0.00000000000E+00  0.00000000000E+00  0.45593999997E+02  0.45594000000E+02  0.51100000000E-03 0.  1.
         11   -1    0    0    0    0 -0.00000000000E+00 -0.00000000000E+00 -0.45593999997E+02  0.45594000000E+02  0.51100000000E-03 0. -1.
    9900012    2    1    2    0    0  0.16030806189E+02  0.20583755306E+02 -0.31184739694E+02  0.50528859339E+02  0.29999998446E+02 0.  0.
        -12    1    1    2    0    0 -0.16030806189E+02 -0.20583755306E+02  0.31184739694E+02  0.40659140661E+02  0.00000000000E+00 0.  1.
         11    1    3    3    0    0  0.54814853091E+01 -0.49738862419E+01  0.44061046677E+00  0.74148744686E+01  0.51100000000E-03 0. -1.
        -11    1    3    3    0    0  0.75982942831E+00 -0.73920230834E+00 -0.39939725022E+00  0.11328191548E+01  0.51100000000E-03 0.  1.
         12    1    3    3    0    0  0.97894914516E+01  0.26296843856E+02 -0.31225952910E+02  0.41981165715E+02  0.00000000000E+00 0. -1.
</event>
<event>
 7    1  0.4994895E-011  0.5052886E+02  0.7816164E-02  0.1300439E+00
        -11   -1    0    0    0    0  0.00000000000E+00  0.00000000000E+00  0.45593999997E+02  0.45594000000E+02  0.51100000000E-03 0.  1.
         11   -1    0    0    0    0 -0.00000000000E+00 -0.00000000000E+00 -0.45593999997E+02  0.45594000000E+02  0.51100000000E-03 0. -1.
    9900012    2    1    2    0    0  0.36134747423E+01 -0.36480720357E+02 -0.17585953368E+02  0.50528856952E+02  0.29999991193E+02 0.  0.
        -12    1    1    2    0    0 -0.36134747423E+01  0.36480720357E+02  0.17585953368E+02  0.40659143048E+02  0.00000000000E+00 0.  1.
         11    1    3    3    0    0  0.12305370757E+02 -0.18378315881E+02 -0.12685957272E+02  0.25497414698E+02  0.51100000000E-03 0. -1.
        -11    1    3    3    0    0 -0.55867527148E+01 -0.32265517994E+01 -0.71936237473E+01  0.96628497499E+01  0.51100000000E-03 0.  1.
         12    1    3    3    0    0 -0.31051433002E+01 -0.14875852677E+02  0.22936276511E+01  0.15368592505E+02  0.00000000000E+00 0. -1.
</event>
<event>
 7    1  0.4994895E-011  0.5052886E+02  0.7816164E-02  0.1300439E+00
        -11   -1    0    0    0    0  0.00000000000E+00  0.00000000000E+00  0.45593999997E+02  0.45594000000E+02  0.51100000000E-03 0.  1.
         11   -1    0    0    0    0 -0.00000000000E+00 -0.00000000000E+00 -0.45593999997E+02  0.45594000000E+02  0.51100000000E-03 0. -1.
    9900012    2    1    2    0    0  0.36402725540E+02 -0.21029148734E+01 -0.17988473595E+02  0.50528857609E+02  0.29999993188E+02 0.  0.
        -12    1    1    2    0    0 -0.36402725540E+02  0.21029148734E+01  0.17988473595E+02  0.40659142391E+02  0.00000000000E+00 0.  1.
         11    1    3    3    0    0  0.16991624774E+02 -0.13776818142E+02 -0.10632588445E+01  0.21900834464E+02  0.51100000000E-03 0. -1.
        -11    1    3    3    0    0  0.16603522831E+02  0.91329071112E+01 -0.15814773049E+02  0.24681855877E+02  0.51100000000E-03 0.  1.
         12    1    3    3    0    0  0.28075779352E+01  0.25409961572E+01 -0.11104417017E+01  0.39461672679E+01  0.00000000000E+00 0. -1.
</event>
<event>
 7    1  0.4994895E-011  0.5052886E+02  0.7816164E-02  0.1300439E+00
        -11   -1    0    0    0    0  0.00000000000E+00  0.00000000000E+00  0.45593999997E+02  0.45594000000E+02  0.51100000000E-03 0.  1.
         11   -1    0    0    0    0 -0.00000000000E+00 -0.00000000000E+00 -0.45593999997E+02  0.45594000000E+02  0.51100000000E-03 0. -1.
    9900012    2    1    2    0    0  0.22127937759E+02 -0.11143205711E+02 -0.32238938926E+02  0.50528857780E+02  0.29999993710E+02 0.  0.
        -12    1    1    2    0    0 -0.22127937759E+02  0.11143205711E+02  0.32238938926E+02  0.40659142220E+02  0.00000000000E+00 0.  1.
         11    1    3    3    0    0  0.21203940005E+02 -0.93353082023E+01 -0.82930989100E+01  0.24607530163E+02  0.51100000000E-03 0. -1.
        -11    1    3    3    0    0  0.27997108456E+01 -0.50092625268E+01 -0.18185385935E+02  0.19069330186E+02  0.51100000000E-03 0.  1.
        -12    1    3    3    0    0 -0.18757130915E+01  0.32013650178E+01 -0.57604540810E+01  0.68519974313E+01  0.00000000000E+00 0.  1.
</event>
<event>
 7    1  0.4994895E-011  0.5052886E+02  0.7816164E-02  0.1300439E+00
        -11   -1    0    0    0    0  0.00000000000E+00  0.00000000000E+00  0.45593999997E+02  0.45594000000E+02  0.51100000000E-03 0.  1.
         11   -1    0    0    0    0 -0.00000000000E+00 -0.00000000000E+00 -0.45593999997E+02  0.45594000000E+02  0.51100000000E-03 0. -1.
    9900012    2    1    2    0    0 -0.20653591869E+02  0.25428406387E+02 -0.24083004891E+02  0.50528857940E+02  0.29999994195E+02 0.  0.
        -12    1    1    2    0    0  0.20653591869E+02 -0.25428406387E+02  0.24083004891E+02  0.40659142060E+02  0.00000000000E+00 0.  1.
         11    1    3    3    0    0 -0.23255700507E+02  0.21624213460E+02 -0.10789489709E+02  0.33538743302E+02  0.51100000000E-03 0. -1.
        -11    1    3    3    0    0  0.61933667797E+01  0.17335110057E+01 -0.82991646663E+01  0.10499475553E+02  0.51100000000E-03 0.  1.
         12    1    3    3    0    0 -0.35912581416E+01  0.20706819210E+01 -0.49943505160E+01  0.64906390852E+01  0.00000000000E+00 0. -1.
</event>
<event>
 7    1  0.4994895E-011  0.5052886E+02  0.7816164E-02  0.1300439E+00
        -11   -1    0    0    0    0  0.00000000000E+00  0.00000000000E+00  0.45593999997E+02  0.45594000000E+02  0.51100000000E-03 0.  1.
         11   -1    0    0    0    0 -0.00000000000E+00 -0.00000000000E+00 -0.45593999997E+02  0.45594000000E+02  0.51100000000E-03 0. -1.
    9900012    2    1    2    0    0 -0.17219869014E+02  0.14741810986E+02 -0.33753822534E+02  0.50528863073E+02  0.30000009796E+02 0.  0.
        -12    1    1    2    0    0  0.17219869014E+02 -0.14741810986E+02  0.33753822534E+02  0.40659136927E+02  0.00000000000E+00 0.  1.
         11    1    3    3    0    0 -0.71229759286E+01 -0.41495756622E+01 -0.17852394377E+02  0.19663767429E+02  0.51100000000E-03 0. -1.
        -11    1    3    3    0    0 -0.83844422923E+01  0.77397216086E+01 -0.52772086393E-01  0.11410738288E+02  0.51100000000E-03 0.  1.
         12    1    3    3    0    0 -0.17124507934E+01  0.11151665040E+02 -0.15848656071E+02  0.19454357356E+02  0.00000000000E+00 0. -1.
</event>
<event>
 7    1  0.4994895E-011  0.5052879E+02  0.7816164E-02  0.1300439E+00
        -11   -1    0    0    0    0  0.00000000000E+00  0.00000000000E+00  0.45593999997E+02  0.45594000000E+02  0.51100000000E-03 0.  1.
         11   -1    0    0    0    0 -0.00000000000E+00 -0.00000000000E+00 -0.45593999997E+02  0.45594000000E+02  0.51100000000E-03 0. -1.
    9900012    2    1    2    0    0  0.21336539034E+02  0.34446576720E+02  0.33700413800E+01  0.50528785490E+02  0.29999773974E+02 0.  0.
        -12    1    1    2    0    0 -0.21336539034E+02 -0.34446576720E+02 -0.33700413800E+01  0.40659214510E+02  0.00000000000E+00 0.  1.
         11    1    3    3    0    0 -0.17299361265E+01  0.53997754401E+01 -0.16835809571E+01  0.59147864633E+01  0.51100000000E-03 0. -1.
        -11    1    3    3    0    0  0.25598678507E+02  0.24076817542E+02 -0.24919311498E+01  0.35230600412E+02  0.51100000000E-03 0.  1.
        -12    1    3    3    0    0 -0.25322033465E+01  0.49699837378E+01  0.75455534869E+01  0.93833986149E+01  0.00000000000E+00 0.  1.
</event>
<event>
 7    1  0.4994895E-011  0.5052887E+02  0.7816164E-02  0.1300439E+00
        -11   -1    0    0    0    0  0.00000000000E+00  0.00000000000E+00  0.45593999997E+02  0.45594000000E+02  0.51100000000E-03 0. -1.
         11   -1    0    0    0    0 -0.00000000000E+00 -0.00000000000E+00 -0.45593999997E+02  0.45594000000E+02  0.51100000000E-03 0.  1.
    9900012    2    1    2    0    0 -0.70346140732E+01  0.37632420912E+02  0.13692341851E+02  0.50528866657E+02  0.30000020690E+02 0.  0.
        -12    1    1    2    0    0  0.70346140732E+01 -0.37632420912E+02 -0.13692341851E+02  0.40659133343E+02  0.00000000000E+00 0.  1.
         11    1    3    3    0    0 -0.16230377035E+02  0.26745757455E+02  0.15037381250E+02  0.34711432060E+02  0.51100000000E-03 0. -1.
        -11    1    3    3    0    0  0.40369463861E+01  0.92467416553E+01 -0.22281884086E+01  0.10332666220E+02  0.51100000000E-03 0.  1.
         12    1    3    3    0    0  0.51588165758E+01  0.16399218016E+01  0.88314900964E+00  0.54847683772E+01  0.00000000000E+00 0. -1.
</event>
<event>
 7    1  0.4994895E-011  0.5052886E+02  0.7816164E-02  0.1300439E+00
        -11   -1    0    0    0    0  0.00000000000E+00  0.00000000000E+00  0.45593999997E+02  0.45594000000E+02  0.51100000000E-03 0.  1.
         11   -1    0    0    0    0 -0.00000000000E+00 -0.00000000000E+00 -0.45593999997E+02  0.45594000000E+02  0.51100000000E-03 0. -1.
    9900012    2    1    2    0    0 -0.27943652897E+02  0.27058751243E+02 -0.11838168962E+02  0.50528855881E+02  0.29999987937E+02 0.  0.
        -12    1    1    2    0    0  0.27943652897E+02 -0.27058751243E+02  0.11838168962E+02  0.40659144119E+02  0.00000000000E+00 0.  1.
         11    1    3    3    0    0 -0.64642783589E+01  0.17186681358E+02 -0.14347241549E+02  0.23302623267E+02  0.51100000000E-03 0. -1.
        -11    1    3    3    0    0 -0.12531710250E+02  0.92374311560E+01  0.71441911058E+01  0.17129312974E+02  0.51100000000E-03 0.  1.
         12    1    3    3    0    0 -0.89476642887E+01  0.63463872920E+00 -0.46351185188E+01  0.10096919640E+02  0.00000000000E+00 0. -1.
</event>
<event>
 7    1  0.4994895E-011  0.5052886E+02  0.7816164E-02  0.1300439E+00
        -11   -1    0    0    0    0  0.00000000000E+00  0.00000000000E+00  0.45593999997E+02  0.45594000000E+02  0.51100000000E-03 0. -1.
         11   -1    0    0    0    0 -0.00000000000E+00 -0.00000000000E+00 -0.45593999997E+02  0.45594000000E+02  0.51100000000E-03 0.  1.
    9900012    2    1    2    0    0 -0.20831470225E+02  0.29716630322E+02 -0.18334041611E+02  0.50528863865E+02  0.30000012205E+02 0.  0.
        -12    1    1    2    0    0  0.20831470225E+02 -0.29716630322E+02  0.18334041611E+02  0.40659136135E+02  0.00000000000E+00 0.  1.
         11    1    3    3    0    0 -0.18747239363E+02  0.11633204713E+02  0.18491617300E+01  0.22140682803E+02  0.51100000000E-03 0. -1.
        -11    1    3    3    0    0  0.15358755787E+01  0.13565347305E+01 -0.53910015992E+01  0.57673216290E+01  0.51100000000E-03 0.  1.
         12    1    3    3    0    0 -0.36201064404E+01  0.16726890879E+02 -0.14792201742E+02  0.22620859433E+02  0.00000000000E+00 0. -1.
</event>
<event>
 7    1  0.4994895E-011  0.5052886E+02  0.7816164E-02  0.1300439E+00
        -11   -1    0    0    0    0  0.00000000000E+00  0.00000000000E+00  0.45593999997E+02  0.45594000000E+02  0.51100000000E-03 0.  1.
         11   -1    0    0    0    0 -0.00000000000E+00 -0.00000000000E+00 -0.45593999997E+02  0.45594000000E+02  0.51100000000E-03 0. -1.
    9900012    2    1    2    0    0 -0.21436427921E+02  0.27103942867E+01 -0.34442695126E+02  0.50528856788E+02  0.29999990693E+02 0.  0.
        -12    1    1    2    0    0  0.21436427921E+02 -0.27103942867E+01  0.34442695126E+02  0.40659143212E+02  0.00000000000E+00 0.  1.
         11    1    3    3    0    0 -0.59808868109E+01 -0.12701703611E+02 -0.93967262205E+01  0.16893867100E+02  0.51100000000E-03 0. -1.
        -11    1    3    3    0    0 -0.11824138262E+02  0.11342716687E+02 -0.21858537731E+02  0.27317817254E+02  0.51100000000E-03 0.  1.
         12    1    3    3    0    0 -0.36314028481E+01  0.40693812103E+01 -0.31874311740E+01  0.63171724347E+01  0.00000000000E+00 0. -1.
</event>
<event>
 7    1  0.4994895E-011  0.5052886E+02  0.7816164E-02  0.1300439E+00
        -11   -1    0    0    0    0  0.00000000000E+00  0.00000000000E+00  0.45593999997E+02  0.45594000000E+02  0.51100000000E-03 0.  1.
         11   -1    0    0    0    0 -0.00000000000E+00 -0.00000000000E+00 -0.45593999997E+02  0.45594000000E+02  0.51100000000E-03 0. -1.
    9900012    2    1    2    0    0 -0.92451351372E+01 -0.12544415407E+02  0.37554374455E+02  0.50528856843E+02  0.29999990860E+02 0.  0.
        -12    1    1    2    0    0  0.92451351372E+01  0.12544415407E+02 -0.37554374455E+02  0.40659143157E+02  0.00000000000E+00 0.  1.
         11    1    3    3    0    0 -0.44932645593E+01 -0.16067436404E+02  0.39563324417E+02  0.42937263282E+02  0.51100000000E-03 0. -1.
        -11    1    3    3    0    0 -0.33570502410E+01  0.40666327855E+01 -0.24627954399E+00  0.52790096048E+01  0.51100000000E-03 0.  1.
         12    1    3    3    0    0 -0.13948203369E+01 -0.54361178764E+00 -0.17626704183E+01  0.23125839555E+01  0.00000000000E+00 0. -1.
</event>
<event>
 7    1  0.4994895E-011  0.5052885E+02  0.7816164E-02  0.1300439E+00
        -11   -1    0    0    0    0  0.00000000000E+00  0.00000000000E+00  0.45593999997E+02  0.45594000000E+02  0.51100000000E-03 0. -1.
         11   -1    0    0    0    0 -0.00000000000E+00 -0.00000000000E+00 -0.45593999997E+02  0.45594000000E+02  0.51100000000E-03 0.  1.
    9900012    2    1    2    0    0  0.34810566716E+01  0.16097349128E+01  0.40477860243E+02  0.50528853773E+02  0.29999981528E+02 0.  0.
        -12    1    1    2    0    0 -0.34810566716E+01 -0.16097349128E+01 -0.40477860243E+02  0.40659146227E+02  0.00000000000E+00 0.  1.
         11    1    3    3    0    0  0.44082044457E+01 -0.97632772716E+01  0.36076566706E+02  0.37633396273E+02  0.51100000000E-03 0. -1.
        -11    1    3    3    0    0  0.92601359315E+00  0.51215942236E+00  0.71583169435E+00  0.12775851143E+01  0.51100000000E-03 0.  1.
         12    1    3    3    0    0 -0.18531613673E+01  0.10860852762E+02  0.36854618431E+01  0.11617872386E+02  0.00000000000E+00 0. -1.
</event>
<event>
 7    1  0.4994895E-011  0.5052881E+02  0.7816164E-02  0.1300439E+00
        -11   -1    0    0    0    0  0.00000000000E+00  0.00000000000E+00  0.45593999997E+02  0.45594000000E+02  0.51100000000E-03 0.  1.
         11   -1    0    0    0    0 -0.00000000000E+00 -0.00000000000E+00 -0.45593999997E+02  0.45594000000E+02  0.51100000000E-03 0. -1.
    9900012    2    1    2    0    0  0.10009807427E+02 -0.29679057776E+02  0.25925417852E+02  0.50528806624E+02  0.29999838212E+02 0.  0.
        -12    1    1    2    0    0 -0.10009807427E+02  0.29679057776E+02 -0.25925417852E+02  0.40659193376E+02  0.00000000000E+00 0.  1.
         11    1    3    3    0    0  0.17221617238E+01 -0.11537006712E+02  0.61899089793E+01  0.13205428365E+02  0.51100000000E-03 0. -1.
        -11    1    3    3    0    0  0.11516649544E+02  0.14057901747E+01  0.96531326464E+01  0.15092794072E+02  0.51100000000E-03 0.  1.
        -12    1    3    3    0    0 -0.32290038408E+01 -0.19547841239E+02  0.10082376227E+02  0.22230584187E+02  0.00000000000E+00 0.  1.
</event>
<event>
 7    1  0.6867466E-011  0.5052878E+02  0.7816164E-02  0.1300439E+00
        -11   -1    0    0    0    0  0.00000000000E+00  0.00000000000E+00  0.45593999997E+02  0.45594000000E+02  0.51100000000E-03 0. -1.
         11   -1    0    0    0    0 -0.00000000000E+00 -0.00000000000E+00 -0.45593999997E+02  0.45594000000E+02  0.51100000000E-03 0.  1.
    9900012    2    1    2    0    0  0.31558466314E+02 -0.14930936837E+01  0.25593092842E+02  0.50528775633E+02  0.29999744013E+02 0.  0.
        -12    1    1    2    0    0 -0.31558466314E+02  0.14930936837E+01 -0.25593092842E+02  0.40659224367E+02  0.00000000000E+00 0.  1.
         11    1    3    3    0    0  0.18601979400E+02  0.42141111568E+01  0.23624541084E+02  0.30362992476E+02  0.51100000000E-03 0. -1.
        -11    1    3    3    0    0  0.11766166168E+02 -0.94050268683E+01  0.42622073331E+01  0.15654507603E+02  0.51100000000E-03 0.  1.
        -12    1    3    3    0    0  0.11903207461E+01  0.36978220278E+01 -0.22936555741E+01  0.45112755536E+01  0.00000000000E+00 0.  1.
</event>
<event>
 7    1  0.4994895E-011  0.5052886E+02  0.7816164E-02  0.1300439E+00
        -11   -1    0    0    0    0  0.00000000000E+00  0.00000000000E+00  0.45593999997E+02  0.45594000000E+02  0.51100000000E-03 0.  1.
         11   -1    0    0    0    0 -0.00000000000E+00 -0.00000000000E+00 -0.45593999997E+02  0.45594000000E+02  0.51100000000E-03 0. -1.
    9900012    2    1    2    0    0 -0.48211367108E+01  0.17995952900E+02 -0.36139566841E+02  0.50528856238E+02  0.29999989022E+02 0.  0.
        -12    1    1    2    0    0  0.48211367108E+01 -0.17995952900E+02  0.36139566841E+02  0.40659143762E+02  0.00000000000E+00 0.  1.
         11    1    3    3    0    0  0.35569329409E+01  0.15455772095E+02 -0.27550033567E+02  0.31788944820E+02  0.51100000000E-03 0. -1.
        -11    1    3    3    0    0 -0.11686567496E+02  0.53799059988E+00 -0.32406294529E+01  0.12139479940E+02  0.51100000000E-03 0.  1.
        -12    1    3    3    0    0  0.33084978438E+01  0.20021902057E+01 -0.53489038215E+01  0.66004314779E+01  0.00000000000E+00 0.  1.
</event>
<event>
 7    1  0.4994895E-011  0.5052886E+02  0.7816164E-02  0.1300439E+00
        -11   -1    0    0    0    0  0.00000000000E+00  0.00000000000E+00  0.45593999997E+02  0.45594000000E+02  0.51100000000E-03 0.  1.
         11   -1    0    0    0    0 -0.00000000000E+00 -0.00000000000E+00 -0.45593999997E+02  0.45594000000E+02  0.51100000000E-03 0. -1.
    9900012    2    1    2    0    0  0.16248847185E+02  0.31259819483E+02 -0.20296897578E+02  0.50528863262E+02  0.30000010372E+02 0.  0.
        -12    1    1    2    0    0 -0.16248847185E+02 -0.31259819483E+02  0.20296897578E+02  0.40659136738E+02  0.00000000000E+00 0.  1.
         11    1    3    3    0    0  0.96132838162E+01  0.53958498027E+01  0.46710067500E+00  0.11033974992E+02  0.51100000000E-03 0. -1.
        -11    1    3    3    0    0  0.13102407922E+02  0.23068817992E+02 -0.15830091184E+02  0.30893935393E+02  0.51100000000E-03 0.  1.
        -12    1    3    3    0    0 -0.64668445531E+01  0.27951516883E+01 -0.49339070695E+01  0.86009528777E+01  0.00000000000E+00 0.  1.
</event>
<event>
 7    1  0.4994895E-011  0.5052885E+02  0.7816164E-02  0.1300439E+00
        -11   -1    0    0    0    0  0.00000000000E+00  0.00000000000E+00  0.45593999997E+02  0.45594000000E+02  0.51100000000E-03 0.  1.
         11   -1    0    0    0    0 -0.00000000000E+00 -0.00000000000E+00 -0.45593999997E+02  0.45594000000E+02  0.51100000000E-03 0. -1.
    9900012    2    1    2    0    0 -0.40318743093E+02 -0.36451631800E+01  0.37786960981E+01  0.50528846008E+02  0.29999957925E+02 0.  0.
        -12    1    1    2    0    0  0.40318743093E+02  0.36451631800E+01 -0.37786960981E+01  0.40659153992E+02  0.00000000000E+00 0.  1.
         11    1    3    3    0    0 -0.38995394646E+02  0.27010164706E+01 -0.18264164164E+01  0.39131471871E+02  0.51100000000E-03 0. -1.
        -11    1    3    3    0    0  0.97174819514E+00  0.14221716505E+01  0.39815023533E+00  0.17678774362E+01  0.51100000000E-03 0.  1.
         12    1    3    3    0    0 -0.22950966418E+01 -0.77683513012E+01  0.52069622792E+01  0.96294967008E+01  0.00000000000E+00 0. -1.
</event>
<event>
 7    1  0.4994895E-011  0.5052885E+02  0.7816164E-02  0.1300439E+00
        -11   -1    0    0    0    0  0.00000000000E+00  0.00000000000E+00  0.45593999997E+02  0.45594000000E+02  0.51100000000E-03 0.  1.
         11   -1    0    0    0    0 -0.00000000000E+00 -0.00000000000E+00 -0.45593999997E+02  0.45594000000E+02  0.51100000000E-03 0. -1.
    9900012    2    1    2    0    0 -0.64372917258E+01  0.34553254770E+01 -0.39997351517E+02  0.50528854322E+02  0.29999983196E+02 0.  0.
        -12    1    1    2    0    0  0.64372917258E+01 -0.34553254770E+01  0.39997351517E+02  0.40659145678E+02  0.00000000000E+00 0.  1.
         11    1    3    3    0    0 -0.41636947203E+01  0.61972961141E+01 -0.43055837993E+02  0.43698375467E+02  0.51100000000E-03 0. -1.
        -11    1    3    3    0    0 -0.20077353702E+01  0.66898819293E+00 -0.17431925353E+00  0.21234250593E+01  0.51100000000E-03 0.  1.
         12    1    3    3    0    0 -0.26586163535E+00 -0.34109588300E+01  0.32328057299E+01  0.47070537958E+01  0.00000000000E+00 0. -1.
</event>
<event>
 7    1  0.4994895E-011  0.5052885E+02  0.7816164E-02  0.1300439E+00
        -11   -1    0    0    0    0  0.00000000000E+00  0.00000000000E+00  0.45593999997E+02  0.45594000000E+02  0.51100000000E-03 0. -1.
         11   -1    0    0    0    0 -0.00000000000E+00 -0.00000000000E+00 -0.45593999997E+02  0.45594000000E+02  0.51100000000E-03 0.  1.
    9900012    2    1    2    0    0 -0.31193238329E+02  0.12617038576E+02  0.22824522427E+02  0.50528848461E+02  0.29999965381E+02 0.  0.
        -12    1    1    2    0    0  0.31193238329E+02 -0.12617038576E+02 -0.22824522427E+02  0.40659151539E+02  0.00000000000E+00 0.  1.
         11    1    3    3    0    0 -0.30502895538E+01  0.52535646671E+01  0.18867231073E+02  0.19821115425E+02  0.51100000000E-03 0. -1.
        -11    1    3    3    0    0 -0.24081794010E+01 -0.15247174763E+01 -0.10254135929E+01  0.30291194607E+01  0.51100000000E-03 0.  1.
         12    1    3    3    0    0 -0.25734769374E+02  0.88881913851E+01  0.49827049473E+01  0.27678613575E+02  0.00000000000E+00 0. -1.
</event>
<event>
 7    1  0.4994895E-011  0.5052886E+02  0.7816164E-02  0.1300439E+00
        -11   -1    0    0    0    0  0.00000000000E+00  0.00000000000E+00  0.45593999997E+02  0.45594000000E+02  0.51100000000E-03 0.  1.
         11   -1    0    0    0    0 -0.00000000000E+00 -0.00000000000E+00 -0.45593999997E+02  0.45594000000E+02  0.51100000000E-03 0. -1.
    9900012    2    1    2    0    0 -0.32762470502E+02 -0.18809374523E+02 -0.15033086334E+02  0.50528859231E+02  0.29999998118E+02 0.  0.
        -12    1    1    2    0    0  0.32762470502E+02  0.18809374523E+02  0.15033086334E+02  0.40659140769E+02  0.00000000000E+00 0.  1.
         11    1    3    3    0    0 -0.33141831949E+02 -0.21684829956E+02 -0.15060041379E+02  0.42372369792E+02  0.51100000000E-03 0. -1.
        -11    1    3    3    0    0  0.28074875059E+01  0.84438604855E+00 -0.26945067090E+01  0.39818765125E+01  0.51100000000E-03 0.  1.
        -12    1    3    3    0    0 -0.24281260591E+01  0.20310693847E+01  0.27214617547E+01  0.41746129266E+01  0.00000000000E+00 0.  1.
</event>
<event>
 7    1  0.4994895E-011  0.5052886E+02  0.7816164E-02  0.1300439E+00
        -11   -1    0    0    0    0  0.00000000000E+00  0.00000000000E+00  0.45593999997E+02  0.45594000000E+02  0.51100000000E-03 0.  1.
         11   -1    0    0    0    0 -0.00000000000E+00 -0.00000000000E+00 -0.45593999997E+02  0.45594000000E+02  0.51100000000E-03 0. -1.
    9900012    2    1    2    0    0 -0.13745771648E+02 -0.24119848253E+02 -0.29706100739E+02  0.50528859096E+02  0.29999997708E+02 0.  0.
        -12    1    1    2    0    0  0.13745771648E+02  0.24119848253E+02  0.29706100739E+02  0.40659140904E+02  0.00000000000E+00 0.  1.
         11    1    3    3    0    0  0.75601454665E+01 -0.96023513770E+01 -0.68525581423E+01  0.14011370554E+02  0.51100000000E-03 0. -1.
        -11    1    3    3    0    0 -0.19826010806E+02 -0.89297490643E+01 -0.13727721391E+02  0.25715004524E+02  0.51100000000E-03 0.  1.
         12    1    3    3    0    0 -0.14799063086E+01 -0.55877478117E+01 -0.91258212053E+01  0.10802484018E+02  0.00000000000E+00 0. -1.
</event>
<event>
 7    1  0.5090397E-011  0.5052887E+02  0.7816164E-02  0.1300439E+00
        -11   -1    0    0    0    0  0.00000000000E+00  0.00000000000E+00  0.45593999997E+02  0.45594000000E+02  0.51100000000E-03 0.  1.
         11   -1    0    0    0    0 -0.00000000000E+00 -0.00000000000E+00 -0.45593999997E+02  0.45594000000E+02  0.51100000000E-03 0. -1.
    9900012    2    1    2    0    0 -0.30030097929E+02  0.25972571766E+02 -0.87626331723E+01  0.50528868112E+02  0.30000025113E+02 0.  0.
        -12    1    1    2    0    0  0.30030097929E+02 -0.25972571766E+02  0.87626331723E+01  0.40659131888E+02  0.00000000000E+00 0.  1.
         11    1    3    3    0    0 -0.12222864197E+02  0.22325241255E+02  0.21362191594E+01  0.25541696083E+02  0.51100000000E-03 0. -1.
        -11    1    3    3    0    0  0.94841796659E+00 -0.25107733602E+01 -0.19224301994E+01  0.33013963165E+01  0.51100000000E-03 0.  1.
         12    1    3    3    0    0 -0.18755651699E+02  0.61581038712E+01 -0.89764221322E+01  0.21685775712E+02  0.00000000000E+00 0. -1.
</event>
<event>
 7    1  0.4994895E-011  0.5052886E+02  0.7816164E-02  0.1300439E+00
        -11   -1    0    0    0    0  0.00000000000E+00  0.00000000000E+00  0.45593999997E+02  0.45594000000E+02  0.51100000000E-03 0.  1.
         11   -1    0    0    0    0 -0.00000000000E+00 -0.00000000000E+00 -0.45593999997E+02  0.45594000000E+02  0.51100000000E-03 0. -1.
    9900012    2    1    2    0    0  0.18229441265E+02  0.36298504508E+02  0.18087326484E+01  0.50528862379E+02  0.30000007686E+02 0.  0.
        -12    1    1    2    0    0 -0.18229441265E+02 -0.36298504508E+02 -0.18087326484E+01  0.40659137621E+02  0.00000000000E+00 0.  1.
         11    1    3    3    0    0  0.11404344360E+02  0.35500165158E+02  0.25325502564E+01  0.37372912753E+02  0.51100000000E-03 0. -1.
        -11    1    3    3    0    0  0.56641041809E+00 -0.35224337048E+01 -0.35590599756E+01  0.50393717999E+01  0.51100000000E-03 0.  1.
         12    1    3    3    0    0  0.62586864867E+01  0.43207730541E+01  0.28352423676E+01  0.81165778261E+01  0.00000000000E+00 0. -1.
</event>
<event>
 7    1  0.4994895E-011  0.5052886E+02  0.7816164E-02  0.1300439E+00
        -11   -1    0    0    0    0  0.00000000000E+00  0.00000000000E+00  0.45593999997E+02  0.45594000000E+02  0.51100000000E-03 0.  1.
         11   -1    0    0    0    0 -0.00000000000E+00 -0.00000000000E+00 -0.45593999997E+02  0.45594000000E+02  0.51100000000E-03 0. -1.
    9900012    2    1    2    0    0  0.13629725508E+02  0.33181976031E+02  0.19140334180E+02  0.50528863963E+02  0.30000012501E+02 0.  0.
        -12    1    1    2    0    0 -0.13629725508E+02 -0.33181976031E+02 -0.19140334180E+02  0.40659136037E+02  0.00000000000E+00 0.  1.
         11    1    3    3    0    0  0.67577666085E+00 -0.22862296439E+01 -0.40630114743E+01  0.47107942622E+01  0.51100000000E-03 0. -1.
        -11    1    3    3    0    0  0.28783123209E+01  0.21034949283E+02  0.16848097657E+02  0.27103729782E+02  0.51100000000E-03 0.  1.
         12    1    3    3    0    0  0.10075636526E+02  0.14433256392E+02  0.63552479972E+01  0.18714339919E+02  0.00000000000E+00 0. -1.
</event>
<event>
 7    1  0.4994895E-011  0.5052887E+02  0.7816164E-02  0.1300439E+00
        -11   -1    0    0    0    0  0.00000000000E+00  0.00000000000E+00  0.45593999997E+02  0.45594000000E+02  0.51100000000E-03 0.  1.
         11   -1    0    0    0    0 -0.00000000000E+00 -0.00000000000E+00 -0.45593999997E+02  0.45594000000E+02  0.51100000000E-03 0. -1.
    9900012    2    1    2    0    0 -0.25029357765E+02 -0.29546647330E+02 -0.12397260852E+02  0.50528865784E+02  0.30000018037E+02 0.  0.
        -12    1    1    2    0    0  0.25029357765E+02  0.29546647330E+02  0.12397260852E+02  0.40659134216E+02  0.00000000000E+00 0.  1.
         11    1    3    3    0    0 -0.31091367429E+02 -0.22527735068E+02 -0.10815406641E+02  0.39889158890E+02  0.51100000000E-03 0. -1.
        -11    1    3    3    0    0  0.96522575567E+00  0.45411298679E+00  0.74315515097E+00  0.13000612308E+01  0.51100000000E-03 0.  1.
         12    1    3    3    0    0  0.50967839086E+01 -0.74730252488E+01 -0.23250093621E+01  0.93396456632E+01  0.00000000000E+00 0. -1.
</event>
<event>
 7    1  0.4994895E-011  0.5052886E+02  0.7816164E-02  0.1300439E+00
        -11   -1    0    0    0    0  0.00000000000E+00  0.00000000000E+00  0.45593999997E+02  0.45594000000E+02  0.51100000000E-03 0. -1.
         11   -1    0    0    0    0 -0.00000000000E+00 -0.00000000000E+00 -0.45593999997E+02  0.45594000000E+02  0.51100000000E-03 0.  1.
    9900012    2    1    2    0    0  0.38919408294E+01  0.36702698801E+02  0.17056688547E+02  0.50528856786E+02  0.29999990687E+02 0.  0.
        -12    1    1    2    0    0 -0.38919408294E+01 -0.36702698801E+02 -0.17056688547E+02  0.40659143214E+02  0.00000000000E+00 0.  1.
         11    1    3    3    0    0  0.89500910216E+01  0.49580261625E+01 -0.11103955473E+01  0.10291702058E+02  0.51100000000E-03 0.  1.
        -11    1    3    3    0    0 -0.31554339973E+01  0.76024690947E+01  0.13137722242E+02  0.15503355960E+02  0.51100000000E-03 0. -1.
        -12    1    3    3    0    0 -0.19027161949E+01  0.24142203544E+02  0.50293618522E+01  0.24733798768E+02  0.00000000000E+00 0.  1.
</event>
<event>
 7    1  0.4994895E-011  0.5052886E+02  0.7816164E-02  0.1300439E+00
        -11   -1    0    0    0    0  0.00000000000E+00  0.00000000000E+00  0.45593999997E+02  0.45594000000E+02  0.51100000000E-03 0.  1.
         11   -1    0    0    0    0 -0.00000000000E+00 -0.00000000000E+00 -0.45593999997E+02  0.45594000000E+02  0.51100000000E-03 0. -1.
    9900012    2    1    2    0    0  0.17109665145E+02  0.32425041425E+02  0.17579589198E+02  0.50528857004E+02  0.29999991351E+02 0.  0.
        -12    1    1    2    0    0 -0.17109665145E+02 -0.32425041425E+02 -0.17579589198E+02  0.40659142996E+02  0.00000000000E+00 0.  1.
         11    1    3    3    0    0 -0.34391528353E+00  0.28369353808E+02  0.14650083787E+02  0.31930603947E+02  0.51100000000E-03 0. -1.
        -11    1    3    3    0    0  0.12375230185E+02  0.96877213514E+00  0.22681965452E+01  0.12618619473E+02  0.51100000000E-03 0.  1.
         12    1    3    3    0    0  0.50783502437E+01  0.30869154820E+01  0.66130886576E+00  0.59796335846E+01  0.00000000000E+00 0. -1.
</event>
<event>
 7    1  0.4994895E-011  0.5052886E+02  0.7816164E-02  0.1300439E+00
        -11   -1    0    0    0    0  0.00000000000E+00  0.00000000000E+00  0.45593999997E+02  0.45594000000E+02  0.51100000000E-03 0.  1.
         11   -1    0    0    0    0 -0.00000000000E+00 -0.00000000000E+00 -0.45593999997E+02  0.45594000000E+02  0.51100000000E-03 0. -1.
    9900012    2    1    2    0    0 -0.27950961688E+02  0.27095401750E+02  0.11736646503E+02  0.50528856792E+02  0.29999990704E+02 0.  0.
        -12    1    1    2    0    0  0.27950961688E+02 -0.27095401750E+02 -0.11736646503E+02  0.40659143208E+02  0.00000000000E+00 0.  1.
         11    1    3    3    0    0 -0.27120719757E+02  0.29947326423E+02  0.61248607354E+01  0.40864284153E+02  0.51100000000E-03 0. -1.
        -11    1    3    3    0    0 -0.17669937336E+00 -0.42594977184E+00 -0.17897634080E+01  0.18482178428E+01  0.51100000000E-03 0.  1.
         12    1    3    3    0    0 -0.65354255787E+00 -0.24259749010E+01  0.74015491758E+01  0.78163547960E+01  0.00000000000E+00 0. -1.
</event>
<event>
 7    1  0.4994895E-011  0.5052884E+02  0.7816164E-02  0.1300439E+00
        -11   -1    0    0    0    0  0.00000000000E+00  0.00000000000E+00  0.45593999997E+02  0.45594000000E+02  0.51100000000E-03 0.  1.
         11   -1    0    0    0    0 -0.00000000000E+00 -0.00000000000E+00 -0.45593999997E+02  0.45594000000E+02  0.51100000000E-03 0. -1.
    9900012    2    1    2    0    0  0.14166946348E+02 -0.21860659650E+02 -0.31218206753E+02  0.50528840613E+02  0.29999941528E+02 0.  0.
        -12    1    1    2    0    0 -0.14166946348E+02  0.21860659650E+02  0.31218206753E+02  0.40659159387E+02  0.00000000000E+00 0.  1.
         11    1    3    3    0    0 -0.70494588575E+01 -0.59496690002E+01 -0.18618839610E+02  0.20778705929E+02  0.51100000000E-03 0. -1.
        -11    1    3    3    0    0  0.17353180486E+02 -0.10820220205E+02 -0.10716117198E+02  0.23087771792E+02  0.51100000000E-03 0.  1.
         12    1    3    3    0    0  0.38632247194E+01 -0.50907704442E+01 -0.18832499445E+01  0.66623628918E+01  0.00000000000E+00 0. -1.
</event>
<event>
 7    1  0.4994895E-011  0.5052883E+02  0.7816164E-02  0.1300439E+00
        -11   -1    0    0    0    0  0.00000000000E+00  0.00000000000E+00  0.45593999997E+02  0.45594000000E+02  0.51100000000E-03 0.  1.
         11   -1    0    0    0    0 -0.00000000000E+00 -0.00000000000E+00 -0.45593999997E+02  0.45594000000E+02  0.51100000000E-03 0. -1.
    9900012    2    1    2    0    0 -0.31019287180E+02  0.81115766713E+01 -0.25003491975E+02  0.50528825584E+02  0.29999895845E+02 0.  0.
        -12    1    1    2    0    0  0.31019287180E+02 -0.81115766713E+01  0.25003491975E+02  0.40659174416E+02  0.00000000000E+00 0.  1.
         11    1    3    3    0    0 -0.99868366095E+01  0.22468911469E+01  0.25103703463E+01  0.10539800037E+02  0.51100000000E-03 0.  1.
        -11    1    3    3    0    0 -0.16601783392E+02  0.11408235998E+02 -0.25719768395E+02  0.32669152835E+02  0.51100000000E-03 0. -1.
        -12    1    3    3    0    0 -0.44306671782E+01 -0.55435504739E+01 -0.17940939265E+01  0.73198727119E+01  0.00000000000E+00 0.  1.
</event>
<event>
 7    1  0.4994895E-011  0.5052890E+02  0.7816164E-02  0.1300439E+00
        -11   -1    0    0    0    0  0.00000000000E+00  0.00000000000E+00  0.45593999997E+02  0.45594000000E+02  0.51100000000E-03 0.  1.
         11   -1    0    0    0    0 -0.00000000000E+00 -0.00000000000E+00 -0.45593999997E+02  0.45594000000E+02  0.51100000000E-03 0. -1.
    9900012    2    1    2    0    0  0.25199285108E+02  0.97467026940E+01 -0.30383546399E+02  0.50528904153E+02  0.30000134663E+02 0.  0.
        -12    1    1    2    0    0 -0.25199285108E+02 -0.97467026940E+01  0.30383546399E+02  0.40659095847E+02  0.00000000000E+00 0.  1.
         11    1    3    3    0    0  0.12259836741E+02  0.86099073679E+01 -0.32967819162E+02  0.36212031182E+02  0.51100000000E-03 0. -1.
        -11    1    3    3    0    0  0.84401112637E+01 -0.95811412386E+00 -0.43860663888E+00  0.85056355943E+01  0.51100000000E-03 0.  1.
         12    1    3    3    0    0  0.44993371031E+01  0.20949094500E+01  0.30228794019E+01  0.58112373767E+01  0.00000000000E+00 0. -1.
</event>
<event>
 7    1  0.4994895E-011  0.5052886E+02  0.7816164E-02  0.1300439E+00
        -11   -1    0    0    0    0  0.00000000000E+00  0.00000000000E+00  0.45593999997E+02  0.45594000000E+02  0.51100000000E-03 0. -1.
         11   -1    0    0    0    0 -0.00000000000E+00 -0.00000000000E+00 -0.45593999997E+02  0.45594000000E+02  0.51100000000E-03 0.  1.
    9900012    2    1    2    0    0  0.36068405884E+02  0.16213126119E+02 -0.94535823400E+01  0.50528861044E+02  0.30000003629E+02 0.  0.
        -12    1    1    2    0    0 -0.36068405884E+02 -0.16213126119E+02  0.94535823400E+01  0.40659138956E+02  0.00000000000E+00 0.  1.
         11    1    3    3    0    0  0.78893524663E+01  0.81689687052E+01  0.35613422354E+00  0.11362251709E+02  0.51100000000E-03 0. -1.
        -11    1    3    3    0    0  0.17621802549E+02  0.23013965087E+01 -0.17465475051E+02  0.24917206304E+02  0.51100000000E-03 0.  1.
        -12    1    3    3    0    0  0.10557250869E+02  0.57427609052E+01  0.76557584875E+01  0.14249403031E+02  0.00000000000E+00 0.  1.
</event>
<event>
 7    1  0.4994895E-011  0.5052886E+02  0.7816164E-02  0.1300439E+00
        -11   -1    0    0    0    0  0.00000000000E+00  0.00000000000E+00  0.45593999997E+02  0.45594000000E+02  0.51100000000E-03 0. -1.
         11   -1    0    0    0    0 -0.00000000000E+00 -0.00000000000E+00 -0.45593999997E+02  0.45594000000E+02  0.51100000000E-03 0.  1.
    9900012    2    1    2    0    0  0.35348396123E+02  0.68949316075E+01  0.18871058555E+02  0.50528855379E+02  0.29999986409E+02 0.  0.
        -12    1    1    2    0    0 -0.35348396123E+02 -0.68949316075E+01 -0.18871058555E+02  0.40659144621E+02  0.00000000000E+00 0.  1.
         11    1    3    3    0    0  0.30816051840E+02  0.12604760766E+02  0.12078474148E+02  0.35417489789E+02  0.51100000000E-03 0. -1.
        -11    1    3    3    0    0 -0.27815802634E+01 -0.46379778715E+01  0.55002723588E+00  0.54360424685E+01  0.51100000000E-03 0.  1.
        -12    1    3    3    0    0  0.73139245464E+01 -0.10718512872E+01  0.62425571717E+01  0.96753231209E+01  0.00000000000E+00 0.  1.
</event>
<event>
 7    1  0.4994895E-011  0.5052886E+02  0.7816164E-02  0.1300439E+00
        -11   -1    0    0    0    0  0.00000000000E+00  0.00000000000E+00  0.45593999997E+02  0.45594000000E+02  0.51100000000E-03 0. -1.
         11   -1    0    0    0    0 -0.00000000000E+00 -0.00000000000E+00 -0.45593999997E+02  0.45594000000E+02  0.51100000000E-03 0.  1.
    9900012    2    1    2    0    0  0.33821778760E+02  0.21711835649E+02 -0.61521456029E+01  0.50528863004E+02  0.30000009586E+02 0.  0.
        -12    1    1    2    0    0 -0.33821778760E+02 -0.21711835649E+02  0.61521456029E+01  0.40659136996E+02  0.00000000000E+00 0.  1.
         11    1    3    3    0    0  0.28798875393E+02  0.24868892182E+02 -0.11904325350E+02  0.39869160821E+02  0.51100000000E-03 0. -1.
        -11    1    3    3    0    0  0.20874991878E+01 -0.31568427106E+01 -0.43693921509E+00  0.38097539155E+01  0.51100000000E-03 0.  1.
         12    1    3    3    0    0  0.29354041797E+01 -0.21382301307E-03  0.61891189618E+01  0.68499482674E+01  0.00000000000E+00 0. -1.
</event>
<event>
 7    1  0.4994895E-011  0.5052887E+02  0.7816164E-02  0.1300439E+00
        -11   -1    0    0    0    0  0.00000000000E+00  0.00000000000E+00  0.45593999997E+02  0.45594000000E+02  0.51100000000E-03 0.  1.
         11   -1    0    0    0    0 -0.00000000000E+00 -0.00000000000E+00 -0.45593999997E+02  0.45594000000E+02  0.51100000000E-03 0. -1.
    9900012    2    1    2    0    0 -0.30385252695E+02 -0.27001882571E+02  0.89434570747E+00  0.50528866979E+02  0.30000021671E+02 0.  0.
        -12    1    1    2    0    0  0.30385252695E+02  0.27001882571E+02 -0.89434570747E+00  0.40659133021E+02  0.00000000000E+00 0.  1.
         11    1    3    3    0    0 -0.11488910501E+02 -0.25810162541E+02  0.23312827052E+01  0.28347741254E+02  0.51100000000E-03 0. -1.
        -11    1    3    3    0    0  0.77439625287E+00  0.16458844252E+01  0.11304615766E+01  0.21416275901E+01  0.51100000000E-03 0.  1.
         12    1    3    3    0    0 -0.19670738446E+02 -0.28376044557E+01 -0.25673985743E+01  0.20039498135E+02  0.00000000000E+00 0. -1.
</event>
<event>
 7    1  0.4994895E-011  0.5052887E+02  0.7816164E-02  0.1300439E+00
        -11   -1    0    0    0    0  0.00000000000E+00  0.00000000000E+00  0.45593999997E+02  0.45594000000E+02  0.51100000000E-03 0.  1.
         11   -1    0    0    0    0 -0.00000000000E+00 -0.00000000000E+00 -0.45593999997E+02  0.45594000000E+02  0.51100000000E-03 0. -1.
    9900012    2    1    2    0    0  0.44689098849E+01 -0.18617214931E+02 -0.35869114381E+02  0.50528865555E+02  0.30000017341E+02 0.  0.
        -12    1    1    2    0    0 -0.44689098849E+01  0.18617214931E+02  0.35869114381E+02  0.40659134445E+02  0.00000000000E+00 0.  1.
         11    1    3    3    0    0 -0.10567019642E+02 -0.10154575621E+02 -0.22681308643E+02  0.27004056587E+02  0.51100000000E-03 0. -1.
        -11    1    3    3    0    0  0.57157684014E+01 -0.53352481414E+01 -0.10250274443E+01  0.78857823120E+01  0.51100000000E-03 0.  1.
         12    1    3    3    0    0  0.93201611251E+01 -0.31273911687E+01 -0.12162778293E+02  0.15639026656E+02  0.00000000000E+00 0. -1.
</event>
<event>
 7    1  0.4994895E-011  0.5052886E+02  0.7816164E-02  0.1300439E+00
        -11   -1    0    0    0    0  0.00000000000E+00  0.00000000000E+00  0.45593999997E+02  0.45594000000E+02  0.51100000000E-03 0.  1.
         11   -1    0    0    0    0 -0.00000000000E+00 -0.00000000000E+00 -0.45593999997E+02  0.45594000000E+02  0.51100000000E-03 0. -1.
    9900012    2    1    2    0    0 -0.20755473743E+02  0.32502254870E+02 -0.12883304117E+02  0.50528858508E+02  0.29999995920E+02 0.  0.
        -12    1    1    2    0    0  0.20755473743E+02 -0.32502254870E+02  0.12883304117E+02  0.40659141492E+02  0.00000000000E+00 0.  1.
         11    1    3    3    0    0 -0.19791245819E+02  0.13005493216E+02 -0.11826527885E+02  0.26470795737E+02  0.51100000000E-03 0. -1.
        -11    1    3    3    0    0  0.39554234202E+01  0.35411676942E+01  0.39607213102E+01  0.66236362091E+01  0.51100000000E-03 0.  1.
        -12    1    3    3    0    0 -0.49196513442E+01  0.15955593959E+02 -0.50174975419E+01  0.17434426561E+02  0.00000000000E+00 0.  1.
</event>
<event>
 7    1  0.4994895E-011  0.5052886E+02  0.7816164E-02  0.1300439E+00
        -11   -1    0    0    0    0  0.00000000000E+00  0.00000000000E+00  0.45593999997E+02  0.45594000000E+02  0.51100000000E-03 0.  1.
         11   -1    0    0    0    0 -0.00000000000E+00 -0.00000000000E+00 -0.45593999997E+02  0.45594000000E+02  0.51100000000E-03 0. -1.
    9900012    2    1    2    0    0  0.28869508803E+02  0.25004653099E+02 -0.13945779157E+02  0.50528856238E+02  0.29999989022E+02 0.  0.
        -12    1    1    2    0    0 -0.28869508803E+02 -0.25004653099E+02  0.13945779157E+02  0.40659143762E+02  0.00000000000E+00 0.  1.
         11    1    3    3    0    0  0.15271844892E+02  0.93582860267E+01 -0.16751662477E+02  0.24523967048E+02  0.51100000000E-03 0. -1.
        -11    1    3    3    0    0  0.41860992527E+01  0.15799438893E+02  0.70107556684E+00  0.16359621129E+02  0.51100000000E-03 0.  1.
        -12    1    3    3    0    0  0.94115646578E+01 -0.15307182001E+00  0.21048077536E+01  0.96452680611E+01  0.00000000000E+00 0.  1.
</event>
<event>
 7    1  0.4994895E-011  0.5052889E+02  0.7816164E-02  0.1300439E+00
        -11   -1    0    0    0    0  0.00000000000E+00  0.00000000000E+00  0.45593999997E+02  0.45594000000E+02  0.51100000000E-03 0. -1.
         11   -1    0    0    0    0 -0.00000000000E+00 -0.00000000000E+00 -0.45593999997E+02  0.45594000000E+02  0.51100000000E-03 0.  1.
    9900012    2    1    2    0    0 -0.11174756441E+02  0.30455079420E+02  0.24510732464E+02  0.50528892165E+02  0.30000098225E+02 0.  0.
        -12    1    1    2    0    0  0.11174756441E+02 -0.30455079420E+02 -0.24510732464E+02  0.40659107835E+02  0.00000000000E+00 0.  1.
         11    1    3    3    0    0 -0.21857730822E+01 -0.38591770050E+00  0.47339601122E+01  0.52284715781E+01  0.51100000000E-03 0. -1.
        -11    1    3    3    0    0 -0.17109705584E+02  0.21048780733E+02  0.88562885232E+01  0.28534663870E+02  0.51100000000E-03 0.  1.
        -12    1    3    3    0    0  0.81207222252E+01  0.97922163877E+01  0.10920483829E+02  0.16765756717E+02  0.00000000000E+00 0.  1.
</event>
<event>
 7    1  0.4994895E-011  0.5052886E+02  0.7816164E-02  0.1300439E+00
        -11   -1    0    0    0    0  0.00000000000E+00  0.00000000000E+00  0.45593999997E+02  0.45594000000E+02  0.51100000000E-03 0. -1.
         11   -1    0    0    0    0 -0.00000000000E+00 -0.00000000000E+00 -0.45593999997E+02  0.45594000000E+02  0.51100000000E-03 0.  1.
    9900012    2    1    2    0    0 -0.30424768165E+02 -0.19144427726E+02  0.18999745749E+02  0.50528856264E+02  0.29999989100E+02 0.  0.
        -12    1    1    2    0    0  0.30424768165E+02  0.19144427726E+02 -0.18999745749E+02  0.40659143736E+02  0.00000000000E+00 0.  1.
         11    1    3    3    0    0 -0.17705204081E+02 -0.93584379850E+01  0.22551083149E+02  0.30159674477E+02  0.51100000000E-03 0. -1.
        -11    1    3    3    0    0 -0.13329904398E+02 -0.11890370485E+02 -0.30415422833E+01  0.18119554113E+02  0.51100000000E-03 0.  1.
         12    1    3    3    0    0  0.61034031412E+00  0.21043807435E+01 -0.50979511727E+00  0.22496276746E+01  0.00000000000E+00 0. -1.
</event>
<event>
 7    1  0.4994895E-011  0.5052891E+02  0.7816164E-02  0.1300439E+00
        -11   -1    0    0    0    0  0.00000000000E+00  0.00000000000E+00  0.45593999997E+02  0.45594000000E+02  0.51100000000E-03 0. -1.
         11   -1    0    0    0    0 -0.00000000000E+00 -0.00000000000E+00 -0.45593999997E+02  0.45594000000E+02  0.51100000000E-03 0.  1.
    9900012    2    1    2    0    0  0.17712603303E+02  0.35242454685E+02  0.98688667914E+01  0.50528911720E+02  0.30000157663E+02 0.  0.
        -12    1    1    2    0    0 -0.17712603303E+02 -0.35242454685E+02 -0.98688667914E+01  0.40659088280E+02  0.00000000000E+00 0.  1.
         11    1    3    3    0    0  0.14990454564E+02  0.21963310291E+02  0.13533170692E+02  0.29837014532E+02  0.51100000000E-03 0. -1.
        -11    1    3    3    0    0 -0.20141785247E+01  0.62517042566E+00  0.44547947450E+01  0.49287878502E+01  0.51100000000E-03 0.  1.
         12    1    3    3    0    0  0.47363272642E+01  0.12653973969E+02 -0.81190986456E+01  0.15763109337E+02  0.00000000000E+00 0. -1.
</event>
<event>
 7    1  0.4994895E-011  0.5052886E+02  0.7816164E-02  0.1300439E+00
        -11   -1    0    0    0    0  0.00000000000E+00  0.00000000000E+00  0.45593999997E+02  0.45594000000E+02  0.51100000000E-03 0. -1.
         11   -1    0    0    0    0 -0.00000000000E+00 -0.00000000000E+00 -0.45593999997E+02  0.45594000000E+02  0.51100000000E-03 0.  1.
    9900012    2    1    2    0    0 -0.21868208021E+02  0.26565259395E+02  0.21661817017E+02  0.50528857790E+02  0.29999993739E+02 0.  0.
        -12    1    1    2    0    0  0.21868208021E+02 -0.26565259395E+02 -0.21661817017E+02  0.40659142210E+02  0.00000000000E+00 0.  1.
         11    1    3    3    0    0  0.23633001173E+01  0.15385299498E+02  0.76181622119E+01  0.17330003573E+02  0.51100000000E-03 0.  1.
        -11    1    3    3    0    0 -0.16393213559E+02  0.36360418075E+00  0.52947889312E+01  0.17230915497E+02  0.51100000000E-03 0. -1.
         12    1    3    3    0    0 -0.78382945797E+01  0.10816355716E+02  0.87488658737E+01  0.15967938720E+02  0.00000000000E+00 0. -1.
</event>
<event>
 7    1  0.4994895E-011  0.5052893E+02  0.7816164E-02  0.1300439E+00
        -11   -1    0    0    0    0  0.00000000000E+00  0.00000000000E+00  0.45593999997E+02  0.45594000000E+02  0.51100000000E-03 0.  1.
         11   -1    0    0    0    0 -0.00000000000E+00 -0.00000000000E+00 -0.45593999997E+02  0.45594000000E+02  0.51100000000E-03 0. -1.
    9900012    2    1    2    0    0  0.20230280102E+02  0.24616239308E+02 -0.25257404564E+02  0.50528930213E+02  0.30000213875E+02 0.  0.
        -12    1    1    2    0    0 -0.20230280102E+02 -0.24616239308E+02  0.25257404564E+02  0.40659069787E+02  0.00000000000E+00 0.  1.
         11    1    3    3    0    0  0.14843608130E+02  0.24016178538E+02 -0.18802029650E+02  0.33920876361E+02  0.51100000000E-03 0. -1.
        -11    1    3    3    0    0 -0.24814842834E+01  0.32143390797E+01  0.22032577194E+01  0.46199658881E+01  0.51100000000E-03 0.  1.
         12    1    3    3    0    0  0.78681562551E+01 -0.26142783105E+01 -0.86586326338E+01  0.11988087964E+02  0.00000000000E+00 0. -1.
</event>
<event>
 7    1  0.4994895E-011  0.5052886E+02  0.7816164E-02  0.1300439E+00
        -11   -1    0    0    0    0  0.00000000000E+00  0.00000000000E+00  0.45593999997E+02  0.45594000000E+02  0.51100000000E-03 0.  1.
         11   -1    0    0    0    0 -0.00000000000E+00 -0.00000000000E+00 -0.45593999997E+02  0.45594000000E+02  0.51100000000E-03 0. -1.
    9900012    2    1    2    0    0  0.29436367496E+02  0.20248761178E+02 -0.19407559494E+02  0.50528862945E+02  0.30000009406E+02 0.  0.
        -12    1    1    2    0    0 -0.29436367496E+02 -0.20248761178E+02  0.19407559494E+02  0.40659137055E+02  0.00000000000E+00 0.  1.
         11    1    3    3    0    0  0.82409290413E+01  0.20312115844E+02 -0.80264995655E+01  0.23343514239E+02  0.51100000000E-03 0. -1.
        -11    1    3    3    0    0  0.11661054080E+02 -0.58091645787E+01 -0.89075065497E+01  0.15781959591E+02  0.51100000000E-03 0.  1.
        -12    1    3    3    0    0  0.95343843751E+01  0.57458099127E+01 -0.24735533786E+01  0.11403389114E+02  0.00000000000E+00 0.  1.
</event>
<event>
 7    1  0.4994895E-011  0.5052885E+02  0.7816164E-02  0.1300439E+00
        -11   -1    0    0    0    0  0.00000000000E+00  0.00000000000E+00  0.45593999997E+02  0.45594000000E+02  0.51100000000E-03 0. -1.
         11   -1    0    0    0    0 -0.00000000000E+00 -0.00000000000E+00 -0.45593999997E+02  0.45594000000E+02  0.51100000000E-03 0.  1.
    9900012    2    1    2    0    0 -0.17548044911E+02 -0.24413679044E+01  0.36596068428E+02  0.50528851192E+02  0.29999973682E+02 0.  0.
        -12    1    1    2    0    0  0.17548044911E+02  0.24413679044E+01 -0.36596068428E+02  0.40659148808E+02  0.00000000000E+00 0.  1.
         11    1    3    3    0    0 -0.95157494018E+00 -0.77506048014E+01  0.21391794716E+02  0.22772488909E+02  0.51100000000E-03 0. -1.
        -11    1    3    3    0    0 -0.14750600102E+02  0.70868411231E+01  0.17751086947E+02  0.24143417499E+02  0.51100000000E-03 0.  1.
         12    1    3    3    0    0 -0.18458698687E+01 -0.17776042261E+01 -0.25468132351E+01  0.36129447839E+01  0.00000000000E+00 0. -1.
</event>
<event>
 7    1  0.4994895E-011  0.5052885E+02  0.7816164E-02  0.1300439E+00
        -11   -1    0    0    0    0  0.00000000000E+00  0.00000000000E+00  0.45593999997E+02  0.45594000000E+02  0.51100000000E-03 0.  1.
         11   -1    0    0    0    0 -0.00000000000E+00 -0.00000000000E+00 -0.45593999997E+02  0.45594000000E+02  0.51100000000E-03 0. -1.
    9900012    2    1    2    0    0 -0.31085761540E+02  0.24531232899E+02 -0.92228438211E+01  0.50528845972E+02  0.29999957818E+02 0.  0.
        -12    1    1    2    0    0  0.31085761540E+02 -0.24531232899E+02  0.92228438211E+01  0.40659154028E+02  0.00000000000E+00 0.  1.
         11    1    3    3    0    0 -0.23215179413E+02  0.86971329587E+01  0.42344129685E+01  0.25149849509E+02  0.51100000000E-03 0. -1.
        -11    1    3    3    0    0  0.31682984072E+01  0.23958684003E+01 -0.37482512439E+01  0.54614730464E+01  0.51100000000E-03 0.  1.
        -12    1    3    3    0    0 -0.11038880535E+02  0.13438231540E+02 -0.97090055457E+01  0.19917523417E+02  0.00000000000E+00 0.  1.
</event>
<event>
 7    1  0.4994895E-011  0.5052887E+02  0.7816164E-02  0.1300439E+00
        -11   -1    0    0    0    0  0.00000000000E+00  0.00000000000E+00  0.45593999997E+02  0.45594000000E+02  0.51100000000E-03 0. -1.
         11   -1    0    0    0    0 -0.00000000000E+00 -0.00000000000E+00 -0.45593999997E+02  0.45594000000E+02  0.51100000000E-03 0.  1.
    9900012    2    1    2    0    0  0.13710893543E+02  0.37370186507E+02 -0.82852750371E+01  0.50528865432E+02  0.30000016968E+02 0.  0.
        -12    1    1    2    0    0 -0.13710893543E+02 -0.37370186507E+02  0.82852750371E+01  0.40659134568E+02  0.00000000000E+00 0.  1.
         11    1    3    3    0    0  0.20218948417E+01  0.12719045477E+02  0.10288515351E+02  0.16483801897E+02  0.51100000000E-03 0. -1.
        -11    1    3    3    0    0  0.57167080312E+01  0.19154762527E+02 -0.10429293477E+02  0.22546747900E+02  0.51100000000E-03 0.  1.
         12    1    3    3    0    0  0.59722906701E+01  0.54963785028E+01 -0.81444969116E+01  0.11498315635E+02  0.00000000000E+00 0. -1.
</event>
<event>
 7    1  0.4994895E-011  0.5052886E+02  0.7816164E-02  0.1300439E+00
        -11   -1    0    0    0    0  0.00000000000E+00  0.00000000000E+00  0.45593999997E+02  0.45594000000E+02  0.51100000000E-03 0.  1.
         11   -1    0    0    0    0 -0.00000000000E+00 -0.00000000000E+00 -0.45593999997E+02  0.45594000000E+02  0.51100000000E-03 0. -1.
    9900012    2    1    2    0    0  0.42582262085E+01  0.18459299011E+02 -0.35976211882E+02  0.50528855496E+02  0.29999986766E+02 0.  0.
        -12    1    1    2    0    0 -0.42582262085E+01 -0.18459299011E+02  0.35976211882E+02  0.40659144504E+02  0.00000000000E+00 0.  1.
         11    1    3    3    0    0  0.42653735309E+00 -0.50298740930E+01 -0.16904961079E+02  0.17642541678E+02  0.51100000000E-03 0. -1.
        -11    1    3    3    0    0  0.63846636590E+01  0.49532225489E+01 -0.57837953314E+01  0.99373352743E+01  0.51100000000E-03 0.  1.
         12    1    3    3    0    0 -0.25529748036E+01  0.18535950555E+02 -0.13287455471E+02  0.22948978544E+02  0.00000000000E+00 0. -1.
</event>
<event>
 7    1  0.4994895E-011  0.5052886E+02  0.7816164E-02  0.1300439E+00
        -11   -1    0    0    0    0  0.00000000000E+00  0.00000000000E+00  0.45593999997E+02  0.45594000000E+02  0.51100000000E-03 0.  1.
         11   -1    0    0    0    0 -0.00000000000E+00 -0.00000000000E+00 -0.45593999997E+02  0.45594000000E+02  0.51100000000E-03 0. -1.
    9900012    2    1    2    0    0  0.97571540938E+01  0.39102106406E+02  0.53841541444E+01  0.50528857151E+02  0.29999991795E+02 0.  0.
        -12    1    1    2    0    0 -0.97571540938E+01 -0.39102106406E+02 -0.53841541444E+01  0.40659142849E+02  0.00000000000E+00 0.  1.
         11    1    3    3    0    0  0.38281592083E+01  0.37127626192E+02  0.24135229975E+01  0.37402413333E+02  0.51100000000E-03 0. -1.
        -11    1    3    3    0    0  0.76113688500E+01 -0.99620855268E+00 -0.11644923191E+01  0.77641103723E+01  0.51100000000E-03 0.  1.
         12    1    3    3    0    0 -0.16823739645E+01  0.29706887665E+01  0.41351234661E+01  0.53623334458E+01  0.00000000000E+00 0. -1.
</event>
<event>
 7    1  0.4994895E-011  0.5052886E+02  0.7816164E-02  0.1300439E+00
        -11   -1    0    0    0    0  0.00000000000E+00  0.00000000000E+00  0.45593999997E+02  0.45594000000E+02  0.51100000000E-03 0.  1.
         11   -1    0    0    0    0 -0.00000000000E+00 -0.00000000000E+00 -0.45593999997E+02  0.45594000000E+02  0.51100000000E-03 0. -1.
    9900012    2    1    2    0    0 -0.13572900719E+02  0.11608433225E+02 -0.36526516818E+02  0.50528858510E+02  0.29999995927E+02 0.  0.
        -12    1    1    2    0    0  0.13572900719E+02 -0.11608433225E+02  0.36526516818E+02  0.40659141490E+02  0.00000000000E+00 0.  1.
         11    1    3    3    0    0 -0.12550467398E+02 -0.47598712804E+01 -0.75472595690E+01  0.15399082238E+02  0.51100000000E-03 0. -1.
        -11    1    3    3    0    0 -0.49876865660E+01  0.11264201634E+02 -0.13084656267E+02  0.17971296159E+02  0.51100000000E-03 0.  1.
         12    1    3    3    0    0  0.39652532452E+01  0.51041028710E+01 -0.15894600981E+02  0.17158480113E+02  0.00000000000E+00 0. -1.
</event>
<event>
 7    1  0.4994895E-011  0.5052885E+02  0.7816164E-02  0.1300439E+00
        -11   -1    0    0    0    0  0.00000000000E+00  0.00000000000E+00  0.45593999997E+02  0.45594000000E+02  0.51100000000E-03 0.  1.
         11   -1    0    0    0    0 -0.00000000000E+00 -0.00000000000E+00 -0.45593999997E+02  0.45594000000E+02  0.51100000000E-03 0. -1.
    9900012    2    1    2    0    0 -0.19638194681E+02 -0.34812959747E+02 -0.74542170351E+01  0.50528853326E+02  0.29999980170E+02 0.  0.
        -12    1    1    2    0    0  0.19638194681E+02  0.34812959747E+02  0.74542170351E+01  0.40659146674E+02  0.00000000000E+00 0.  1.
         11    1    3    3    0    0 -0.90102195679E+01 -0.26003999895E+02  0.18611765223E+01  0.27583619152E+02  0.51100000000E-03 0. -1.
        -11    1    3    3    0    0 -0.88352719027E+01 -0.50650726371E+01 -0.13592848380E+02  0.16984773115E+02  0.51100000000E-03 0.  1.
        -12    1    3    3    0    0 -0.17927032101E+01 -0.37438872141E+01  0.42774548231E+01  0.59604610590E+01  0.00000000000E+00 0.  1.
</event>
<event>
 7    1  0.4994895E-011  0.5052886E+02  0.7816164E-02  0.1300439E+00
        -11   -1    0    0    0    0  0.00000000000E+00  0.00000000000E+00  0.45593999997E+02  0.45594000000E+02  0.51100000000E-03 0.  1.
         11   -1    0    0    0    0 -0.00000000000E+00 -0.00000000000E+00 -0.45593999997E+02  0.45594000000E+02  0.51100000000E-03 0. -1.
    9900012    2    1    2    0    0  0.34669599882E+01  0.32489297949E+02 -0.24198988544E+02  0.50528864011E+02  0.30000012649E+02 0.  0.
        -12    1    1    2    0    0 -0.34669599882E+01 -0.32489297949E+02  0.24198988544E+02  0.40659135989E+02  0.00000000000E+00 0.  1.
         11    1    3    3    0    0  0.14448101574E+02  0.17055518524E+02 -0.72577971236E+01  0.23501361036E+02  0.51100000000E-03 0. -1.
        -11    1    3    3    0    0 -0.34506760361E+00  0.12476165831E+00  0.10549974270E+01  0.11169856555E+01  0.51100000000E-03 0.  1.
         12    1    3    3    0    0 -0.10636073982E+02  0.15309017767E+02 -0.17996188848E+02  0.25910517319E+02  0.00000000000E+00 0. -1.
</event>
<event>
 7    1  0.4994895E-011  0.5052886E+02  0.7816164E-02  0.1300439E+00
        -11   -1    0    0    0    0  0.00000000000E+00  0.00000000000E+00  0.45593999997E+02  0.45594000000E+02  0.51100000000E-03 0.  1.
         11   -1    0    0    0    0 -0.00000000000E+00 -0.00000000000E+00 -0.45593999997E+02  0.45594000000E+02  0.51100000000E-03 0. -1.
    9900012    2    1    2    0    0  0.13981881786E-01 -0.91855192586E+00 -0.40648757130E+02  0.50528863396E+02  0.30000010779E+02 0.  0.
        -12    1    1    2    0    0 -0.13981881786E-01  0.91855192586E+00  0.40648757130E+02  0.40659136604E+02  0.00000000000E+00 0.  1.
         11    1    3    3    0    0  0.72596827476E+01 -0.22756571491E+01 -0.29417095832E+01  0.81569151392E+01  0.51100000000E-03 0. -1.
        -11    1    3    3    0    0 -0.12741368607E+02 -0.11694053232E+01 -0.29685493765E+02  0.32325508861E+02  0.51100000000E-03 0.  1.
        -12    1    3    3    0    0  0.54956677409E+01  0.25265105464E+01 -0.80215537820E+01  0.10046439396E+02  0.00000000000E+00 0.  1.
</event>
<event>
 7    1  0.4994895E-011  0.5052886E+02  0.7816164E-02  0.1300439E+00
        -11   -1    0    0    0    0  0.00000000000E+00  0.00000000000E+00  0.45593999997E+02  0.45594000000E+02  0.51100000000E-03 0. -1.
         11   -1    0    0    0    0 -0.00000000000E+00 -0.00000000000E+00 -0.45593999997E+02  0.45594000000E+02  0.51100000000E-03 0.  1.
    9900012    2    1    2    0    0  0.85946715970E+01 -0.37956749334E+02  0.11772110129E+02  0.50528858632E+02  0.29999996298E+02 0.  0.
        -12    1    1    2    0    0 -0.85946715970E+01  0.37956749334E+02 -0.11772110129E+02  0.40659141368E+02  0.00000000000E+00 0.  1.
         11    1    3    3    0    0  0.13834174183E+02 -0.11663561238E+02  0.61003420790E+01  0.19095476161E+02  0.51100000000E-03 0.  1.
        -11    1    3    3    0    0 -0.25723132341E+01 -0.10093911950E+02  0.10016219812E+02  0.14450900090E+02  0.51100000000E-03 0. -1.
         12    1    3    3    0    0 -0.26671893516E+01 -0.16199276147E+02 -0.43444517623E+01  0.16982482381E+02  0.00000000000E+00 0. -1.
</event>
<event>
 7    1  0.4994895E-011  0.5052886E+02  0.7816164E-02  0.1300439E+00
        -11   -1    0    0    0    0  0.00000000000E+00  0.00000000000E+00  0.45593999997E+02  0.45594000000E+02  0.51100000000E-03 0. -1.
         11   -1    0    0    0    0 -0.00000000000E+00 -0.00000000000E+00 -0.45593999997E+02  0.45594000000E+02  0.51100000000E-03 0.  1.
    9900012    2    1    2    0    0 -0.33867214411E+02  0.97991163109E+01  0.20252274082E+02  0.50528862061E+02  0.30000006721E+02 0.  0.
        -12    1    1    2    0    0  0.33867214411E+02 -0.97991163109E+01 -0.20252274082E+02  0.40659137939E+02  0.00000000000E+00 0.  1.
         11    1    3    3    0    0 -0.67882765212E+01 -0.12660445368E+01  0.75539531795E+01  0.10234538377E+02  0.51100000000E-03 0. -1.
        -11    1    3    3    0    0 -0.62083408485E+01  0.14483702157E+02  0.26267459152E+00  0.15760397282E+02  0.51100000000E-03 0.  1.
        -12    1    3    3    0    0 -0.20870597041E+02 -0.34185413096E+01  0.12435646311E+02  0.24533926402E+02  0.00000000000E+00 0.  1.
</event>
<event>
 7    1  0.4994895E-011  0.5052886E+02  0.7816164E-02  0.1300439E+00
        -11   -1    0    0    0    0  0.00000000000E+00  0.00000000000E+00  0.45593999997E+02  0.45594000000E+02  0.51100000000E-03 0.  1.
         11   -1    0    0    0    0 -0.00000000000E+00 -0.00000000000E+00 -0.45593999997E+02  0.45594000000E+02  0.51100000000E-03 0. -1.
    9900012    2    1    2    0    0 -0.20816140914E+02  0.33777916517E+02 -0.88829151119E+01  0.50528861449E+02  0.30000004862E+02 0.  0.
        -12    1    1    2    0    0  0.20816140914E+02 -0.33777916517E+02  0.88829151119E+01  0.40659138551E+02  0.00000000000E+00 0.  1.
         11    1    3    3    0    0 -0.67252193301E+01  0.27426226328E+01  0.64659211458E+01  0.97241292911E+01  0.51100000000E-03 0.  1.
        -11    1    3    3    0    0  0.24249217026E+01  0.75877270144E+01 -0.77974597297E+01  0.11146937921E+02  0.51100000000E-03 0. -1.
         12    1    3    3    0    0 -0.16515843286E+02  0.23447566870E+02 -0.75513765280E+01  0.29657794238E+02  0.00000000000E+00 0. -1.
</event>
<event>
 7    1  0.4994895E-011  0.5052885E+02  0.7816164E-02  0.1300439E+00
        -11   -1    0    0    0    0  0.00000000000E+00  0.00000000000E+00  0.45593999997E+02  0.45594000000E+02  0.51100000000E-03 0. -1.
         11   -1    0    0    0    0 -0.00000000000E+00 -0.00000000000E+00 -0.45593999997E+02  0.45594000000E+02  0.51100000000E-03 0.  1.
    9900012    2    1    2    0    0  0.39556596618E+02  0.40673549738E+00  0.93955672686E+01  0.50528850303E+02  0.29999970981E+02 0.  0.
        -12    1    1    2    0    0 -0.39556596618E+02 -0.40673549738E+00 -0.93955672686E+01  0.40659149697E+02  0.00000000000E+00 0.  1.
         11    1    3    3    0    0  0.23461483383E+02  0.21498682257E+01  0.11316606149E+02  0.26136731068E+02  0.51100000000E-03 0. -1.
        -11    1    3    3    0    0  0.97359696469E+01 -0.72989421565E+01 -0.74790536072E+01  0.14282853521E+02  0.51100000000E-03 0.  1.
         12    1    3    3    0    0  0.63591435880E+01  0.55558094282E+01  0.55580147265E+01  0.10109265714E+02  0.00000000000E+00 0. -1.
</event>
<event>
 7    1  0.4994895E-011  0.5052886E+02  0.7816164E-02  0.1300439E+00
        -11   -1    0    0    0    0  0.00000000000E+00  0.00000000000E+00  0.45593999997E+02  0.45594000000E+02  0.51100000000E-03 0.  1.
         11   -1    0    0    0    0 -0.00000000000E+00 -0.00000000000E+00 -0.45593999997E+02  0.45594000000E+02  0.51100000000E-03 0. -1.
    9900012    2    1    2    0    0 -0.18950445118E+02 -0.14444046354E+02 -0.32945646210E+02  0.50528862657E+02  0.30000008533E+02 0.  0.
        -12    1    1    2    0    0  0.18950445118E+02  0.14444046354E+02  0.32945646210E+02  0.40659137343E+02  0.00000000000E+00 0.  1.
         11    1    3    3    0    0 -0.43294113280E+01  0.78965762507E+01 -0.86629394521E+01  0.12495848876E+02  0.51100000000E-03 0. -1.
        -11    1    3    3    0    0 -0.12787296401E+02 -0.22628948485E+02 -0.18350219164E+02  0.31816894921E+02  0.51100000000E-03 0.  1.
        -12    1    3    3    0    0 -0.18337373897E+01  0.28832588050E+00 -0.59324875943E+01  0.62161188602E+01  0.00000000000E+00 0.  1.
</event>
<event>
 7    1  0.4994895E-011  0.5052886E+02  0.7816164E-02  0.1300439E+00
        -11   -1    0    0    0    0  0.00000000000E+00  0.00000000000E+00  0.45593999997E+02  0.45594000000E+02  0.51100000000E-03 0.  1.
         11   -1    0    0    0    0 -0.00000000000E+00 -0.00000000000E+00 -0.45593999997E+02  0.45594000000E+02  0.51100000000E-03 0. -1.
    9900012    2    1    2    0    0 -0.27912532424E+02 -0.14385640047E+02 -0.25828459932E+02  0.50528862671E+02  0.30000008574E+02 0.  0.
        -12    1    1    2    0    0  0.27912532424E+02  0.14385640047E+02  0.25828459932E+02  0.40659137329E+02  0.00000000000E+00 0.  1.
         11    1    3    3    0    0 -0.16748580860E+02 -0.70633128066E+01 -0.99645204657E+01  0.20729134497E+02  0.51100000000E-03 0. -1.
        -11    1    3    3    0    0  0.34145660607E+01  0.20248342489E+01  0.23935097302E+01  0.46355263140E+01  0.51100000000E-03 0.  1.
        -12    1    3    3    0    0 -0.14578517625E+02 -0.93471614895E+01 -0.18257449197E+02  0.25164201860E+02  0.00000000000E+00 0.  1.
</event>
<event>
 7    1  0.4994895E-011  0.5052886E+02  0.7816164E-02  0.1300439E+00
        -11   -1    0    0    0    0  0.00000000000E+00  0.00000000000E+00  0.45593999997E+02  0.45594000000E+02  0.51100000000E-03 0. -1.
         11   -1    0    0    0    0 -0.00000000000E+00 -0.00000000000E+00 -0.45593999997E+02  0.45594000000E+02  0.51100000000E-03 0.  1.
    9900012    2    1    2    0    0 -0.71422201620E+01 -0.24430408511E+02  0.31706616156E+02  0.50528859860E+02  0.30000000030E+02 0.  0.
        -12    1    1    2    0    0  0.71422201620E+01  0.24430408511E+02 -0.31706616156E+02  0.40659140140E+02  0.00000000000E+00 0.  1.
         11    1    3    3    0    0 -0.68811119928E+01 -0.14588703008E+02  0.33645223900E+02  0.37311942449E+02  0.51100000000E-03 0. -1.
        -11    1    3    3    0    0 -0.41208885907E+01 -0.48379615307E+01 -0.25928333387E+01  0.68637001343E+01  0.51100000000E-03 0.  1.
         12    1    3    3    0    0  0.38597804216E+01 -0.50037439720E+01  0.65422559418E+00  0.63532172769E+01  0.00000000000E+00 0. -1.
</event>
<event>
 7    1  0.4994895E-011  0.5052887E+02  0.7816164E-02  0.1300439E+00
        -11   -1    0    0    0    0  0.00000000000E+00  0.00000000000E+00  0.45593999997E+02  0.45594000000E+02  0.51100000000E-03 0. -1.
         11   -1    0    0    0    0 -0.00000000000E+00 -0.00000000000E+00 -0.45593999997E+02  0.45594000000E+02  0.51100000000E-03 0.  1.
    9900012    2    1    2    0    0  0.73091778470E+01  0.38656364094E+02 -0.10267744821E+02  0.50528866346E+02  0.30000019747E+02 0.  0.
        -12    1    1    2    0    0 -0.73091778470E+01 -0.38656364094E+02  0.10267744821E+02  0.40659133654E+02  0.00000000000E+00 0.  1.
         11    1    3    3    0    0 -0.72205177190E+01  0.91289787825E+01 -0.24751183000E+01  0.11899594136E+02  0.51100000000E-03 0.  1.
        -11    1    3    3    0    0  0.95865756616E+01  0.52890365923E+01  0.34185252939E+01  0.11470076566E+02  0.51100000000E-03 0. -1.
        -12    1    3    3    0    0  0.49431199044E+01  0.24238348719E+02 -0.11211151815E+02  0.27159195644E+02  0.00000000000E+00 0.  1.
</event>
<event>
 7    1  0.4994895E-011  0.5052887E+02  0.7816164E-02  0.1300439E+00
        -11   -1    0    0    0    0  0.00000000000E+00  0.00000000000E+00  0.45593999997E+02  0.45594000000E+02  0.51100000000E-03 0. -1.
         11   -1    0    0    0    0 -0.00000000000E+00 -0.00000000000E+00 -0.45593999997E+02  0.45594000000E+02  0.51100000000E-03 0.  1.
    9900012    2    1    2    0    0  0.33520416686E+02  0.20216020808E+02  0.10993597621E+02  0.50528867929E+02  0.30000024558E+02 0.  0.
        -12    1    1    2    0    0 -0.33520416686E+02 -0.20216020808E+02 -0.10993597621E+02  0.40659132071E+02  0.00000000000E+00 0.  1.
         11    1    3    3    0    0  0.13382270307E+02  0.20487661177E+01  0.11512524600E+02  0.17771348404E+02  0.51100000000E-03 0. -1.
        -11    1    3    3    0    0  0.10568406689E+02  0.15722171695E+01 -0.67200034995E+01  0.12622263429E+02  0.51100000000E-03 0.  1.
        -12    1    3    3    0    0  0.95697396896E+01  0.16595037521E+02  0.62010765212E+01  0.20135256096E+02  0.00000000000E+00 0.  1.
</event>
<event>
 7    1  0.4994895E-011  0.5052884E+02  0.7816164E-02  0.1300439E+00
        -11   -1    0    0    0    0  0.00000000000E+00  0.00000000000E+00  0.45593999997E+02  0.45594000000E+02  0.51100000000E-03 0.  1.
         11   -1    0    0    0    0 -0.00000000000E+00 -0.00000000000E+00 -0.45593999997E+02  0.45594000000E+02  0.51100000000E-03 0. -1.
    9900012    2    1    2    0    0 -0.35539919637E+02  0.14268507041E+02 -0.13656184729E+02  0.50528836674E+02  0.29999929555E+02 0.  0.
        -12    1    1    2    0    0  0.35539919637E+02 -0.14268507041E+02  0.13656184729E+02  0.40659163326E+02  0.00000000000E+00 0.  1.
         11    1    3    3    0    0 -0.25240442518E+02  0.20515424229E+02 -0.10328993449E+02  0.34126978708E+02  0.51100000000E-03 0. -1.
        -11    1    3    3    0    0 -0.36651532467E+01 -0.63201356466E+01 -0.57927632644E+01  0.93238173197E+01  0.51100000000E-03 0.  1.
         12    1    3    3    0    0 -0.66343238720E+01  0.73218458982E-01  0.24655719843E+01  0.70780406463E+01  0.00000000000E+00 0. -1.
</event>
<event>
 7    1  0.4994895E-011  0.5052887E+02  0.7816164E-02  0.1300439E+00
        -11   -1    0    0    0    0  0.00000000000E+00  0.00000000000E+00  0.45593999997E+02  0.45594000000E+02  0.51100000000E-03 0. -1.
         11   -1    0    0    0    0 -0.00000000000E+00 -0.00000000000E+00 -0.45593999997E+02  0.45594000000E+02  0.51100000000E-03 0.  1.
    9900012    2    1    2    0    0 -0.51538954299E+01  0.38858037933E+02 -0.10800716955E+02  0.50528865272E+02  0.30000016481E+02 0.  0.
        -12    1    1    2    0    0  0.51538954299E+01 -0.38858037933E+02  0.10800716955E+02  0.40659134728E+02  0.00000000000E+00 0.  1.
         11    1    3    3    0    0 -0.26585968149E+01  0.38001427258E+00  0.59280778763E+00  0.27502671154E+01  0.51100000000E-03 0. -1.
        -11    1    3    3    0    0 -0.14159108063E+02  0.21041433789E+02 -0.50217260143E+01  0.25854206803E+02  0.51100000000E-03 0.  1.
        -12    1    3    3    0    0  0.11663809448E+02  0.17436589871E+02 -0.63717987287E+01  0.21924391353E+02  0.00000000000E+00 0.  1.
</event>
<event>
 7    1  0.4994895E-011  0.5052886E+02  0.7816164E-02  0.1300439E+00
        -11   -1    0    0    0    0  0.00000000000E+00  0.00000000000E+00  0.45593999997E+02  0.45594000000E+02  0.51100000000E-03 0. -1.
         11   -1    0    0    0    0 -0.00000000000E+00 -0.00000000000E+00 -0.45593999997E+02  0.45594000000E+02  0.51100000000E-03 0.  1.
    9900012    2    1    2    0    0 -0.18893533821E+02  0.19552200922E+02  0.30230975577E+02  0.50528855082E+02  0.29999985507E+02 0.  0.
        -12    1    1    2    0    0  0.18893533821E+02 -0.19552200922E+02 -0.30230975577E+02  0.40659144918E+02  0.00000000000E+00 0.  1.
         11    1    3    3    0    0  0.11622469602E+01  0.18205612513E+02  0.85748162954E+01  0.20157445764E+02  0.51100000000E-03 0. -1.
        -11    1    3    3    0    0 -0.16190091919E+02 -0.64121349394E+00  0.13340091599E+02  0.20987812540E+02  0.51100000000E-03 0.  1.
         12    1    3    3    0    0 -0.38656888625E+01  0.19878019025E+01  0.83160676826E+01  0.93835967778E+01  0.00000000000E+00 0. -1.
</event>
<event>
 7    1  0.4994895E-011  0.5052885E+02  0.7816164E-02  0.1300439E+00
        -11   -1    0    0    0    0  0.00000000000E+00  0.00000000000E+00  0.45593999997E+02  0.45594000000E+02  0.51100000000E-03 0.  1.
         11   -1    0    0    0    0 -0.00000000000E+00 -0.00000000000E+00 -0.45593999997E+02  0.45594000000E+02  0.51100000000E-03 0. -1.
    9900012    2    1    2    0    0 -0.32747435740E+02  0.13502543874E+02 -0.19961300933E+02  0.50528846374E+02  0.29999959039E+02 0.  0.
        -12    1    1    2    0    0  0.32747435740E+02 -0.13502543874E+02  0.19961300933E+02  0.40659153626E+02  0.00000000000E+00 0.  1.
         11    1    3    3    0    0  0.30089492305E+01  0.44114300672E+01 -0.87881969374E+00  0.54117293932E+01  0.51100000000E-03 0.  1.
        -11    1    3    3    0    0 -0.31409134573E+02  0.73408564945E+01 -0.82194781917E+01  0.33286359529E+02  0.51100000000E-03 0. -1.
         12    1    3    3    0    0 -0.43472503977E+01  0.17502573119E+01 -0.10863003047E+02  0.11830757452E+02  0.00000000000E+00 0. -1.
</event>
<event>
 7    1  0.4994895E-011  0.5052886E+02  0.7816164E-02  0.1300439E+00
        -11   -1    0    0    0    0  0.00000000000E+00  0.00000000000E+00  0.45593999997E+02  0.45594000000E+02  0.51100000000E-03 0. -1.
         11   -1    0    0    0    0 -0.00000000000E+00 -0.00000000000E+00 -0.45593999997E+02  0.45594000000E+02  0.51100000000E-03 0.  1.
    9900012    2    1    2    0    0  0.34739201983E+01  0.38552613554E+02 -0.12441614155E+02  0.50528857164E+02  0.29999991834E+02 0.  0.
        -12    1    1    2    0    0 -0.34739201983E+01 -0.38552613554E+02  0.12441614155E+02  0.40659142836E+02  0.00000000000E+00 0.  1.
         11    1    3    3    0    0  0.58495355639E+01 -0.49518366190E+00  0.32897492936E+01  0.67293925319E+01  0.51100000000E-03 0. -1.
        -11    1    3    3    0    0  0.84888641983E+00  0.21449647686E+02 -0.26356505246E+01  0.21627636208E+02  0.51100000000E-03 0.  1.
        -12    1    3    3    0    0 -0.32245017855E+01  0.17598149530E+02 -0.13095712924E+02  0.22171828423E+02  0.00000000000E+00 0.  1.
</event>
<event>
 7    1  0.4994895E-011  0.5052887E+02  0.7816164E-02  0.1300439E+00
        -11   -1    0    0    0    0  0.00000000000E+00  0.00000000000E+00  0.45593999997E+02  0.45594000000E+02  0.51100000000E-03 0.  1.
         11   -1    0    0    0    0 -0.00000000000E+00 -0.00000000000E+00 -0.45593999997E+02  0.45594000000E+02  0.51100000000E-03 0. -1.
    9900012    2    1    2    0    0  0.23555656506E+02 -0.22966761355E+02  0.23891920935E+02  0.50528868596E+02  0.30000026585E+02 0.  0.
        -12    1    1    2    0    0 -0.23555656506E+02  0.22966761355E+02 -0.23891920935E+02  0.40659131404E+02  0.00000000000E+00 0.  1.
         11    1    3    3    0    0  0.41992046609E+01 -0.54384865550E+01  0.17203202417E+02  0.18524595257E+02  0.51100000000E-03 0. -1.
        -11    1    3    3    0    0  0.20124468663E+02 -0.19546889154E+02  0.83593424630E+01  0.29273771900E+02  0.51100000000E-03 0.  1.
        -12    1    3    3    0    0 -0.76801681869E+00  0.20186143536E+01 -0.16706239448E+01  0.27305014388E+01  0.00000000000E+00 0.  1.
</event>
<event>
 7    1  0.4994895E-011  0.5052886E+02  0.7816164E-02  0.1300439E+00
        -11   -1    0    0    0    0  0.00000000000E+00  0.00000000000E+00  0.45593999997E+02  0.45594000000E+02  0.51100000000E-03 0.  1.
         11   -1    0    0    0    0 -0.00000000000E+00 -0.00000000000E+00 -0.45593999997E+02  0.45594000000E+02  0.51100000000E-03 0. -1.
    9900012    2    1    2    0    0 -0.27080309634E+02 -0.14668035863E+02 -0.26545647382E+02  0.50528857844E+02  0.29999993902E+02 0.  0.
        -12    1    1    2    0    0  0.27080309634E+02  0.14668035863E+02  0.26545647382E+02  0.40659142156E+02  0.00000000000E+00 0.  1.
         11    1    3    3    0    0 -0.73217179595E+01 -0.26566098627E+01 -0.76127343814E+01  0.10891228345E+02  0.51100000000E-03 0. -1.
        -11    1    3    3    0    0  0.22245129412E+01 -0.10721369859E+02 -0.12664849011E+02  0.16742001978E+02  0.51100000000E-03 0.  1.
        -12    1    3    3    0    0 -0.21983104616E+02 -0.12900561408E+01 -0.62680639894E+01  0.22895627521E+02  0.00000000000E+00 0.  1.
</event>
<event>
 7    1  0.4994895E-011  0.5052886E+02  0.7816164E-02  0.1300439E+00
        -11   -1    0    0    0    0  0.00000000000E+00  0.00000000000E+00  0.45593999997E+02  0.45594000000E+02  0.51100000000E-03 0. -1.
         11   -1    0    0    0    0 -0.00000000000E+00 -0.00000000000E+00 -0.45593999997E+02  0.45594000000E+02  0.51100000000E-03 0.  1.
    9900012    2    1    2    0    0 -0.23681035283E+02  0.13820825833E+02  0.30022636263E+02  0.50528863918E+02  0.30000012365E+02 0.  0.
        -12    1    1    2    0    0  0.23681035283E+02 -0.13820825833E+02 -0.30022636263E+02  0.40659136082E+02  0.00000000000E+00 0.  1.
         11    1    3    3    0    0 -0.14434709627E+02 -0.68537781226E+01  0.86104988782E+01  0.18151468474E+02  0.51100000000E-03 0. -1.
        -11    1    3    3    0    0 -0.23981763593E+01  0.10430170846E+02  0.48912466068E+01  0.11767073015E+02  0.51100000000E-03 0.  1.
         12    1    3    3    0    0 -0.68481492968E+01  0.10244433110E+02  0.16520890778E+02  0.20610322429E+02  0.00000000000E+00 0. -1.
</event>
<event>
 7    1  0.4994895E-011  0.5052886E+02  0.7816164E-02  0.1300439E+00
        -11   -1    0    0    0    0  0.00000000000E+00  0.00000000000E+00  0.45593999997E+02  0.45594000000E+02  0.51100000000E-03 0. -1.
         11   -1    0    0    0    0 -0.00000000000E+00 -0.00000000000E+00 -0.45593999997E+02  0.45594000000E+02  0.51100000000E-03 0.  1.
    9900012    2    1    2    0    0 -0.40496256294E+02  0.36350944850E+01  0.68391953760E-01  0.50528863718E+02  0.30000011757E+02 0.  0.
        -12    1    1    2    0    0  0.40496256294E+02 -0.36350944850E+01 -0.68391953760E-01  0.40659136282E+02  0.00000000000E+00 0.  1.
         11    1    3    3    0    0 -0.36161027907E+02  0.97075530822E+00  0.20125137268E+01  0.36229994713E+02  0.51100000000E-03 0. -1.
        -11    1    3    3    0    0 -0.53688957277E+01 -0.50929409747E+00 -0.66296053972E+01  0.85461154799E+01  0.51100000000E-03 0.  1.
         12    1    3    3    0    0  0.10336673401E+01  0.31736332743E+01  0.46854836241E+01  0.57527535251E+01  0.00000000000E+00 0. -1.
</event>
<event>
 7    1  0.4994895E-011  0.5052886E+02  0.7816164E-02  0.1300439E+00
        -11   -1    0    0    0    0  0.00000000000E+00  0.00000000000E+00  0.45593999997E+02  0.45594000000E+02  0.51100000000E-03 0. -1.
         11   -1    0    0    0    0 -0.00000000000E+00 -0.00000000000E+00 -0.45593999997E+02  0.45594000000E+02  0.51100000000E-03 0.  1.
    9900012    2    1    2    0    0 -0.11506025399E+02  0.76582012591E+01  0.38237790897E+02  0.50528864253E+02  0.30000013384E+02 0.  0.
        -12    1    1    2    0    0  0.11506025399E+02 -0.76582012591E+01 -0.38237790897E+02  0.40659135747E+02  0.00000000000E+00 0.  1.
         11    1    3    3    0    0  0.18432488076E+01  0.41735874826E+01 -0.25485880361E+01  0.52260596897E+01  0.51100000000E-03 0. -1.
        -11    1    3    3    0    0 -0.63286339139E+01  0.83769111536E+01  0.28127880534E+02  0.30023356097E+02  0.51100000000E-03 0.  1.
         12    1    3    3    0    0 -0.70206402930E+01 -0.48922973771E+01  0.12658498398E+02  0.15279448467E+02  0.00000000000E+00 0. -1.
</event>
<event>
 7    1  0.4994895E-011  0.5052886E+02  0.7816164E-02  0.1300439E+00
        -11   -1    0    0    0    0  0.00000000000E+00  0.00000000000E+00  0.45593999997E+02  0.45594000000E+02  0.51100000000E-03 0.  1.
         11   -1    0    0    0    0 -0.00000000000E+00 -0.00000000000E+00 -0.45593999997E+02  0.45594000000E+02  0.51100000000E-03 0. -1.
    9900012    2    1    2    0    0 -0.24547949855E+02 -0.23179405058E+02 -0.22655657310E+02  0.50528862416E+02  0.30000007800E+02 0.  0.
        -12    1    1    2    0    0  0.24547949855E+02  0.23179405058E+02  0.22655657310E+02  0.40659137584E+02  0.00000000000E+00 0.  1.
         11    1    3    3    0    0 -0.13155026195E+02  0.31884681913E+01 -0.11352696490E+02  0.17666486958E+02  0.51100000000E-03 0. -1.
        -11    1    3    3    0    0 -0.77230532219E+01 -0.19117084413E+02 -0.13246354426E+02  0.24506618970E+02  0.51100000000E-03 0.  1.
         12    1    3    3    0    0 -0.36698704383E+01 -0.72507888359E+01  0.19433936049E+01  0.83557564876E+01  0.00000000000E+00 0. -1.
</event>
<event>
 7    1  0.4994895E-011  0.5052886E+02  0.7816164E-02  0.1300439E+00
        -11   -1    0    0    0    0  0.00000000000E+00  0.00000000000E+00  0.45593999997E+02  0.45594000000E+02  0.51100000000E-03 0.  1.
         11   -1    0    0    0    0 -0.00000000000E+00 -0.00000000000E+00 -0.45593999997E+02  0.45594000000E+02  0.51100000000E-03 0. -1.
    9900012    2    1    2    0    0  0.10478019081E+02 -0.20116396055E+02 -0.33744740485E+02  0.50528858537E+02  0.29999996010E+02 0.  0.
        -12    1    1    2    0    0 -0.10478019081E+02  0.20116396055E+02  0.33744740485E+02  0.40659141463E+02  0.00000000000E+00 0.  1.
         11    1    3    3    0    0  0.14407831987E+02 -0.21847035145E+02 -0.30646558588E+02  0.40300001498E+02  0.51100000000E-03 0. -1.
        -11    1    3    3    0    0  0.66456191640E+00 -0.30001974126E+01 -0.38124695723E+00  0.30964780895E+01  0.51100000000E-03 0.  1.
         12    1    3    3    0    0 -0.45943748223E+01  0.47308365025E+01 -0.27169349400E+01  0.71323789502E+01  0.00000000000E+00 0. -1.
</event>
<event>
 7    1  0.4994895E-011  0.5052886E+02  0.7816164E-02  0.1300439E+00
        -11   -1    0    0    0    0  0.00000000000E+00  0.00000000000E+00  0.45593999997E+02  0.45594000000E+02  0.51100000000E-03 0. -1.
         11   -1    0    0    0    0 -0.00000000000E+00 -0.00000000000E+00 -0.45593999997E+02  0.45594000000E+02  0.51100000000E-03 0.  1.
    9900012    2    1    2    0    0  0.25083503992E+02 -0.24792352698E+02  0.20231725817E+02  0.50528860137E+02  0.30000000873E+02 0.  0.
        -12    1    1    2    0    0 -0.25083503992E+02  0.24792352698E+02 -0.20231725817E+02  0.40659139863E+02  0.00000000000E+00 0.  1.
         11    1    3    3    0    0  0.39941173186E+01  0.61292285697E+00  0.11075668751E+01  0.41899107660E+01  0.51100000000E-03 0. -1.
        -11    1    3    3    0    0  0.11190754708E+02 -0.15393902188E+02 -0.38280467058E+01  0.19412860617E+02  0.51100000000E-03 0.  1.
        -12    1    3    3    0    0  0.98986319653E+01 -0.10011373368E+02  0.22952205648E+02  0.26926088754E+02  0.00000000000E+00 0.  1.
</event>
<event>
 7    1  0.4994895E-011  0.5052887E+02  0.7816164E-02  0.1300439E+00
        -11   -1    0    0    0    0  0.00000000000E+00  0.00000000000E+00  0.45593999997E+02  0.45594000000E+02  0.51100000000E-03 0. -1.
         11   -1    0    0    0    0 -0.00000000000E+00 -0.00000000000E+00 -0.45593999997E+02  0.45594000000E+02  0.51100000000E-03 0.  1.
    9900012    2    1    2    0    0 -0.58748917385E+01 -0.38986053546E+02  0.99367101332E+01  0.50528869017E+02  0.30000027865E+02 0.  0.
        -12    1    1    2    0    0  0.58748917385E+01  0.38986053546E+02 -0.99367101332E+01  0.40659130983E+02  0.00000000000E+00 0.  1.
         11    1    3    3    0    0 -0.46142990111E+01 -0.27940698767E+02 -0.60728255726E+00  0.28325663193E+02  0.51100000000E-03 0. -1.
        -11    1    3    3    0    0  0.35589939769E+01  0.29111860119E+01  0.12818289210E+01  0.47733141283E+01  0.51100000000E-03 0.  1.
         12    1    3    3    0    0 -0.48195867043E+01 -0.13956540790E+02  0.92621637695E+01  0.17429891696E+02  0.00000000000E+00 0. -1.
</event>
<event>
 7    1  0.4994895E-011  0.5052888E+02  0.7816164E-02  0.1300439E+00
        -11   -1    0    0    0    0  0.00000000000E+00  0.00000000000E+00  0.45593999997E+02  0.45594000000E+02  0.51100000000E-03 0. -1.
         11   -1    0    0    0    0 -0.00000000000E+00 -0.00000000000E+00 -0.45593999997E+02  0.45594000000E+02  0.51100000000E-03 0.  1.
    9900012    2    1    2    0    0  0.26864833956E+02 -0.71661305604E+01  0.29666334001E+02  0.50528879206E+02  0.30000058833E+02 0.  0.
        -12    1    1    2    0    0 -0.26864833956E+02  0.71661305604E+01 -0.29666334001E+02  0.40659120794E+02  0.00000000000E+00 0.  1.
         11    1    3    3    0    0  0.18135980923E+02  0.36349742521E+00  0.27927189082E+02  0.33301258605E+02  0.51100000000E-03 0. -1.
        -11    1    3    3    0    0  0.16243097273E+00 -0.48356464621E+01 -0.42448053846E+01  0.64364767957E+01  0.51100000000E-03 0.  1.
        -12    1    3    3    0    0  0.85664220612E+01 -0.26939815236E+01  0.59839503031E+01  0.10791143805E+02  0.00000000000E+00 0.  1.
</event>
<event>
 7    1  0.4994895E-011  0.5052887E+02  0.7816164E-02  0.1300439E+00
        -11   -1    0    0    0    0  0.00000000000E+00  0.00000000000E+00  0.45593999997E+02  0.45594000000E+02  0.51100000000E-03 0. -1.
         11   -1    0    0    0    0 -0.00000000000E+00 -0.00000000000E+00 -0.45593999997E+02  0.45594000000E+02  0.51100000000E-03 0.  1.
    9900012    2    1    2    0    0 -0.36700144157E+02 -0.17327621557E+02  0.24531349408E+01  0.50528869155E+02  0.30000028285E+02 0.  0.
        -12    1    1    2    0    0  0.36700144157E+02  0.17327621557E+02 -0.24531349408E+01  0.40659130845E+02  0.00000000000E+00 0.  1.
         11    1    3    3    0    0 -0.22549249508E+02 -0.17540709752E+02  0.12425254801E+02  0.31153364331E+02  0.51100000000E-03 0. -1.
        -11    1    3    3    0    0 -0.67233713409E+01  0.36742352789E+01 -0.77213713629E+01  0.10877651541E+02  0.51100000000E-03 0.  1.
         12    1    3    3    0    0 -0.74275233080E+01 -0.34611470839E+01 -0.22507484971E+01  0.84978532833E+01  0.00000000000E+00 0. -1.
</event>
<event>
 7    1  0.4994895E-011  0.5052886E+02  0.7816164E-02  0.1300439E+00
        -11   -1    0    0    0    0  0.00000000000E+00  0.00000000000E+00  0.45593999997E+02  0.45594000000E+02  0.51100000000E-03 0.  1.
         11   -1    0    0    0    0 -0.00000000000E+00 -0.00000000000E+00 -0.45593999997E+02  0.45594000000E+02  0.51100000000E-03 0. -1.
    9900012    2    1    2    0    0 -0.87164146640E+01 -0.16318976748E+01 -0.39680306971E+02  0.50528859134E+02  0.29999997824E+02 0.  0.
        -12    1    1    2    0    0  0.87164146640E+01  0.16318976748E+01  0.39680306971E+02  0.40659140866E+02  0.00000000000E+00 0.  1.
         11    1    3    3    0    0 -0.42967262281E+01  0.68054288235E+00 -0.40785159104E+02  0.41016511288E+02  0.51100000000E-03 0. -1.
        -11    1    3    3    0    0 -0.38327610440E+01  0.21518329460E+01  0.21451821524E+01  0.48910376175E+01  0.51100000000E-03 0.  1.
        -12    1    3    3    0    0 -0.58692739187E+00 -0.44642735032E+01 -0.10403300203E+01  0.46213102283E+01  0.00000000000E+00 0.  1.
</event>
<event>
 7    1  0.4994895E-011  0.5052884E+02  0.7816164E-02  0.1300439E+00
        -11   -1    0    0    0    0  0.00000000000E+00  0.00000000000E+00  0.45593999997E+02  0.45594000000E+02  0.51100000000E-03 0.  1.
         11   -1    0    0    0    0 -0.00000000000E+00 -0.00000000000E+00 -0.45593999997E+02  0.45594000000E+02  0.51100000000E-03 0. -1.
    9900012    2    1    2    0    0 -0.26961129811E+02 -0.51922170306E+01 -0.29988431838E+02  0.50528835197E+02  0.29999925064E+02 0.  0.
        -12    1    1    2    0    0  0.26961129811E+02  0.51922170306E+01  0.29988431838E+02  0.40659164803E+02  0.00000000000E+00 0.  1.
         11    1    3    3    0    0 -0.14071889565E+02  0.15094499814E+01 -0.82664336351E+01  0.16389949374E+02  0.51100000000E-03 0. -1.
        -11    1    3    3    0    0  0.30210262549E+01 -0.10828739541E+01 -0.16004730345E+02  0.16323314899E+02  0.51100000000E-03 0.  1.
        -12    1    3    3    0    0 -0.15910266501E+02 -0.56187930578E+01 -0.57172678578E+01  0.17815570923E+02  0.00000000000E+00 0.  1.
</event>
<event>
 7    1  0.4994895E-011  0.5052885E+02  0.7816164E-02  0.1300439E+00
        -11   -1    0    0    0    0  0.00000000000E+00  0.00000000000E+00  0.45593999997E+02  0.45594000000E+02  0.51100000000E-03 0. -1.
         11   -1    0    0    0    0 -0.00000000000E+00 -0.00000000000E+00 -0.45593999997E+02  0.45594000000E+02  0.51100000000E-03 0.  1.
    9900012    2    1    2    0    0 -0.18008343392E+01  0.39223991933E+02 -0.10554724049E+02  0.50528846698E+02  0.29999960023E+02 0.  0.
        -12    1    1    2    0    0  0.18008343392E+01 -0.39223991933E+02  0.10554724049E+02  0.40659153302E+02  0.00000000000E+00 0.  1.
         11    1    3    3    0    0  0.42560910406E+00  0.41685743705E+02 -0.61844607039E+01  0.42144156485E+02  0.51100000000E-03 0. -1.
        -11    1    3    3    0    0 -0.11115523492E+01 -0.23980754501E+01 -0.59149322101E+01  0.64786370326E+01  0.51100000000E-03 0.  1.
        -12    1    3    3    0    0 -0.11148910941E+01 -0.63676321512E-01  0.15446688647E+01  0.19060531806E+01  0.00000000000E+00 0.  1.
</event>
<event>
 7    1  0.4994895E-011  0.5052885E+02  0.7816164E-02  0.1300439E+00
        -11   -1    0    0    0    0  0.00000000000E+00  0.00000000000E+00  0.45593999997E+02  0.45594000000E+02  0.51100000000E-03 0. -1.
         11   -1    0    0    0    0 -0.00000000000E+00 -0.00000000000E+00 -0.45593999997E+02  0.45594000000E+02  0.51100000000E-03 0.  1.
    9900012    2    1    2    0    0  0.95730646831E+01 -0.80957137568E+01  0.38677929067E+02  0.50528851638E+02  0.29999975038E+02 0.  0.
        -12    1    1    2    0    0 -0.95730646831E+01  0.80957137568E+01 -0.38677929067E+02  0.40659148362E+02  0.00000000000E+00 0.  1.
         11    1    3    3    0    0 -0.31527782272E+01 -0.16703823978E+02  0.18589758105E+02  0.25190014940E+02  0.51100000000E-03 0. -1.
        -11    1    3    3    0    0  0.37863573649E+01  0.20924217144E+01  0.66498739724E+01  0.79331932307E+01  0.51100000000E-03 0.  1.
         12    1    3    3    0    0  0.89394855454E+01  0.65156885063E+01  0.13438296990E+02  0.17405643467E+02  0.00000000000E+00 0. -1.
</event>
<event>
 7    1  0.4994895E-011  0.5052881E+02  0.7816164E-02  0.1300439E+00
        -11   -1    0    0    0    0  0.00000000000E+00  0.00000000000E+00  0.45593999997E+02  0.45594000000E+02  0.51100000000E-03 0. -1.
         11   -1    0    0    0    0 -0.00000000000E+00 -0.00000000000E+00 -0.45593999997E+02  0.45594000000E+02  0.51100000000E-03 0.  1.
    9900012    2    1    2    0    0  0.12084983617E+02  0.35085156522E+02  0.16617904737E+02  0.50528809218E+02  0.29999846099E+02 0.  0.
        -12    1    1    2    0    0 -0.12084983617E+02 -0.35085156522E+02 -0.16617904737E+02  0.40659190782E+02  0.00000000000E+00 0.  1.
         11    1    3    3    0    0 -0.42313190264E+01  0.41997713386E+01  0.96056465389E+01  0.11305334391E+02  0.51100000000E-03 0. -1.
        -11    1    3    3    0    0  0.12169597898E+02  0.31501919294E+02  0.38856294623E+01  0.33993648654E+02  0.51100000000E-03 0.  1.
        -12    1    3    3    0    0  0.41467047454E+01 -0.61653411044E+00  0.31266287354E+01  0.52298261734E+01  0.00000000000E+00 0.  1.
</event>
<event>
 7    1  0.4994895E-011  0.5052887E+02  0.7816164E-02  0.1300439E+00
        -11   -1    0    0    0    0  0.00000000000E+00  0.00000000000E+00  0.45593999997E+02  0.45594000000E+02  0.51100000000E-03 0. -1.
         11   -1    0    0    0    0 -0.00000000000E+00 -0.00000000000E+00 -0.45593999997E+02  0.45594000000E+02  0.51100000000E-03 0.  1.
    9900012    2    1    2    0    0 -0.51388735711E+01 -0.12341290644E+02  0.38398564543E+02  0.50528865291E+02  0.30000016538E+02 0.  0.
        -12    1    1    2    0    0  0.51388735711E+01  0.12341290644E+02 -0.38398564543E+02  0.40659134709E+02  0.00000000000E+00 0.  1.
         11    1    3    3    0    0 -0.29547311564E+01 -0.68133718763E+01  0.12310630506E+02  0.14377207526E+02  0.51100000000E-03 0. -1.
        -11    1    3    3    0    0  0.18810726150E+01  0.89588687040E+01  0.55966361210E+01  0.10729496669E+02  0.51100000000E-03 0.  1.
        -12    1    3    3    0    0 -0.40652150298E+01 -0.14486787472E+02  0.20491297916E+02  0.25422161096E+02  0.00000000000E+00 0.  1.
</event>
<event>
 7    1  0.4994895E-011  0.5052886E+02  0.7816164E-02  0.1300439E+00
        -11   -1    0    0    0    0  0.00000000000E+00  0.00000000000E+00  0.45593999997E+02  0.45594000000E+02  0.51100000000E-03 0. -1.
         11   -1    0    0    0    0 -0.00000000000E+00 -0.00000000000E+00 -0.45593999997E+02  0.45594000000E+02  0.51100000000E-03 0.  1.
    9900012    2    1    2    0    0  0.98022495928E+01 -0.38004624476E+02 -0.10617455977E+02  0.50528856501E+02  0.29999989821E+02 0.  0.
        -12    1    1    2    0    0 -0.98022495928E+01  0.38004624476E+02  0.10617455977E+02  0.40659143499E+02  0.00000000000E+00 0.  1.
         11    1    3    3    0    0  0.46880222961E+01 -0.81824429455E+01 -0.90179712775E+01  0.13048131354E+02  0.51100000000E-03 0. -1.
        -11    1    3    3    0    0 -0.67655401433E+00 -0.26470373170E+02  0.62094820013E+01  0.27197353696E+02  0.51100000000E-03 0.  1.
        -12    1    3    3    0    0  0.57907813110E+01 -0.33518083609E+01 -0.78089667005E+01  0.10283371452E+02  0.00000000000E+00 0.  1.
</event>
<event>
 7    1  0.4994895E-011  0.5052886E+02  0.7816164E-02  0.1300439E+00
        -11   -1    0    0    0    0  0.00000000000E+00  0.00000000000E+00  0.45593999997E+02  0.45594000000E+02  0.51100000000E-03 0. -1.
         11   -1    0    0    0    0 -0.00000000000E+00 -0.00000000000E+00 -0.45593999997E+02  0.45594000000E+02  0.51100000000E-03 0.  1.
    9900012    2    1    2    0    0 -0.11573302548E+02 -0.26457390256E+02  0.28622211155E+02  0.50528858317E+02  0.29999995341E+02 0.  0.
        -12    1    1    2    0    0  0.11573302548E+02  0.26457390256E+02 -0.28622211155E+02  0.40659141683E+02  0.00000000000E+00 0.  1.
         11    1    3    3    0    0 -0.98233904126E+01 -0.29121060561E+01  0.22961592249E+02  0.25143867637E+02  0.51100000000E-03 0. -1.
        -11    1    3    3    0    0  0.23748984565E+01 -0.14407861786E+02  0.21334247799E+01  0.14757307528E+02  0.51100000000E-03 0.  1.
         12    1    3    3    0    0 -0.41248105916E+01 -0.91374224132E+01  0.35271941258E+01  0.10627683152E+02  0.00000000000E+00 0. -1.
</event>
<event>
 7    1  0.4994895E-011  0.5052886E+02  0.7816164E-02  0.1300439E+00
        -11   -1    0    0    0    0  0.00000000000E+00  0.00000000000E+00  0.45593999997E+02  0.45594000000E+02  0.51100000000E-03 0. -1.
         11   -1    0    0    0    0 -0.00000000000E+00 -0.00000000000E+00 -0.45593999997E+02  0.45594000000E+02  0.51100000000E-03 0.  1.
    9900012    2    1    2    0    0  0.16401072218E+02 -0.24765610004E+02  0.27763921701E+02  0.50528856416E+02  0.29999989562E+02 0.  0.
        -12    1    1    2    0    0 -0.16401072218E+02  0.24765610004E+02 -0.27763921701E+02  0.40659143584E+02  0.00000000000E+00 0.  1.
         11    1    3    3    0    0  0.81913795853E+01 -0.74620687520E+01  0.27141092829E+02  0.29315867543E+02  0.51100000000E-03 0. -1.
        -11    1    3    3    0    0 -0.16312696436E+00 -0.36155616279E+01  0.33564844459E+01  0.49360798604E+01  0.51100000000E-03 0.  1.
         12    1    3    3    0    0  0.83728195975E+01 -0.13687979624E+02 -0.27336555747E+01  0.16276909012E+02  0.00000000000E+00 0. -1.
</event>
<event>
 7    1  0.4994895E-011  0.5052887E+02  0.7816164E-02  0.1300439E+00
        -11   -1    0    0    0    0  0.00000000000E+00  0.00000000000E+00  0.45593999997E+02  0.45594000000E+02  0.51100000000E-03 0.  1.
         11   -1    0    0    0    0 -0.00000000000E+00 -0.00000000000E+00 -0.45593999997E+02  0.45594000000E+02  0.51100000000E-03 0. -1.
    9900012    2    1    2    0    0  0.16510737199E+02 -0.15832755059E+02 -0.33613756539E+02  0.50528865672E+02  0.30000017697E+02 0.  0.
        -12    1    1    2    0    0 -0.16510737199E+02  0.15832755059E+02  0.33613756539E+02  0.40659134328E+02  0.00000000000E+00 0.  1.
         11    1    3    3    0    0  0.81705386111E+01  0.19812265436E+00 -0.24585325407E+02  0.25908206797E+02  0.51100000000E-03 0. -1.
        -11    1    3    3    0    0  0.39159334850E+01 -0.14886219048E+02 -0.11693311885E+02  0.19330483587E+02  0.51100000000E-03 0.  1.
        -12    1    3    3    0    0  0.44242651027E+01 -0.11446586652E+01  0.26648807528E+01  0.52901752888E+01  0.00000000000E+00 0.  1.
</event>
<event>
 7    1  0.4994895E-011  0.5052886E+02  0.7816164E-02  0.1300439E+00
        -11   -1    0    0    0    0  0.00000000000E+00  0.00000000000E+00  0.45593999997E+02  0.45594000000E+02  0.51100000000E-03 0.  1.
         11   -1    0    0    0    0 -0.00000000000E+00 -0.00000000000E+00 -0.45593999997E+02  0.45594000000E+02  0.51100000000E-03 0. -1.
    9900012    2    1    2    0    0  0.18900182507E+01 -0.37455210917E+02 -0.15706705823E+02  0.50528860786E+02  0.30000002846E+02 0.  0.
        -12    1    1    2    0    0 -0.18900182507E+01  0.37455210917E+02  0.15706705823E+02  0.40659139214E+02  0.00000000000E+00 0.  1.
         11    1    3    3    0    0 -0.61150835307E+01 -0.24605042525E+02 -0.11488726589E+02  0.27835107385E+02  0.51100000000E-03 0. -1.
        -11    1    3    3    0    0  0.81672355972E+01 -0.50809974965E+01 -0.93234553738E+01  0.13395786398E+02  0.51100000000E-03 0.  1.
         12    1    3    3    0    0 -0.16213381575E+00 -0.77691708952E+01  0.51054761397E+01  0.92979670028E+01  0.00000000000E+00 0. -1.
</event>
<event>
 7    1  0.4994895E-011  0.5052884E+02  0.7816164E-02  0.1300439E+00
        -11   -1    0    0    0    0  0.00000000000E+00  0.00000000000E+00  0.45593999997E+02  0.45594000000E+02  0.51100000000E-03 0.  1.
         11   -1    0    0    0    0 -0.00000000000E+00 -0.00000000000E+00 -0.45593999997E+02  0.45594000000E+02  0.51100000000E-03 0. -1.
    9900012    2    1    2    0    0 -0.38552305681E+02 -0.28778465599E+00 -0.12915263050E+02  0.50528842200E+02  0.29999946352E+02 0.  0.
        -12    1    1    2    0    0  0.38552305681E+02  0.28778465599E+00  0.12915263050E+02  0.40659157800E+02  0.00000000000E+00 0.  1.
         11    1    3    3    0    0 -0.15693571420E+02  0.11018572675E+02  0.27689652810E+01  0.19374320548E+02  0.51100000000E-03 0.  1.
        -11    1    3    3    0    0 -0.39507594732E+01 -0.39122173968E+01 -0.10069664974E+00  0.55609428563E+01  0.51100000000E-03 0. -1.
         12    1    3    3    0    0 -0.18907974788E+02 -0.73941399337E+01 -0.15583531681E+02  0.25593578796E+02  0.00000000000E+00 0. -1.
</event>
<event>
 7    1  0.4994895E-011  0.5052885E+02  0.7816164E-02  0.1300439E+00
        -11   -1    0    0    0    0  0.00000000000E+00  0.00000000000E+00  0.45593999997E+02  0.45594000000E+02  0.51100000000E-03 0. -1.
         11   -1    0    0    0    0 -0.00000000000E+00 -0.00000000000E+00 -0.45593999997E+02  0.45594000000E+02  0.51100000000E-03 0.  1.
    9900012    2    1    2    0    0 -0.24963186712E+02  0.26448589677E+02  0.18179053331E+02  0.50528848918E+02  0.29999966771E+02 0.  0.
        -12    1    1    2    0    0  0.24963186712E+02 -0.26448589677E+02 -0.18179053331E+02  0.40659151082E+02  0.00000000000E+00 0.  1.
         11    1    3    3    0    0 -0.11993965827E+02  0.13736827417E+02  0.20071439716E+02  0.27118597609E+02  0.51100000000E-03 0. -1.
        -11    1    3    3    0    0 -0.84953428800E+01  0.58182139886E+01 -0.81084434049E+01  0.13106079482E+02  0.51100000000E-03 0.  1.
        -12    1    3    3    0    0 -0.44738780050E+01  0.68935482717E+01  0.62160570198E+01  0.10304171827E+02  0.00000000000E+00 0.  1.
</event>
<event>
 7    1  0.4994895E-011  0.5052886E+02  0.7816164E-02  0.1300439E+00
        -11   -1    0    0    0    0  0.00000000000E+00  0.00000000000E+00  0.45593999997E+02  0.45594000000E+02  0.51100000000E-03 0.  1.
         11   -1    0    0    0    0 -0.00000000000E+00 -0.00000000000E+00 -0.45593999997E+02  0.45594000000E+02  0.51100000000E-03 0. -1.
    9900012    2    1    2    0    0 -0.20759085024E+02  0.30434304315E+02 -0.17204045331E+02  0.50528859995E+02  0.30000000441E+02 0.  0.
        -12    1    1    2    0    0  0.20759085024E+02 -0.30434304315E+02  0.17204045331E+02  0.40659140005E+02  0.00000000000E+00 0.  1.
         11    1    3    3    0    0 -0.84565239849E+01  0.14376136478E+02 -0.85749296177E+01  0.18754079987E+02  0.51100000000E-03 0. -1.
        -11    1    3    3    0    0 -0.10172510928E+02 -0.99218963701E+00 -0.10300428478E+02  0.14510797564E+02  0.51100000000E-03 0.  1.
        -12    1    3    3    0    0 -0.21300501108E+01  0.17050357474E+02  0.16713127646E+01  0.17263982444E+02  0.00000000000E+00 0.  1.
</event>
<event>
 7    1  0.4994895E-011  0.5052885E+02  0.7816164E-02  0.1300439E+00
        -11   -1    0    0    0    0  0.00000000000E+00  0.00000000000E+00  0.45593999997E+02  0.45594000000E+02  0.51100000000E-03 0.  1.
         11   -1    0    0    0    0 -0.00000000000E+00 -0.00000000000E+00 -0.45593999997E+02  0.45594000000E+02  0.51100000000E-03 0. -1.
    9900012    2    1    2    0    0  0.22827517308E+02 -0.19642718818E+02 -0.27317288238E+02  0.50528853603E+02  0.29999981013E+02 0.  0.
        -12    1    1    2    0    0 -0.22827517308E+02  0.19642718818E+02  0.27317288238E+02  0.40659146397E+02  0.00000000000E+00 0.  1.
         11    1    3    3    0    0  0.80614074213E+01 -0.12184676598E+02 -0.20394955398E+02  0.25087981971E+02  0.51100000000E-03 0. -1.
        -11    1    3    3    0    0  0.10591707485E+02  0.41701198665E+01 -0.21991354954E+00  0.11385189036E+02  0.51100000000E-03 0.  1.
        -12    1    3    3    0    0  0.41744024015E+01 -0.11628162086E+02 -0.67024192907E+01  0.14055682597E+02  0.00000000000E+00 0.  1.
</event>
<event>
 7    1  0.4994895E-011  0.5052886E+02  0.7816164E-02  0.1300439E+00
        -11   -1    0    0    0    0  0.00000000000E+00  0.00000000000E+00  0.45593999997E+02  0.45594000000E+02  0.51100000000E-03 0.  1.
         11   -1    0    0    0    0 -0.00000000000E+00 -0.00000000000E+00 -0.45593999997E+02  0.45594000000E+02  0.51100000000E-03 0. -1.
    9900012    2    1    2    0    0  0.15429421171E+02  0.17237437463E+02 -0.33436054101E+02  0.50528855865E+02  0.29999987888E+02 0.  0.
        -12    1    1    2    0    0 -0.15429421171E+02 -0.17237437463E+02  0.33436054101E+02  0.40659144135E+02  0.00000000000E+00 0.  1.
         11    1    3    3    0    0  0.40786801433E+01  0.65179267365E+01 -0.23975811480E+02  0.25178533259E+02  0.51100000000E-03 0. -1.
        -11    1    3    3    0    0  0.10378610982E+01  0.23591407467E+01  0.50582624392E+01  0.56770344271E+01  0.51100000000E-03 0.  1.
        -12    1    3    3    0    0  0.10312879929E+02  0.83603699800E+01 -0.14518505059E+02  0.19673288179E+02  0.00000000000E+00 0.  1.
</event>
<event>
 7    1  0.4994895E-011  0.5052885E+02  0.7816164E-02  0.1300439E+00
        -11   -1    0    0    0    0  0.00000000000E+00  0.00000000000E+00  0.45593999997E+02  0.45594000000E+02  0.51100000000E-03 0.  1.
         11   -1    0    0    0    0 -0.00000000000E+00 -0.00000000000E+00 -0.45593999997E+02  0.45594000000E+02  0.51100000000E-03 0. -1.
    9900012    2    1    2    0    0 -0.22415684080E+02 -0.92764561206E+01 -0.32628983451E+02  0.50528854756E+02  0.29999984517E+02 0.  0.
        -12    1    1    2    0    0  0.22415684080E+02  0.92764561206E+01  0.32628983451E+02  0.40659145244E+02  0.00000000000E+00 0.  1.
         11    1    3    3    0    0 -0.12587008770E+02 -0.83562284826E+01 -0.21668116937E+02  0.26415272781E+02  0.51100000000E-03 0. -1.
        -11    1    3    3    0    0 -0.13027328232E+01  0.79017655542E+01 -0.83510535534E+01  0.11570441106E+02  0.51100000000E-03 0.  1.
        -12    1    3    3    0    0 -0.85259424868E+01 -0.88219931922E+01 -0.26098129603E+01  0.12543140869E+02  0.00000000000E+00 0.  1.
</event>
<event>
 7    1  0.4994895E-011  0.5052886E+02  0.7816164E-02  0.1300439E+00
        -11   -1    0    0    0    0  0.00000000000E+00  0.00000000000E+00  0.45593999997E+02  0.45594000000E+02  0.51100000000E-03 0.  1.
         11   -1    0    0    0    0 -0.00000000000E+00 -0.00000000000E+00 -0.45593999997E+02  0.45594000000E+02  0.51100000000E-03 0. -1.
    9900012    2    1    2    0    0 -0.24303871658E+02  0.10382663440E+02 -0.30898016998E+02  0.50528864101E+02  0.30000012921E+02 0.  0.
        -12    1    1    2    0    0  0.24303871658E+02 -0.10382663440E+02  0.30898016998E+02  0.40659135899E+02  0.00000000000E+00 0.  1.
         11    1    3    3    0    0  0.22999220870E+01  0.62830718016E+01 -0.83362794394E+01  0.10689255728E+02  0.51100000000E-03 0. -1.
        -11    1    3    3    0    0 -0.22755782089E+02  0.10026387776E+02 -0.21125249368E+02  0.32628671923E+02  0.51100000000E-03 0.  1.
        -12    1    3    3    0    0 -0.38480116560E+01 -0.59267961377E+01 -0.14364881901E+01  0.72109364498E+01  0.00000000000E+00 0.  1.
</event>
<event>
 7    1  0.4994895E-011  0.5052886E+02  0.7816164E-02  0.1300439E+00
        -11   -1    0    0    0    0  0.00000000000E+00  0.00000000000E+00  0.45593999997E+02  0.45594000000E+02  0.51100000000E-03 0.  1.
         11   -1    0    0    0    0 -0.00000000000E+00 -0.00000000000E+00 -0.45593999997E+02  0.45594000000E+02  0.51100000000E-03 0. -1.
    9900012    2    1    2    0    0  0.15470279107E+02  0.36522969692E+02 -0.89391924982E+01  0.50528855723E+02  0.29999987457E+02 0.  0.
        -12    1    1    2    0    0 -0.15470279107E+02 -0.36522969692E+02  0.89391924982E+01  0.40659144277E+02  0.00000000000E+00 0.  1.
         11    1    3    3    0    0  0.21143782980E+02  0.19355925287E+02 -0.73250415417E+01  0.29586612450E+02  0.51100000000E-03 0. -1.
        -11    1    3    3    0    0 -0.40845317911E+01  0.17709717053E+02  0.57448982335E+00  0.18183715705E+02  0.51100000000E-03 0.  1.
         12    1    3    3    0    0 -0.15889720817E+01 -0.54267264773E+00 -0.21886407799E+01  0.27585275678E+01  0.00000000000E+00 0. -1.
</event>
<event>
 7    1  0.4994895E-011  0.5052886E+02  0.7816164E-02  0.1300439E+00
        -11   -1    0    0    0    0  0.00000000000E+00  0.00000000000E+00  0.45593999997E+02  0.45594000000E+02  0.51100000000E-03 0.  1.
         11   -1    0    0    0    0 -0.00000000000E+00 -0.00000000000E+00 -0.45593999997E+02  0.45594000000E+02  0.51100000000E-03 0. -1.
    9900012    2    1    2    0    0 -0.38698381073E+02  0.10641681409E+02 -0.65081089438E+01  0.50528861262E+02  0.30000004292E+02 0.  0.
        -12    1    1    2    0    0  0.38698381073E+02 -0.10641681409E+02  0.65081089438E+01  0.40659138738E+02  0.00000000000E+00 0.  1.
         11    1    3    3    0    0 -0.18695779114E+02 -0.44219297525E+01 -0.45479409809E+01  0.19742578019E+02  0.51100000000E-03 0. -1.
        -11    1    3    3    0    0 -0.22552698273E+02  0.13346105234E+02 -0.47522040807E+01  0.26633177958E+02  0.51100000000E-03 0.  1.
        -12    1    3    3    0    0  0.25500963135E+01  0.17175059276E+01  0.27920361178E+01  0.41531052844E+01  0.00000000000E+00 0.  1.
</event>
<event>
 7    1  0.4994895E-011  0.5052886E+02  0.7816164E-02  0.1300439E+00
        -11   -1    0    0    0    0  0.00000000000E+00  0.00000000000E+00  0.45593999997E+02  0.45594000000E+02  0.51100000000E-03 0.  1.
         11   -1    0    0    0    0 -0.00000000000E+00 -0.00000000000E+00 -0.45593999997E+02  0.45594000000E+02  0.51100000000E-03 0. -1.
    9900012    2    1    2    0    0  0.11829054145E+02 -0.30624980763E+01 -0.38779638104E+02  0.50528858987E+02  0.29999997378E+02 0.  0.
        -12    1    1    2    0    0 -0.11829054145E+02  0.30624980763E+01  0.38779638104E+02  0.40659141013E+02  0.00000000000E+00 0.  1.
         11    1    3    3    0    0  0.42265999280E+01  0.39102744000E+00 -0.11740525560E+02  0.12484269706E+02  0.51100000000E-03 0. -1.
        -11    1    3    3    0    0 -0.69851195827E+01 -0.79612251041E+01 -0.16063618757E+02  0.19240916002E+02  0.51100000000E-03 0.  1.
        -12    1    3    3    0    0  0.14587573800E+02  0.45076995878E+01 -0.10975493786E+02  0.18803673279E+02  0.00000000000E+00 0.  1.
</event>
<event>
 7    1  0.4994895E-011  0.5052888E+02  0.7816164E-02  0.1300439E+00
        -11   -1    0    0    0    0  0.00000000000E+00  0.00000000000E+00  0.45593999997E+02  0.45594000000E+02  0.51100000000E-03 0.  1.
         11   -1    0    0    0    0 -0.00000000000E+00 -0.00000000000E+00 -0.45593999997E+02  0.45594000000E+02  0.51100000000E-03 0. -1.
    9900012    2    1    2    0    0 -0.24701208744E+02  0.83843998078E+01 -0.31188403630E+02  0.50528875630E+02  0.30000047964E+02 0.  0.
        -12    1    1    2    0    0  0.24701208744E+02 -0.83843998078E+01  0.31188403630E+02  0.40659124370E+02  0.00000000000E+00 0.  1.
         11    1    3    3    0    0  0.25150054853E+01 -0.71650569018E+01 -0.69771908728E+01  0.10312346277E+02  0.51100000000E-03 0. -1.
        -11    1    3    3    0    0 -0.11282538977E+02  0.26157909977E+01 -0.83031837035E+01  0.14250645887E+02  0.51100000000E-03 0.  1.
         12    1    3    3    0    0 -0.15933675252E+02  0.12933665712E+02 -0.15908029054E+02  0.25965883466E+02  0.00000000000E+00 0. -1.
</event>
<event>
 7    1  0.4994895E-011  0.5052887E+02  0.7816164E-02  0.1300439E+00
        -11   -1    0    0    0    0  0.00000000000E+00  0.00000000000E+00  0.45593999997E+02  0.45594000000E+02  0.51100000000E-03 0.  1.
         11   -1    0    0    0    0 -0.00000000000E+00 -0.00000000000E+00 -0.45593999997E+02  0.45594000000E+02  0.51100000000E-03 0. -1.
    9900012    2    1    2    0    0  0.24569478935E+02  0.83917243278E+01 -0.31290327590E+02  0.50528869008E+02  0.30000027837E+02 0.  0.
        -12    1    1    2    0    0 -0.24569478935E+02 -0.83917243278E+01  0.31290327590E+02  0.40659130992E+02  0.00000000000E+00 0.  1.
         11    1    3    3    0    0  0.27533852430E+02  0.71161320716E+01 -0.14023342350E+02  0.31708145582E+02  0.51100000000E-03 0. -1.
        -11    1    3    3    0    0 -0.31194772768E+01  0.37751173239E+01 -0.10009046158E+02  0.11142874609E+02  0.51100000000E-03 0.  1.
         12    1    3    3    0    0  0.15510378131E+00 -0.24995250677E+01 -0.72579390823E+01  0.76778488178E+01  0.00000000000E+00 0. -1.
</event>
<event>
 7    1  0.4994895E-011  0.5052886E+02  0.7816164E-02  0.1300439E+00
        -11   -1    0    0    0    0  0.00000000000E+00  0.00000000000E+00  0.45593999997E+02  0.45594000000E+02  0.51100000000E-03 0. -1.
         11   -1    0    0    0    0 -0.00000000000E+00 -0.00000000000E+00 -0.45593999997E+02  0.45594000000E+02  0.51100000000E-03 0.  1.
    9900012    2    1    2    0    0  0.34962602307E+02 -0.20741657389E+02  0.75210064045E+00  0.50528861216E+02  0.30000004152E+02 0.  0.
        -12    1    1    2    0    0 -0.34962602307E+02  0.20741657389E+02 -0.75210064045E+00  0.40659138784E+02  0.00000000000E+00 0.  1.
         11    1    3    3    0    0 -0.66004250378E+00 -0.76067825185E+01 -0.42352602754E+01  0.87313358802E+01  0.51100000000E-03 0. -1.
        -11    1    3    3    0    0  0.72800601242E+01  0.38309395279E+01 -0.78749429724E+00  0.82641103942E+01  0.51100000000E-03 0.  1.
         12    1    3    3    0    0  0.28342584686E+02 -0.16965814398E+02  0.57748552131E+01  0.33533414941E+02  0.00000000000E+00 0. -1.
</event>
<event>
 7    1  0.4994895E-011  0.5052885E+02  0.7816164E-02  0.1300439E+00
        -11   -1    0    0    0    0  0.00000000000E+00  0.00000000000E+00  0.45593999997E+02  0.45594000000E+02  0.51100000000E-03 0. -1.
         11   -1    0    0    0    0 -0.00000000000E+00 -0.00000000000E+00 -0.45593999997E+02  0.45594000000E+02  0.51100000000E-03 0.  1.
    9900012    2    1    2    0    0  0.32793822677E+02 -0.90375572763E+00  0.24019052075E+02  0.50528850442E+02  0.29999971404E+02 0.  0.
        -12    1    1    2    0    0 -0.32793822677E+02  0.90375572763E+00 -0.24019052075E+02  0.40659149558E+02  0.00000000000E+00 0.  1.
         11    1    3    3    0    0  0.72507359783E+01  0.62804514991E+01  0.14603585080E+02  0.17472319271E+02  0.51100000000E-03 0. -1.
        -11    1    3    3    0    0  0.29207460962E+01 -0.84483527069E+01  0.15492048374E+01  0.90722355078E+01  0.51100000000E-03 0.  1.
         12    1    3    3    0    0  0.22622340603E+02  0.12641454802E+01  0.78662621580E+01  0.23984295664E+02  0.00000000000E+00 0. -1.
</event>
<event>
 7    1  0.4994895E-011  0.5052886E+02  0.7816164E-02  0.1300439E+00
        -11   -1    0    0    0    0  0.00000000000E+00  0.00000000000E+00  0.45593999997E+02  0.45594000000E+02  0.51100000000E-03 0. -1.
         11   -1    0    0    0    0 -0.00000000000E+00 -0.00000000000E+00 -0.45593999997E+02  0.45594000000E+02  0.51100000000E-03 0.  1.
    9900012    2    1    2    0    0 -0.13633918827E+02  0.17504818002E+02  0.34071439651E+02  0.50528863318E+02  0.30000010541E+02 0.  0.
        -12    1    1    2    0    0  0.13633918827E+02 -0.17504818002E+02 -0.34071439651E+02  0.40659136682E+02  0.00000000000E+00 0.  1.
         11    1    3    3    0    0 -0.48673031715E+01 -0.13006021563E+01 -0.28265089890E+00  0.50459982089E+01  0.51100000000E-03 0.  1.
        -11    1    3    3    0    0 -0.13676776885E+02  0.87044730062E+01  0.28571548187E+02  0.32850501402E+02  0.51100000000E-03 0. -1.
        -12    1    3    3    0    0  0.49101612294E+01  0.10100947152E+02  0.57825423626E+01  0.12632363707E+02  0.00000000000E+00 0.  1.
</event>
<event>
 7    1  0.4994895E-011  0.5052885E+02  0.7816164E-02  0.1300439E+00
        -11   -1    0    0    0    0  0.00000000000E+00  0.00000000000E+00  0.45593999997E+02  0.45594000000E+02  0.51100000000E-03 0.  1.
         11   -1    0    0    0    0 -0.00000000000E+00 -0.00000000000E+00 -0.45593999997E+02  0.45594000000E+02  0.51100000000E-03 0. -1.
    9900012    2    1    2    0    0  0.52000838910E+00  0.39347779780E+02 -0.10229777449E+02  0.50528849382E+02  0.29999968180E+02 0.  0.
        -12    1    1    2    0    0 -0.52000838910E+00 -0.39347779780E+02  0.10229777449E+02  0.40659150618E+02  0.00000000000E+00 0.  1.
         11    1    3    3    0    0  0.12748530100E+02  0.27026974118E+02 -0.11357561715E+02  0.31968368086E+02  0.51100000000E-03 0. -1.
        -11    1    3    3    0    0 -0.11809792458E+02  0.12043727438E+02 -0.48151960810E+00  0.16874668290E+02  0.51100000000E-03 0.  1.
        -12    1    3    3    0    0 -0.41872925279E+00  0.27707822428E+00  0.16093038746E+01  0.16858130057E+01  0.00000000000E+00 0.  1.
</event>
<event>
 7    1  0.4994895E-011  0.5052885E+02  0.7816164E-02  0.1300439E+00
        -11   -1    0    0    0    0  0.00000000000E+00  0.00000000000E+00  0.45593999997E+02  0.45594000000E+02  0.51100000000E-03 0.  1.
         11   -1    0    0    0    0 -0.00000000000E+00 -0.00000000000E+00 -0.45593999997E+02  0.45594000000E+02  0.51100000000E-03 0. -1.
    9900012    2    1    2    0    0  0.33991414799E+02  0.66739024303E+01 -0.21288718361E+02  0.50528846257E+02  0.29999958681E+02 0.  0.
        -12    1    1    2    0    0 -0.33991414799E+02 -0.66739024303E+01  0.21288718361E+02  0.40659153743E+02  0.00000000000E+00 0.  1.
         11    1    3    3    0    0  0.22888165774E+02  0.76763070772E+01 -0.10306021391E+02  0.26248959979E+02  0.51100000000E-03 0. -1.
        -11    1    3    3    0    0 -0.13136469210E+01  0.18409565818E+01 -0.11313468979E+02  0.11537303410E+02  0.51100000000E-03 0.  1.
        -12    1    3    3    0    0  0.12416895946E+02 -0.28433612288E+01  0.33077200883E+00  0.12742582867E+02  0.00000000000E+00 0.  1.
</event>
<event>
 7    1  0.4994895E-011  0.5052886E+02  0.7816164E-02  0.1300439E+00
        -11   -1    0    0    0    0  0.00000000000E+00  0.00000000000E+00  0.45593999997E+02  0.45594000000E+02  0.51100000000E-03 0.  1.
         11   -1    0    0    0    0 -0.00000000000E+00 -0.00000000000E+00 -0.45593999997E+02  0.45594000000E+02  0.51100000000E-03 0. -1.
    9900012    2    1    2    0    0  0.14214671610E+01  0.35679710735E+02 -0.19444870072E+02  0.50528864505E+02  0.30000014151E+02 0.  0.
        -12    1    1    2    0    0 -0.14214671610E+01 -0.35679710735E+02  0.19444870072E+02  0.40659135495E+02  0.00000000000E+00 0.  1.
         11    1    3    3    0    0  0.65221417986E+00 -0.22855869018E+00  0.32644234582E+01  0.33367773655E+01  0.51100000000E-03 0.  1.
        -11    1    3    3    0    0 -0.31150982635E+01  0.27149916566E+02 -0.25327252559E+02  0.37259784342E+02  0.51100000000E-03 0. -1.
         12    1    3    3    0    0  0.38843512446E+01  0.87583528591E+01  0.26179590287E+01  0.99323027981E+01  0.00000000000E+00 0. -1.
</event>
<event>
 7    1  0.4994895E-011  0.5052886E+02  0.7816164E-02  0.1300439E+00
        -11   -1    0    0    0    0  0.00000000000E+00  0.00000000000E+00  0.45593999997E+02  0.45594000000E+02  0.51100000000E-03 0.  1.
         11   -1    0    0    0    0 -0.00000000000E+00 -0.00000000000E+00 -0.45593999997E+02  0.45594000000E+02  0.51100000000E-03 0. -1.
    9900012    2    1    2    0    0 -0.40918875610E+01  0.22100553000E+02 -0.33881972768E+02  0.50528855083E+02  0.29999985511E+02 0.  0.
        -12    1    1    2    0    0  0.40918875610E+01 -0.22100553000E+02  0.33881972768E+02  0.40659144917E+02  0.00000000000E+00 0.  1.
         11    1    3    3    0    0 -0.11623887813E+02  0.21126577846E+02 -0.27529932949E+02  0.36597052720E+02  0.51100000000E-03 0. -1.
        -11    1    3    3    0    0 -0.17461884652E+01 -0.53220651808E+00  0.92311872716E+00  0.20456212698E+01  0.51100000000E-03 0.  1.
         12    1    3    3    0    0  0.92781887172E+01  0.15061816718E+01 -0.72751585466E+01  0.11886181093E+02  0.00000000000E+00 0. -1.
</event>
<event>
 7    1  0.4994895E-011  0.5052885E+02  0.7816164E-02  0.1300439E+00
        -11   -1    0    0    0    0  0.00000000000E+00  0.00000000000E+00  0.45593999997E+02  0.45594000000E+02  0.51100000000E-03 0.  1.
         11   -1    0    0    0    0 -0.00000000000E+00 -0.00000000000E+00 -0.45593999997E+02  0.45594000000E+02  0.51100000000E-03 0. -1.
    9900012    2    1    2    0    0 -0.30248387521E+02  0.34994263941E+01 -0.26943557842E+02  0.50528852913E+02  0.29999978913E+02 0.  0.
        -12    1    1    2    0    0  0.30248387521E+02 -0.34994263941E+01  0.26943557842E+02  0.40659147087E+02  0.00000000000E+00 0.  1.
         11    1    3    3    0    0 -0.79877342230E+01  0.60139632271E+01 -0.13972222247E+02  0.17181229482E+02  0.51100000000E-03 0. -1.
        -11    1    3    3    0    0 -0.79547400602E+01  0.54551213759E+01  0.33657893593E+01  0.10215908032E+02  0.51100000000E-03 0.  1.
        -12    1    3    3    0    0 -0.14305913237E+02 -0.79696582090E+01 -0.16337124954E+02  0.23131715399E+02  0.00000000000E+00 0.  1.
</event>
<event>
 7    1  0.4994895E-011  0.5052886E+02  0.7816164E-02  0.1300439E+00
        -11   -1    0    0    0    0  0.00000000000E+00  0.00000000000E+00  0.45593999997E+02  0.45594000000E+02  0.51100000000E-03 0.  1.
         11   -1    0    0    0    0 -0.00000000000E+00 -0.00000000000E+00 -0.45593999997E+02  0.45594000000E+02  0.51100000000E-03 0. -1.
    9900012    2    1    2    0    0  0.35009621103E+02  0.31475156278E+01 -0.20434911863E+02  0.50528855306E+02  0.29999986187E+02 0.  0.
        -12    1    1    2    0    0 -0.35009621103E+02 -0.31475156278E+01  0.20434911863E+02  0.40659144694E+02  0.00000000000E+00 0.  1.
         11    1    3    3    0    0  0.14910802435E+02  0.14872319533E+02 -0.12968239900E+02  0.24732431420E+02  0.51100000000E-03 0. -1.
        -11    1    3    3    0    0  0.13342256913E+01 -0.40802018000E+01 -0.23684928595E+01  0.49028525993E+01  0.51100000000E-03 0.  1.
         12    1    3    3    0    0  0.18764592977E+02 -0.76446021055E+01 -0.50981791033E+01  0.20893571287E+02  0.00000000000E+00 0. -1.
</event>
<event>
 7    1  0.4994895E-011  0.5052886E+02  0.7816164E-02  0.1300439E+00
        -11   -1    0    0    0    0  0.00000000000E+00  0.00000000000E+00  0.45593999997E+02  0.45594000000E+02  0.51100000000E-03 0.  1.
         11   -1    0    0    0    0 -0.00000000000E+00 -0.00000000000E+00 -0.45593999997E+02  0.45594000000E+02  0.51100000000E-03 0. -1.
    9900012    2    1    2    0    0 -0.20872291804E+02  0.22696488524E+00 -0.34892143252E+02  0.50528859097E+02  0.29999997713E+02 0.  0.
        -12    1    1    2    0    0  0.20872291804E+02 -0.22696488524E+00  0.34892143252E+02  0.40659140903E+02  0.00000000000E+00 0.  1.
         11    1    3    3    0    0  0.24840090129E+01  0.53659770536E+01 -0.16365919147E+02  0.17401359725E+02  0.51100000000E-03 0. -1.
        -11    1    3    3    0    0 -0.21273293264E+02 -0.39089373124E+01 -0.92209978548E+01  0.23512966612E+02  0.51100000000E-03 0.  1.
        -12    1    3    3    0    0 -0.20830075533E+01 -0.12300748560E+01 -0.93052262505E+01  0.96145327599E+01  0.00000000000E+00 0.  1.
</event>
<event>
 7    1  0.4994895E-011  0.5052886E+02  0.7816164E-02  0.1300439E+00
        -11   -1    0    0    0    0  0.00000000000E+00  0.00000000000E+00  0.45593999997E+02  0.45594000000E+02  0.51100000000E-03 0.  1.
         11   -1    0    0    0    0 -0.00000000000E+00 -0.00000000000E+00 -0.45593999997E+02  0.45594000000E+02  0.51100000000E-03 0. -1.
    9900012    2    1    2    0    0 -0.11657350903E+00  0.86966343112E+01 -0.39718013226E+02  0.50528860655E+02  0.30000002446E+02 0.  0.
        -12    1    1    2    0    0  0.11657350903E+00 -0.86966343112E+01  0.39718013226E+02  0.40659139345E+02  0.00000000000E+00 0.  1.
         11    1    3    3    0    0 -0.34920447055E+01 -0.23998544009E+01  0.15239803598E+01  0.45029094782E+01  0.51100000000E-03 0.  1.
        -11    1    3    3    0    0  0.10155633678E+02  0.56400147686E+01 -0.21155763597E+02  0.24135305998E+02  0.51100000000E-03 0. -1.
         12    1    3    3    0    0 -0.67801624816E+01  0.54564739436E+01 -0.20086229988E+02  0.21890645178E+02  0.00000000000E+00 0. -1.
</event>
<event>
 7    1  0.4994895E-011  0.5052887E+02  0.7816164E-02  0.1300439E+00
        -11   -1    0    0    0    0  0.00000000000E+00  0.00000000000E+00  0.45593999997E+02  0.45594000000E+02  0.51100000000E-03 0.  1.
         11   -1    0    0    0    0 -0.00000000000E+00 -0.00000000000E+00 -0.45593999997E+02  0.45594000000E+02  0.51100000000E-03 0. -1.
    9900012    2    1    2    0    0 -0.33954511533E+02  0.47041438358E+01 -0.21866122729E+02  0.50528866390E+02  0.30000019879E+02 0.  0.
        -12    1    1    2    0    0  0.33954511533E+02 -0.47041438358E+01  0.21866122729E+02  0.40659133610E+02  0.00000000000E+00 0.  1.
         11    1    3    3    0    0 -0.23166890047E+02 -0.30749528464E+01 -0.10840312938E+02  0.25761842215E+02  0.51100000000E-03 0. -1.
        -11    1    3    3    0    0  0.43850453022E+01  0.45878095134E+01 -0.51975762241E+01  0.82031346021E+01  0.51100000000E-03 0.  1.
        -12    1    3    3    0    0 -0.15172666789E+02  0.31912871688E+01 -0.58282335666E+01  0.16563889573E+02  0.00000000000E+00 0.  1.
</event>
<event>
 7    1  0.4994895E-011  0.5052886E+02  0.7816164E-02  0.1300439E+00
        -11   -1    0    0    0    0  0.00000000000E+00  0.00000000000E+00  0.45593999997E+02  0.45594000000E+02  0.51100000000E-03 0.  1.
         11   -1    0    0    0    0 -0.00000000000E+00 -0.00000000000E+00 -0.45593999997E+02  0.45594000000E+02  0.51100000000E-03 0. -1.
    9900012    2    1    2    0    0 -0.18547370167E+01  0.30835129089E+02 -0.26437109120E+02  0.50528856207E+02  0.29999988926E+02 0.  0.
        -12    1    1    2    0    0  0.18547370167E+01 -0.30835129089E+02  0.26437109120E+02  0.40659143793E+02  0.00000000000E+00 0.  1.
         11    1    3    3    0    0 -0.59584125562E+01  0.28256457341E+01 -0.12600212353E+02  0.14221543714E+02  0.51100000000E-03 0. -1.
        -11    1    3    3    0    0 -0.34775524879E+01  0.20260051777E+02 -0.26452152574E+01  0.20725834925E+02  0.51100000000E-03 0.  1.
        -12    1    3    3    0    0  0.75812280274E+01  0.77494315784E+01 -0.11191681510E+02  0.15581477569E+02  0.00000000000E+00 0.  1.
</event>
<event>
 7    1  0.4994895E-011  0.5052886E+02  0.7816164E-02  0.1300439E+00
        -11   -1    0    0    0    0  0.00000000000E+00  0.00000000000E+00  0.45593999997E+02  0.45594000000E+02  0.51100000000E-03 0.  1.
         11   -1    0    0    0    0 -0.00000000000E+00 -0.00000000000E+00 -0.45593999997E+02  0.45594000000E+02  0.51100000000E-03 0. -1.
    9900012    2    1    2    0    0  0.20692938039E+02 -0.30038602969E+02 -0.17962472298E+02  0.50528858788E+02  0.29999996773E+02 0.  0.
        -12    1    1    2    0    0 -0.20692938039E+02  0.30038602969E+02  0.17962472298E+02  0.40659141212E+02  0.00000000000E+00 0.  1.
         11    1    3    3    0    0  0.12931177780E+01 -0.43770379368E+01  0.63462923979E+01  0.78170353810E+01  0.51100000000E-03 0. -1.
        -11    1    3    3    0    0  0.15894730969E+02 -0.11940234849E+02 -0.88927541666E+01  0.21778263424E+02  0.51100000000E-03 0.  1.
         12    1    3    3    0    0  0.35050892914E+01 -0.13721330183E+02 -0.15416010529E+02  0.20933559983E+02  0.00000000000E+00 0. -1.
</event>
<event>
 7    1  0.4994895E-011  0.5052885E+02  0.7816164E-02  0.1300439E+00
        -11   -1    0    0    0    0  0.00000000000E+00  0.00000000000E+00  0.45593999997E+02  0.45594000000E+02  0.51100000000E-03 0.  1.
         11   -1    0    0    0    0 -0.00000000000E+00 -0.00000000000E+00 -0.45593999997E+02  0.45594000000E+02  0.51100000000E-03 0. -1.
    9900012    2    1    2    0    0  0.39720972946E+02  0.84532234422E+01  0.19885006133E+01  0.50528845889E+02  0.29999957564E+02 0.  0.
        -12    1    1    2    0    0 -0.39720972946E+02 -0.84532234422E+01 -0.19885006133E+01  0.40659154111E+02  0.00000000000E+00 0.  1.
         11    1    3    3    0    0  0.10543466334E+02  0.13409665213E+02 -0.47495957292E+01  0.17707130295E+02  0.51100000000E-03 0. -1.
        -11    1    3    3    0    0  0.16196246412E+02 -0.32125513412E+01  0.10026176000E+02  0.19317429679E+02  0.51100000000E-03 0.  1.
        -12    1    3    3    0    0  0.12981260200E+02 -0.17438904293E+01 -0.32880796579E+01  0.13504285914E+02  0.00000000000E+00 0.  1.
</event>
<event>
 7    1  0.4994895E-011  0.5052886E+02  0.7816164E-02  0.1300439E+00
        -11   -1    0    0    0    0  0.00000000000E+00  0.00000000000E+00  0.45593999997E+02  0.45594000000E+02  0.51100000000E-03 0. -1.
         11   -1    0    0    0    0 -0.00000000000E+00 -0.00000000000E+00 -0.45593999997E+02  0.45594000000E+02  0.51100000000E-03 0.  1.
    9900012    2    1    2    0    0 -0.36591856236E+02 -0.14139976335E+02  0.10689376108E+02  0.50528860374E+02  0.30000001593E+02 0.  0.
        -12    1    1    2    0    0  0.36591856236E+02  0.14139976335E+02 -0.10689376108E+02  0.40659139626E+02  0.00000000000E+00 0.  1.
         11    1    3    3    0    0 -0.34174279015E+01 -0.68184750919E-01  0.14717336043E+01  0.37214866230E+01  0.51100000000E-03 0. -1.
        -11    1    3    3    0    0 -0.49947008364E+01  0.80795741219E+01 -0.95854548816E+00  0.95470081256E+01  0.51100000000E-03 0.  1.
        -12    1    3    3    0    0 -0.28179727498E+02 -0.22151365705E+02  0.10176187992E+02  0.37260365625E+02  0.00000000000E+00 0.  1.
</event>
<event>
 7    1  0.4994895E-011  0.5052886E+02  0.7816164E-02  0.1300439E+00
        -11   -1    0    0    0    0  0.00000000000E+00  0.00000000000E+00  0.45593999997E+02  0.45594000000E+02  0.51100000000E-03 0.  1.
         11   -1    0    0    0    0 -0.00000000000E+00 -0.00000000000E+00 -0.45593999997E+02  0.45594000000E+02  0.51100000000E-03 0. -1.
    9900012    2    1    2    0    0 -0.25093465069E+01  0.10587401006E+02 -0.39176218049E+02  0.50528856617E+02  0.29999990174E+02 0.  0.
        -12    1    1    2    0    0  0.25093465069E+01 -0.10587401006E+02  0.39176218049E+02  0.40659143383E+02  0.00000000000E+00 0.  1.
         11    1    3    3    0    0 -0.69280247321E+01 -0.31991108965E+01 -0.60243920046E+01  0.97224038439E+01  0.51100000000E-03 0. -1.
        -11    1    3    3    0    0 -0.14538653061E+00  0.15369277403E+02 -0.13144134943E+02  0.20223850000E+02  0.51100000000E-03 0.  1.
        -12    1    3    3    0    0  0.45640647559E+01 -0.15827655009E+01 -0.20007691101E+02  0.20582602774E+02  0.00000000000E+00 0.  1.
</event>
<event>
 7    1  0.4994895E-011  0.5052886E+02  0.7816164E-02  0.1300439E+00
        -11   -1    0    0    0    0  0.00000000000E+00  0.00000000000E+00  0.45593999997E+02  0.45594000000E+02  0.51100000000E-03 0.  1.
         11   -1    0    0    0    0 -0.00000000000E+00 -0.00000000000E+00 -0.45593999997E+02  0.45594000000E+02  0.51100000000E-03 0. -1.
    9900012    2    1    2    0    0 -0.62760099552E+01 -0.23054082764E+02 -0.32898125872E+02  0.50528859343E+02  0.29999998460E+02 0.  0.
        -12    1    1    2    0    0  0.62760099552E+01  0.23054082764E+02  0.32898125872E+02  0.40659140657E+02  0.00000000000E+00 0.  1.
         11    1    3    3    0    0  0.84112922790E+01 -0.23730779975E+01 -0.16967577969E+02  0.19086121643E+02  0.51100000000E-03 0. -1.
        -11    1    3    3    0    0 -0.11367366120E+01  0.10020709378E+01 -0.59877431629E+00  0.16293701950E+01  0.51100000000E-03 0.  1.
         12    1    3    3    0    0 -0.13550565622E+02 -0.21683075704E+02 -0.15331773587E+02  0.29813367505E+02  0.00000000000E+00 0. -1.
</event>
<event>
 7    1  0.4994895E-011  0.5052886E+02  0.7816164E-02  0.1300439E+00
        -11   -1    0    0    0    0  0.00000000000E+00  0.00000000000E+00  0.45593999997E+02  0.45594000000E+02  0.51100000000E-03 0.  1.
         11   -1    0    0    0    0 -0.00000000000E+00 -0.00000000000E+00 -0.45593999997E+02  0.45594000000E+02  0.51100000000E-03 0. -1.
    9900012    2    1    2    0    0  0.22382158334E+02  0.96361444047E+01 -0.32547647163E+02  0.50528860480E+02  0.30000001916E+02 0.  0.
        -12    1    1    2    0    0 -0.22382158334E+02 -0.96361444047E+01  0.32547647163E+02  0.40659139520E+02  0.00000000000E+00 0.  1.
         11    1    3    3    0    0  0.18852382450E+02  0.14468219844E+02 -0.31746723887E+02  0.39655972908E+02  0.51100000000E-03 0. -1.
        -11    1    3    3    0    0  0.54517043046E+00 -0.52886805776E+01 -0.38635059397E+01  0.65722166319E+01  0.51100000000E-03 0.  1.
        -12    1    3    3    0    0  0.29846054533E+01  0.45660513877E+00  0.30625826639E+01  0.43006709404E+01  0.00000000000E+00 0.  1.
</event>
<event>
 7    1  0.4994895E-011  0.5052886E+02  0.7816164E-02  0.1300439E+00
        -11   -1    0    0    0    0  0.00000000000E+00  0.00000000000E+00  0.45593999997E+02  0.45594000000E+02  0.51100000000E-03 0.  1.
         11   -1    0    0    0    0 -0.00000000000E+00 -0.00000000000E+00 -0.45593999997E+02  0.45594000000E+02  0.51100000000E-03 0. -1.
    9900012    2    1    2    0    0  0.35233559051E+02  0.20281113948E+02  0.66205150472E+00  0.50528861070E+02  0.30000003707E+02 0.  0.
        -12    1    1    2    0    0 -0.35233559051E+02 -0.20281113948E+02 -0.66205150472E+00  0.40659138930E+02  0.00000000000E+00 0.  1.
         11    1    3    3    0    0  0.11529416279E+02  0.17496797268E+02 -0.10257587336E+02  0.23329883253E+02  0.51100000000E-03 0. -1.
        -11    1    3    3    0    0  0.18165277433E+02  0.16869489543E+01  0.11431816360E+02  0.21529271389E+02  0.51100000000E-03 0.  1.
         12    1    3    3    0    0  0.55388653382E+01  0.10973677258E+01 -0.51217751955E+00  0.56697064273E+01  0.00000000000E+00 0. -1.
</event>
<event>
 7    1  0.4994895E-011  0.5052886E+02  0.7816164E-02  0.1300439E+00
        -11   -1    0    0    0    0  0.00000000000E+00  0.00000000000E+00  0.45593999997E+02  0.45594000000E+02  0.51100000000E-03 0. -1.
         11   -1    0    0    0    0 -0.00000000000E+00 -0.00000000000E+00 -0.45593999997E+02  0.45594000000E+02  0.51100000000E-03 0.  1.
    9900012    2    1    2    0    0  0.24138776505E+02 -0.12312027335E+02  0.30313354533E+02  0.50528855748E+02  0.29999987532E+02 0.  0.
        -12    1    1    2    0    0 -0.24138776505E+02  0.12312027335E+02 -0.30313354533E+02  0.40659144252E+02  0.00000000000E+00 0.  1.
         11    1    3    3    0    0  0.26782589391E+02 -0.11834592278E+02  0.27768427140E+02  0.40354060699E+02  0.51100000000E-03 0. -1.
        -11    1    3    3    0    0 -0.42902173021E+00  0.39215882444E+01  0.33609302577E+01  0.51825444003E+01  0.51100000000E-03 0.  1.
         12    1    3    3    0    0 -0.22147911552E+01 -0.43990233009E+01 -0.81600286459E+00  0.49922506485E+01  0.00000000000E+00 0. -1.
</event>
<event>
 7    1  0.4994895E-011  0.5052886E+02  0.7816164E-02  0.1300439E+00
        -11   -1    0    0    0    0  0.00000000000E+00  0.00000000000E+00  0.45593999997E+02  0.45594000000E+02  0.51100000000E-03 0.  1.
         11   -1    0    0    0    0 -0.00000000000E+00 -0.00000000000E+00 -0.45593999997E+02  0.45594000000E+02  0.51100000000E-03 0. -1.
    9900012    2    1    2    0    0 -0.10050986606E+02 -0.11587611148E+02 -0.37654625665E+02  0.50528857143E+02  0.29999991772E+02 0.  0.
        -12    1    1    2    0    0  0.10050986606E+02  0.11587611148E+02  0.37654625665E+02  0.40659142857E+02  0.00000000000E+00 0.  1.
         11    1    3    3    0    0  0.59884394695E+01  0.54908041115E+01 -0.10329231618E+02  0.13141665159E+02  0.51100000000E-03 0.  1.
        -11    1    3    3    0    0 -0.67251279645E+01 -0.47912330442E+01 -0.16797128629E+02  0.18717018744E+02  0.51100000000E-03 0. -1.
         12    1    3    3    0    0 -0.93142981109E+01 -0.12287182216E+02 -0.10528265419E+02  0.18670173240E+02  0.00000000000E+00 0. -1.
</event>
<event>
 7    1  0.4994895E-011  0.5052886E+02  0.7816164E-02  0.1300439E+00
        -11   -1    0    0    0    0  0.00000000000E+00  0.00000000000E+00  0.45593999997E+02  0.45594000000E+02  0.51100000000E-03 0.  1.
         11   -1    0    0    0    0 -0.00000000000E+00 -0.00000000000E+00 -0.45593999997E+02  0.45594000000E+02  0.51100000000E-03 0. -1.
    9900012    2    1    2    0    0 -0.78978899738E+00 -0.22867740058E+02 -0.33609645139E+02  0.50528861441E+02  0.30000004835E+02 0.  0.
        -12    1    1    2    0    0  0.78978899738E+00  0.22867740058E+02  0.33609645139E+02  0.40659138559E+02  0.00000000000E+00 0.  1.
         11    1    3    3    0    0  0.11118125709E+02 -0.11283374279E+02 -0.25220425623E+02  0.29782496928E+02  0.51100000000E-03 0. -1.
        -11    1    3    3    0    0 -0.72056108838E+01 -0.46626434521E+01 -0.88984329097E+01  0.12362976206E+02  0.51100000000E-03 0.  1.
         12    1    3    3    0    0 -0.47023038223E+01 -0.69217223274E+01  0.50921339385E+00  0.83833883063E+01  0.00000000000E+00 0. -1.
</event>
<event>
 7    1  0.4994895E-011  0.5052886E+02  0.7816164E-02  0.1300439E+00
        -11   -1    0    0    0    0  0.00000000000E+00  0.00000000000E+00  0.45593999997E+02  0.45594000000E+02  0.51100000000E-03 0.  1.
         11   -1    0    0    0    0 -0.00000000000E+00 -0.00000000000E+00 -0.45593999997E+02  0.45594000000E+02  0.51100000000E-03 0. -1.
    9900012    2    1    2    0    0 -0.23853571747E+02  0.30309411777E+02 -0.12865171080E+02  0.50528856449E+02  0.29999989663E+02 0.  0.
        -12    1    1    2    0    0  0.23853571747E+02 -0.30309411777E+02  0.12865171080E+02  0.40659143551E+02  0.00000000000E+00 0.  1.
         11    1    3    3    0    0 -0.34346135232E+00  0.19756241908E+02  0.20729865203E+01  0.19867670558E+02  0.51100000000E-03 0. -1.
        -11    1    3    3    0    0 -0.81580036764E+01  0.93938561976E+00 -0.21520729088E+01  0.84892218367E+01  0.51100000000E-03 0.  1.
         12    1    3    3    0    0 -0.15352106719E+02  0.96137842496E+01 -0.12786084692E+02  0.22171964055E+02  0.00000000000E+00 0. -1.
</event>
<event>
 7    1  0.4994895E-011  0.5052885E+02  0.7816164E-02  0.1300439E+00
        -11   -1    0    0    0    0  0.00000000000E+00  0.00000000000E+00  0.45593999997E+02  0.45594000000E+02  0.51100000000E-03 0.  1.
         11   -1    0    0    0    0 -0.00000000000E+00 -0.00000000000E+00 -0.45593999997E+02  0.45594000000E+02  0.51100000000E-03 0. -1.
    9900012    2    1    2    0    0  0.16012416149E+02  0.10768171491E+02 -0.35788479005E+02  0.50528853210E+02  0.29999979817E+02 0.  0.
        -12    1    1    2    0    0 -0.16012416149E+02 -0.10768171491E+02  0.35788479005E+02  0.40659146790E+02  0.00000000000E+00 0.  1.
         11    1    3    3    0    0 -0.40378400495E+01  0.10169903539E+02 -0.18132657450E+02  0.21178393629E+02  0.51100000000E-03 0. -1.
        -11    1    3    3    0    0  0.88840378239E+01 -0.40289967450E+01 -0.13318429012E+02  0.16508770228E+02  0.51100000000E-03 0.  1.
         12    1    3    3    0    0  0.11166218375E+02  0.46272646971E+01 -0.43373925434E+01  0.12841689353E+02  0.00000000000E+00 0. -1.
</event>
<event>
 7    1  0.4994895E-011  0.5052887E+02  0.7816164E-02  0.1300439E+00
        -11   -1    0    0    0    0  0.00000000000E+00  0.00000000000E+00  0.45593999997E+02  0.45594000000E+02  0.51100000000E-03 0.  1.
         11   -1    0    0    0    0 -0.00000000000E+00 -0.00000000000E+00 -0.45593999997E+02  0.45594000000E+02  0.51100000000E-03 0. -1.
    9900012    2    1    2    0    0 -0.16785348102E+02  0.90238908921E+01 -0.35916379768E+02  0.50528869988E+02  0.30000030815E+02 0.  0.
        -12    1    1    2    0    0  0.16785348102E+02 -0.90238908921E+01  0.35916379768E+02  0.40659130012E+02  0.00000000000E+00 0.  1.
         11    1    3    3    0    0 -0.15188672516E+02  0.18107916789E+01 -0.11163327573E+02  0.18936594786E+02  0.51100000000E-03 0. -1.
        -11    1    3    3    0    0 -0.30184269756E+01  0.12047593627E+02 -0.23206564779E+02  0.26321095394E+02  0.51100000000E-03 0.  1.
        -12    1    3    3    0    0  0.14217513898E+01 -0.48344944135E+01 -0.15464874154E+01  0.52711798086E+01  0.00000000000E+00 0.  1.
</event>
<event>
 7    1  0.4994895E-011  0.5052885E+02  0.7816164E-02  0.1300439E+00
        -11   -1    0    0    0    0  0.00000000000E+00  0.00000000000E+00  0.45593999997E+02  0.45594000000E+02  0.51100000000E-03 0.  1.
         11   -1    0    0    0    0 -0.00000000000E+00 -0.00000000000E+00 -0.45593999997E+02  0.45594000000E+02  0.51100000000E-03 0. -1.
    9900012    2    1    2    0    0 -0.30531485947E+02  0.18316137967E+02 -0.19634502484E+02  0.50528853035E+02  0.29999979285E+02 0.  0.
        -12    1    1    2    0    0  0.30531485947E+02 -0.18316137967E+02  0.19634502484E+02  0.40659146965E+02  0.00000000000E+00 0.  1.
         11    1    3    3    0    0 -0.17506898874E+02  0.14524186787E+01 -0.96229029262E+01  0.20030009716E+02  0.51100000000E-03 0. -1.
        -11    1    3    3    0    0  0.17538325042E+01  0.23572624514E+01  0.43846165620E+01  0.52780183189E+01  0.51100000000E-03 0.  1.
        -12    1    3    3    0    0 -0.14778419577E+02  0.14506456837E+02 -0.14396216119E+02  0.25220825000E+02  0.00000000000E+00 0.  1.
</event>
<event>
 7    1  0.5642553E-011  0.5052885E+02  0.7816164E-02  0.1300439E+00
        -11   -1    0    0    0    0  0.00000000000E+00  0.00000000000E+00  0.45593999997E+02  0.45594000000E+02  0.51100000000E-03 0. -1.
         11   -1    0    0    0    0 -0.00000000000E+00 -0.00000000000E+00 -0.45593999997E+02  0.45594000000E+02  0.51100000000E-03 0.  1.
    9900012    2    1    2    0    0 -0.31525676948E+02 -0.25658572984E+02  0.96723061421E+00  0.50528853309E+02  0.29999980118E+02 0.  0.
        -12    1    1    2    0    0  0.31525676948E+02  0.25658572984E+02 -0.96723061421E+00  0.40659146691E+02  0.00000000000E+00 0.  1.
         11    1    3    3    0    0 -0.23402651204E+02 -0.75088215163E+01  0.15589997319E+01  0.24627159080E+02  0.51100000000E-03 0. -1.
        -11    1    3    3    0    0  0.38500279022E+01 -0.34248850835E+00 -0.20848487377E+01  0.43916520521E+01  0.51100000000E-03 0.  1.
         12    1    3    3    0    0 -0.11973053646E+02 -0.17807262959E+02  0.14930796200E+01  0.21510042177E+02  0.00000000000E+00 0. -1.
</event>
<event>
 7    1  0.4994895E-011  0.5052889E+02  0.7816164E-02  0.1300439E+00
        -11   -1    0    0    0    0  0.00000000000E+00  0.00000000000E+00  0.45593999997E+02  0.45594000000E+02  0.51100000000E-03 0.  1.
         11   -1    0    0    0    0 -0.00000000000E+00 -0.00000000000E+00 -0.45593999997E+02  0.45594000000E+02  0.51100000000E-03 0. -1.
    9900012    2    1    2    0    0  0.28426578309E+02  0.29069683457E+02  0.21528673603E+00  0.50528890332E+02  0.30000092652E+02 0.  0.
        -12    1    1    2    0    0 -0.28426578309E+02 -0.29069683457E+02 -0.21528673603E+00  0.40659109668E+02  0.00000000000E+00 0.  1.
         11    1    3    3    0    0  0.88815325397E+01  0.21732790761E+02 -0.71277875886E+01  0.24535712150E+02  0.51100000000E-03 0. -1.
        -11    1    3    3    0    0  0.58704727818E+01 -0.35500831826E+01  0.46984525542E+01  0.83151066109E+01  0.51100000000E-03 0.  1.
         12    1    3    3    0    0  0.13674572988E+02  0.10886975878E+02  0.26446217703E+01  0.17678071571E+02  0.00000000000E+00 0. -1.
</event>
<event>
 7    1  0.4994895E-011  0.5052888E+02  0.7816164E-02  0.1300439E+00
        -11   -1    0    0    0    0  0.00000000000E+00  0.00000000000E+00  0.45593999997E+02  0.45594000000E+02  0.51100000000E-03 0. -1.
         11   -1    0    0    0    0 -0.00000000000E+00 -0.00000000000E+00 -0.45593999997E+02  0.45594000000E+02  0.51100000000E-03 0.  1.
    9900012    2    1    2    0    0 -0.58462893129E+01 -0.28067130958E+02  0.28830898758E+02  0.50528884636E+02  0.30000075341E+02 0.  0.
        -12    1    1    2    0    0  0.58462893129E+01  0.28067130958E+02 -0.28830898758E+02  0.40659115364E+02  0.00000000000E+00 0.  1.
         11    1    3    3    0    0 -0.30131161985E+01 -0.15778267090E+02 -0.28813877136E+01  0.16319772578E+02  0.51100000000E-03 0.  1.
        -11    1    3    3    0    0 -0.28594035330E+01 -0.81094296091E+01  0.22728432668E+02  0.24300631452E+02  0.51100000000E-03 0. -1.
        -12    1    3    3    0    0  0.26230418645E-01 -0.41794342593E+01  0.89838538033E+01  0.99084806061E+01  0.00000000000E+00 0.  1.
</event>
<event>
 7    1  0.4994895E-011  0.5052886E+02  0.7816164E-02  0.1300439E+00
        -11   -1    0    0    0    0  0.00000000000E+00  0.00000000000E+00  0.45593999997E+02  0.45594000000E+02  0.51100000000E-03 0.  1.
         11   -1    0    0    0    0 -0.00000000000E+00 -0.00000000000E+00 -0.45593999997E+02  0.45594000000E+02  0.51100000000E-03 0. -1.
    9900012    2    1    2    0    0 -0.25990118516E+02 -0.17418130469E+02 -0.25967065005E+02  0.50528855955E+02  0.29999988161E+02 0.  0.
        -12    1    1    2    0    0  0.25990118516E+02  0.17418130469E+02  0.25967065005E+02  0.40659144045E+02  0.00000000000E+00 0.  1.
         11    1    3    3    0    0 -0.17133899017E+02 -0.93749239509E+01 -0.29989914645E+02  0.35789030097E+02  0.51100000000E-03 0. -1.
        -11    1    3    3    0    0  0.10480803517E+01 -0.27616051543E+01  0.93614038057E+00  0.30985955731E+01  0.51100000000E-03 0.  1.
         12    1    3    3    0    0 -0.99042998506E+01 -0.52816013639E+01  0.30867092596E+01  0.11641230285E+02  0.00000000000E+00 0. -1.
</event>
<event>
 7    1  0.4994895E-011  0.5052886E+02  0.7816164E-02  0.1300439E+00
        -11   -1    0    0    0    0  0.00000000000E+00  0.00000000000E+00  0.45593999997E+02  0.45594000000E+02  0.51100000000E-03 0. -1.
         11   -1    0    0    0    0 -0.00000000000E+00 -0.00000000000E+00 -0.45593999997E+02  0.45594000000E+02  0.51100000000E-03 0.  1.
    9900012    2    1    2    0    0  0.27153527123E+02 -0.27884796861E+02 -0.11759674650E+02  0.50528857374E+02  0.29999992474E+02 0.  0.
        -12    1    1    2    0    0 -0.27153527123E+02  0.27884796861E+02  0.11759674650E+02  0.40659142626E+02  0.00000000000E+00 0.  1.
         11    1    3    3    0    0  0.20646603460E+02 -0.41316264461E+01 -0.32684695376E+01  0.21308107961E+02  0.51100000000E-03 0. -1.
        -11    1    3    3    0    0 -0.18433677775E+01 -0.80545443992E+01 -0.78968651920E+01  0.11429530627E+02  0.51100000000E-03 0.  1.
         12    1    3    3    0    0  0.83502914412E+01 -0.15698626015E+02 -0.59433992021E+00  0.17791218785E+02  0.00000000000E+00 0. -1.
</event>
<event>
 7    1  0.4994895E-011  0.5052888E+02  0.7816164E-02  0.1300439E+00
        -11   -1    0    0    0    0  0.00000000000E+00  0.00000000000E+00  0.45593999997E+02  0.45594000000E+02  0.51100000000E-03 0.  1.
         11   -1    0    0    0    0 -0.00000000000E+00 -0.00000000000E+00 -0.45593999997E+02  0.45594000000E+02  0.51100000000E-03 0. -1.
    9900012    2    1    2    0    0  0.18834251103E+02  0.10732838457E+02 -0.34398271606E+02  0.50528881399E+02  0.30000065500E+02 0.  0.
        -12    1    1    2    0    0 -0.18834251103E+02 -0.10732838457E+02  0.34398271606E+02  0.40659118601E+02  0.00000000000E+00 0.  1.
         11    1    3    3    0    0  0.19055474728E+02  0.17759802151E+02 -0.27217886102E+02  0.37674062877E+02  0.51100000000E-03 0. -1.
        -11    1    3    3    0    0  0.13135752050E-01 -0.30767975238E+01  0.14192885946E+01  0.33883972504E+01  0.51100000000E-03 0.  1.
         12    1    3    3    0    0 -0.23435937757E+00 -0.39501661700E+01 -0.85996740986E+01  0.94664212716E+01  0.00000000000E+00 0. -1.
</event>
<event>
 7    1  0.4994895E-011  0.5052886E+02  0.7816164E-02  0.1300439E+00
        -11   -1    0    0    0    0  0.00000000000E+00  0.00000000000E+00  0.45593999997E+02  0.45594000000E+02  0.51100000000E-03 0.  1.
         11   -1    0    0    0    0 -0.00000000000E+00 -0.00000000000E+00 -0.45593999997E+02  0.45594000000E+02  0.51100000000E-03 0. -1.
    9900012    2    1    2    0    0  0.70142628822E+01  0.89464630559E+01 -0.39037506365E+02  0.50528856033E+02  0.29999988397E+02 0.  0.
        -12    1    1    2    0    0 -0.70142628822E+01 -0.89464630559E+01  0.39037506365E+02  0.40659143967E+02  0.00000000000E+00 0.  1.
         11    1    3    3    0    0  0.42557148874E+01 -0.94008697234E+01 -0.12591398337E+02  0.16279765757E+02  0.51100000000E-03 0. -1.
        -11    1    3    3    0    0  0.47438669130E+01  0.69894033236E+01 -0.47797882396E+01  0.97057924965E+01  0.51100000000E-03 0.  1.
         12    1    3    3    0    0 -0.19853189182E+01  0.11357929456E+02 -0.21666319788E+02  0.24543297780E+02  0.00000000000E+00 0. -1.
</event>
<event>
 7    1  0.4994895E-011  0.5052887E+02  0.7816164E-02  0.1300439E+00
        -11   -1    0    0    0    0  0.00000000000E+00  0.00000000000E+00  0.45593999997E+02  0.45594000000E+02  0.51100000000E-03 0. -1.
         11   -1    0    0    0    0 -0.00000000000E+00 -0.00000000000E+00 -0.45593999997E+02  0.45594000000E+02  0.51100000000E-03 0.  1.
    9900012    2    1    2    0    0 -0.28403750827E+02 -0.27263457622E+02  0.10153614163E+02  0.50528867408E+02  0.30000022974E+02 0.  0.
        -12    1    1    2    0    0  0.28403750827E+02  0.27263457622E+02 -0.10153614163E+02  0.40659132592E+02  0.00000000000E+00 0.  1.
         11    1    3    3    0    0 -0.35306622518E+01 -0.59599860773E+01  0.11888678593E+02  0.13759639854E+02  0.51100000000E-03 0. -1.
        -11    1    3    3    0    0 -0.20219084484E+02 -0.23250508010E+02  0.13746224224E+01  0.30842942259E+02  0.51100000000E-03 0.  1.
        -12    1    3    3    0    0 -0.46540040909E+01  0.19470364662E+01 -0.31096868520E+01  0.59262852949E+01  0.00000000000E+00 0.  1.
</event>
<event>
 7    1  0.4994895E-011  0.5052886E+02  0.7816164E-02  0.1300439E+00
        -11   -1    0    0    0    0  0.00000000000E+00  0.00000000000E+00  0.45593999997E+02  0.45594000000E+02  0.51100000000E-03 0.  1.
         11   -1    0    0    0    0 -0.00000000000E+00 -0.00000000000E+00 -0.45593999997E+02  0.45594000000E+02  0.51100000000E-03 0. -1.
    9900012    2    1    2    0    0  0.35992698230E+02  0.12620369800E+02  0.14086082741E+02  0.50528858509E+02  0.29999995923E+02 0.  0.
        -12    1    1    2    0    0 -0.35992698230E+02 -0.12620369800E+02 -0.14086082741E+02  0.40659141491E+02  0.00000000000E+00 0.  1.
         11    1    3    3    0    0  0.19444353870E+02 -0.42770961220E+00  0.19671626639E+01  0.19548287959E+02  0.51100000000E-03 0. -1.
        -11    1    3    3    0    0 -0.29120245826E+01 -0.22825924217E+01  0.21266062938E+01  0.42676187650E+01  0.51100000000E-03 0.  1.
        -12    1    3    3    0    0  0.19460368943E+02  0.15330671834E+02  0.99923137835E+01  0.26712951784E+02  0.00000000000E+00 0.  1.
</event>
<event>
 7    1  0.4994895E-011  0.5052887E+02  0.7816164E-02  0.1300439E+00
        -11   -1    0    0    0    0  0.00000000000E+00  0.00000000000E+00  0.45593999997E+02  0.45594000000E+02  0.51100000000E-03 0. -1.
         11   -1    0    0    0    0 -0.00000000000E+00 -0.00000000000E+00 -0.45593999997E+02  0.45594000000E+02  0.51100000000E-03 0.  1.
    9900012    2    1    2    0    0 -0.10637138274E+01  0.31476476183E+02  0.25715074468E+02  0.50528867017E+02  0.30000021786E+02 0.  0.
        -12    1    1    2    0    0  0.10637138274E+01 -0.31476476183E+02 -0.25715074468E+02  0.40659132983E+02  0.00000000000E+00 0.  1.
         11    1    3    3    0    0  0.13458124115E+00 -0.75632569736E+00 -0.48832166112E+01  0.49432727422E+01  0.51100000000E-03 0.  1.
        -11    1    3    3    0    0 -0.45003972727E+01  0.18167886805E+02  0.21528694047E+02  0.28527361501E+02  0.51100000000E-03 0. -1.
        -12    1    3    3    0    0  0.33021022042E+01  0.14064915076E+02  0.90695970320E+01  0.17058232774E+02  0.00000000000E+00 0.  1.
</event>
<event>
 7    1  0.4994895E-011  0.5052885E+02  0.7816164E-02  0.1300439E+00
        -11   -1    0    0    0    0  0.00000000000E+00  0.00000000000E+00  0.45593999997E+02  0.45594000000E+02  0.51100000000E-03 0.  1.
         11   -1    0    0    0    0 -0.00000000000E+00 -0.00000000000E+00 -0.45593999997E+02  0.45594000000E+02  0.51100000000E-03 0. -1.
    9900012    2    1    2    0    0 -0.67578769188E+01  0.39596949452E+02 -0.62911712168E+01  0.50528854145E+02  0.29999982660E+02 0.  0.
        -12    1    1    2    0    0  0.67578769188E+01 -0.39596949452E+02  0.62911712168E+01  0.40659145855E+02  0.00000000000E+00 0.  1.
         11    1    3    3    0    0 -0.75649158567E+01  0.52968588802E+01 -0.68535625327E+01  0.11500260239E+02  0.51100000000E-03 0. -1.
        -11    1    3    3    0    0  0.79499703564E+01  0.22158231413E+02  0.53659478960E+01  0.24145033550E+02  0.51100000000E-03 0.  1.
         12    1    3    3    0    0 -0.71429314185E+01  0.12141859158E+02 -0.48035565801E+01  0.14883560357E+02  0.00000000000E+00 0. -1.
</event>
<event>
 7    1  0.4994895E-011  0.5052886E+02  0.7816164E-02  0.1300439E+00
        -11   -1    0    0    0    0  0.00000000000E+00  0.00000000000E+00  0.45593999997E+02  0.45594000000E+02  0.51100000000E-03 0. -1.
         11   -1    0    0    0    0 -0.00000000000E+00 -0.00000000000E+00 -0.45593999997E+02  0.45594000000E+02  0.51100000000E-03 0.  1.
    9900012    2    1    2    0    0  0.36054659520E+02 -0.78630300102E+00 -0.18777882619E+02  0.50528860546E+02  0.30000002115E+02 0.  0.
        -12    1    1    2    0    0 -0.36054659520E+02  0.78630300102E+00  0.18777882619E+02  0.40659139454E+02  0.00000000000E+00 0.  1.
         11    1    3    3    0    0  0.11457375234E+02  0.92455673026E+01 -0.59324030175E+00  0.14734445911E+02  0.51100000000E-03 0. -1.
        -11    1    3    3    0    0  0.11001634525E+02 -0.73189787291E+01 -0.17480578395E+02  0.21912873685E+02  0.51100000000E-03 0.  1.
        -12    1    3    3    0    0  0.13595649761E+02 -0.27128915745E+01 -0.70406392194E+00  0.13881540949E+02  0.00000000000E+00 0.  1.
</event>
<event>
 7    1  0.4994895E-011  0.5052885E+02  0.7816164E-02  0.1300439E+00
        -11   -1    0    0    0    0  0.00000000000E+00  0.00000000000E+00  0.45593999997E+02  0.45594000000E+02  0.51100000000E-03 0. -1.
         11   -1    0    0    0    0 -0.00000000000E+00 -0.00000000000E+00 -0.45593999997E+02  0.45594000000E+02  0.51100000000E-03 0.  1.
    9900012    2    1    2    0    0 -0.91772490934E+01 -0.38649429414E+02  0.86698263453E+01  0.50528853626E+02  0.29999981082E+02 0.  0.
        -12    1    1    2    0    0  0.91772490934E+01  0.38649429414E+02 -0.86698263453E+01  0.40659146374E+02  0.00000000000E+00 0.  1.
         11    1    3    3    0    0  0.11766069762E+01 -0.30577647077E+00  0.52923577071E+00  0.13258936567E+01  0.51100000000E-03 0. -1.
        -11    1    3    3    0    0 -0.47811649083E+01  0.31719685759E+01 -0.20505561609E+01  0.60930865214E+01  0.51100000000E-03 0.  1.
        -12    1    3    3    0    0 -0.55726911614E+01 -0.41515621520E+02  0.10191146735E+02  0.43109873448E+02  0.00000000000E+00 0.  1.
</event>
<event>
 7    1  0.4994895E-011  0.5052887E+02  0.7816164E-02  0.1300439E+00
        -11   -1    0    0    0    0  0.00000000000E+00  0.00000000000E+00  0.45593999997E+02  0.45594000000E+02  0.51100000000E-03 0.  1.
         11   -1    0    0    0    0 -0.00000000000E+00 -0.00000000000E+00 -0.45593999997E+02  0.45594000000E+02  0.51100000000E-03 0. -1.
    9900012    2    1    2    0    0  0.14995826123E+02  0.26184278165E+02 -0.27252042480E+02  0.50528867649E+02  0.30000023706E+02 0.  0.
        -12    1    1    2    0    0 -0.14995826123E+02 -0.26184278165E+02  0.27252042480E+02  0.40659132351E+02  0.00000000000E+00 0.  1.
         11    1    3    3    0    0  0.45530489673E+01  0.42342630253E+01 -0.20681473020E+02  0.21595892313E+02  0.51100000000E-03 0.  1.
        -11    1    3    3    0    0  0.12904032875E+02  0.19320584534E+02 -0.86294510466E+01  0.24784399867E+02  0.51100000000E-03 0. -1.
        -12    1    3    3    0    0 -0.24612557191E+01  0.26294306067E+01  0.20588815864E+01  0.41485754684E+01  0.00000000000E+00 0.  1.
</event>
<event>
 7    1  0.4994895E-011  0.5052887E+02  0.7816164E-02  0.1300439E+00
        -11   -1    0    0    0    0  0.00000000000E+00  0.00000000000E+00  0.45593999997E+02  0.45594000000E+02  0.51100000000E-03 0. -1.
         11   -1    0    0    0    0 -0.00000000000E+00 -0.00000000000E+00 -0.45593999997E+02  0.45594000000E+02  0.51100000000E-03 0.  1.
    9900012    2    1    2    0    0 -0.19276582550E+02 -0.35789904851E+02  0.81301778244E+00  0.50528869144E+02  0.30000028250E+02 0.  0.
        -12    1    1    2    0    0  0.19276582550E+02  0.35789904851E+02 -0.81301778244E+00  0.40659130856E+02  0.00000000000E+00 0.  1.
         11    1    3    3    0    0 -0.36455654351E+01 -0.13596096982E+02  0.81804438913E+01  0.16280775873E+02  0.51100000000E-03 0. -1.
        -11    1    3    3    0    0 -0.18601848595E+02 -0.11719530374E+02 -0.78624775514E+01  0.23349405064E+02  0.51100000000E-03 0.  1.
        -12    1    3    3    0    0  0.29708314793E+01 -0.10474277494E+02  0.49505144250E+00  0.10898688207E+02  0.00000000000E+00 0.  1.
</event>
<event>
 7    1  0.4994895E-011  0.5052886E+02  0.7816164E-02  0.1300439E+00
        -11   -1    0    0    0    0  0.00000000000E+00  0.00000000000E+00  0.45593999997E+02  0.45594000000E+02  0.51100000000E-03 0. -1.
         11   -1    0    0    0    0 -0.00000000000E+00 -0.00000000000E+00 -0.45593999997E+02  0.45594000000E+02  0.51100000000E-03 0.  1.
    9900012    2    1    2    0    0  0.11834741922E+02 -0.37409182078E+02 -0.10661035708E+02  0.50528859545E+02  0.29999999074E+02 0.  0.
        -12    1    1    2    0    0 -0.11834741922E+02  0.37409182078E+02  0.10661035708E+02  0.40659140455E+02  0.00000000000E+00 0.  1.
         11    1    3    3    0    0 -0.27737758337E+01 -0.60923676539E+00 -0.73584906894E+00  0.29336795880E+01  0.51100000000E-03 0. -1.
        -11    1    3    3    0    0  0.18824347794E+02 -0.34818101656E+02 -0.13395403381E+02  0.41786278906E+02  0.51100000000E-03 0.  1.
        -12    1    3    3    0    0 -0.42158300379E+01 -0.19818436574E+01  0.34702167419E+01  0.58089010515E+01  0.00000000000E+00 0.  1.
</event>
<event>
 7    1  0.4994895E-011  0.5052887E+02  0.7816164E-02  0.1300439E+00
        -11   -1    0    0    0    0  0.00000000000E+00  0.00000000000E+00  0.45593999997E+02  0.45594000000E+02  0.51100000000E-03 0.  1.
         11   -1    0    0    0    0 -0.00000000000E+00 -0.00000000000E+00 -0.45593999997E+02  0.45594000000E+02  0.51100000000E-03 0. -1.
    9900012    2    1    2    0    0 -0.27381758187E+02  0.17501575801E+02 -0.24435611093E+02  0.50528869089E+02  0.30000028083E+02 0.  0.
        -12    1    1    2    0    0  0.27381758187E+02 -0.17501575801E+02  0.24435611093E+02  0.40659130911E+02  0.00000000000E+00 0.  1.
         11    1    3    3    0    0 -0.42443580573E+01 -0.12227182444E+01 -0.61774313567E+01  0.75940946565E+01  0.51100000000E-03 0. -1.
        -11    1    3    3    0    0 -0.20205708733E+02  0.14727850885E+02 -0.10485052183E+01  0.25025579326E+02  0.51100000000E-03 0.  1.
        -12    1    3    3    0    0 -0.29316913965E+01  0.39964431599E+01 -0.17209674518E+02  0.17909195107E+02  0.00000000000E+00 0.  1.
</event>
<event>
 7    1  0.4994895E-011  0.5052887E+02  0.7816164E-02  0.1300439E+00
        -11   -1    0    0    0    0  0.00000000000E+00  0.00000000000E+00  0.45593999997E+02  0.45594000000E+02  0.51100000000E-03 0.  1.
         11   -1    0    0    0    0 -0.00000000000E+00 -0.00000000000E+00 -0.45593999997E+02  0.45594000000E+02  0.51100000000E-03 0. -1.
    9900012    2    1    2    0    0 -0.49909018826E+01  0.34380191973E+02 -0.21124830292E+02  0.50528866259E+02  0.30000019480E+02 0.  0.
        -12    1    1    2    0    0  0.49909018826E+01 -0.34380191973E+02  0.21124830292E+02  0.40659133741E+02  0.00000000000E+00 0.  1.
         11    1    3    3    0    0  0.24344709894E+01  0.16325168210E+02  0.43059957269E+01  0.17058117292E+02  0.51100000000E-03 0. -1.
        -11    1    3    3    0    0  0.10650353757E+01 -0.56678659433E+00 -0.80394203573E+00  0.14497828986E+01  0.51100000000E-03 0.  1.
         12    1    3    3    0    0 -0.84904082477E+01  0.18621810357E+02 -0.24626883984E+02  0.32020966068E+02  0.00000000000E+00 0. -1.
</event>
<event>
 7    1  0.4994895E-011  0.5052885E+02  0.7816164E-02  0.1300439E+00
        -11   -1    0    0    0    0  0.00000000000E+00  0.00000000000E+00  0.45593999997E+02  0.45594000000E+02  0.51100000000E-03 0.  1.
         11   -1    0    0    0    0 -0.00000000000E+00 -0.00000000000E+00 -0.45593999997E+02  0.45594000000E+02  0.51100000000E-03 0. -1.
    9900012    2    1    2    0    0 -0.13018378130E+01 -0.90292948550E+01 -0.39622508045E+02  0.50528854767E+02  0.29999984551E+02 0.  0.
        -12    1    1    2    0    0  0.13018378130E+01  0.90292948550E+01  0.39622508045E+02  0.40659145233E+02  0.00000000000E+00 0.  1.
         11    1    3    3    0    0 -0.73398410506E+00  0.63442729090E+01 -0.10151654801E+02  0.11993524372E+02  0.51100000000E-03 0. -1.
        -11    1    3    3    0    0 -0.88207469959E+01 -0.11908305477E+02 -0.12662999132E+02  0.19492687454E+02  0.51100000000E-03 0.  1.
        -12    1    3    3    0    0  0.82528932879E+01 -0.34652622875E+01 -0.16807854112E+02  0.19042642941E+02  0.00000000000E+00 0.  1.
</event>
<event>
 7    1  0.4994895E-011  0.5052886E+02  0.7816164E-02  0.1300439E+00
        -11   -1    0    0    0    0  0.00000000000E+00  0.00000000000E+00  0.45593999997E+02  0.45594000000E+02  0.51100000000E-03 0.  1.
         11   -1    0    0    0    0 -0.00000000000E+00 -0.00000000000E+00 -0.45593999997E+02  0.45594000000E+02  0.51100000000E-03 0. -1.
    9900012    2    1    2    0    0  0.29495524734E+02  0.22189940525E+02 -0.17052464170E+02  0.50528856206E+02  0.29999988923E+02 0.  0.
        -12    1    1    2    0    0 -0.29495524734E+02 -0.22189940525E+02  0.17052464170E+02  0.40659143794E+02  0.00000000000E+00 0.  1.
         11    1    3    3    0    0  0.13886882885E+02  0.10537062080E+01 -0.11590046398E+02  0.18118636505E+02  0.51100000000E-03 0. -1.
        -11    1    3    3    0    0  0.15183457816E+02  0.20635770683E+02  0.12648555055E+01  0.25650970403E+02  0.51100000000E-03 0.  1.
        -12    1    3    3    0    0  0.42518403266E+00  0.50046363414E+00 -0.67272732781E+01  0.67592492977E+01  0.00000000000E+00 0.  1.
</event>
<event>
 7    1  0.4994895E-011  0.5052886E+02  0.7816164E-02  0.1300439E+00
        -11   -1    0    0    0    0  0.00000000000E+00  0.00000000000E+00  0.45593999997E+02  0.45594000000E+02  0.51100000000E-03 0.  1.
         11   -1    0    0    0    0 -0.00000000000E+00 -0.00000000000E+00 -0.45593999997E+02  0.45594000000E+02  0.51100000000E-03 0. -1.
    9900012    2    1    2    0    0  0.81624418946E+01 -0.21085321187E+02 -0.33792746189E+02  0.50528856843E+02  0.29999990861E+02 0.  0.
        -12    1    1    2    0    0 -0.81624418946E+01  0.21085321187E+02  0.33792746189E+02  0.40659143157E+02  0.00000000000E+00 0.  1.
         11    1    3    3    0    0  0.70833734338E+01 -0.15226903934E+02 -0.34012575849E+02  0.37932678508E+02  0.51100000000E-03 0. -1.
        -11    1    3    3    0    0  0.28076802799E+01 -0.67708725542E+01  0.39928554774E+01  0.83468963588E+01  0.51100000000E-03 0.  1.
        -12    1    3    3    0    0 -0.17286118191E+01  0.91245530118E+00 -0.37730258176E+01  0.42492819768E+01  0.00000000000E+00 0.  1.
</event>
<event>
 7    1  0.4994895E-011  0.5052886E+02  0.7816164E-02  0.1300439E+00
        -11   -1    0    0    0    0  0.00000000000E+00  0.00000000000E+00  0.45593999997E+02  0.45594000000E+02  0.51100000000E-03 0. -1.
         11   -1    0    0    0    0 -0.00000000000E+00 -0.00000000000E+00 -0.45593999997E+02  0.45594000000E+02  0.51100000000E-03 0.  1.
    9900012    2    1    2    0    0 -0.11271945938E+01 -0.57511766506E+01  0.40234552425E+02  0.50528858231E+02  0.29999995080E+02 0.  0.
        -12    1    1    2    0    0  0.11271945938E+01  0.57511766506E+01 -0.40234552425E+02  0.40659141769E+02  0.00000000000E+00 0.  1.
         11    1    3    3    0    0  0.11597052641E+02 -0.31580330527E+01  0.22502179679E+02  0.25511034736E+02  0.51100000000E-03 0. -1.
        -11    1    3    3    0    0 -0.96995127458E+01 -0.26857525390E+01  0.37957889490E+01  0.10756478430E+02  0.51100000000E-03 0.  1.
         12    1    3    3    0    0 -0.30247344892E+01  0.92608941102E-01  0.13936583797E+02  0.14261345065E+02  0.00000000000E+00 0. -1.
</event>
<event>
 7    1  0.4994895E-011  0.5052887E+02  0.7816164E-02  0.1300439E+00
        -11   -1    0    0    0    0  0.00000000000E+00  0.00000000000E+00  0.45593999997E+02  0.45594000000E+02  0.51100000000E-03 0.  1.
         11   -1    0    0    0    0 -0.00000000000E+00 -0.00000000000E+00 -0.45593999997E+02  0.45594000000E+02  0.51100000000E-03 0. -1.
    9900012    2    1    2    0    0  0.11617932973E+02 -0.36827896853E+02 -0.12723789744E+02  0.50528865988E+02  0.30000018657E+02 0.  0.
        -12    1    1    2    0    0 -0.11617932973E+02  0.36827896853E+02  0.12723789744E+02  0.40659134012E+02  0.00000000000E+00 0.  1.
         11    1    3    3    0    0  0.14877437808E+02 -0.15117718706E+02  0.14718304141E+01  0.21261464193E+02  0.51100000000E-03 0. -1.
        -11    1    3    3    0    0 -0.58025383722E+01 -0.37849746821E+01 -0.13234484500E+01  0.70531553908E+01  0.51100000000E-03 0.  1.
         12    1    3    3    0    0  0.25430335378E+01 -0.17925203465E+02 -0.12872171708E+02  0.22214246404E+02  0.00000000000E+00 0. -1.
</event>
<event>
 7    1  0.4994895E-011  0.5052885E+02  0.7816164E-02  0.1300439E+00
        -11   -1    0    0    0    0  0.00000000000E+00  0.00000000000E+00  0.45593999997E+02  0.45594000000E+02  0.51100000000E-03 0.  1.
         11   -1    0    0    0    0 -0.00000000000E+00 -0.00000000000E+00 -0.45593999997E+02  0.45594000000E+02  0.51100000000E-03 0. -1.
    9900012    2    1    2    0    0 -0.17771111348E+02  0.32180224626E+02 -0.17372028563E+02  0.50528848116E+02  0.29999964334E+02 0.  0.
        -12    1    1    2    0    0  0.17771111348E+02 -0.32180224626E+02  0.17372028563E+02  0.40659151884E+02  0.00000000000E+00 0.  1.
         11    1    3    3    0    0 -0.18166071837E+02  0.26189209742E+02 -0.95375999251E+01  0.33269305455E+02  0.51100000000E-03 0. -1.
        -11    1    3    3    0    0  0.40878285252E+01  0.21907145137E+01 -0.10388776221E+02  0.11377005044E+02  0.51100000000E-03 0.  1.
        -12    1    3    3    0    0 -0.36928680363E+01  0.38003003707E+01  0.25543475837E+01  0.58825376173E+01  0.00000000000E+00 0.  1.
</event>
<event>
 7    1  0.4994895E-011  0.5052885E+02  0.7816164E-02  0.1300439E+00
        -11   -1    0    0    0    0  0.00000000000E+00  0.00000000000E+00  0.45593999997E+02  0.45594000000E+02  0.51100000000E-03 0.  1.
         11   -1    0    0    0    0 -0.00000000000E+00 -0.00000000000E+00 -0.45593999997E+02  0.45594000000E+02  0.51100000000E-03 0. -1.
    9900012    2    1    2    0    0 -0.35377965717E+02 -0.19533179012E+02  0.44745039473E+01  0.50528846958E+02  0.29999960813E+02 0.  0.
        -12    1    1    2    0    0  0.35377965717E+02  0.19533179012E+02 -0.44745039473E+01  0.40659153042E+02  0.00000000000E+00 0.  1.
         11    1    3    3    0    0 -0.12402740835E+02 -0.59619690357E+01  0.98079604796E+00  0.13796195713E+02  0.51100000000E-03 0. -1.
        -11    1    3    3    0    0 -0.25373939856E+01 -0.78564425906E+01  0.11408944086E+02  0.14082828687E+02  0.51100000000E-03 0.  1.
        -12    1    3    3    0    0 -0.20437830896E+02 -0.57147673853E+01 -0.79152361865E+01  0.22649822557E+02  0.00000000000E+00 0.  1.
</event>
<event>
 7    1  0.4994895E-011  0.5052886E+02  0.7816164E-02  0.1300439E+00
        -11   -1    0    0    0    0  0.00000000000E+00  0.00000000000E+00  0.45593999997E+02  0.45594000000E+02  0.51100000000E-03 0.  1.
         11   -1    0    0    0    0 -0.00000000000E+00 -0.00000000000E+00 -0.45593999997E+02  0.45594000000E+02  0.51100000000E-03 0. -1.
    9900012    2    1    2    0    0 -0.24315256111E+02  0.29306276631E+02 -0.14250484927E+02  0.50528857727E+02  0.29999993547E+02 0.  0.
        -12    1    1    2    0    0  0.24315256111E+02 -0.29306276631E+02  0.14250484927E+02  0.40659142273E+02  0.00000000000E+00 0.  1.
         11    1    3    3    0    0 -0.13085502701E+01  0.17669617446E+02 -0.10444027687E+02  0.20567095057E+02  0.51100000000E-03 0. -1.
        -11    1    3    3    0    0 -0.20914395993E+02  0.38596519252E+01 -0.54974458377E+00  0.21274658449E+02  0.51100000000E-03 0.  1.
        -12    1    3    3    0    0 -0.20923098473E+01  0.77770072600E+01 -0.32567126563E+01  0.86871042209E+01  0.00000000000E+00 0.  1.
</event>
<event>
 7    1  0.4994895E-011  0.5052888E+02  0.7816164E-02  0.1300439E+00
        -11   -1    0    0    0    0  0.00000000000E+00  0.00000000000E+00  0.45593999997E+02  0.45594000000E+02  0.51100000000E-03 0.  1.
         11   -1    0    0    0    0 -0.00000000000E+00 -0.00000000000E+00 -0.45593999997E+02  0.45594000000E+02  0.51100000000E-03 0. -1.
    9900012    2    1    2    0    0  0.10858179608E+02  0.26544025652E+02 -0.28821490544E+02  0.50528884424E+02  0.30000074695E+02 0.  0.
        -12    1    1    2    0    0 -0.10858179608E+02 -0.26544025652E+02  0.28821490544E+02  0.40659115576E+02  0.00000000000E+00 0.  1.
         11    1    3    3    0    0 -0.59043321286E+01  0.18306696539E+02 -0.22514417134E+02  0.29612417247E+02  0.51100000000E-03 0. -1.
        -11    1    3    3    0    0  0.14579332091E+01  0.14980644883E+01  0.13869890473E+01  0.25086859771E+01  0.51100000000E-03 0.  1.
         12    1    3    3    0    0  0.15304578528E+02  0.67392646245E+01 -0.76940624573E+01  0.18407781200E+02  0.00000000000E+00 0. -1.
</event>
<event>
 7    1  0.4994895E-011  0.5052886E+02  0.7816164E-02  0.1300439E+00
        -11   -1    0    0    0    0  0.00000000000E+00  0.00000000000E+00  0.45593999997E+02  0.45594000000E+02  0.51100000000E-03 0. -1.
         11   -1    0    0    0    0 -0.00000000000E+00 -0.00000000000E+00 -0.45593999997E+02  0.45594000000E+02  0.51100000000E-03 0.  1.
    9900012    2    1    2    0    0  0.29370894615E+02  0.96678361115E+01  0.26401683448E+02  0.50528863334E+02  0.30000010589E+02 0.  0.
        -12    1    1    2    0    0 -0.29370894615E+02 -0.96678361115E+01 -0.26401683448E+02  0.40659136666E+02  0.00000000000E+00 0.  1.
         11    1    3    3    0    0  0.24812154101E+02  0.27872850451E+01  0.25216628813E+02  0.35486480778E+02  0.51100000000E-03 0. -1.
        -11    1    3    3    0    0 -0.26209700732E+01  0.88690918807E+00 -0.35969836709E+01  0.45381035491E+01  0.51100000000E-03 0.  1.
         12    1    3    3    0    0  0.71797105875E+01  0.59936418783E+01  0.47820383056E+01  0.10504279006E+02  0.00000000000E+00 0. -1.
</event>
<event>
 7    1  0.4994895E-011  0.5052886E+02  0.7816164E-02  0.1300439E+00
        -11   -1    0    0    0    0  0.00000000000E+00  0.00000000000E+00  0.45593999997E+02  0.45594000000E+02  0.51100000000E-03 0. -1.
         11   -1    0    0    0    0 -0.00000000000E+00 -0.00000000000E+00 -0.45593999997E+02  0.45594000000E+02  0.51100000000E-03 0.  1.
    9900012    2    1    2    0    0  0.33386172494E+02  0.21731634868E+02  0.81403437152E+01  0.50528860024E+02  0.30000000528E+02 0.  0.
        -12    1    1    2    0    0 -0.33386172494E+02 -0.21731634868E+02 -0.81403437152E+01  0.40659139976E+02  0.00000000000E+00 0.  1.
         11    1    3    3    0    0  0.11792511317E+02  0.14767315723E+02 -0.94560539794E+01  0.21131821832E+02  0.51100000000E-03 0. -1.
        -11    1    3    3    0    0  0.56279783653E+00 -0.60137071674E+00 -0.17561305522E+00  0.84215696283E+00  0.51100000000E-03 0.  1.
         12    1    3    3    0    0  0.21030863340E+02  0.75656898623E+01  0.17772010750E+02  0.28554881229E+02  0.00000000000E+00 0. -1.
</event>
<event>
 7    1  0.4994895E-011  0.5052878E+02  0.7816164E-02  0.1300439E+00
        -11   -1    0    0    0    0  0.00000000000E+00  0.00000000000E+00  0.45593999997E+02  0.45594000000E+02  0.51100000000E-03 0.  1.
         11   -1    0    0    0    0 -0.00000000000E+00 -0.00000000000E+00 -0.45593999997E+02  0.45594000000E+02  0.51100000000E-03 0. -1.
    9900012    2    1    2    0    0 -0.81215520814E+01 -0.39814192755E+02  0.14293133699E+01  0.50528776082E+02  0.29999745377E+02 0.  0.
        -12    1    1    2    0    0  0.81215520814E+01  0.39814192755E+02 -0.14293133699E+01  0.40659223918E+02  0.00000000000E+00 0.  1.
         11    1    3    3    0    0 -0.11512923479E+02 -0.26931803499E+02  0.86645167131E+01  0.30544120496E+02  0.51100000000E-03 0. -1.
        -11    1    3    3    0    0  0.40511480604E+00 -0.14952016829E+02 -0.63195485746E+01  0.16237722122E+02  0.51100000000E-03 0.  1.
         12    1    3    3    0    0  0.29862565919E+01  0.20696275734E+01 -0.91565476856E+00  0.37469334636E+01  0.00000000000E+00 0. -1.
</event>
<event>
 7    1  0.4994895E-011  0.5052884E+02  0.7816164E-02  0.1300439E+00
        -11   -1    0    0    0    0  0.00000000000E+00  0.00000000000E+00  0.45593999997E+02  0.45594000000E+02  0.51100000000E-03 0.  1.
         11   -1    0    0    0    0 -0.00000000000E+00 -0.00000000000E+00 -0.45593999997E+02  0.45594000000E+02  0.51100000000E-03 0. -1.
    9900012    2    1    2    0    0 -0.46323026652E+01  0.21332647565E+01 -0.40338046115E+02  0.50528843456E+02  0.29999950169E+02 0.  0.
        -12    1    1    2    0    0  0.46323026652E+01 -0.21332647565E+01  0.40338046115E+02  0.40659156544E+02  0.00000000000E+00 0.  1.
         11    1    3    3    0    0 -0.62236268708E+01  0.11730326366E+02 -0.26686376015E+02  0.29807662659E+02  0.51100000000E-03 0. -1.
        -11    1    3    3    0    0 -0.40847800978E+01 -0.84453453879E+01 -0.60439203948E+01  0.11159671194E+02  0.51100000000E-03 0.  1.
         12    1    3    3    0    0  0.56761043033E+01 -0.11517162218E+01 -0.76077497049E+01  0.95615096031E+01  0.00000000000E+00 0. -1.
</event>
<event>
 7    1  0.4994895E-011  0.5052886E+02  0.7816164E-02  0.1300439E+00
        -11   -1    0    0    0    0  0.00000000000E+00  0.00000000000E+00  0.45593999997E+02  0.45594000000E+02  0.51100000000E-03 0.  1.
         11   -1    0    0    0    0 -0.00000000000E+00 -0.00000000000E+00 -0.45593999997E+02  0.45594000000E+02  0.51100000000E-03 0. -1.
    9900012    2    1    2    0    0 -0.28840549341E+02 -0.15657063598E+02 -0.24005091949E+02  0.50528863680E+02  0.30000011640E+02 0.  0.
        -12    1    1    2    0    0  0.28840549341E+02  0.15657063598E+02  0.24005091949E+02  0.40659136320E+02  0.00000000000E+00 0.  1.
         11    1    3    3    0    0 -0.25586773120E+02 -0.79265228988E+01 -0.14275668680E+02  0.30353046642E+02  0.51100000000E-03 0. -1.
        -11    1    3    3    0    0 -0.14059083398E+01 -0.11716589742E+02 -0.30627781901E+01  0.12191622695E+02  0.51100000000E-03 0.  1.
        -12    1    3    3    0    0 -0.18478678812E+01  0.39860490421E+01 -0.66666450796E+01  0.79841943419E+01  0.00000000000E+00 0.  1.
</event>
<event>
 7    1  0.4994895E-011  0.5052887E+02  0.7816164E-02  0.1300439E+00
        -11   -1    0    0    0    0  0.00000000000E+00  0.00000000000E+00  0.45593999997E+02  0.45594000000E+02  0.51100000000E-03 0.  1.
         11   -1    0    0    0    0 -0.00000000000E+00 -0.00000000000E+00 -0.45593999997E+02  0.45594000000E+02  0.51100000000E-03 0. -1.
    9900012    2    1    2    0    0 -0.30308440714E+02 -0.26382828689E+02 -0.62056139640E+01  0.50528869748E+02  0.30000030087E+02 0.  0.
        -12    1    1    2    0    0  0.30308440714E+02  0.26382828689E+02  0.62056139640E+01  0.40659130252E+02  0.00000000000E+00 0.  1.
         11    1    3    3    0    0 -0.31625034903E+02 -0.22892371707E+02 -0.10809842799E+02  0.40509952069E+02  0.51100000000E-03 0. -1.
        -11    1    3    3    0    0  0.20370084221E+01  0.21382926397E+01  0.45264479677E+00  0.29877393290E+01  0.51100000000E-03 0.  1.
         12    1    3    3    0    0 -0.72041423262E+00 -0.56287496217E+01  0.41515840380E+01  0.70311783504E+01  0.00000000000E+00 0. -1.
</event>
<event>
 7    1  0.4994895E-011  0.5052888E+02  0.7816164E-02  0.1300439E+00
        -11   -1    0    0    0    0  0.00000000000E+00  0.00000000000E+00  0.45593999997E+02  0.45594000000E+02  0.51100000000E-03 0.  1.
         11   -1    0    0    0    0 -0.00000000000E+00 -0.00000000000E+00 -0.45593999997E+02  0.45594000000E+02  0.51100000000E-03 0. -1.
    9900012    2    1    2    0    0  0.37881367669E+02 -0.13369197702E+02 -0.62793448918E+01  0.50528884959E+02  0.30000076321E+02 0.  0.
        -12    1    1    2    0    0 -0.37881367669E+02  0.13369197702E+02  0.62793448918E+01  0.40659115041E+02  0.00000000000E+00 0.  1.
         11    1    3    3    0    0  0.18649466973E+02 -0.15901126567E+02 -0.48037296417E+01  0.24974472231E+02  0.51100000000E-03 0. -1.
        -11    1    3    3    0    0  0.14722894074E+01  0.65387301027E+01 -0.28785832310E+01  0.72944409748E+01  0.51100000000E-03 0.  1.
         12    1    3    3    0    0  0.17759611289E+02 -0.40068012376E+01  0.14029679810E+01  0.18259971753E+02  0.00000000000E+00 0. -1.
</event>
<event>
 7    1  0.4994895E-011  0.5052889E+02  0.7816164E-02  0.1300439E+00
        -11   -1    0    0    0    0  0.00000000000E+00  0.00000000000E+00  0.45593999997E+02  0.45594000000E+02  0.51100000000E-03 0. -1.
         11   -1    0    0    0    0 -0.00000000000E+00 -0.00000000000E+00 -0.45593999997E+02  0.45594000000E+02  0.51100000000E-03 0.  1.
    9900012    2    1    2    0    0 -0.85507445412E+00  0.16639909874E+02  0.37088348178E+02  0.50528888801E+02  0.30000087998E+02 0.  0.
        -12    1    1    2    0    0  0.85507445412E+00 -0.16639909874E+02 -0.37088348178E+02  0.40659111199E+02  0.00000000000E+00 0.  1.
         11    1    3    3    0    0  0.90120571801E+01  0.29774808918E+01  0.19990874036E+02  0.22129564209E+02  0.51100000000E-03 0. -1.
        -11    1    3    3    0    0 -0.68938573964E+01  0.11342961045E+02  0.19744919404E+02  0.23791802740E+02  0.51100000000E-03 0.  1.
        -12    1    3    3    0    0 -0.29732742378E+01  0.23194679366E+01 -0.26474452620E+01  0.46075218521E+01  0.00000000000E+00 0.  1.
</event>
<event>
 7    1  0.4994895E-011  0.5052887E+02  0.7816164E-02  0.1300439E+00
        -11   -1    0    0    0    0  0.00000000000E+00  0.00000000000E+00  0.45593999997E+02  0.45594000000E+02  0.51100000000E-03 0.  1.
         11   -1    0    0    0    0 -0.00000000000E+00 -0.00000000000E+00 -0.45593999997E+02  0.45594000000E+02  0.51100000000E-03 0. -1.
    9900012    2    1    2    0    0  0.15548514692E+02 -0.10685774522E+01 -0.37553513218E+02  0.50528874063E+02  0.30000043202E+02 0.  0.
        -12    1    1    2    0    0 -0.15548514692E+02  0.10685774522E+01  0.37553513218E+02  0.40659125937E+02  0.00000000000E+00 0.  1.
         11    1    3    3    0    0  0.12241923434E+02 -0.14924788451E+01 -0.30235472795E+02  0.32653881819E+02  0.51100000000E-03 0. -1.
        -11    1    3    3    0    0  0.39065863969E+01 -0.54271296168E+01  0.18898710501E+01  0.69488679654E+01  0.51100000000E-03 0.  1.
        -12    1    3    3    0    0 -0.59999513850E+00  0.58510310097E+01 -0.92079114738E+01  0.10926124279E+02  0.00000000000E+00 0.  1.
</event>
<event>
 7    1  0.4994895E-011  0.5052887E+02  0.7816164E-02  0.1300439E+00
        -11   -1    0    0    0    0  0.00000000000E+00  0.00000000000E+00  0.45593999997E+02  0.45594000000E+02  0.51100000000E-03 0.  1.
         11   -1    0    0    0    0 -0.00000000000E+00 -0.00000000000E+00 -0.45593999997E+02  0.45594000000E+02  0.51100000000E-03 0. -1.
    9900012    2    1    2    0    0 -0.13935838992E+02 -0.25729936683E+02 -0.28229909916E+02  0.50528867397E+02  0.30000022941E+02 0.  0.
        -12    1    1    2    0    0  0.13935838992E+02  0.25729936683E+02  0.28229909916E+02  0.40659132603E+02  0.00000000000E+00 0.  1.
         11    1    3    3    0    0 -0.10191493327E+02  0.39144632035E+01 -0.12463635827E+02  0.16569000473E+02  0.51100000000E-03 0. -1.
        -11    1    3    3    0    0 -0.17084382300E+01 -0.10630479177E+02 -0.75311633666E+01  0.13139416678E+02  0.51100000000E-03 0.  1.
         12    1    3    3    0    0 -0.20359074354E+01 -0.19013920709E+02 -0.82351107227E+01  0.20820450246E+02  0.00000000000E+00 0. -1.
</event>
<event>
 7    1  0.4994895E-011  0.5052886E+02  0.7816164E-02  0.1300439E+00
        -11   -1    0    0    0    0  0.00000000000E+00  0.00000000000E+00  0.45593999997E+02  0.45594000000E+02  0.51100000000E-03 0. -1.
         11   -1    0    0    0    0 -0.00000000000E+00 -0.00000000000E+00 -0.45593999997E+02  0.45594000000E+02  0.51100000000E-03 0.  1.
    9900012    2    1    2    0    0  0.37326357835E+02 -0.15907540893E+02  0.26189267884E+01  0.50528860510E+02  0.30000002007E+02 0.  0.
        -12    1    1    2    0    0 -0.37326357835E+02  0.15907540893E+02 -0.26189267884E+01  0.40659139490E+02  0.00000000000E+00 0.  1.
         11    1    3    3    0    0  0.61951611941E+01 -0.10125599796E+02 -0.53882587691E+01  0.13036146910E+02  0.51100000000E-03 0. -1.
        -11    1    3    3    0    0  0.33558888885E+02 -0.52054741101E+01  0.64970284854E+01  0.34576109719E+02  0.51100000000E-03 0.  1.
        -12    1    3    3    0    0 -0.24276922434E+01 -0.57646698671E+00  0.15101570722E+01  0.29166038809E+01  0.00000000000E+00 0.  1.
</event>
<event>
 7    1  0.5505034E-011  0.5052886E+02  0.7816164E-02  0.1300439E+00
        -11   -1    0    0    0    0  0.00000000000E+00  0.00000000000E+00  0.45593999997E+02  0.45594000000E+02  0.51100000000E-03 0. -1.
         11   -1    0    0    0    0 -0.00000000000E+00 -0.00000000000E+00 -0.45593999997E+02  0.45594000000E+02  0.51100000000E-03 0.  1.
    9900012    2    1    2    0    0 -0.10798436351E+02  0.35399331028E+02  0.16835881364E+02  0.50528858762E+02  0.29999996694E+02 0.  0.
        -12    1    1    2    0    0  0.10798436351E+02 -0.35399331028E+02 -0.16835881364E+02  0.40659141238E+02  0.00000000000E+00 0.  1.
         11    1    3    3    0    0 -0.13278740740E+02  0.84767774623E+01  0.76251781646E+01  0.17502115703E+02  0.51100000000E-03 0. -1.
        -11    1    3    3    0    0 -0.10334040484E+01  0.27403128916E+02  0.56448092176E+01  0.27997558280E+02  0.51100000000E-03 0.  1.
        -12    1    3    3    0    0  0.35137084372E+01 -0.48057534976E+00  0.35658939823E+01  0.50291847790E+01  0.00000000000E+00 0.  1.
</event>
<event>
 7    1  0.4994895E-011  0.5052885E+02  0.7816164E-02  0.1300439E+00
        -11   -1    0    0    0    0  0.00000000000E+00  0.00000000000E+00  0.45593999997E+02  0.45594000000E+02  0.51100000000E-03 0.  1.
         11   -1    0    0    0    0 -0.00000000000E+00 -0.00000000000E+00 -0.45593999997E+02  0.45594000000E+02  0.51100000000E-03 0. -1.
    9900012    2    1    2    0    0  0.98500061406E+01  0.44119756750E+01 -0.39200491450E+02  0.50528847522E+02  0.29999962526E+02 0.  0.
        -12    1    1    2    0    0 -0.98500061406E+01 -0.44119756750E+01  0.39200491450E+02  0.40659152478E+02  0.00000000000E+00 0.  1.
         11    1    3    3    0    0 -0.28908205181E+00 -0.50910780388E+01 -0.12093005554E+02  0.13124154359E+02  0.51100000000E-03 0. -1.
        -11    1    3    3    0    0  0.51522110255E+01  0.12512023861E+02 -0.28381994061E+02  0.31442544533E+02  0.51100000000E-03 0.  1.
        -12    1    3    3    0    0  0.49868771669E+01 -0.30089701469E+01  0.12745081654E+01  0.59621486300E+01  0.00000000000E+00 0.  1.
</event>
<event>
 7    1  0.4994895E-011  0.5052886E+02  0.7816164E-02  0.1300439E+00
        -11   -1    0    0    0    0  0.00000000000E+00  0.00000000000E+00  0.45593999997E+02  0.45594000000E+02  0.51100000000E-03 0.  1.
         11   -1    0    0    0    0 -0.00000000000E+00 -0.00000000000E+00 -0.45593999997E+02  0.45594000000E+02  0.51100000000E-03 0. -1.
    9900012    2    1    2    0    0 -0.16681261380E+02 -0.33952905501E+02  0.14903072091E+02  0.50528857967E+02  0.29999994275E+02 0.  0.
        -12    1    1    2    0    0  0.16681261380E+02  0.33952905501E+02 -0.14903072091E+02  0.40659142033E+02  0.00000000000E+00 0.  1.
         11    1    3    3    0    0 -0.10187304344E+02 -0.32770650895E+02  0.17316851129E+02  0.38439173550E+02  0.51100000000E-03 0. -1.
        -11    1    3    3    0    0  0.17230915783E+01  0.20488922806E+01 -0.18261341885E+01  0.32406435318E+01  0.51100000000E-03 0.  1.
         12    1    3    3    0    0 -0.82170486134E+01 -0.32311468865E+01 -0.58764485002E+00  0.88490408851E+01  0.00000000000E+00 0. -1.
</event>
<event>
 7    1  0.4994895E-011  0.5052886E+02  0.7816164E-02  0.1300439E+00
        -11   -1    0    0    0    0  0.00000000000E+00  0.00000000000E+00  0.45593999997E+02  0.45594000000E+02  0.51100000000E-03 0.  1.
         11   -1    0    0    0    0 -0.00000000000E+00 -0.00000000000E+00 -0.45593999997E+02  0.45594000000E+02  0.51100000000E-03 0. -1.
    9900012    2    1    2    0    0  0.36177265092E+02  0.18547567624E+02 -0.59904761311E+00  0.50528860408E+02  0.30000001697E+02 0.  0.
        -12    1    1    2    0    0 -0.36177265092E+02 -0.18547567624E+02  0.59904761311E+00  0.40659139592E+02  0.00000000000E+00 0.  1.
         11    1    3    3    0    0  0.19159093991E+02  0.15320465702E+02  0.24927593567E+01  0.24657684428E+02  0.51100000000E-03 0. -1.
        -11    1    3    3    0    0 -0.17193150236E+01 -0.46471438027E+01  0.11999117408E+01  0.50982132282E+01  0.51100000000E-03 0.  1.
         12    1    3    3    0    0  0.18737486125E+02  0.78742457249E+01 -0.42917187106E+01  0.20772962752E+02  0.00000000000E+00 0. -1.
</event>
<event>
 7    1  0.4994895E-011  0.5052886E+02  0.7816164E-02  0.1300439E+00
        -11   -1    0    0    0    0  0.00000000000E+00  0.00000000000E+00  0.45593999997E+02  0.45594000000E+02  0.51100000000E-03 0.  1.
         11   -1    0    0    0    0 -0.00000000000E+00 -0.00000000000E+00 -0.45593999997E+02  0.45594000000E+02  0.51100000000E-03 0. -1.
    9900012    2    1    2    0    0 -0.17206691501E+02  0.22723760032E+02 -0.28995276429E+02  0.50528861327E+02  0.30000004490E+02 0.  0.
        -12    1    1    2    0    0  0.17206691501E+02 -0.22723760032E+02  0.28995276429E+02  0.40659138673E+02  0.00000000000E+00 0.  1.
         11    1    3    3    0    0 -0.86114653365E+01  0.60693329198E+01 -0.15716391707E+02  0.18920864300E+02  0.51100000000E-03 0. -1.
        -11    1    3    3    0    0  0.61775075203E+01  0.74452626105E+00 -0.12535329499E+00  0.62234742891E+01  0.51100000000E-03 0.  1.
        -12    1    3    3    0    0 -0.14772733685E+02  0.15909900851E+02 -0.13153531427E+02  0.25384522738E+02  0.00000000000E+00 0.  1.
</event>
<event>
 7    1  0.4994895E-011  0.5052886E+02  0.7816164E-02  0.1300439E+00
        -11   -1    0    0    0    0  0.00000000000E+00  0.00000000000E+00  0.45593999997E+02  0.45594000000E+02  0.51100000000E-03 0. -1.
         11   -1    0    0    0    0 -0.00000000000E+00 -0.00000000000E+00 -0.45593999997E+02  0.45594000000E+02  0.51100000000E-03 0.  1.
    9900012    2    1    2    0    0  0.34055188108E+02  0.21751618805E+02  0.45030072254E+01  0.50528857956E+02  0.29999994244E+02 0.  0.
        -12    1    1    2    0    0 -0.34055188108E+02 -0.21751618805E+02 -0.45030072254E+01  0.40659142044E+02  0.00000000000E+00 0.  1.
         11    1    3    3    0    0  0.31546595435E+02  0.24639708666E+02  0.78555596254E+01  0.40792312315E+02  0.51100000000E-03 0. -1.
        -11    1    3    3    0    0  0.28682790528E+01  0.66137737606E+00 -0.50037342658E+01  0.58053252813E+01  0.51100000000E-03 0.  1.
         12    1    3    3    0    0 -0.35968638049E+00 -0.35494672378E+01  0.16511818658E+01  0.39312203599E+01  0.00000000000E+00 0. -1.
</event>
<event>
 7    1  0.4994895E-011  0.5052885E+02  0.7816164E-02  0.1300439E+00
        -11   -1    0    0    0    0  0.00000000000E+00  0.00000000000E+00  0.45593999997E+02  0.45594000000E+02  0.51100000000E-03 0.  1.
         11   -1    0    0    0    0 -0.00000000000E+00 -0.00000000000E+00 -0.45593999997E+02  0.45594000000E+02  0.51100000000E-03 0. -1.
    9900012    2    1    2    0    0 -0.70662741587E+01 -0.17590534107E+02 -0.35969536688E+02  0.50528847399E+02  0.29999962155E+02 0.  0.
        -12    1    1    2    0    0  0.70662741587E+01  0.17590534107E+02  0.35969536688E+02  0.40659152601E+02  0.00000000000E+00 0.  1.
         11    1    3    3    0    0  0.62545000544E+01 -0.16234435895E+02 -0.12601722655E+02  0.21482064470E+02  0.51100000000E-03 0. -1.
        -11    1    3    3    0    0 -0.13591183070E+02 -0.12035198711E+00 -0.13706207654E+02  0.19302716657E+02  0.51100000000E-03 0.  1.
        -12    1    3    3    0    0  0.27040885648E+00 -0.12357462246E+01 -0.96616063797E+01  0.97440662722E+01  0.00000000000E+00 0.  1.
</event>
<event>
 7    1  0.4994895E-011  0.5052886E+02  0.7816164E-02  0.1300439E+00
        -11   -1    0    0    0    0  0.00000000000E+00  0.00000000000E+00  0.45593999997E+02  0.45594000000E+02  0.51100000000E-03 0.  1.
         11   -1    0    0    0    0 -0.00000000000E+00 -0.00000000000E+00 -0.45593999997E+02  0.45594000000E+02  0.51100000000E-03 0. -1.
    9900012    2    1    2    0    0 -0.30602209663E+01 -0.54927112952E+01 -0.40170024289E+02  0.50528859809E+02  0.29999999874E+02 0.  0.
        -12    1    1    2    0    0  0.30602209663E+01  0.54927112952E+01  0.40170024289E+02  0.40659140191E+02  0.00000000000E+00 0.  1.
         11    1    3    3    0    0  0.73611831426E+01  0.12304328849E+01 -0.30106388032E+02  0.31017665659E+02  0.51100000000E-03 0. -1.
        -11    1    3    3    0    0 -0.10287262526E+02 -0.40394843832E+00 -0.72547866738E+01  0.12594557339E+02  0.51100000000E-03 0.  1.
        -12    1    3    3    0    0 -0.13414158267E+00 -0.63191957417E+01 -0.28088495827E+01  0.69166368102E+01  0.00000000000E+00 0.  1.
</event>
<event>
 7    1  0.4994895E-011  0.5052887E+02  0.7816164E-02  0.1300439E+00
        -11   -1    0    0    0    0  0.00000000000E+00  0.00000000000E+00  0.45593999997E+02  0.45594000000E+02  0.51100000000E-03 0. -1.
         11   -1    0    0    0    0 -0.00000000000E+00 -0.00000000000E+00 -0.45593999997E+02  0.45594000000E+02  0.51100000000E-03 0.  1.
    9900012    2    1    2    0    0  0.47198037749E+01  0.18973857976E+02  0.35649420929E+02  0.50528867609E+02  0.30000023586E+02 0.  0.
        -12    1    1    2    0    0 -0.47198037749E+01 -0.18973857976E+02 -0.35649420929E+02  0.40659132391E+02  0.00000000000E+00 0.  1.
         11    1    3    3    0    0 -0.89096132576E+01  0.16468162177E+02  0.13998748642E+02  0.23378334793E+02  0.51100000000E-03 0. -1.
        -11    1    3    3    0    0  0.61448668517E+01  0.38205045239E+01  0.48489504859E+01  0.87102218410E+01  0.51100000000E-03 0.  1.
         12    1    3    3    0    0  0.74845501808E+01 -0.13148087245E+01  0.16801721802E+02  0.18440310976E+02  0.00000000000E+00 0. -1.
</event>
<event>
 7    1  0.4994895E-011  0.5052886E+02  0.7816164E-02  0.1300439E+00
        -11   -1    0    0    0    0  0.00000000000E+00  0.00000000000E+00  0.45593999997E+02  0.45594000000E+02  0.51100000000E-03 0.  1.
         11   -1    0    0    0    0 -0.00000000000E+00 -0.00000000000E+00 -0.45593999997E+02  0.45594000000E+02  0.51100000000E-03 0. -1.
    9900012    2    1    2    0    0  0.13681615127E+02 -0.12427024521E+02 -0.36215298047E+02  0.50528863959E+02  0.30000012491E+02 0.  0.
        -12    1    1    2    0    0 -0.13681615127E+02  0.12427024521E+02  0.36215298047E+02  0.40659136041E+02  0.00000000000E+00 0.  1.
         11    1    3    3    0    0 -0.62125127220E+01  0.46193703538E+01 -0.79593803382E+01  0.11103406343E+02  0.51100000000E-03 0.  1.
        -11    1    3    3    0    0  0.94244021855E+01 -0.13149546056E+02 -0.14696074437E+02  0.21856452644E+02  0.51100000000E-03 0. -1.
         12    1    3    3    0    0  0.10469725664E+02 -0.38968488189E+01 -0.13559843272E+02  0.17569004973E+02  0.00000000000E+00 0. -1.
</event>
<event>
 7    1  0.4994895E-011  0.5052885E+02  0.7816164E-02  0.1300439E+00
        -11   -1    0    0    0    0  0.00000000000E+00  0.00000000000E+00  0.45593999997E+02  0.45594000000E+02  0.51100000000E-03 0. -1.
         11   -1    0    0    0    0 -0.00000000000E+00 -0.00000000000E+00 -0.45593999997E+02  0.45594000000E+02  0.51100000000E-03 0.  1.
    9900012    2    1    2    0    0 -0.19029220922E+02  0.35856086910E+02  0.23229039386E+01  0.50528854656E+02  0.29999984213E+02 0.  0.
        -12    1    1    2    0    0  0.19029220922E+02 -0.35856086910E+02 -0.23229039386E+01  0.40659145344E+02  0.00000000000E+00 0.  1.
         11    1    3    3    0    0 -0.19668909739E+02  0.35701562073E+02  0.92608133264E+00  0.40771622137E+02  0.51100000000E-03 0. -1.
        -11    1    3    3    0    0  0.34931265873E+01 -0.94054268891E+00 -0.27935874020E+01  0.45706328597E+01  0.51100000000E-03 0.  1.
         12    1    3    3    0    0 -0.28534377697E+01  0.10950675252E+01  0.41904100080E+01  0.51865996593E+01  0.00000000000E+00 0. -1.
</event>
<event>
 7    1  0.4994895E-011  0.5052886E+02  0.7816164E-02  0.1300439E+00
        -11   -1    0    0    0    0  0.00000000000E+00  0.00000000000E+00  0.45593999997E+02  0.45594000000E+02  0.51100000000E-03 0. -1.
         11   -1    0    0    0    0 -0.00000000000E+00 -0.00000000000E+00 -0.45593999997E+02  0.45594000000E+02  0.51100000000E-03 0.  1.
    9900012    2    1    2    0    0 -0.57176041318E+01  0.35593208470E+02  0.18804212262E+02  0.50528857301E+02  0.29999992252E+02 0.  0.
        -12    1    1    2    0    0  0.57176041318E+01 -0.35593208470E+02 -0.18804212262E+02  0.40659142699E+02  0.00000000000E+00 0.  1.
         11    1    3    3    0    0 -0.85642758094E+00  0.35942125851E+02  0.14113781950E+02  0.38623421911E+02  0.51100000000E-03 0. -1.
        -11    1    3    3    0    0 -0.33362889525E+00 -0.16353997573E+01 -0.26818159899E+01  0.31587937367E+01  0.51100000000E-03 0.  1.
         12    1    3    3    0    0 -0.45275476556E+01  0.12864823764E+01  0.73722463021E+01  0.87466416536E+01  0.00000000000E+00 0. -1.
</event>
<event>
 7    1  0.4994895E-011  0.5052881E+02  0.7816164E-02  0.1300439E+00
        -11   -1    0    0    0    0  0.00000000000E+00  0.00000000000E+00  0.45593999997E+02  0.45594000000E+02  0.51100000000E-03 0.  1.
         11   -1    0    0    0    0 -0.00000000000E+00 -0.00000000000E+00 -0.45593999997E+02  0.45594000000E+02  0.51100000000E-03 0. -1.
    9900012    2    1    2    0    0  0.21438805151E+02  0.37442387166E+01 -0.34344261043E+02  0.50528807233E+02  0.29999840065E+02 0.  0.
        -12    1    1    2    0    0 -0.21438805151E+02 -0.37442387166E+01  0.34344261043E+02  0.40659192767E+02  0.00000000000E+00 0.  1.
         11    1    3    3    0    0  0.74872370442E+01  0.45078300984E+01 -0.23915041143E+02  0.25461901812E+02  0.51100000000E-03 0. -1.
        -11    1    3    3    0    0  0.48041968025E+01 -0.78722864541E+01  0.36918121600E+00  0.92298155975E+01  0.51100000000E-03 0.  1.
         12    1    3    3    0    0  0.91473713039E+01  0.71086950723E+01 -0.10798401116E+02  0.15837089823E+02  0.00000000000E+00 0. -1.
</event>
<event>
 7    1  0.4994895E-011  0.5052885E+02  0.7816164E-02  0.1300439E+00
        -11   -1    0    0    0    0  0.00000000000E+00  0.00000000000E+00  0.45593999997E+02  0.45594000000E+02  0.51100000000E-03 0.  1.
         11   -1    0    0    0    0 -0.00000000000E+00 -0.00000000000E+00 -0.45593999997E+02  0.45594000000E+02  0.51100000000E-03 0. -1.
    9900012    2    1    2    0    0 -0.61033522336E+01  0.24440090469E+02 -0.31915477700E+02  0.50528847925E+02  0.29999963753E+02 0.  0.
        -12    1    1    2    0    0  0.61033522336E+01 -0.24440090469E+02  0.31915477700E+02  0.40659152075E+02  0.00000000000E+00 0.  1.
         11    1    3    3    0    0 -0.14086344990E+02  0.36866316791E+01 -0.17892533418E+02  0.23068574310E+02  0.51100000000E-03 0. -1.
        -11    1    3    3    0    0  0.65113950356E+01  0.11106414125E+02 -0.40242807586E+01  0.13488718838E+02  0.51100000000E-03 0.  1.
        -12    1    3    3    0    0  0.14715977205E+01  0.96470446652E+01 -0.99986635239E+01  0.13971554777E+02  0.00000000000E+00 0.  1.
</event>
<event>
 7    1  0.4994895E-011  0.5052888E+02  0.7816164E-02  0.1300439E+00
        -11   -1    0    0    0    0  0.00000000000E+00  0.00000000000E+00  0.45593999997E+02  0.45594000000E+02  0.51100000000E-03 0. -1.
         11   -1    0    0    0    0 -0.00000000000E+00 -0.00000000000E+00 -0.45593999997E+02  0.45594000000E+02  0.51100000000E-03 0.  1.
    9900012    2    1    2    0    0 -0.14531845830E+02  0.24808504362E+02  0.28749391733E+02  0.50528881011E+02  0.30000064322E+02 0.  0.
        -12    1    1    2    0    0  0.14531845830E+02 -0.24808504362E+02 -0.28749391733E+02  0.40659118989E+02  0.00000000000E+00 0.  1.
         11    1    3    3    0    0 -0.21354776230E+01 -0.39395456813E+00  0.11613626700E+02  0.11814896964E+02  0.51100000000E-03 0. -1.
        -11    1    3    3    0    0  0.26832720536E+01  0.16187966475E+02  0.43208313905E+01  0.16968199424E+02  0.51100000000E-03 0.  1.
        -12    1    3    3    0    0 -0.15079640261E+02  0.90144924549E+01  0.12814933642E+02  0.21745784623E+02  0.00000000000E+00 0.  1.
</event>
<event>
 7    1  0.4994895E-011  0.5052886E+02  0.7816164E-02  0.1300439E+00
        -11   -1    0    0    0    0  0.00000000000E+00  0.00000000000E+00  0.45593999997E+02  0.45594000000E+02  0.51100000000E-03 0.  1.
         11   -1    0    0    0    0 -0.00000000000E+00 -0.00000000000E+00 -0.45593999997E+02  0.45594000000E+02  0.51100000000E-03 0. -1.
    9900012    2    1    2    0    0 -0.20376859473E+01 -0.23383913142E+02 -0.33199486456E+02  0.50528862542E+02  0.30000008184E+02 0.  0.
        -12    1    1    2    0    0  0.20376859473E+01  0.23383913142E+02  0.33199486456E+02  0.40659137458E+02  0.00000000000E+00 0.  1.
         11    1    3    3    0    0  0.77317093618E+01 -0.17187198906E+02 -0.29947851024E+02  0.35384359781E+02  0.51100000000E-03 0. -1.
        -11    1    3    3    0    0 -0.87257778791E+01 -0.76354474954E+01 -0.18058392766E+00  0.11596200622E+02  0.51100000000E-03 0.  1.
        -12    1    3    3    0    0 -0.10436174299E+01  0.14387332592E+01 -0.30710515044E+01  0.35483021396E+01  0.00000000000E+00 0.  1.
</event>
<event>
 7    1  0.4994895E-011  0.5052884E+02  0.7816164E-02  0.1300439E+00
        -11   -1    0    0    0    0  0.00000000000E+00  0.00000000000E+00  0.45593999997E+02  0.45594000000E+02  0.51100000000E-03 0. -1.
         11   -1    0    0    0    0 -0.00000000000E+00 -0.00000000000E+00 -0.45593999997E+02  0.45594000000E+02  0.51100000000E-03 0.  1.
    9900012    2    1    2    0    0 -0.40388601936E+01  0.82781851103E+01  0.39602098520E+02  0.50528844234E+02  0.29999952535E+02 0.  0.
        -12    1    1    2    0    0  0.40388601936E+01 -0.82781851103E+01 -0.39602098520E+02  0.40659155766E+02  0.00000000000E+00 0.  1.
         11    1    3    3    0    0 -0.67423842806E+01  0.51616088711E+01  0.14636483997E+02  0.16921247471E+02  0.51100000000E-03 0. -1.
        -11    1    3    3    0    0  0.15536484161E+01 -0.81369880664E+01  0.19199973530E+02  0.20910843647E+02  0.51100000000E-03 0.  1.
        -12    1    3    3    0    0  0.11498756710E+01  0.11253564306E+02  0.57656409926E+01  0.12696753116E+02  0.00000000000E+00 0.  1.
</event>
<event>
 7    1  0.4994895E-011  0.5052886E+02  0.7816164E-02  0.1300439E+00
        -11   -1    0    0    0    0  0.00000000000E+00  0.00000000000E+00  0.45593999997E+02  0.45594000000E+02  0.51100000000E-03 0.  1.
         11   -1    0    0    0    0 -0.00000000000E+00 -0.00000000000E+00 -0.45593999997E+02  0.45594000000E+02  0.51100000000E-03 0. -1.
    9900012    2    1    2    0    0 -0.67660916103E+01  0.27010026004E+02 -0.29628435878E+02  0.50528859416E+02  0.29999998681E+02 0.  0.
        -12    1    1    2    0    0  0.67660916103E+01 -0.27010026004E+02  0.29628435878E+02  0.40659140584E+02  0.00000000000E+00 0.  1.
         11    1    3    3    0    0 -0.29616633107E+01  0.25044864486E+02 -0.17732722438E+02  0.30829630747E+02  0.51100000000E-03 0. -1.
        -11    1    3    3    0    0 -0.85963427286E+01  0.50548710869E+01 -0.69978112037E+01  0.12182700518E+02  0.51100000000E-03 0.  1.
         12    1    3    3    0    0  0.47919144290E+01 -0.30897095692E+01 -0.48979022367E+01  0.75165281505E+01  0.00000000000E+00 0. -1.
</event>
<event>
 7    1  0.4994895E-011  0.5052887E+02  0.7816164E-02  0.1300439E+00
        -11   -1    0    0    0    0  0.00000000000E+00  0.00000000000E+00  0.45593999997E+02  0.45594000000E+02  0.51100000000E-03 0.  1.
         11   -1    0    0    0    0 -0.00000000000E+00 -0.00000000000E+00 -0.45593999997E+02  0.45594000000E+02  0.51100000000E-03 0. -1.
    9900012    2    1    2    0    0 -0.35071027417E+02 -0.10831562622E+02 -0.17489008976E+02  0.50528866365E+02  0.30000019804E+02 0.  0.
        -12    1    1    2    0    0  0.35071027417E+02  0.10831562622E+02  0.17489008976E+02  0.40659133635E+02  0.00000000000E+00 0.  1.
         11    1    3    3    0    0 -0.33622839249E+00 -0.92806913738E+01 -0.15778043811E+01  0.94198592789E+01  0.51100000000E-03 0. -1.
        -11    1    3    3    0    0 -0.16577051366E+02 -0.12673591438E+00  0.51059431961E+00  0.16585397216E+02  0.51100000000E-03 0.  1.
         12    1    3    3    0    0 -0.18157747658E+02 -0.14241353338E+01 -0.16421798915E+02  0.24523609870E+02  0.00000000000E+00 0. -1.
</event>
<event>
 7    1  0.4994895E-011  0.5052887E+02  0.7816164E-02  0.1300439E+00
        -11   -1    0    0    0    0  0.00000000000E+00  0.00000000000E+00  0.45593999997E+02  0.45594000000E+02  0.51100000000E-03 0.  1.
         11   -1    0    0    0    0 -0.00000000000E+00 -0.00000000000E+00 -0.45593999997E+02  0.45594000000E+02  0.51100000000E-03 0. -1.
    9900012    2    1    2    0    0 -0.22551512843E+02 -0.11079628397E+02 -0.31966163191E+02  0.50528874504E+02  0.30000044542E+02 0.  0.
        -12    1    1    2    0    0  0.22551512843E+02  0.11079628397E+02  0.31966163191E+02  0.40659125496E+02  0.00000000000E+00 0.  1.
         11    1    3    3    0    0 -0.11326817600E+02 -0.13434341299E+01 -0.17826751849E+02  0.21163522721E+02  0.51100000000E-03 0. -1.
        -11    1    3    3    0    0 -0.17300931180E+01 -0.14558665913E+02 -0.55227948513E+01  0.15666819671E+02  0.51100000000E-03 0.  1.
        -12    1    3    3    0    0 -0.94946021248E+01  0.48224716455E+01 -0.86166164909E+01  0.13698532112E+02  0.00000000000E+00 0.  1.
</event>
<event>
 7    1  0.4994895E-011  0.5052886E+02  0.7816164E-02  0.1300439E+00
        -11   -1    0    0    0    0  0.00000000000E+00  0.00000000000E+00  0.45593999997E+02  0.45594000000E+02  0.51100000000E-03 0. -1.
         11   -1    0    0    0    0 -0.00000000000E+00 -0.00000000000E+00 -0.45593999997E+02  0.45594000000E+02  0.51100000000E-03 0.  1.
    9900012    2    1    2    0    0 -0.13078197206E+02 -0.37644364340E+02 -0.80640064438E+01  0.50528860699E+02  0.30000002582E+02 0.  0.
        -12    1    1    2    0    0  0.13078197206E+02  0.37644364340E+02  0.80640064438E+01  0.40659139301E+02  0.00000000000E+00 0.  1.
         11    1    3    3    0    0 -0.16404928250E+02 -0.20377049741E+02  0.46280344183E+01  0.26566229124E+02  0.51100000000E-03 0. -1.
        -11    1    3    3    0    0  0.60298922873E+01 -0.80099806539E+01 -0.94791437464E+01  0.13797592453E+02  0.51100000000E-03 0.  1.
        -12    1    3    3    0    0 -0.27031612434E+01 -0.92573339454E+01 -0.32128971157E+01  0.10165039122E+02  0.00000000000E+00 0.  1.
</event>
<event>
 7    1  0.4994895E-011  0.5052889E+02  0.7816164E-02  0.1300439E+00
        -11   -1    0    0    0    0  0.00000000000E+00  0.00000000000E+00  0.45593999997E+02  0.45594000000E+02  0.51100000000E-03 0. -1.
         11   -1    0    0    0    0 -0.00000000000E+00 -0.00000000000E+00 -0.45593999997E+02  0.45594000000E+02  0.51100000000E-03 0.  1.
    9900012    2    1    2    0    0  0.13879093861E+02 -0.34105557933E+02  0.17243695437E+02  0.50528888344E+02  0.30000086610E+02 0.  0.
        -12    1    1    2    0    0 -0.13879093861E+02  0.34105557933E+02 -0.17243695437E+02  0.40659111656E+02  0.00000000000E+00 0.  1.
         11    1    3    3    0    0 -0.68924783794E+01 -0.21463958913E+02  0.82326393403E+01  0.23999669606E+02  0.51100000000E-03 0. -1.
        -11    1    3    3    0    0  0.13140325538E+02 -0.71068828091E+01  0.82643616752E+01  0.17072656872E+02  0.51100000000E-03 0.  1.
         12    1    3    3    0    0  0.76312467021E+01 -0.55347162117E+01  0.74669442135E+00  0.94565618663E+01  0.00000000000E+00 0. -1.
</event>
<event>
 7    1  0.4994895E-011  0.5052886E+02  0.7816164E-02  0.1300439E+00
        -11   -1    0    0    0    0  0.00000000000E+00  0.00000000000E+00  0.45593999997E+02  0.45594000000E+02  0.51100000000E-03 0.  1.
         11   -1    0    0    0    0 -0.00000000000E+00 -0.00000000000E+00 -0.45593999997E+02  0.45594000000E+02  0.51100000000E-03 0. -1.
    9900012    2    1    2    0    0  0.62319979193E+01 -0.25625842348E+02 -0.30945830107E+02  0.50528855948E+02  0.29999988138E+02 0.  0.
        -12    1    1    2    0    0 -0.62319979193E+01  0.25625842348E+02  0.30945830107E+02  0.40659144052E+02  0.00000000000E+00 0.  1.
         11    1    3    3    0    0  0.13362160646E+02 -0.91667074596E+01 -0.71264235735E+01  0.17702027454E+02  0.51100000000E-03 0. -1.
        -11    1    3    3    0    0 -0.68665756679E+01 -0.16127411221E+01 -0.41561219411E+01  0.81868275407E+01  0.51100000000E-03 0.  1.
         12    1    3    3    0    0 -0.26358705893E+00 -0.14846393766E+02 -0.19663284592E+02  0.24640000953E+02  0.00000000000E+00 0. -1.
</event>
<event>
 7    1  0.4994895E-011  0.5052886E+02  0.7816164E-02  0.1300439E+00
        -11   -1    0    0    0    0  0.00000000000E+00  0.00000000000E+00  0.45593999997E+02  0.45594000000E+02  0.51100000000E-03 0.  1.
         11   -1    0    0    0    0 -0.00000000000E+00 -0.00000000000E+00 -0.45593999997E+02  0.45594000000E+02  0.51100000000E-03 0. -1.
    9900012    2    1    2    0    0  0.31996058732E+02  0.12562346296E+02 -0.21716483573E+02  0.50528856162E+02  0.29999988790E+02 0.  0.
        -12    1    1    2    0    0 -0.31996058732E+02 -0.12562346296E+02  0.21716483573E+02  0.40659143838E+02  0.00000000000E+00 0.  1.
         11    1    3    3    0    0  0.13628765937E+02 -0.58191027435E+01  0.55646652538E+00  0.14829527065E+02  0.51100000000E-03 0. -1.
        -11    1    3    3    0    0  0.14754982038E+02  0.14648271758E+02 -0.11549453149E+02  0.23783843860E+02  0.51100000000E-03 0.  1.
        -12    1    3    3    0    0  0.36123107577E+01  0.37331772807E+01 -0.10723496950E+02  0.11915485238E+02  0.00000000000E+00 0.  1.
</event>
<event>
 7    1  0.4994895E-011  0.5052885E+02  0.7816164E-02  0.1300439E+00
        -11   -1    0    0    0    0  0.00000000000E+00  0.00000000000E+00  0.45593999997E+02  0.45594000000E+02  0.51100000000E-03 0.  1.
         11   -1    0    0    0    0 -0.00000000000E+00 -0.00000000000E+00 -0.45593999997E+02  0.45594000000E+02  0.51100000000E-03 0. -1.
    9900012    2    1    2    0    0 -0.10267199827E+02  0.37169863370E+02 -0.12890004052E+02  0.50528851709E+02  0.29999975255E+02 0.  0.
        -12    1    1    2    0    0  0.10267199827E+02 -0.37169863370E+02  0.12890004052E+02  0.40659148291E+02  0.00000000000E+00 0.  1.
         11    1    3    3    0    0 -0.62906466909E+01  0.20050736486E+01 -0.63486746388E+01  0.91595974833E+01  0.51100000000E-03 0. -1.
        -11    1    3    3    0    0  0.82752125438E+01  0.17207157086E+02 -0.24764794403E+01  0.19253528204E+02  0.51100000000E-03 0.  1.
        -12    1    3    3    0    0 -0.12251765680E+02  0.17957632636E+02 -0.40648499731E+01  0.22115726022E+02  0.00000000000E+00 0.  1.
</event>
<event>
 7    1  0.4994895E-011  0.5052882E+02  0.7816164E-02  0.1300439E+00
        -11   -1    0    0    0    0  0.00000000000E+00  0.00000000000E+00  0.45593999997E+02  0.45594000000E+02  0.51100000000E-03 0.  1.
         11   -1    0    0    0    0 -0.00000000000E+00 -0.00000000000E+00 -0.45593999997E+02  0.45594000000E+02  0.51100000000E-03 0. -1.
    9900012    2    1    2    0    0 -0.91507499549E+01 -0.15480282363E+02 -0.36466339251E+02  0.50528815735E+02  0.29999865907E+02 0.  0.
        -12    1    1    2    0    0  0.91507499549E+01  0.15480282363E+02  0.36466339251E+02  0.40659184265E+02  0.00000000000E+00 0.  1.
         11    1    3    3    0    0 -0.10066721692E+02  0.57997487133E+01 -0.81511191881E+01  0.14192135676E+02  0.51100000000E-03 0.  1.
        -11    1    3    3    0    0 -0.28614898909E+01 -0.16027949503E+02 -0.20972766467E+02  0.26550710408E+02  0.51100000000E-03 0. -1.
        -12    1    3    3    0    0  0.37774616276E+01 -0.52520815730E+01 -0.73424535959E+01  0.97859696507E+01  0.00000000000E+00 0.  1.
</event>
<event>
 7    1  0.4994895E-011  0.5052886E+02  0.7816164E-02  0.1300439E+00
        -11   -1    0    0    0    0  0.00000000000E+00  0.00000000000E+00  0.45593999997E+02  0.45594000000E+02  0.51100000000E-03 0.  1.
         11   -1    0    0    0    0 -0.00000000000E+00 -0.00000000000E+00 -0.45593999997E+02  0.45594000000E+02  0.51100000000E-03 0. -1.
    9900012    2    1    2    0    0 -0.33248107845E+02  0.74704955524E+01 -0.22179284957E+02  0.50528860064E+02  0.30000000652E+02 0.  0.
        -12    1    1    2    0    0  0.33248107845E+02 -0.74704955524E+01  0.22179284957E+02  0.40659139936E+02  0.00000000000E+00 0.  1.
         11    1    3    3    0    0 -0.20697389608E+02 -0.46389026468E+01 -0.11920642747E+02  0.24331113376E+02  0.51100000000E-03 0. -1.
        -11    1    3    3    0    0 -0.85426820227E+01  0.10579453461E+02 -0.14698586701E+02  0.20023753468E+02  0.51100000000E-03 0.  1.
         12    1    3    3    0    0 -0.40080362145E+01  0.15299447386E+01  0.44399444914E+01  0.61739932204E+01  0.00000000000E+00 0. -1.
</event>
<event>
 7    1  0.4994895E-011  0.5052886E+02  0.7816164E-02  0.1300439E+00
        -11   -1    0    0    0    0  0.00000000000E+00  0.00000000000E+00  0.45593999997E+02  0.45594000000E+02  0.51100000000E-03 0. -1.
         11   -1    0    0    0    0 -0.00000000000E+00 -0.00000000000E+00 -0.45593999997E+02  0.45594000000E+02  0.51100000000E-03 0.  1.
    9900012    2    1    2    0    0 -0.40244076622E+02  0.47116779532E+01 -0.33733975897E+01  0.50528862975E+02  0.30000009499E+02 0.  0.
        -12    1    1    2    0    0  0.40244076622E+02 -0.47116779532E+01  0.33733975897E+01  0.40659137025E+02  0.00000000000E+00 0.  1.
         11    1    3    3    0    0 -0.12163430650E+01 -0.76330641294E+01 -0.17663084874E+01  0.79286193243E+01  0.51100000000E-03 0. -1.
        -11    1    3    3    0    0 -0.28416466754E+02  0.10948931682E+02 -0.59874705764E+01  0.31035858163E+02  0.51100000000E-03 0.  1.
         12    1    3    3    0    0 -0.10611266804E+02  0.13958104009E+01  0.43803814742E+01  0.11564385488E+02  0.00000000000E+00 0. -1.
</event>
<event>
 7    1  0.4994895E-011  0.5052887E+02  0.7816164E-02  0.1300439E+00
        -11   -1    0    0    0    0  0.00000000000E+00  0.00000000000E+00  0.45593999997E+02  0.45594000000E+02  0.51100000000E-03 0. -1.
         11   -1    0    0    0    0 -0.00000000000E+00 -0.00000000000E+00 -0.45593999997E+02  0.45594000000E+02  0.51100000000E-03 0.  1.
    9900012    2    1    2    0    0  0.55203719713E+01 -0.21116415171E+02  0.34304338464E+02  0.50528866539E+02  0.30000020332E+02 0.  0.
        -12    1    1    2    0    0 -0.55203719713E+01  0.21116415171E+02 -0.34304338464E+02  0.40659133461E+02  0.00000000000E+00 0.  1.
         11    1    3    3    0    0 -0.37165787654E+01 -0.11053130276E+02  0.28244501936E+02  0.30557102881E+02  0.51100000000E-03 0. -1.
        -11    1    3    3    0    0  0.88504193943E+01 -0.18388388959E+01  0.73337918041E+01  0.11640264362E+02  0.51100000000E-03 0.  1.
         12    1    3    3    0    0  0.38653134235E+00 -0.82244459986E+01 -0.12739552762E+01  0.83314992954E+01  0.00000000000E+00 0. -1.
</event>
<event>
 7    1  0.4994895E-011  0.5052886E+02  0.7816164E-02  0.1300439E+00
        -11   -1    0    0    0    0  0.00000000000E+00  0.00000000000E+00  0.45593999997E+02  0.45594000000E+02  0.51100000000E-03 0. -1.
         11   -1    0    0    0    0 -0.00000000000E+00 -0.00000000000E+00 -0.45593999997E+02  0.45594000000E+02  0.51100000000E-03 0.  1.
    9900012    2    1    2    0    0 -0.29536510312E+02 -0.24366522874E+02  0.13675983391E+02  0.50528863264E+02  0.30000010378E+02 0.  0.
        -12    1    1    2    0    0  0.29536510312E+02  0.24366522874E+02 -0.13675983391E+02  0.40659136736E+02  0.00000000000E+00 0.  1.
         11    1    3    3    0    0 -0.18677551250E+02 -0.89525514826E+01  0.12045017639E+02  0.23959998934E+02  0.51100000000E-03 0. -1.
        -11    1    3    3    0    0 -0.51326708669E+01 -0.87885168127E+01 -0.84408823330E+01  0.13222361091E+02  0.51100000000E-03 0.  1.
        -12    1    3    3    0    0 -0.57262881957E+01 -0.66254545783E+01  0.10071848085E+02  0.13346503239E+02  0.00000000000E+00 0.  1.
</event>
<event>
 7    1  0.4994895E-011  0.5052886E+02  0.7816164E-02  0.1300439E+00
        -11   -1    0    0    0    0  0.00000000000E+00  0.00000000000E+00  0.45593999997E+02  0.45594000000E+02  0.51100000000E-03 0. -1.
         11   -1    0    0    0    0 -0.00000000000E+00 -0.00000000000E+00 -0.45593999997E+02  0.45594000000E+02  0.51100000000E-03 0.  1.
    9900012    2    1    2    0    0  0.36273302321E+02 -0.38648893592E+01  0.17957603984E+02  0.50528863611E+02  0.30000011432E+02 0.  0.
        -12    1    1    2    0    0 -0.36273302321E+02  0.38648893592E+01 -0.17957603984E+02  0.40659136389E+02  0.00000000000E+00 0.  1.
         11    1    3    3    0    0  0.30785869648E+01 -0.79913230734E+01  0.99340264046E+01  0.13115785262E+02  0.51100000000E-03 0. -1.
        -11    1    3    3    0    0  0.90460885503E+01  0.79751460772E+01  0.19446090319E+01  0.12215407384E+02  0.51100000000E-03 0.  1.
         12    1    3    3    0    0  0.24148626806E+02 -0.38487123629E+01  0.60789685477E+01  0.25197670965E+02  0.00000000000E+00 0. -1.
</event>
<event>
 7    1  0.4994895E-011  0.5052886E+02  0.7816164E-02  0.1300439E+00
        -11   -1    0    0    0    0  0.00000000000E+00  0.00000000000E+00  0.45593999997E+02  0.45594000000E+02  0.51100000000E-03 0. -1.
         11   -1    0    0    0    0 -0.00000000000E+00 -0.00000000000E+00 -0.45593999997E+02  0.45594000000E+02  0.51100000000E-03 0.  1.
    9900012    2    1    2    0    0 -0.33904088694E+02 -0.62107911432E+01  0.21566283880E+02  0.50528858873E+02  0.29999997030E+02 0.  0.
        -12    1    1    2    0    0  0.33904088694E+02  0.62107911432E+01 -0.21566283880E+02  0.40659141127E+02  0.00000000000E+00 0.  1.
         11    1    3    3    0    0 -0.19730014626E+02  0.88549461746E+01  0.92896333353E+01  0.23536797502E+02  0.51100000000E-03 0. -1.
        -11    1    3    3    0    0 -0.11721344848E+02 -0.66168468714E+01  0.12241709671E+02  0.18194286012E+02  0.51100000000E-03 0.  1.
         12    1    3    3    0    0 -0.24527292201E+01 -0.84488904464E+01  0.34940874327E-01  0.87977753590E+01  0.00000000000E+00 0. -1.
</event>
<event>
 7    1  0.4994895E-011  0.5052888E+02  0.7816164E-02  0.1300439E+00
        -11   -1    0    0    0    0  0.00000000000E+00  0.00000000000E+00  0.45593999997E+02  0.45594000000E+02  0.51100000000E-03 0. -1.
         11   -1    0    0    0    0 -0.00000000000E+00 -0.00000000000E+00 -0.45593999997E+02  0.45594000000E+02  0.51100000000E-03 0.  1.
    9900012    2    1    2    0    0 -0.26405411156E+02  0.25084180438E+02  0.18074916165E+02  0.50528875059E+02  0.30000046230E+02 0.  0.
        -12    1    1    2    0    0  0.26405411156E+02 -0.25084180438E+02 -0.18074916165E+02  0.40659124941E+02  0.00000000000E+00 0.  1.
         11    1    3    3    0    0 -0.12337693349E+02  0.64273688119E+01  0.60847623918E+01  0.15184007397E+02  0.51100000000E-03 0. -1.
        -11    1    3    3    0    0  0.39748176897E+01  0.14012363775E+02  0.42727273306E+01  0.15178989206E+02  0.51100000000E-03 0.  1.
        -12    1    3    3    0    0 -0.18042535496E+02  0.46444478519E+01  0.77174264427E+01  0.20165878456E+02  0.00000000000E+00 0.  1.
</event>
<event>
 7    1  0.4994895E-011  0.5052883E+02  0.7816164E-02  0.1300439E+00
        -11   -1    0    0    0    0  0.00000000000E+00  0.00000000000E+00  0.45593999997E+02  0.45594000000E+02  0.51100000000E-03 0.  1.
         11   -1    0    0    0    0 -0.00000000000E+00 -0.00000000000E+00 -0.45593999997E+02  0.45594000000E+02  0.51100000000E-03 0. -1.
    9900012    2    1    2    0    0  0.42565356741E+01 -0.39594719667E+02 -0.82041323003E+01  0.50528834880E+02  0.29999924102E+02 0.  0.
        -12    1    1    2    0    0 -0.42565356741E+01  0.39594719667E+02  0.82041323003E+01  0.40659165120E+02  0.00000000000E+00 0.  1.
         11    1    3    3    0    0 -0.63789993752E+00 -0.34226345558E+02 -0.16194663495E+02  0.37869734255E+02  0.51100000000E-03 0. -1.
        -11    1    3    3    0    0  0.56594292467E+01 -0.18818467233E+01  0.34731463530E+01  0.69016832975E+01  0.51100000000E-03 0.  1.
         12    1    3    3    0    0 -0.76499363516E+00 -0.34865273855E+01  0.45173848422E+01  0.57574173276E+01  0.00000000000E+00 0. -1.
</event>
<event>
 7    1  0.4994895E-011  0.5052886E+02  0.7816164E-02  0.1300439E+00
        -11   -1    0    0    0    0  0.00000000000E+00  0.00000000000E+00  0.45593999997E+02  0.45594000000E+02  0.51100000000E-03 0.  1.
         11   -1    0    0    0    0 -0.00000000000E+00 -0.00000000000E+00 -0.45593999997E+02  0.45594000000E+02  0.51100000000E-03 0. -1.
    9900012    2    1    2    0    0  0.14428459189E+01  0.37007632921E+02 -0.16778521725E+02  0.50528862159E+02  0.30000007017E+02 0.  0.
        -12    1    1    2    0    0 -0.14428459189E+01 -0.37007632921E+02  0.16778521725E+02  0.40659137841E+02  0.00000000000E+00 0.  1.
         11    1    3    3    0    0  0.43337944668E+01  0.33887860290E+02 -0.66202076211E+01  0.34799367792E+02  0.51100000000E-03 0. -1.
        -11    1    3    3    0    0  0.16690601836E+01 -0.34910931018E+01 -0.43260035662E+01  0.58041192319E+01  0.51100000000E-03 0.  1.
         12    1    3    3    0    0 -0.45600087315E+01  0.66108657329E+01 -0.58323105373E+01  0.99253751351E+01  0.00000000000E+00 0. -1.
</event>
<event>
 7    1  0.4994895E-011  0.5052886E+02  0.7816164E-02  0.1300439E+00
        -11   -1    0    0    0    0  0.00000000000E+00  0.00000000000E+00  0.45593999997E+02  0.45594000000E+02  0.51100000000E-03 0.  1.
         11   -1    0    0    0    0 -0.00000000000E+00 -0.00000000000E+00 -0.45593999997E+02  0.45594000000E+02  0.51100000000E-03 0. -1.
    9900012    2    1    2    0    0  0.24968427784E+02 -0.22553119573E+01 -0.32010260622E+02  0.50528860767E+02  0.30000002789E+02 0.  0.
        -12    1    1    2    0    0 -0.24968427784E+02  0.22553119573E+01  0.32010260622E+02  0.40659139233E+02  0.00000000000E+00 0.  1.
         11    1    3    3    0    0  0.65044640823E+01  0.57695524767E+01 -0.20052891562E+02  0.21856675160E+02  0.51100000000E-03 0. -1.
        -11    1    3    3    0    0  0.61598341171E+01 -0.63684733431E+01  0.28887234449E+01  0.93191057766E+01  0.51100000000E-03 0.  1.
         12    1    3    3    0    0  0.12304129584E+02 -0.16563910909E+01 -0.14846092505E+02  0.19353079831E+02  0.00000000000E+00 0. -1.
</event>
<event>
 7    1  0.4994895E-011  0.5052883E+02  0.7816164E-02  0.1300439E+00
        -11   -1    0    0    0    0  0.00000000000E+00  0.00000000000E+00  0.45593999997E+02  0.45594000000E+02  0.51100000000E-03 0. -1.
         11   -1    0    0    0    0 -0.00000000000E+00 -0.00000000000E+00 -0.45593999997E+02  0.45594000000E+02  0.51100000000E-03 0.  1.
    9900012    2    1    2    0    0  0.21783661498E+02  0.30957343753E+02  0.14841922691E+02  0.50528834862E+02  0.29999924048E+02 0.  0.
        -12    1    1    2    0    0 -0.21783661498E+02 -0.30957343753E+02 -0.14841922691E+02  0.40659165138E+02  0.00000000000E+00 0.  1.
         11    1    3    3    0    0 -0.10780681130E+01  0.14878217451E+02 -0.70755770827E+00  0.14933995566E+02  0.51100000000E-03 0. -1.
        -11    1    3    3    0    0  0.19169410569E+02  0.63626296171E+01  0.50479877485E+01  0.20819018655E+02  0.51100000000E-03 0.  1.
         12    1    3    3    0    0  0.36923190429E+01  0.97164966845E+01  0.10501492651E+02  0.14775820642E+02  0.00000000000E+00 0. -1.
</event>
<event>
 7    1  0.4994895E-011  0.5052886E+02  0.7816164E-02  0.1300439E+00
        -11   -1    0    0    0    0  0.00000000000E+00  0.00000000000E+00  0.45593999997E+02  0.45594000000E+02  0.51100000000E-03 0. -1.
         11   -1    0    0    0    0 -0.00000000000E+00 -0.00000000000E+00 -0.45593999997E+02  0.45594000000E+02  0.51100000000E-03 0.  1.
    9900012    2    1    2    0    0 -0.29697585742E+02 -0.16601334024E+02  0.22262403972E+02  0.50528861779E+02  0.30000005863E+02 0.  0.
        -12    1    1    2    0    0  0.29697585742E+02  0.16601334024E+02 -0.22262403972E+02  0.40659138221E+02  0.00000000000E+00 0.  1.
         11    1    3    3    0    0 -0.17506371298E+02 -0.14871056299E+02  0.13098623112E+02  0.26442300943E+02  0.51100000000E-03 0. -1.
        -11    1    3    3    0    0  0.19985658165E+00  0.65028829711E+01  0.60562812156E+01  0.88885303629E+01  0.51100000000E-03 0.  1.
        -12    1    3    3    0    0 -0.12391071026E+02 -0.82331606958E+01  0.31074996447E+01  0.15198030473E+02  0.00000000000E+00 0.  1.
</event>
<event>
 7    1  0.4994895E-011  0.5052886E+02  0.7816164E-02  0.1300439E+00
        -11   -1    0    0    0    0  0.00000000000E+00  0.00000000000E+00  0.45593999997E+02  0.45594000000E+02  0.51100000000E-03 0.  1.
         11   -1    0    0    0    0 -0.00000000000E+00 -0.00000000000E+00 -0.45593999997E+02  0.45594000000E+02  0.51100000000E-03 0. -1.
    9900012    2    1    2    0    0 -0.65970221385E+01 -0.13859150659E+02 -0.37650621037E+02  0.50528855610E+02  0.29999987111E+02 0.  0.
        -12    1    1    2    0    0  0.65970221385E+01  0.13859150659E+02  0.37650621037E+02  0.40659144390E+02  0.00000000000E+00 0.  1.
         11    1    3    3    0    0 -0.92617545317E+01 -0.12458257331E+02 -0.32509861278E+02  0.36026092673E+02  0.51100000000E-03 0. -1.
        -11    1    3    3    0    0  0.61182484318E+01  0.26885533102E+01 -0.61194779758E+01  0.90614178654E+01  0.51100000000E-03 0.  1.
         12    1    3    3    0    0 -0.34535160385E+01 -0.40894466383E+01  0.97871821642E+00  0.54413450711E+01  0.00000000000E+00 0. -1.
</event>
<event>
 7    1  0.4994895E-011  0.5052886E+02  0.7816164E-02  0.1300439E+00
        -11   -1    0    0    0    0  0.00000000000E+00  0.00000000000E+00  0.45593999997E+02  0.45594000000E+02  0.51100000000E-03 0.  1.
         11   -1    0    0    0    0 -0.00000000000E+00 -0.00000000000E+00 -0.45593999997E+02  0.45594000000E+02  0.51100000000E-03 0. -1.
    9900012    2    1    2    0    0 -0.25745098757E+02 -0.23925179376E+02  0.20443615960E+02  0.50528858940E+02  0.29999997235E+02 0.  0.
        -12    1    1    2    0    0  0.25745098757E+02  0.23925179376E+02 -0.20443615960E+02  0.40659141060E+02  0.00000000000E+00 0.  1.
         11    1    3    3    0    0 -0.58021318092E+01 -0.13320136110E+02  0.10597423324E+02  0.17983218313E+02  0.51100000000E-03 0. -1.
        -11    1    3    3    0    0 -0.23677640320E+02 -0.86988661505E+01  0.42937309266E+01  0.25587830094E+02  0.51100000000E-03 0.  1.
        -12    1    3    3    0    0  0.37346733713E+01 -0.19061771158E+01  0.55524617086E+01  0.69578105330E+01  0.00000000000E+00 0.  1.
</event>
<event>
 7    1  0.4994895E-011  0.5052885E+02  0.7816164E-02  0.1300439E+00
        -11   -1    0    0    0    0  0.00000000000E+00  0.00000000000E+00  0.45593999997E+02  0.45594000000E+02  0.51100000000E-03 0. -1.
         11   -1    0    0    0    0 -0.00000000000E+00 -0.00000000000E+00 -0.45593999997E+02  0.45594000000E+02  0.51100000000E-03 0.  1.
    9900012    2    1    2    0    0 -0.30681937004E+02  0.10297458355E+02  0.24611946965E+02  0.50528845554E+02  0.29999956545E+02 0.  0.
        -12    1    1    2    0    0  0.30681937004E+02 -0.10297458355E+02 -0.24611946965E+02  0.40659154446E+02  0.00000000000E+00 0.  1.
         11    1    3    3    0    0 -0.15149573053E+02  0.12556079937E-01 -0.11734987547E+01  0.15194960379E+02  0.51100000000E-03 0. -1.
        -11    1    3    3    0    0 -0.10373577401E+02  0.10061913661E+02  0.26437144687E+02  0.30129318513E+02  0.51100000000E-03 0.  1.
        -12    1    3    3    0    0 -0.51587865496E+01  0.22298861400E+00 -0.65169896693E+00  0.52045666611E+01  0.00000000000E+00 0.  1.
</event>
<event>
 7    1  0.4994895E-011  0.5052886E+02  0.7816164E-02  0.1300439E+00
        -11   -1    0    0    0    0  0.00000000000E+00  0.00000000000E+00  0.45593999997E+02  0.45594000000E+02  0.51100000000E-03 0.  1.
         11   -1    0    0    0    0 -0.00000000000E+00 -0.00000000000E+00 -0.45593999997E+02  0.45594000000E+02  0.51100000000E-03 0. -1.
    9900012    2    1    2    0    0 -0.25182020685E+02 -0.91562242980E+01 -0.30580959847E+02  0.50528859400E+02  0.29999998633E+02 0.  0.
        -12    1    1    2    0    0  0.25182020685E+02  0.91562242980E+01  0.30580959847E+02  0.40659140600E+02  0.00000000000E+00 0.  1.
         11    1    3    3    0    0 -0.20455179114E+02 -0.15996757589E+02 -0.98963978404E+01  0.27789373805E+02  0.51100000000E-03 0. -1.
        -11    1    3    3    0    0 -0.54557681756E+01  0.60627236650E+01 -0.16293323391E+02  0.18220713817E+02  0.51100000000E-03 0.  1.
         12    1    3    3    0    0  0.72892660499E+00  0.77780962639E+00 -0.43912386157E+01  0.45187717790E+01  0.00000000000E+00 0. -1.
</event>
<event>
 7    1  0.4994895E-011  0.5052887E+02  0.7816164E-02  0.1300439E+00
        -11   -1    0    0    0    0  0.00000000000E+00  0.00000000000E+00  0.45593999997E+02  0.45594000000E+02  0.51100000000E-03 0.  1.
         11   -1    0    0    0    0 -0.00000000000E+00 -0.00000000000E+00 -0.45593999997E+02  0.45594000000E+02  0.51100000000E-03 0. -1.
    9900012    2    1    2    0    0 -0.16537801390E+01 -0.72724232869E+01 -0.39969264553E+02  0.50528865256E+02  0.30000016433E+02 0.  0.
        -12    1    1    2    0    0  0.16537801390E+01  0.72724232869E+01  0.39969264553E+02  0.40659134744E+02  0.00000000000E+00 0.  1.
         11    1    3    3    0    0 -0.13294338423E+01 -0.99603444425E+01 -0.15716489511E+02  0.18654326538E+02  0.51100000000E-03 0. -1.
        -11    1    3    3    0    0 -0.99496373195E+01  0.42388662767E+01 -0.11045037336E+02  0.15458205592E+02  0.51100000000E-03 0.  1.
         12    1    3    3    0    0  0.96252910228E+01 -0.15509451211E+01 -0.13207737705E+02  0.16416333127E+02  0.00000000000E+00 0. -1.
</event>
<event>
 7    1  0.4994895E-011  0.5052887E+02  0.7816164E-02  0.1300439E+00
        -11   -1    0    0    0    0  0.00000000000E+00  0.00000000000E+00  0.45593999997E+02  0.45594000000E+02  0.51100000000E-03 0.  1.
         11   -1    0    0    0    0 -0.00000000000E+00 -0.00000000000E+00 -0.45593999997E+02  0.45594000000E+02  0.51100000000E-03 0. -1.
    9900012    2    1    2    0    0 -0.26976589016E+02  0.79336488831E+01 -0.29368107921E+02  0.50528869384E+02  0.30000028980E+02 0.  0.
        -12    1    1    2    0    0  0.26976589016E+02 -0.79336488831E+01  0.29368107921E+02  0.40659130616E+02  0.00000000000E+00 0.  1.
         11    1    3    3    0    0 -0.13969680370E+02  0.92193842678E+01 -0.85229107178E+01  0.18782678810E+02  0.51100000000E-03 0. -1.
        -11    1    3    3    0    0 -0.57387104693E-01  0.52805496491E+00 -0.18443963314E+02  0.18451610182E+02  0.51100000000E-03 0.  1.
        -12    1    3    3    0    0 -0.12949521542E+02 -0.18137903496E+01 -0.24012338894E+01  0.13294580392E+02  0.00000000000E+00 0.  1.
</event>
<event>
 7    1  0.4994895E-011  0.5052886E+02  0.7816164E-02  0.1300439E+00
        -11   -1    0    0    0    0  0.00000000000E+00  0.00000000000E+00  0.45593999997E+02  0.45594000000E+02  0.51100000000E-03 0.  1.
         11   -1    0    0    0    0 -0.00000000000E+00 -0.00000000000E+00 -0.45593999997E+02  0.45594000000E+02  0.51100000000E-03 0. -1.
    9900012    2    1    2    0    0  0.26787133513E+02 -0.30162497474E+02 -0.50831852965E+01  0.50528861440E+02  0.30000004832E+02 0.  0.
        -12    1    1    2    0    0 -0.26787133513E+02  0.30162497474E+02  0.50831852965E+01  0.40659138560E+02  0.00000000000E+00 0.  1.
         11    1    3    3    0    0  0.15826823392E+01 -0.91111792414E+01  0.12745155943E+01  0.93350340554E+01  0.51100000000E-03 0. -1.
        -11    1    3    3    0    0  0.15533829158E+02 -0.96647299471E+01 -0.15242288768E+02  0.23812480350E+02  0.51100000000E-03 0.  1.
        -12    1    3    3    0    0  0.96706220158E+01 -0.11386588285E+02  0.88845878777E+01  0.17381347034E+02  0.00000000000E+00 0.  1.
</event>
<event>
 7    1  0.4994895E-011  0.5052886E+02  0.7816164E-02  0.1300439E+00
        -11   -1    0    0    0    0  0.00000000000E+00  0.00000000000E+00  0.45593999997E+02  0.45594000000E+02  0.51100000000E-03 0. -1.
         11   -1    0    0    0    0 -0.00000000000E+00 -0.00000000000E+00 -0.45593999997E+02  0.45594000000E+02  0.51100000000E-03 0.  1.
    9900012    2    1    2    0    0  0.25276238627E+02 -0.29716627216E+02  0.11454228271E+02  0.50528861821E+02  0.30000005990E+02 0.  0.
        -12    1    1    2    0    0 -0.25276238627E+02  0.29716627216E+02 -0.11454228271E+02  0.40659138179E+02  0.00000000000E+00 0.  1.
         11    1    3    3    0    0  0.21785925198E+02 -0.97882004930E+01  0.43542661271E+01  0.24277459492E+02  0.51100000000E-03 0. -1.
        -11    1    3    3    0    0 -0.24691920707E+01  0.13544043770E+01 -0.53835026451E+00  0.28672533838E+01  0.51100000000E-03 0.  1.
         12    1    3    3    0    0  0.59595054993E+01 -0.21282831100E+02  0.76383124086E+01  0.23384148944E+02  0.00000000000E+00 0. -1.
</event>
<event>
 7    1  0.4994895E-011  0.5052886E+02  0.7816164E-02  0.1300439E+00
        -11   -1    0    0    0    0  0.00000000000E+00  0.00000000000E+00  0.45593999997E+02  0.45594000000E+02  0.51100000000E-03 0.  1.
         11   -1    0    0    0    0 -0.00000000000E+00 -0.00000000000E+00 -0.45593999997E+02  0.45594000000E+02  0.51100000000E-03 0. -1.
    9900012    2    1    2    0    0  0.23969540025E+02  0.24009400022E+02 -0.22409270911E+02  0.50528861283E+02  0.30000004356E+02 0.  0.
        -12    1    1    2    0    0 -0.23969540025E+02 -0.24009400022E+02  0.22409270911E+02  0.40659138717E+02  0.00000000000E+00 0.  1.
         11    1    3    3    0    0  0.11313697923E+02  0.88139876654E+01 -0.23236397626E+02  0.27305975796E+02  0.51100000000E-03 0. -1.
        -11    1    3    3    0    0  0.56981419695E+01 -0.61009814434E+00  0.15565194075E+01  0.59383326429E+01  0.51100000000E-03 0.  1.
         12    1    3    3    0    0  0.69577001324E+01  0.15805510501E+02 -0.72939269209E+00  0.17284552845E+02  0.00000000000E+00 0. -1.
</event>
<event>
 7    1  0.4994895E-011  0.5052887E+02  0.7816164E-02  0.1300439E+00
        -11   -1    0    0    0    0  0.00000000000E+00  0.00000000000E+00  0.45593999997E+02  0.45594000000E+02  0.51100000000E-03 0. -1.
         11   -1    0    0    0    0 -0.00000000000E+00 -0.00000000000E+00 -0.45593999997E+02  0.45594000000E+02  0.51100000000E-03 0.  1.
    9900012    2    1    2    0    0  0.31636680372E+02 -0.22180129799E+02  0.12662033989E+02  0.50528870550E+02  0.30000032523E+02 0.  0.
        -12    1    1    2    0    0 -0.31636680372E+02  0.22180129799E+02 -0.12662033989E+02  0.40659129450E+02  0.00000000000E+00 0.  1.
         11    1    3    3    0    0  0.26938371550E+02 -0.26621698740E+02  0.15802293226E+02  0.41037826173E+02  0.51100000000E-03 0. -1.
        -11    1    3    3    0    0  0.33061164243E+01  0.55478699065E+01 -0.73519185178E+00  0.64999825869E+01  0.51100000000E-03 0.  1.
         12    1    3    3    0    0  0.13921923986E+01 -0.11063009659E+01 -0.24050673855E+01  0.29910617898E+01  0.00000000000E+00 0. -1.
</event>
<event>
 7    1  0.4994895E-011  0.5052886E+02  0.7816164E-02  0.1300439E+00
        -11   -1    0    0    0    0  0.00000000000E+00  0.00000000000E+00  0.45593999997E+02  0.45594000000E+02  0.51100000000E-03 0.  1.
         11   -1    0    0    0    0 -0.00000000000E+00 -0.00000000000E+00 -0.45593999997E+02  0.45594000000E+02  0.51100000000E-03 0. -1.
    9900012    2    1    2    0    0  0.40274802449E+02 -0.12230159437E+01 -0.54415552313E+01  0.50528855842E+02  0.29999987819E+02 0.  0.
        -12    1    1    2    0    0 -0.40274802449E+02  0.12230159437E+01  0.54415552313E+01  0.40659144158E+02  0.00000000000E+00 0.  1.
         11    1    3    3    0    0  0.37140163952E+02 -0.65813175046E+01 -0.18710425962E+01  0.37765146884E+02  0.51100000000E-03 0. -1.
        -11    1    3    3    0    0 -0.14844517826E+01  0.76039983629E+00  0.30482745157E+01  0.34747349237E+01  0.51100000000E-03 0.  1.
         12    1    3    3    0    0  0.46190902792E+01  0.45979017246E+01 -0.66187871508E+01  0.92889740351E+01  0.00000000000E+00 0. -1.
</event>
<event>
 7    1  0.4994895E-011  0.5052886E+02  0.7816164E-02  0.1300439E+00
        -11   -1    0    0    0    0  0.00000000000E+00  0.00000000000E+00  0.45593999997E+02  0.45594000000E+02  0.51100000000E-03 0.  1.
         11   -1    0    0    0    0 -0.00000000000E+00 -0.00000000000E+00 -0.45593999997E+02  0.45594000000E+02  0.51100000000E-03 0. -1.
    9900012    2    1    2    0    0  0.31219600719E+02  0.23691585598E+02 -0.10826384374E+02  0.50528864547E+02  0.30000014276E+02 0.  0.
        -12    1    1    2    0    0 -0.31219600719E+02 -0.23691585598E+02  0.10826384374E+02  0.40659135453E+02  0.00000000000E+00 0.  1.
         11    1    3    3    0    0  0.91797314975E+01  0.83099101754E+01 -0.13267598940E+01  0.12453207200E+02  0.51100000000E-03 0. -1.
        -11    1    3    3    0    0 -0.27845539541E+01 -0.41148342796E+01 -0.31358255705E+01  0.58752875795E+01  0.51100000000E-03 0.  1.
        -12    1    3    3    0    0  0.24824423176E+02  0.19496509702E+02 -0.63637989090E+01  0.32200369767E+02  0.00000000000E+00 0.  1.
</event>
<event>
 7    1  0.4994895E-011  0.5052886E+02  0.7816164E-02  0.1300439E+00
        -11   -1    0    0    0    0  0.00000000000E+00  0.00000000000E+00  0.45593999997E+02  0.45594000000E+02  0.51100000000E-03 0.  1.
         11   -1    0    0    0    0 -0.00000000000E+00 -0.00000000000E+00 -0.45593999997E+02  0.45594000000E+02  0.51100000000E-03 0. -1.
    9900012    2    1    2    0    0  0.90226721206E+00 -0.39528635755E+02 -0.94783329091E+01  0.50528856803E+02  0.29999990739E+02 0.  0.
        -12    1    1    2    0    0 -0.90226721206E+00  0.39528635755E+02  0.94783329091E+01  0.40659143197E+02  0.00000000000E+00 0.  1.
         11    1    3    3    0    0 -0.13299130586E+02 -0.13532012645E+02 -0.44155979011E+01  0.19480239876E+02  0.51100000000E-03 0. -1.
        -11    1    3    3    0    0  0.70627474560E+01 -0.11193187274E+02  0.15657641915E+01  0.13327470155E+02  0.51100000000E-03 0.  1.
         12    1    3    3    0    0  0.71386503417E+01 -0.14803435836E+02 -0.66284991994E+01  0.17721146772E+02  0.00000000000E+00 0. -1.
</event>
<event>
 7    1  0.4994895E-011  0.5052886E+02  0.7816164E-02  0.1300439E+00
        -11   -1    0    0    0    0  0.00000000000E+00  0.00000000000E+00  0.45593999997E+02  0.45594000000E+02  0.51100000000E-03 0.  1.
         11   -1    0    0    0    0 -0.00000000000E+00 -0.00000000000E+00 -0.45593999997E+02  0.45594000000E+02  0.51100000000E-03 0. -1.
    9900012    2    1    2    0    0 -0.21707110917E+02  0.29822683206E+01 -0.34250149001E+02  0.50528864553E+02  0.30000014296E+02 0.  0.
        -12    1    1    2    0    0  0.21707110917E+02 -0.29822683206E+01  0.34250149001E+02  0.40659135447E+02  0.00000000000E+00 0.  1.
         11    1    3    3    0    0 -0.58796602695E+01  0.39621934109E+00 -0.33197348322E+02  0.33716336256E+02  0.51100000000E-03 0. -1.
        -11    1    3    3    0    0 -0.33837364062E+01  0.27051037103E+01 -0.12984079179E+00  0.43340647253E+01  0.51100000000E-03 0.  1.
         12    1    3    3    0    0 -0.12443714242E+02 -0.11905473087E+00 -0.92295988639E+00  0.12478463572E+02  0.00000000000E+00 0. -1.
</event>
<event>
 7    1  0.4994895E-011  0.5052895E+02  0.7816164E-02  0.1300438E+00
        -11   -1    0    0    0    0  0.00000000000E+00  0.00000000000E+00  0.45593999997E+02  0.45594000000E+02  0.51100000000E-03 0.  1.
         11   -1    0    0    0    0 -0.00000000000E+00 -0.00000000000E+00 -0.45593999997E+02  0.45594000000E+02  0.51100000000E-03 0. -1.
    9900012    2    1    2    0    0 -0.25860144118E+02 -0.31175058960E+02 -0.35393436261E+01  0.50528950475E+02  0.30000275462E+02 0.  0.
        -12    1    1    2    0    0  0.25860144118E+02  0.31175058960E+02  0.35393436261E+01  0.40659049525E+02  0.00000000000E+00 0.  1.
         11    1    3    3    0    0  0.21222369355E+01 -0.17770987811E+02 -0.62715828308E+00  0.17908244615E+02  0.51100000000E-03 0. -1.
        -11    1    3    3    0    0 -0.22167670814E+02 -0.61872549298E+01 -0.40010918045E+00  0.23018423936E+02  0.51100000000E-03 0.  1.
         12    1    3    3    0    0 -0.58147102399E+01 -0.72168162189E+01 -0.25120761626E+01  0.96022819245E+01  0.00000000000E+00 0. -1.
</event>
<event>
 7    1  0.4994895E-011  0.5052885E+02  0.7816164E-02  0.1300439E+00
        -11   -1    0    0    0    0  0.00000000000E+00  0.00000000000E+00  0.45593999997E+02  0.45594000000E+02  0.51100000000E-03 0.  1.
         11   -1    0    0    0    0 -0.00000000000E+00 -0.00000000000E+00 -0.45593999997E+02  0.45594000000E+02  0.51100000000E-03 0. -1.
    9900012    2    1    2    0    0  0.32624945050E+02 -0.57940637097E+01 -0.23562860466E+02  0.50528848421E+02  0.29999965260E+02 0.  0.
        -12    1    1    2    0    0 -0.32624945050E+02  0.57940637097E+01  0.23562860466E+02  0.40659151579E+02  0.00000000000E+00 0.  1.
         11    1    3    3    0    0  0.16104891759E+02 -0.79409333836E+01 -0.17007549426E+02  0.24732219862E+02  0.51100000000E-03 0. -1.
        -11    1    3    3    0    0  0.15676365426E+02  0.43034706831E+01  0.25021915091E+01  0.16447773573E+02  0.51100000000E-03 0.  1.
        -12    1    3    3    0    0  0.84368786531E+00 -0.21566010092E+01 -0.90575025493E+01  0.93488549864E+01  0.00000000000E+00 0.  1.
</event>
<event>
 7    1  0.4994895E-011  0.5052886E+02  0.7816164E-02  0.1300439E+00
        -11   -1    0    0    0    0  0.00000000000E+00  0.00000000000E+00  0.45593999997E+02  0.45594000000E+02  0.51100000000E-03 0.  1.
         11   -1    0    0    0    0 -0.00000000000E+00 -0.00000000000E+00 -0.45593999997E+02  0.45594000000E+02  0.51100000000E-03 0. -1.
    9900012    2    1    2    0    0  0.35670338840E+02 -0.11380992951E+01 -0.19480683333E+02  0.50528863682E+02  0.30000011649E+02 0.  0.
        -12    1    1    2    0    0 -0.35670338840E+02  0.11380992951E+01  0.19480683333E+02  0.40659136318E+02  0.00000000000E+00 0.  1.
         11    1    3    3    0    0  0.28574905439E+01 -0.58903885466E+00  0.39108250625E+01  0.48792183709E+01  0.51100000000E-03 0.  1.
        -11    1    3    3    0    0  0.22915415996E+02 -0.84872959982E+01 -0.22009155041E+02  0.32886979027E+02  0.51100000000E-03 0. -1.
         12    1    3    3    0    0  0.98974323000E+01  0.79382355577E+01 -0.13823533552E+01  0.12762666285E+02  0.00000000000E+00 0. -1.
</event>
<event>
 7    1  0.4994895E-011  0.5052886E+02  0.7816164E-02  0.1300439E+00
        -11   -1    0    0    0    0  0.00000000000E+00  0.00000000000E+00  0.45593999997E+02  0.45594000000E+02  0.51100000000E-03 0.  1.
         11   -1    0    0    0    0 -0.00000000000E+00 -0.00000000000E+00 -0.45593999997E+02  0.45594000000E+02  0.51100000000E-03 0. -1.
    9900012    2    1    2    0    0  0.22611628288E+02  0.17651069623E+02 -0.28815263573E+02  0.50528863174E+02  0.30000010103E+02 0.  0.
        -12    1    1    2    0    0 -0.22611628288E+02 -0.17651069623E+02  0.28815263573E+02  0.40659136826E+02  0.00000000000E+00 0.  1.
         11    1    3    3    0    0  0.70073494321E+01 -0.47369996626E+01 -0.67384363501E+01  0.10814279290E+02  0.51100000000E-03 0. -1.
        -11    1    3    3    0    0 -0.90460651237E+00  0.14221615104E+02 -0.68214748879E+01  0.15798897715E+02  0.51100000000E-03 0.  1.
         12    1    3    3    0    0  0.16508885369E+02  0.81664541818E+01 -0.15255352335E+02  0.23915686168E+02  0.00000000000E+00 0. -1.
</event>
<event>
 7    1  0.4994895E-011  0.5052886E+02  0.7816164E-02  0.1300439E+00
        -11   -1    0    0    0    0  0.00000000000E+00  0.00000000000E+00  0.45593999997E+02  0.45594000000E+02  0.51100000000E-03 0. -1.
         11   -1    0    0    0    0 -0.00000000000E+00 -0.00000000000E+00 -0.45593999997E+02  0.45594000000E+02  0.51100000000E-03 0.  1.
    9900012    2    1    2    0    0  0.17527280074E+02 -0.23101735425E+02  0.28500355191E+02  0.50528856226E+02  0.29999988984E+02 0.  0.
        -12    1    1    2    0    0 -0.17527280074E+02  0.23101735425E+02 -0.28500355191E+02  0.40659143774E+02  0.00000000000E+00 0.  1.
         11    1    3    3    0    0  0.14857257006E+02 -0.10713407652E+02  0.28042549737E+02  0.33494772507E+02  0.51100000000E-03 0. -1.
        -11    1    3    3    0    0  0.38126351569E+01 -0.13671291344E+02 -0.16793819499E+01  0.14291980893E+02  0.51100000000E-03 0.  1.
        -12    1    3    3    0    0 -0.11426120888E+01  0.12829635709E+01  0.21371874036E+01  0.27421028259E+01  0.00000000000E+00 0.  1.
</event>
<event>
 7    1  0.4994895E-011  0.5052885E+02  0.7816164E-02  0.1300439E+00
        -11   -1    0    0    0    0  0.00000000000E+00  0.00000000000E+00  0.45593999997E+02  0.45594000000E+02  0.51100000000E-03 0. -1.
         11   -1    0    0    0    0 -0.00000000000E+00 -0.00000000000E+00 -0.45593999997E+02  0.45594000000E+02  0.51100000000E-03 0.  1.
    9900012    2    1    2    0    0 -0.15013669820E+02 -0.15497217359E+02  0.34461466746E+02  0.50528847062E+02  0.29999961129E+02 0.  0.
        -12    1    1    2    0    0  0.15013669820E+02  0.15497217359E+02 -0.34461466746E+02  0.40659152938E+02  0.00000000000E+00 0.  1.
         11    1    3    3    0    0  0.36322664794E+01  0.58939410435E+01  0.40017455186E+01  0.79966160504E+01  0.51100000000E-03 0.  1.
        -11    1    3    3    0    0 -0.12687087904E+02 -0.13084903479E+02  0.25013994625E+02  0.30949585230E+02  0.51100000000E-03 0. -1.
        -12    1    3    3    0    0 -0.59588483954E+01 -0.83062549242E+01  0.54457266028E+01  0.11582645781E+02  0.00000000000E+00 0.  1.
</event>
<event>
 7    1  0.4994895E-011  0.5052886E+02  0.7816164E-02  0.1300439E+00
        -11   -1    0    0    0    0  0.00000000000E+00  0.00000000000E+00  0.45593999997E+02  0.45594000000E+02  0.51100000000E-03 0. -1.
         11   -1    0    0    0    0 -0.00000000000E+00 -0.00000000000E+00 -0.45593999997E+02  0.45594000000E+02  0.51100000000E-03 0.  1.
    9900012    2    1    2    0    0 -0.36881613916E+02  0.14213609202E+02  0.95333915415E+01  0.50528859750E+02  0.29999999697E+02 0.  0.
        -12    1    1    2    0    0  0.36881613916E+02 -0.14213609202E+02 -0.95333915415E+01  0.40659140250E+02  0.00000000000E+00 0.  1.
         11    1    3    3    0    0 -0.35900253753E+02  0.10933032579E+02 -0.15307130999E+01  0.37559319799E+02  0.51100000000E-03 0. -1.
        -11    1    3    3    0    0 -0.29438146333E+01  0.30581946785E+01  0.96443549131E+01  0.10537180896E+02  0.51100000000E-03 0.  1.
        -12    1    3    3    0    0  0.19624544711E+01  0.22238194516E+00  0.14197497283E+01  0.24323590549E+01  0.00000000000E+00 0.  1.
</event>
<event>
 7    1  0.4994895E-011  0.5052887E+02  0.7816164E-02  0.1300439E+00
        -11   -1    0    0    0    0  0.00000000000E+00  0.00000000000E+00  0.45593999997E+02  0.45594000000E+02  0.51100000000E-03 0. -1.
         11   -1    0    0    0    0 -0.00000000000E+00 -0.00000000000E+00 -0.45593999997E+02  0.45594000000E+02  0.51100000000E-03 0.  1.
    9900012    2    1    2    0    0 -0.33667910210E+02  0.17672160839E+02  0.14399016830E+02  0.50528866557E+02  0.30000020388E+02 0.  0.
        -12    1    1    2    0    0  0.33667910210E+02 -0.17672160839E+02 -0.14399016830E+02  0.40659133443E+02  0.00000000000E+00 0.  1.
         11    1    3    3    0    0 -0.20562840967E+02 -0.39678119900E+01  0.10218379833E+02  0.23302129673E+02  0.51100000000E-03 0. -1.
        -11    1    3    3    0    0 -0.76658527419E+01  0.86229039859E+01 -0.21958522430E+01  0.11744851585E+02  0.51100000000E-03 0.  1.
         12    1    3    3    0    0 -0.54392165009E+01  0.13017068843E+02  0.63764892396E+01  0.15481885299E+02  0.00000000000E+00 0. -1.
</event>
<event>
 7    1  0.4994895E-011  0.5052886E+02  0.7816164E-02  0.1300439E+00
        -11   -1    0    0    0    0  0.00000000000E+00  0.00000000000E+00  0.45593999997E+02  0.45594000000E+02  0.51100000000E-03 0.  1.
         11   -1    0    0    0    0 -0.00000000000E+00 -0.00000000000E+00 -0.45593999997E+02  0.45594000000E+02  0.51100000000E-03 0. -1.
    9900012    2    1    2    0    0  0.38560187228E+02  0.60760550797E+01 -0.11373620856E+02  0.50528859137E+02  0.29999997832E+02 0.  0.
        -12    1    1    2    0    0 -0.38560187228E+02 -0.60760550797E+01  0.11373620856E+02  0.40659140863E+02  0.00000000000E+00 0.  1.
         11    1    3    3    0    0  0.28253884794E+02  0.37074598976E+00 -0.99222056426E+01  0.29947781614E+02  0.51100000000E-03 0. -1.
        -11    1    3    3    0    0  0.90089483366E+01  0.93226699550E+01 -0.62837865752E+01  0.14406918449E+02  0.51100000000E-03 0.  1.
         12    1    3    3    0    0  0.12973540974E+01 -0.36173608650E+01  0.48323713621E+01  0.61741590733E+01  0.00000000000E+00 0. -1.
</event>
<event>
 7    1  0.4994895E-011  0.5052886E+02  0.7816164E-02  0.1300439E+00
        -11   -1    0    0    0    0  0.00000000000E+00  0.00000000000E+00  0.45593999997E+02  0.45594000000E+02  0.51100000000E-03 0.  1.
         11   -1    0    0    0    0 -0.00000000000E+00 -0.00000000000E+00 -0.45593999997E+02  0.45594000000E+02  0.51100000000E-03 0. -1.
    9900012    2    1    2    0    0 -0.31978326702E+02 -0.64233025912E+01 -0.24275359271E+02  0.50528864955E+02  0.30000015517E+02 0.  0.
        -12    1    1    2    0    0  0.31978326702E+02  0.64233025912E+01  0.24275359271E+02  0.40659135045E+02  0.00000000000E+00 0.  1.
         11    1    3    3    0    0 -0.39071509101E+01  0.49518415425E+01 -0.78225815059E+01  0.10048847923E+02  0.51100000000E-03 0. -1.
        -11    1    3    3    0    0 -0.70950604295E+01 -0.13882768098E+02 -0.94154640493E+01  0.18213239582E+02  0.51100000000E-03 0.  1.
        -12    1    3    3    0    0 -0.20976115363E+02  0.25076239643E+01 -0.70373137161E+01  0.22266777450E+02  0.00000000000E+00 0.  1.
</event>
<event>
 7    1  0.4994895E-011  0.5052889E+02  0.7816164E-02  0.1300439E+00
        -11   -1    0    0    0    0  0.00000000000E+00  0.00000000000E+00  0.45593999997E+02  0.45594000000E+02  0.51100000000E-03 0.  1.
         11   -1    0    0    0    0 -0.00000000000E+00 -0.00000000000E+00 -0.45593999997E+02  0.45594000000E+02  0.51100000000E-03 0. -1.
    9900012    2    1    2    0    0 -0.10499860148E+02  0.42759633173E-01 -0.39279946718E+02  0.50528891479E+02  0.30000096140E+02 0.  0.
        -12    1    1    2    0    0  0.10499860148E+02 -0.42759633173E-01  0.39279946718E+02  0.40659108521E+02  0.00000000000E+00 0.  1.
         11    1    3    3    0    0 -0.31290090003E+00 -0.71562769241E+01 -0.30319820900E+02  0.31154481958E+02  0.51100000000E-03 0. -1.
        -11    1    3    3    0    0 -0.12615537825E+02  0.64540699488E+01 -0.57795982580E+01  0.15303939682E+02  0.51100000000E-03 0.  1.
        -12    1    3    3    0    0  0.24285785769E+01  0.74496660849E+00 -0.31805275603E+01  0.40704698394E+01  0.00000000000E+00 0.  1.
</event>
<event>
 7    1  0.4994895E-011  0.5052883E+02  0.7816164E-02  0.1300439E+00
        -11   -1    0    0    0    0  0.00000000000E+00  0.00000000000E+00  0.45593999997E+02  0.45594000000E+02  0.51100000000E-03 0.  1.
         11   -1    0    0    0    0 -0.00000000000E+00 -0.00000000000E+00 -0.45593999997E+02  0.45594000000E+02  0.51100000000E-03 0. -1.
    9900012    2    1    2    0    0 -0.26085727991E+01 -0.17595441808E+02 -0.36561784861E+02  0.50528827152E+02  0.29999900612E+02 0.  0.
        -12    1    1    2    0    0  0.26085727991E+01  0.17595441808E+02  0.36561784861E+02  0.40659172848E+02  0.00000000000E+00 0.  1.
         11    1    3    3    0    0 -0.28242590122E+01  0.10087585974E+01 -0.19548494895E+02  0.19777201162E+02  0.51100000000E-03 0. -1.
        -11    1    3    3    0    0  0.40810227121E+01 -0.86913424665E+01  0.11815475606E+01  0.96742046260E+01  0.51100000000E-03 0.  1.
        -12    1    3    3    0    0 -0.38653364991E+01 -0.99128579390E+01 -0.18194837526E+02  0.21077421364E+02  0.00000000000E+00 0.  1.
</event>
<event>
 7    1  0.4994895E-011  0.5052886E+02  0.7816164E-02  0.1300439E+00
        -11   -1    0    0    0    0  0.00000000000E+00  0.00000000000E+00  0.45593999997E+02  0.45594000000E+02  0.51100000000E-03 0.  1.
         11   -1    0    0    0    0 -0.00000000000E+00 -0.00000000000E+00 -0.45593999997E+02  0.45594000000E+02  0.51100000000E-03 0. -1.
    9900012    2    1    2    0    0 -0.12426543536E+02 -0.14043598230E+02 -0.36076638072E+02  0.50528862650E+02  0.30000008510E+02 0.  0.
        -12    1    1    2    0    0  0.12426543536E+02  0.14043598230E+02  0.36076638072E+02  0.40659137350E+02  0.00000000000E+00 0.  1.
         11    1    3    3    0    0  0.30897737704E+01 -0.42884313262E+01  0.12148545381E+01  0.54233953389E+01  0.51100000000E-03 0. -1.
        -11    1    3    3    0    0 -0.38123126076E+01 -0.12704759465E+02 -0.20783166071E+02  0.24655316519E+02  0.51100000000E-03 0.  1.
         12    1    3    3    0    0 -0.11704004699E+02  0.29495925613E+01 -0.16508326539E+02  0.20450150791E+02  0.00000000000E+00 0. -1.
</event>
<event>
 7    1  0.4994895E-011  0.5052886E+02  0.7816164E-02  0.1300439E+00
        -11   -1    0    0    0    0  0.00000000000E+00  0.00000000000E+00  0.45593999997E+02  0.45594000000E+02  0.51100000000E-03 0. -1.
         11   -1    0    0    0    0 -0.00000000000E+00 -0.00000000000E+00 -0.45593999997E+02  0.45594000000E+02  0.51100000000E-03 0.  1.
    9900012    2    1    2    0    0  0.35162393602E+02 -0.59745549888E+01  0.19521171800E+02  0.50528863517E+02  0.30000011145E+02 0.  0.
        -12    1    1    2    0    0 -0.35162393602E+02  0.59745549888E+01 -0.19521171800E+02  0.40659136483E+02  0.00000000000E+00 0.  1.
         11    1    3    3    0    0  0.19835858485E+01  0.39811038408E+00  0.12713113681E+01  0.23894220121E+01  0.51100000000E-03 0. -1.
        -11    1    3    3    0    0  0.37685075236E+02 -0.32596948061E+01  0.11684157401E+02  0.39589266730E+02  0.51100000000E-03 0.  1.
        -12    1    3    3    0    0 -0.45062674831E+01 -0.31129705668E+01  0.65657030313E+01  0.85501747745E+01  0.00000000000E+00 0.  1.
</event>
<event>
 7    1  0.4994895E-011  0.5052885E+02  0.7816164E-02  0.1300439E+00
        -11   -1    0    0    0    0  0.00000000000E+00  0.00000000000E+00  0.45593999997E+02  0.45594000000E+02  0.51100000000E-03 0.  1.
         11   -1    0    0    0    0 -0.00000000000E+00 -0.00000000000E+00 -0.45593999997E+02  0.45594000000E+02  0.51100000000E-03 0. -1.
    9900012    2    1    2    0    0 -0.65479483323E+01  0.37431759656E+02 -0.14462151389E+02  0.50528854890E+02  0.29999984923E+02 0.  0.
        -12    1    1    2    0    0  0.65479483323E+01 -0.37431759656E+02  0.14462151389E+02  0.40659145110E+02  0.00000000000E+00 0.  1.
         11    1    3    3    0    0 -0.33891020232E+01  0.38098498268E+02 -0.98454977513E+01  0.39495764444E+02  0.51100000000E-03 0. -1.
        -11    1    3    3    0    0 -0.59040249906E+01  0.66071699610E+00 -0.52390120671E+01  0.79209409630E+01  0.51100000000E-03 0.  1.
         12    1    3    3    0    0  0.27451786815E+01 -0.13274556084E+01  0.62235842985E+00  0.31121494824E+01  0.00000000000E+00 0. -1.
</event>
<event>
 7    1  0.4994895E-011  0.5052886E+02  0.7816164E-02  0.1300439E+00
        -11   -1    0    0    0    0  0.00000000000E+00  0.00000000000E+00  0.45593999997E+02  0.45594000000E+02  0.51100000000E-03 0.  1.
         11   -1    0    0    0    0 -0.00000000000E+00 -0.00000000000E+00 -0.45593999997E+02  0.45594000000E+02  0.51100000000E-03 0. -1.
    9900012    2    1    2    0    0  0.12355995681E+02 -0.21200816565E+02 -0.32419448738E+02  0.50528857009E+02  0.29999991365E+02 0.  0.
        -12    1    1    2    0    0 -0.12355995681E+02  0.21200816565E+02  0.32419448738E+02  0.40659142991E+02  0.00000000000E+00 0.  1.
         11    1    3    3    0    0 -0.61907611347E+01 -0.27587783555E+01  0.58248576532E+00  0.68026223892E+01  0.51100000000E-03 0. -1.
        -11    1    3    3    0    0  0.84702202566E+01 -0.27320753730E+01 -0.16796509200E+02  0.19008724013E+02  0.51100000000E-03 0.  1.
         12    1    3    3    0    0  0.10076536560E+02 -0.15709962836E+02 -0.16205425303E+02  0.24717510607E+02  0.00000000000E+00 0. -1.
</event>
<event>
 7    1  0.4994895E-011  0.5052886E+02  0.7816164E-02  0.1300439E+00
        -11   -1    0    0    0    0  0.00000000000E+00  0.00000000000E+00  0.45593999997E+02  0.45594000000E+02  0.51100000000E-03 0. -1.
         11   -1    0    0    0    0 -0.00000000000E+00 -0.00000000000E+00 -0.45593999997E+02  0.45594000000E+02  0.51100000000E-03 0.  1.
    9900012    2    1    2    0    0 -0.28964273755E+02  0.25245285900E+02  0.13300835379E+02  0.50528857903E+02  0.29999994081E+02 0.  0.
        -12    1    1    2    0    0  0.28964273755E+02 -0.25245285900E+02 -0.13300835379E+02  0.40659142097E+02  0.00000000000E+00 0.  1.
         11    1    3    3    0    0 -0.16281405489E+01  0.12083001770E+02  0.13742143461E+02  0.18371071841E+02  0.51100000000E-03 0. -1.
        -11    1    3    3    0    0 -0.22345964651E+02  0.56295315973E+01 -0.13036469270E+01  0.23081015094E+02  0.51100000000E-03 0.  1.
         12    1    3    3    0    0 -0.49901685548E+01  0.75327525329E+01  0.86233884488E+00  0.90767709683E+01  0.00000000000E+00 0. -1.
</event>
<event>
 7    1  0.4994895E-011  0.5052886E+02  0.7816164E-02  0.1300439E+00
        -11   -1    0    0    0    0  0.00000000000E+00  0.00000000000E+00  0.45593999997E+02  0.45594000000E+02  0.51100000000E-03 0. -1.
         11   -1    0    0    0    0 -0.00000000000E+00 -0.00000000000E+00 -0.45593999997E+02  0.45594000000E+02  0.51100000000E-03 0.  1.
    9900012    2    1    2    0    0  0.18401894945E+02 -0.31637155242E+02  0.17709502749E+02  0.50528858137E+02  0.29999994793E+02 0.  0.
        -12    1    1    2    0    0 -0.18401894945E+02  0.31637155242E+02 -0.17709502749E+02  0.40659141863E+02  0.00000000000E+00 0.  1.
         11    1    3    3    0    0  0.18392447840E+01 -0.21081609297E+02  0.19312485526E+02  0.28649418308E+02  0.51100000000E-03 0. -1.
        -11    1    3    3    0    0  0.32591791744E+00 -0.36192291696E+01 -0.21359397976E+01  0.42151253067E+01  0.51100000000E-03 0.  1.
         12    1    3    3    0    0  0.16236732244E+02 -0.69363167764E+01  0.53295702079E+00  0.17664314523E+02  0.00000000000E+00 0. -1.
</event>
<event>
 7    1  0.4994895E-011  0.5052886E+02  0.7816164E-02  0.1300439E+00
        -11   -1    0    0    0    0  0.00000000000E+00  0.00000000000E+00  0.45593999997E+02  0.45594000000E+02  0.51100000000E-03 0.  1.
         11   -1    0    0    0    0 -0.00000000000E+00 -0.00000000000E+00 -0.45593999997E+02  0.45594000000E+02  0.51100000000E-03 0. -1.
    9900012    2    1    2    0    0 -0.25501669768E+02 -0.31520142589E+02  0.30513916239E+01  0.50528861536E+02  0.30000005125E+02 0.  0.
        -12    1    1    2    0    0  0.25501669768E+02  0.31520142589E+02 -0.30513916239E+01  0.40659138464E+02  0.00000000000E+00 0.  1.
         11    1    3    3    0    0 -0.16159269356E+02  0.11960272064E+01 -0.72679946609E+00  0.16219762789E+02  0.51100000000E-03 0. -1.
        -11    1    3    3    0    0 -0.52698414549E+01 -0.17745118098E+02  0.92765804668E+00  0.18534319383E+02  0.51100000000E-03 0.  1.
         12    1    3    3    0    0 -0.40725589576E+01 -0.14971051697E+02  0.28505330433E+01  0.15774779364E+02  0.00000000000E+00 0. -1.
</event>
<event>
 7    1  0.4994895E-011  0.5052886E+02  0.7816164E-02  0.1300439E+00
        -11   -1    0    0    0    0  0.00000000000E+00  0.00000000000E+00  0.45593999997E+02  0.45594000000E+02  0.51100000000E-03 0.  1.
         11   -1    0    0    0    0 -0.00000000000E+00 -0.00000000000E+00 -0.45593999997E+02  0.45594000000E+02  0.51100000000E-03 0. -1.
    9900012    2    1    2    0    0 -0.24232806678E+02  0.31133390428E+01 -0.32499905905E+02  0.50528859782E+02  0.29999999792E+02 0.  0.
        -12    1    1    2    0    0  0.24232806678E+02 -0.31133390428E+01  0.32499905905E+02  0.40659140218E+02  0.00000000000E+00 0.  1.
         11    1    3    3    0    0 -0.17566450071E+02 -0.80563917321E+01 -0.13323399636E+02  0.23473359239E+02  0.51100000000E-03 0. -1.
        -11    1    3    3    0    0  0.16387971466E+01  0.10591014969E+02 -0.11690590285E+02  0.15859544623E+02  0.51100000000E-03 0.  1.
        -12    1    3    3    0    0 -0.83051537531E+01  0.57871580570E+00 -0.74859159830E+01  0.11195955919E+02  0.00000000000E+00 0.  1.
</event>
<event>
 7    1  0.4994895E-011  0.5052884E+02  0.7816164E-02  0.1300439E+00
        -11   -1    0    0    0    0  0.00000000000E+00  0.00000000000E+00  0.45593999997E+02  0.45594000000E+02  0.51100000000E-03 0.  1.
         11   -1    0    0    0    0 -0.00000000000E+00 -0.00000000000E+00 -0.45593999997E+02  0.45594000000E+02  0.51100000000E-03 0. -1.
    9900012    2    1    2    0    0  0.88550616883E+01 -0.12619021976E+01 -0.39663115038E+02  0.50528841017E+02  0.29999942757E+02 0.  0.
        -12    1    1    2    0    0 -0.88550616883E+01  0.12619021976E+01  0.39663115038E+02  0.40659158983E+02  0.00000000000E+00 0.  1.
         11    1    3    3    0    0 -0.15306046633E+01 -0.74414982453E+01 -0.33730608526E+02  0.34575606988E+02  0.51100000000E-03 0. -1.
        -11    1    3    3    0    0  0.12592633415E+00  0.40361724897E+01 -0.28714111316E+00  0.40483325072E+01  0.51100000000E-03 0.  1.
         12    1    3    3    0    0  0.10259740017E+02  0.21434235580E+01 -0.56453653984E+01  0.11904901522E+02  0.00000000000E+00 0. -1.
</event>
<event>
 7    1  0.4994895E-011  0.5052886E+02  0.7816164E-02  0.1300439E+00
        -11   -1    0    0    0    0  0.00000000000E+00  0.00000000000E+00  0.45593999997E+02  0.45594000000E+02  0.51100000000E-03 0.  1.
         11   -1    0    0    0    0 -0.00000000000E+00 -0.00000000000E+00 -0.45593999997E+02  0.45594000000E+02  0.51100000000E-03 0. -1.
    9900012    2    1    2    0    0 -0.20585397336E+02  0.33206155481E+02 -0.11258712384E+02  0.50528856504E+02  0.29999989830E+02 0.  0.
        -12    1    1    2    0    0  0.20585397336E+02 -0.33206155481E+02  0.11258712384E+02  0.40659143496E+02  0.00000000000E+00 0.  1.
         11    1    3    3    0    0 -0.19661351707E+02  0.29237947209E+02 -0.11908797823E+02  0.37192012231E+02  0.51100000000E-03 0. -1.
        -11    1    3    3    0    0 -0.75894003143E+00  0.64435022337E+01  0.50930083738E+01  0.82482389371E+01  0.51100000000E-03 0.  1.
         12    1    3    3    0    0 -0.16510559789E+00 -0.24752939626E+01 -0.44429229347E+01  0.50886053358E+01  0.00000000000E+00 0. -1.
</event>
<event>
 7    1  0.4994895E-011  0.5052886E+02  0.7816164E-02  0.1300439E+00
        -11   -1    0    0    0    0  0.00000000000E+00  0.00000000000E+00  0.45593999997E+02  0.45594000000E+02  0.51100000000E-03 0.  1.
         11   -1    0    0    0    0 -0.00000000000E+00 -0.00000000000E+00 -0.45593999997E+02  0.45594000000E+02  0.51100000000E-03 0. -1.
    9900012    2    1    2    0    0 -0.20998006035E+02  0.86505193219E+01 -0.33725632678E+02  0.50528855376E+02  0.29999986402E+02 0.  0.
        -12    1    1    2    0    0  0.20998006035E+02 -0.86505193219E+01  0.33725632678E+02  0.40659144624E+02  0.00000000000E+00 0.  1.
         11    1    3    3    0    0 -0.13318805410E+02 -0.68562473927E+01 -0.18527276300E+02  0.23825588623E+02  0.51100000000E-03 0. -1.
        -11    1    3    3    0    0 -0.10980900756E+02  0.11295681403E+02 -0.78169813330E+01  0.17586295721E+02  0.51100000000E-03 0.  1.
        -12    1    3    3    0    0  0.33017001304E+01  0.42110853120E+01 -0.73813750451E+01  0.91169710328E+01  0.00000000000E+00 0.  1.
</event>
<event>
 7    1  0.4994895E-011  0.5052887E+02  0.7816164E-02  0.1300439E+00
        -11   -1    0    0    0    0  0.00000000000E+00  0.00000000000E+00  0.45593999997E+02  0.45594000000E+02  0.51100000000E-03 0.  1.
         11   -1    0    0    0    0 -0.00000000000E+00 -0.00000000000E+00 -0.45593999997E+02  0.45594000000E+02  0.51100000000E-03 0. -1.
    9900012    2    1    2    0    0 -0.28690905580E+02 -0.16811913588E+02 -0.23395642740E+02  0.50528873095E+02  0.30000040259E+02 0.  0.
        -12    1    1    2    0    0  0.28690905580E+02  0.16811913588E+02  0.23395642740E+02  0.40659126905E+02  0.00000000000E+00 0.  1.
         11    1    3    3    0    0 -0.16144881490E+02  0.13092596811E+01 -0.55572924875E+01  0.17124685670E+02  0.51100000000E-03 0. -1.
        -11    1    3    3    0    0 -0.12598479551E+02 -0.19975120550E+02 -0.10518058447E+02  0.25852595262E+02  0.51100000000E-03 0.  1.
        -12    1    3    3    0    0  0.52455461162E-01  0.18539472812E+01 -0.73202918050E+01  0.75515921637E+01  0.00000000000E+00 0.  1.
</event>
<event>
 7    1  0.4994895E-011  0.5052886E+02  0.7816164E-02  0.1300439E+00
        -11   -1    0    0    0    0  0.00000000000E+00  0.00000000000E+00  0.45593999997E+02  0.45594000000E+02  0.51100000000E-03 0.  1.
         11   -1    0    0    0    0 -0.00000000000E+00 -0.00000000000E+00 -0.45593999997E+02  0.45594000000E+02  0.51100000000E-03 0. -1.
    9900012    2    1    2    0    0  0.38023090435E+02  0.11961075626E+02 -0.80213894666E+01  0.50528862954E+02  0.30000009435E+02 0.  0.
        -12    1    1    2    0    0 -0.38023090435E+02 -0.11961075626E+02  0.80213894666E+01  0.40659137046E+02  0.00000000000E+00 0.  1.
         11    1    3    3    0    0  0.16426942521E+02  0.10801887357E+02  0.71093586550E+01  0.20906175925E+02  0.51100000000E-03 0. -1.
        -11    1    3    3    0    0  0.14801542500E+02 -0.34446368824E+01 -0.38589017449E+01  0.15679359252E+02  0.51100000000E-03 0.  1.
         12    1    3    3    0    0  0.67946054143E+01  0.46038251523E+01 -0.11271846377E+02  0.13943327777E+02  0.00000000000E+00 0. -1.
</event>
<event>
 7    1  0.4994895E-011  0.5052886E+02  0.7816164E-02  0.1300439E+00
        -11   -1    0    0    0    0  0.00000000000E+00  0.00000000000E+00  0.45593999997E+02  0.45594000000E+02  0.51100000000E-03 0. -1.
         11   -1    0    0    0    0 -0.00000000000E+00 -0.00000000000E+00 -0.45593999997E+02  0.45594000000E+02  0.51100000000E-03 0.  1.
    9900012    2    1    2    0    0  0.46247669231E+01  0.39195823229E+02  0.97706035317E+01  0.50528859317E+02  0.29999998381E+02 0.  0.
        -12    1    1    2    0    0 -0.46247669231E+01 -0.39195823229E+02 -0.97706035317E+01  0.40659140683E+02  0.00000000000E+00 0.  1.
         11    1    3    3    0    0 -0.94521904760E+01  0.23870230374E+02  0.97409579391E+01  0.27459389373E+02  0.51100000000E-03 0. -1.
        -11    1    3    3    0    0  0.14025692035E+02  0.16218122332E+02 -0.12843850207E+01  0.21480157685E+02  0.51100000000E-03 0.  1.
        -12    1    3    3    0    0  0.51265363926E-01 -0.89252947717E+00  0.13140306132E+01  0.15893122593E+01  0.00000000000E+00 0.  1.
</event>
<event>
 7    1  0.4994895E-011  0.5052885E+02  0.7816164E-02  0.1300439E+00
        -11   -1    0    0    0    0  0.00000000000E+00  0.00000000000E+00  0.45593999997E+02  0.45594000000E+02  0.51100000000E-03 0. -1.
         11   -1    0    0    0    0 -0.00000000000E+00 -0.00000000000E+00 -0.45593999997E+02  0.45594000000E+02  0.51100000000E-03 0.  1.
    9900012    2    1    2    0    0  0.19608752135E+02  0.18242439698E+02  0.30592097399E+02  0.50528853554E+02  0.29999980863E+02 0.  0.
        -12    1    1    2    0    0 -0.19608752135E+02 -0.18242439698E+02 -0.30592097399E+02  0.40659146446E+02  0.00000000000E+00 0.  1.
         11    1    3    3    0    0  0.53831869094E+01  0.12869040749E+02  0.19134783032E+02  0.23679755765E+02  0.51100000000E-03 0. -1.
        -11    1    3    3    0    0  0.10120864421E+02 -0.44539753079E+01 -0.19985300657E+00  0.11059373135E+02  0.51100000000E-03 0.  1.
        -12    1    3    3    0    0  0.41047008045E+01  0.98273742570E+01  0.11657167373E+02  0.15789724654E+02  0.00000000000E+00 0.  1.
</event>
<event>
 7    1  0.4994895E-011  0.5052887E+02  0.7816164E-02  0.1300439E+00
        -11   -1    0    0    0    0  0.00000000000E+00  0.00000000000E+00  0.45593999997E+02  0.45594000000E+02  0.51100000000E-03 0.  1.
         11   -1    0    0    0    0 -0.00000000000E+00 -0.00000000000E+00 -0.45593999997E+02  0.45594000000E+02  0.51100000000E-03 0. -1.
    9900012    2    1    2    0    0  0.74458386659E+01  0.18897062443E+02 -0.35222516278E+02  0.50528866519E+02  0.30000020272E+02 0.  0.
        -12    1    1    2    0    0 -0.74458386659E+01 -0.18897062443E+02  0.35222516278E+02  0.40659133481E+02  0.00000000000E+00 0.  1.
         11    1    3    3    0    0  0.79738766798E+01  0.20051644570E+01 -0.50404795942E+01  0.96441603370E+01  0.51100000000E-03 0. -1.
        -11    1    3    3    0    0 -0.41455064748E+01  0.21143170587E+02 -0.20680145236E+02  0.29864482143E+02  0.51100000000E-03 0.  1.
        -12    1    3    3    0    0  0.36174684609E+01 -0.42512726007E+01 -0.95018914482E+01  0.11020224040E+02  0.00000000000E+00 0.  1.
</event>
<event>
 7    1  0.4994895E-011  0.5052886E+02  0.7816164E-02  0.1300439E+00
        -11   -1    0    0    0    0  0.00000000000E+00  0.00000000000E+00  0.45593999997E+02  0.45594000000E+02  0.51100000000E-03 0.  1.
         11   -1    0    0    0    0 -0.00000000000E+00 -0.00000000000E+00 -0.45593999997E+02  0.45594000000E+02  0.51100000000E-03 0. -1.
    9900012    2    1    2    0    0  0.38069861628E+02 -0.22875822198E+01 -0.14093188847E+02  0.50528863651E+02  0.30000011552E+02 0.  0.
        -12    1    1    2    0    0 -0.38069861628E+02  0.22875822198E+01  0.14093188847E+02  0.40659136349E+02  0.00000000000E+00 0.  1.
         11    1    3    3    0    0  0.14973202722E+02 -0.31766726393E+01 -0.11643581395E+02  0.19231771546E+02  0.51100000000E-03 0. -1.
        -11    1    3    3    0    0  0.13610905490E+02  0.10874782086E+02 -0.16826289523E+01  0.17502824747E+02  0.51100000000E-03 0.  1.
        -12    1    3    3    0    0  0.94857534162E+01 -0.99856916662E+01 -0.76697849939E+00  0.13794267358E+02  0.00000000000E+00 0.  1.
</event>
<event>
 7    1  0.4994895E-011  0.5052887E+02  0.7816164E-02  0.1300439E+00
        -11   -1    0    0    0    0  0.00000000000E+00  0.00000000000E+00  0.45593999997E+02  0.45594000000E+02  0.51100000000E-03 0.  1.
         11   -1    0    0    0    0 -0.00000000000E+00 -0.00000000000E+00 -0.45593999997E+02  0.45594000000E+02  0.51100000000E-03 0. -1.
    9900012    2    1    2    0    0  0.35643328248E+02 -0.19500336119E+02 -0.15667888360E+01  0.50528870833E+02  0.30000033385E+02 0.  0.
        -12    1    1    2    0    0 -0.35643328248E+02  0.19500336119E+02  0.15667888360E+01  0.40659129167E+02  0.00000000000E+00 0.  1.
         11    1    3    3    0    0  0.17995495608E+02 -0.12417120153E+01 -0.98543755158E+01  0.20554523297E+02  0.51100000000E-03 0. -1.
        -11    1    3    3    0    0 -0.42397223874E+00 -0.47042962388E+01  0.54417646324E+01  0.72057586788E+01  0.51100000000E-03 0.  1.
         12    1    3    3    0    0  0.18071804878E+02 -0.13554327865E+02  0.28458220474E+01  0.22768588857E+02  0.00000000000E+00 0. -1.
</event>
<event>
 7    1  0.4994895E-011  0.5052885E+02  0.7816164E-02  0.1300439E+00
        -11   -1    0    0    0    0  0.00000000000E+00  0.00000000000E+00  0.45593999997E+02  0.45594000000E+02  0.51100000000E-03 0. -1.
         11   -1    0    0    0    0 -0.00000000000E+00 -0.00000000000E+00 -0.45593999997E+02  0.45594000000E+02  0.51100000000E-03 0.  1.
    9900012    2    1    2    0    0  0.24760805049E+02  0.93129670898E+01  0.30876160963E+02  0.50528854183E+02  0.29999982776E+02 0.  0.
        -12    1    1    2    0    0 -0.24760805049E+02 -0.93129670898E+01 -0.30876160963E+02  0.40659145817E+02  0.00000000000E+00 0.  1.
         11    1    3    3    0    0  0.11978530666E+02 -0.19456926274E+01  0.27967739862E+01  0.12453628455E+02  0.51100000000E-03 0. -1.
        -11    1    3    3    0    0  0.10182898982E+02  0.55681794425E+01  0.29464335913E+02  0.31667698764E+02  0.51100000000E-03 0.  1.
        -12    1    3    3    0    0  0.25993754016E+01  0.56904802747E+01 -0.13849489358E+01  0.64075269637E+01  0.00000000000E+00 0.  1.
</event>
<event>
 7    1  0.4994895E-011  0.5052873E+02  0.7816164E-02  0.1300439E+00
        -11   -1    0    0    0    0  0.00000000000E+00  0.00000000000E+00  0.45593999997E+02  0.45594000000E+02  0.51100000000E-03 0.  1.
         11   -1    0    0    0    0 -0.00000000000E+00 -0.00000000000E+00 -0.45593999997E+02  0.45594000000E+02  0.51100000000E-03 0. -1.
    9900012    2    1    2    0    0 -0.31709627349E+02  0.75544529487E+01 -0.24302391666E+02  0.50528727175E+02  0.29999596719E+02 0.  0.
        -12    1    1    2    0    0  0.31709627349E+02 -0.75544529487E+01  0.24302391666E+02  0.40659272825E+02  0.00000000000E+00 0.  1.
         11    1    3    3    0    0 -0.70850653609E+01  0.54860485125E+01  0.15554782343E+01  0.90947453098E+01  0.51100000000E-03 0. -1.
        -11    1    3    3    0    0 -0.56391425535E+01 -0.18135463296E+00 -0.20949151200E+02  0.21695616020E+02  0.51100000000E-03 0.  1.
        -12    1    3    3    0    0 -0.18985419434E+02  0.22497590691E+01 -0.49087187005E+01  0.19738365845E+02  0.00000000000E+00 0.  1.
</event>
<event>
 7    1  0.4994895E-011  0.5052886E+02  0.7816164E-02  0.1300439E+00
        -11   -1    0    0    0    0  0.00000000000E+00  0.00000000000E+00  0.45593999997E+02  0.45594000000E+02  0.51100000000E-03 0.  1.
         11   -1    0    0    0    0 -0.00000000000E+00 -0.00000000000E+00 -0.45593999997E+02  0.45594000000E+02  0.51100000000E-03 0. -1.
    9900012    2    1    2    0    0  0.68387254027E+01  0.83209138617E+01 -0.39206629475E+02  0.50528861206E+02  0.30000004123E+02 0.  0.
        -12    1    1    2    0    0 -0.68387254027E+01 -0.83209138617E+01  0.39206629475E+02  0.40659138794E+02  0.00000000000E+00 0.  1.
         11    1    3    3    0    0 -0.22667514452E+01  0.52041985499E+01 -0.21731958789E+02  0.22461074723E+02  0.51100000000E-03 0. -1.
        -11    1    3    3    0    0  0.12262616740E+02 -0.46478618809E+01 -0.13395351865E+02  0.18745928657E+02  0.51100000000E-03 0.  1.
        -12    1    3    3    0    0 -0.31571398923E+01  0.77645771927E+01 -0.40793188215E+01  0.93218578260E+01  0.00000000000E+00 0.  1.
</event>
<event>
 7    1  0.4994895E-011  0.5052886E+02  0.7816164E-02  0.1300439E+00
        -11   -1    0    0    0    0  0.00000000000E+00  0.00000000000E+00  0.45593999997E+02  0.45594000000E+02  0.51100000000E-03 0. -1.
         11   -1    0    0    0    0 -0.00000000000E+00 -0.00000000000E+00 -0.45593999997E+02  0.45594000000E+02  0.51100000000E-03 0.  1.
    9900012    2    1    2    0    0  0.23343189120E+02 -0.68539153552E+01  0.32577365294E+02  0.50528863714E+02  0.30000011746E+02 0.  0.
        -12    1    1    2    0    0 -0.23343189120E+02  0.68539153552E+01 -0.32577365294E+02  0.40659136286E+02  0.00000000000E+00 0.  1.
         11    1    3    3    0    0 -0.71784209165E+00  0.78761901766E+01  0.98704453841E+01  0.12648136673E+02  0.51100000000E-03 0. -1.
        -11    1    3    3    0    0  0.24400680542E+02 -0.11329227108E+02  0.20209263594E+02  0.33647569497E+02  0.51100000000E-03 0.  1.
        -12    1    3    3    0    0 -0.33964932971E+00 -0.34008784237E+01  0.24976563161E+01  0.42331575441E+01  0.00000000000E+00 0.  1.
</event>
<event>
 7    1  0.4994895E-011  0.5052886E+02  0.7816164E-02  0.1300439E+00
        -11   -1    0    0    0    0  0.00000000000E+00  0.00000000000E+00  0.45593999997E+02  0.45594000000E+02  0.51100000000E-03 0.  1.
         11   -1    0    0    0    0 -0.00000000000E+00 -0.00000000000E+00 -0.45593999997E+02  0.45594000000E+02  0.51100000000E-03 0. -1.
    9900012    2    1    2    0    0  0.26116793027E+02  0.16514242962E+02 -0.26426471943E+02  0.50528861815E+02  0.30000005973E+02 0.  0.
        -12    1    1    2    0    0 -0.26116793027E+02 -0.16514242962E+02  0.26426471943E+02  0.40659138185E+02  0.00000000000E+00 0.  1.
         11    1    3    3    0    0  0.21342927824E+02 -0.32968463485E+01 -0.94233048133E+01  0.23562437009E+02  0.51100000000E-03 0.  1.
        -11    1    3    3    0    0  0.25854616721E+01  0.16107009247E+02 -0.11398529824E+02  0.19900925640E+02  0.51100000000E-03 0. -1.
         12    1    3    3    0    0  0.21884035306E+01  0.37040800640E+01 -0.56046373058E+01  0.70654991659E+01  0.00000000000E+00 0. -1.
</event>
<event>
 7    1  0.4994895E-011  0.5052886E+02  0.7816164E-02  0.1300439E+00
        -11   -1    0    0    0    0  0.00000000000E+00  0.00000000000E+00  0.45593999997E+02  0.45594000000E+02  0.51100000000E-03 0.  1.
         11   -1    0    0    0    0 -0.00000000000E+00 -0.00000000000E+00 -0.45593999997E+02  0.45594000000E+02  0.51100000000E-03 0. -1.
    9900012    2    1    2    0    0  0.30982006250E+01  0.70442048373E+01 -0.39924257713E+02  0.50528855606E+02  0.29999987101E+02 0.  0.
        -12    1    1    2    0    0 -0.30982006250E+01 -0.70442048373E+01  0.39924257713E+02  0.40659144394E+02  0.00000000000E+00 0.  1.
         11    1    3    3    0    0 -0.70219303045E+01 -0.36255115739E+01 -0.31009099904E+02  0.32000251819E+02  0.51100000000E-03 0. -1.
        -11    1    3    3    0    0  0.22457891380E+01  0.67622926178E+01 -0.21704321266E+01  0.74486875474E+01  0.51100000000E-03 0.  1.
         12    1    3    3    0    0  0.78743417915E+01  0.39074237934E+01 -0.67447256824E+01  0.11079916240E+02  0.00000000000E+00 0. -1.
</event>
<event>
 7    1  0.4994895E-011  0.5052886E+02  0.7816164E-02  0.1300439E+00
        -11   -1    0    0    0    0  0.00000000000E+00  0.00000000000E+00  0.45593999997E+02  0.45594000000E+02  0.51100000000E-03 0.  1.
         11   -1    0    0    0    0 -0.00000000000E+00 -0.00000000000E+00 -0.45593999997E+02  0.45594000000E+02  0.51100000000E-03 0. -1.
    9900012    2    1    2    0    0 -0.13011397753E+02  0.24343127086E+02 -0.29854339930E+02  0.50528856865E+02  0.29999990927E+02 0.  0.
        -12    1    1    2    0    0  0.13011397753E+02 -0.24343127086E+02  0.29854339930E+02  0.40659143135E+02  0.00000000000E+00 0.  1.
         11    1    3    3    0    0 -0.13969660324E+02  0.14004207012E+01 -0.55276728610E+01  0.15088663136E+02  0.51100000000E-03 0. -1.
        -11    1    3    3    0    0 -0.32122336846E+01  0.15625343617E+02 -0.10018602455E+02  0.18837255740E+02  0.51100000000E-03 0.  1.
         12    1    3    3    0    0  0.41704962555E+01  0.73173627675E+01 -0.14308064614E+02  0.16602937989E+02  0.00000000000E+00 0. -1.
</event>
<event>
 7    1  0.6614375E-011  0.5052886E+02  0.7816164E-02  0.1300439E+00
        -11   -1    0    0    0    0  0.00000000000E+00  0.00000000000E+00  0.45593999997E+02  0.45594000000E+02  0.51100000000E-03 0.  1.
         11   -1    0    0    0    0 -0.00000000000E+00 -0.00000000000E+00 -0.45593999997E+02  0.45594000000E+02  0.51100000000E-03 0. -1.
    9900012    2    1    2    0    0  0.38059220150E+02  0.11239088291E+02  0.88512307100E+01  0.50528860448E+02  0.30000001817E+02 0.  0.
        -12    1    1    2    0    0 -0.38059220150E+02 -0.11239088291E+02 -0.88512307100E+01  0.40659139552E+02  0.00000000000E+00 0.  1.
         11    1    3    3    0    0  0.23762646581E+02 -0.11343327404E+01  0.30162392173E+01  0.23980153931E+02  0.51100000000E-03 0. -1.
        -11    1    3    3    0    0  0.10118640884E+02  0.14818752212E+02 -0.12281397448E+01  0.17985845489E+02  0.51100000000E-03 0.  1.
        -12    1    3    3    0    0  0.41779326853E+01 -0.24453311801E+01  0.70631312374E+01  0.85628610277E+01  0.00000000000E+00 0.  1.
</event>
<event>
 7    1  0.4994895E-011  0.5052888E+02  0.7816164E-02  0.1300439E+00
        -11   -1    0    0    0    0  0.00000000000E+00  0.00000000000E+00  0.45593999997E+02  0.45594000000E+02  0.51100000000E-03 0.  1.
         11   -1    0    0    0    0 -0.00000000000E+00 -0.00000000000E+00 -0.45593999997E+02  0.45594000000E+02  0.51100000000E-03 0. -1.
    9900012    2    1    2    0    0 -0.26320648213E+02  0.51476652113E+01 -0.30559600807E+02  0.50528878257E+02  0.30000055949E+02 0.  0.
        -12    1    1    2    0    0  0.26320648213E+02 -0.51476652113E+01  0.30559600807E+02  0.40659121743E+02  0.00000000000E+00 0.  1.
         11    1    3    3    0    0 -0.18770056876E+02 -0.73452676950E-01 -0.44335302418E+01  0.19286695442E+02  0.51100000000E-03 0. -1.
        -11    1    3    3    0    0  0.28063731388E+01  0.53998868232E+01 -0.14179090385E+02  0.15429877262E+02  0.51100000000E-03 0.  1.
         12    1    3    3    0    0 -0.10356964475E+02 -0.17876893500E+00 -0.11946980180E+02  0.15812305553E+02  0.00000000000E+00 0. -1.
</event>
<event>
 7    1  0.4994895E-011  0.5052886E+02  0.7816164E-02  0.1300439E+00
        -11   -1    0    0    0    0  0.00000000000E+00  0.00000000000E+00  0.45593999997E+02  0.45594000000E+02  0.51100000000E-03 0. -1.
         11   -1    0    0    0    0 -0.00000000000E+00 -0.00000000000E+00 -0.45593999997E+02  0.45594000000E+02  0.51100000000E-03 0.  1.
    9900012    2    1    2    0    0 -0.11520374053E+02  0.35252578537E+02 -0.16664407606E+02  0.50528858437E+02  0.29999995704E+02 0.  0.
        -12    1    1    2    0    0  0.11520374053E+02 -0.35252578537E+02  0.16664407606E+02  0.40659141563E+02  0.00000000000E+00 0.  1.
         11    1    3    3    0    0 -0.93454854889E+01  0.26956150233E+02 -0.20560824251E+01  0.28604188672E+02  0.51100000000E-03 0. -1.
        -11    1    3    3    0    0  0.10685838741E+01 -0.36113016232E+01 -0.51270946336E+01  0.63616405551E+01  0.51100000000E-03 0.  1.
        -12    1    3    3    0    0 -0.32434724382E+01  0.11907729927E+02 -0.94812305474E+01  0.15563029209E+02  0.00000000000E+00 0.  1.
</event>
<event>
 7    1  0.4994895E-011  0.5052890E+02  0.7816164E-02  0.1300439E+00
        -11   -1    0    0    0    0  0.00000000000E+00  0.00000000000E+00  0.45593999997E+02  0.45594000000E+02  0.51100000000E-03 0.  1.
         11   -1    0    0    0    0 -0.00000000000E+00 -0.00000000000E+00 -0.45593999997E+02  0.45594000000E+02  0.51100000000E-03 0. -1.
    9900012    2    1    2    0    0 -0.65322825188E+01  0.55025542546E+01 -0.39751903620E+02  0.50528896965E+02  0.30000112813E+02 0.  0.
        -12    1    1    2    0    0  0.65322825188E+01 -0.55025542546E+01  0.39751903620E+02  0.40659103035E+02  0.00000000000E+00 0.  1.
         11    1    3    3    0    0 -0.13390773151E+02  0.80792457359E+01 -0.10020761639E+02  0.18574247800E+02  0.51100000000E-03 0. -1.
        -11    1    3    3    0    0  0.34581563500E+01 -0.45379518599E+01 -0.77381675501E+01  0.96141088884E+01  0.51100000000E-03 0.  1.
         12    1    3    3    0    0  0.34003342824E+01  0.19612603785E+01 -0.21992974431E+02  0.22340540276E+02  0.00000000000E+00 0. -1.
</event>
<event>
 7    1  0.4994895E-011  0.5052886E+02  0.7816164E-02  0.1300439E+00
        -11   -1    0    0    0    0  0.00000000000E+00  0.00000000000E+00  0.45593999997E+02  0.45594000000E+02  0.51100000000E-03 0.  1.
         11   -1    0    0    0    0 -0.00000000000E+00 -0.00000000000E+00 -0.45593999997E+02  0.45594000000E+02  0.51100000000E-03 0. -1.
    9900012    2    1    2    0    0  0.35710471669E+02  0.18612362500E+02  0.56132190005E+01  0.50528855246E+02  0.29999986004E+02 0.  0.
        -12    1    1    2    0    0 -0.35710471669E+02 -0.18612362500E+02 -0.56132190005E+01  0.40659144754E+02  0.00000000000E+00 0.  1.
         11    1    3    3    0    0  0.20008616414E+02  0.57856888519E+01  0.87242297895E+01  0.22581654323E+02  0.51100000000E-03 0.  1.
        -11    1    3    3    0    0  0.14406667394E+02  0.10636838705E+02 -0.10064866906E+02  0.20542539987E+02  0.51100000000E-03 0. -1.
         12    1    3    3    0    0  0.12951878601E+01  0.21898349429E+01  0.69538561166E+01  0.74046609349E+01  0.00000000000E+00 0. -1.
</event>
<event>
 7    1  0.4994895E-011  0.5052888E+02  0.7816164E-02  0.1300439E+00
        -11   -1    0    0    0    0  0.00000000000E+00  0.00000000000E+00  0.45593999997E+02  0.45594000000E+02  0.51100000000E-03 0. -1.
         11   -1    0    0    0    0 -0.00000000000E+00 -0.00000000000E+00 -0.45593999997E+02  0.45594000000E+02  0.51100000000E-03 0.  1.
    9900012    2    1    2    0    0  0.30403429948E+01 -0.38038932263E+02  0.14034248126E+02  0.50528878346E+02  0.30000056221E+02 0.  0.
        -12    1    1    2    0    0 -0.30403429948E+01  0.38038932263E+02 -0.14034248126E+02  0.40659121654E+02  0.00000000000E+00 0.  1.
         11    1    3    3    0    0 -0.11806572795E+02 -0.24303738477E+02  0.81251296520E+01  0.28214971154E+02  0.51100000000E-03 0. -1.
        -11    1    3    3    0    0  0.37775782126E+01 -0.10565804748E+00 -0.27425688843E-01  0.37791550914E+01  0.51100000000E-03 0.  1.
         12    1    3    3    0    0  0.11069337577E+02 -0.13629535738E+02  0.59365441629E+01  0.18534752101E+02  0.00000000000E+00 0. -1.
</event>
<event>
 7    1  0.4994895E-011  0.5052887E+02  0.7816164E-02  0.1300439E+00
        -11   -1    0    0    0    0  0.00000000000E+00  0.00000000000E+00  0.45593999997E+02  0.45594000000E+02  0.51100000000E-03 0. -1.
         11   -1    0    0    0    0 -0.00000000000E+00 -0.00000000000E+00 -0.45593999997E+02  0.45594000000E+02  0.51100000000E-03 0.  1.
    9900012    2    1    2    0    0 -0.30894569139E+02  0.17791144336E+02  0.19549057627E+02  0.50528869745E+02  0.30000030075E+02 0.  0.
        -12    1    1    2    0    0  0.30894569139E+02 -0.17791144336E+02 -0.19549057627E+02  0.40659130255E+02  0.00000000000E+00 0.  1.
         11    1    3    3    0    0 -0.51228713047E+00  0.67435777959E+01  0.50475295899E+01  0.84389474945E+01  0.51100000000E-03 0. -1.
        -11    1    3    3    0    0 -0.30805632466E+02  0.12296440399E+02  0.18430433941E+02  0.37945623379E+02  0.51100000000E-03 0.  1.
        -12    1    3    3    0    0  0.42335045795E+00 -0.12488738588E+01 -0.39289059043E+01  0.41442988708E+01  0.00000000000E+00 0.  1.
</event>
<event>
 7    1  0.4994895E-011  0.5052892E+02  0.7816164E-02  0.1300439E+00
        -11   -1    0    0    0    0  0.00000000000E+00  0.00000000000E+00  0.45593999997E+02  0.45594000000E+02  0.51100000000E-03 0.  1.
         11   -1    0    0    0    0 -0.00000000000E+00 -0.00000000000E+00 -0.45593999997E+02  0.45594000000E+02  0.51100000000E-03 0. -1.
    9900012    2    1    2    0    0 -0.18273349479E+02  0.33091544807E+02 -0.14973158508E+02  0.50528915965E+02  0.30000170567E+02 0.  0.
        -12    1    1    2    0    0  0.18273349479E+02 -0.33091544807E+02  0.14973158508E+02  0.40659084035E+02  0.00000000000E+00 0.  1.
         11    1    3    3    0    0 -0.10817227501E+01  0.10672115754E+02 -0.69979301639E+01  0.12807622950E+02  0.51100000000E-03 0. -1.
        -11    1    3    3    0    0  0.11972489124E+01 -0.90151635194E+00  0.50676931351E+01  0.52846618306E+01  0.51100000000E-03 0.  1.
        -12    1    3    3    0    0 -0.18388875641E+02  0.23320945404E+02 -0.13042921480E+02  0.32436631185E+02  0.00000000000E+00 0.  1.
</event>
<event>
 7    1  0.4994895E-011  0.5052886E+02  0.7816164E-02  0.1300439E+00
        -11   -1    0    0    0    0  0.00000000000E+00  0.00000000000E+00  0.45593999997E+02  0.45594000000E+02  0.51100000000E-03 0.  1.
         11   -1    0    0    0    0 -0.00000000000E+00 -0.00000000000E+00 -0.45593999997E+02  0.45594000000E+02  0.51100000000E-03 0. -1.
    9900012    2    1    2    0    0 -0.27641154610E+02 -0.39182052432E+01 -0.29559775188E+02  0.50528855030E+02  0.29999985350E+02 0.  0.
        -12    1    1    2    0    0  0.27641154610E+02  0.39182052432E+01  0.29559775188E+02  0.40659144970E+02  0.00000000000E+00 0.  1.
         11    1    3    3    0    0 -0.18763699964E+02  0.30220603282E+01 -0.82805781401E+01  0.20731069909E+02  0.51100000000E-03 0. -1.
        -11    1    3    3    0    0  0.46947387244E+01  0.25172383421E+00 -0.19031235588E+01  0.50720623143E+01  0.51100000000E-03 0.  1.
        -12    1    3    3    0    0 -0.13572193371E+02 -0.71919894056E+01 -0.19376073489E+02  0.24725722807E+02  0.00000000000E+00 0.  1.
</event>
<event>
 7    1  0.4994895E-011  0.5052887E+02  0.7816164E-02  0.1300439E+00
        -11   -1    0    0    0    0  0.00000000000E+00  0.00000000000E+00  0.45593999997E+02  0.45594000000E+02  0.51100000000E-03 0. -1.
         11   -1    0    0    0    0 -0.00000000000E+00 -0.00000000000E+00 -0.45593999997E+02  0.45594000000E+02  0.51100000000E-03 0.  1.
    9900012    2    1    2    0    0 -0.15316122004E+02  0.23327205496E+01  0.37591747738E+02  0.50528872164E+02  0.30000037430E+02 0.  0.
        -12    1    1    2    0    0  0.15316122004E+02 -0.23327205496E+01 -0.37591747738E+02  0.40659127836E+02  0.00000000000E+00 0.  1.
         11    1    3    3    0    0 -0.20332271794E+01  0.93653902037E+01  0.23828976023E+02  0.25683937490E+02  0.51100000000E-03 0. -1.
        -11    1    3    3    0    0 -0.11360893511E+02 -0.96785725677E+01  0.54102213627E+01  0.15874985473E+02  0.51100000000E-03 0.  1.
        -12    1    3    3    0    0 -0.19220013131E+01  0.26459029136E+01  0.83525503522E+01  0.89699492006E+01  0.00000000000E+00 0.  1.
</event>
<event>
 7    1  0.4994895E-011  0.5052886E+02  0.7816164E-02  0.1300439E+00
        -11   -1    0    0    0    0  0.00000000000E+00  0.00000000000E+00  0.45593999997E+02  0.45594000000E+02  0.51100000000E-03 0.  1.
         11   -1    0    0    0    0 -0.00000000000E+00 -0.00000000000E+00 -0.45593999997E+02  0.45594000000E+02  0.51100000000E-03 0. -1.
    9900012    2    1    2    0    0  0.37880248555E+02 -0.78162039790E+01 -0.12536317059E+02  0.50528861782E+02  0.30000005872E+02 0.  0.
        -12    1    1    2    0    0 -0.37880248555E+02  0.78162039790E+01  0.12536317059E+02  0.40659138218E+02  0.00000000000E+00 0.  1.
         11    1    3    3    0    0  0.17762160004E+02 -0.11874354490E+02 -0.32574683008E+00  0.21368217844E+02  0.51100000000E-03 0. -1.
        -11    1    3    3    0    0  0.73087123611E+01  0.71772006552E+01  0.12497882839E+01  0.10319469785E+02  0.51100000000E-03 0.  1.
        -12    1    3    3    0    0  0.12809376190E+02 -0.31190501442E+01 -0.13460358513E+02  0.18841174153E+02  0.00000000000E+00 0.  1.
</event>
<event>
 7    1  0.4994895E-011  0.5052885E+02  0.7816164E-02  0.1300439E+00
        -11   -1    0    0    0    0  0.00000000000E+00  0.00000000000E+00  0.45593999997E+02  0.45594000000E+02  0.51100000000E-03 0. -1.
         11   -1    0    0    0    0 -0.00000000000E+00 -0.00000000000E+00 -0.45593999997E+02  0.45594000000E+02  0.51100000000E-03 0.  1.
    9900012    2    1    2    0    0 -0.16601021750E+02  0.36914109299E+02 -0.38627353589E+01  0.50528854498E+02  0.29999983732E+02 0.  0.
        -12    1    1    2    0    0  0.16601021750E+02 -0.36914109299E+02  0.38627353589E+01  0.40659145502E+02  0.00000000000E+00 0.  1.
         11    1    3    3    0    0 -0.10333098644E+01  0.26877790093E+02  0.54922592364E+01  0.27452654541E+02  0.51100000000E-03 0. -1.
        -11    1    3    3    0    0 -0.63931369895E+01  0.46385156516E+01 -0.95961897595E+01  0.12428792627E+02  0.51100000000E-03 0.  1.
        -12    1    3    3    0    0 -0.91745748961E+01  0.53978035548E+01  0.24119516423E+00  0.10647407330E+02  0.00000000000E+00 0.  1.
</event>
<event>
 7    1  0.4994895E-011  0.5052884E+02  0.7816164E-02  0.1300439E+00
        -11   -1    0    0    0    0  0.00000000000E+00  0.00000000000E+00  0.45593999997E+02  0.45594000000E+02  0.51100000000E-03 0. -1.
         11   -1    0    0    0    0 -0.00000000000E+00 -0.00000000000E+00 -0.45593999997E+02  0.45594000000E+02  0.51100000000E-03 0.  1.
    9900012    2    1    2    0    0  0.50382959577E+01  0.39956322607E+02 -0.55924234115E+01  0.50528839383E+02  0.29999937790E+02 0.  0.
        -12    1    1    2    0    0 -0.50382959577E+01 -0.39956322607E+02  0.55924234115E+01  0.40659160617E+02  0.00000000000E+00 0.  1.
         11    1    3    3    0    0  0.64915124611E+01  0.34532784663E+02 -0.15359651850E+02  0.38348035879E+02  0.51100000000E-03 0. -1.
        -11    1    3    3    0    0 -0.92996174787E+00 -0.24411336256E+00  0.38589101415E+01  0.39768841984E+01  0.51100000000E-03 0.  1.
        -12    1    3    3    0    0 -0.52325475558E+00  0.56676513070E+01  0.59083182969E+01  0.82039193057E+01  0.00000000000E+00 0.  1.
</event>
<event>
 7    1  0.4994895E-011  0.5052885E+02  0.7816164E-02  0.1300439E+00
        -11   -1    0    0    0    0  0.00000000000E+00  0.00000000000E+00  0.45593999997E+02  0.45594000000E+02  0.51100000000E-03 0. -1.
         11   -1    0    0    0    0 -0.00000000000E+00 -0.00000000000E+00 -0.45593999997E+02  0.45594000000E+02  0.51100000000E-03 0.  1.
    9900012    2    1    2    0    0  0.18995007284E+02 -0.30931250550E+02  0.18319760672E+02  0.50528853509E+02  0.29999980727E+02 0.  0.
        -12    1    1    2    0    0 -0.18995007284E+02  0.30931250550E+02 -0.18319760672E+02  0.40659146491E+02  0.00000000000E+00 0.  1.
         11    1    3    3    0    0  0.45687176896E+01 -0.20408250910E+01  0.15523904611E+02  0.16310418849E+02  0.51100000000E-03 0.  1.
        -11    1    3    3    0    0  0.12177379309E+02 -0.13013355394E+02 -0.57834774494E+00  0.17831726552E+02  0.51100000000E-03 0. -1.
         12    1    3    3    0    0  0.22489102847E+01 -0.15877070064E+02  0.33742038058E+01  0.16386708108E+02  0.00000000000E+00 0. -1.
</event>
<event>
 7    1  0.4994895E-011  0.5052885E+02  0.7816164E-02  0.1300439E+00
        -11   -1    0    0    0    0  0.00000000000E+00  0.00000000000E+00  0.45593999997E+02  0.45594000000E+02  0.51100000000E-03 0.  1.
         11   -1    0    0    0    0 -0.00000000000E+00 -0.00000000000E+00 -0.45593999997E+02  0.45594000000E+02  0.51100000000E-03 0. -1.
    9900012    2    1    2    0    0  0.34935043078E+02 -0.20237138476E+02 -0.48132516059E+01  0.50528850973E+02  0.29999973019E+02 0.  0.
        -12    1    1    2    0    0 -0.34935043078E+02  0.20237138476E+02  0.48132516059E+01  0.40659149027E+02  0.00000000000E+00 0.  1.
         11    1    3    3    0    0  0.62594236654E+01 -0.14534204293E+02  0.52137714608E+00  0.15833360775E+02  0.51100000000E-03 0. -1.
        -11    1    3    3    0    0  0.25728190734E+02 -0.12221726963E+00 -0.91658447226E+01  0.27312404603E+02  0.51100000000E-03 0.  1.
        -12    1    3    3    0    0  0.29474286788E+01 -0.55807169136E+01  0.38312159706E+01  0.73830855948E+01  0.00000000000E+00 0.  1.
</event>
<event>
 7    1  0.4994895E-011  0.5052886E+02  0.7816164E-02  0.1300439E+00
        -11   -1    0    0    0    0  0.00000000000E+00  0.00000000000E+00  0.45593999997E+02  0.45594000000E+02  0.51100000000E-03 0.  1.
         11   -1    0    0    0    0 -0.00000000000E+00 -0.00000000000E+00 -0.45593999997E+02  0.45594000000E+02  0.51100000000E-03 0. -1.
    9900012    2    1    2    0    0 -0.17537401961E+02 -0.26307476562E+02 -0.25564081326E+02  0.50528855338E+02  0.29999986285E+02 0.  0.
        -12    1    1    2    0    0  0.17537401961E+02  0.26307476562E+02  0.25564081326E+02  0.40659144662E+02  0.00000000000E+00 0.  1.
         11    1    3    3    0    0 -0.51170532730E+00 -0.12563407816E+01 -0.11352302932E+02  0.11433066808E+02  0.51100000000E-03 0. -1.
        -11    1    3    3    0    0 -0.16773745061E+02 -0.20015789733E+02 -0.23661771850E+01  0.26221921302E+02  0.51100000000E-03 0.  1.
        -12    1    3    3    0    0 -0.25195157203E+00 -0.50353460472E+01 -0.11845601209E+02  0.12873867228E+02  0.00000000000E+00 0.  1.
</event>
<event>
 7    1  0.4994895E-011  0.5052886E+02  0.7816164E-02  0.1300439E+00
        -11   -1    0    0    0    0  0.00000000000E+00  0.00000000000E+00  0.45593999997E+02  0.45594000000E+02  0.51100000000E-03 0.  1.
         11   -1    0    0    0    0 -0.00000000000E+00 -0.00000000000E+00 -0.45593999997E+02  0.45594000000E+02  0.51100000000E-03 0. -1.
    9900012    2    1    2    0    0 -0.25445438109E+02 -0.21836019423E+02 -0.22997466771E+02  0.50528861510E+02  0.30000005047E+02 0.  0.
        -12    1    1    2    0    0  0.25445438109E+02  0.21836019423E+02  0.22997466771E+02  0.40659138490E+02  0.00000000000E+00 0.  1.
         11    1    3    3    0    0 -0.57408161074E+01  0.13154274035E+01 -0.10154746436E+02  0.11739088307E+02  0.51100000000E-03 0. -1.
        -11    1    3    3    0    0 -0.22639924507E+01 -0.11018515970E+02  0.37231862178E+01  0.11848859518E+02  0.51100000000E-03 0.  1.
        -12    1    3    3    0    0 -0.17440629551E+02 -0.12132930857E+02 -0.16565906553E+02  0.26940913686E+02  0.00000000000E+00 0.  1.
</event>
<event>
 7    1  0.4994895E-011  0.5052887E+02  0.7816164E-02  0.1300439E+00
        -11   -1    0    0    0    0  0.00000000000E+00  0.00000000000E+00  0.45593999997E+02  0.45594000000E+02  0.51100000000E-03 0.  1.
         11   -1    0    0    0    0 -0.00000000000E+00 -0.00000000000E+00 -0.45593999997E+02  0.45594000000E+02  0.51100000000E-03 0. -1.
    9900012    2    1    2    0    0  0.20924244100E+02  0.77800810807E+01 -0.33982518834E+02  0.50528865244E+02  0.30000016396E+02 0.  0.
        -12    1    1    2    0    0 -0.20924244100E+02 -0.77800810807E+01  0.33982518834E+02  0.40659134756E+02  0.00000000000E+00 0.  1.
         11    1    3    3    0    0  0.78400997265E+01  0.29352180620E+00 -0.17356845907E+02  0.19047661770E+02  0.51100000000E-03 0. -1.
        -11    1    3    3    0    0  0.12290448419E+01  0.82710361382E+00  0.53982910348E+01  0.55978744152E+01  0.51100000000E-03 0.  1.
        -12    1    3    3    0    0  0.11855099532E+02  0.66594556607E+01 -0.22023963961E+02  0.25883329059E+02  0.00000000000E+00 0.  1.
</event>
<event>
 7    1  0.4994895E-011  0.5052885E+02  0.7816164E-02  0.1300439E+00
        -11   -1    0    0    0    0  0.00000000000E+00  0.00000000000E+00  0.45593999997E+02  0.45594000000E+02  0.51100000000E-03 0.  1.
         11   -1    0    0    0    0 -0.00000000000E+00 -0.00000000000E+00 -0.45593999997E+02  0.45594000000E+02  0.51100000000E-03 0. -1.
    9900012    2    1    2    0    0  0.36793427975E+02  0.17188445553E+02 -0.19917682906E+01  0.50528854121E+02  0.29999982588E+02 0.  0.
        -12    1    1    2    0    0 -0.36793427975E+02 -0.17188445553E+02  0.19917682906E+01  0.40659145879E+02  0.00000000000E+00 0.  1.
         11    1    3    3    0    0  0.66165108931E+01 -0.14024649030E+01  0.40365282420E+00  0.67755486912E+01  0.51100000000E-03 0. -1.
        -11    1    3    3    0    0  0.25741724192E+02  0.22877844558E+02 -0.80701155698E+01  0.35371724605E+02  0.51100000000E-03 0.  1.
        -12    1    3    3    0    0  0.44351928900E+01 -0.42869341022E+01  0.56746944550E+01  0.83815808250E+01  0.00000000000E+00 0.  1.
</event>
<event>
 7    1  0.4994895E-011  0.5052887E+02  0.7816164E-02  0.1300439E+00
        -11   -1    0    0    0    0  0.00000000000E+00  0.00000000000E+00  0.45593999997E+02  0.45594000000E+02  0.51100000000E-03 0. -1.
         11   -1    0    0    0    0 -0.00000000000E+00 -0.00000000000E+00 -0.45593999997E+02  0.45594000000E+02  0.51100000000E-03 0.  1.
    9900012    2    1    2    0    0 -0.28171343951E+01 -0.17590303848E+02 -0.36548737313E+02  0.50528865297E+02  0.30000016556E+02 0.  0.
        -12    1    1    2    0    0  0.28171343951E+01  0.17590303848E+02  0.36548737313E+02  0.40659134703E+02  0.00000000000E+00 0.  1.
         11    1    3    3    0    0 -0.62679317681E+01 -0.20942309710E+02 -0.24740494709E+02  0.33014532911E+02  0.51100000000E-03 0. -1.
        -11    1    3    3    0    0 -0.54373179789E+00  0.65775120932E+01 -0.10172270876E+02  0.12125774393E+02  0.51100000000E-03 0.  1.
         12    1    3    3    0    0  0.39945291708E+01 -0.32255062312E+01 -0.16359717279E+01  0.53885579925E+01  0.00000000000E+00 0. -1.
</event>
<event>
 7    1  0.4994895E-011  0.5052886E+02  0.7816164E-02  0.1300439E+00
        -11   -1    0    0    0    0  0.00000000000E+00  0.00000000000E+00  0.45593999997E+02  0.45594000000E+02  0.51100000000E-03 0.  1.
         11   -1    0    0    0    0 -0.00000000000E+00 -0.00000000000E+00 -0.45593999997E+02  0.45594000000E+02  0.51100000000E-03 0. -1.
    9900012    2    1    2    0    0 -0.25411499881E+02 -0.89415760833E+01 -0.30454384208E+02  0.50528860479E+02  0.30000001913E+02 0.  0.
        -12    1    1    2    0    0  0.25411499881E+02  0.89415760833E+01  0.30454384208E+02  0.40659139521E+02  0.00000000000E+00 0.  1.
         11    1    3    3    0    0 -0.13475396598E+02 -0.10128992839E+02 -0.15113927331E+02  0.22640971910E+02  0.51100000000E-03 0. -1.
        -11    1    3    3    0    0 -0.16077254896E+02  0.57979481411E+01 -0.11399767662E+02  0.20543831936E+02  0.51100000000E-03 0.  1.
        -12    1    3    3    0    0  0.41411516123E+01 -0.46105313858E+01 -0.39406892155E+01  0.73440566330E+01  0.00000000000E+00 0.  1.
</event>
<event>
 7    1  0.4994895E-011  0.5052885E+02  0.7816164E-02  0.1300439E+00
        -11   -1    0    0    0    0  0.00000000000E+00  0.00000000000E+00  0.45593999997E+02  0.45594000000E+02  0.51100000000E-03 0.  1.
         11   -1    0    0    0    0 -0.00000000000E+00 -0.00000000000E+00 -0.45593999997E+02  0.45594000000E+02  0.51100000000E-03 0. -1.
    9900012    2    1    2    0    0  0.93910923883E+01  0.31619426281E+02 -0.23773636904E+02  0.50528849170E+02  0.29999967536E+02 0.  0.
        -12    1    1    2    0    0 -0.93910923883E+01 -0.31619426281E+02  0.23773636904E+02  0.40659150830E+02  0.00000000000E+00 0.  1.
         11    1    3    3    0    0  0.58449634178E+01  0.34849658963E+02 -0.25463301053E+02  0.43555045953E+02  0.51100000000E-03 0. -1.
        -11    1    3    3    0    0 -0.11565980191E+01 -0.11202143692E+01  0.34062633374E+00  0.16457903181E+01  0.51100000000E-03 0.  1.
         12    1    3    3    0    0  0.47027269896E+01 -0.21100183126E+01  0.13490378153E+01  0.53280128983E+01  0.00000000000E+00 0. -1.
</event>
<event>
 7    1  0.4994895E-011  0.5052886E+02  0.7816164E-02  0.1300439E+00
        -11   -1    0    0    0    0  0.00000000000E+00  0.00000000000E+00  0.45593999997E+02  0.45594000000E+02  0.51100000000E-03 0.  1.
         11   -1    0    0    0    0 -0.00000000000E+00 -0.00000000000E+00 -0.45593999997E+02  0.45594000000E+02  0.51100000000E-03 0. -1.
    9900012    2    1    2    0    0  0.20898204702E+02  0.43604339487E+01 -0.34603723186E+02  0.50528855859E+02  0.29999987868E+02 0.  0.
        -12    1    1    2    0    0 -0.20898204702E+02 -0.43604339487E+01  0.34603723186E+02  0.40659144141E+02  0.00000000000E+00 0.  1.
         11    1    3    3    0    0  0.11861832533E+02  0.56549275124E+01 -0.33047471621E+02  0.35564260951E+02  0.51100000000E-03 0. -1.
        -11    1    3    3    0    0  0.14376638468E+01  0.33230423741E+01  0.32427224701E+01  0.48605284934E+01  0.51100000000E-03 0.  1.
         12    1    3    3    0    0  0.75987083227E+01 -0.46175359378E+01 -0.47989740345E+01  0.10104066414E+02  0.00000000000E+00 0. -1.
</event>
<event>
 7    1  0.4994895E-011  0.5052886E+02  0.7816164E-02  0.1300439E+00
        -11   -1    0    0    0    0  0.00000000000E+00  0.00000000000E+00  0.45593999997E+02  0.45594000000E+02  0.51100000000E-03 0.  1.
         11   -1    0    0    0    0 -0.00000000000E+00 -0.00000000000E+00 -0.45593999997E+02  0.45594000000E+02  0.51100000000E-03 0. -1.
    9900012    2    1    2    0    0 -0.25096870254E+02  0.19354077379E+02 -0.25470226724E+02  0.50528860103E+02  0.30000000770E+02 0.  0.
        -12    1    1    2    0    0  0.25096870254E+02 -0.19354077379E+02  0.25470226724E+02  0.40659139897E+02  0.00000000000E+00 0.  1.
         11    1    3    3    0    0 -0.15193948514E+02 -0.33207336007E+01 -0.60748837169E+01  0.16696932519E+02  0.51100000000E-03 0.  1.
        -11    1    3    3    0    0 -0.10370876716E+02  0.19219923567E+02 -0.20717945236E+02  0.30103053016E+02  0.51100000000E-03 0. -1.
        -12    1    3    3    0    0  0.46795497599E+00  0.34548874125E+01  0.13226022294E+01  0.37288745688E+01  0.00000000000E+00 0.  1.
</event>
<event>
 7    1  0.4994895E-011  0.5052886E+02  0.7816164E-02  0.1300439E+00
        -11   -1    0    0    0    0  0.00000000000E+00  0.00000000000E+00  0.45593999997E+02  0.45594000000E+02  0.51100000000E-03 0.  1.
         11   -1    0    0    0    0 -0.00000000000E+00 -0.00000000000E+00 -0.45593999997E+02  0.45594000000E+02  0.51100000000E-03 0. -1.
    9900012    2    1    2    0    0 -0.17106111094E+02 -0.35947680906E+02 -0.82650427295E+01  0.50528859200E+02  0.29999998024E+02 0.  0.
        -12    1    1    2    0    0  0.17106111094E+02  0.35947680906E+02  0.82650427295E+01  0.40659140800E+02  0.00000000000E+00 0.  1.
         11    1    3    3    0    0 -0.11092432305E+02 -0.11243073589E+02 -0.99111565480E+00  0.15825014018E+02  0.51100000000E-03 0. -1.
        -11    1    3    3    0    0  0.65310468607E+01 -0.10082564075E+02  0.36515048430E+01  0.12555722173E+02  0.51100000000E-03 0.  1.
        -12    1    3    3    0    0 -0.12544725650E+02 -0.14622043242E+02 -0.10925431918E+02  0.22148123008E+02  0.00000000000E+00 0.  1.
</event>
<event>
 7    1  0.4994895E-011  0.5052886E+02  0.7816164E-02  0.1300439E+00
        -11   -1    0    0    0    0  0.00000000000E+00  0.00000000000E+00  0.45593999997E+02  0.45594000000E+02  0.51100000000E-03 0. -1.
         11   -1    0    0    0    0 -0.00000000000E+00 -0.00000000000E+00 -0.45593999997E+02  0.45594000000E+02  0.51100000000E-03 0.  1.
    9900012    2    1    2    0    0  0.19846911109E+02  0.31610702038E+02  0.16125416875E+02  0.50528862856E+02  0.30000009138E+02 0.  0.
        -12    1    1    2    0    0 -0.19846911109E+02 -0.31610702038E+02 -0.16125416875E+02  0.40659137144E+02  0.00000000000E+00 0.  1.
         11    1    3    3    0    0  0.67415390647E+01  0.20265387116E+02  0.21142685725E+02  0.30052411281E+02  0.51100000000E-03 0. -1.
        -11    1    3    3    0    0  0.44966374750E+01  0.69445595477E+01 -0.67209248552E+01  0.10659150391E+02  0.51100000000E-03 0.  1.
         12    1    3    3    0    0  0.86087345694E+01  0.44007553738E+01  0.17036560054E+01  0.98173011837E+01  0.00000000000E+00 0. -1.
</event>
<event>
 7    1  0.4994895E-011  0.5052887E+02  0.7816164E-02  0.1300439E+00
        -11   -1    0    0    0    0  0.00000000000E+00  0.00000000000E+00  0.45593999997E+02  0.45594000000E+02  0.51100000000E-03 0.  1.
         11   -1    0    0    0    0 -0.00000000000E+00 -0.00000000000E+00 -0.45593999997E+02  0.45594000000E+02  0.51100000000E-03 0. -1.
    9900012    2    1    2    0    0  0.12651303432E+02  0.38615667844E+02  0.13927903981E+01  0.50528866380E+02  0.30000019850E+02 0.  0.
        -12    1    1    2    0    0 -0.12651303432E+02 -0.38615667844E+02 -0.13927903981E+01  0.40659133620E+02  0.00000000000E+00 0.  1.
         11    1    3    3    0    0  0.83696291740E+01  0.28679882158E+02  0.56554671924E+00  0.29881535711E+02  0.51100000000E-03 0. -1.
        -11    1    3    3    0    0  0.14295256852E+01 -0.17106249786E+01  0.68682324326E+01  0.72209693609E+01  0.51100000000E-03 0.  1.
         12    1    3    3    0    0  0.28521485726E+01  0.11646410665E+02 -0.60409887538E+01  0.13426361308E+02  0.00000000000E+00 0. -1.
</event>
<event>
 7    1  0.4994895E-011  0.5052885E+02  0.7816164E-02  0.1300439E+00
        -11   -1    0    0    0    0  0.00000000000E+00  0.00000000000E+00  0.45593999997E+02  0.45594000000E+02  0.51100000000E-03 0. -1.
         11   -1    0    0    0    0 -0.00000000000E+00 -0.00000000000E+00 -0.45593999997E+02  0.45594000000E+02  0.51100000000E-03 0.  1.
    9900012    2    1    2    0    0  0.11862341500E+02 -0.37980178719E+02 -0.83640490720E+01  0.50528850498E+02  0.29999971572E+02 0.  0.
        -12    1    1    2    0    0 -0.11862341500E+02  0.37980178719E+02  0.83640490720E+01  0.40659149502E+02  0.00000000000E+00 0.  1.
         11    1    3    3    0    0 -0.15996367140E+01 -0.18360411740E+02  0.43435791678E+01  0.18934894695E+02  0.51100000000E-03 0. -1.
        -11    1    3    3    0    0  0.95571946832E+01 -0.63945335822E+01 -0.13558417191E+02  0.17778096268E+02  0.51100000000E-03 0.  1.
        -12    1    3    3    0    0  0.39047835306E+01 -0.13225233397E+02  0.85078895085E+00  0.13815859534E+02  0.00000000000E+00 0.  1.
</event>
<event>
 7    1  0.4994895E-011  0.5052886E+02  0.7816164E-02  0.1300439E+00
        -11   -1    0    0    0    0  0.00000000000E+00  0.00000000000E+00  0.45593999997E+02  0.45594000000E+02  0.51100000000E-03 0.  1.
         11   -1    0    0    0    0 -0.00000000000E+00 -0.00000000000E+00 -0.45593999997E+02  0.45594000000E+02  0.51100000000E-03 0. -1.
    9900012    2    1    2    0    0  0.32061126777E+02  0.18444306866E+02 -0.16883651179E+02  0.50528856095E+02  0.29999988586E+02 0.  0.
        -12    1    1    2    0    0 -0.32061126777E+02 -0.18444306866E+02  0.16883651179E+02  0.40659143905E+02  0.00000000000E+00 0.  1.
         11    1    3    3    0    0 -0.65550799737E+00  0.10487014335E+02 -0.93206750621E+01  0.14045716225E+02  0.51100000000E-03 0.  1.
        -11    1    3    3    0    0  0.21411336603E+02  0.45857103363E+01  0.97781171064E+00  0.21918717809E+02  0.51100000000E-03 0. -1.
         12    1    3    3    0    0  0.11305298171E+02  0.33715821952E+01 -0.85407878279E+01  0.14564422061E+02  0.00000000000E+00 0. -1.
</event>
<event>
 7    1  0.4994895E-011  0.5052892E+02  0.7816164E-02  0.1300439E+00
        -11   -1    0    0    0    0  0.00000000000E+00  0.00000000000E+00  0.45593999997E+02  0.45594000000E+02  0.51100000000E-03 0.  1.
         11   -1    0    0    0    0 -0.00000000000E+00 -0.00000000000E+00 -0.45593999997E+02  0.45594000000E+02  0.51100000000E-03 0. -1.
    9900012    2    1    2    0    0  0.21333678809E+02  0.33791120273E+02 -0.74963370581E+01  0.50528920692E+02  0.30000184936E+02 0.  0.
        -12    1    1    2    0    0 -0.21333678809E+02 -0.33791120273E+02  0.74963370581E+01  0.40659079308E+02  0.00000000000E+00 0.  1.
         11    1    3    3    0    0  0.21766328702E+01  0.25033589756E+02 -0.79817983844E+01  0.26365269815E+02  0.51100000000E-03 0. -1.
        -11    1    3    3    0    0  0.12150961403E+02  0.52635091709E+01  0.60499721468E+01  0.14558590421E+02  0.51100000000E-03 0.  1.
        -12    1    3    3    0    0  0.70060845356E+01  0.34940213468E+01 -0.55645108205E+01  0.96050604560E+01  0.00000000000E+00 0.  1.
</event>
<event>
 7    1  0.4994895E-011  0.5052886E+02  0.7816164E-02  0.1300439E+00
        -11   -1    0    0    0    0  0.00000000000E+00  0.00000000000E+00  0.45593999997E+02  0.45594000000E+02  0.51100000000E-03 0.  1.
         11   -1    0    0    0    0 -0.00000000000E+00 -0.00000000000E+00 -0.45593999997E+02  0.45594000000E+02  0.51100000000E-03 0. -1.
    9900012    2    1    2    0    0 -0.27667118288E+01  0.95244569391E-01 -0.40564787662E+02  0.50528858790E+02  0.29999996778E+02 0.  0.
        -12    1    1    2    0    0  0.27667118288E+01 -0.95244569391E-01  0.40564787662E+02  0.40659141210E+02  0.00000000000E+00 0.  1.
         11    1    3    3    0    0  0.11235635101E+02 -0.77606078827E+00 -0.14405782471E+02  0.18285741312E+02  0.51100000000E-03 0. -1.
        -11    1    3    3    0    0 -0.15856479802E+02 -0.13759102815E+01 -0.22637657985E+02  0.27672814098E+02  0.51100000000E-03 0.  1.
         12    1    3    3    0    0  0.18541328715E+01  0.22472156392E+01 -0.35213472065E+01  0.45703033798E+01  0.00000000000E+00 0. -1.
</event>
<event>
 7    1  0.4994895E-011  0.5052886E+02  0.7816164E-02  0.1300439E+00
        -11   -1    0    0    0    0  0.00000000000E+00  0.00000000000E+00  0.45593999997E+02  0.45594000000E+02  0.51100000000E-03 0.  1.
         11   -1    0    0    0    0 -0.00000000000E+00 -0.00000000000E+00 -0.45593999997E+02  0.45594000000E+02  0.51100000000E-03 0. -1.
    9900012    2    1    2    0    0 -0.30290951177E+01 -0.25213918262E+02 -0.31752924690E+02  0.50528864277E+02  0.30000013457E+02 0.  0.
        -12    1    1    2    0    0  0.30290951177E+01  0.25213918262E+02  0.31752924690E+02  0.40659135723E+02  0.00000000000E+00 0.  1.
         11    1    3    3    0    0  0.16681047091E+00 -0.10179058594E+02 -0.32965858929E+02  0.34502013199E+02  0.51100000000E-03 0. -1.
        -11    1    3    3    0    0 -0.30626076055E+01 -0.58778803251E+01  0.17440251650E+01  0.68535149010E+01  0.51100000000E-03 0.  1.
         12    1    3    3    0    0 -0.13329798312E+00 -0.91569793434E+01 -0.53109092534E+00  0.91733361772E+01  0.00000000000E+00 0. -1.
</event>
<event>
 7    1  0.4994895E-011  0.5052885E+02  0.7816164E-02  0.1300439E+00
        -11   -1    0    0    0    0  0.00000000000E+00  0.00000000000E+00  0.45593999997E+02  0.45594000000E+02  0.51100000000E-03 0. -1.
         11   -1    0    0    0    0 -0.00000000000E+00 -0.00000000000E+00 -0.45593999997E+02  0.45594000000E+02  0.51100000000E-03 0.  1.
    9900012    2    1    2    0    0  0.17868170321E+02 -0.62358821535E+00  0.36517199566E+02  0.50528852972E+02  0.29999979095E+02 0.  0.
        -12    1    1    2    0    0 -0.17868170321E+02  0.62358821535E+00 -0.36517199566E+02  0.40659147028E+02  0.00000000000E+00 0.  1.
         11    1    3    3    0    0  0.11326068200E+02  0.69621349587E+01  0.15475248754E+02  0.20401825122E+02  0.51100000000E-03 0. -1.
        -11    1    3    3    0    0 -0.55688119758E+01 -0.60947482217E+01  0.13369270973E+02  0.15712893728E+02  0.51100000000E-03 0.  1.
        -12    1    3    3    0    0  0.12110914097E+02 -0.14909749524E+01  0.76726798391E+01  0.14414134122E+02  0.00000000000E+00 0.  1.
</event>
<event>
 7    1  0.4994895E-011  0.5052885E+02  0.7816164E-02  0.1300439E+00
        -11   -1    0    0    0    0  0.00000000000E+00  0.00000000000E+00  0.45593999997E+02  0.45594000000E+02  0.51100000000E-03 0.  1.
         11   -1    0    0    0    0 -0.00000000000E+00 -0.00000000000E+00 -0.45593999997E+02  0.45594000000E+02  0.51100000000E-03 0. -1.
    9900012    2    1    2    0    0 -0.37559575206E+02 -0.14267644872E+02 -0.62353031501E+01  0.50528851150E+02  0.29999973555E+02 0.  0.
        -12    1    1    2    0    0  0.37559575206E+02  0.14267644872E+02  0.62353031501E+01  0.40659148850E+02  0.00000000000E+00 0.  1.
         11    1    3    3    0    0  0.22568190298E+01 -0.11788337476E+01 -0.60363790161E+01  0.65513932125E+01  0.51100000000E-03 0. -1.
        -11    1    3    3    0    0 -0.30147810702E+02 -0.15425391174E+02  0.14443803974E+01  0.33895713859E+02  0.51100000000E-03 0.  1.
         12    1    3    3    0    0 -0.96685835336E+01  0.23365800498E+01 -0.16433045314E+01  0.10081744078E+02  0.00000000000E+00 0. -1.
</event>
<event>
 7    1  0.4994895E-011  0.5052887E+02  0.7816164E-02  0.1300439E+00
        -11   -1    0    0    0    0  0.00000000000E+00  0.00000000000E+00  0.45593999997E+02  0.45594000000E+02  0.51100000000E-03 0.  1.
         11   -1    0    0    0    0 -0.00000000000E+00 -0.00000000000E+00 -0.45593999997E+02  0.45594000000E+02  0.51100000000E-03 0. -1.
    9900012    2    1    2    0    0 -0.14850793385E+02 -0.20476312083E+02 -0.31832998780E+02  0.50528865331E+02  0.30000016660E+02 0.  0.
        -12    1    1    2    0    0  0.14850793385E+02  0.20476312083E+02  0.31832998780E+02  0.40659134669E+02  0.00000000000E+00 0.  1.
         11    1    3    3    0    0  0.88976402335E+00 -0.10463305990E+01 -0.73628772786E+01  0.74898898403E+01  0.51100000000E-03 0. -1.
        -11    1    3    3    0    0 -0.26738039091E+01 -0.61277144955E+01  0.48725656536E+01  0.82728476713E+01  0.51100000000E-03 0.  1.
        -12    1    3    3    0    0 -0.13066753499E+02 -0.13302266989E+02 -0.29342687155E+02  0.34766127819E+02  0.00000000000E+00 0.  1.
</event>
<event>
 7    1  0.4994895E-011  0.5052877E+02  0.7816164E-02  0.1300439E+00
        -11   -1    0    0    0    0  0.00000000000E+00  0.00000000000E+00  0.45593999997E+02  0.45594000000E+02  0.51100000000E-03 0. -1.
         11   -1    0    0    0    0 -0.00000000000E+00 -0.00000000000E+00 -0.45593999997E+02  0.45594000000E+02  0.51100000000E-03 0.  1.
    9900012    2    1    2    0    0  0.16568607725E+01 -0.38430930515E+02  0.13171613051E+02  0.50528769827E+02  0.29999726365E+02 0.  0.
        -12    1    1    2    0    0 -0.16568607725E+01  0.38430930515E+02 -0.13171613051E+02  0.40659230173E+02  0.00000000000E+00 0.  1.
         11    1    3    3    0    0 -0.35965714033E+01 -0.20444283750E+02  0.60361343320E+00  0.20767002994E+02  0.51100000000E-03 0. -1.
        -11    1    3    3    0    0  0.92910789178E+01 -0.21472888688E+01  0.69962560687E+00  0.95616145704E+01  0.51100000000E-03 0.  1.
        -12    1    3    3    0    0 -0.40376467420E+01 -0.15839357897E+02  0.11868374010E+02  0.20200152263E+02  0.00000000000E+00 0.  1.
</event>
<event>
 7    1  0.5466563E-011  0.5052888E+02  0.7816164E-02  0.1300439E+00
        -11   -1    0    0    0    0  0.00000000000E+00  0.00000000000E+00  0.45593999997E+02  0.45594000000E+02  0.51100000000E-03 0.  1.
         11   -1    0    0    0    0 -0.00000000000E+00 -0.00000000000E+00 -0.45593999997E+02  0.45594000000E+02  0.51100000000E-03 0. -1.
    9900012    2    1    2    0    0  0.35027589040E+02  0.22148869306E+01 -0.20526238961E+02  0.50528877974E+02  0.30000055090E+02 0.  0.
        -12    1    1    2    0    0 -0.35027589040E+02 -0.22148869306E+01  0.20526238961E+02  0.40659122026E+02  0.00000000000E+00 0.  1.
         11    1    3    3    0    0  0.21943167682E+02  0.23686272979E+01 -0.15406244163E+01  0.22124342410E+02  0.51100000000E-03 0.  1.
        -11    1    3    3    0    0 -0.37806733862E+01 -0.17386156364E+01 -0.31907796179E+01  0.52437916068E+01  0.51100000000E-03 0. -1.
         12    1    3    3    0    0  0.16865094744E+02  0.15848752690E+01 -0.15794834926E+02  0.23160743958E+02  0.00000000000E+00 0. -1.
</event>
<event>
 7    1  0.4994895E-011  0.5052890E+02  0.7816164E-02  0.1300439E+00
        -11   -1    0    0    0    0  0.00000000000E+00  0.00000000000E+00  0.45593999997E+02  0.45594000000E+02  0.51100000000E-03 0.  1.
         11   -1    0    0    0    0 -0.00000000000E+00 -0.00000000000E+00 -0.45593999997E+02  0.45594000000E+02  0.51100000000E-03 0. -1.
    9900012    2    1    2    0    0 -0.11521750311E+02  0.23767916389E+02 -0.30911132137E+02  0.50528896841E+02  0.30000112438E+02 0.  0.
        -12    1    1    2    0    0  0.11521750311E+02 -0.23767916389E+02  0.30911132137E+02  0.40659103159E+02  0.00000000000E+00 0.  1.
         11    1    3    3    0    0  0.15022514623E+01  0.22811400810E+01  0.30268337583E+00  0.27480860635E+01  0.51100000000E-03 0. -1.
        -11    1    3    3    0    0 -0.21441586918E+01  0.17608580010E+02 -0.31584083883E+02  0.36224492563E+02  0.51100000000E-03 0.  1.
        -12    1    3    3    0    0 -0.10879843082E+02  0.38781962971E+01  0.37026836989E+00  0.11556318214E+02  0.00000000000E+00 0.  1.
</event>
<event>
 7    1  0.4994895E-011  0.5052886E+02  0.7816164E-02  0.1300439E+00
        -11   -1    0    0    0    0  0.00000000000E+00  0.00000000000E+00  0.45593999997E+02  0.45594000000E+02  0.51100000000E-03 0.  1.
         11   -1    0    0    0    0 -0.00000000000E+00 -0.00000000000E+00 -0.45593999997E+02  0.45594000000E+02  0.51100000000E-03 0. -1.
    9900012    2    1    2    0    0  0.21235530189E+02  0.14899685542E+01 -0.34640985330E+02  0.50528860642E+02  0.30000002408E+02 0.  0.
        -12    1    1    2    0    0 -0.21235530189E+02 -0.14899685542E+01  0.34640985330E+02  0.40659139358E+02  0.00000000000E+00 0.  1.
         11    1    3    3    0    0  0.11535143693E+02  0.12112351483E+02 -0.24879567834E+02  0.29979351133E+02  0.51100000000E-03 0. -1.
        -11    1    3    3    0    0  0.22371898513E+01 -0.10163009233E+02 -0.41609755364E+01  0.11207385635E+02  0.51100000000E-03 0.  1.
         12    1    3    3    0    0  0.74631966445E+01 -0.45937369658E+00 -0.56004419596E+01  0.93421238747E+01  0.00000000000E+00 0. -1.
</event>
<event>
 7    1  0.4994895E-011  0.5052886E+02  0.7816164E-02  0.1300439E+00
        -11   -1    0    0    0    0  0.00000000000E+00  0.00000000000E+00  0.45593999997E+02  0.45594000000E+02  0.51100000000E-03 0. -1.
         11   -1    0    0    0    0 -0.00000000000E+00 -0.00000000000E+00 -0.45593999997E+02  0.45594000000E+02  0.51100000000E-03 0.  1.
    9900012    2    1    2    0    0 -0.34614863395E+02  0.21322997229E+02  0.55366014117E+00  0.50528861811E+02  0.30000005962E+02 0.  0.
        -12    1    1    2    0    0  0.34614863395E+02 -0.21322997229E+02 -0.55366014117E+00  0.40659138189E+02  0.00000000000E+00 0.  1.
         11    1    3    3    0    0 -0.18664009132E+01 -0.51868502468E+01  0.47431813836E+01  0.72721824613E+01  0.51100000000E-03 0.  1.
        -11    1    3    3    0    0 -0.23915087444E+02  0.17062667267E+02  0.81329082669E+00  0.29389240615E+02  0.51100000000E-03 0. -1.
        -12    1    3    3    0    0 -0.88333750381E+01  0.94471802086E+01 -0.50028120691E+01  0.13867438735E+02  0.00000000000E+00 0.  1.
</event>
<event>
 7    1  0.4994895E-011  0.5052886E+02  0.7816164E-02  0.1300439E+00
        -11   -1    0    0    0    0  0.00000000000E+00  0.00000000000E+00  0.45593999997E+02  0.45594000000E+02  0.51100000000E-03 0.  1.
         11   -1    0    0    0    0 -0.00000000000E+00 -0.00000000000E+00 -0.45593999997E+02  0.45594000000E+02  0.51100000000E-03 0. -1.
    9900012    2    1    2    0    0 -0.25673276490E+02 -0.27765640109E+02 -0.14937133912E+02  0.50528857536E+02  0.29999992967E+02 0.  0.
        -12    1    1    2    0    0  0.25673276490E+02  0.27765640109E+02  0.14937133912E+02  0.40659142464E+02  0.00000000000E+00 0.  1.
         11    1    3    3    0    0 -0.45153972281E+00 -0.41132719083E+01 -0.63420950783E+01  0.75726523858E+01  0.51100000000E-03 0. -1.
        -11    1    3    3    0    0  0.42059508462E+01  0.48952569698E-01 -0.17499038511E+01  0.45557197701E+01  0.51100000000E-03 0.  1.
        -12    1    3    3    0    0 -0.29427687613E+02 -0.23701320770E+02 -0.68451349821E+01  0.38400485380E+02  0.00000000000E+00 0.  1.
</event>
<event>
 7    1  0.4994895E-011  0.5052886E+02  0.7816164E-02  0.1300439E+00
        -11   -1    0    0    0    0  0.00000000000E+00  0.00000000000E+00  0.45593999997E+02  0.45594000000E+02  0.51100000000E-03 0. -1.
         11   -1    0    0    0    0 -0.00000000000E+00 -0.00000000000E+00 -0.45593999997E+02  0.45594000000E+02  0.51100000000E-03 0.  1.
    9900012    2    1    2    0    0  0.13676643727E+02 -0.94955161065E+01  0.37093804290E+02  0.50528859251E+02  0.29999998179E+02 0.  0.
        -12    1    1    2    0    0 -0.13676643727E+02  0.94955161065E+01 -0.37093804290E+02  0.40659140749E+02  0.00000000000E+00 0.  1.
         11    1    3    3    0    0  0.12348560508E+02 -0.89735897248E+01  0.23702582524E+02  0.28192635168E+02  0.51100000000E-03 0. -1.
        -11    1    3    3    0    0 -0.40667568806E+01  0.25363367297E+01 -0.24078221639E+01  0.53636856141E+01  0.51100000000E-03 0.  1.
        -12    1    3    3    0    0  0.53948400996E+01 -0.30582631114E+01  0.15799043930E+02  0.16972538468E+02  0.00000000000E+00 0.  1.
</event>
<event>
 7    1  0.4994895E-011  0.5052886E+02  0.7816164E-02  0.1300439E+00
        -11   -1    0    0    0    0  0.00000000000E+00  0.00000000000E+00  0.45593999997E+02  0.45594000000E+02  0.51100000000E-03 0.  1.
         11   -1    0    0    0    0 -0.00000000000E+00 -0.00000000000E+00 -0.45593999997E+02  0.45594000000E+02  0.51100000000E-03 0. -1.
    9900012    2    1    2    0    0  0.11434061530E+01  0.34146806799E+02 -0.22042100933E+02  0.50528855817E+02  0.29999987740E+02 0.  0.
        -12    1    1    2    0    0 -0.11434061530E+01 -0.34146806799E+02  0.22042100933E+02  0.40659144183E+02  0.00000000000E+00 0.  1.
         11    1    3    3    0    0 -0.58519239012E+01  0.16367202102E+02 -0.33858591314E+00  0.17385193662E+02  0.51100000000E-03 0. -1.
        -11    1    3    3    0    0  0.59309229645E+01 -0.88405752065E+00 -0.30208815592E+01  0.67143972601E+01  0.51100000000E-03 0.  1.
         12    1    3    3    0    0  0.10644070897E+01  0.18663662218E+02 -0.18682633460E+02  0.26429264894E+02  0.00000000000E+00 0. -1.
</event>
<event>
 7    1  0.4994895E-011  0.5052887E+02  0.7816164E-02  0.1300439E+00
        -11   -1    0    0    0    0  0.00000000000E+00  0.00000000000E+00  0.45593999997E+02  0.45594000000E+02  0.51100000000E-03 0.  1.
         11   -1    0    0    0    0 -0.00000000000E+00 -0.00000000000E+00 -0.45593999997E+02  0.45594000000E+02  0.51100000000E-03 0. -1.
    9900012    2    1    2    0    0  0.15223760600E+02 -0.37319065639E+02 -0.53562557976E+01  0.50528867900E+02  0.30000024469E+02 0.  0.
        -12    1    1    2    0    0 -0.15223760600E+02  0.37319065639E+02  0.53562557976E+01  0.40659132100E+02  0.00000000000E+00 0.  1.
         11    1    3    3    0    0  0.19246320824E+02 -0.13747741392E+02  0.89024112106E-01  0.23652255372E+02  0.51100000000E-03 0. -1.
        -11    1    3    3    0    0 -0.78234519278E+01 -0.15275553822E+02 -0.41813057898E+01  0.17664434975E+02  0.51100000000E-03 0.  1.
         12    1    3    3    0    0  0.38008917044E+01 -0.82957704245E+01 -0.12639741200E+01  0.92121775526E+01  0.00000000000E+00 0. -1.
</event>
<event>
 7    1  0.4994895E-011  0.5052886E+02  0.7816164E-02  0.1300439E+00
        -11   -1    0    0    0    0  0.00000000000E+00  0.00000000000E+00  0.45593999997E+02  0.45594000000E+02  0.51100000000E-03 0.  1.
         11   -1    0    0    0    0 -0.00000000000E+00 -0.00000000000E+00 -0.45593999997E+02  0.45594000000E+02  0.51100000000E-03 0. -1.
    9900012    2    1    2    0    0 -0.66252150292E+00 -0.30942664461E+02 -0.26368131504E+02  0.50528858621E+02  0.29999996264E+02 0.  0.
        -12    1    1    2    0    0  0.66252150292E+00  0.30942664461E+02  0.26368131504E+02  0.40659141379E+02  0.00000000000E+00 0.  1.
         11    1    3    3    0    0 -0.46015668531E+01 -0.13660625603E+02 -0.89407655158E+01  0.16962440793E+02  0.51100000000E-03 0. -1.
        -11    1    3    3    0    0 -0.16480022029E+01  0.16592044734E+00 -0.14993607524E+02  0.15084817126E+02  0.51100000000E-03 0.  1.
        -12    1    3    3    0    0  0.55870475531E+01 -0.17447959305E+02 -0.24337584632E+01  0.18481600702E+02  0.00000000000E+00 0.  1.
</event>
<event>
 7    1  0.4994895E-011  0.5052885E+02  0.7816164E-02  0.1300439E+00
        -11   -1    0    0    0    0  0.00000000000E+00  0.00000000000E+00  0.45593999997E+02  0.45594000000E+02  0.51100000000E-03 0.  1.
         11   -1    0    0    0    0 -0.00000000000E+00 -0.00000000000E+00 -0.45593999997E+02  0.45594000000E+02  0.51100000000E-03 0. -1.
    9900012    2    1    2    0    0  0.22808059067E+02 -0.32259882039E+02  0.96051396602E+01  0.50528852746E+02  0.29999978406E+02 0.  0.
        -12    1    1    2    0    0 -0.22808059067E+02  0.32259882039E+02 -0.96051396602E+01  0.40659147254E+02  0.00000000000E+00 0.  1.
         11    1    3    3    0    0  0.10900339630E+02 -0.12214667567E+02 -0.10170515946E+02  0.19273165352E+02  0.51100000000E-03 0. -1.
        -11    1    3    3    0    0  0.92779709543E+01 -0.94387548880E+01  0.99200344747E+01  0.16540191145E+02  0.51100000000E-03 0.  1.
         12    1    3    3    0    0  0.26297484825E+01 -0.10606459584E+02  0.98556211311E+01  0.14715496249E+02  0.00000000000E+00 0. -1.
</event>
<event>
 7    1  0.4994895E-011  0.5052882E+02  0.7816164E-02  0.1300439E+00
        -11   -1    0    0    0    0  0.00000000000E+00  0.00000000000E+00  0.45593999997E+02  0.45594000000E+02  0.51100000000E-03 0.  1.
         11   -1    0    0    0    0 -0.00000000000E+00 -0.00000000000E+00 -0.45593999997E+02  0.45594000000E+02  0.51100000000E-03 0. -1.
    9900012    2    1    2    0    0  0.10281246134E+02 -0.27428790678E+02 -0.28197979669E+02  0.50528823452E+02  0.29999889366E+02 0.  0.
        -12    1    1    2    0    0 -0.10281246134E+02  0.27428790678E+02  0.28197979669E+02  0.40659176548E+02  0.00000000000E+00 0.  1.
         11    1    3    3    0    0  0.14852308615E+02 -0.13477191366E+02 -0.11797891394E+02  0.23268347597E+02  0.51100000000E-03 0. -1.
        -11    1    3    3    0    0 -0.38863083967E+01 -0.34187050464E+01 -0.15869218620E+02  0.16692005182E+02  0.51100000000E-03 0.  1.
         12    1    3    3    0    0 -0.68475408492E+00 -0.10532894265E+02 -0.53086965568E+00  0.10568470673E+02  0.00000000000E+00 0. -1.
</event>
<event>
 7    1  0.4994895E-011  0.5052888E+02  0.7816164E-02  0.1300439E+00
        -11   -1    0    0    0    0  0.00000000000E+00  0.00000000000E+00  0.45593999997E+02  0.45594000000E+02  0.51100000000E-03 0.  1.
         11   -1    0    0    0    0 -0.00000000000E+00 -0.00000000000E+00 -0.45593999997E+02  0.45594000000E+02  0.51100000000E-03 0. -1.
    9900012    2    1    2    0    0  0.57565480914E+01  0.21608380669E+02 -0.33957388250E+02  0.50528878295E+02  0.30000056065E+02 0.  0.
        -12    1    1    2    0    0 -0.57565480914E+01 -0.21608380669E+02  0.33957388250E+02  0.40659121705E+02  0.00000000000E+00 0.  1.
         11    1    3    3    0    0 -0.82530088552E+01  0.88655223662E+01 -0.19845213735E+02  0.23249562371E+02  0.51100000000E-03 0. -1.
        -11    1    3    3    0    0  0.77475136221E+01  0.94454401680E+01 -0.84872099532E+00  0.12245841534E+02  0.51100000000E-03 0.  1.
         12    1    3    3    0    0  0.62620433246E+01  0.32974181351E+01 -0.13263453519E+02  0.15033474389E+02  0.00000000000E+00 0. -1.
</event>
<event>
 7    1  0.4994895E-011  0.5052887E+02  0.7816164E-02  0.1300439E+00
        -11   -1    0    0    0    0  0.00000000000E+00  0.00000000000E+00  0.45593999997E+02  0.45594000000E+02  0.51100000000E-03 0.  1.
         11   -1    0    0    0    0 -0.00000000000E+00 -0.00000000000E+00 -0.45593999997E+02  0.45594000000E+02  0.51100000000E-03 0. -1.
    9900012    2    1    2    0    0  0.37523425511E+02  0.44412468331E+01 -0.15014410354E+02  0.50528872442E+02  0.30000038273E+02 0.  0.
        -12    1    1    2    0    0 -0.37523425511E+02 -0.44412468331E+01  0.15014410354E+02  0.40659127558E+02  0.00000000000E+00 0.  1.
         11    1    3    3    0    0  0.37770828408E+02 -0.15463484246E-02 -0.14095043572E+02  0.40315080734E+02  0.51100000000E-03 0. -1.
        -11    1    3    3    0    0  0.17794474024E+01  0.31951767824E+01  0.35837224530E+01  0.51204154724E+01  0.51100000000E-03 0.  1.
         12    1    3    3    0    0 -0.20268502991E+01  0.12476163991E+01 -0.45030892355E+01  0.50933762355E+01  0.00000000000E+00 0. -1.
</event>
<event>
 7    1  0.4994895E-011  0.5052891E+02  0.7816164E-02  0.1300439E+00
        -11   -1    0    0    0    0  0.00000000000E+00  0.00000000000E+00  0.45593999997E+02  0.45594000000E+02  0.51100000000E-03 0.  1.
         11   -1    0    0    0    0 -0.00000000000E+00 -0.00000000000E+00 -0.45593999997E+02  0.45594000000E+02  0.51100000000E-03 0. -1.
    9900012    2    1    2    0    0  0.53230493541E+01 -0.80705674377E+01 -0.39492944800E+02  0.50528909969E+02  0.30000152341E+02 0.  0.
        -12    1    1    2    0    0 -0.53230493541E+01  0.80705674377E+01  0.39492944800E+02  0.40659090031E+02  0.00000000000E+00 0.  1.
         11    1    3    3    0    0 -0.72921798678E+01 -0.34398866417E+01 -0.20556761438E+02  0.22081420887E+02  0.51100000000E-03 0. -1.
        -11    1    3    3    0    0  0.16234848873E+02 -0.19174740537E+01 -0.16812750554E+02  0.23450279447E+02  0.51100000000E-03 0.  1.
        -12    1    3    3    0    0 -0.36196196510E+01 -0.27132067423E+01 -0.21234328076E+01  0.49972096347E+01  0.00000000000E+00 0.  1.
</event>
<event>
 7    1  0.4994895E-011  0.5052885E+02  0.7816164E-02  0.1300439E+00
        -11   -1    0    0    0    0  0.00000000000E+00  0.00000000000E+00  0.45593999997E+02  0.45594000000E+02  0.51100000000E-03 0.  1.
         11   -1    0    0    0    0 -0.00000000000E+00 -0.00000000000E+00 -0.45593999997E+02  0.45594000000E+02  0.51100000000E-03 0. -1.
    9900012    2    1    2    0    0  0.11484454664E+02 -0.15831903020E+02 -0.35645817965E+02  0.50528853543E+02  0.29999980830E+02 0.  0.
        -12    1    1    2    0    0 -0.11484454664E+02  0.15831903020E+02  0.35645817965E+02  0.40659146457E+02  0.00000000000E+00 0.  1.
         11    1    3    3    0    0 -0.44405647014E+01  0.43665773981E+01 -0.12012840073E+02  0.13531220933E+02  0.51100000000E-03 0. -1.
        -11    1    3    3    0    0  0.11073747758E+02 -0.96159597319E+01 -0.20002603032E+02  0.24803199376E+02  0.51100000000E-03 0.  1.
        -12    1    3    3    0    0  0.48512716077E+01 -0.10582520686E+02 -0.36303748594E+01  0.12194433234E+02  0.00000000000E+00 0.  1.
</event>
<event>
 7    1  0.4994895E-011  0.5052885E+02  0.7816164E-02  0.1300439E+00
        -11   -1    0    0    0    0  0.00000000000E+00  0.00000000000E+00  0.45593999997E+02  0.45594000000E+02  0.51100000000E-03 0.  1.
         11   -1    0    0    0    0 -0.00000000000E+00 -0.00000000000E+00 -0.45593999997E+02  0.45594000000E+02  0.51100000000E-03 0. -1.
    9900012    2    1    2    0    0 -0.36780210835E+02 -0.17062265323E+02 -0.30433588259E+01  0.50528845557E+02  0.29999956556E+02 0.  0.
        -12    1    1    2    0    0  0.36780210835E+02  0.17062265323E+02  0.30433588259E+01  0.40659154443E+02  0.00000000000E+00 0.  1.
         11    1    3    3    0    0 -0.25572596358E+02  0.16087505897E+01  0.16840182845E+01  0.25678428317E+02  0.51100000000E-03 0.  1.
        -11    1    3    3    0    0  0.58771884105E+00 -0.87796824428E+01 -0.32720495291E+01  0.93880000860E+01  0.51100000000E-03 0. -1.
         12    1    3    3    0    0 -0.11795333318E+02 -0.98913334703E+01 -0.14553275813E+01  0.15462417155E+02  0.00000000000E+00 0. -1.
</event>
<event>
 7    1  0.4994895E-011  0.5052885E+02  0.7816164E-02  0.1300439E+00
        -11   -1    0    0    0    0  0.00000000000E+00  0.00000000000E+00  0.45593999997E+02  0.45594000000E+02  0.51100000000E-03 0.  1.
         11   -1    0    0    0    0 -0.00000000000E+00 -0.00000000000E+00 -0.45593999997E+02  0.45594000000E+02  0.51100000000E-03 0. -1.
    9900012    2    1    2    0    0  0.98918396633E+01  0.39252362778E+02  0.38170149153E+01  0.50528854923E+02  0.29999985023E+02 0.  0.
        -12    1    1    2    0    0 -0.98918396633E+01 -0.39252362778E+02 -0.38170149153E+01  0.40659145077E+02  0.00000000000E+00 0.  1.
         11    1    3    3    0    0  0.64708918251E+01  0.32644941515E+02  0.93185370627E+01  0.34560089421E+02  0.51100000000E-03 0.  1.
        -11    1    3    3    0    0  0.42452161300E+01  0.89898394142E+01 -0.77383781060E+01  0.12598474854E+02  0.51100000000E-03 0. -1.
        -12    1    3    3    0    0 -0.82426829175E+00 -0.23824181517E+01  0.22368559587E+01  0.33702906472E+01  0.00000000000E+00 0.  1.
</event>
<event>
 7    1  0.4994895E-011  0.5052886E+02  0.7816164E-02  0.1300439E+00
        -11   -1    0    0    0    0  0.00000000000E+00  0.00000000000E+00  0.45593999997E+02  0.45594000000E+02  0.51100000000E-03 0.  1.
         11   -1    0    0    0    0 -0.00000000000E+00 -0.00000000000E+00 -0.45593999997E+02  0.45594000000E+02  0.51100000000E-03 0. -1.
    9900012    2    1    2    0    0  0.17167307829E+02  0.18186725253E+02 -0.32057638435E+02  0.50528860615E+02  0.30000002326E+02 0.  0.
        -12    1    1    2    0    0 -0.17167307829E+02 -0.18186725253E+02  0.32057638435E+02  0.40659139385E+02  0.00000000000E+00 0.  1.
         11    1    3    3    0    0  0.81537047968E+01 -0.50241769963E+01 -0.15026304998E+02  0.17818953352E+02  0.51100000000E-03 0. -1.
        -11    1    3    3    0    0  0.11834609098E+02  0.14205720400E+02 -0.11289688860E+02  0.21663737891E+02  0.51100000000E-03 0.  1.
         12    1    3    3    0    0 -0.28210060664E+01  0.90051818485E+01 -0.57416445761E+01  0.11046169372E+02  0.00000000000E+00 0. -1.
</event>
<event>
 7    1  0.4994895E-011  0.5052881E+02  0.7816164E-02  0.1300439E+00
        -11   -1    0    0    0    0  0.00000000000E+00  0.00000000000E+00  0.45593999997E+02  0.45594000000E+02  0.51100000000E-03 0. -1.
         11   -1    0    0    0    0 -0.00000000000E+00 -0.00000000000E+00 -0.45593999997E+02  0.45594000000E+02  0.51100000000E-03 0.  1.
    9900012    2    1    2    0    0 -0.21705485008E+02 -0.13186902829E+02  0.31751339121E+02  0.50528806431E+02  0.29999837628E+02 0.  0.
        -12    1    1    2    0    0  0.21705485008E+02  0.13186902829E+02 -0.31751339121E+02  0.40659193569E+02  0.00000000000E+00 0.  1.
         11    1    3    3    0    0 -0.19980182979E+02 -0.51796999912E+01  0.17100761457E+02  0.26804347531E+02  0.51100000000E-03 0. -1.
        -11    1    3    3    0    0  0.46459202906E+01 -0.10546072893E+02  0.11104271833E+02  0.16003408450E+02  0.51100000000E-03 0.  1.
        -12    1    3    3    0    0 -0.63712223198E+01  0.25388700559E+01  0.35463058306E+01  0.77210504501E+01  0.00000000000E+00 0.  1.
</event>
<event>
 7    1  0.4994895E-011  0.5052886E+02  0.7816164E-02  0.1300439E+00
        -11   -1    0    0    0    0  0.00000000000E+00  0.00000000000E+00  0.45593999997E+02  0.45594000000E+02  0.51100000000E-03 0.  1.
         11   -1    0    0    0    0 -0.00000000000E+00 -0.00000000000E+00 -0.45593999997E+02  0.45594000000E+02  0.51100000000E-03 0. -1.
    9900012    2    1    2    0    0 -0.13423264853E+02  0.32265367249E+02  0.20782867940E+02  0.50528861263E+02  0.30000004295E+02 0.  0.
        -12    1    1    2    0    0  0.13423264853E+02 -0.32265367249E+02 -0.20782867940E+02  0.40659138737E+02  0.00000000000E+00 0.  1.
         11    1    3    3    0    0 -0.21081604072E+02  0.17144842318E+02  0.55972708361E+01  0.27743631512E+02  0.51100000000E-03 0. -1.
        -11    1    3    3    0    0  0.23729222017E+01  0.39797850125E+01  0.36315287853E+01  0.58870578476E+01  0.51100000000E-03 0.  1.
         12    1    3    3    0    0  0.52854170175E+01  0.11140739918E+02  0.11554068319E+02  0.16898171904E+02  0.00000000000E+00 0. -1.
</event>
<event>
 7    1  0.4994895E-011  0.5052886E+02  0.7816164E-02  0.1300439E+00
        -11   -1    0    0    0    0  0.00000000000E+00  0.00000000000E+00  0.45593999997E+02  0.45594000000E+02  0.51100000000E-03 0.  1.
         11   -1    0    0    0    0 -0.00000000000E+00 -0.00000000000E+00 -0.45593999997E+02  0.45594000000E+02  0.51100000000E-03 0. -1.
    9900012    2    1    2    0    0 -0.13845290086E+02  0.16368250765E+02 -0.34547849134E+02  0.50528861169E+02  0.30000004010E+02 0.  0.
        -12    1    1    2    0    0  0.13845290086E+02 -0.16368250765E+02  0.34547849134E+02  0.40659138831E+02  0.00000000000E+00 0.  1.
         11    1    3    3    0    0  0.39746300935E+01  0.12781872951E+02 -0.12052698687E+02  0.18012259892E+02  0.51100000000E-03 0.  1.
        -11    1    3    3    0    0 -0.13719176729E+02  0.11751648382E+01 -0.23877052229E+02  0.27562845389E+02  0.51100000000E-03 0. -1.
        -12    1    3    3    0    0 -0.41007434504E+01  0.24112129751E+01  0.13819017823E+01  0.49537558875E+01  0.00000000000E+00 0.  1.
</event>
<event>
 7    1  0.4994895E-011  0.5052886E+02  0.7816164E-02  0.1300439E+00
        -11   -1    0    0    0    0  0.00000000000E+00  0.00000000000E+00  0.45593999997E+02  0.45594000000E+02  0.51100000000E-03 0.  1.
         11   -1    0    0    0    0 -0.00000000000E+00 -0.00000000000E+00 -0.45593999997E+02  0.45594000000E+02  0.51100000000E-03 0. -1.
    9900012    2    1    2    0    0 -0.21792226473E+02  0.24103955435E+02 -0.24438990259E+02  0.50528855307E+02  0.29999986192E+02 0.  0.
        -12    1    1    2    0    0  0.21792226473E+02 -0.24103955435E+02  0.24438990259E+02  0.40659144693E+02  0.00000000000E+00 0.  1.
         11    1    3    3    0    0 -0.70479545962E+01  0.77211133938E+00 -0.20784533515E+02  0.21960570430E+02  0.51100000000E-03 0. -1.
        -11    1    3    3    0    0 -0.85822877527E+01  0.15182244502E+02  0.71842119457E+00  0.17454865811E+02  0.51100000000E-03 0.  1.
         12    1    3    3    0    0 -0.61619841244E+01  0.81495995931E+01 -0.43728779385E+01  0.11113419066E+02  0.00000000000E+00 0. -1.
</event>
<event>
 7    1  0.4994895E-011  0.5052886E+02  0.7816164E-02  0.1300439E+00
        -11   -1    0    0    0    0  0.00000000000E+00  0.00000000000E+00  0.45593999997E+02  0.45594000000E+02  0.51100000000E-03 0. -1.
         11   -1    0    0    0    0 -0.00000000000E+00 -0.00000000000E+00 -0.45593999997E+02  0.45594000000E+02  0.51100000000E-03 0.  1.
    9900012    2    1    2    0    0  0.27320773917E+02  0.28426863652E+02  0.99324912752E+01  0.50528860222E+02  0.30000001132E+02 0.  0.
        -12    1    1    2    0    0 -0.27320773917E+02 -0.28426863652E+02 -0.99324912752E+01  0.40659139778E+02  0.00000000000E+00 0.  1.
         11    1    3    3    0    0  0.25870160284E+02  0.90145384452E+01  0.86642766619E+01  0.28733200080E+02  0.51100000000E-03 0. -1.
        -11    1    3    3    0    0  0.14290506545E+01  0.62496134495E+01 -0.40677139972E+01  0.75925062704E+01  0.51100000000E-03 0.  1.
         12    1    3    3    0    0  0.21562978362E-01  0.13162711758E+02  0.53359286106E+01  0.14203153872E+02  0.00000000000E+00 0. -1.
</event>
<event>
 7    1  0.4994895E-011  0.5052886E+02  0.7816164E-02  0.1300439E+00
        -11   -1    0    0    0    0  0.00000000000E+00  0.00000000000E+00  0.45593999997E+02  0.45594000000E+02  0.51100000000E-03 0. -1.
         11   -1    0    0    0    0 -0.00000000000E+00 -0.00000000000E+00 -0.45593999997E+02  0.45594000000E+02  0.51100000000E-03 0.  1.
    9900012    2    1    2    0    0 -0.30262036104E+02  0.27043846607E+02  0.24505599310E+01  0.50528859423E+02  0.29999998703E+02 0.  0.
        -12    1    1    2    0    0  0.30262036104E+02 -0.27043846607E+02 -0.24505599310E+01  0.40659140577E+02  0.00000000000E+00 0.  1.
         11    1    3    3    0    0 -0.76760831582E+01 -0.40744798465E+00  0.24479894557E+01  0.80672745799E+01  0.51100000000E-03 0. -1.
        -11    1    3    3    0    0 -0.11038420018E+02  0.28150254998E+02 -0.33365765783E+01  0.30420656082E+02  0.51100000000E-03 0.  1.
        -12    1    3    3    0    0 -0.11547532928E+02 -0.69896040689E+00  0.33391470536E+01  0.12040928761E+02  0.00000000000E+00 0.  1.
</event>
<event>
 7    1  0.4994895E-011  0.5052887E+02  0.7816164E-02  0.1300439E+00
        -11   -1    0    0    0    0  0.00000000000E+00  0.00000000000E+00  0.45593999997E+02  0.45594000000E+02  0.51100000000E-03 0. -1.
         11   -1    0    0    0    0 -0.00000000000E+00 -0.00000000000E+00 -0.45593999997E+02  0.45594000000E+02  0.51100000000E-03 0.  1.
    9900012    2    1    2    0    0  0.30580728074E+02 -0.13593176412E+02  0.23091328123E+02  0.50528870534E+02  0.30000032474E+02 0.  0.
        -12    1    1    2    0    0 -0.30580728074E+02  0.13593176412E+02 -0.23091328123E+02  0.40659129466E+02  0.00000000000E+00 0.  1.
         11    1    3    3    0    0  0.69008492383E+01  0.52124600990E+01 -0.19477158623E+01  0.88648213651E+01  0.51100000000E-03 0. -1.
        -11    1    3    3    0    0  0.12223633847E+02 -0.15625303346E+02  0.92233519517E+01  0.21877786693E+02  0.51100000000E-03 0.  1.
         12    1    3    3    0    0  0.11456244988E+02 -0.31803331649E+01  0.15815692033E+02  0.19786262476E+02  0.00000000000E+00 0. -1.
</event>
<event>
 7    1  0.4994895E-011  0.5052885E+02  0.7816164E-02  0.1300439E+00
        -11   -1    0    0    0    0  0.00000000000E+00  0.00000000000E+00  0.45593999997E+02  0.45594000000E+02  0.51100000000E-03 0.  1.
         11   -1    0    0    0    0 -0.00000000000E+00 -0.00000000000E+00 -0.45593999997E+02  0.45594000000E+02  0.51100000000E-03 0. -1.
    9900012    2    1    2    0    0 -0.17549136496E+02 -0.10922295703E+02 -0.35012820325E+02  0.50528851924E+02  0.29999975908E+02 0.  0.
        -12    1    1    2    0    0  0.17549136496E+02  0.10922295703E+02  0.35012820325E+02  0.40659148076E+02  0.00000000000E+00 0.  1.
         11    1    3    3    0    0 -0.11656297641E+02 -0.86653696547E+01 -0.24731482277E+02  0.28681076023E+02  0.51100000000E-03 0. -1.
        -11    1    3    3    0    0 -0.93085274368E+01  0.48158963108E+01 -0.24642859739E+01  0.10766347846E+02  0.51100000000E-03 0.  1.
         12    1    3    3    0    0  0.34156885819E+01 -0.70728223593E+01 -0.78170520732E+01  0.11081428055E+02  0.00000000000E+00 0. -1.
</event>
<event>
 7    1  0.4994895E-011  0.5052884E+02  0.7816164E-02  0.1300439E+00
        -11   -1    0    0    0    0  0.00000000000E+00  0.00000000000E+00  0.45593999997E+02  0.45594000000E+02  0.51100000000E-03 0.  1.
         11   -1    0    0    0    0 -0.00000000000E+00 -0.00000000000E+00 -0.45593999997E+02  0.45594000000E+02  0.51100000000E-03 0. -1.
    9900012    2    1    2    0    0 -0.21985220724E+02 -0.33324498142E+02  0.77003476594E+01  0.50528837924E+02  0.29999933352E+02 0.  0.
        -12    1    1    2    0    0  0.21985220724E+02  0.33324498142E+02 -0.77003476594E+01  0.40659162076E+02  0.00000000000E+00 0.  1.
         11    1    3    3    0    0 -0.29853269929E+01 -0.93866478959E+01  0.39444359749E+00  0.98578355631E+01  0.51100000000E-03 0. -1.
        -11    1    3    3    0    0  0.10527083646E+01  0.45880789171E+01 -0.10320952888E+01  0.48191165162E+01  0.51100000000E-03 0.  1.
        -12    1    3    3    0    0 -0.20052602095E+02 -0.28525929163E+02  0.83379993507E+01  0.35851885844E+02  0.00000000000E+00 0.  1.
</event>
<event>
 7    1  0.4994895E-011  0.5052886E+02  0.7816164E-02  0.1300439E+00
        -11   -1    0    0    0    0  0.00000000000E+00  0.00000000000E+00  0.45593999997E+02  0.45594000000E+02  0.51100000000E-03 0.  1.
         11   -1    0    0    0    0 -0.00000000000E+00 -0.00000000000E+00 -0.45593999997E+02  0.45594000000E+02  0.51100000000E-03 0. -1.
    9900012    2    1    2    0    0 -0.18557378754E+02  0.81578702602E+01 -0.35245400042E+02  0.50528863542E+02  0.30000011223E+02 0.  0.
        -12    1    1    2    0    0  0.18557378754E+02 -0.81578702602E+01  0.35245400042E+02  0.40659136458E+02  0.00000000000E+00 0.  1.
         11    1    3    3    0    0 -0.49788167185E+01 -0.85825045797E+01 -0.11074039238E+02  0.14868838088E+02  0.51100000000E-03 0. -1.
        -11    1    3    3    0    0 -0.21102344171E+01  0.14002181561E+02 -0.10639145572E+02  0.17711736124E+02  0.51100000000E-03 0.  1.
        -12    1    3    3    0    0 -0.11468327619E+02  0.27381932787E+01 -0.13532215232E+02  0.17948289330E+02  0.00000000000E+00 0.  1.
</event>
<event>
 7    1  0.4994895E-011  0.5052888E+02  0.7816164E-02  0.1300439E+00
        -11   -1    0    0    0    0  0.00000000000E+00  0.00000000000E+00  0.45593999997E+02  0.45594000000E+02  0.51100000000E-03 0. -1.
         11   -1    0    0    0    0 -0.00000000000E+00 -0.00000000000E+00 -0.45593999997E+02  0.45594000000E+02  0.51100000000E-03 0.  1.
    9900012    2    1    2    0    0 -0.28313615541E+02  0.20539764994E+02  0.20727312301E+02  0.50528877454E+02  0.30000053508E+02 0.  0.
        -12    1    1    2    0    0  0.28313615541E+02 -0.20539764994E+02 -0.20727312301E+02  0.40659122546E+02  0.00000000000E+00 0.  1.
         11    1    3    3    0    0 -0.28899900434E+02  0.18397855034E+02  0.12366430269E+02  0.36422711497E+02  0.51100000000E-03 0. -1.
        -11    1    3    3    0    0 -0.93555437568E+00 -0.11261246072E+01 -0.23701052362E+01  0.27858244224E+01  0.51100000000E-03 0.  1.
         12    1    3    3    0    0  0.15218392686E+01  0.32680345671E+01  0.10730987269E+02  0.11320341535E+02  0.00000000000E+00 0. -1.
</event>
<event>
 7    1  0.4994895E-011  0.5052886E+02  0.7816164E-02  0.1300439E+00
        -11   -1    0    0    0    0  0.00000000000E+00  0.00000000000E+00  0.45593999997E+02  0.45594000000E+02  0.51100000000E-03 0.  1.
         11   -1    0    0    0    0 -0.00000000000E+00 -0.00000000000E+00 -0.45593999997E+02  0.45594000000E+02  0.51100000000E-03 0. -1.
    9900012    2    1    2    0    0 -0.11055029804E+02  0.37816698067E+01 -0.38944206094E+02  0.50528857132E+02  0.29999991738E+02 0.  0.
        -12    1    1    2    0    0  0.11055029804E+02 -0.37816698067E+01  0.38944206094E+02  0.40659142868E+02  0.00000000000E+00 0.  1.
         11    1    3    3    0    0  0.10878631291E+01  0.15933526134E+01 -0.13484580272E+02  0.13621898697E+02  0.51100000000E-03 0. -1.
        -11    1    3    3    0    0 -0.13946387389E+02  0.89468342977E+01 -0.86314567999E+01  0.18682869477E+02  0.51100000000E-03 0.  1.
        -12    1    3    3    0    0  0.18034944556E+01 -0.67585171044E+01 -0.16828169022E+02  0.18224088957E+02  0.00000000000E+00 0.  1.
</event>
<event>
 7    1  0.4994895E-011  0.5052886E+02  0.7816164E-02  0.1300439E+00
        -11   -1    0    0    0    0  0.00000000000E+00  0.00000000000E+00  0.45593999997E+02  0.45594000000E+02  0.51100000000E-03 0.  1.
         11   -1    0    0    0    0 -0.00000000000E+00 -0.00000000000E+00 -0.45593999997E+02  0.45594000000E+02  0.51100000000E-03 0. -1.
    9900012    2    1    2    0    0 -0.26878660901E+02 -0.10292577362E+02 -0.28718737225E+02  0.50528862916E+02  0.30000009320E+02 0.  0.
        -12    1    1    2    0    0  0.26878660901E+02  0.10292577362E+02  0.28718737225E+02  0.40659137084E+02  0.00000000000E+00 0.  1.
         11    1    3    3    0    0 -0.10936281580E+02 -0.10197771082E+01 -0.50678764880E+01  0.12096510757E+02  0.51100000000E-03 0. -1.
        -11    1    3    3    0    0  0.37488761457E+01  0.39230458924E+01 -0.91699481706E+01  0.10655154205E+02  0.51100000000E-03 0.  1.
        -12    1    3    3    0    0 -0.19691255467E+02 -0.13195846146E+02 -0.14480912567E+02  0.27777197953E+02  0.00000000000E+00 0.  1.
</event>
<event>
 7    1  0.4994895E-011  0.5052886E+02  0.7816164E-02  0.1300439E+00
        -11   -1    0    0    0    0  0.00000000000E+00  0.00000000000E+00  0.45593999997E+02  0.45594000000E+02  0.51100000000E-03 0.  1.
         11   -1    0    0    0    0 -0.00000000000E+00 -0.00000000000E+00 -0.45593999997E+02  0.45594000000E+02  0.51100000000E-03 0. -1.
    9900012    2    1    2    0    0  0.73504717919E+01  0.23247662717E+02 -0.32537399097E+02  0.50528860838E+02  0.30000003004E+02 0.  0.
        -12    1    1    2    0    0 -0.73504717919E+01 -0.23247662717E+02  0.32537399097E+02  0.40659139162E+02  0.00000000000E+00 0.  1.
         11    1    3    3    0    0  0.22522127670E+01 -0.43707570666E+01 -0.12751081131E+02  0.13666237593E+02  0.51100000000E-03 0. -1.
        -11    1    3    3    0    0  0.93430351095E+01  0.22088084928E+02 -0.16781603983E+02  0.29271112608E+02  0.51100000000E-03 0.  1.
         12    1    3    3    0    0 -0.42447760846E+01  0.55303348557E+01 -0.30047139831E+01  0.75915106366E+01  0.00000000000E+00 0. -1.
</event>
<event>
 7    1  0.4994895E-011  0.5052887E+02  0.7816164E-02  0.1300439E+00
        -11   -1    0    0    0    0  0.00000000000E+00  0.00000000000E+00  0.45593999997E+02  0.45594000000E+02  0.51100000000E-03 0.  1.
         11   -1    0    0    0    0 -0.00000000000E+00 -0.00000000000E+00 -0.45593999997E+02  0.45594000000E+02  0.51100000000E-03 0. -1.
    9900012    2    1    2    0    0  0.31334027155E+02  0.18952395300E+02  0.17667766329E+02  0.50528874181E+02  0.30000043559E+02 0.  0.
        -12    1    1    2    0    0 -0.31334027155E+02 -0.18952395300E+02 -0.17667766329E+02  0.40659125819E+02  0.00000000000E+00 0.  1.
         11    1    3    3    0    0  0.18595079462E+02 -0.33487231259E+01  0.11846981145E+02  0.22301163407E+02  0.51100000000E-03 0. -1.
        -11    1    3    3    0    0  0.65665849463E+01  0.79695658557E+01  0.71604935994E+01  0.12566092735E+02  0.51100000000E-03 0.  1.
         12    1    3    3    0    0  0.61723627464E+01  0.14331552570E+02 -0.13397084160E+01  0.15661618039E+02  0.00000000000E+00 0. -1.
</event>
<event>
 7    1  0.4994895E-011  0.5052886E+02  0.7816164E-02  0.1300439E+00
        -11   -1    0    0    0    0  0.00000000000E+00  0.00000000000E+00  0.45593999997E+02  0.45594000000E+02  0.51100000000E-03 0.  1.
         11   -1    0    0    0    0 -0.00000000000E+00 -0.00000000000E+00 -0.45593999997E+02  0.45594000000E+02  0.51100000000E-03 0. -1.
    9900012    2    1    2    0    0 -0.17976841324E+02 -0.12920906184E+02 -0.34103508553E+02  0.50528856671E+02  0.29999990338E+02 0.  0.
        -12    1    1    2    0    0  0.17976841324E+02  0.12920906184E+02  0.34103508553E+02  0.40659143329E+02  0.00000000000E+00 0.  1.
         11    1    3    3    0    0 -0.12609640444E+00 -0.11908472963E+02 -0.31907154626E+01  0.12329164369E+02  0.51100000000E-03 0. -1.
        -11    1    3    3    0    0 -0.11028011271E+02  0.36966626726E+01 -0.88030146434E+01  0.14586823321E+02  0.51100000000E-03 0.  1.
         12    1    3    3    0    0 -0.68227336480E+01 -0.47090958935E+01 -0.22109778447E+02  0.23612868982E+02  0.00000000000E+00 0. -1.
</event>
<event>
 7    1  0.4994895E-011  0.5052885E+02  0.7816164E-02  0.1300439E+00
        -11   -1    0    0    0    0  0.00000000000E+00  0.00000000000E+00  0.45593999997E+02  0.45594000000E+02  0.51100000000E-03 0. -1.
         11   -1    0    0    0    0 -0.00000000000E+00 -0.00000000000E+00 -0.45593999997E+02  0.45594000000E+02  0.51100000000E-03 0.  1.
    9900012    2    1    2    0    0  0.14697078102E+01  0.25847473009E+01  0.40550284713E+02  0.50528849124E+02  0.29999967397E+02 0.  0.
        -12    1    1    2    0    0 -0.14697078102E+01 -0.25847473009E+01 -0.40550284713E+02  0.40659150876E+02  0.00000000000E+00 0.  1.
         11    1    3    3    0    0  0.13124456007E+02  0.22812927193E+01  0.27287606215E+02  0.30365590644E+02  0.51100000000E-03 0. -1.
        -11    1    3    3    0    0 -0.98545595998E+01  0.40142251162E+01  0.72650505217E+01  0.12884382311E+02  0.51100000000E-03 0.  1.
         12    1    3    3    0    0 -0.18001885968E+01 -0.37107705346E+01  0.59976279766E+01  0.72788761694E+01  0.00000000000E+00 0. -1.
</event>
<event>
 7    1  0.4994895E-011  0.5052886E+02  0.7816164E-02  0.1300439E+00
        -11   -1    0    0    0    0  0.00000000000E+00  0.00000000000E+00  0.45593999997E+02  0.45594000000E+02  0.51100000000E-03 0. -1.
         11   -1    0    0    0    0 -0.00000000000E+00 -0.00000000000E+00 -0.45593999997E+02  0.45594000000E+02  0.51100000000E-03 0.  1.
    9900012    2    1    2    0    0 -0.20480149807E+02 -0.33513463507E+02  0.10515546377E+02  0.50528862184E+02  0.30000007094E+02 0.  0.
        -12    1    1    2    0    0  0.20480149807E+02  0.33513463507E+02 -0.10515546377E+02  0.40659137816E+02  0.00000000000E+00 0.  1.
         11    1    3    3    0    0 -0.20647263912E+02 -0.36651398173E+02  0.13776241855E+02  0.44265328814E+02  0.51100000000E-03 0. -1.
        -11    1    3    3    0    0  0.20444849237E+01  0.27540624805E+01 -0.20165623039E+01  0.39788569384E+01  0.51100000000E-03 0.  1.
        -12    1    3    3    0    0 -0.18773708182E+01  0.38387218506E+00 -0.12441331744E+01  0.22846764320E+01  0.00000000000E+00 0.  1.
</event>
<event>
 7    1  0.4994895E-011  0.5052886E+02  0.7816164E-02  0.1300439E+00
        -11   -1    0    0    0    0  0.00000000000E+00  0.00000000000E+00  0.45593999997E+02  0.45594000000E+02  0.51100000000E-03 0.  1.
         11   -1    0    0    0    0 -0.00000000000E+00 -0.00000000000E+00 -0.45593999997E+02  0.45594000000E+02  0.51100000000E-03 0. -1.
    9900012    2    1    2    0    0  0.84873686798E+01  0.19789413271E+02 -0.34489267878E+02  0.50528857074E+02  0.29999991561E+02 0.  0.
        -12    1    1    2    0    0 -0.84873686798E+01 -0.19789413271E+02  0.34489267878E+02  0.40659142926E+02  0.00000000000E+00 0.  1.
         11    1    3    3    0    0  0.21475593421E+01  0.16245573673E+01 -0.10992763282E+02  0.11317775515E+02  0.51100000000E-03 0. -1.
        -11    1    3    3    0    0 -0.78492699230E+01  0.39634946965E+00 -0.24635512859E+01  0.82363351332E+01  0.51100000000E-03 0.  1.
        -12    1    3    3    0    0  0.14189079261E+02  0.17768506434E+02 -0.21032953311E+02  0.30974746426E+02  0.00000000000E+00 0.  1.
</event>
<event>
 7    1  0.4994895E-011  0.5052886E+02  0.7816164E-02  0.1300439E+00
        -11   -1    0    0    0    0  0.00000000000E+00  0.00000000000E+00  0.45593999997E+02  0.45594000000E+02  0.51100000000E-03 0.  1.
         11   -1    0    0    0    0 -0.00000000000E+00 -0.00000000000E+00 -0.45593999997E+02  0.45594000000E+02  0.51100000000E-03 0. -1.
    9900012    2    1    2    0    0 -0.36745654528E+02  0.11524801349E+02 -0.13042286400E+02  0.50528863175E+02  0.30000010107E+02 0.  0.
        -12    1    1    2    0    0  0.36745654528E+02 -0.11524801349E+02  0.13042286400E+02  0.40659136825E+02  0.00000000000E+00 0.  1.
         11    1    3    3    0    0 -0.12671738809E+02  0.11928897309E+02 -0.85669572053E+01  0.19397533644E+02  0.51100000000E-03 0. -1.
        -11    1    3    3    0    0 -0.10188719213E+02 -0.96287386183E+01 -0.34087251636E+01  0.14427127714E+02  0.51100000000E-03 0.  1.
        -12    1    3    3    0    0 -0.13885196506E+02  0.92246426584E+01 -0.10666040308E+01  0.16704201817E+02  0.00000000000E+00 0.  1.
</event>
<event>
 7    1  0.4994895E-011  0.5052885E+02  0.7816164E-02  0.1300439E+00
        -11   -1    0    0    0    0  0.00000000000E+00  0.00000000000E+00  0.45593999997E+02  0.45594000000E+02  0.51100000000E-03 0.  1.
         11   -1    0    0    0    0 -0.00000000000E+00 -0.00000000000E+00 -0.45593999997E+02  0.45594000000E+02  0.51100000000E-03 0. -1.
    9900012    2    1    2    0    0  0.10606884737E+02  0.38402653891E+02 -0.81176809687E+01  0.50528848829E+02  0.29999966500E+02 0.  0.
        -12    1    1    2    0    0 -0.10606884737E+02 -0.38402653891E+02  0.81176809687E+01  0.40659151171E+02  0.00000000000E+00 0.  1.
         11    1    3    3    0    0  0.15242675625E+02  0.29598313978E+02 -0.53765806587E+01  0.33723982125E+02  0.51100000000E-03 0. -1.
        -11    1    3    3    0    0 -0.52059507590E+01  0.42667919248E+01  0.46021610503E+01  0.81539759154E+01  0.51100000000E-03 0.  1.
         12    1    3    3    0    0  0.57015987078E+00  0.45375479883E+01 -0.73432613603E+01  0.86508907882E+01  0.00000000000E+00 0. -1.
</event>
<event>
 7    1  0.4994895E-011  0.5052888E+02  0.7816164E-02  0.1300439E+00
        -11   -1    0    0    0    0  0.00000000000E+00  0.00000000000E+00  0.45593999997E+02  0.45594000000E+02  0.51100000000E-03 0.  1.
         11   -1    0    0    0    0 -0.00000000000E+00 -0.00000000000E+00 -0.45593999997E+02  0.45594000000E+02  0.51100000000E-03 0. -1.
    9900012    2    1    2    0    0 -0.27390220468E+02  0.21901310386E+02 -0.20573591703E+02  0.50528877414E+02  0.30000053388E+02 0.  0.
        -12    1    1    2    0    0  0.27390220468E+02 -0.21901310386E+02  0.20573591703E+02  0.40659122586E+02  0.00000000000E+00 0.  1.
         11    1    3    3    0    0 -0.87368830360E+01  0.51488387730E+01  0.44219688193E+01  0.11063339206E+02  0.51100000000E-03 0. -1.
        -11    1    3    3    0    0 -0.19743847683E+02  0.14557776100E+02 -0.26867675357E+02  0.36381593501E+02  0.51100000000E-03 0.  1.
        -12    1    3    3    0    0  0.10905102512E+01  0.21946955123E+01  0.18721148350E+01  0.30839447069E+01  0.00000000000E+00 0.  1.
</event>
<event>
 7    1  0.4994895E-011  0.5052886E+02  0.7816164E-02  0.1300439E+00
        -11   -1    0    0    0    0  0.00000000000E+00  0.00000000000E+00  0.45593999997E+02  0.45594000000E+02  0.51100000000E-03 0.  1.
         11   -1    0    0    0    0 -0.00000000000E+00 -0.00000000000E+00 -0.45593999997E+02  0.45594000000E+02  0.51100000000E-03 0. -1.
    9900012    2    1    2    0    0  0.14652633487E+02  0.24424647335E+02 -0.29015563266E+02  0.50528856168E+02  0.29999988807E+02 0.  0.
        -12    1    1    2    0    0 -0.14652633487E+02 -0.24424647335E+02  0.29015563266E+02  0.40659143832E+02  0.00000000000E+00 0.  1.
         11    1    3    3    0    0  0.58181539178E+01  0.65288372169E+01 -0.20196906752E+02  0.22008899859E+02  0.51100000000E-03 0. -1.
        -11    1    3    3    0    0 -0.32353007948E+01  0.12641356512E+02 -0.72926295779E+00  0.13069157984E+02  0.51100000000E-03 0.  1.
         12    1    3    3    0    0  0.12069780364E+02  0.52544536058E+01 -0.80893935565E+01  0.15450798324E+02  0.00000000000E+00 0. -1.
</event>
<event>
 7    1  0.4994895E-011  0.5052887E+02  0.7816164E-02  0.1300439E+00
        -11   -1    0    0    0    0  0.00000000000E+00  0.00000000000E+00  0.45593999997E+02  0.45594000000E+02  0.51100000000E-03 0. -1.
         11   -1    0    0    0    0 -0.00000000000E+00 -0.00000000000E+00 -0.45593999997E+02  0.45594000000E+02  0.51100000000E-03 0.  1.
    9900012    2    1    2    0    0 -0.27952773519E+02 -0.29499891203E+02 -0.12504933395E+01  0.50528869882E+02  0.30000030493E+02 0.  0.
        -12    1    1    2    0    0  0.27952773519E+02  0.29499891203E+02  0.12504933395E+01  0.40659130118E+02  0.00000000000E+00 0.  1.
         11    1    3    3    0    0 -0.14531310276E+02 -0.71035707541E+01 -0.58647256969E+01  0.17205077842E+02  0.51100000000E-03 0. -1.
        -11    1    3    3    0    0 -0.48676051058E+01 -0.12345606378E+02  0.12263547280E+02  0.18069371003E+02  0.51100000000E-03 0.  1.
        -12    1    3    3    0    0 -0.85538581367E+01 -0.10050714071E+02 -0.76493149229E+01  0.15254421036E+02  0.00000000000E+00 0.  1.
</event>
<event>
 7    1  0.4994895E-011  0.5052886E+02  0.7816164E-02  0.1300439E+00
        -11   -1    0    0    0    0  0.00000000000E+00  0.00000000000E+00  0.45593999997E+02  0.45594000000E+02  0.51100000000E-03 0.  1.
         11   -1    0    0    0    0 -0.00000000000E+00 -0.00000000000E+00 -0.45593999997E+02  0.45594000000E+02  0.51100000000E-03 0. -1.
    9900012    2    1    2    0    0  0.28501330023E+02 -0.28937736675E+02  0.18566592841E+01  0.50528860799E+02  0.30000002884E+02 0.  0.
        -12    1    1    2    0    0 -0.28501330023E+02  0.28937736675E+02 -0.18566592841E+01  0.40659139201E+02  0.00000000000E+00 0.  1.
         11    1    3    3    0    0  0.31272782744E+01 -0.46806660365E+01 -0.64789336603E+01  0.85828366865E+01  0.51100000000E-03 0. -1.
        -11    1    3    3    0    0  0.24975345375E+02 -0.27890270155E+02  0.72579194898E+01  0.38135448621E+02  0.51100000000E-03 0.  1.
        -12    1    3    3    0    0  0.39870637320E+00  0.36331995170E+01  0.10776734545E+01  0.38105754915E+01  0.00000000000E+00 0.  1.
</event>
<event>
 7    1  0.4994895E-011  0.5052886E+02  0.7816164E-02  0.1300439E+00
        -11   -1    0    0    0    0  0.00000000000E+00  0.00000000000E+00  0.45593999997E+02  0.45594000000E+02  0.51100000000E-03 0. -1.
         11   -1    0    0    0    0 -0.00000000000E+00 -0.00000000000E+00 -0.45593999997E+02  0.45594000000E+02  0.51100000000E-03 0.  1.
    9900012    2    1    2    0    0  0.35022220003E+01  0.28519103481E+02 -0.28767352903E+02  0.50528863077E+02  0.30000009808E+02 0.  0.
        -12    1    1    2    0    0 -0.35022220003E+01 -0.28519103481E+02  0.28767352903E+02  0.40659136923E+02  0.00000000000E+00 0.  1.
         11    1    3    3    0    0  0.58056698182E+01  0.20327731879E+02 -0.52702699503E+01  0.21787570562E+02  0.51100000000E-03 0. -1.
        -11    1    3    3    0    0  0.23014712740E+01  0.91249905372E+01 -0.21801854664E+02  0.23746222634E+02  0.51100000000E-03 0.  1.
        -12    1    3    3    0    0 -0.46049190920E+01 -0.93361893506E+00 -0.16952282881E+01  0.49950698802E+01  0.00000000000E+00 0.  1.
</event>
<event>
 7    1  0.4994895E-011  0.5052886E+02  0.7816164E-02  0.1300439E+00
        -11   -1    0    0    0    0  0.00000000000E+00  0.00000000000E+00  0.45593999997E+02  0.45594000000E+02  0.51100000000E-03 0.  1.
         11   -1    0    0    0    0 -0.00000000000E+00 -0.00000000000E+00 -0.45593999997E+02  0.45594000000E+02  0.51100000000E-03 0. -1.
    9900012    2    1    2    0    0  0.68171636777E+00 -0.35998598388E+01 -0.40493726372E+02  0.50528860763E+02  0.30000002774E+02 0.  0.
        -12    1    1    2    0    0 -0.68171636777E+00  0.35998598388E+01  0.40493726372E+02  0.40659139237E+02  0.00000000000E+00 0.  1.
         11    1    3    3    0    0 -0.54923714069E+01  0.33197247695E+01 -0.15918395299E+02  0.17163392012E+02  0.51100000000E-03 0. -1.
        -11    1    3    3    0    0 -0.50149725756E+00 -0.10256749966E+02 -0.32486505369E+01  0.10770615114E+02  0.51100000000E-03 0.  1.
        -12    1    3    3    0    0  0.66755850322E+01  0.33371653580E+01 -0.21326680536E+02  0.22594853636E+02  0.00000000000E+00 0.  1.
</event>
<event>
 7    1  0.4994895E-011  0.5052886E+02  0.7816164E-02  0.1300439E+00
        -11   -1    0    0    0    0  0.00000000000E+00  0.00000000000E+00  0.45593999997E+02  0.45594000000E+02  0.51100000000E-03 0. -1.
         11   -1    0    0    0    0 -0.00000000000E+00 -0.00000000000E+00 -0.45593999997E+02  0.45594000000E+02  0.51100000000E-03 0.  1.
    9900012    2    1    2    0    0 -0.35405603440E+02 -0.13574368011E+02  0.14674657664E+02  0.50528858354E+02  0.29999995452E+02 0.  0.
        -12    1    1    2    0    0  0.35405603440E+02  0.13574368011E+02 -0.14674657664E+02  0.40659141646E+02  0.00000000000E+00 0.  1.
         11    1    3    3    0    0 -0.12549291403E+02 -0.98408043376E+00 -0.11585581687E+01  0.12641019987E+02  0.51100000000E-03 0. -1.
        -11    1    3    3    0    0  0.36429201027E+01 -0.58123295522E+01  0.49066145879E+01  0.84337956267E+01  0.51100000000E-03 0.  1.
        -12    1    3    3    0    0 -0.26499232140E+02 -0.67779580251E+01  0.10926601245E+02  0.29454042740E+02  0.00000000000E+00 0.  1.
</event>
<event>
 7    1  0.4994895E-011  0.5052887E+02  0.7816164E-02  0.1300439E+00
        -11   -1    0    0    0    0  0.00000000000E+00  0.00000000000E+00  0.45593999997E+02  0.45594000000E+02  0.51100000000E-03 0.  1.
         11   -1    0    0    0    0 -0.00000000000E+00 -0.00000000000E+00 -0.45593999997E+02  0.45594000000E+02  0.51100000000E-03 0. -1.
    9900012    2    1    2    0    0  0.16399995219E+02 -0.69229787781E+01 -0.36555133401E+02  0.50528865033E+02  0.30000015754E+02 0.  0.
        -12    1    1    2    0    0 -0.16399995219E+02  0.69229787781E+01  0.36555133401E+02  0.40659134967E+02  0.00000000000E+00 0.  1.
         11    1    3    3    0    0  0.65969993855E+01  0.32547642366E+01 -0.10191631690E+02  0.12569138709E+02  0.51100000000E-03 0. -1.
        -11    1    3    3    0    0  0.90583158201E+01 -0.15672621975E+02 -0.26862116515E+02  0.32392243963E+02  0.51100000000E-03 0.  1.
        -12    1    3    3    0    0  0.74468001343E+00  0.54948789602E+01  0.49861480414E+00  0.55674823603E+01  0.00000000000E+00 0.  1.
</event>
<event>
 7    1  0.4994895E-011  0.5052886E+02  0.7816164E-02  0.1300439E+00
        -11   -1    0    0    0    0  0.00000000000E+00  0.00000000000E+00  0.45593999997E+02  0.45594000000E+02  0.51100000000E-03 0.  1.
         11   -1    0    0    0    0 -0.00000000000E+00 -0.00000000000E+00 -0.45593999997E+02  0.45594000000E+02  0.51100000000E-03 0. -1.
    9900012    2    1    2    0    0  0.27933705121E+02  0.24957099538E+01 -0.29438835555E+02  0.50528862174E+02  0.30000007063E+02 0.  0.
        -12    1    1    2    0    0 -0.27933705121E+02 -0.24957099538E+01  0.29438835555E+02  0.40659137826E+02  0.00000000000E+00 0.  1.
         11    1    3    3    0    0  0.38122676950E+01  0.12428981763E+01  0.23951193095E+01  0.46706292534E+01  0.51100000000E-03 0. -1.
        -11    1    3    3    0    0  0.27984972057E+02 -0.10783090659E+01 -0.29844049766E+02  0.40926626029E+02  0.51100000000E-03 0.  1.
         12    1    3    3    0    0 -0.38635346305E+01  0.23311208434E+01 -0.19899050983E+01  0.49316068910E+01  0.00000000000E+00 0. -1.
</event>
<event>
 7    1  0.4994895E-011  0.5052887E+02  0.7816164E-02  0.1300439E+00
        -11   -1    0    0    0    0  0.00000000000E+00  0.00000000000E+00  0.45593999997E+02  0.45594000000E+02  0.51100000000E-03 0.  1.
         11   -1    0    0    0    0 -0.00000000000E+00 -0.00000000000E+00 -0.45593999997E+02  0.45594000000E+02  0.51100000000E-03 0. -1.
    9900012    2    1    2    0    0  0.39371200176E+02 -0.70603160760E+01  0.72955988558E+01  0.50528865368E+02  0.30000016772E+02 0.  0.
        -12    1    1    2    0    0 -0.39371200176E+02  0.70603160760E+01 -0.72955988558E+01  0.40659134632E+02  0.00000000000E+00 0.  1.
         11    1    3    3    0    0  0.26444115468E+02  0.40018542325E+00  0.11505520258E+01  0.26472158232E+02  0.51100000000E-03 0. -1.
        -11    1    3    3    0    0  0.24377145880E+01 -0.10606281813E+02  0.72094250876E+01  0.13054174683E+02  0.51100000000E-03 0.  1.
        -12    1    3    3    0    0  0.10489370120E+02  0.31457803135E+01 -0.10643782577E+01  0.11002532453E+02  0.00000000000E+00 0.  1.
</event>
<event>
 7    1  0.4994895E-011  0.5052886E+02  0.7816164E-02  0.1300439E+00
        -11   -1    0    0    0    0  0.00000000000E+00  0.00000000000E+00  0.45593999997E+02  0.45594000000E+02  0.51100000000E-03 0.  1.
         11   -1    0    0    0    0 -0.00000000000E+00 -0.00000000000E+00 -0.45593999997E+02  0.45594000000E+02  0.51100000000E-03 0. -1.
    9900012    2    1    2    0    0 -0.76963273229E+01 -0.12054170491E+02 -0.38060860482E+02  0.50528861038E+02  0.30000003610E+02 0.  0.
        -12    1    1    2    0    0  0.76963273229E+01  0.12054170491E+02  0.38060860482E+02  0.40659138962E+02  0.00000000000E+00 0.  1.
         11    1    3    3    0    0  0.94730983726E+00 -0.11463293989E+02 -0.25531257000E+02  0.28002671110E+02  0.51100000000E-03 0. -1.
        -11    1    3    3    0    0 -0.67826692275E+01  0.75631074213E+01 -0.84829136883E+01  0.13234992279E+02  0.51100000000E-03 0.  1.
        -12    1    3    3    0    0 -0.18609679326E+01 -0.81539839232E+01 -0.40466897940E+01  0.92911976492E+01  0.00000000000E+00 0.  1.
</event>
<event>
 7    1  0.4994895E-011  0.5052886E+02  0.7816164E-02  0.1300439E+00
        -11   -1    0    0    0    0  0.00000000000E+00  0.00000000000E+00  0.45593999997E+02  0.45594000000E+02  0.51100000000E-03 0.  1.
         11   -1    0    0    0    0 -0.00000000000E+00 -0.00000000000E+00 -0.45593999997E+02  0.45594000000E+02  0.51100000000E-03 0. -1.
    9900012    2    1    2    0    0 -0.30837002529E+02 -0.16210687479E+02 -0.20963271095E+02  0.50528857750E+02  0.29999993616E+02 0.  0.
        -12    1    1    2    0    0  0.30837002529E+02  0.16210687479E+02  0.20963271095E+02  0.40659142250E+02  0.00000000000E+00 0.  1.
         11    1    3    3    0    0 -0.25792301933E+02 -0.92779886969E+01 -0.19923898951E+02  0.33886363967E+02  0.51100000000E-03 0. -1.
        -11    1    3    3    0    0  0.62174275088E+00 -0.46791231996E+01  0.58008394092E+01  0.74786694056E+01  0.51100000000E-03 0.  1.
        -12    1    3    3    0    0 -0.56664433471E+01 -0.22535755821E+01 -0.68402115534E+01  0.91638243766E+01  0.00000000000E+00 0.  1.
</event>
<event>
 7    1  0.4994895E-011  0.5052888E+02  0.7816164E-02  0.1300439E+00
        -11   -1    0    0    0    0  0.00000000000E+00  0.00000000000E+00  0.45593999997E+02  0.45594000000E+02  0.51100000000E-03 0.  1.
         11   -1    0    0    0    0 -0.00000000000E+00 -0.00000000000E+00 -0.45593999997E+02  0.45594000000E+02  0.51100000000E-03 0. -1.
    9900012    2    1    2    0    0  0.43508544999E+01  0.20634070361E+02 -0.34763041079E+02  0.50528882700E+02  0.30000069455E+02 0.  0.
        -12    1    1    2    0    0 -0.43508544999E+01 -0.20634070361E+02  0.34763041079E+02  0.40659117300E+02  0.00000000000E+00 0.  1.
         11    1    3    3    0    0  0.81720377940E+00  0.18563264305E+02 -0.18667233786E+02  0.26338720948E+02  0.51100000000E-03 0. -1.
        -11    1    3    3    0    0 -0.25126639658E+01 -0.39370784105E+01 -0.14860849414E+02  0.15577513030E+02  0.51100000000E-03 0.  1.
         12    1    3    3    0    0  0.60463146863E+01  0.60078844669E+01 -0.12349578787E+01  0.86126487224E+01  0.00000000000E+00 0. -1.
</event>
<event>
 7    1  0.4994895E-011  0.5052886E+02  0.7816164E-02  0.1300439E+00
        -11   -1    0    0    0    0  0.00000000000E+00  0.00000000000E+00  0.45593999997E+02  0.45594000000E+02  0.51100000000E-03 0.  1.
         11   -1    0    0    0    0 -0.00000000000E+00 -0.00000000000E+00 -0.45593999997E+02  0.45594000000E+02  0.51100000000E-03 0. -1.
    9900012    2    1    2    0    0  0.26036520202E+02  0.26138040422E+02 -0.17090005126E+02  0.50528858144E+02  0.29999994813E+02 0.  0.
        -12    1    1    2    0    0 -0.26036520202E+02 -0.26138040422E+02  0.17090005126E+02  0.40659141856E+02  0.00000000000E+00 0.  1.
         11    1    3    3    0    0  0.23348327259E+02  0.28747164250E+02 -0.15208094216E+02  0.40035358973E+02  0.51100000000E-03 0. -1.
        -11    1    3    3    0    0  0.43255121446E+01 -0.50697303413E+01 -0.30326275640E+01  0.73218202142E+01  0.51100000000E-03 0.  1.
         12    1    3    3    0    0 -0.16373192020E+01  0.24606065132E+01  0.11507166538E+01  0.31716789559E+01  0.00000000000E+00 0. -1.
</event>
<event>
 7    1  0.4994895E-011  0.5052886E+02  0.7816164E-02  0.1300439E+00
        -11   -1    0    0    0    0  0.00000000000E+00  0.00000000000E+00  0.45593999997E+02  0.45594000000E+02  0.51100000000E-03 0.  1.
         11   -1    0    0    0    0 -0.00000000000E+00 -0.00000000000E+00 -0.45593999997E+02  0.45594000000E+02  0.51100000000E-03 0. -1.
    9900012    2    1    2    0    0  0.27199445088E+02  0.24988376815E+02 -0.16998142750E+02  0.50528860242E+02  0.30000001191E+02 0.  0.
        -12    1    1    2    0    0 -0.27199445088E+02 -0.24988376815E+02  0.16998142750E+02  0.40659139758E+02  0.00000000000E+00 0.  1.
         11    1    3    3    0    0  0.85088319803E+01 -0.49770790007E+01 -0.39235859179E+01  0.10609715536E+02  0.51100000000E-03 0. -1.
        -11    1    3    3    0    0  0.16773613079E+02  0.29886704934E+02 -0.90285398659E+01  0.35441271985E+02  0.51100000000E-03 0.  1.
        -12    1    3    3    0    0  0.19170000283E+01  0.78750881951E-01 -0.40460169665E+01  0.44778727208E+01  0.00000000000E+00 0.  1.
</event>
<event>
 7    1  0.4994895E-011  0.5052886E+02  0.7816164E-02  0.1300439E+00
        -11   -1    0    0    0    0  0.00000000000E+00  0.00000000000E+00  0.45593999997E+02  0.45594000000E+02  0.51100000000E-03 0.  1.
         11   -1    0    0    0    0 -0.00000000000E+00 -0.00000000000E+00 -0.45593999997E+02  0.45594000000E+02  0.51100000000E-03 0. -1.
    9900012    2    1    2    0    0 -0.15749354502E+02  0.57262250391E+01 -0.37045027614E+02  0.50528857223E+02  0.29999992016E+02 0.  0.
        -12    1    1    2    0    0  0.15749354502E+02 -0.57262250391E+01  0.37045027614E+02  0.40659142777E+02  0.00000000000E+00 0.  1.
         11    1    3    3    0    0 -0.11044657246E+02 -0.48423486098E+01 -0.12181142909E+02  0.17140975368E+02  0.51100000000E-03 0. -1.
        -11    1    3    3    0    0  0.31436257253E+00  0.12467302469E+02 -0.25088231364E+02  0.28016991415E+02  0.51100000000E-03 0.  1.
        -12    1    3    3    0    0 -0.50190598289E+01 -0.18987288206E+01  0.22434665977E+00  0.53708904405E+01  0.00000000000E+00 0.  1.
</event>
<event>
 7    1  0.4994895E-011  0.5052886E+02  0.7816164E-02  0.1300439E+00
        -11   -1    0    0    0    0  0.00000000000E+00  0.00000000000E+00  0.45593999997E+02  0.45594000000E+02  0.51100000000E-03 0.  1.
         11   -1    0    0    0    0 -0.00000000000E+00 -0.00000000000E+00 -0.45593999997E+02  0.45594000000E+02  0.51100000000E-03 0. -1.
    9900012    2    1    2    0    0 -0.30293257305E+02 -0.28623233884E+01 -0.26968346922E+02  0.50528855038E+02  0.29999985374E+02 0.  0.
        -12    1    1    2    0    0  0.30293257305E+02  0.28623233884E+01  0.26968346922E+02  0.40659144962E+02  0.00000000000E+00 0.  1.
         11    1    3    3    0    0 -0.20424785935E+02 -0.10495182753E+02 -0.74740642980E+01  0.24149169321E+02  0.51100000000E-03 0. -1.
        -11    1    3    3    0    0 -0.83974163406E+01  0.59278404754E+01 -0.21196157008E+02  0.23557015220E+02  0.51100000000E-03 0.  1.
        -12    1    3    3    0    0 -0.14710550298E+01  0.17050188895E+01  0.17018743843E+01  0.28226704970E+01  0.00000000000E+00 0.  1.
</event>
<event>
 7    1  0.6252664E-011  0.5052887E+02  0.7816164E-02  0.1300439E+00
        -11   -1    0    0    0    0  0.00000000000E+00  0.00000000000E+00  0.45593999997E+02  0.45594000000E+02  0.51100000000E-03 0. -1.
         11   -1    0    0    0    0 -0.00000000000E+00 -0.00000000000E+00 -0.45593999997E+02  0.45594000000E+02  0.51100000000E-03 0.  1.
    9900012    2    1    2    0    0  0.25189712828E+02  0.98539732187E+01  0.30356918071E+02  0.50528869471E+02  0.30000029246E+02 0.  0.
        -12    1    1    2    0    0 -0.25189712828E+02 -0.98539732187E+01 -0.30356918071E+02  0.40659130529E+02  0.00000000000E+00 0.  1.
         11    1    3    3    0    0  0.15395143729E+02  0.80021747544E+01  0.23980436419E+02  0.29599097661E+02  0.51100000000E-03 0. -1.
        -11    1    3    3    0    0  0.84604755449E+00  0.76236493726E+01 -0.13303715573E+01  0.77849672423E+01  0.51100000000E-03 0.  1.
        -12    1    3    3    0    0  0.89485215452E+01 -0.57718509084E+01  0.77068532092E+01  0.13144804568E+02  0.00000000000E+00 0.  1.
</event>
<event>
 7    1  0.4994895E-011  0.5052886E+02  0.7816164E-02  0.1300439E+00
        -11   -1    0    0    0    0  0.00000000000E+00  0.00000000000E+00  0.45593999997E+02  0.45594000000E+02  0.51100000000E-03 0.  1.
         11   -1    0    0    0    0 -0.00000000000E+00 -0.00000000000E+00 -0.45593999997E+02  0.45594000000E+02  0.51100000000E-03 0. -1.
    9900012    2    1    2    0    0 -0.10505772892E+02  0.38659200679E+02 -0.69469600854E+01  0.50528864303E+02  0.30000013535E+02 0.  0.
        -12    1    1    2    0    0  0.10505772892E+02 -0.38659200679E+02  0.69469600854E+01  0.40659135697E+02  0.00000000000E+00 0.  1.
         11    1    3    3    0    0 -0.60767490667E+01  0.43953761888E+01  0.68705231321E+01  0.10171052032E+02  0.51100000000E-03 0.  1.
        -11    1    3    3    0    0 -0.52891579636E+01  0.30036612305E+02 -0.17074054332E+02  0.34952776747E+02  0.51100000000E-03 0. -1.
        -12    1    3    3    0    0  0.86013413801E+00  0.42272121857E+01  0.32565711143E+01  0.54050355245E+01  0.00000000000E+00 0.  1.
</event>
<event>
 7    1  0.4994895E-011  0.5052885E+02  0.7816164E-02  0.1300439E+00
        -11   -1    0    0    0    0  0.00000000000E+00  0.00000000000E+00  0.45593999997E+02  0.45594000000E+02  0.51100000000E-03 0. -1.
         11   -1    0    0    0    0 -0.00000000000E+00 -0.00000000000E+00 -0.45593999997E+02  0.45594000000E+02  0.51100000000E-03 0.  1.
    9900012    2    1    2    0    0 -0.26112521922E+02  0.15785347959E+02  0.26872384851E+02  0.50528854916E+02  0.29999985003E+02 0.  0.
        -12    1    1    2    0    0  0.26112521922E+02 -0.15785347959E+02 -0.26872384851E+02  0.40659145084E+02  0.00000000000E+00 0.  1.
         11    1    3    3    0    0 -0.11916011998E+02 -0.29893295917E+00  0.10244673016E+00  0.11920201275E+02  0.51100000000E-03 0. -1.
        -11    1    3    3    0    0  0.42505757909E+01  0.29715687836E+01  0.48180338665E+01  0.70789170209E+01  0.51100000000E-03 0.  1.
         12    1    3    3    0    0 -0.18447085716E+02  0.13112712135E+02  0.21951904255E+02  0.31529736620E+02  0.00000000000E+00 0. -1.
</event>
<event>
 7    1  0.4994895E-011  0.5052887E+02  0.7816164E-02  0.1300439E+00
        -11   -1    0    0    0    0  0.00000000000E+00  0.00000000000E+00  0.45593999997E+02  0.45594000000E+02  0.51100000000E-03 0. -1.
         11   -1    0    0    0    0 -0.00000000000E+00 -0.00000000000E+00 -0.45593999997E+02  0.45594000000E+02  0.51100000000E-03 0.  1.
    9900012    2    1    2    0    0  0.17316346465E+02 -0.26009481814E+02  0.26015685623E+02  0.50528869444E+02  0.30000029162E+02 0.  0.
        -12    1    1    2    0    0 -0.17316346465E+02  0.26009481814E+02 -0.26015685623E+02  0.40659130556E+02  0.00000000000E+00 0.  1.
         11    1    3    3    0    0  0.22942557128E+01 -0.68621274054E+01  0.40746270326E+01  0.83039139880E+01  0.51100000000E-03 0. -1.
        -11    1    3    3    0    0  0.37654222692E+00  0.54518520100E+00  0.17220842123E+02  0.17233583918E+02  0.51100000000E-03 0.  1.
        -12    1    3    3    0    0  0.14645548525E+02 -0.19692539609E+02  0.47202164673E+01  0.24991371538E+02  0.00000000000E+00 0.  1.
</event>
<event>
 7    1  0.4994895E-011  0.5052888E+02  0.7816164E-02  0.1300439E+00
        -11   -1    0    0    0    0  0.00000000000E+00  0.00000000000E+00  0.45593999997E+02  0.45594000000E+02  0.51100000000E-03 0.  1.
         11   -1    0    0    0    0 -0.00000000000E+00 -0.00000000000E+00 -0.45593999997E+02  0.45594000000E+02  0.51100000000E-03 0. -1.
    9900012    2    1    2    0    0  0.29709838623E+01 -0.81619373360E+01 -0.39720527849E+02  0.50528876807E+02  0.30000051544E+02 0.  0.
        -12    1    1    2    0    0 -0.29709838623E+01  0.81619373360E+01  0.39720527849E+02  0.40659123193E+02  0.00000000000E+00 0.  1.
         11    1    3    3    0    0 -0.52583087552E+01 -0.12802455768E+01 -0.11601691833E+02  0.12801878509E+02  0.51100000000E-03 0. -1.
        -11    1    3    3    0    0  0.17726237329E+01  0.74935698679E+00  0.38108181036E+01  0.42691996524E+01  0.51100000000E-03 0.  1.
        -12    1    3    3    0    0  0.64566688846E+01 -0.76310487460E+01 -0.31929654120E+02  0.33457798646E+02  0.00000000000E+00 0.  1.
</event>
<event>
 7    1  0.4994895E-011  0.5052886E+02  0.7816164E-02  0.1300439E+00
        -11   -1    0    0    0    0  0.00000000000E+00  0.00000000000E+00  0.45593999997E+02  0.45594000000E+02  0.51100000000E-03 0. -1.
         11   -1    0    0    0    0 -0.00000000000E+00 -0.00000000000E+00 -0.45593999997E+02  0.45594000000E+02  0.51100000000E-03 0.  1.
    9900012    2    1    2    0    0 -0.21530622592E+02 -0.26723554830E+02  0.21804813654E+02  0.50528856004E+02  0.29999988311E+02 0.  0.
        -12    1    1    2    0    0  0.21530622592E+02  0.26723554830E+02 -0.21804813654E+02  0.40659143996E+02  0.00000000000E+00 0.  1.
         11    1    3    3    0    0 -0.34007885480E-01 -0.63370711891E+01  0.26487624058E+01  0.68684474472E+01  0.51100000000E-03 0. -1.
        -11    1    3    3    0    0 -0.99348902876E+01  0.49447331724E+01  0.79206473785E+01  0.13634114798E+02  0.51100000000E-03 0.  1.
        -12    1    3    3    0    0 -0.11561724419E+02 -0.25331216813E+02  0.11235403870E+02  0.30026293759E+02  0.00000000000E+00 0.  1.
</event>
<event>
 7    1  0.4994895E-011  0.5052886E+02  0.7816164E-02  0.1300439E+00
        -11   -1    0    0    0    0  0.00000000000E+00  0.00000000000E+00  0.45593999997E+02  0.45594000000E+02  0.51100000000E-03 0.  1.
         11   -1    0    0    0    0 -0.00000000000E+00 -0.00000000000E+00 -0.45593999997E+02  0.45594000000E+02  0.51100000000E-03 0. -1.
    9900012    2    1    2    0    0  0.38942308349E+01  0.37578548235E+02  0.15028410832E+02  0.50528862609E+02  0.30000008386E+02 0.  0.
        -12    1    1    2    0    0 -0.38942308349E+01 -0.37578548235E+02 -0.15028410832E+02  0.40659137391E+02  0.00000000000E+00 0.  1.
         11    1    3    3    0    0  0.63984060833E+01  0.16635620212E+02 -0.32918764428E+01  0.18125118235E+02  0.51100000000E-03 0. -1.
        -11    1    3    3    0    0  0.16382501017E+01  0.68917744382E+01  0.16097249913E+02  0.17586980221E+02  0.51100000000E-03 0.  1.
        -12    1    3    3    0    0 -0.41424253501E+01  0.14051153585E+02  0.22230373619E+01  0.14816764153E+02  0.00000000000E+00 0.  1.
</event>
<event>
 7    1  0.4994895E-011  0.5052886E+02  0.7816164E-02  0.1300439E+00
        -11   -1    0    0    0    0  0.00000000000E+00  0.00000000000E+00  0.45593999997E+02  0.45594000000E+02  0.51100000000E-03 0. -1.
         11   -1    0    0    0    0 -0.00000000000E+00 -0.00000000000E+00 -0.45593999997E+02  0.45594000000E+02  0.51100000000E-03 0.  1.
    9900012    2    1    2    0    0  0.98700373504E+01 -0.45075459293E+01  0.39184563868E+02  0.50528860152E+02  0.30000000919E+02 0.  0.
        -12    1    1    2    0    0 -0.98700373504E+01  0.45075459293E+01 -0.39184563868E+02  0.40659139848E+02  0.00000000000E+00 0.  1.
         11    1    3    3    0    0 -0.80352195766E+01  0.28652268488E+01  0.19789744682E+02  0.21550133952E+02  0.51100000000E-03 0. -1.
        -11    1    3    3    0    0  0.79517154366E+01 -0.57553064381E+01  0.40536244661E+01  0.10620037766E+02  0.51100000000E-03 0.  1.
        -12    1    3    3    0    0  0.99535414904E+01 -0.16174663399E+01  0.15341194721E+02  0.18358688434E+02  0.00000000000E+00 0.  1.
</event>
<event>
 7    1  0.4994895E-011  0.5052886E+02  0.7816164E-02  0.1300439E+00
        -11   -1    0    0    0    0  0.00000000000E+00  0.00000000000E+00  0.45593999997E+02  0.45594000000E+02  0.51100000000E-03 0.  1.
         11   -1    0    0    0    0 -0.00000000000E+00 -0.00000000000E+00 -0.45593999997E+02  0.45594000000E+02  0.51100000000E-03 0. -1.
    9900012    2    1    2    0    0 -0.30704784771E+02  0.38142139788E+01 -0.26378652488E+02  0.50528863964E+02  0.30000012505E+02 0.  0.
        -12    1    1    2    0    0  0.30704784771E+02 -0.38142139788E+01  0.26378652488E+02  0.40659136036E+02  0.00000000000E+00 0.  1.
         11    1    3    3    0    0 -0.30657105375E+02  0.55507718286E+01 -0.31824281460E+02  0.44535986220E+02  0.51100000000E-03 0. -1.
        -11    1    3    3    0    0  0.36528381560E+00 -0.21534891377E-02  0.26639266166E+01  0.26888551808E+01  0.51100000000E-03 0.  1.
         12    1    3    3    0    0 -0.41296321105E+00 -0.17344043607E+01  0.27817023558E+01  0.33040225629E+01  0.00000000000E+00 0. -1.
</event>
<event>
 7    1  0.4994895E-011  0.5052886E+02  0.7816164E-02  0.1300439E+00
        -11   -1    0    0    0    0  0.00000000000E+00  0.00000000000E+00  0.45593999997E+02  0.45594000000E+02  0.51100000000E-03 0.  1.
         11   -1    0    0    0    0 -0.00000000000E+00 -0.00000000000E+00 -0.45593999997E+02  0.45594000000E+02  0.51100000000E-03 0. -1.
    9900012    2    1    2    0    0 -0.34470511362E+02  0.19858326505E+02 -0.84021840350E+01  0.50528856112E+02  0.29999988639E+02 0.  0.
        -12    1    1    2    0    0  0.34470511362E+02 -0.19858326505E+02  0.84021840350E+01  0.40659143888E+02  0.00000000000E+00 0.  1.
         11    1    3    3    0    0 -0.20423330524E+02  0.12605384904E+02  0.30269642265E+01  0.24190301176E+02  0.51100000000E-03 0. -1.
        -11    1    3    3    0    0 -0.11718710136E+02 -0.24653521016E+01 -0.11117596752E+02  0.16340351466E+02  0.51100000000E-03 0.  1.
        -12    1    3    3    0    0 -0.23284707017E+01  0.97182937029E+01 -0.31155150980E+00  0.99982034710E+01  0.00000000000E+00 0.  1.
</event>
<event>
 7    1  0.4994895E-011  0.5052887E+02  0.7816164E-02  0.1300439E+00
        -11   -1    0    0    0    0  0.00000000000E+00  0.00000000000E+00  0.45593999997E+02  0.45594000000E+02  0.51100000000E-03 0. -1.
         11   -1    0    0    0    0 -0.00000000000E+00 -0.00000000000E+00 -0.45593999997E+02  0.45594000000E+02  0.51100000000E-03 0.  1.
    9900012    2    1    2    0    0 -0.17451456658E+02  0.85156240494E+01  0.35722484116E+02  0.50528867399E+02  0.30000022946E+02 0.  0.
        -12    1    1    2    0    0  0.17451456658E+02 -0.85156240494E+01 -0.35722484116E+02  0.40659132601E+02  0.00000000000E+00 0.  1.
         11    1    3    3    0    0  0.91679302026E+00  0.10688314189E+02  0.16218115135E+01  0.10849462774E+02  0.51100000000E-03 0. -1.
        -11    1    3    3    0    0 -0.16495486045E+02 -0.18332044404E+01  0.33925931044E+02  0.37768114804E+02  0.51100000000E-03 0.  1.
        -12    1    3    3    0    0 -0.18727636334E+01 -0.33948569889E+00  0.17474155807E+00  0.19112898207E+01  0.00000000000E+00 0.  1.
</event>
<event>
 7    1  0.4994895E-011  0.5052888E+02  0.7816164E-02  0.1300439E+00
        -11   -1    0    0    0    0  0.00000000000E+00  0.00000000000E+00  0.45593999997E+02  0.45594000000E+02  0.51100000000E-03 0.  1.
         11   -1    0    0    0    0 -0.00000000000E+00 -0.00000000000E+00 -0.45593999997E+02  0.45594000000E+02  0.51100000000E-03 0. -1.
    9900012    2    1    2    0    0 -0.36693179144E+02 -0.53980166697E+00 -0.17506659669E+02  0.50528881536E+02  0.30000065917E+02 0.  0.
        -12    1    1    2    0    0  0.36693179144E+02  0.53980166697E+00  0.17506659669E+02  0.40659118464E+02  0.00000000000E+00 0.  1.
         11    1    3    3    0    0 -0.28076400614E+02  0.50224539573E+01 -0.86616674632E+01  0.29808284061E+02  0.51100000000E-03 0. -1.
        -11    1    3    3    0    0  0.24721589812E+01 -0.27581453186E+01  0.26113186544E+01  0.45318783084E+01  0.51100000000E-03 0.  1.
         12    1    3    3    0    0 -0.11088937511E+02 -0.28041103057E+01 -0.11456310860E+02  0.16188719166E+02  0.00000000000E+00 0. -1.
</event>
<event>
 7    1  0.4994895E-011  0.5052887E+02  0.7816164E-02  0.1300439E+00
        -11   -1    0    0    0    0  0.00000000000E+00  0.00000000000E+00  0.45593999997E+02  0.45594000000E+02  0.51100000000E-03 0.  1.
         11   -1    0    0    0    0 -0.00000000000E+00 -0.00000000000E+00 -0.45593999997E+02  0.45594000000E+02  0.51100000000E-03 0. -1.
    9900012    2    1    2    0    0  0.19758541092E+02  0.30837116070E+02 -0.17658903214E+02  0.50528873887E+02  0.30000042666E+02 0.  0.
        -12    1    1    2    0    0 -0.19758541092E+02 -0.30837116070E+02  0.17658903214E+02  0.40659126113E+02  0.00000000000E+00 0.  1.
         11    1    3    3    0    0  0.21141416757E+02  0.16399377627E+02 -0.11191086693E+02  0.29002405256E+02  0.51100000000E-03 0.  1.
        -11    1    3    3    0    0 -0.24621129602E+01 -0.18135797481E+01 -0.40285668725E+01  0.50577092680E+01  0.51100000000E-03 0. -1.
        -12    1    3    3    0    0  0.10792372959E+01  0.16251318191E+02 -0.24392496484E+01  0.16468759362E+02  0.00000000000E+00 0.  1.
</event>
<event>
 7    1  0.4994895E-011  0.5052886E+02  0.7816164E-02  0.1300439E+00
        -11   -1    0    0    0    0  0.00000000000E+00  0.00000000000E+00  0.45593999997E+02  0.45594000000E+02  0.51100000000E-03 0. -1.
         11   -1    0    0    0    0 -0.00000000000E+00 -0.00000000000E+00 -0.45593999997E+02  0.45594000000E+02  0.51100000000E-03 0.  1.
    9900012    2    1    2    0    0 -0.15402000580E+02 -0.29551054591E+02  0.23295475424E+02  0.50528860505E+02  0.30000001990E+02 0.  0.
        -12    1    1    2    0    0  0.15402000580E+02  0.29551054591E+02 -0.23295475424E+02  0.40659139495E+02  0.00000000000E+00 0.  1.
         11    1    3    3    0    0  0.26024439516E+01 -0.79518531668E+01  0.96425994176E+01  0.12766534655E+02  0.51100000000E-03 0. -1.
        -11    1    3    3    0    0 -0.22846403210E+01 -0.89805607013E+01 -0.47980210036E+01  0.10435087816E+02  0.51100000000E-03 0.  1.
        -12    1    3    3    0    0 -0.15719804211E+02 -0.12618640723E+02  0.18450897010E+02  0.27327238034E+02  0.00000000000E+00 0.  1.
</event>
<event>
 7    1  0.4994895E-011  0.5052886E+02  0.7816164E-02  0.1300439E+00
        -11   -1    0    0    0    0  0.00000000000E+00  0.00000000000E+00  0.45593999997E+02  0.45594000000E+02  0.51100000000E-03 0.  1.
         11   -1    0    0    0    0 -0.00000000000E+00 -0.00000000000E+00 -0.45593999997E+02  0.45594000000E+02  0.51100000000E-03 0. -1.
    9900012    2    1    2    0    0  0.10308153527E+02 -0.76893421403E+01 -0.38571767927E+02  0.50528864585E+02  0.30000014393E+02 0.  0.
        -12    1    1    2    0    0 -0.10308153527E+02  0.76893421403E+01  0.38571767927E+02  0.40659135415E+02  0.00000000000E+00 0.  1.
         11    1    3    3    0    0 -0.21262653383E+01 -0.58101160829E+01  0.26679243974E+01  0.67376757148E+01  0.51100000000E-03 0. -1.
        -11    1    3    3    0    0  0.33518493761E+01  0.29175341520E+01 -0.13354259071E+02  0.14074201056E+02  0.51100000000E-03 0.  1.
         12    1    3    3    0    0  0.90825694888E+01 -0.47967602094E+01 -0.27885433253E+02  0.29716987814E+02  0.00000000000E+00 0. -1.
</event>
<event>
 7    1  0.5544198E-011  0.5052886E+02  0.7816164E-02  0.1300439E+00
        -11   -1    0    0    0    0  0.00000000000E+00  0.00000000000E+00  0.45593999997E+02  0.45594000000E+02  0.51100000000E-03 0. -1.
         11   -1    0    0    0    0 -0.00000000000E+00 -0.00000000000E+00 -0.45593999997E+02  0.45594000000E+02  0.51100000000E-03 0.  1.
    9900012    2    1    2    0    0 -0.40617580305E+02  0.65078658618E+00 -0.17187049137E+01  0.50528864500E+02  0.30000014133E+02 0.  0.
        -12    1    1    2    0    0  0.40617580305E+02 -0.65078658618E+00  0.17187049137E+01  0.40659135500E+02  0.00000000000E+00 0.  1.
         11    1    3    3    0    0 -0.35148905361E+02 -0.35435790176E+01 -0.45437160288E+01  0.35618083271E+02  0.51100000000E-03 0. -1.
        -11    1    3    3    0    0  0.12156049234E+01  0.30443807268E+01 -0.40787300372E+01  0.52327801709E+01  0.51100000000E-03 0.  1.
         12    1    3    3    0    0 -0.66842798682E+01  0.11499848770E+01  0.69037411523E+01  0.96780010577E+01  0.00000000000E+00 0. -1.
</event>
<event>
 7    1  0.4994895E-011  0.5052888E+02  0.7816164E-02  0.1300439E+00
        -11   -1    0    0    0    0  0.00000000000E+00  0.00000000000E+00  0.45593999997E+02  0.45594000000E+02  0.51100000000E-03 0.  1.
         11   -1    0    0    0    0 -0.00000000000E+00 -0.00000000000E+00 -0.45593999997E+02  0.45594000000E+02  0.51100000000E-03 0. -1.
    9900012    2    1    2    0    0 -0.13398079253E+02 -0.13173750808E+02 -0.36057005334E+02  0.50528882059E+02  0.30000067508E+02 0.  0.
        -12    1    1    2    0    0  0.13398079253E+02  0.13173750808E+02  0.36057005334E+02  0.40659117941E+02  0.00000000000E+00 0.  1.
         11    1    3    3    0    0  0.64694022202E+01 -0.10107610410E+01 -0.10446583013E+02  0.12329067275E+02  0.51100000000E-03 0. -1.
        -11    1    3    3    0    0 -0.20658759881E+02 -0.61208762858E+01 -0.23157377600E+02  0.31630896666E+02  0.51100000000E-03 0.  1.
        -12    1    3    3    0    0  0.79127840802E+00 -0.60421134809E+01 -0.24530447211E+01  0.65689181179E+01  0.00000000000E+00 0.  1.
</event>
<event>
 7    1  0.4994895E-011  0.5052886E+02  0.7816164E-02  0.1300439E+00
        -11   -1    0    0    0    0  0.00000000000E+00  0.00000000000E+00  0.45593999997E+02  0.45594000000E+02  0.51100000000E-03 0.  1.
         11   -1    0    0    0    0 -0.00000000000E+00 -0.00000000000E+00 -0.45593999997E+02  0.45594000000E+02  0.51100000000E-03 0. -1.
    9900012    2    1    2    0    0  0.16198185364E+02 -0.25240554618E+02 -0.27453574505E+02  0.50528861303E+02  0.30000004416E+02 0.  0.
        -12    1    1    2    0    0 -0.16198185364E+02  0.25240554618E+02  0.27453574505E+02  0.40659138697E+02  0.00000000000E+00 0.  1.
         11    1    3    3    0    0  0.13474031264E+02 -0.12300013607E+02 -0.46490862849E+01  0.18826944967E+02  0.51100000000E-03 0. -1.
        -11    1    3    3    0    0  0.18606891757E+00  0.40645395870E+01 -0.81555714556E+01  0.91141894716E+01  0.51100000000E-03 0.  1.
         12    1    3    3    0    0  0.25380851827E+01 -0.17005080598E+02 -0.14648916765E+02  0.22587726865E+02  0.00000000000E+00 0. -1.
</event>
<event>
 7    1  0.4994895E-011  0.5052887E+02  0.7816164E-02  0.1300439E+00
        -11   -1    0    0    0    0  0.00000000000E+00  0.00000000000E+00  0.45593999997E+02  0.45594000000E+02  0.51100000000E-03 0. -1.
         11   -1    0    0    0    0 -0.00000000000E+00 -0.00000000000E+00 -0.45593999997E+02  0.45594000000E+02  0.51100000000E-03 0.  1.
    9900012    2    1    2    0    0  0.30849401508E+02 -0.26088054136E+02  0.45708547189E+01  0.50528869969E+02  0.30000030758E+02 0.  0.
        -12    1    1    2    0    0 -0.30849401508E+02  0.26088054136E+02 -0.45708547189E+01  0.40659130031E+02  0.00000000000E+00 0.  1.
         11    1    3    3    0    0  0.10164987819E+02  0.90589752345E+00 -0.30110376324E+00  0.10209715540E+02  0.51100000000E-03 0. -1.
        -11    1    3    3    0    0  0.23541978278E+02 -0.28320648524E+02  0.39644342062E+01  0.37040526628E+02  0.51100000000E-03 0.  1.
        -12    1    3    3    0    0 -0.28575645879E+01  0.13266968649E+01  0.90752427594E+00  0.32786278008E+01  0.00000000000E+00 0.  1.
</event>
<event>
 7    1  0.4994895E-011  0.5052888E+02  0.7816164E-02  0.1300439E+00
        -11   -1    0    0    0    0  0.00000000000E+00  0.00000000000E+00  0.45593999997E+02  0.45594000000E+02  0.51100000000E-03 0.  1.
         11   -1    0    0    0    0 -0.00000000000E+00 -0.00000000000E+00 -0.45593999997E+02  0.45594000000E+02  0.51100000000E-03 0. -1.
    9900012    2    1    2    0    0 -0.14317929660E+02  0.30596327710E+02 -0.22627975725E+02  0.50528884608E+02  0.30000075254E+02 0.  0.
        -12    1    1    2    0    0  0.14317929660E+02 -0.30596327710E+02  0.22627975725E+02  0.40659115392E+02  0.00000000000E+00 0.  1.
         11    1    3    3    0    0  0.29371293428E+01  0.21913729412E+02 -0.94038638116E+01  0.24026462918E+02  0.51100000000E-03 0. -1.
        -11    1    3    3    0    0 -0.10217740659E+02  0.10198170609E+02 -0.43535075247E+01  0.15078393017E+02  0.51100000000E-03 0.  1.
         12    1    3    3    0    0 -0.70373183435E+01 -0.15155723108E+01 -0.88706043889E+01  0.11424028673E+02  0.00000000000E+00 0. -1.
</event>
<event>
 7    1  0.4994895E-011  0.5052886E+02  0.7816164E-02  0.1300439E+00
        -11   -1    0    0    0    0  0.00000000000E+00  0.00000000000E+00  0.45593999997E+02  0.45594000000E+02  0.51100000000E-03 0.  1.
         11   -1    0    0    0    0 -0.00000000000E+00 -0.00000000000E+00 -0.45593999997E+02  0.45594000000E+02  0.51100000000E-03 0. -1.
    9900012    2    1    2    0    0  0.31148454215E+02 -0.22813914579E+02 -0.12746164630E+02  0.50528860669E+02  0.30000002488E+02 0.  0.
        -12    1    1    2    0    0 -0.31148454215E+02  0.22813914579E+02  0.12746164630E+02  0.40659139331E+02  0.00000000000E+00 0.  1.
         11    1    3    3    0    0  0.20990227975E+02 -0.42234254019E+01 -0.17850697287E+02  0.27876053998E+02  0.51100000000E-03 0. -1.
        -11    1    3    3    0    0  0.43214459382E+01 -0.65134555456E+01  0.49235874985E+01  0.92380578185E+01  0.51100000000E-03 0.  1.
         12    1    3    3    0    0  0.58367803017E+01 -0.12077033631E+02  0.18094515927E+00  0.13414748853E+02  0.00000000000E+00 0. -1.
</event>
<event>
 7    1  0.4994895E-011  0.5052886E+02  0.7816164E-02  0.1300439E+00
        -11   -1    0    0    0    0  0.00000000000E+00  0.00000000000E+00  0.45593999997E+02  0.45594000000E+02  0.51100000000E-03 0.  1.
         11   -1    0    0    0    0 -0.00000000000E+00 -0.00000000000E+00 -0.45593999997E+02  0.45594000000E+02  0.51100000000E-03 0. -1.
    9900012    2    1    2    0    0 -0.21339146261E+02 -0.25661788616E+01 -0.34514075907E+02  0.50528857451E+02  0.29999992709E+02 0.  0.
        -12    1    1    2    0    0  0.21339146261E+02  0.25661788616E+01  0.34514075907E+02  0.40659142549E+02  0.00000000000E+00 0.  1.
         11    1    3    3    0    0 -0.21764957477E+02 -0.30141418776E+01 -0.33738117205E+02  0.40262376706E+02  0.51100000000E-03 0. -1.
        -11    1    3    3    0    0  0.17980837636E+01 -0.27883736680E+00 -0.52363631749E+01  0.55434966455E+01  0.51100000000E-03 0.  1.
         12    1    3    3    0    0 -0.13722725470E+01  0.72680038289E+00  0.44604044731E+01  0.47229840995E+01  0.00000000000E+00 0. -1.
</event>
<event>
 7    1  0.4994895E-011  0.5052886E+02  0.7816164E-02  0.1300439E+00
        -11   -1    0    0    0    0  0.00000000000E+00  0.00000000000E+00  0.45593999997E+02  0.45594000000E+02  0.51100000000E-03 0.  1.
         11   -1    0    0    0    0 -0.00000000000E+00 -0.00000000000E+00 -0.45593999997E+02  0.45594000000E+02  0.51100000000E-03 0. -1.
    9900012    2    1    2    0    0  0.86958703573E+01  0.27210982952E+01 -0.39625032516E+02  0.50528859095E+02  0.29999997706E+02 0.  0.
        -12    1    1    2    0    0 -0.86958703573E+01 -0.27210982952E+01  0.39625032516E+02  0.40659140905E+02  0.00000000000E+00 0.  1.
         11    1    3    3    0    0  0.24295045235E+01  0.11272325684E+02 -0.37351921069E+01  0.12121034563E+02  0.51100000000E-03 0. -1.
        -11    1    3    3    0    0 -0.65041624377E+00  0.13633691679E+01 -0.54463815987E+01  0.56519810295E+01  0.51100000000E-03 0.  1.
         12    1    3    3    0    0  0.69167820776E+01 -0.99145965565E+01 -0.30443458811E+02  0.32755843502E+02  0.00000000000E+00 0. -1.
</event>
<event>
 7    1  0.4994895E-011  0.5052885E+02  0.7816164E-02  0.1300439E+00
        -11   -1    0    0    0    0  0.00000000000E+00  0.00000000000E+00  0.45593999997E+02  0.45594000000E+02  0.51100000000E-03 0.  1.
         11   -1    0    0    0    0 -0.00000000000E+00 -0.00000000000E+00 -0.45593999997E+02  0.45594000000E+02  0.51100000000E-03 0. -1.
    9900012    2    1    2    0    0  0.29663900893E+02  0.21010487956E+02 -0.18214799524E+02  0.50528849221E+02  0.29999967692E+02 0.  0.
        -12    1    1    2    0    0 -0.29663900893E+02 -0.21010487956E+02  0.18214799524E+02  0.40659150779E+02  0.00000000000E+00 0.  1.
         11    1    3    3    0    0  0.88823921479E+01  0.55427180673E+01 -0.45921485867E+01  0.11432691842E+02  0.51100000000E-03 0. -1.
        -11    1    3    3    0    0 -0.85132747369E+00  0.33200785455E+01  0.63697104698E+01  0.72333181698E+01  0.51100000000E-03 0.  1.
        -12    1    3    3    0    0  0.21632836219E+02  0.12147691344E+02 -0.19992361407E+02  0.31862839210E+02  0.00000000000E+00 0.  1.
</event>
<event>
 7    1  0.4994895E-011  0.5052886E+02  0.7816164E-02  0.1300439E+00
        -11   -1    0    0    0    0  0.00000000000E+00  0.00000000000E+00  0.45593999997E+02  0.45594000000E+02  0.51100000000E-03 0. -1.
         11   -1    0    0    0    0 -0.00000000000E+00 -0.00000000000E+00 -0.45593999997E+02  0.45594000000E+02  0.51100000000E-03 0.  1.
    9900012    2    1    2    0    0 -0.15248261677E+02  0.37632451005E+02 -0.21106644080E+01  0.50528858874E+02  0.29999997034E+02 0.  0.
        -12    1    1    2    0    0  0.15248261677E+02 -0.37632451005E+02  0.21106644080E+01  0.40659141126E+02  0.00000000000E+00 0.  1.
         11    1    3    3    0    0 -0.40613499907E+01  0.32230340197E+02  0.44348180332E+00  0.32488245094E+02  0.51100000000E-03 0. -1.
        -11    1    3    3    0    0 -0.38229126115E+01 -0.28289363266E+01 -0.48144407054E+01  0.67673023533E+01  0.51100000000E-03 0.  1.
        -12    1    3    3    0    0 -0.73639990753E+01  0.82310471350E+01  0.22602944941E+01  0.11273311427E+02  0.00000000000E+00 0.  1.
</event>
<event>
 7    1  0.4994895E-011  0.5052886E+02  0.7816164E-02  0.1300439E+00
        -11   -1    0    0    0    0  0.00000000000E+00  0.00000000000E+00  0.45593999997E+02  0.45594000000E+02  0.51100000000E-03 0.  1.
         11   -1    0    0    0    0 -0.00000000000E+00 -0.00000000000E+00 -0.45593999997E+02  0.45594000000E+02  0.51100000000E-03 0. -1.
    9900012    2    1    2    0    0  0.10253220144E+02  0.34421588618E+02 -0.19057578560E+02  0.50528860968E+02  0.30000003397E+02 0.  0.
        -12    1    1    2    0    0 -0.10253220144E+02 -0.34421588618E+02  0.19057578560E+02  0.40659139032E+02  0.00000000000E+00 0.  1.
         11    1    3    3    0    0 -0.77173394354E+01  0.31073346905E+01 -0.60167711493E+01  0.10267151122E+02  0.51100000000E-03 0. -1.
        -11    1    3    3    0    0  0.19342252096E+02  0.25657175969E+02 -0.97650080776E+01  0.33582268802E+02  0.51100000000E-03 0.  1.
         12    1    3    3    0    0 -0.13716925167E+01  0.56570779580E+01 -0.32757993332E+01  0.66794410436E+01  0.00000000000E+00 0. -1.
</event>
<event>
 7    1  0.4994895E-011  0.5052884E+02  0.7816164E-02  0.1300439E+00
        -11   -1    0    0    0    0  0.00000000000E+00  0.00000000000E+00  0.45593999997E+02  0.45594000000E+02  0.51100000000E-03 0. -1.
         11   -1    0    0    0    0 -0.00000000000E+00 -0.00000000000E+00 -0.45593999997E+02  0.45594000000E+02  0.51100000000E-03 0.  1.
    9900012    2    1    2    0    0 -0.12576882902E+02  0.60739591029E+01  0.38185027198E+02  0.50528840333E+02  0.29999940675E+02 0.  0.
        -12    1    1    2    0    0  0.12576882902E+02 -0.60739591029E+01 -0.38185027198E+02  0.40659159667E+02  0.00000000000E+00 0.  1.
         11    1    3    3    0    0 -0.99739399254E+01  0.64100850514E+01  0.34739065294E+02  0.36706556986E+02  0.51100000000E-03 0. -1.
        -11    1    3    3    0    0  0.52943699741E+01 -0.50845298315E+00  0.32419967248E+00  0.53286005243E+01  0.51100000000E-03 0.  1.
         12    1    3    3    0    0 -0.78973129509E+01  0.17232703471E+00  0.31217622315E+01  0.84936828220E+01  0.00000000000E+00 0. -1.
</event>
<event>
 7    1  0.4994895E-011  0.5052886E+02  0.7816164E-02  0.1300439E+00
        -11   -1    0    0    0    0  0.00000000000E+00  0.00000000000E+00  0.45593999997E+02  0.45594000000E+02  0.51100000000E-03 0.  1.
         11   -1    0    0    0    0 -0.00000000000E+00 -0.00000000000E+00 -0.45593999997E+02  0.45594000000E+02  0.51100000000E-03 0. -1.
    9900012    2    1    2    0    0  0.30301142438E+02 -0.11442135855E+02 -0.24578120047E+02  0.50528859687E+02  0.29999999505E+02 0.  0.
        -12    1    1    2    0    0 -0.30301142438E+02  0.11442135855E+02  0.24578120047E+02  0.40659140313E+02  0.00000000000E+00 0.  1.
         11    1    3    3    0    0  0.22119510007E+02 -0.10060782406E+02 -0.18388499232E+02  0.30473414149E+02  0.51100000000E-03 0. -1.
        -11    1    3    3    0    0 -0.34321107607E+01  0.57196553040E+00 -0.74389912079E+01  0.82124977500E+01  0.51100000000E-03 0.  1.
        -12    1    3    3    0    0  0.11613743191E+02 -0.19533189789E+01  0.12493703931E+01  0.11842947788E+02  0.00000000000E+00 0.  1.
</event>
<event>
 7    1  0.4994895E-011  0.5052885E+02  0.7816164E-02  0.1300439E+00
        -11   -1    0    0    0    0  0.00000000000E+00  0.00000000000E+00  0.45593999997E+02  0.45594000000E+02  0.51100000000E-03 0.  1.
         11   -1    0    0    0    0 -0.00000000000E+00 -0.00000000000E+00 -0.45593999997E+02  0.45594000000E+02  0.51100000000E-03 0. -1.
    9900012    2    1    2    0    0 -0.25750291160E+02  0.19970832200E+02 -0.24315725920E+02  0.50528853912E+02  0.29999981950E+02 0.  0.
        -12    1    1    2    0    0  0.25750291160E+02 -0.19970832200E+02  0.24315725920E+02  0.40659146088E+02  0.00000000000E+00 0.  1.
         11    1    3    3    0    0 -0.55238645493E+01 -0.68805558383E+01 -0.82223638481E+01  0.12060779233E+02  0.51100000000E-03 0. -1.
        -11    1    3    3    0    0 -0.12392562622E+02  0.98922042911E+01 -0.45031531026E+01  0.16483619208E+02  0.51100000000E-03 0.  1.
         12    1    3    3    0    0 -0.78338639892E+01  0.16959183747E+02 -0.11590208970E+02  0.21984455470E+02  0.00000000000E+00 0. -1.
</event>
<event>
 7    1  0.4994895E-011  0.5052884E+02  0.7816164E-02  0.1300439E+00
        -11   -1    0    0    0    0  0.00000000000E+00  0.00000000000E+00  0.45593999997E+02  0.45594000000E+02  0.51100000000E-03 0.  1.
         11   -1    0    0    0    0 -0.00000000000E+00 -0.00000000000E+00 -0.45593999997E+02  0.45594000000E+02  0.51100000000E-03 0. -1.
    9900012    2    1    2    0    0 -0.95071813638E+01  0.11705386373E+02 -0.37759299023E+02  0.50528840757E+02  0.29999941964E+02 0.  0.
        -12    1    1    2    0    0  0.95071813638E+01 -0.11705386373E+02  0.37759299023E+02  0.40659159243E+02  0.00000000000E+00 0.  1.
         11    1    3    3    0    0 -0.82971180120E+01  0.18915536021E+02 -0.35682067719E+02  0.41229232678E+02  0.51100000000E-03 0. -1.
        -11    1    3    3    0    0 -0.27428834869E+00 -0.76002977077E+01 -0.27451536797E+01  0.80855196698E+01  0.51100000000E-03 0.  1.
         12    1    3    3    0    0 -0.93577500319E+00  0.39014805986E+00  0.66792237536E+00  0.12140884089E+01  0.00000000000E+00 0. -1.
</event>
<event>
 7    1  0.4994895E-011  0.5052886E+02  0.7816164E-02  0.1300439E+00
        -11   -1    0    0    0    0  0.00000000000E+00  0.00000000000E+00  0.45593999997E+02  0.45594000000E+02  0.51100000000E-03 0.  1.
         11   -1    0    0    0    0 -0.00000000000E+00 -0.00000000000E+00 -0.45593999997E+02  0.45594000000E+02  0.51100000000E-03 0. -1.
    9900012    2    1    2    0    0  0.20734322320E+02  0.16911350215E+01 -0.34934127455E+02  0.50528864240E+02  0.30000013343E+02 0.  0.
        -12    1    1    2    0    0 -0.20734322320E+02 -0.16911350215E+01  0.34934127455E+02  0.40659135760E+02  0.00000000000E+00 0.  1.
         11    1    3    3    0    0 -0.16003972670E+01  0.29266612806E+01 -0.82342620069E+01  0.88842382185E+01  0.51100000000E-03 0. -1.
        -11    1    3    3    0    0  0.20106682821E+02 -0.10288083952E+02 -0.17815778886E+02  0.28766740222E+02  0.51100000000E-03 0.  1.
        -12    1    3    3    0    0  0.22280367664E+01  0.90525576926E+01 -0.88840865621E+01  0.12877885799E+02  0.00000000000E+00 0.  1.
</event>
<event>
 7    1  0.4994895E-011  0.5052886E+02  0.7816164E-02  0.1300439E+00
        -11   -1    0    0    0    0  0.00000000000E+00  0.00000000000E+00  0.45593999997E+02  0.45594000000E+02  0.51100000000E-03 0. -1.
         11   -1    0    0    0    0 -0.00000000000E+00 -0.00000000000E+00 -0.45593999997E+02  0.45594000000E+02  0.51100000000E-03 0.  1.
    9900012    2    1    2    0    0 -0.10468376814E+02  0.23131156705E+02  0.31757336859E+02  0.50528858740E+02  0.29999996625E+02 0.  0.
        -12    1    1    2    0    0  0.10468376814E+02 -0.23131156705E+02 -0.31757336859E+02  0.40659141260E+02  0.00000000000E+00 0.  1.
         11    1    3    3    0    0 -0.18489514656E+02  0.14799754788E+02  0.14426001522E+02  0.27730928837E+02  0.51100000000E-03 0. -1.
        -11    1    3    3    0    0  0.30671518613E+01  0.14593751343E+01 -0.12032541300E+00  0.33987754838E+01  0.51100000000E-03 0.  1.
         12    1    3    3    0    0  0.49539859809E+01  0.68720267828E+01  0.17451660751E+02  0.19399154419E+02  0.00000000000E+00 0. -1.
</event>
<event>
 7    1  0.5810386E-011  0.5052885E+02  0.7816164E-02  0.1300439E+00
        -11   -1    0    0    0    0  0.00000000000E+00  0.00000000000E+00  0.45593999997E+02  0.45594000000E+02  0.51100000000E-03 0.  1.
         11   -1    0    0    0    0 -0.00000000000E+00 -0.00000000000E+00 -0.45593999997E+02  0.45594000000E+02  0.51100000000E-03 0. -1.
    9900012    2    1    2    0    0 -0.18612085427E+02  0.29544818879E+02 -0.20829308979E+02  0.50528853931E+02  0.29999982008E+02 0.  0.
        -12    1    1    2    0    0  0.18612085427E+02 -0.29544818879E+02  0.20829308979E+02  0.40659146069E+02  0.00000000000E+00 0.  1.
         11    1    3    3    0    0 -0.16019620662E+02  0.25008991864E+02 -0.19589409999E+02  0.35578405032E+02  0.51100000000E-03 0. -1.
        -11    1    3    3    0    0  0.42767791289E+01 -0.66487526626E+00 -0.40099299029E+01  0.59002065154E+01  0.51100000000E-03 0.  1.
         12    1    3    3    0    0 -0.68692438938E+01  0.52007022810E+01  0.27700309231E+01  0.90502423837E+01  0.00000000000E+00 0. -1.
</event>
<event>
 7    1  0.4994895E-011  0.5052887E+02  0.7816164E-02  0.1300439E+00
        -11   -1    0    0    0    0  0.00000000000E+00  0.00000000000E+00  0.45593999997E+02  0.45594000000E+02  0.51100000000E-03 0.  1.
         11   -1    0    0    0    0 -0.00000000000E+00 -0.00000000000E+00 -0.45593999997E+02  0.45594000000E+02  0.51100000000E-03 0. -1.
    9900012    2    1    2    0    0  0.33481402505E+02  0.10811229634E+02 -0.20378376524E+02  0.50528865360E+02  0.30000016748E+02 0.  0.
        -12    1    1    2    0    0 -0.33481402505E+02 -0.10811229634E+02  0.20378376524E+02  0.40659134640E+02  0.00000000000E+00 0.  1.
         11    1    3    3    0    0  0.61773501045E+01  0.14623550707E+01 -0.17586006926E+02  0.18696678222E+02  0.51100000000E-03 0. -1.
        -11    1    3    3    0    0  0.17006879305E+02  0.14466434308E-01  0.20152225334E+01  0.17125865674E+02  0.51100000000E-03 0.  1.
        -12    1    3    3    0    0  0.10297173096E+02  0.93344081290E+01 -0.48075921310E+01  0.14706321463E+02  0.00000000000E+00 0.  1.
</event>
<event>
 7    1  0.4994895E-011  0.5052887E+02  0.7816164E-02  0.1300439E+00
        -11   -1    0    0    0    0  0.00000000000E+00  0.00000000000E+00  0.45593999997E+02  0.45594000000E+02  0.51100000000E-03 0.  1.
         11   -1    0    0    0    0 -0.00000000000E+00 -0.00000000000E+00 -0.45593999997E+02  0.45594000000E+02  0.51100000000E-03 0. -1.
    9900012    2    1    2    0    0  0.37891728170E+01 -0.31676704262E+02 -0.25207016999E+02  0.50528866591E+02  0.30000020491E+02 0.  0.
        -12    1    1    2    0    0 -0.37891728170E+01  0.31676704262E+02  0.25207016999E+02  0.40659133409E+02  0.00000000000E+00 0.  1.
         11    1    3    3    0    0  0.89365530074E+01 -0.82323660793E+01  0.13035655516E+01  0.12220192892E+02  0.51100000000E-03 0. -1.
        -11    1    3    3    0    0 -0.79296745408E+01 -0.83583166436E+01 -0.69688576779E+01  0.13464998070E+02  0.51100000000E-03 0.  1.
         12    1    3    3    0    0  0.27822943503E+01 -0.15086021539E+02 -0.19541724873E+02  0.24843675629E+02  0.00000000000E+00 0. -1.
</event>
<event>
 7    1  0.4994895E-011  0.5052886E+02  0.7816164E-02  0.1300439E+00
        -11   -1    0    0    0    0  0.00000000000E+00  0.00000000000E+00  0.45593999997E+02  0.45594000000E+02  0.51100000000E-03 0.  1.
         11   -1    0    0    0    0 -0.00000000000E+00 -0.00000000000E+00 -0.45593999997E+02  0.45594000000E+02  0.51100000000E-03 0. -1.
    9900012    2    1    2    0    0 -0.80108340644E+01 -0.26073166555E+02 -0.30152642293E+02  0.50528864325E+02  0.30000013601E+02 0.  0.
        -12    1    1    2    0    0  0.80108340644E+01  0.26073166555E+02  0.30152642293E+02  0.40659135675E+02  0.00000000000E+00 0.  1.
         11    1    3    3    0    0  0.25708932411E+01  0.31096521752E+01  0.11206929914E+01  0.41875269253E+01  0.51100000000E-03 0.  1.
        -11    1    3    3    0    0 -0.24833116778E+00 -0.20489267194E+02 -0.16343435216E+02  0.26210295943E+02  0.51100000000E-03 0. -1.
        -12    1    3    3    0    0 -0.10333396138E+02 -0.86935515371E+01 -0.14929900068E+02  0.20131041456E+02  0.00000000000E+00 0.  1.
</event>
<event>
 7    1  0.4994895E-011  0.5052886E+02  0.7816164E-02  0.1300439E+00
        -11   -1    0    0    0    0  0.00000000000E+00  0.00000000000E+00  0.45593999997E+02  0.45594000000E+02  0.51100000000E-03 0.  1.
         11   -1    0    0    0    0 -0.00000000000E+00 -0.00000000000E+00 -0.45593999997E+02  0.45594000000E+02  0.51100000000E-03 0. -1.
    9900012    2    1    2    0    0  0.13103093797E+02 -0.36278441310E+02  0.12858827401E+02  0.50528858186E+02  0.29999994942E+02 0.  0.
        -12    1    1    2    0    0 -0.13103093797E+02  0.36278441310E+02 -0.12858827401E+02  0.40659141814E+02  0.00000000000E+00 0.  1.
         11    1    3    3    0    0  0.22978152021E+01 -0.27985720782E+02  0.17914673255E+02  0.33307897569E+02  0.51100000000E-03 0. -1.
        -11    1    3    3    0    0  0.10528515318E+02 -0.10119659129E+02 -0.46840029660E+01  0.15336134446E+02  0.51100000000E-03 0.  1.
         12    1    3    3    0    0  0.27676327617E+00  0.18269386010E+01 -0.37184288724E+00  0.18848261712E+01  0.00000000000E+00 0. -1.
</event>
<event>
 7    1  0.4994895E-011  0.5052886E+02  0.7816164E-02  0.1300439E+00
        -11   -1    0    0    0    0  0.00000000000E+00  0.00000000000E+00  0.45593999997E+02  0.45594000000E+02  0.51100000000E-03 0.  1.
         11   -1    0    0    0    0 -0.00000000000E+00 -0.00000000000E+00 -0.45593999997E+02  0.45594000000E+02  0.51100000000E-03 0. -1.
    9900012    2    1    2    0    0 -0.13442680805E+02  0.36869290547E+02 -0.10635562884E+02  0.50528862644E+02  0.30000008494E+02 0.  0.
        -12    1    1    2    0    0  0.13442680805E+02 -0.36869290547E+02  0.10635562884E+02  0.40659137356E+02  0.00000000000E+00 0.  1.
         11    1    3    3    0    0 -0.90688549410E+01  0.33353445738E+02  0.32472603409E+01  0.34716583538E+02  0.51100000000E-03 0. -1.
        -11    1    3    3    0    0 -0.31267837104E+01 -0.61811637629E+00 -0.69287118385E+01  0.76266566874E+01  0.51100000000E-03 0.  1.
         12    1    3    3    0    0 -0.12470421533E+01  0.41339611847E+01 -0.69541113867E+01  0.81856224190E+01  0.00000000000E+00 0. -1.
</event>
<event>
 7    1  0.4994895E-011  0.5052887E+02  0.7816164E-02  0.1300439E+00
        -11   -1    0    0    0    0  0.00000000000E+00  0.00000000000E+00  0.45593999997E+02  0.45594000000E+02  0.51100000000E-03 0.  1.
         11   -1    0    0    0    0 -0.00000000000E+00 -0.00000000000E+00 -0.45593999997E+02  0.45594000000E+02  0.51100000000E-03 0. -1.
    9900012    2    1    2    0    0  0.58114699042E+01 -0.34485154866E+02 -0.20740432396E+02  0.50528872802E+02  0.30000039368E+02 0.  0.
        -12    1    1    2    0    0 -0.58114699042E+01  0.34485154866E+02  0.20740432396E+02  0.40659127198E+02  0.00000000000E+00 0.  1.
         11    1    3    3    0    0 -0.81397311995E+01 -0.41044152352E+01 -0.12297405539E+02  0.15307763771E+02  0.51100000000E-03 0. -1.
        -11    1    3    3    0    0  0.65221766631E+01 -0.15544549924E+02 -0.79083203321E+01  0.18620240372E+02  0.51100000000E-03 0.  1.
         12    1    3    3    0    0  0.74290244406E+01 -0.14836189706E+02 -0.53470652449E+00  0.16600868658E+02  0.00000000000E+00 0. -1.
</event>
<event>
 7    1  0.4994895E-011  0.5052885E+02  0.7816164E-02  0.1300439E+00
        -11   -1    0    0    0    0  0.00000000000E+00  0.00000000000E+00  0.45593999997E+02  0.45594000000E+02  0.51100000000E-03 0.  1.
         11   -1    0    0    0    0 -0.00000000000E+00 -0.00000000000E+00 -0.45593999997E+02  0.45594000000E+02  0.51100000000E-03 0. -1.
    9900012    2    1    2    0    0  0.65560276230E+01 -0.32735507239E+02 -0.23207138786E+02  0.50528853145E+02  0.29999979618E+02 0.  0.
        -12    1    1    2    0    0 -0.65560276230E+01  0.32735507239E+02  0.23207138786E+02  0.40659146855E+02  0.00000000000E+00 0.  1.
         11    1    3    3    0    0 -0.55730154749E+01 -0.19535326308E+02 -0.12866275178E+02  0.24046382528E+02  0.51100000000E-03 0. -1.
        -11    1    3    3    0    0  0.14731057457E+02 -0.46727915106E+01 -0.61892429452E+01  0.16647695420E+02  0.51100000000E-03 0.  1.
        -12    1    3    3    0    0 -0.26020143589E+01 -0.85273894202E+01 -0.41516206629E+01  0.98347751970E+01  0.00000000000E+00 0.  1.
</event>
<event>
 7    1  0.4994895E-011  0.5052885E+02  0.7816164E-02  0.1300439E+00
        -11   -1    0    0    0    0  0.00000000000E+00  0.00000000000E+00  0.45593999997E+02  0.45594000000E+02  0.51100000000E-03 0. -1.
         11   -1    0    0    0    0 -0.00000000000E+00 -0.00000000000E+00 -0.45593999997E+02  0.45594000000E+02  0.51100000000E-03 0.  1.
    9900012    2    1    2    0    0  0.40334494412E+02  0.29904289898E+01 -0.41656017541E+01  0.50528851669E+02  0.29999975134E+02 0.  0.
        -12    1    1    2    0    0 -0.40334494412E+02 -0.29904289898E+01  0.41656017541E+01  0.40659148331E+02  0.00000000000E+00 0.  1.
         11    1    3    3    0    0  0.91371498394E+01  0.15507337111E+00  0.70607036934E+01  0.11548380486E+02  0.51100000000E-03 0. -1.
        -11    1    3    3    0    0  0.28043824744E+02 -0.53476109984E+01 -0.89727141668E+01  0.29925952774E+02  0.51100000000E-03 0.  1.
        -12    1    3    3    0    0  0.31535198289E+01  0.81829666172E+01 -0.22535912807E+01  0.90545184096E+01  0.00000000000E+00 0.  1.
</event>
<event>
 7    1  0.4994895E-011  0.5052886E+02  0.7816164E-02  0.1300439E+00
        -11   -1    0    0    0    0  0.00000000000E+00  0.00000000000E+00  0.45593999997E+02  0.45594000000E+02  0.51100000000E-03 0. -1.
         11   -1    0    0    0    0 -0.00000000000E+00 -0.00000000000E+00 -0.45593999997E+02  0.45594000000E+02  0.51100000000E-03 0.  1.
    9900012    2    1    2    0    0 -0.18039487449E+02  0.71975039231E+01  0.35720276758E+02  0.50528863980E+02  0.30000012555E+02 0.  0.
        -12    1    1    2    0    0  0.18039487449E+02 -0.71975039231E+01 -0.35720276758E+02  0.40659136020E+02  0.00000000000E+00 0.  1.
         11    1    3    3    0    0  0.35921434299E+01 -0.21403268010E+01  0.21965642983E+02  0.22360097611E+02  0.51100000000E-03 0. -1.
        -11    1    3    3    0    0 -0.16237110573E+02  0.60477742042E+01  0.13283102850E+02  0.21832548046E+02  0.51100000000E-03 0.  1.
         12    1    3    3    0    0 -0.53945203062E+01  0.32900565199E+01  0.47153092548E+00  0.63362183242E+01  0.00000000000E+00 0. -1.
</event>
<event>
 7    1  0.4994895E-011  0.5052899E+02  0.7816164E-02  0.1300438E+00
        -11   -1    0    0    0    0  0.00000000000E+00  0.00000000000E+00  0.45593999997E+02  0.45594000000E+02  0.51100000000E-03 0.  1.
         11   -1    0    0    0    0 -0.00000000000E+00 -0.00000000000E+00 -0.45593999997E+02  0.45594000000E+02  0.51100000000E-03 0. -1.
    9900012    2    1    2    0    0 -0.19990253568E+02  0.17383916347E+02 -0.30843866202E+02  0.50528992787E+02  0.30000404071E+02 0.  0.
        -12    1    1    2    0    0  0.19990253568E+02 -0.17383916347E+02  0.30843866202E+02  0.40659007213E+02  0.00000000000E+00 0.  1.
         11    1    3    3    0    0  0.25315395874E+01  0.77905088470E+01 -0.46920161776E+01  0.94401131799E+01  0.51100000000E-03 0. -1.
        -11    1    3    3    0    0 -0.94691876275E+01 -0.60662104790E+01 -0.81004888020E+01  0.13859377439E+02  0.51100000000E-03 0.  1.
        -12    1    3    3    0    0 -0.13052605528E+02  0.15659617979E+02 -0.18051361223E+02  0.27229502168E+02  0.00000000000E+00 0.  1.
</event>
<event>
 7    1  0.4994895E-011  0.5052886E+02  0.7816164E-02  0.1300439E+00
        -11   -1    0    0    0    0  0.00000000000E+00  0.00000000000E+00  0.45593999997E+02  0.45594000000E+02  0.51100000000E-03 0.  1.
         11   -1    0    0    0    0 -0.00000000000E+00 -0.00000000000E+00 -0.45593999997E+02  0.45594000000E+02  0.51100000000E-03 0. -1.
    9900012    2    1    2    0    0  0.21615158572E+01 -0.23819441746E+02 -0.32880506116E+02  0.50528860334E+02  0.30000001472E+02 0.  0.
        -12    1    1    2    0    0 -0.21615158572E+01  0.23819441746E+02  0.32880506116E+02  0.40659139666E+02  0.00000000000E+00 0.  1.
         11    1    3    3    0    0  0.59972043694E+01 -0.21219232706E-01 -0.19562157610E+02  0.20460814283E+02  0.51100000000E-03 0. -1.
        -11    1    3    3    0    0 -0.50609110876E+00 -0.15283007463E+02 -0.14218987952E+02  0.20880758222E+02  0.51100000000E-03 0.  1.
         12    1    3    3    0    0 -0.33295974035E+01 -0.85152150512E+01  0.90063944559E+00  0.91872878288E+01  0.00000000000E+00 0. -1.
</event>
<event>
 7    1  0.4994895E-011  0.5052886E+02  0.7816164E-02  0.1300439E+00
        -11   -1    0    0    0    0  0.00000000000E+00  0.00000000000E+00  0.45593999997E+02  0.45594000000E+02  0.51100000000E-03 0. -1.
         11   -1    0    0    0    0 -0.00000000000E+00 -0.00000000000E+00 -0.45593999997E+02  0.45594000000E+02  0.51100000000E-03 0.  1.
    9900012    2    1    2    0    0  0.30436751407E+02  0.84315189644E+01  0.25606235488E+02  0.50528860263E+02  0.30000001257E+02 0.  0.
        -12    1    1    2    0    0 -0.30436751407E+02 -0.84315189644E+01 -0.25606235488E+02  0.40659139737E+02  0.00000000000E+00 0.  1.
         11    1    3    3    0    0  0.91504372121E+01  0.15508450472E+02  0.17533426367E+02  0.25132918208E+02  0.51100000000E-03 0. -1.
        -11    1    3    3    0    0  0.16599129851E+02 -0.21047106588E+01  0.80380999917E+01  0.18562649879E+02  0.51100000000E-03 0.  1.
        -12    1    3    3    0    0  0.46871843438E+01 -0.49722208491E+01  0.34709128634E-01  0.68332921764E+01  0.00000000000E+00 0.  1.
</event>
<event>
 7    1  0.4994895E-011  0.5052885E+02  0.7816164E-02  0.1300439E+00
        -11   -1    0    0    0    0  0.00000000000E+00  0.00000000000E+00  0.45593999997E+02  0.45594000000E+02  0.51100000000E-03 0.  1.
         11   -1    0    0    0    0 -0.00000000000E+00 -0.00000000000E+00 -0.45593999997E+02  0.45594000000E+02  0.51100000000E-03 0. -1.
    9900012    2    1    2    0    0  0.35433283041E+02 -0.53436485531E+01 -0.19211819202E+02  0.50528854363E+02  0.29999983321E+02 0.  0.
        -12    1    1    2    0    0 -0.35433283041E+02  0.53436485531E+01  0.19211819202E+02  0.40659145637E+02  0.00000000000E+00 0.  1.
         11    1    3    3    0    0 -0.42026873792E+01 -0.36817680406E+01 -0.18566914711E+01  0.58877245683E+01  0.51100000000E-03 0. -1.
        -11    1    3    3    0    0  0.33133867104E+02 -0.23016021887E+01 -0.97505821609E+01  0.34615377719E+02  0.51100000000E-03 0.  1.
         12    1    3    3    0    0  0.65021033164E+01  0.63972167629E+00 -0.76045455696E+01  0.10025752076E+02  0.00000000000E+00 0. -1.
</event>
<event>
 7    1  0.4994895E-011  0.5052885E+02  0.7816164E-02  0.1300439E+00
        -11   -1    0    0    0    0  0.00000000000E+00  0.00000000000E+00  0.45593999997E+02  0.45594000000E+02  0.51100000000E-03 0.  1.
         11   -1    0    0    0    0 -0.00000000000E+00 -0.00000000000E+00 -0.45593999997E+02  0.45594000000E+02  0.51100000000E-03 0. -1.
    9900012    2    1    2    0    0  0.34630636901E+02  0.20900608374E+02 -0.41291861601E+01  0.50528848251E+02  0.29999964745E+02 0.  0.
        -12    1    1    2    0    0 -0.34630636901E+02 -0.20900608374E+02  0.41291861601E+01  0.40659151749E+02  0.00000000000E+00 0.  1.
         11    1    3    3    0    0 -0.18936953066E+01  0.11586307133E+02 -0.37846775740E+01  0.12335006263E+02  0.51100000000E-03 0. -1.
        -11    1    3    3    0    0  0.29253637609E+02  0.58589322980E+01 -0.22568058002E+01  0.29919819079E+02  0.51100000000E-03 0.  1.
         12    1    3    3    0    0  0.72706945988E+01  0.34553689424E+01  0.19122972142E+01  0.82740229098E+01  0.00000000000E+00 0. -1.
</event>
<event>
 7    1  0.4994895E-011  0.5052886E+02  0.7816164E-02  0.1300439E+00
        -11   -1    0    0    0    0  0.00000000000E+00  0.00000000000E+00  0.45593999997E+02  0.45594000000E+02  0.51100000000E-03 0.  1.
         11   -1    0    0    0    0 -0.00000000000E+00 -0.00000000000E+00 -0.45593999997E+02  0.45594000000E+02  0.51100000000E-03 0. -1.
    9900012    2    1    2    0    0 -0.32985938890E+02  0.21446323616E+02  0.10254208243E+02  0.50528858989E+02  0.29999997382E+02 0.  0.
        -12    1    1    2    0    0  0.32985938890E+02 -0.21446323616E+02 -0.10254208243E+02  0.40659141011E+02  0.00000000000E+00 0.  1.
         11    1    3    3    0    0 -0.16363402869E+01  0.43829352454E+01  0.89379227167E+01  0.10088319664E+02  0.51100000000E-03 0. -1.
        -11    1    3    3    0    0 -0.58197976319E+01  0.28626145189E+01 -0.75098110125E+01  0.99227953755E+01  0.51100000000E-03 0.  1.
        -12    1    3    3    0    0 -0.25529800971E+02  0.14200773852E+02  0.88260965389E+01  0.30517743949E+02  0.00000000000E+00 0.  1.
</event>
<event>
 7    1  0.4994895E-011  0.5052886E+02  0.7816164E-02  0.1300439E+00
        -11   -1    0    0    0    0  0.00000000000E+00  0.00000000000E+00  0.45593999997E+02  0.45594000000E+02  0.51100000000E-03 0.  1.
         11   -1    0    0    0    0 -0.00000000000E+00 -0.00000000000E+00 -0.45593999997E+02  0.45594000000E+02  0.51100000000E-03 0. -1.
    9900012    2    1    2    0    0  0.85065440676E+01  0.45929659609E+01 -0.39493151907E+02  0.50528859873E+02  0.30000000070E+02 0.  0.
        -12    1    1    2    0    0 -0.85065440676E+01 -0.45929659609E+01  0.39493151907E+02  0.40659140127E+02  0.00000000000E+00 0.  1.
         11    1    3    3    0    0  0.96837537884E+01 -0.11166461024E+01 -0.19218829823E+02  0.21549603383E+02  0.51100000000E-03 0. -1.
        -11    1    3    3    0    0 -0.65096174678E+01  0.59353145458E+01 -0.21729490128E+02  0.23447256125E+02  0.51100000000E-03 0.  1.
        -12    1    3    3    0    0  0.53324077470E+01 -0.22570248243E+00  0.14551680436E+01  0.55320003639E+01  0.00000000000E+00 0.  1.
</event>
<event>
 7    1  0.4994895E-011  0.5052886E+02  0.7816164E-02  0.1300439E+00
        -11   -1    0    0    0    0  0.00000000000E+00  0.00000000000E+00  0.45593999997E+02  0.45594000000E+02  0.51100000000E-03 0.  1.
         11   -1    0    0    0    0 -0.00000000000E+00 -0.00000000000E+00 -0.45593999997E+02  0.45594000000E+02  0.51100000000E-03 0. -1.
    9900012    2    1    2    0    0  0.11305910068E+02  0.62278451489E+01 -0.38555882038E+02  0.50528859608E+02  0.29999999266E+02 0.  0.
        -12    1    1    2    0    0 -0.11305910068E+02 -0.62278451489E+01  0.38555882038E+02  0.40659140392E+02  0.00000000000E+00 0.  1.
         11    1    3    3    0    0  0.17139060439E+02 -0.58524622848E+01 -0.28400046057E+02  0.33683249900E+02  0.51100000000E-03 0. -1.
        -11    1    3    3    0    0 -0.31662484203E+01  0.72995158040E+01 -0.63185174962E+01  0.10160301356E+02  0.51100000000E-03 0.  1.
         12    1    3    3    0    0 -0.26669019502E+01  0.47807916297E+01 -0.38373184846E+01  0.66853083527E+01  0.00000000000E+00 0. -1.
</event>
<event>
 7    1  0.4994895E-011  0.5052887E+02  0.7816164E-02  0.1300439E+00
        -11   -1    0    0    0    0  0.00000000000E+00  0.00000000000E+00  0.45593999997E+02  0.45594000000E+02  0.51100000000E-03 0.  1.
         11   -1    0    0    0    0 -0.00000000000E+00 -0.00000000000E+00 -0.45593999997E+02  0.45594000000E+02  0.51100000000E-03 0. -1.
    9900012    2    1    2    0    0 -0.29240307595E+02 -0.71453591107E+01 -0.27333366843E+02  0.50528872021E+02  0.30000036995E+02 0.  0.
        -12    1    1    2    0    0  0.29240307595E+02  0.71453591107E+01  0.27333366843E+02  0.40659127979E+02  0.00000000000E+00 0.  1.
         11    1    3    3    0    0  0.22373650658E+01 -0.58491071203E+01  0.13704065331E+01  0.64106061234E+01  0.51100000000E-03 0.  1.
        -11    1    3    3    0    0 -0.65018192944E+01  0.43286980497E+01 -0.81328049450E+01  0.11276249265E+02  0.51100000000E-03 0. -1.
         12    1    3    3    0    0 -0.24975853366E+02 -0.56249500401E+01 -0.20570968431E+02  0.32842016633E+02  0.00000000000E+00 0. -1.
</event>
<event>
 7    1  0.4994895E-011  0.5052886E+02  0.7816164E-02  0.1300439E+00
        -11   -1    0    0    0    0  0.00000000000E+00  0.00000000000E+00  0.45593999997E+02  0.45594000000E+02  0.51100000000E-03 0. -1.
         11   -1    0    0    0    0 -0.00000000000E+00 -0.00000000000E+00 -0.45593999997E+02  0.45594000000E+02  0.51100000000E-03 0.  1.
    9900012    2    1    2    0    0 -0.40498564858E+02 -0.31343859169E+01 -0.17909996356E+01  0.50528858220E+02  0.29999995044E+02 0.  0.
        -12    1    1    2    0    0  0.40498564858E+02  0.31343859169E+01  0.17909996356E+01  0.40659141780E+02  0.00000000000E+00 0.  1.
         11    1    3    3    0    0 -0.40092161578E+02 -0.57227665048E+01  0.95471719146E-01  0.40498649256E+02  0.51100000000E-03 0. -1.
        -11    1    3    3    0    0  0.10431785860E+01 -0.30204782754E+00 -0.52519468932E+01  0.53630589109E+01  0.51100000000E-03 0.  1.
         12    1    3    3    0    0 -0.14495818658E+01  0.28904284154E+01  0.33654755385E+01  0.46671500523E+01  0.00000000000E+00 0. -1.
</event>
<event>
 7    1  0.4994895E-011  0.5052884E+02  0.7816164E-02  0.1300439E+00
        -11   -1    0    0    0    0  0.00000000000E+00  0.00000000000E+00  0.45593999997E+02  0.45594000000E+02  0.51100000000E-03 0. -1.
         11   -1    0    0    0    0 -0.00000000000E+00 -0.00000000000E+00 -0.45593999997E+02  0.45594000000E+02  0.51100000000E-03 0.  1.
    9900012    2    1    2    0    0 -0.24175851708E+02 -0.29669661416E+02  0.13726137607E+02  0.50528837835E+02  0.29999933083E+02 0.  0.
        -12    1    1    2    0    0  0.24175851708E+02  0.29669661416E+02 -0.13726137607E+02  0.40659162165E+02  0.00000000000E+00 0.  1.
         11    1    3    3    0    0 -0.17755032160E+02 -0.19606604932E+02  0.17368359358E+02  0.31643641242E+02  0.51100000000E-03 0. -1.
        -11    1    3    3    0    0  0.10282097777E+01  0.63865868228E+00 -0.55739943682E+01  0.57039033773E+01  0.51100000000E-03 0.  1.
         12    1    3    3    0    0 -0.74490293251E+01 -0.10701715167E+02  0.19317726169E+01  0.13181293216E+02  0.00000000000E+00 0. -1.
</event>
<event>
 7    1  0.4994895E-011  0.5052890E+02  0.7816164E-02  0.1300439E+00
        -11   -1    0    0    0    0  0.00000000000E+00  0.00000000000E+00  0.45593999997E+02  0.45594000000E+02  0.51100000000E-03 0.  1.
         11   -1    0    0    0    0 -0.00000000000E+00 -0.00000000000E+00 -0.45593999997E+02  0.45594000000E+02  0.51100000000E-03 0. -1.
    9900012    2    1    2    0    0 -0.12157770296E+02  0.38343244642E+02 -0.59284636522E+01  0.50528899303E+02  0.30000119921E+02 0.  0.
        -12    1    1    2    0    0  0.12157770296E+02 -0.38343244642E+02  0.59284636522E+01  0.40659100697E+02  0.00000000000E+00 0.  1.
         11    1    3    3    0    0  0.65753577307E+01  0.97372295754E+01  0.55869982509E+01  0.13010131391E+02  0.51100000000E-03 0. -1.
        -11    1    3    3    0    0 -0.73534731118E+01  0.46323030704E+01 -0.55726317312E+01  0.10324050717E+02  0.51100000000E-03 0.  1.
         12    1    3    3    0    0 -0.11379654915E+02  0.23973711996E+02 -0.59428301719E+01  0.27194717195E+02  0.00000000000E+00 0. -1.
</event>
<event>
 7    1  0.4994895E-011  0.5052886E+02  0.7816164E-02  0.1300439E+00
        -11   -1    0    0    0    0  0.00000000000E+00  0.00000000000E+00  0.45593999997E+02  0.45594000000E+02  0.51100000000E-03 0. -1.
         11   -1    0    0    0    0 -0.00000000000E+00 -0.00000000000E+00 -0.45593999997E+02  0.45594000000E+02  0.51100000000E-03 0.  1.
    9900012    2    1    2    0    0  0.32984790316E+02 -0.14032265364E+02  0.19190224196E+02  0.50528861198E+02  0.30000004096E+02 0.  0.
        -12    1    1    2    0    0 -0.32984790316E+02  0.14032265364E+02 -0.19190224196E+02  0.40659138802E+02  0.00000000000E+00 0.  1.
         11    1    3    3    0    0  0.11799486886E+02  0.81557299255E+01  0.75480875372E+01  0.16208560921E+02  0.51100000000E-03 0. -1.
        -11    1    3    3    0    0  0.44772949643E+01 -0.98616839634E+01  0.74311976434E+01  0.13134750834E+02  0.51100000000E-03 0.  1.
         12    1    3    3    0    0  0.16708008465E+02 -0.12326311326E+02  0.42109390157E+01  0.21185549443E+02  0.00000000000E+00 0. -1.
</event>
<event>
 7    1  0.4994895E-011  0.5052886E+02  0.7816164E-02  0.1300439E+00
        -11   -1    0    0    0    0  0.00000000000E+00  0.00000000000E+00  0.45593999997E+02  0.45594000000E+02  0.51100000000E-03 0. -1.
         11   -1    0    0    0    0 -0.00000000000E+00 -0.00000000000E+00 -0.45593999997E+02  0.45594000000E+02  0.51100000000E-03 0.  1.
    9900012    2    1    2    0    0  0.20389309308E+02  0.35177067635E+02 -0.12438935982E+00  0.50528862108E+02  0.30000006862E+02 0.  0.
        -12    1    1    2    0    0 -0.20389309308E+02 -0.35177067635E+02  0.12438935982E+00  0.40659137892E+02  0.00000000000E+00 0.  1.
         11    1    3    3    0    0  0.17361758618E+02  0.25153226372E+02  0.38892261685E+01  0.30809763707E+02  0.51100000000E-03 0. -1.
        -11    1    3    3    0    0 -0.54449234863E+01  0.78214709042E+01  0.10798708573E+01  0.95910750287E+01  0.51100000000E-03 0.  1.
         12    1    3    3    0    0  0.84724741761E+01  0.22023703591E+01 -0.50934863856E+01  0.10128023372E+02  0.00000000000E+00 0. -1.
</event>
<event>
 7    1  0.4994895E-011  0.5052886E+02  0.7816164E-02  0.1300439E+00
        -11   -1    0    0    0    0  0.00000000000E+00  0.00000000000E+00  0.45593999997E+02  0.45594000000E+02  0.51100000000E-03 0.  1.
         11   -1    0    0    0    0 -0.00000000000E+00 -0.00000000000E+00 -0.45593999997E+02  0.45594000000E+02  0.51100000000E-03 0. -1.
    9900012    2    1    2    0    0 -0.14082219660E+02 -0.28011447388E+02 -0.25888528915E+02  0.50528855583E+02  0.29999987030E+02 0.  0.
        -12    1    1    2    0    0  0.14082219660E+02  0.28011447388E+02  0.25888528915E+02  0.40659144417E+02  0.00000000000E+00 0.  1.
         11    1    3    3    0    0 -0.78701816815E+01 -0.52577580987E+01  0.32717005235E+01  0.10014379886E+02  0.51100000000E-03 0.  1.
        -11    1    3    3    0    0 -0.22304611729E+01 -0.20175109921E+02 -0.14073761146E+02  0.24699813166E+02  0.51100000000E-03 0. -1.
         12    1    3    3    0    0 -0.39815768052E+01 -0.25785793684E+01 -0.15086468293E+02  0.15814662531E+02  0.00000000000E+00 0. -1.
</event>
<event>
 7    1  0.4994895E-011  0.5052887E+02  0.7816164E-02  0.1300439E+00
        -11   -1    0    0    0    0  0.00000000000E+00  0.00000000000E+00  0.45593999997E+02  0.45594000000E+02  0.51100000000E-03 0.  1.
         11   -1    0    0    0    0 -0.00000000000E+00 -0.00000000000E+00 -0.45593999997E+02  0.45594000000E+02  0.51100000000E-03 0. -1.
    9900012    2    1    2    0    0 -0.11702460983E+02  0.26250766416E+02 -0.28759594729E+02  0.50528872864E+02  0.30000039557E+02 0.  0.
        -12    1    1    2    0    0  0.11702460983E+02 -0.26250766416E+02  0.28759594729E+02  0.40659127136E+02  0.00000000000E+00 0.  1.
         11    1    3    3    0    0 -0.85245646611E+01  0.12250893939E+02 -0.21364665809E+02  0.26061495551E+02  0.51100000000E-03 0. -1.
        -11    1    3    3    0    0  0.57450359562E+01 -0.32586957484E+00 -0.45852647483E+01  0.73577362138E+01  0.51100000000E-03 0.  1.
        -12    1    3    3    0    0 -0.89229322781E+01  0.14325742052E+02 -0.28096641716E+01  0.17109641099E+02  0.00000000000E+00 0.  1.
</event>
<event>
 7    1  0.4994895E-011  0.5052886E+02  0.7816164E-02  0.1300439E+00
        -11   -1    0    0    0    0  0.00000000000E+00  0.00000000000E+00  0.45593999997E+02  0.45594000000E+02  0.51100000000E-03 0. -1.
         11   -1    0    0    0    0 -0.00000000000E+00 -0.00000000000E+00 -0.45593999997E+02  0.45594000000E+02  0.51100000000E-03 0.  1.
    9900012    2    1    2    0    0 -0.33830374883E+02 -0.19023467584E+02  0.12115240760E+02  0.50528860286E+02  0.30000001325E+02 0.  0.
        -12    1    1    2    0    0  0.33830374883E+02  0.19023467584E+02 -0.12115240760E+02  0.40659139714E+02  0.00000000000E+00 0.  1.
         11    1    3    3    0    0 -0.22390103039E+02 -0.20121611088E+02  0.62604279972E+01  0.30747177201E+02  0.51100000000E-03 0. -1.
        -11    1    3    3    0    0 -0.46495956214E+01  0.36279579879E+01  0.98695038884E+01  0.11497300808E+02  0.51100000000E-03 0.  1.
        -12    1    3    3    0    0 -0.67906762226E+01 -0.25298144832E+01 -0.40146911252E+01  0.82843822770E+01  0.00000000000E+00 0.  1.
</event>
<event>
 7    1  0.4994895E-011  0.5052886E+02  0.7816164E-02  0.1300439E+00
        -11   -1    0    0    0    0  0.00000000000E+00  0.00000000000E+00  0.45593999997E+02  0.45594000000E+02  0.51100000000E-03 0. -1.
         11   -1    0    0    0    0 -0.00000000000E+00 -0.00000000000E+00 -0.45593999997E+02  0.45594000000E+02  0.51100000000E-03 0.  1.
    9900012    2    1    2    0    0  0.39208993046E+02  0.76436094226E+01  0.75760183318E+01  0.50528856447E+02  0.29999989657E+02 0.  0.
        -12    1    1    2    0    0 -0.39208993046E+02 -0.76436094226E+01 -0.75760183318E+01  0.40659143553E+02  0.00000000000E+00 0.  1.
         11    1    3    3    0    0  0.17350255795E+02  0.11556913929E+02 -0.59610388097E+01  0.21682426517E+02  0.51100000000E-03 0. -1.
        -11    1    3    3    0    0  0.16511411052E+02 -0.65888177389E+01  0.50799221259E+01  0.18489046032E+02  0.51100000000E-03 0.  1.
         12    1    3    3    0    0  0.53473261996E+01  0.26755132323E+01  0.84571350156E+01  0.10357383898E+02  0.00000000000E+00 0. -1.
</event>
<event>
 7    1  0.4994895E-011  0.5052885E+02  0.7816164E-02  0.1300439E+00
        -11   -1    0    0    0    0  0.00000000000E+00  0.00000000000E+00  0.45593999997E+02  0.45594000000E+02  0.51100000000E-03 0. -1.
         11   -1    0    0    0    0 -0.00000000000E+00 -0.00000000000E+00 -0.45593999997E+02  0.45594000000E+02  0.51100000000E-03 0.  1.
    9900012    2    1    2    0    0  0.11267606231E+02 -0.60645633507E+01  0.38593114145E+02  0.50528851727E+02  0.29999975311E+02 0.  0.
        -12    1    1    2    0    0 -0.11267606231E+02  0.60645633507E+01 -0.38593114145E+02  0.40659148273E+02  0.00000000000E+00 0.  1.
         11    1    3    3    0    0  0.14854117365E+02  0.19789278913E+01  0.20573382259E+02  0.25452406883E+02  0.51100000000E-03 0. -1.
        -11    1    3    3    0    0 -0.60707441900E+01 -0.24065535223E+01  0.17746984342E+02  0.18910338134E+02  0.51100000000E-03 0.  1.
         12    1    3    3    0    0  0.24842330558E+01 -0.56369377197E+01  0.27274754441E+00  0.61661067096E+01  0.00000000000E+00 0. -1.
</event>
<event>
 7    1  0.4994895E-011  0.5052887E+02  0.7816164E-02  0.1300439E+00
        -11   -1    0    0    0    0  0.00000000000E+00  0.00000000000E+00  0.45593999997E+02  0.45594000000E+02  0.51100000000E-03 0.  1.
         11   -1    0    0    0    0 -0.00000000000E+00 -0.00000000000E+00 -0.45593999997E+02  0.45594000000E+02  0.51100000000E-03 0. -1.
    9900012    2    1    2    0    0  0.29646204226E+02  0.26969294351E+02 -0.68501542714E+01  0.50528869706E+02  0.30000029957E+02 0.  0.
        -12    1    1    2    0    0 -0.29646204226E+02 -0.26969294351E+02  0.68501542714E+01  0.40659130294E+02  0.00000000000E+00 0.  1.
         11    1    3    3    0    0  0.23001144557E+01 -0.16074304241E+01 -0.54618582595E+01  0.61405419130E+01  0.51100000000E-03 0. -1.
        -11    1    3    3    0    0  0.27290090648E+02  0.31086357844E+02  0.29376902629E+00  0.41366616880E+02  0.51100000000E-03 0.  1.
        -12    1    3    3    0    0  0.55999121760E-01 -0.25096330695E+01 -0.16820650382E+01  0.30217109124E+01  0.00000000000E+00 0.  1.
</event>
<event>
 7    1  0.4994895E-011  0.5052900E+02  0.7816164E-02  0.1300438E+00
        -11   -1    0    0    0    0  0.00000000000E+00  0.00000000000E+00  0.45593999997E+02  0.45594000000E+02  0.51100000000E-03 0.  1.
         11   -1    0    0    0    0 -0.00000000000E+00 -0.00000000000E+00 -0.45593999997E+02  0.45594000000E+02  0.51100000000E-03 0. -1.
    9900012    2    1    2    0    0 -0.13395509903E+02 -0.43652613394E+01 -0.38139996173E+02  0.50528997305E+02  0.30000417804E+02 0.  0.
        -12    1    1    2    0    0  0.13395509903E+02  0.43652613394E+01  0.38139996173E+02  0.40659002695E+02  0.00000000000E+00 0.  1.
         11    1    3    3    0    0 -0.49291455473E+01 -0.17941798284E+01 -0.13410133764E+02  0.14399557108E+02  0.51100000000E-03 0. -1.
        -11    1    3    3    0    0 -0.44955517868E+01  0.33885931631E+00  0.45696505812E+01  0.64192303432E+01  0.51100000000E-03 0.  1.
        -12    1    3    3    0    0 -0.39708125692E+01 -0.29099408273E+01 -0.29299512990E+02  0.29710209854E+02  0.00000000000E+00 0.  1.
</event>
<event>
 7    1  0.4994895E-011  0.5052886E+02  0.7816164E-02  0.1300439E+00
        -11   -1    0    0    0    0  0.00000000000E+00  0.00000000000E+00  0.45593999997E+02  0.45594000000E+02  0.51100000000E-03 0.  1.
         11   -1    0    0    0    0 -0.00000000000E+00 -0.00000000000E+00 -0.45593999997E+02  0.45594000000E+02  0.51100000000E-03 0. -1.
    9900012    2    1    2    0    0  0.29529242822E+02  0.24232078480E+02 -0.13928227496E+02  0.50528864123E+02  0.30000012988E+02 0.  0.
        -12    1    1    2    0    0 -0.29529242822E+02 -0.24232078480E+02  0.13928227496E+02  0.40659135877E+02  0.00000000000E+00 0.  1.
         11    1    3    3    0    0  0.15208074280E+02  0.24443143861E+01  0.57603586798E+01  0.16445118684E+02  0.51100000000E-03 0.  1.
        -11    1    3    3    0    0  0.25419610753E+01  0.80899367329E-02 -0.15725553164E+00  0.25468335475E+01  0.51100000000E-03 0. -1.
         12    1    3    3    0    0  0.11779207466E+02  0.21779674157E+02 -0.19531330645E+02  0.31536911892E+02  0.00000000000E+00 0. -1.
</event>
<event>
 7    1  0.4994895E-011  0.5052886E+02  0.7816164E-02  0.1300439E+00
        -11   -1    0    0    0    0  0.00000000000E+00  0.00000000000E+00  0.45593999997E+02  0.45594000000E+02  0.51100000000E-03 0.  1.
         11   -1    0    0    0    0 -0.00000000000E+00 -0.00000000000E+00 -0.45593999997E+02  0.45594000000E+02  0.51100000000E-03 0. -1.
    9900012    2    1    2    0    0  0.24318142134E+02 -0.19266919317E+00 -0.32584599368E+02  0.50528864812E+02  0.30000015083E+02 0.  0.
        -12    1    1    2    0    0 -0.24318142134E+02  0.19266919317E+00  0.32584599368E+02  0.40659135188E+02  0.00000000000E+00 0.  1.
         11    1    3    3    0    0  0.13254372814E+02 -0.97782977384E+01 -0.80478862983E+01  0.18331993331E+02  0.51100000000E-03 0. -1.
        -11    1    3    3    0    0 -0.23954373755E+01  0.57218674572E+01 -0.41459247213E+01  0.74610039187E+01  0.51100000000E-03 0.  1.
         12    1    3    3    0    0  0.13459206695E+02  0.38637610880E+01 -0.20390788348E+02  0.24735867563E+02  0.00000000000E+00 0. -1.
</event>
<event>
 7    1  0.4994895E-011  0.5052892E+02  0.7816164E-02  0.1300439E+00
        -11   -1    0    0    0    0  0.00000000000E+00  0.00000000000E+00  0.45593999997E+02  0.45594000000E+02  0.51100000000E-03 0.  1.
         11   -1    0    0    0    0 -0.00000000000E+00 -0.00000000000E+00 -0.45593999997E+02  0.45594000000E+02  0.51100000000E-03 0. -1.
    9900012    2    1    2    0    0  0.18212463766E+02 -0.33918146372E+02 -0.13077698762E+02  0.50528921128E+02  0.30000186262E+02 0.  0.
        -12    1    1    2    0    0 -0.18212463766E+02  0.33918146372E+02  0.13077698762E+02  0.40659078872E+02  0.00000000000E+00 0.  1.
         11    1    3    3    0    0  0.11269938787E+02 -0.36280501879E+02 -0.10062871654E+02  0.39300734383E+02  0.51100000000E-03 0. -1.
        -11    1    3    3    0    0  0.54998724401E+01  0.39865598873E+01  0.79847203546E+00  0.68395039619E+01  0.51100000000E-03 0.  1.
         12    1    3    3    0    0  0.14426525394E+01 -0.16242043805E+01 -0.38132991431E+01  0.43886827835E+01  0.00000000000E+00 0. -1.
</event>
<event>
 7    1  0.4994895E-011  0.5052886E+02  0.7816164E-02  0.1300439E+00
        -11   -1    0    0    0    0  0.00000000000E+00  0.00000000000E+00  0.45593999997E+02  0.45594000000E+02  0.51100000000E-03 0. -1.
         11   -1    0    0    0    0 -0.00000000000E+00 -0.00000000000E+00 -0.45593999997E+02  0.45594000000E+02  0.51100000000E-03 0.  1.
    9900012    2    1    2    0    0 -0.22165613207E+02 -0.76155113817E+01  0.33224318461E+02  0.50528858843E+02  0.29999996938E+02 0.  0.
        -12    1    1    2    0    0  0.22165613207E+02  0.76155113817E+01 -0.33224318461E+02  0.40659141157E+02  0.00000000000E+00 0.  1.
         11    1    3    3    0    0 -0.24810366676E+01 -0.66158108651E+01  0.29290983436E+02  0.30131150115E+02  0.51100000000E-03 0.  1.
        -11    1    3    3    0    0 -0.14047663722E+02  0.61692718115E-01  0.13681141780E+01  0.14114262245E+02  0.51100000000E-03 0. -1.
        -12    1    3    3    0    0 -0.56369128170E+01 -0.10613932348E+01  0.25652208470E+01  0.62834464826E+01  0.00000000000E+00 0.  1.
</event>
<event>
 7    1  0.4994895E-011  0.5052886E+02  0.7816164E-02  0.1300439E+00
        -11   -1    0    0    0    0  0.00000000000E+00  0.00000000000E+00  0.45593999997E+02  0.45594000000E+02  0.51100000000E-03 0. -1.
         11   -1    0    0    0    0 -0.00000000000E+00 -0.00000000000E+00 -0.45593999997E+02  0.45594000000E+02  0.51100000000E-03 0.  1.
    9900012    2    1    2    0    0  0.27293761405E+02 -0.18970364752E+02 -0.23416690208E+02  0.50528861657E+02  0.30000005494E+02 0.  0.
        -12    1    1    2    0    0 -0.27293761405E+02  0.18970364752E+02  0.23416690208E+02  0.40659138343E+02  0.00000000000E+00 0.  1.
         11    1    3    3    0    0 -0.74334597133E+00 -0.45394702192E+01  0.37415416636E+01  0.59294592828E+01  0.51100000000E-03 0. -1.
        -11    1    3    3    0    0  0.18549208745E+02 -0.11207497782E+02 -0.26941739482E+02  0.34576559664E+02  0.51100000000E-03 0.  1.
        -12    1    3    3    0    0  0.94878986308E+01 -0.32233967511E+01 -0.21649238961E+00  0.10022842710E+02  0.00000000000E+00 0.  1.
</event>
<event>
 7    1  0.4994895E-011  0.5052886E+02  0.7816164E-02  0.1300439E+00
        -11   -1    0    0    0    0  0.00000000000E+00  0.00000000000E+00  0.45593999997E+02  0.45594000000E+02  0.51100000000E-03 0.  1.
         11   -1    0    0    0    0 -0.00000000000E+00 -0.00000000000E+00 -0.45593999997E+02  0.45594000000E+02  0.51100000000E-03 0. -1.
    9900012    2    1    2    0    0 -0.11720340530E+02 -0.16257734207E+01 -0.38899304781E+02  0.50528862850E+02  0.30000009119E+02 0.  0.
        -12    1    1    2    0    0  0.11720340530E+02  0.16257734207E+01  0.38899304781E+02  0.40659137150E+02  0.00000000000E+00 0.  1.
         11    1    3    3    0    0  0.13118445744E+01 -0.99229170992E+01 -0.14972557843E+02  0.18010072420E+02  0.51100000000E-03 0.  1.
        -11    1    3    3    0    0 -0.14451505292E+02  0.84944515282E+01 -0.12268996168E+02  0.20773299671E+02  0.51100000000E-03 0. -1.
        -12    1    3    3    0    0  0.14193201879E+01 -0.19730784964E+00 -0.11657750769E+02  0.11745490759E+02  0.00000000000E+00 0.  1.
</event>
<event>
 7    1  0.4994895E-011  0.5052885E+02  0.7816164E-02  0.1300439E+00
        -11   -1    0    0    0    0  0.00000000000E+00  0.00000000000E+00  0.45593999997E+02  0.45594000000E+02  0.51100000000E-03 0.  1.
         11   -1    0    0    0    0 -0.00000000000E+00 -0.00000000000E+00 -0.45593999997E+02  0.45594000000E+02  0.51100000000E-03 0. -1.
    9900012    2    1    2    0    0 -0.22074971974E+02  0.29556551098E+02 -0.17095974893E+02  0.50528850255E+02  0.29999970835E+02 0.  0.
        -12    1    1    2    0    0  0.22074971974E+02 -0.29556551098E+02  0.17095974893E+02  0.40659149745E+02  0.00000000000E+00 0.  1.
         11    1    3    3    0    0 -0.97387980526E+01  0.22915085186E+02 -0.22051476098E+02  0.33259779238E+02  0.51100000000E-03 0. -1.
        -11    1    3    3    0    0 -0.13423806276E+02  0.71874486392E+01  0.40621958839E+01  0.15759423484E+02  0.51100000000E-03 0.  1.
        -12    1    3    3    0    0  0.10876323551E+01 -0.54598272706E+00  0.89330532129E+00  0.15096475334E+01  0.00000000000E+00 0.  1.
</event>
<event>
 7    1  0.4994895E-011  0.5052886E+02  0.7816164E-02  0.1300439E+00
        -11   -1    0    0    0    0  0.00000000000E+00  0.00000000000E+00  0.45593999997E+02  0.45594000000E+02  0.51100000000E-03 0. -1.
         11   -1    0    0    0    0 -0.00000000000E+00 -0.00000000000E+00 -0.45593999997E+02  0.45594000000E+02  0.51100000000E-03 0.  1.
    9900012    2    1    2    0    0 -0.39524022090E+01 -0.39293136059E+02  0.96743767970E+01  0.50528860917E+02  0.30000003243E+02 0.  0.
        -12    1    1    2    0    0  0.39524022090E+01  0.39293136059E+02 -0.96743767970E+01  0.40659139083E+02  0.00000000000E+00 0.  1.
         11    1    3    3    0    0  0.19734575531E+00 -0.20025489043E+02  0.14039745180E+01  0.20075614597E+02  0.51100000000E-03 0.  1.
        -11    1    3    3    0    0 -0.37526202749E+01 -0.26423682802E-01  0.10432434651E+02  0.11086863855E+02  0.51100000000E-03 0. -1.
         12    1    3    3    0    0 -0.39712768943E+00 -0.19241223333E+02 -0.21620323720E+01  0.19366382464E+02  0.00000000000E+00 0. -1.
</event>
<event>
 7    1  0.4994895E-011  0.5052889E+02  0.7816164E-02  0.1300439E+00
        -11   -1    0    0    0    0  0.00000000000E+00  0.00000000000E+00  0.45593999997E+02  0.45594000000E+02  0.51100000000E-03 0.  1.
         11   -1    0    0    0    0 -0.00000000000E+00 -0.00000000000E+00 -0.45593999997E+02  0.45594000000E+02  0.51100000000E-03 0. -1.
    9900012    2    1    2    0    0  0.10425346649E+02  0.39288922608E+02 -0.92534387787E+00  0.50528885969E+02  0.30000079392E+02 0.  0.
        -12    1    1    2    0    0 -0.10425346649E+02 -0.39288922608E+02  0.92534387787E+00  0.40659114031E+02  0.00000000000E+00 0.  1.
         11    1    3    3    0    0  0.34586514230E+01  0.96606711076E+01  0.92735509685E+01  0.13830747765E+02  0.51100000000E-03 0. -1.
        -11    1    3    3    0    0  0.10861503097E+02  0.12009595011E+02 -0.92063351722E+01  0.18626841638E+02  0.51100000000E-03 0.  1.
        -12    1    3    3    0    0 -0.38948078709E+01  0.17618656490E+02 -0.99255967413E+00  0.18071296566E+02  0.00000000000E+00 0.  1.
</event>
<event>
 7    1  0.4994895E-011  0.5052887E+02  0.7816164E-02  0.1300439E+00
        -11   -1    0    0    0    0  0.00000000000E+00  0.00000000000E+00  0.45593999997E+02  0.45594000000E+02  0.51100000000E-03 0.  1.
         11   -1    0    0    0    0 -0.00000000000E+00 -0.00000000000E+00 -0.45593999997E+02  0.45594000000E+02  0.51100000000E-03 0. -1.
    9900012    2    1    2    0    0 -0.75808619022E+01 -0.39887313794E+02  0.21674670595E+01  0.50528865942E+02  0.30000018517E+02 0.  0.
        -12    1    1    2    0    0  0.75808619022E+01  0.39887313794E+02 -0.21674670595E+01  0.40659134058E+02  0.00000000000E+00 0.  1.
         11    1    3    3    0    0 -0.88306888041E+01 -0.13962296103E+02  0.78426899966E+01  0.18287552156E+02  0.51100000000E-03 0. -1.
        -11    1    3    3    0    0 -0.27342351440E+00 -0.28118286509E+01 -0.84524634121E+01  0.89120861068E+01  0.51100000000E-03 0.  1.
        -12    1    3    3    0    0  0.15232504163E+01 -0.23113189040E+02  0.27772404751E+01  0.23329227679E+02  0.00000000000E+00 0.  1.
</event>
<event>
 7    1  0.4994895E-011  0.5052886E+02  0.7816164E-02  0.1300439E+00
        -11   -1    0    0    0    0  0.00000000000E+00  0.00000000000E+00  0.45593999997E+02  0.45594000000E+02  0.51100000000E-03 0. -1.
         11   -1    0    0    0    0 -0.00000000000E+00 -0.00000000000E+00 -0.45593999997E+02  0.45594000000E+02  0.51100000000E-03 0.  1.
    9900012    2    1    2    0    0  0.30355460323E+02 -0.23079595198E+02  0.14108294443E+02  0.50528860092E+02  0.30000000737E+02 0.  0.
        -12    1    1    2    0    0 -0.30355460323E+02  0.23079595198E+02 -0.14108294443E+02  0.40659139908E+02  0.00000000000E+00 0.  1.
         11    1    3    3    0    0  0.15953192288E+01 -0.84439668504E+01 -0.34445139888E+01  0.92579855527E+01  0.51100000000E-03 0. -1.
        -11    1    3    3    0    0  0.15198189063E+02  0.17634983198E+01  0.32815960032E+01  0.15648122882E+02  0.51100000000E-03 0.  1.
         12    1    3    3    0    0  0.13561952031E+02 -0.16399126667E+02  0.14271212429E+02  0.25622751658E+02  0.00000000000E+00 0. -1.
</event>
<event>
 7    1  0.4994895E-011  0.5052891E+02  0.7816164E-02  0.1300439E+00
        -11   -1    0    0    0    0  0.00000000000E+00  0.00000000000E+00  0.45593999997E+02  0.45594000000E+02  0.51100000000E-03 0. -1.
         11   -1    0    0    0    0 -0.00000000000E+00 -0.00000000000E+00 -0.45593999997E+02  0.45594000000E+02  0.51100000000E-03 0.  1.
    9900012    2    1    2    0    0 -0.94287109054E+01  0.39262366809E+02  0.47673435723E+01  0.50528909977E+02  0.30000152365E+02 0.  0.
        -12    1    1    2    0    0  0.94287109054E+01 -0.39262366809E+02 -0.47673435723E+01  0.40659090023E+02  0.00000000000E+00 0.  1.
         11    1    3    3    0    0 -0.98013124014E+01  0.33298216356E+02  0.22217085229E+01  0.34781790154E+02  0.51100000000E-03 0.  1.
        -11    1    3    3    0    0  0.65908489533E+01  0.25497564599E+00  0.30986574936E+01  0.72873850611E+01  0.51100000000E-03 0. -1.
        -12    1    3    3    0    0 -0.62182474573E+01  0.57091748074E+01 -0.55302244417E+00  0.84597347621E+01  0.00000000000E+00 0.  1.
</event>
<event>
 7    1  0.4994895E-011  0.5052885E+02  0.7816164E-02  0.1300439E+00
        -11   -1    0    0    0    0  0.00000000000E+00  0.00000000000E+00  0.45593999997E+02  0.45594000000E+02  0.51100000000E-03 0. -1.
         11   -1    0    0    0    0 -0.00000000000E+00 -0.00000000000E+00 -0.45593999997E+02  0.45594000000E+02  0.51100000000E-03 0.  1.
    9900012    2    1    2    0    0  0.36320430643E+02 -0.12177256545E+02  0.13627430106E+02  0.50528854530E+02  0.29999983829E+02 0.  0.
        -12    1    1    2    0    0 -0.36320430643E+02  0.12177256545E+02 -0.13627430106E+02  0.40659145470E+02  0.00000000000E+00 0.  1.
         11    1    3    3    0    0  0.39478323594E+02 -0.11780477002E+02  0.16903981779E+02  0.44531587356E+02  0.51100000000E-03 0. -1.
        -11    1    3    3    0    0 -0.14203331723E+01 -0.25997308781E+00 -0.38901452495E+01  0.41494773949E+01  0.51100000000E-03 0.  1.
         12    1    3    3    0    0 -0.17375597787E+01 -0.13680645561E+00  0.61359357690E+00  0.18477897793E+01  0.00000000000E+00 0. -1.
</event>
<event>
 7    1  0.4994895E-011  0.5052885E+02  0.7816164E-02  0.1300439E+00
        -11   -1    0    0    0    0  0.00000000000E+00  0.00000000000E+00  0.45593999997E+02  0.45594000000E+02  0.51100000000E-03 0.  1.
         11   -1    0    0    0    0 -0.00000000000E+00 -0.00000000000E+00 -0.45593999997E+02  0.45594000000E+02  0.51100000000E-03 0. -1.
    9900012    2    1    2    0    0  0.26888966947E+02 -0.24927038110E+02 -0.17572496015E+02  0.50528851109E+02  0.29999973430E+02 0.  0.
        -12    1    1    2    0    0 -0.26888966947E+02  0.24927038110E+02  0.17572496015E+02  0.40659148891E+02  0.00000000000E+00 0.  1.
         11    1    3    3    0    0 -0.11754539976E+00 -0.71734784055E+01 -0.15066396955E+02  0.16687388257E+02  0.51100000000E-03 0. -1.
        -11    1    3    3    0    0  0.81843736729E+01 -0.40340339408E+01  0.35248763716E+01  0.97817256120E+01  0.51100000000E-03 0.  1.
         12    1    3    3    0    0  0.18822138673E+02 -0.13719525763E+02 -0.60309754309E+01  0.24059737240E+02  0.00000000000E+00 0. -1.
</event>
<event>
 7    1  0.4994895E-011  0.5052889E+02  0.7816164E-02  0.1300439E+00
        -11   -1    0    0    0    0  0.00000000000E+00  0.00000000000E+00  0.45593999997E+02  0.45594000000E+02  0.51100000000E-03 0. -1.
         11   -1    0    0    0    0 -0.00000000000E+00 -0.00000000000E+00 -0.45593999997E+02  0.45594000000E+02  0.51100000000E-03 0.  1.
    9900012    2    1    2    0    0 -0.21364647806E+02 -0.14614437993E+02  0.31354953649E+02  0.50528891647E+02  0.30000096651E+02 0.  0.
        -12    1    1    2    0    0  0.21364647806E+02  0.14614437993E+02 -0.31354953649E+02  0.40659108353E+02  0.00000000000E+00 0.  1.
         11    1    3    3    0    0 -0.54191910865E+01 -0.14959523816E+02  0.26448514152E+01  0.16129173075E+02  0.51100000000E-03 0. -1.
        -11    1    3    3    0    0 -0.17132832938E+01 -0.89036600008E+00 -0.40124886331E+00  0.19720781350E+01  0.51100000000E-03 0.  1.
         12    1    3    3    0    0 -0.14232173426E+02  0.12354518231E+01  0.29111351097E+02  0.32427640437E+02  0.00000000000E+00 0. -1.
</event>
<event>
 7    1  0.4994895E-011  0.5052886E+02  0.7816164E-02  0.1300439E+00
        -11   -1    0    0    0    0  0.00000000000E+00  0.00000000000E+00  0.45593999997E+02  0.45594000000E+02  0.51100000000E-03 0.  1.
         11   -1    0    0    0    0 -0.00000000000E+00 -0.00000000000E+00 -0.45593999997E+02  0.45594000000E+02  0.51100000000E-03 0. -1.
    9900012    2    1    2    0    0  0.54781271620E+01  0.21681029335E+02 -0.33957162430E+02  0.50528858463E+02  0.29999995785E+02 0.  0.
        -12    1    1    2    0    0 -0.54781271620E+01 -0.21681029335E+02  0.33957162430E+02  0.40659141537E+02  0.00000000000E+00 0.  1.
         11    1    3    3    0    0  0.10729489332E+02  0.65548156741E+01 -0.15511838101E+02  0.19967590525E+02  0.51100000000E-03 0. -1.
        -11    1    3    3    0    0 -0.12033027443E+02  0.10550264511E+02 -0.10390988091E+02  0.19080735427E+02  0.51100000000E-03 0.  1.
        -12    1    3    3    0    0  0.67816652727E+01  0.45759491496E+01 -0.80543362380E+01  0.11480532511E+02  0.00000000000E+00 0.  1.
</event>
<event>
 7    1  0.4994895E-011  0.5052892E+02  0.7816164E-02  0.1300439E+00
        -11   -1    0    0    0    0  0.00000000000E+00  0.00000000000E+00  0.45593999997E+02  0.45594000000E+02  0.51100000000E-03 0.  1.
         11   -1    0    0    0    0 -0.00000000000E+00 -0.00000000000E+00 -0.45593999997E+02  0.45594000000E+02  0.51100000000E-03 0. -1.
    9900012    2    1    2    0    0  0.29555065448E+02 -0.66408426301E+01 -0.27121179902E+02  0.50528916344E+02  0.30000171718E+02 0.  0.
        -12    1    1    2    0    0 -0.29555065448E+02  0.66408426301E+01  0.27121179902E+02  0.40659083656E+02  0.00000000000E+00 0.  1.
         11    1    3    3    0    0 -0.12061771723E+01  0.32216636438E+01 -0.99536769226E+01  0.10531365749E+02  0.51100000000E-03 0. -1.
        -11    1    3    3    0    0  0.30715132629E+02 -0.12271314876E+02 -0.13758635918E+02  0.35823241112E+02  0.51100000000E-03 0.  1.
        -12    1    3    3    0    0  0.46109991366E-01  0.24088086018E+01 -0.34088670612E+01  0.41743094821E+01  0.00000000000E+00 0.  1.
</event>
<event>
 7    1  0.4994895E-011  0.5052886E+02  0.7816164E-02  0.1300439E+00
        -11   -1    0    0    0    0  0.00000000000E+00  0.00000000000E+00  0.45593999997E+02  0.45594000000E+02  0.51100000000E-03 0.  1.
         11   -1    0    0    0    0 -0.00000000000E+00 -0.00000000000E+00 -0.45593999997E+02  0.45594000000E+02  0.51100000000E-03 0. -1.
    9900012    2    1    2    0    0  0.81178206365E+01 -0.37825658162E+02 -0.12509446419E+02  0.50528859859E+02  0.30000000028E+02 0.  0.
        -12    1    1    2    0    0 -0.81178206365E+01  0.37825658162E+02  0.12509446419E+02  0.40659140141E+02  0.00000000000E+00 0.  1.
         11    1    3    3    0    0  0.16595950646E+02 -0.21170418330E+02 -0.14938232699E+02  0.30769513915E+02  0.51100000000E-03 0. -1.
        -11    1    3    3    0    0 -0.10314856667E+01 -0.64314707641E+01  0.28366517989E+01  0.71045318325E+01  0.51100000000E-03 0.  1.
         12    1    3    3    0    0 -0.74466443425E+01 -0.10223769068E+02 -0.40786551813E+00  0.12654814112E+02  0.00000000000E+00 0. -1.
</event>
<event>
 7    1  0.4994895E-011  0.5052887E+02  0.7816164E-02  0.1300439E+00
        -11   -1    0    0    0    0  0.00000000000E+00  0.00000000000E+00  0.45593999997E+02  0.45594000000E+02  0.51100000000E-03 0. -1.
         11   -1    0    0    0    0 -0.00000000000E+00 -0.00000000000E+00 -0.45593999997E+02  0.45594000000E+02  0.51100000000E-03 0.  1.
    9900012    2    1    2    0    0 -0.26517488318E+02 -0.25451829148E+02  0.17383677842E+02  0.50528867582E+02  0.30000023503E+02 0.  0.
        -12    1    1    2    0    0  0.26517488318E+02  0.25451829148E+02 -0.17383677842E+02  0.40659132418E+02  0.00000000000E+00 0.  1.
         11    1    3    3    0    0 -0.12797214845E+02 -0.18764571353E+02  0.77524721201E+01  0.23999555623E+02  0.51100000000E-03 0. -1.
        -11    1    3    3    0    0 -0.39242004183E+01  0.68717772323E+01  0.21173960532E+01  0.81917054122E+01  0.51100000000E-03 0.  1.
        -12    1    3    3    0    0 -0.97960730540E+01 -0.13559035027E+02  0.75138096687E+01  0.18337606547E+02  0.00000000000E+00 0.  1.
</event>
<event>
 7    1  0.4994895E-011  0.5052884E+02  0.7816164E-02  0.1300439E+00
        -11   -1    0    0    0    0  0.00000000000E+00  0.00000000000E+00  0.45593999997E+02  0.45594000000E+02  0.51100000000E-03 0. -1.
         11   -1    0    0    0    0 -0.00000000000E+00 -0.00000000000E+00 -0.45593999997E+02  0.45594000000E+02  0.51100000000E-03 0.  1.
    9900012    2    1    2    0    0 -0.31571169414E+02 -0.23868860475E+02  0.93115881253E+01  0.50528844672E+02  0.29999953866E+02 0.  0.
        -12    1    1    2    0    0  0.31571169414E+02  0.23868860475E+02 -0.93115881253E+01  0.40659155328E+02  0.00000000000E+00 0.  1.
         11    1    3    3    0    0 -0.32993629749E+02 -0.14316483362E+02  0.10710069766E+02  0.37526615815E+02  0.51100000000E-03 0. -1.
        -11    1    3    3    0    0  0.52897001492E+00  0.14334049851E+01 -0.12582084231E+01  0.19792796228E+01  0.51100000000E-03 0.  1.
         12    1    3    3    0    0  0.89349031988E+00 -0.10985782098E+02 -0.14027321758E+00  0.11022949235E+02  0.00000000000E+00 0. -1.
</event>
<event>
 7    1  0.4994895E-011  0.5052886E+02  0.7816164E-02  0.1300439E+00
        -11   -1    0    0    0    0  0.00000000000E+00  0.00000000000E+00  0.45593999997E+02  0.45594000000E+02  0.51100000000E-03 0.  1.
         11   -1    0    0    0    0 -0.00000000000E+00 -0.00000000000E+00 -0.45593999997E+02  0.45594000000E+02  0.51100000000E-03 0. -1.
    9900012    2    1    2    0    0 -0.76556524343E+01 -0.10298997523E+02 -0.38580922153E+02  0.50528856891E+02  0.29999991006E+02 0.  0.
        -12    1    1    2    0    0  0.76556524343E+01  0.10298997523E+02  0.38580922153E+02  0.40659143109E+02  0.00000000000E+00 0.  1.
         11    1    3    3    0    0  0.77382308218E+01 -0.14600657111E+01 -0.13883359645E+02  0.15961193045E+02  0.51100000000E-03 0. -1.
        -11    1    3    3    0    0 -0.17718383846E+02 -0.55169672628E+01 -0.14363673923E+02  0.23466852851E+02  0.51100000000E-03 0.  1.
         12    1    3    3    0    0  0.23245005902E+01 -0.33219645489E+01 -0.10333888585E+02  0.11100810995E+02  0.00000000000E+00 0. -1.
</event>
<event>
 7    1  0.4994895E-011  0.5052886E+02  0.7816164E-02  0.1300439E+00
        -11   -1    0    0    0    0  0.00000000000E+00  0.00000000000E+00  0.45593999997E+02  0.45594000000E+02  0.51100000000E-03 0.  1.
         11   -1    0    0    0    0 -0.00000000000E+00 -0.00000000000E+00 -0.45593999997E+02  0.45594000000E+02  0.51100000000E-03 0. -1.
    9900012    2    1    2    0    0 -0.58434246192E+01  0.20093604029E+02 -0.34860685483E+02  0.50528856791E+02  0.29999990701E+02 0.  0.
        -12    1    1    2    0    0  0.58434246192E+01 -0.20093604029E+02  0.34860685483E+02  0.40659143209E+02  0.00000000000E+00 0.  1.
         11    1    3    3    0    0 -0.97601426199E+01  0.56786452148E+01 -0.23435294165E+02  0.26013850317E+02  0.51100000000E-03 0. -1.
        -11    1    3    3    0    0  0.74607358297E+01  0.28271486459E+01 -0.92295722572E+01  0.12200014463E+02  0.51100000000E-03 0.  1.
         12    1    3    3    0    0 -0.35440178291E+01  0.11587810169E+02 -0.21958190604E+01  0.12314992011E+02  0.00000000000E+00 0. -1.
</event>
<event>
 7    1  0.4994895E-011  0.5052887E+02  0.7816164E-02  0.1300439E+00
        -11   -1    0    0    0    0  0.00000000000E+00  0.00000000000E+00  0.45593999997E+02  0.45594000000E+02  0.51100000000E-03 0. -1.
         11   -1    0    0    0    0 -0.00000000000E+00 -0.00000000000E+00 -0.45593999997E+02  0.45594000000E+02  0.51100000000E-03 0.  1.
    9900012    2    1    2    0    0  0.43582642644E+01  0.11544600295E+02  0.38741353315E+02  0.50528871628E+02  0.30000035799E+02 0.  0.
        -12    1    1    2    0    0 -0.43582642644E+01 -0.11544600295E+02 -0.38741353315E+02  0.40659128372E+02  0.00000000000E+00 0.  1.
         11    1    3    3    0    0  0.64874541975E+00 -0.99692200179E+00  0.15008895618E+01  0.19150440818E+01  0.51100000000E-03 0. -1.
        -11    1    3    3    0    0 -0.49123094700E+01  0.15605934071E+01 -0.30389723245E+01  0.59834429187E+01  0.51100000000E-03 0.  1.
        -12    1    3    3    0    0  0.86218283147E+01  0.10980928889E+02  0.40279436077E+02  0.42630384627E+02  0.00000000000E+00 0.  1.
</event>
<event>
 7    1  0.4994895E-011  0.5052876E+02  0.7816164E-02  0.1300439E+00
        -11   -1    0    0    0    0  0.00000000000E+00  0.00000000000E+00  0.45593999997E+02  0.45594000000E+02  0.51100000000E-03 0. -1.
         11   -1    0    0    0    0 -0.00000000000E+00 -0.00000000000E+00 -0.45593999997E+02  0.45594000000E+02  0.51100000000E-03 0.  1.
    9900012    2    1    2    0    0 -0.17768992127E+02  0.14905482836E+02  0.33395553026E+02  0.50528764128E+02  0.29999709041E+02 0.  0.
        -12    1    1    2    0    0  0.17768992127E+02 -0.14905482836E+02 -0.33395553026E+02  0.40659235872E+02  0.00000000000E+00 0.  1.
         11    1    3    3    0    0  0.22446335772E+01  0.46717155932E+01  0.21199600695E+02  0.21823986262E+02  0.51100000000E-03 0. -1.
        -11    1    3    3    0    0 -0.52910954078E+01  0.59084615035E+01 -0.15757440272E+01  0.80863203902E+01  0.51100000000E-03 0.  1.
         12    1    3    3    0    0 -0.14722530297E+02  0.43253057391E+01  0.13771696358E+02  0.20618457475E+02  0.00000000000E+00 0. -1.
</event>
<event>
 7    1  0.4994895E-011  0.5052886E+02  0.7816164E-02  0.1300439E+00
        -11   -1    0    0    0    0  0.00000000000E+00  0.00000000000E+00  0.45593999997E+02  0.45594000000E+02  0.51100000000E-03 0.  1.
         11   -1    0    0    0    0 -0.00000000000E+00 -0.00000000000E+00 -0.45593999997E+02  0.45594000000E+02  0.51100000000E-03 0. -1.
    9900012    2    1    2    0    0 -0.74756610132E+01  0.30795503491E+02 -0.25473851434E+02  0.50528860194E+02  0.30000001047E+02 0.  0.
        -12    1    1    2    0    0  0.74756610132E+01 -0.30795503491E+02  0.25473851434E+02  0.40659139806E+02  0.00000000000E+00 0.  1.
         11    1    3    3    0    0 -0.41553570849E+01  0.87560832054E+01 -0.11771860186E+02  0.15248366408E+02  0.51100000000E-03 0. -1.
        -11    1    3    3    0    0 -0.97450389248E+01  0.14889929612E+02  0.87812546414E+00  0.17817039375E+02  0.51100000000E-03 0.  1.
        -12    1    3    3    0    0  0.64247349965E+01  0.71494906740E+01 -0.14580116712E+02  0.17463454412E+02  0.00000000000E+00 0.  1.
</event>
<event>
 7    1  0.4994895E-011  0.5052886E+02  0.7816164E-02  0.1300439E+00
        -11   -1    0    0    0    0  0.00000000000E+00  0.00000000000E+00  0.45593999997E+02  0.45594000000E+02  0.51100000000E-03 0.  1.
         11   -1    0    0    0    0 -0.00000000000E+00 -0.00000000000E+00 -0.45593999997E+02  0.45594000000E+02  0.51100000000E-03 0. -1.
    9900012    2    1    2    0    0 -0.19536667479E+02  0.30019233619E+02  0.19243958636E+02  0.50528859487E+02  0.29999998898E+02 0.  0.
        -12    1    1    2    0    0  0.19536667479E+02 -0.30019233619E+02 -0.19243958636E+02  0.40659140513E+02  0.00000000000E+00 0.  1.
         11    1    3    3    0    0 -0.21098396678E+02  0.14904959214E+02  0.95993226800E+01  0.27558068650E+02  0.51100000000E-03 0. -1.
        -11    1    3    3    0    0  0.62552435337E+01  0.14369233235E+02  0.53335829045E+01  0.16554456871E+02  0.51100000000E-03 0.  1.
        -12    1    3    3    0    0 -0.46935143344E+01  0.74504116962E+00  0.43110530517E+01  0.64163339662E+01  0.00000000000E+00 0.  1.
</event>
<event>
 7    1  0.4994895E-011  0.5052887E+02  0.7816164E-02  0.1300439E+00
        -11   -1    0    0    0    0  0.00000000000E+00  0.00000000000E+00  0.45593999997E+02  0.45594000000E+02  0.51100000000E-03 0.  1.
         11   -1    0    0    0    0 -0.00000000000E+00 -0.00000000000E+00 -0.45593999997E+02  0.45594000000E+02  0.51100000000E-03 0. -1.
    9900012    2    1    2    0    0  0.72756053563E+01 -0.30594330837E+02 -0.25772409526E+02  0.50528873036E+02  0.30000040081E+02 0.  0.
        -12    1    1    2    0    0 -0.72756053563E+01  0.30594330837E+02  0.25772409526E+02  0.40659126964E+02  0.00000000000E+00 0.  1.
         11    1    3    3    0    0  0.95651615262E+01 -0.10929972066E+02 -0.20309792977E+02  0.24968866523E+02  0.51100000000E-03 0. -1.
        -11    1    3    3    0    0 -0.87674982580E+01 -0.10810618192E+02 -0.20381726529E+01  0.14067431870E+02  0.51100000000E-03 0.  1.
         12    1    3    3    0    0  0.64779420881E+01 -0.88537405793E+01 -0.34244438956E+01  0.11492574644E+02  0.00000000000E+00 0. -1.
</event>
<event>
 7    1  0.4994895E-011  0.5052886E+02  0.7816164E-02  0.1300439E+00
        -11   -1    0    0    0    0  0.00000000000E+00  0.00000000000E+00  0.45593999997E+02  0.45594000000E+02  0.51100000000E-03 0.  1.
         11   -1    0    0    0    0 -0.00000000000E+00 -0.00000000000E+00 -0.45593999997E+02  0.45594000000E+02  0.51100000000E-03 0. -1.
    9900012    2    1    2    0    0 -0.12576194195E+02  0.30049364382E+02 -0.24331879523E+02  0.50528864233E+02  0.30000013323E+02 0.  0.
        -12    1    1    2    0    0  0.12576194195E+02 -0.30049364382E+02  0.24331879523E+02  0.40659135767E+02  0.00000000000E+00 0.  1.
         11    1    3    3    0    0  0.58108170212E+01  0.79484190328E+01 -0.16031792561E+02  0.18813860118E+02  0.51100000000E-03 0. -1.
        -11    1    3    3    0    0 -0.42484500029E+01  0.28169953286E+00  0.45236679663E+00  0.42817424063E+01  0.51100000000E-03 0.  1.
         12    1    3    3    0    0 -0.14138561213E+02  0.21819245816E+02 -0.87524537592E+01  0.27433261708E+02  0.00000000000E+00 0. -1.
</event>
<event>
 7    1  0.4994895E-011  0.5052886E+02  0.7816164E-02  0.1300439E+00
        -11   -1    0    0    0    0  0.00000000000E+00  0.00000000000E+00  0.45593999997E+02  0.45594000000E+02  0.51100000000E-03 0.  1.
         11   -1    0    0    0    0 -0.00000000000E+00 -0.00000000000E+00 -0.45593999997E+02  0.45594000000E+02  0.51100000000E-03 0. -1.
    9900012    2    1    2    0    0  0.15050317101E+02  0.99654954089E+01 -0.36432710904E+02  0.50528861207E+02  0.30000004124E+02 0.  0.
        -12    1    1    2    0    0 -0.15050317101E+02 -0.99654954089E+01  0.36432710904E+02  0.40659138793E+02  0.00000000000E+00 0.  1.
         11    1    3    3    0    0  0.15930135669E+02  0.30737802900E+01 -0.21039170769E+02  0.26568102202E+02  0.51100000000E-03 0. -1.
        -11    1    3    3    0    0 -0.67079469729E+01  0.87892230917E+01 -0.13693790150E+02  0.17600195569E+02  0.51100000000E-03 0.  1.
        -12    1    3    3    0    0  0.58281284045E+01 -0.18975079728E+01 -0.16997499853E+01  0.63605634356E+01  0.00000000000E+00 0.  1.
</event>
<event>
 7    1  0.4994895E-011  0.5052886E+02  0.7816164E-02  0.1300439E+00
        -11   -1    0    0    0    0  0.00000000000E+00  0.00000000000E+00  0.45593999997E+02  0.45594000000E+02  0.51100000000E-03 0.  1.
         11   -1    0    0    0    0 -0.00000000000E+00 -0.00000000000E+00 -0.45593999997E+02  0.45594000000E+02  0.51100000000E-03 0. -1.
    9900012    2    1    2    0    0  0.16877774696E+02  0.12487478569E+02 -0.34819090259E+02  0.50528862698E+02  0.30000008657E+02 0.  0.
        -12    1    1    2    0    0 -0.16877774696E+02 -0.12487478569E+02  0.34819090259E+02  0.40659137302E+02  0.00000000000E+00 0.  1.
         11    1    3    3    0    0  0.46429787239E+01  0.51451062188E+01 -0.13375018871E+02  0.15063880625E+02  0.51100000000E-03 0. -1.
        -11    1    3    3    0    0 -0.12030080824E+01  0.81450602239E+01  0.19618641236E+01  0.84639320411E+01  0.51100000000E-03 0.  1.
        -12    1    3    3    0    0  0.13437804055E+02 -0.80268787414E+00 -0.23405935512E+02  0.27001050032E+02  0.00000000000E+00 0.  1.
</event>
<event>
 7    1  0.4994895E-011  0.5052886E+02  0.7816164E-02  0.1300439E+00
        -11   -1    0    0    0    0  0.00000000000E+00  0.00000000000E+00  0.45593999997E+02  0.45594000000E+02  0.51100000000E-03 0.  1.
         11   -1    0    0    0    0 -0.00000000000E+00 -0.00000000000E+00 -0.45593999997E+02  0.45594000000E+02  0.51100000000E-03 0. -1.
    9900012    2    1    2    0    0 -0.38841425994E+01 -0.36606749733E+02 -0.17263390493E+02  0.50528863990E+02  0.30000012585E+02 0.  0.
        -12    1    1    2    0    0  0.38841425994E+01  0.36606749733E+02  0.17263390493E+02  0.40659136010E+02  0.00000000000E+00 0.  1.
         11    1    3    3    0    0 -0.54851589820E+01 -0.54969351581E+01 -0.12541627750E+02  0.14751125112E+02  0.51100000000E-03 0. -1.
        -11    1    3    3    0    0  0.40976177411E+01 -0.29505608435E+02 -0.84959021122E+01  0.30976632374E+02  0.51100000000E-03 0.  1.
        -12    1    3    3    0    0 -0.24966013585E+01 -0.16042061401E+01  0.37741393695E+01  0.48011065041E+01  0.00000000000E+00 0.  1.
</event>
<event>
 7    1  0.4994895E-011  0.5052887E+02  0.7816164E-02  0.1300439E+00
        -11   -1    0    0    0    0  0.00000000000E+00  0.00000000000E+00  0.45593999997E+02  0.45594000000E+02  0.51100000000E-03 0. -1.
         11   -1    0    0    0    0 -0.00000000000E+00 -0.00000000000E+00 -0.45593999997E+02  0.45594000000E+02  0.51100000000E-03 0.  1.
    9900012    2    1    2    0    0 -0.65395469144E+00  0.30787835987E+02  0.26548947201E+02  0.50528866967E+02  0.30000021633E+02 0.  0.
        -12    1    1    2    0    0  0.65395469144E+00 -0.30787835987E+02 -0.26548947201E+02  0.40659133033E+02  0.00000000000E+00 0.  1.
         11    1    3    3    0    0  0.11195713421E+02  0.15281084844E+02  0.17682507669E+02  0.25913830877E+02  0.51100000000E-03 0. -1.
        -11    1    3    3    0    0 -0.52271405836E+01  0.50714718455E+01 -0.26222218951E+01  0.77407282143E+01  0.51100000000E-03 0.  1.
        -12    1    3    3    0    0 -0.66225275287E+01  0.10435279297E+02  0.11488661428E+02  0.16874307875E+02  0.00000000000E+00 0.  1.
</event>
<event>
 7    1  0.4994895E-011  0.5052885E+02  0.7816164E-02  0.1300439E+00
        -11   -1    0    0    0    0  0.00000000000E+00  0.00000000000E+00  0.45593999997E+02  0.45594000000E+02  0.51100000000E-03 0. -1.
         11   -1    0    0    0    0 -0.00000000000E+00 -0.00000000000E+00 -0.45593999997E+02  0.45594000000E+02  0.51100000000E-03 0.  1.
    9900012    2    1    2    0    0 -0.13065116995E+02  0.12711271075E+02  0.36344084353E+02  0.50528853896E+02  0.29999981902E+02 0.  0.
        -12    1    1    2    0    0  0.13065116995E+02 -0.12711271075E+02 -0.36344084353E+02  0.40659146104E+02  0.00000000000E+00 0.  1.
         11    1    3    3    0    0 -0.13158545904E+02  0.97834990619E+01  0.60962425356E+01  0.17493666211E+02  0.51100000000E-03 0.  1.
        -11    1    3    3    0    0 -0.85689546624E+00 -0.25907693496E+01  0.25635865851E+02  0.25780689942E+02  0.51100000000E-03 0. -1.
         12    1    3    3    0    0  0.95032437474E+00  0.55185413631E+01  0.46119759664E+01  0.72544977433E+01  0.00000000000E+00 0. -1.
</event>
<event>
 7    1  0.4994895E-011  0.5052884E+02  0.7816164E-02  0.1300439E+00
        -11   -1    0    0    0    0  0.00000000000E+00  0.00000000000E+00  0.45593999997E+02  0.45594000000E+02  0.51100000000E-03 0.  1.
         11   -1    0    0    0    0 -0.00000000000E+00 -0.00000000000E+00 -0.45593999997E+02  0.45594000000E+02  0.51100000000E-03 0. -1.
    9900012    2    1    2    0    0 -0.19684327885E+02 -0.54540561287E+01 -0.35156044902E+02  0.50528843766E+02  0.29999951110E+02 0.  0.
        -12    1    1    2    0    0  0.19684327885E+02  0.54540561287E+01  0.35156044902E+02  0.40659156234E+02  0.00000000000E+00 0.  1.
         11    1    3    3    0    0  0.66823615033E+01 -0.34589489460E+01 -0.62878037776E+01  0.98058533376E+01  0.51100000000E-03 0. -1.
        -11    1    3    3    0    0 -0.21192206601E+02  0.29025091096E+01 -0.23673023056E+02  0.31905269167E+02  0.51100000000E-03 0.  1.
        -12    1    3    3    0    0 -0.51744827874E+01 -0.48976162923E+01 -0.51952180687E+01  0.88177212615E+01  0.00000000000E+00 0.  1.
</event>
<event>
 7    1  0.4994895E-011  0.5052885E+02  0.7816164E-02  0.1300439E+00
        -11   -1    0    0    0    0  0.00000000000E+00  0.00000000000E+00  0.45593999997E+02  0.45594000000E+02  0.51100000000E-03 0.  1.
         11   -1    0    0    0    0 -0.00000000000E+00 -0.00000000000E+00 -0.45593999997E+02  0.45594000000E+02  0.51100000000E-03 0. -1.
    9900012    2    1    2    0    0 -0.33936605605E+02  0.45187578133E+00 -0.22389033551E+02  0.50528853242E+02  0.29999979916E+02 0.  0.
        -12    1    1    2    0    0  0.33936605605E+02 -0.45187578133E+00  0.22389033551E+02  0.40659146758E+02  0.00000000000E+00 0.  1.
         11    1    3    3    0    0 -0.34177558815E+02  0.50938132717E+01 -0.18584577717E+02  0.39235685152E+02  0.51100000000E-03 0. -1.
        -11    1    3    3    0    0  0.66202993274E+00  0.29510487049E+01 -0.94335176292E+00  0.31681043071E+01  0.51100000000E-03 0.  1.
         12    1    3    3    0    0 -0.42107672232E+00 -0.75929861953E+01 -0.28611040716E+01  0.81250637830E+01  0.00000000000E+00 0. -1.
</event>
<event>
 7    1  0.4994895E-011  0.5052887E+02  0.7816164E-02  0.1300439E+00
        -11   -1    0    0    0    0  0.00000000000E+00  0.00000000000E+00  0.45593999997E+02  0.45594000000E+02  0.51100000000E-03 0.  1.
         11   -1    0    0    0    0 -0.00000000000E+00 -0.00000000000E+00 -0.45593999997E+02  0.45594000000E+02  0.51100000000E-03 0. -1.
    9900012    2    1    2    0    0  0.11804958129E+02  0.29785909077E+02 -0.25032133066E+02  0.50528866933E+02  0.30000021529E+02 0.  0.
        -12    1    1    2    0    0 -0.11804958129E+02 -0.29785909077E+02  0.25032133066E+02  0.40659133067E+02  0.00000000000E+00 0.  1.
         11    1    3    3    0    0 -0.14953349893E+01  0.16051377815E+02 -0.26226027911E+02  0.30784530153E+02  0.51100000000E-03 0. -1.
        -11    1    3    3    0    0  0.10145631594E+01  0.29932218798E+01  0.13190350669E+01  0.34246998986E+01  0.51100000000E-03 0.  1.
         12    1    3    3    0    0  0.12285729959E+02  0.10741309382E+02 -0.12514022175E+00  0.16319636881E+02  0.00000000000E+00 0. -1.
</event>
<event>
 7    1  0.4994895E-011  0.5052886E+02  0.7816164E-02  0.1300439E+00
        -11   -1    0    0    0    0  0.00000000000E+00  0.00000000000E+00  0.45593999997E+02  0.45594000000E+02  0.51100000000E-03 0.  1.
         11   -1    0    0    0    0 -0.00000000000E+00 -0.00000000000E+00 -0.45593999997E+02  0.45594000000E+02  0.51100000000E-03 0. -1.
    9900012    2    1    2    0    0  0.27820147315E+02  0.95552252177E+01 -0.28069601486E+02  0.50528862612E+02  0.30000008394E+02 0.  0.
        -12    1    1    2    0    0 -0.27820147315E+02 -0.95552252177E+01  0.28069601486E+02  0.40659137388E+02  0.00000000000E+00 0.  1.
         11    1    3    3    0    0  0.21425165470E+02  0.66905622716E+01 -0.21981354812E+02  0.31416258506E+02  0.51100000000E-03 0. -1.
        -11    1    3    3    0    0 -0.18946985967E+01 -0.17373150486E+01  0.43239119063E+01  0.50303440027E+01  0.51100000000E-03 0.  1.
        -12    1    3    3    0    0  0.82896804424E+01  0.46019779946E+01 -0.10412158580E+02  0.14082260103E+02  0.00000000000E+00 0.  1.
</event>
<event>
 7    1  0.4994895E-011  0.5052886E+02  0.7816164E-02  0.1300439E+00
        -11   -1    0    0    0    0  0.00000000000E+00  0.00000000000E+00  0.45593999997E+02  0.45594000000E+02  0.51100000000E-03 0.  1.
         11   -1    0    0    0    0 -0.00000000000E+00 -0.00000000000E+00 -0.45593999997E+02  0.45594000000E+02  0.51100000000E-03 0. -1.
    9900012    2    1    2    0    0  0.26028656390E+02 -0.29785486086E+02 -0.94074373246E+01  0.50528855741E+02  0.29999987510E+02 0.  0.
        -12    1    1    2    0    0 -0.26028656390E+02  0.29785486086E+02  0.94074373246E+01  0.40659144259E+02  0.00000000000E+00 0.  1.
         11    1    3    3    0    0  0.28981830881E+02 -0.25697356089E+02 -0.12755126657E+02  0.40779822063E+02  0.51100000000E-03 0. -1.
        -11    1    3    3    0    0  0.14208365524E+01  0.13314605433E+01  0.17172588257E+01  0.25962553462E+01  0.51100000000E-03 0.  1.
         12    1    3    3    0    0 -0.43740110432E+01 -0.54195905404E+01  0.16304305064E+01  0.71527783321E+01  0.00000000000E+00 0. -1.
</event>
<event>
 7    1  0.4994895E-011  0.5052885E+02  0.7816164E-02  0.1300439E+00
        -11   -1    0    0    0    0  0.00000000000E+00  0.00000000000E+00  0.45593999997E+02  0.45594000000E+02  0.51100000000E-03 0.  1.
         11   -1    0    0    0    0 -0.00000000000E+00 -0.00000000000E+00 -0.45593999997E+02  0.45594000000E+02  0.51100000000E-03 0. -1.
    9900012    2    1    2    0    0 -0.13261180799E+02  0.16206486295E+02 -0.34851930900E+02  0.50528853407E+02  0.29999980415E+02 0.  0.
        -12    1    1    2    0    0  0.13261180799E+02 -0.16206486295E+02  0.34851930900E+02  0.40659146593E+02  0.00000000000E+00 0.  1.
         11    1    3    3    0    0 -0.77446636100E+01 -0.70969608729E-01 -0.12322492439E+02  0.14554335137E+02  0.51100000000E-03 0. -1.
        -11    1    3    3    0    0 -0.10029084262E+01  0.21669765518E+01  0.45324000370E+01  0.51229154828E+01  0.51100000000E-03 0.  1.
        -12    1    3    3    0    0 -0.45136087624E+01  0.14110479352E+02 -0.27061838499E+02  0.30851602787E+02  0.00000000000E+00 0.  1.
</event>
<event>
 7    1  0.4994895E-011  0.5052887E+02  0.7816164E-02  0.1300439E+00
        -11   -1    0    0    0    0  0.00000000000E+00  0.00000000000E+00  0.45593999997E+02  0.45594000000E+02  0.51100000000E-03 0.  1.
         11   -1    0    0    0    0 -0.00000000000E+00 -0.00000000000E+00 -0.45593999997E+02  0.45594000000E+02  0.51100000000E-03 0. -1.
    9900012    2    1    2    0    0 -0.14157652338E+02  0.20669192513E+02 -0.32023586792E+02  0.50528871260E+02  0.30000034682E+02 0.  0.
        -12    1    1    2    0    0  0.14157652338E+02 -0.20669192513E+02  0.32023586792E+02  0.40659128740E+02  0.00000000000E+00 0.  1.
         11    1    3    3    0    0  0.56440523411E+01  0.39637349014E+01 -0.27334534491E+01  0.74187794965E+01  0.51100000000E-03 0. -1.
        -11    1    3    3    0    0 -0.19734005957E+02  0.16469142701E+02 -0.16998020804E+02  0.30815521477E+02  0.51100000000E-03 0.  1.
         12    1    3    3    0    0 -0.67698722410E-01  0.23631491059E+00 -0.12292112539E+02  0.12294570286E+02  0.00000000000E+00 0. -1.
</event>
<event>
 7    1  0.5082915E-011  0.5052890E+02  0.7816164E-02  0.1300439E+00
        -11   -1    0    0    0    0  0.00000000000E+00  0.00000000000E+00  0.45593999997E+02  0.45594000000E+02  0.51100000000E-03 0. -1.
         11   -1    0    0    0    0 -0.00000000000E+00 -0.00000000000E+00 -0.45593999997E+02  0.45594000000E+02  0.51100000000E-03 0.  1.
    9900012    2    1    2    0    0 -0.37174307680E+02  0.10805130121E+02  0.12429090304E+02  0.50528901704E+02  0.30000127221E+02 0.  0.
        -12    1    1    2    0    0  0.37174307680E+02 -0.10805130121E+02 -0.12429090304E+02  0.40659098296E+02  0.00000000000E+00 0.  1.
         11    1    3    3    0    0 -0.27168051006E+02  0.12548365013E+02  0.55325394943E+01  0.30433097994E+02  0.51100000000E-03 0. -1.
        -11    1    3    3    0    0 -0.10352070076E+02 -0.55803842269E+01  0.97703065600E+01  0.15289373222E+02  0.51100000000E-03 0.  1.
        -12    1    3    3    0    0  0.34581340275E+00  0.38371493348E+01 -0.28737557504E+01  0.48064304884E+01  0.00000000000E+00 0.  1.
</event>
<event>
 7    1  0.4994895E-011  0.5052889E+02  0.7816164E-02  0.1300439E+00
        -11   -1    0    0    0    0  0.00000000000E+00  0.00000000000E+00  0.45593999997E+02  0.45594000000E+02  0.51100000000E-03 0. -1.
         11   -1    0    0    0    0 -0.00000000000E+00 -0.00000000000E+00 -0.45593999997E+02  0.45594000000E+02  0.51100000000E-03 0.  1.
    9900012    2    1    2    0    0 -0.24061168131E+02 -0.13650375199E+02  0.29797492002E+02  0.50528891740E+02  0.30000096932E+02 0.  0.
        -12    1    1    2    0    0  0.24061168131E+02  0.13650375199E+02 -0.29797492002E+02  0.40659108260E+02  0.00000000000E+00 0.  1.
         11    1    3    3    0    0 -0.97440741884E+00 -0.10892574720E+01  0.81177121733E+01  0.82482242239E+01  0.51100000000E-03 0. -1.
        -11    1    3    3    0    0 -0.26771958799E+02 -0.81156241157E+01  0.10845689079E+02  0.30003834831E+02  0.51100000000E-03 0.  1.
        -12    1    3    3    0    0  0.36851980869E+01 -0.44454936113E+01  0.10834090750E+02  0.12276832685E+02  0.00000000000E+00 0.  1.
</event>
<event>
 7    1  0.4994895E-011  0.5052886E+02  0.7816164E-02  0.1300439E+00
        -11   -1    0    0    0    0  0.00000000000E+00  0.00000000000E+00  0.45593999997E+02  0.45594000000E+02  0.51100000000E-03 0.  1.
         11   -1    0    0    0    0 -0.00000000000E+00 -0.00000000000E+00 -0.45593999997E+02  0.45594000000E+02  0.51100000000E-03 0. -1.
    9900012    2    1    2    0    0 -0.10133120567E+02 -0.16542528771E+02 -0.35732764142E+02  0.50528858054E+02  0.29999994541E+02 0.  0.
        -12    1    1    2    0    0  0.10133120567E+02  0.16542528771E+02  0.35732764142E+02  0.40659141946E+02  0.00000000000E+00 0.  1.
         11    1    3    3    0    0  0.65789720396E+01  0.24910676441E+01 -0.42381678838E+01  0.82128167140E+01  0.51100000000E-03 0. -1.
        -11    1    3    3    0    0 -0.18345457144E+02 -0.14876345661E+02 -0.28087221860E+02  0.36698140145E+02  0.51100000000E-03 0.  1.
        -12    1    3    3    0    0  0.16333645375E+01 -0.41572507540E+01 -0.34073743981E+01  0.56179011946E+01  0.00000000000E+00 0.  1.
</event>
<event>
 7    1  0.4994895E-011  0.5052886E+02  0.7816164E-02  0.1300439E+00
        -11   -1    0    0    0    0  0.00000000000E+00  0.00000000000E+00  0.45593999997E+02  0.45594000000E+02  0.51100000000E-03 0.  1.
         11   -1    0    0    0    0 -0.00000000000E+00 -0.00000000000E+00 -0.45593999997E+02  0.45594000000E+02  0.51100000000E-03 0. -1.
    9900012    2    1    2    0    0 -0.35188789201E+02  0.53795593954E+01 -0.19646257252E+02  0.50528856271E+02  0.29999989123E+02 0.  0.
        -12    1    1    2    0    0  0.35188789201E+02 -0.53795593954E+01  0.19646257252E+02  0.40659143729E+02  0.00000000000E+00 0.  1.
         11    1    3    3    0    0 -0.70694224713E+01  0.89437018101E+01 -0.45650665547E+01  0.12280324469E+02  0.51100000000E-03 0. -1.
        -11    1    3    3    0    0 -0.50243972540E+01 -0.99632620381E+01 -0.41073840106E+01  0.11890406296E+02  0.51100000000E-03 0.  1.
        -12    1    3    3    0    0 -0.23094969476E+02  0.63991196235E+01 -0.10973806686E+02  0.26358125507E+02  0.00000000000E+00 0.  1.
</event>
<event>
 7    1  0.4994895E-011  0.5052887E+02  0.7816164E-02  0.1300439E+00
        -11   -1    0    0    0    0  0.00000000000E+00  0.00000000000E+00  0.45593999997E+02  0.45594000000E+02  0.51100000000E-03 0. -1.
         11   -1    0    0    0    0 -0.00000000000E+00 -0.00000000000E+00 -0.45593999997E+02  0.45594000000E+02  0.51100000000E-03 0.  1.
    9900012    2    1    2    0    0  0.11809908311E+02  0.37444476497E+02  0.10564208308E+02  0.50528865090E+02  0.30000015928E+02 0.  0.
        -12    1    1    2    0    0 -0.11809908311E+02 -0.37444476497E+02 -0.10564208308E+02  0.40659134910E+02  0.00000000000E+00 0.  1.
         11    1    3    3    0    0  0.35251975197E+01  0.18224243224E+02 -0.48954641612E+01  0.19196760879E+02  0.51100000000E-03 0. -1.
        -11    1    3    3    0    0  0.13792853557E+02  0.13764964406E+02  0.11506040162E+02  0.22629759495E+02  0.51100000000E-03 0.  1.
        -12    1    3    3    0    0 -0.55081427652E+01  0.54552688665E+01  0.39536323073E+01  0.87023447156E+01  0.00000000000E+00 0.  1.
</event>
<event>
 7    1  0.4994895E-011  0.5052886E+02  0.7816164E-02  0.1300439E+00
        -11   -1    0    0    0    0  0.00000000000E+00  0.00000000000E+00  0.45593999997E+02  0.45594000000E+02  0.51100000000E-03 0.  1.
         11   -1    0    0    0    0 -0.00000000000E+00 -0.00000000000E+00 -0.45593999997E+02  0.45594000000E+02  0.51100000000E-03 0. -1.
    9900012    2    1    2    0    0  0.28758668889E+02  0.26120180122E+02 -0.11993349890E+02  0.50528864649E+02  0.30000014588E+02 0.  0.
        -12    1    1    2    0    0 -0.28758668889E+02 -0.26120180122E+02  0.11993349890E+02  0.40659135351E+02  0.00000000000E+00 0.  1.
         11    1    3    3    0    0  0.13470917944E+01  0.66634139440E+01 -0.87038383198E+01  0.11044118048E+02  0.51100000000E-03 0. -1.
        -11    1    3    3    0    0  0.15976152384E+02  0.77710913792E+01  0.81338775110E+01  0.19539377417E+02  0.51100000000E-03 0.  1.
        -12    1    3    3    0    0  0.11435424711E+02  0.11685674799E+02 -0.11423389081E+02  0.19945369185E+02  0.00000000000E+00 0.  1.
</event>
<event>
 7    1  0.4994895E-011  0.5052889E+02  0.7816164E-02  0.1300439E+00
        -11   -1    0    0    0    0  0.00000000000E+00  0.00000000000E+00  0.45593999997E+02  0.45594000000E+02  0.51100000000E-03 0.  1.
         11   -1    0    0    0    0 -0.00000000000E+00 -0.00000000000E+00 -0.45593999997E+02  0.45594000000E+02  0.51100000000E-03 0. -1.
    9900012    2    1    2    0    0  0.76944744048E+01  0.12686615331E+02 -0.37855094640E+02  0.50528888658E+02  0.30000087565E+02 0.  0.
        -12    1    1    2    0    0 -0.76944744048E+01 -0.12686615331E+02  0.37855094640E+02  0.40659111342E+02  0.00000000000E+00 0.  1.
         11    1    3    3    0    0  0.20659279956E+01 -0.51428357597E+00 -0.32342002483E+02  0.32411998873E+02  0.51100000000E-03 0. -1.
        -11    1    3    3    0    0  0.28386275266E+01  0.78408694515E+01  0.19004224274E+01  0.85526981505E+01  0.51100000000E-03 0.  1.
        -12    1    3    3    0    0  0.27899188826E+01  0.53600294555E+01 -0.74135145839E+01  0.95641916345E+01  0.00000000000E+00 0.  1.
</event>
<event>
 7    1  0.4994895E-011  0.5052886E+02  0.7816164E-02  0.1300439E+00
        -11   -1    0    0    0    0  0.00000000000E+00  0.00000000000E+00  0.45593999997E+02  0.45594000000E+02  0.51100000000E-03 0.  1.
         11   -1    0    0    0    0 -0.00000000000E+00 -0.00000000000E+00 -0.45593999997E+02  0.45594000000E+02  0.51100000000E-03 0. -1.
    9900012    2    1    2    0    0  0.22253678933E+02 -0.26452297496E+02 -0.21405969762E+02  0.50528858219E+02  0.29999995043E+02 0.  0.
        -12    1    1    2    0    0 -0.22253678933E+02  0.26452297496E+02  0.21405969762E+02  0.40659141781E+02  0.00000000000E+00 0.  1.
         11    1    3    3    0    0  0.85128842343E+00 -0.65896390880E+01 -0.43238237239E+01  0.79273884191E+01  0.51100000000E-03 0. -1.
        -11    1    3    3    0    0  0.16055696274E+02  0.20923262099E+01 -0.48278302335E+01  0.16895891715E+02  0.51100000000E-03 0.  1.
        -12    1    3    3    0    0  0.53466942351E+01 -0.21954984618E+02 -0.12254315805E+02  0.25705578085E+02  0.00000000000E+00 0.  1.
</event>
<event>
 7    1  0.4994895E-011  0.5052885E+02  0.7816164E-02  0.1300439E+00
        -11   -1    0    0    0    0  0.00000000000E+00  0.00000000000E+00  0.45593999997E+02  0.45594000000E+02  0.51100000000E-03 0.  1.
         11   -1    0    0    0    0 -0.00000000000E+00 -0.00000000000E+00 -0.45593999997E+02  0.45594000000E+02  0.51100000000E-03 0. -1.
    9900012    2    1    2    0    0 -0.30552672294E+02 -0.18811803188E+02 -0.19126346012E+02  0.50528845615E+02  0.29999956732E+02 0.  0.
        -12    1    1    2    0    0  0.30552672294E+02  0.18811803188E+02  0.19126346012E+02  0.40659154385E+02  0.00000000000E+00 0.  1.
         11    1    3    3    0    0 -0.20512956160E+01 -0.52468122710E+01  0.23052632185E+01  0.60869607752E+01  0.51100000000E-03 0. -1.
        -11    1    3    3    0    0 -0.17963773919E+02 -0.89391490981E+00 -0.21409304011E+02  0.27961662250E+02  0.51100000000E-03 0.  1.
        -12    1    3    3    0    0 -0.10537602760E+02 -0.12671076007E+02 -0.22305219069E-01  0.16480222590E+02  0.00000000000E+00 0.  1.
</event>
<event>
 7    1  0.4994895E-011  0.5052886E+02  0.7816164E-02  0.1300439E+00
        -11   -1    0    0    0    0  0.00000000000E+00  0.00000000000E+00  0.45593999997E+02  0.45594000000E+02  0.51100000000E-03 0.  1.
         11   -1    0    0    0    0 -0.00000000000E+00 -0.00000000000E+00 -0.45593999997E+02  0.45594000000E+02  0.51100000000E-03 0. -1.
    9900012    2    1    2    0    0  0.79398504642E+01  0.15356962244E+02 -0.36800653466E+02  0.50528860680E+02  0.30000002522E+02 0.  0.
        -12    1    1    2    0    0 -0.79398504642E+01 -0.15356962244E+02  0.36800653466E+02  0.40659139320E+02  0.00000000000E+00 0.  1.
         11    1    3    3    0    0 -0.28270844006E+01  0.15042270115E+02 -0.24560875024E+02  0.28939572882E+02  0.51100000000E-03 0. -1.
        -11    1    3    3    0    0  0.51044414761E+01  0.16198651125E+01  0.23774837291E+01  0.58593271720E+01  0.51100000000E-03 0.  1.
         12    1    3    3    0    0  0.56624933887E+01 -0.13051729830E+01 -0.14617262171E+02  0.15729960625E+02  0.00000000000E+00 0. -1.
</event>
<event>
 7    1  0.4994895E-011  0.5052886E+02  0.7816164E-02  0.1300439E+00
        -11   -1    0    0    0    0  0.00000000000E+00  0.00000000000E+00  0.45593999997E+02  0.45594000000E+02  0.51100000000E-03 0.  1.
         11   -1    0    0    0    0 -0.00000000000E+00 -0.00000000000E+00 -0.45593999997E+02  0.45594000000E+02  0.51100000000E-03 0. -1.
    9900012    2    1    2    0    0 -0.15618276766E+02 -0.23156648787E+02 -0.29546654511E+02  0.50528859023E+02  0.29999997486E+02 0.  0.
        -12    1    1    2    0    0  0.15618276766E+02  0.23156648787E+02  0.29546654511E+02  0.40659140977E+02  0.00000000000E+00 0.  1.
         11    1    3    3    0    0 -0.15994196972E+02 -0.24111028768E+02 -0.12374093461E+02  0.31468623012E+02  0.51100000000E-03 0. -1.
        -11    1    3    3    0    0  0.35115745461E+01 -0.96269967875E+00 -0.41119457281E+01  0.54923623693E+01  0.51100000000E-03 0.  1.
         12    1    3    3    0    0 -0.31356543396E+01  0.19170796589E+01 -0.13060615322E+02  0.13567873642E+02  0.00000000000E+00 0. -1.
</event>
<event>
 7    1  0.4994895E-011  0.5052887E+02  0.7816164E-02  0.1300439E+00
        -11   -1    0    0    0    0  0.00000000000E+00  0.00000000000E+00  0.45593999997E+02  0.45594000000E+02  0.51100000000E-03 0. -1.
         11   -1    0    0    0    0 -0.00000000000E+00 -0.00000000000E+00 -0.45593999997E+02  0.45594000000E+02  0.51100000000E-03 0.  1.
    9900012    2    1    2    0    0 -0.16697891795E+02 -0.27691288475E+02  0.24648273841E+02  0.50528874934E+02  0.30000045850E+02 0.  0.
        -12    1    1    2    0    0  0.16697891795E+02  0.27691288475E+02 -0.24648273841E+02  0.40659125066E+02  0.00000000000E+00 0.  1.
         11    1    3    3    0    0 -0.42243679452E+01 -0.51809117183E+01 -0.25798450588E+01  0.71653842575E+01  0.51100000000E-03 0. -1.
        -11    1    3    3    0    0  0.48822451800E+01 -0.55502372466E+01  0.13734986997E+02  0.15597798549E+02  0.51100000000E-03 0.  1.
        -12    1    3    3    0    0 -0.17355769030E+02 -0.16960139510E+02  0.13493131902E+02  0.27765692128E+02  0.00000000000E+00 0.  1.
</event>
<event>
 7    1  0.4994895E-011  0.5052884E+02  0.7816164E-02  0.1300439E+00
        -11   -1    0    0    0    0  0.00000000000E+00  0.00000000000E+00  0.45593999997E+02  0.45594000000E+02  0.51100000000E-03 0.  1.
         11   -1    0    0    0    0 -0.00000000000E+00 -0.00000000000E+00 -0.45593999997E+02  0.45594000000E+02  0.51100000000E-03 0. -1.
    9900012    2    1    2    0    0  0.23788777560E+02  0.27086031761E+02 -0.18804477577E+02  0.50528838286E+02  0.29999934454E+02 0.  0.
        -12    1    1    2    0    0 -0.23788777560E+02 -0.27086031761E+02  0.18804477577E+02  0.40659161714E+02  0.00000000000E+00 0.  1.
         11    1    3    3    0    0  0.93697326034E+01  0.45423034946E+01 -0.14607936657E+02  0.17939236989E+02  0.51100000000E-03 0. -1.
        -11    1    3    3    0    0  0.16189790513E+02  0.22916928031E+02 -0.42836043717E-01  0.28058808642E+02  0.51100000000E-03 0.  1.
         12    1    3    3    0    0 -0.17707455562E+01 -0.37319976487E+00 -0.41537048756E+01  0.45307926550E+01  0.00000000000E+00 0. -1.
</event>
<event>
 7    1  0.4994895E-011  0.5052886E+02  0.7816164E-02  0.1300439E+00
        -11   -1    0    0    0    0  0.00000000000E+00  0.00000000000E+00  0.45593999997E+02  0.45594000000E+02  0.51100000000E-03 0.  1.
         11   -1    0    0    0    0 -0.00000000000E+00 -0.00000000000E+00 -0.45593999997E+02  0.45594000000E+02  0.51100000000E-03 0. -1.
    9900012    2    1    2    0    0 -0.33729604779E+02 -0.22522756160E+02  0.28644097185E+01  0.50528860478E+02  0.30000001910E+02 0.  0.
        -12    1    1    2    0    0  0.33729604779E+02  0.22522756160E+02 -0.28644097185E+01  0.40659139522E+02  0.00000000000E+00 0.  1.
         11    1    3    3    0    0 -0.28661267979E+02 -0.26466765389E+02 -0.27881695662E+00  0.39013275836E+02  0.51100000000E-03 0. -1.
        -11    1    3    3    0    0 -0.69165042782E+01  0.47471060946E+01  0.40387371771E+01  0.93104482143E+01  0.51100000000E-03 0.  1.
         12    1    3    3    0    0  0.18481674784E+01 -0.80309686633E+00 -0.89551050206E+00  0.22051364276E+01  0.00000000000E+00 0. -1.
</event>
<event>
 7    1  0.4994895E-011  0.5052887E+02  0.7816164E-02  0.1300439E+00
        -11   -1    0    0    0    0  0.00000000000E+00  0.00000000000E+00  0.45593999997E+02  0.45594000000E+02  0.51100000000E-03 0. -1.
         11   -1    0    0    0    0 -0.00000000000E+00 -0.00000000000E+00 -0.45593999997E+02  0.45594000000E+02  0.51100000000E-03 0.  1.
    9900012    2    1    2    0    0  0.19919057291E+02  0.18052331812E+02  0.30504257425E+02  0.50528865131E+02  0.30000016053E+02 0.  0.
        -12    1    1    2    0    0 -0.19919057291E+02 -0.18052331812E+02 -0.30504257425E+02  0.40659134869E+02  0.00000000000E+00 0.  1.
         11    1    3    3    0    0  0.10902662058E+02 -0.68881127201E+00  0.13072847646E+02  0.17036485751E+02  0.51100000000E-03 0. -1.
        -11    1    3    3    0    0 -0.46773140102E+01  0.40210850103E+01  0.10590313142E+02  0.12255656805E+02  0.51100000000E-03 0.  1.
        -12    1    3    3    0    0  0.13693709243E+02  0.14720058074E+02  0.68410966375E+01  0.21236722575E+02  0.00000000000E+00 0.  1.
</event>
<event>
 7    1  0.4994895E-011  0.5052886E+02  0.7816164E-02  0.1300439E+00
        -11   -1    0    0    0    0  0.00000000000E+00  0.00000000000E+00  0.45593999997E+02  0.45594000000E+02  0.51100000000E-03 0. -1.
         11   -1    0    0    0    0 -0.00000000000E+00 -0.00000000000E+00 -0.45593999997E+02  0.45594000000E+02  0.51100000000E-03 0.  1.
    9900012    2    1    2    0    0 -0.98954737951E+01  0.21212844343E+02  0.33245455406E+02  0.50528862382E+02  0.30000007695E+02 0.  0.
        -12    1    1    2    0    0  0.98954737951E+01 -0.21212844343E+02 -0.33245455406E+02  0.40659137618E+02  0.00000000000E+00 0.  1.
         11    1    3    3    0    0 -0.52932957654E+00  0.14164388600E+02  0.24775420604E+02  0.28543502949E+02  0.51100000000E-03 0. -1.
        -11    1    3    3    0    0 -0.12008717960E+02  0.84133718367E+01  0.10796954792E+02  0.18209018802E+02  0.51100000000E-03 0.  1.
         12    1    3    3    0    0  0.26425737414E+01 -0.13649160936E+01 -0.23269199898E+01  0.37763406309E+01  0.00000000000E+00 0. -1.
</event>
<event>
 7    1  0.4994895E-011  0.5052886E+02  0.7816164E-02  0.1300439E+00
        -11   -1    0    0    0    0  0.00000000000E+00  0.00000000000E+00  0.45593999997E+02  0.45594000000E+02  0.51100000000E-03 0.  1.
         11   -1    0    0    0    0 -0.00000000000E+00 -0.00000000000E+00 -0.45593999997E+02  0.45594000000E+02  0.51100000000E-03 0. -1.
    9900012    2    1    2    0    0  0.10513283428E+02 -0.22511829747E+01 -0.39211848393E+02  0.50528855793E+02  0.29999987669E+02 0.  0.
        -12    1    1    2    0    0 -0.10513283428E+02  0.22511829747E+01  0.39211848393E+02  0.40659144207E+02  0.00000000000E+00 0.  1.
         11    1    3    3    0    0  0.60143163751E+01  0.37770605159E+01 -0.32319855122E+02  0.33090953794E+02  0.51100000000E-03 0. -1.
        -11    1    3    3    0    0  0.50180607033E+01 -0.99351265909E+01 -0.75397749048E+01  0.13443804502E+02  0.51100000000E-03 0.  1.
        -12    1    3    3    0    0 -0.51909365072E+00  0.39068831004E+01  0.64778163363E+00  0.39940974979E+01  0.00000000000E+00 0.  1.
</event>
<event>
 7    1  0.4994895E-011  0.5052886E+02  0.7816164E-02  0.1300439E+00
        -11   -1    0    0    0    0  0.00000000000E+00  0.00000000000E+00  0.45593999997E+02  0.45594000000E+02  0.51100000000E-03 0.  1.
         11   -1    0    0    0    0 -0.00000000000E+00 -0.00000000000E+00 -0.45593999997E+02  0.45594000000E+02  0.51100000000E-03 0. -1.
    9900012    2    1    2    0    0  0.38839575430E+02  0.38840743320E+01  0.11382754799E+02  0.50528858841E+02  0.29999996933E+02 0.  0.
        -12    1    1    2    0    0 -0.38839575430E+02 -0.38840743320E+01 -0.11382754799E+02  0.40659141159E+02  0.00000000000E+00 0.  1.
         11    1    3    3    0    0  0.18409508516E+02  0.11274409918E+02  0.14301250650E+02  0.25894943391E+02  0.51100000000E-03 0. -1.
        -11    1    3    3    0    0  0.35463490841E+01 -0.63180629318E+01  0.86947736347E+00  0.72972941686E+01  0.51100000000E-03 0.  1.
         12    1    3    3    0    0  0.16883717830E+02 -0.10722726539E+01 -0.37879732143E+01  0.17336621282E+02  0.00000000000E+00 0. -1.
</event>
<event>
 7    1  0.4994895E-011  0.5052886E+02  0.7816164E-02  0.1300439E+00
        -11   -1    0    0    0    0  0.00000000000E+00  0.00000000000E+00  0.45593999997E+02  0.45594000000E+02  0.51100000000E-03 0.  1.
         11   -1    0    0    0    0 -0.00000000000E+00 -0.00000000000E+00 -0.45593999997E+02  0.45594000000E+02  0.51100000000E-03 0. -1.
    9900012    2    1    2    0    0 -0.86473623748E+00 -0.38586916673E+02 -0.12785448751E+02  0.50528860722E+02  0.30000002649E+02 0.  0.
        -12    1    1    2    0    0  0.86473623748E+00  0.38586916673E+02  0.12785448751E+02  0.40659139278E+02  0.00000000000E+00 0.  1.
         11    1    3    3    0    0  0.10555164344E+01 -0.24516195097E+02 -0.76036469403E+01  0.25689947139E+02  0.51100000000E-03 0. -1.
        -11    1    3    3    0    0 -0.10091501133E+02 -0.97031948967E+01 -0.65797821673E+01  0.15468804736E+02  0.51100000000E-03 0.  1.
        -12    1    3    3    0    0  0.81712484615E+01 -0.43675266798E+01  0.13979803563E+01  0.93701088465E+01  0.00000000000E+00 0.  1.
</event>
<event>
 7    1  0.4994895E-011  0.5052886E+02  0.7816164E-02  0.1300439E+00
        -11   -1    0    0    0    0  0.00000000000E+00  0.00000000000E+00  0.45593999997E+02  0.45594000000E+02  0.51100000000E-03 0.  1.
         11   -1    0    0    0    0 -0.00000000000E+00 -0.00000000000E+00 -0.45593999997E+02  0.45594000000E+02  0.51100000000E-03 0. -1.
    9900012    2    1    2    0    0 -0.30973509938E+02  0.19401116549E+02 -0.17815836277E+02  0.50528860025E+02  0.30000000533E+02 0.  0.
        -12    1    1    2    0    0  0.30973509938E+02 -0.19401116549E+02  0.17815836277E+02  0.40659139975E+02  0.00000000000E+00 0.  1.
         11    1    3    3    0    0  0.43370481921E+01  0.33169568118E+01 -0.65542988280E+01  0.85305933498E+01  0.51100000000E-03 0. -1.
        -11    1    3    3    0    0 -0.31318124560E+02  0.11697698046E+02 -0.12917306051E+02  0.35840171057E+02  0.51100000000E-03 0.  1.
        -12    1    3    3    0    0 -0.39924335704E+01  0.43864616913E+01  0.16557686017E+01  0.61580956184E+01  0.00000000000E+00 0.  1.
</event>
<event>
 7    1  0.4994895E-011  0.5052886E+02  0.7816164E-02  0.1300439E+00
        -11   -1    0    0    0    0  0.00000000000E+00  0.00000000000E+00  0.45593999997E+02  0.45594000000E+02  0.51100000000E-03 0.  1.
         11   -1    0    0    0    0 -0.00000000000E+00 -0.00000000000E+00 -0.45593999997E+02  0.45594000000E+02  0.51100000000E-03 0. -1.
    9900012    2    1    2    0    0 -0.24988758762E+02 -0.25605785343E+02  0.19315057740E+02  0.50528858802E+02  0.29999996813E+02 0.  0.
        -12    1    1    2    0    0  0.24988758762E+02  0.25605785343E+02 -0.19315057740E+02  0.40659141198E+02  0.00000000000E+00 0.  1.
         11    1    3    3    0    0  0.59149452551E+00 -0.90661927775E+01 -0.44893372520E+01  0.10134094260E+02  0.51100000000E-03 0. -1.
        -11    1    3    3    0    0 -0.93478387944E+01 -0.66679831733E+01  0.16365619017E+02  0.19991937770E+02  0.51100000000E-03 0.  1.
        -12    1    3    3    0    0 -0.16232414493E+02 -0.98716093926E+01  0.74387759752E+01  0.20402826772E+02  0.00000000000E+00 0.  1.
</event>
<event>
 7    1  0.4994895E-011  0.5052886E+02  0.7816164E-02  0.1300439E+00
        -11   -1    0    0    0    0  0.00000000000E+00  0.00000000000E+00  0.45593999997E+02  0.45594000000E+02  0.51100000000E-03 0.  1.
         11   -1    0    0    0    0 -0.00000000000E+00 -0.00000000000E+00 -0.45593999997E+02  0.45594000000E+02  0.51100000000E-03 0. -1.
    9900012    2    1    2    0    0  0.36210734524E+02 -0.18443815745E+02  0.13320699197E+01  0.50528855342E+02  0.29999986299E+02 0.  0.
        -12    1    1    2    0    0 -0.36210734524E+02  0.18443815745E+02 -0.13320699197E+01  0.40659144658E+02  0.00000000000E+00 0.  1.
         11    1    3    3    0    0  0.15259828170E+02  0.53455444835E+01 -0.26250704278E+01  0.16380726376E+02  0.51100000000E-03 0.  1.
        -11    1    3    3    0    0  0.12637949291E+02 -0.10998032368E+02  0.77034872787E+01  0.18439582283E+02  0.51100000000E-03 0. -1.
        -12    1    3    3    0    0  0.83129570628E+01 -0.12791327861E+02 -0.37463469313E+01  0.15708546683E+02  0.00000000000E+00 0.  1.
</event>
<event>
 7    1  0.4994895E-011  0.5052886E+02  0.7816164E-02  0.1300439E+00
        -11   -1    0    0    0    0  0.00000000000E+00  0.00000000000E+00  0.45593999997E+02  0.45594000000E+02  0.51100000000E-03 0.  1.
         11   -1    0    0    0    0 -0.00000000000E+00 -0.00000000000E+00 -0.45593999997E+02  0.45594000000E+02  0.51100000000E-03 0. -1.
    9900012    2    1    2    0    0 -0.24070568375E+02 -0.32116210951E+02  0.65055725222E+01  0.50528859064E+02  0.29999997612E+02 0.  0.
        -12    1    1    2    0    0  0.24070568375E+02  0.32116210951E+02 -0.65055725222E+01  0.40659140936E+02  0.00000000000E+00 0.  1.
         11    1    3    3    0    0 -0.24897924306E+02 -0.23941196205E+02  0.11930498990E+02  0.36543457922E+02  0.51100000000E-03 0. -1.
        -11    1    3    3    0    0 -0.12401974808E+01 -0.52473891523E+01 -0.79465183970E+01  0.96031420693E+01  0.51100000000E-03 0.  1.
        -12    1    3    3    0    0  0.20675534116E+01 -0.29276255938E+01  0.25215919290E+01  0.43822590731E+01  0.00000000000E+00 0.  1.
</event>
<event>
 7    1  0.4994895E-011  0.5052884E+02  0.7816164E-02  0.1300439E+00
        -11   -1    0    0    0    0  0.00000000000E+00  0.00000000000E+00  0.45593999997E+02  0.45594000000E+02  0.51100000000E-03 0. -1.
         11   -1    0    0    0    0 -0.00000000000E+00 -0.00000000000E+00 -0.45593999997E+02  0.45594000000E+02  0.51100000000E-03 0.  1.
    9900012    2    1    2    0    0  0.20877817988E+02  0.35277015281E+00  0.34887813970E+02  0.50528839970E+02  0.29999939573E+02 0.  0.
        -12    1    1    2    0    0 -0.20877817988E+02 -0.35277015281E+00 -0.34887813970E+02  0.40659160030E+02  0.00000000000E+00 0.  1.
         11    1    3    3    0    0 -0.17854869652E+01 -0.24345720568E+01 -0.28229646015E+01  0.41333079011E+01  0.51100000000E-03 0. -1.
        -11    1    3    3    0    0  0.19336852598E+02 -0.29253247334E+01  0.22506540432E+02  0.29816367245E+02  0.51100000000E-03 0.  1.
         12    1    3    3    0    0  0.33264523555E+01  0.57126669431E+01  0.15204238139E+02  0.16579164824E+02  0.00000000000E+00 0. -1.
</event>
<event>
 7    1  0.4994895E-011  0.5052878E+02  0.7816164E-02  0.1300439E+00
        -11   -1    0    0    0    0  0.00000000000E+00  0.00000000000E+00  0.45593999997E+02  0.45594000000E+02  0.51100000000E-03 0. -1.
         11   -1    0    0    0    0 -0.00000000000E+00 -0.00000000000E+00 -0.45593999997E+02  0.45594000000E+02  0.51100000000E-03 0.  1.
    9900012    2    1    2    0    0  0.32824477192E+02 -0.23776425770E+02 -0.32260259272E+01  0.50528782489E+02  0.29999764852E+02 0.  0.
        -12    1    1    2    0    0 -0.32824477192E+02  0.23776425770E+02  0.32260259272E+01  0.40659217511E+02  0.00000000000E+00 0.  1.
         11    1    3    3    0    0  0.17286687786E+02 -0.23153373948E+02  0.48768460517E+01  0.29303445659E+02  0.51100000000E-03 0. -1.
        -11    1    3    3    0    0  0.14337932090E+02 -0.51746594172E+00 -0.14003480970E+01  0.14415444588E+02  0.51100000000E-03 0.  1.
        -12    1    3    3    0    0  0.11998573159E+01 -0.10558587975E+00 -0.67025238819E+01  0.68098922417E+01  0.00000000000E+00 0.  1.
</event>
<event>
 7    1  0.4994895E-011  0.5052888E+02  0.7816164E-02  0.1300439E+00
        -11   -1    0    0    0    0  0.00000000000E+00  0.00000000000E+00  0.45593999997E+02  0.45594000000E+02  0.51100000000E-03 0. -1.
         11   -1    0    0    0    0 -0.00000000000E+00 -0.00000000000E+00 -0.45593999997E+02  0.45594000000E+02  0.51100000000E-03 0.  1.
    9900012    2    1    2    0    0 -0.12189767366E+02 -0.83901411290E+01  0.37870562963E+02  0.50528875123E+02  0.30000046424E+02 0.  0.
        -12    1    1    2    0    0  0.12189767366E+02  0.83901411290E+01 -0.37870562963E+02  0.40659124877E+02  0.00000000000E+00 0.  1.
         11    1    3    3    0    0 -0.51751340823E+01  0.66846328521E+00  0.24018092521E+02  0.24578397518E+02  0.51100000000E-03 0. -1.
        -11    1    3    3    0    0 -0.76394648495E+01 -0.79214536228E+01 -0.99177234408E+00  0.11049636344E+02  0.51100000000E-03 0.  1.
        -12    1    3    3    0    0  0.62483156571E+00 -0.11371507915E+01  0.14844242786E+02  0.14900841261E+02  0.00000000000E+00 0.  1.
</event>
<event>
 7    1  0.4994895E-011  0.5052887E+02  0.7816164E-02  0.1300439E+00
        -11   -1    0    0    0    0  0.00000000000E+00  0.00000000000E+00  0.45593999997E+02  0.45594000000E+02  0.51100000000E-03 0. -1.
         11   -1    0    0    0    0 -0.00000000000E+00 -0.00000000000E+00 -0.45593999997E+02  0.45594000000E+02  0.51100000000E-03 0.  1.
    9900012    2    1    2    0    0 -0.98319277651E+01 -0.34772990030E+02  0.18636983483E+02  0.50528870735E+02  0.30000033087E+02 0.  0.
        -12    1    1    2    0    0  0.98319277651E+01  0.34772990030E+02 -0.18636983483E+02  0.40659129265E+02  0.00000000000E+00 0.  1.
         11    1    3    3    0    0  0.39173495418E+01 -0.16854662776E+01 -0.38331018135E+01  0.57340294540E+01  0.51100000000E-03 0. -1.
        -11    1    3    3    0    0 -0.61650466586E+01 -0.18714943610E+02  0.38435009094E+01  0.20075592498E+02  0.51100000000E-03 0.  1.
         12    1    3    3    0    0 -0.75842306483E+01 -0.14372580143E+02  0.18626584387E+02  0.24719248783E+02  0.00000000000E+00 0. -1.
</event>
<event>
 7    1  0.4994895E-011  0.5052886E+02  0.7816164E-02  0.1300439E+00
        -11   -1    0    0    0    0  0.00000000000E+00  0.00000000000E+00  0.45593999997E+02  0.45594000000E+02  0.51100000000E-03 0. -1.
         11   -1    0    0    0    0 -0.00000000000E+00 -0.00000000000E+00 -0.45593999997E+02  0.45594000000E+02  0.51100000000E-03 0.  1.
    9900012    2    1    2    0    0  0.26925632118E+02  0.22626611154E+02  0.20401289859E+02  0.50528858037E+02  0.29999994489E+02 0.  0.
        -12    1    1    2    0    0 -0.26925632118E+02 -0.22626611154E+02 -0.20401289859E+02  0.40659141963E+02  0.00000000000E+00 0.  1.
         11    1    3    3    0    0  0.20587547016E+02  0.84460153582E+01  0.19976112508E+02  0.29903634207E+02  0.51100000000E-03 0. -1.
        -11    1    3    3    0    0  0.14857730858E+01  0.25467020211E+01 -0.58450447446E+01  0.65465839316E+01  0.51100000000E-03 0.  1.
         12    1    3    3    0    0  0.48523120162E+01  0.11633893774E+02  0.62702220957E+01  0.14078639898E+02  0.00000000000E+00 0. -1.
</event>
<event>
 7    1  0.4994895E-011  0.5052879E+02  0.7816164E-02  0.1300439E+00
        -11   -1    0    0    0    0  0.00000000000E+00  0.00000000000E+00  0.45593999997E+02  0.45594000000E+02  0.51100000000E-03 0.  1.
         11   -1    0    0    0    0 -0.00000000000E+00 -0.00000000000E+00 -0.45593999997E+02  0.45594000000E+02  0.51100000000E-03 0. -1.
    9900012    2    1    2    0    0 -0.37602181800E+02  0.12015622290E+02 -0.97402189333E+01  0.50528792925E+02  0.29999796574E+02 0.  0.
        -12    1    1    2    0    0  0.37602181800E+02 -0.12015622290E+02  0.97402189333E+01  0.40659207075E+02  0.00000000000E+00 0.  1.
         11    1    3    3    0    0 -0.26763070138E+02  0.91389393109E+01 -0.77275529658E+00  0.28290975345E+02  0.51100000000E-03 0. -1.
        -11    1    3    3    0    0  0.94713160608E+00 -0.15997039520E+01  0.38398116588E+01  0.42661768423E+01  0.51100000000E-03 0.  1.
         12    1    3    3    0    0 -0.11786243268E+02  0.44763869308E+01 -0.12807275296E+02  0.17971640738E+02  0.00000000000E+00 0. -1.
</event>
<event>
 7    1  0.4994895E-011  0.5052883E+02  0.7816164E-02  0.1300439E+00
        -11   -1    0    0    0    0  0.00000000000E+00  0.00000000000E+00  0.45593999997E+02  0.45594000000E+02  0.51100000000E-03 0.  1.
         11   -1    0    0    0    0 -0.00000000000E+00 -0.00000000000E+00 -0.45593999997E+02  0.45594000000E+02  0.51100000000E-03 0. -1.
    9900012    2    1    2    0    0 -0.21263607372E+02 -0.82932414723E+01 -0.33648915517E+02  0.50528826767E+02  0.29999899440E+02 0.  0.
        -12    1    1    2    0    0  0.21263607372E+02  0.82932414723E+01  0.33648915517E+02  0.40659173233E+02  0.00000000000E+00 0.  1.
         11    1    3    3    0    0 -0.35142382390E+01 -0.45112609845E+00 -0.40116782933E+01  0.53522843858E+01  0.51100000000E-03 0. -1.
        -11    1    3    3    0    0 -0.20730012157E+02 -0.31007489863E+01 -0.73743092571E+01  0.22220001925E+02  0.51100000000E-03 0.  1.
        -12    1    3    3    0    0  0.29806430240E+01 -0.47413663876E+01 -0.22262927966E+02  0.22956540455E+02  0.00000000000E+00 0.  1.
</event>
<event>
 7    1  0.4994895E-011  0.5052886E+02  0.7816164E-02  0.1300439E+00
        -11   -1    0    0    0    0  0.00000000000E+00  0.00000000000E+00  0.45593999997E+02  0.45594000000E+02  0.51100000000E-03 0.  1.
         11   -1    0    0    0    0 -0.00000000000E+00 -0.00000000000E+00 -0.45593999997E+02  0.45594000000E+02  0.51100000000E-03 0. -1.
    9900012    2    1    2    0    0  0.36655051700E+02 -0.78080114632E+00 -0.17577338779E+02  0.50528864445E+02  0.30000013967E+02 0.  0.
        -12    1    1    2    0    0 -0.36655051700E+02  0.78080114632E+00  0.17577338779E+02  0.40659135555E+02  0.00000000000E+00 0.  1.
         11    1    3    3    0    0  0.33308979022E+02  0.44644296357E+00 -0.12854148820E+02  0.35705973407E+02  0.51100000000E-03 0. -1.
        -11    1    3    3    0    0 -0.36193627142E+01  0.39019812945E+00  0.26873867172E+01  0.45248302362E+01  0.51100000000E-03 0.  1.
        -12    1    3    3    0    0  0.69654353921E+01 -0.16174422393E+01 -0.74105766764E+01  0.10298060802E+02  0.00000000000E+00 0.  1.
</event>
<event>
 7    1  0.4994895E-011  0.5052884E+02  0.7816164E-02  0.1300439E+00
        -11   -1    0    0    0    0  0.00000000000E+00  0.00000000000E+00  0.45593999997E+02  0.45594000000E+02  0.51100000000E-03 0.  1.
         11   -1    0    0    0    0 -0.00000000000E+00 -0.00000000000E+00 -0.45593999997E+02  0.45594000000E+02  0.51100000000E-03 0. -1.
    9900012    2    1    2    0    0  0.60446613710E+01 -0.40204160073E+02  0.50462898839E+00  0.50528842745E+02  0.29999948008E+02 0.  0.
        -12    1    1    2    0    0 -0.60446613710E+01  0.40204160073E+02 -0.50462898839E+00  0.40659157255E+02  0.00000000000E+00 0.  1.
         11    1    3    3    0    0 -0.88166124047E+01 -0.25982742231E+02  0.18217416629E+01  0.27498259782E+02  0.51100000000E-03 0. -1.
        -11    1    3    3    0    0  0.73077063534E+01 -0.58640250883E+00  0.43985766930E+00  0.73443798295E+01  0.51100000000E-03 0.  1.
         12    1    3    3    0    0  0.75535674222E+01 -0.13635015334E+02 -0.17569703438E+01  0.15686203133E+02  0.00000000000E+00 0. -1.
</event>
<event>
 7    1  0.4994895E-011  0.5052880E+02  0.7816164E-02  0.1300439E+00
        -11   -1    0    0    0    0  0.00000000000E+00  0.00000000000E+00  0.45593999997E+02  0.45594000000E+02  0.51100000000E-03 0. -1.
         11   -1    0    0    0    0 -0.00000000000E+00 -0.00000000000E+00 -0.45593999997E+02  0.45594000000E+02  0.51100000000E-03 0.  1.
    9900012    2    1    2    0    0  0.25810961604E+02 -0.76832342805E+01  0.30461982571E+02  0.50528804114E+02  0.29999830585E+02 0.  0.
        -12    1    1    2    0    0 -0.25810961604E+02  0.76832342805E+01 -0.30461982571E+02  0.40659195886E+02  0.00000000000E+00 0.  1.
         11    1    3    3    0    0  0.12054803071E+02 -0.88403915292E+01  0.28985788113E+02  0.32613597046E+02  0.51100000000E-03 0. -1.
        -11    1    3    3    0    0  0.65391417960E+01 -0.40086030970E+01 -0.26670167138E+01  0.81204835219E+01  0.51100000000E-03 0.  1.
        -12    1    3    3    0    0  0.72170167371E+01  0.51657603457E+01  0.41432111712E+01  0.97947235460E+01  0.00000000000E+00 0.  1.
</event>
<event>
 7    1  0.4994895E-011  0.5052886E+02  0.7816164E-02  0.1300439E+00
        -11   -1    0    0    0    0  0.00000000000E+00  0.00000000000E+00  0.45593999997E+02  0.45594000000E+02  0.51100000000E-03 0.  1.
         11   -1    0    0    0    0 -0.00000000000E+00 -0.00000000000E+00 -0.45593999997E+02  0.45594000000E+02  0.51100000000E-03 0. -1.
    9900012    2    1    2    0    0  0.22340813609E+02 -0.28201461422E+02 -0.18940201355E+02  0.50528860727E+02  0.30000002667E+02 0.  0.
        -12    1    1    2    0    0 -0.22340813609E+02  0.28201461422E+02  0.18940201355E+02  0.40659139273E+02  0.00000000000E+00 0.  1.
         11    1    3    3    0    0 -0.14037051540E+01 -0.13496386592E+02 -0.67509441579E+01  0.15155793826E+02  0.51100000000E-03 0. -1.
        -11    1    3    3    0    0  0.17729394133E+02 -0.16878069728E+02 -0.37190407689E+01  0.24759481387E+02  0.51100000000E-03 0.  1.
        -12    1    3    3    0    0  0.60151246296E+01  0.21729948979E+01 -0.84702164277E+01  0.10613585514E+02  0.00000000000E+00 0.  1.
</event>
<event>
 7    1  0.4994895E-011  0.5052888E+02  0.7816164E-02  0.1300439E+00
        -11   -1    0    0    0    0  0.00000000000E+00  0.00000000000E+00  0.45593999997E+02  0.45594000000E+02  0.51100000000E-03 0.  1.
         11   -1    0    0    0    0 -0.00000000000E+00 -0.00000000000E+00 -0.45593999997E+02  0.45594000000E+02  0.51100000000E-03 0. -1.
    9900012    2    1    2    0    0 -0.28480880090E+02 -0.13717321863E+02 -0.25570270643E+02  0.50528878138E+02  0.30000055590E+02 0.  0.
        -12    1    1    2    0    0  0.28480880090E+02  0.13717321863E+02  0.25570270643E+02  0.40659121862E+02  0.00000000000E+00 0.  1.
         11    1    3    3    0    0  0.76170747104E+00 -0.62928344572E+01 -0.15458153843E+02  0.16707318285E+02  0.51100000000E-03 0. -1.
        -11    1    3    3    0    0 -0.12068869205E+02 -0.67876377916E+01 -0.91749190274E+01  0.16610501802E+02  0.51100000000E-03 0.  1.
         12    1    3    3    0    0 -0.17173718356E+02 -0.63684961458E+00 -0.93719777212E+00  0.17211058052E+02  0.00000000000E+00 0. -1.
</event>
<event>
 7    1  0.4994895E-011  0.5052887E+02  0.7816164E-02  0.1300439E+00
        -11   -1    0    0    0    0  0.00000000000E+00  0.00000000000E+00  0.45593999997E+02  0.45594000000E+02  0.51100000000E-03 0. -1.
         11   -1    0    0    0    0 -0.00000000000E+00 -0.00000000000E+00 -0.45593999997E+02  0.45594000000E+02  0.51100000000E-03 0.  1.
    9900012    2    1    2    0    0 -0.11756708358E+01  0.37736579866E+02  0.15090820640E+02  0.50528873970E+02  0.30000042919E+02 0.  0.
        -12    1    1    2    0    0  0.11756708358E+01 -0.37736579866E+02 -0.15090820640E+02  0.40659126030E+02  0.00000000000E+00 0.  1.
         11    1    3    3    0    0 -0.25844254857E+01 -0.30795784894E+00 -0.37475689936E+01  0.45627148443E+01  0.51100000000E-03 0. -1.
        -11    1    3    3    0    0  0.78123424332E+01  0.28263082093E+02  0.89625047083E+01  0.30662044854E+02  0.51100000000E-03 0.  1.
         12    1    3    3    0    0 -0.64035877834E+01  0.97814556222E+01  0.98758849254E+01  0.15304114272E+02  0.00000000000E+00 0. -1.
</event>
<event>
 7    1  0.4994895E-011  0.5052889E+02  0.7816164E-02  0.1300439E+00
        -11   -1    0    0    0    0  0.00000000000E+00  0.00000000000E+00  0.45593999997E+02  0.45594000000E+02  0.51100000000E-03 0.  1.
         11   -1    0    0    0    0 -0.00000000000E+00 -0.00000000000E+00 -0.45593999997E+02  0.45594000000E+02  0.51100000000E-03 0. -1.
    9900012    2    1    2    0    0  0.31777083610E+02  0.28559875591E+01 -0.25203635405E+02  0.50528893451E+02  0.30000102134E+02 0.  0.
        -12    1    1    2    0    0 -0.31777083610E+02 -0.28559875591E+01  0.25203635405E+02  0.40659106549E+02  0.00000000000E+00 0.  1.
         11    1    3    3    0    0 -0.49727815343E+01 -0.24754117515E+01 -0.15679655180E+01  0.57718918610E+01  0.51100000000E-03 0. -1.
        -11    1    3    3    0    0  0.64010279338E+01  0.48143108350E+00 -0.80146316516E+00  0.64689472068E+01  0.51100000000E-03 0.  1.
         12    1    3    3    0    0  0.30348837211E+02  0.48499682271E+01 -0.22834206722E+02  0.38288054383E+02  0.00000000000E+00 0. -1.
</event>
<event>
 7    1  0.4994895E-011  0.5052886E+02  0.7816164E-02  0.1300439E+00
        -11   -1    0    0    0    0  0.00000000000E+00  0.00000000000E+00  0.45593999997E+02  0.45594000000E+02  0.51100000000E-03 0.  1.
         11   -1    0    0    0    0 -0.00000000000E+00 -0.00000000000E+00 -0.45593999997E+02  0.45594000000E+02  0.51100000000E-03 0. -1.
    9900012    2    1    2    0    0  0.18914611596E+02 -0.34867397450E+02 -0.89256683563E+01  0.50528862130E+02  0.30000006930E+02 0.  0.
        -12    1    1    2    0    0 -0.18914611596E+02  0.34867397450E+02  0.89256683563E+01  0.40659137870E+02  0.00000000000E+00 0.  1.
         11    1    3    3    0    0  0.81642830993E+01 -0.20389731892E+02 -0.10129874773E+02  0.24187001640E+02  0.51100000000E-03 0. -1.
        -11    1    3    3    0    0  0.45861979430E+01 -0.63152285232E+01  0.10115150780E+02  0.12776212210E+02  0.51100000000E-03 0.  1.
        -12    1    3    3    0    0  0.61641305534E+01 -0.81624370349E+01 -0.89109443629E+01  0.13565648280E+02  0.00000000000E+00 0.  1.
</event>
<event>
 7    1  0.4994895E-011  0.5052884E+02  0.7816164E-02  0.1300439E+00
        -11   -1    0    0    0    0  0.00000000000E+00  0.00000000000E+00  0.45593999997E+02  0.45594000000E+02  0.51100000000E-03 0.  1.
         11   -1    0    0    0    0 -0.00000000000E+00 -0.00000000000E+00 -0.45593999997E+02  0.45594000000E+02  0.51100000000E-03 0. -1.
    9900012    2    1    2    0    0  0.36590421399E+02  0.16768925891E+02 -0.57542230108E+01  0.50528844867E+02  0.29999954457E+02 0.  0.
        -12    1    1    2    0    0 -0.36590421399E+02 -0.16768925891E+02  0.57542230108E+01  0.40659155133E+02  0.00000000000E+00 0.  1.
         11    1    3    3    0    0  0.46225729703E+01  0.33859478288E+00 -0.96016044269E+01  0.10661783862E+02  0.51100000000E-03 0. -1.
        -11    1    3    3    0    0  0.22587332323E+02  0.19375153245E+02  0.17251080496E+01  0.29808725950E+02  0.51100000000E-03 0.  1.
        -12    1    3    3    0    0  0.93805161054E+01 -0.29448221365E+01  0.21222733666E+01  0.10058335054E+02  0.00000000000E+00 0.  1.
</event>
<event>
 7    1  0.4994895E-011  0.5052886E+02  0.7816164E-02  0.1300439E+00
        -11   -1    0    0    0    0  0.00000000000E+00  0.00000000000E+00  0.45593999997E+02  0.45594000000E+02  0.51100000000E-03 0.  1.
         11   -1    0    0    0    0 -0.00000000000E+00 -0.00000000000E+00 -0.45593999997E+02  0.45594000000E+02  0.51100000000E-03 0. -1.
    9900012    2    1    2    0    0 -0.15663448613E+02 -0.72360472552E+01 -0.36816596016E+02  0.50528859028E+02  0.29999997502E+02 0.  0.
        -12    1    1    2    0    0  0.15663448613E+02  0.72360472552E+01  0.36816596016E+02  0.40659140972E+02  0.00000000000E+00 0.  1.
         11    1    3    3    0    0 -0.15401398412E+02 -0.15623424721E+01 -0.10622738979E+02  0.18774625715E+02  0.51100000000E-03 0. -1.
        -11    1    3    3    0    0  0.38798300106E+01 -0.59006060047E+01 -0.21886506266E+01  0.73932688278E+01  0.51100000000E-03 0.  1.
         12    1    3    3    0    0 -0.41418802111E+01  0.22690122162E+00 -0.24005206411E+02  0.24360964486E+02  0.00000000000E+00 0. -1.
</event>
<event>
 7    1  0.4994895E-011  0.5052897E+02  0.7816164E-02  0.1300438E+00
        -11   -1    0    0    0    0  0.00000000000E+00  0.00000000000E+00  0.45593999997E+02  0.45594000000E+02  0.51100000000E-03 0. -1.
         11   -1    0    0    0    0 -0.00000000000E+00 -0.00000000000E+00 -0.45593999997E+02  0.45594000000E+02  0.51100000000E-03 0.  1.
    9900012    2    1    2    0    0  0.21599519678E+02 -0.13217846717E+02  0.31810473881E+02  0.50528966924E+02  0.30000325459E+02 0.  0.
        -12    1    1    2    0    0 -0.21599519678E+02  0.13217846717E+02 -0.31810473881E+02  0.40659033076E+02  0.00000000000E+00 0.  1.
         11    1    3    3    0    0  0.67028289805E+01 -0.39931210724E-01  0.22112370169E+01  0.70582632602E+01  0.51100000000E-03 0. -1.
        -11    1    3    3    0    0  0.53027468920E+01 -0.18915172902E+02  0.23855485888E+02  0.30902865526E+02  0.51100000000E-03 0.  1.
        -12    1    3    3    0    0  0.95939438054E+01  0.57372573958E+01  0.57437509764E+01  0.12567838137E+02  0.00000000000E+00 0.  1.
</event>
<event>
 7    1  0.4994895E-011  0.5052886E+02  0.7816164E-02  0.1300439E+00
        -11   -1    0    0    0    0  0.00000000000E+00  0.00000000000E+00  0.45593999997E+02  0.45594000000E+02  0.51100000000E-03 0.  1.
         11   -1    0    0    0    0 -0.00000000000E+00 -0.00000000000E+00 -0.45593999997E+02  0.45594000000E+02  0.51100000000E-03 0. -1.
    9900012    2    1    2    0    0 -0.30858011940E+02  0.26390124463E+02 -0.21236336690E+01  0.50528863388E+02  0.30000010754E+02 0.  0.
        -12    1    1    2    0    0  0.30858011940E+02 -0.26390124463E+02  0.21236336690E+01  0.40659136612E+02  0.00000000000E+00 0.  1.
         11    1    3    3    0    0 -0.44074628601E+01 -0.13859752786E+01 -0.57906523345E+01  0.74079896771E+01  0.51100000000E-03 0. -1.
        -11    1    3    3    0    0 -0.13153001433E+02  0.24860827788E+02 -0.23770508650E+01  0.28226097429E+02  0.51100000000E-03 0.  1.
        -12    1    3    3    0    0 -0.13297547647E+02  0.29152719540E+01  0.60440695305E+01  0.14894776282E+02  0.00000000000E+00 0.  1.
</event>
<event>
 7    1  0.4994895E-011  0.5052886E+02  0.7816164E-02  0.1300439E+00
        -11   -1    0    0    0    0  0.00000000000E+00  0.00000000000E+00  0.45593999997E+02  0.45594000000E+02  0.51100000000E-03 0.  1.
         11   -1    0    0    0    0 -0.00000000000E+00 -0.00000000000E+00 -0.45593999997E+02  0.45594000000E+02  0.51100000000E-03 0. -1.
    9900012    2    1    2    0    0  0.76307278794E+01 -0.67018767182E+01 -0.39370329807E+02  0.50528855535E+02  0.29999986885E+02 0.  0.
        -12    1    1    2    0    0 -0.76307278794E+01  0.67018767182E+01  0.39370329807E+02  0.40659144465E+02  0.00000000000E+00 0.  1.
         11    1    3    3    0    0  0.14301028230E+02  0.17072770834E+01 -0.21950315240E+02  0.26253581525E+02  0.51100000000E-03 0. -1.
        -11    1    3    3    0    0 -0.13109179354E+01 -0.17172643446E+00  0.20651590489E+01  0.24521170364E+01  0.51100000000E-03 0.  1.
         12    1    3    3    0    0 -0.53593824149E+01 -0.82374273671E+01 -0.19485173615E+02  0.21823156974E+02  0.00000000000E+00 0. -1.
</event>
<event>
 7    1  0.4994895E-011  0.5052891E+02  0.7816164E-02  0.1300439E+00
        -11   -1    0    0    0    0  0.00000000000E+00  0.00000000000E+00  0.45593999997E+02  0.45594000000E+02  0.51100000000E-03 0.  1.
         11   -1    0    0    0    0 -0.00000000000E+00 -0.00000000000E+00 -0.45593999997E+02  0.45594000000E+02  0.51100000000E-03 0. -1.
    9900012    2    1    2    0    0 -0.87866456660E+01 -0.25762586144E+02 -0.30203406607E+02  0.50528908057E+02  0.30000146531E+02 0.  0.
        -12    1    1    2    0    0  0.87866456660E+01  0.25762586144E+02  0.30203406607E+02  0.40659091943E+02  0.00000000000E+00 0.  1.
         11    1    3    3    0    0  0.76375639535E+01 -0.12002518759E+02 -0.22186826867E+02  0.26356178144E+02  0.51100000000E-03 0. -1.
        -11    1    3    3    0    0 -0.13030638176E+02 -0.65060923994E+01 -0.35032095285E+01  0.14979961510E+02  0.51100000000E-03 0.  1.
         12    1    3    3    0    0 -0.33935714437E+01 -0.72539749861E+01 -0.45133702123E+01  0.91927684032E+01  0.00000000000E+00 0. -1.
</event>
<event>
 7    1  0.4994895E-011  0.5052886E+02  0.7816164E-02  0.1300439E+00
        -11   -1    0    0    0    0  0.00000000000E+00  0.00000000000E+00  0.45593999997E+02  0.45594000000E+02  0.51100000000E-03 0. -1.
         11   -1    0    0    0    0 -0.00000000000E+00 -0.00000000000E+00 -0.45593999997E+02  0.45594000000E+02  0.51100000000E-03 0.  1.
    9900012    2    1    2    0    0 -0.37331410158E+02 -0.12245761752E+02  0.10467707146E+02  0.50528858861E+02  0.29999996993E+02 0.  0.
        -12    1    1    2    0    0  0.37331410158E+02  0.12245761752E+02 -0.10467707146E+02  0.40659141139E+02  0.00000000000E+00 0.  1.
         11    1    3    3    0    0 -0.27317753389E+02  0.26851107304E+01  0.82739017224E+01  0.28669267864E+02  0.51100000000E-03 0. -1.
        -11    1    3    3    0    0 -0.70681770391E+01 -0.16822398511E+02  0.17395777872E+01  0.18329712203E+02  0.51100000000E-03 0.  1.
        -12    1    3    3    0    0 -0.29454797301E+01  0.18915260279E+01  0.45422763617E+00  0.35298787940E+01  0.00000000000E+00 0.  1.
</event>
<event>
 7    1  0.4994895E-011  0.5052886E+02  0.7816164E-02  0.1300439E+00
        -11   -1    0    0    0    0  0.00000000000E+00  0.00000000000E+00  0.45593999997E+02  0.45594000000E+02  0.51100000000E-03 0.  1.
         11   -1    0    0    0    0 -0.00000000000E+00 -0.00000000000E+00 -0.45593999997E+02  0.45594000000E+02  0.51100000000E-03 0. -1.
    9900012    2    1    2    0    0 -0.25645893925E+02 -0.30168743090E+02  0.92358350064E+01  0.50528861013E+02  0.30000003536E+02 0.  0.
        -12    1    1    2    0    0  0.25645893925E+02  0.30168743090E+02 -0.92358350064E+01  0.40659138987E+02  0.00000000000E+00 0.  1.
         11    1    3    3    0    0 -0.28711620516E+01 -0.13006344345E+02 -0.29275006088E+01  0.13637405355E+02  0.51100000000E-03 0. -1.
        -11    1    3    3    0    0 -0.10710277911E+02  0.49368228652E+00  0.11171655759E+02  0.15484174753E+02  0.51100000000E-03 0.  1.
        -12    1    3    3    0    0 -0.12064453962E+02 -0.17656081032E+02  0.99167985652E+00  0.21407280905E+02  0.00000000000E+00 0.  1.
</event>
<event>
 7    1  0.4994895E-011  0.5052886E+02  0.7816164E-02  0.1300439E+00
        -11   -1    0    0    0    0  0.00000000000E+00  0.00000000000E+00  0.45593999997E+02  0.45594000000E+02  0.51100000000E-03 0.  1.
         11   -1    0    0    0    0 -0.00000000000E+00 -0.00000000000E+00 -0.45593999997E+02  0.45594000000E+02  0.51100000000E-03 0. -1.
    9900012    2    1    2    0    0  0.25351197581E+02 -0.15461284786E+02 -0.27774643652E+02  0.50528863560E+02  0.30000011278E+02 0.  0.
        -12    1    1    2    0    0 -0.25351197581E+02  0.15461284786E+02  0.27774643652E+02  0.40659136440E+02  0.00000000000E+00 0.  1.
         11    1    3    3    0    0  0.22333134441E+01  0.22755048656E+01 -0.20029438968E+02  0.20281618204E+02  0.51100000000E-03 0. -1.
        -11    1    3    3    0    0  0.18581628220E+02 -0.13042483913E+02 -0.63232549441E+01  0.23566222593E+02  0.51100000000E-03 0.  1.
         12    1    3    3    0    0  0.45362559162E+01 -0.46943057380E+01 -0.14219497401E+01  0.66810227633E+01  0.00000000000E+00 0. -1.
</event>
<event>
 7    1  0.4994895E-011  0.5052887E+02  0.7816164E-02  0.1300439E+00
        -11   -1    0    0    0    0  0.00000000000E+00  0.00000000000E+00  0.45593999997E+02  0.45594000000E+02  0.51100000000E-03 0.  1.
         11   -1    0    0    0    0 -0.00000000000E+00 -0.00000000000E+00 -0.45593999997E+02  0.45594000000E+02  0.51100000000E-03 0. -1.
    9900012    2    1    2    0    0  0.21025804604E+01 -0.41437116311E+01 -0.40392746228E+02  0.50528866481E+02  0.30000020154E+02 0.  0.
        -12    1    1    2    0    0 -0.21025804604E+01  0.41437116311E+01  0.40392746228E+02  0.40659133519E+02  0.00000000000E+00 0.  1.
         11    1    3    3    0    0  0.19764658662E+00 -0.10084150815E+02 -0.24277273309E+02  0.26289069238E+02  0.51100000000E-03 0. -1.
        -11    1    3    3    0    0 -0.24205202596E+01 -0.16487634819E+01  0.23874487674E+01  0.37785250065E+01  0.51100000000E-03 0.  1.
         12    1    3    3    0    0  0.43254541333E+01  0.75892026656E+01 -0.18502921687E+02  0.20461272236E+02  0.00000000000E+00 0. -1.
</event>
<event>
 7    1  0.4994895E-011  0.5052883E+02  0.7816164E-02  0.1300439E+00
        -11   -1    0    0    0    0  0.00000000000E+00  0.00000000000E+00  0.45593999997E+02  0.45594000000E+02  0.51100000000E-03 0.  1.
         11   -1    0    0    0    0 -0.00000000000E+00 -0.00000000000E+00 -0.45593999997E+02  0.45594000000E+02  0.51100000000E-03 0. -1.
    9900012    2    1    2    0    0  0.27466630943E+02 -0.29438154549E+02 -0.56698368021E+01  0.50528833654E+02  0.29999920375E+02 0.  0.
        -12    1    1    2    0    0 -0.27466630943E+02  0.29438154549E+02  0.56698368021E+01  0.40659166346E+02  0.00000000000E+00 0.  1.
         11    1    3    3    0    0  0.42481514563E+01 -0.72030373845E+01 -0.34042868499E+01  0.90288264783E+01  0.51100000000E-03 0. -1.
        -11    1    3    3    0    0  0.12617514047E+02  0.38226750127E+01 -0.22130306449E+01  0.13368321132E+02  0.51100000000E-03 0.  1.
        -12    1    3    3    0    0  0.10600965439E+02 -0.26057792177E+02 -0.52519307223E-01  0.28131686044E+02  0.00000000000E+00 0.  1.
</event>
<event>
 7    1  0.4994895E-011  0.5052885E+02  0.7816164E-02  0.1300439E+00
        -11   -1    0    0    0    0  0.00000000000E+00  0.00000000000E+00  0.45593999997E+02  0.45594000000E+02  0.51100000000E-03 0. -1.
         11   -1    0    0    0    0 -0.00000000000E+00 -0.00000000000E+00 -0.45593999997E+02  0.45594000000E+02  0.51100000000E-03 0.  1.
    9900012    2    1    2    0    0 -0.34080488323E+02 -0.19005598487E+02  0.11422533064E+02  0.50528847036E+02  0.29999961050E+02 0.  0.
        -12    1    1    2    0    0  0.34080488323E+02  0.19005598487E+02 -0.11422533064E+02  0.40659152964E+02  0.00000000000E+00 0.  1.
         11    1    3    3    0    0 -0.27456289285E+02 -0.18553391051E+02  0.43240463397E+01  0.33418161497E+02  0.51100000000E-03 0. -1.
        -11    1    3    3    0    0 -0.72862049146E+01  0.25943800037E+01 -0.15757377833E+01  0.78931957713E+01  0.51100000000E-03 0.  1.
         12    1    3    3    0    0  0.66200587698E+00 -0.30465874389E+01  0.86742245076E+01  0.92174897674E+01  0.00000000000E+00 0. -1.
</event>
<event>
 7    1  0.4994895E-011  0.5052888E+02  0.7816164E-02  0.1300439E+00
        -11   -1    0    0    0    0  0.00000000000E+00  0.00000000000E+00  0.45593999997E+02  0.45594000000E+02  0.51100000000E-03 0.  1.
         11   -1    0    0    0    0 -0.00000000000E+00 -0.00000000000E+00 -0.45593999997E+02  0.45594000000E+02  0.51100000000E-03 0. -1.
    9900012    2    1    2    0    0 -0.33343455801E+02 -0.46282373520E+01 -0.22802581827E+02  0.50528876009E+02  0.30000049117E+02 0.  0.
        -12    1    1    2    0    0  0.33343455801E+02  0.46282373520E+01  0.22802581827E+02  0.40659123991E+02  0.00000000000E+00 0.  1.
         11    1    3    3    0    0 -0.59853211319E+01 -0.76961390358E+01 -0.17248540936E+02  0.19813298307E+02  0.51100000000E-03 0. -1.
        -11    1    3    3    0    0 -0.17878434952E+02 -0.11570989158E+01  0.17846258708E+01  0.18004505103E+02  0.51100000000E-03 0.  1.
         12    1    3    3    0    0 -0.94796997171E+01  0.42250005996E+01 -0.73386667622E+01  0.12711072600E+02  0.00000000000E+00 0. -1.
</event>
<event>
 7    1  0.4994895E-011  0.5052886E+02  0.7816164E-02  0.1300439E+00
        -11   -1    0    0    0    0  0.00000000000E+00  0.00000000000E+00  0.45593999997E+02  0.45594000000E+02  0.51100000000E-03 0. -1.
         11   -1    0    0    0    0 -0.00000000000E+00 -0.00000000000E+00 -0.45593999997E+02  0.45594000000E+02  0.51100000000E-03 0.  1.
    9900012    2    1    2    0    0 -0.15763691736E+02  0.32982828046E+02  0.17799009814E+02  0.50528859903E+02  0.30000000162E+02 0.  0.
        -12    1    1    2    0    0  0.15763691736E+02 -0.32982828046E+02 -0.17799009814E+02  0.40659140097E+02  0.00000000000E+00 0.  1.
         11    1    3    3    0    0 -0.20994728878E+02  0.16081294044E+02  0.91862267447E+01  0.27995953651E+02  0.51100000000E-03 0. -1.
        -11    1    3    3    0    0  0.66410064490E+01  0.93091162175E+01  0.66967685794E+00  0.11454740449E+02  0.51100000000E-03 0.  1.
        -12    1    3    3    0    0 -0.14099693070E+01  0.75924177846E+01  0.79431062118E+01  0.11078165803E+02  0.00000000000E+00 0.  1.
</event>
<event>
 7    1  0.4994895E-011  0.5052886E+02  0.7816164E-02  0.1300439E+00
        -11   -1    0    0    0    0  0.00000000000E+00  0.00000000000E+00  0.45593999997E+02  0.45594000000E+02  0.51100000000E-03 0. -1.
         11   -1    0    0    0    0 -0.00000000000E+00 -0.00000000000E+00 -0.45593999997E+02  0.45594000000E+02  0.51100000000E-03 0.  1.
    9900012    2    1    2    0    0  0.15132396788E+02 -0.27753641410E+02 -0.25571699312E+02  0.50528857734E+02  0.29999993569E+02 0.  0.
        -12    1    1    2    0    0 -0.15132396788E+02  0.27753641410E+02  0.25571699312E+02  0.40659142266E+02  0.00000000000E+00 0.  1.
         11    1    3    3    0    0  0.91193825379E+01  0.26570443119E+01 -0.54958978276E+01  0.10973965352E+02  0.51100000000E-03 0. -1.
        -11    1    3    3    0    0  0.54178050943E+01 -0.27776753636E+02 -0.11471483775E+02  0.30536790840E+02  0.51100000000E-03 0.  1.
        -12    1    3    3    0    0  0.59520915543E+00 -0.26339320865E+01 -0.86043177100E+01  0.90181015424E+01  0.00000000000E+00 0.  1.
</event>
<event>
 7    1  0.4994895E-011  0.5052885E+02  0.7816164E-02  0.1300439E+00
        -11   -1    0    0    0    0  0.00000000000E+00  0.00000000000E+00  0.45593999997E+02  0.45594000000E+02  0.51100000000E-03 0. -1.
         11   -1    0    0    0    0 -0.00000000000E+00 -0.00000000000E+00 -0.45593999997E+02  0.45594000000E+02  0.51100000000E-03 0.  1.
    9900012    2    1    2    0    0  0.10256525078E+02  0.34811828900E+02 -0.18333218112E+02  0.50528848208E+02  0.29999964614E+02 0.  0.
        -12    1    1    2    0    0 -0.10256525078E+02 -0.34811828900E+02  0.18333218112E+02  0.40659151792E+02  0.00000000000E+00 0.  1.
         11    1    3    3    0    0  0.88058523268E+01  0.25714653721E+02 -0.57463546094E+01  0.27781415420E+02  0.51100000000E-03 0. -1.
        -11    1    3    3    0    0  0.83984116130E+01  0.34071718309E+01 -0.97910386056E+01  0.13341910461E+02  0.51100000000E-03 0.  1.
         12    1    3    3    0    0 -0.69477388618E+01  0.56900033483E+01 -0.27958248970E+01  0.94055223273E+01  0.00000000000E+00 0. -1.
</event>
<event>
 7    1  0.4994895E-011  0.5052882E+02  0.7816164E-02  0.1300439E+00
        -11   -1    0    0    0    0  0.00000000000E+00  0.00000000000E+00  0.45593999997E+02  0.45594000000E+02  0.51100000000E-03 0.  1.
         11   -1    0    0    0    0 -0.00000000000E+00 -0.00000000000E+00 -0.45593999997E+02  0.45594000000E+02  0.51100000000E-03 0. -1.
    9900012    2    1    2    0    0 -0.68585751689E+01 -0.11892584686E+02 -0.38271336158E+02  0.50528821513E+02  0.29999883472E+02 0.  0.
        -12    1    1    2    0    0  0.68585751689E+01  0.11892584686E+02  0.38271336158E+02  0.40659178487E+02  0.00000000000E+00 0.  1.
         11    1    3    3    0    0  0.89815537160E+00 -0.13731298270E+02 -0.43376160786E+01  0.14428102743E+02  0.51100000000E-03 0. -1.
        -11    1    3    3    0    0 -0.91486223005E+01  0.36835070092E+01 -0.25054881938E+02  0.26926058439E+02  0.51100000000E-03 0.  1.
        -12    1    3    3    0    0  0.13918917600E+01 -0.18447934254E+01 -0.88788381417E+01  0.91746603316E+01  0.00000000000E+00 0.  1.
</event>
<event>
 7    1  0.4994895E-011  0.5052886E+02  0.7816164E-02  0.1300439E+00
        -11   -1    0    0    0    0  0.00000000000E+00  0.00000000000E+00  0.45593999997E+02  0.45594000000E+02  0.51100000000E-03 0.  1.
         11   -1    0    0    0    0 -0.00000000000E+00 -0.00000000000E+00 -0.45593999997E+02  0.45594000000E+02  0.51100000000E-03 0. -1.
    9900012    2    1    2    0    0  0.22966707385E+02  0.58928007659E+01 -0.33029849081E+02  0.50528859831E+02  0.29999999942E+02 0.  0.
        -12    1    1    2    0    0 -0.22966707385E+02 -0.58928007659E+01  0.33029849081E+02  0.40659140169E+02  0.00000000000E+00 0.  1.
         11    1    3    3    0    0  0.21272774934E+02  0.34519268130E+01 -0.30816924903E+02  0.37604914743E+02  0.51100000000E-03 0. -1.
        -11    1    3    3    0    0 -0.11404821577E+01  0.54834526620E+01 -0.53264862266E+01  0.77291919650E+01  0.51100000000E-03 0.  1.
         12    1    3    3    0    0  0.28344146094E+01 -0.30425787092E+01  0.31135620482E+01  0.51947531229E+01  0.00000000000E+00 0. -1.
</event>
<event>
 7    1  0.4994895E-011  0.5052887E+02  0.7816164E-02  0.1300439E+00
        -11   -1    0    0    0    0  0.00000000000E+00  0.00000000000E+00  0.45593999997E+02  0.45594000000E+02  0.51100000000E-03 0.  1.
         11   -1    0    0    0    0 -0.00000000000E+00 -0.00000000000E+00 -0.45593999997E+02  0.45594000000E+02  0.51100000000E-03 0. -1.
    9900012    2    1    2    0    0 -0.84715792593E+01 -0.35310917919E+02 -0.18290333810E+02  0.50528869533E+02  0.30000029433E+02 0.  0.
        -12    1    1    2    0    0  0.84715792593E+01  0.35310917919E+02  0.18290333810E+02  0.40659130467E+02  0.00000000000E+00 0.  1.
         11    1    3    3    0    0  0.63397971517E+00  0.85215161635E+00 -0.10923550912E+02  0.10975065259E+02  0.51100000000E-03 0. -1.
        -11    1    3    3    0    0 -0.79860693024E+01 -0.33603613771E+02 -0.97418084914E+01  0.35887086735E+02  0.51100000000E-03 0.  1.
        -12    1    3    3    0    0 -0.11194896721E+01 -0.25594557648E+01  0.23750255940E+01  0.36667175389E+01  0.00000000000E+00 0.  1.
</event>
<event>
 7    1  0.4994895E-011  0.5052886E+02  0.7816164E-02  0.1300439E+00
        -11   -1    0    0    0    0  0.00000000000E+00  0.00000000000E+00  0.45593999997E+02  0.45594000000E+02  0.51100000000E-03 0. -1.
         11   -1    0    0    0    0 -0.00000000000E+00 -0.00000000000E+00 -0.45593999997E+02  0.45594000000E+02  0.51100000000E-03 0.  1.
    9900012    2    1    2    0    0  0.26117746909E+02 -0.15989839998E+02  0.26746099755E+02  0.50528861558E+02  0.30000005190E+02 0.  0.
        -12    1    1    2    0    0 -0.26117746909E+02  0.15989839998E+02 -0.26746099755E+02  0.40659138442E+02  0.00000000000E+00 0.  1.
         11    1    3    3    0    0  0.11290571795E+02 -0.87788657332E+01  0.33000354618E+01  0.14677729025E+02  0.51100000000E-03 0. -1.
        -11    1    3    3    0    0 -0.38108674115E+01 -0.69730532449E+01  0.10450234671E+02  0.13128350503E+02  0.51100000000E-03 0.  1.
         12    1    3    3    0    0  0.18638042525E+02 -0.23792101983E+00  0.12995829622E+02  0.22722782030E+02  0.00000000000E+00 0. -1.
</event>
<event>
 7    1  0.4994895E-011  0.5052890E+02  0.7816164E-02  0.1300439E+00
        -11   -1    0    0    0    0  0.00000000000E+00  0.00000000000E+00  0.45593999997E+02  0.45594000000E+02  0.51100000000E-03 0.  1.
         11   -1    0    0    0    0 -0.00000000000E+00 -0.00000000000E+00 -0.45593999997E+02  0.45594000000E+02  0.51100000000E-03 0. -1.
    9900012    2    1    2    0    0 -0.21883204327E+02  0.52673664736E+01 -0.33860640142E+02  0.50528896074E+02  0.30000110107E+02 0.  0.
        -12    1    1    2    0    0  0.21883204327E+02 -0.52673664736E+01  0.33860640142E+02  0.40659103926E+02  0.00000000000E+00 0.  1.
         11    1    3    3    0    0 -0.13157892531E+02  0.43547890168E+01 -0.11874964934E+02  0.18251277098E+02  0.51100000000E-03 0. -1.
        -11    1    3    3    0    0  0.29168289075E+01 -0.82431328277E+01 -0.94385344354E+01  0.12866353883E+02  0.51100000000E-03 0.  1.
        -12    1    3    3    0    0 -0.11642140703E+02  0.91557102845E+01 -0.12547140773E+02  0.19411265094E+02  0.00000000000E+00 0.  1.
</event>
<event>
 7    1  0.4994895E-011  0.5052885E+02  0.7816164E-02  0.1300439E+00
        -11   -1    0    0    0    0  0.00000000000E+00  0.00000000000E+00  0.45593999997E+02  0.45594000000E+02  0.51100000000E-03 0. -1.
         11   -1    0    0    0    0 -0.00000000000E+00 -0.00000000000E+00 -0.45593999997E+02  0.45594000000E+02  0.51100000000E-03 0.  1.
    9900012    2    1    2    0    0  0.38043958788E+01  0.26088681370E+02  0.30952772526E+02  0.50528845426E+02  0.29999956156E+02 0.  0.
        -12    1    1    2    0    0 -0.38043958788E+01 -0.26088681370E+02 -0.30952772526E+02  0.40659154574E+02  0.00000000000E+00 0.  1.
         11    1    3    3    0    0 -0.63694143031E+01 -0.95539825038E+00  0.62724759131E+01  0.89903380762E+01  0.51100000000E-03 0. -1.
        -11    1    3    3    0    0  0.12511808374E+01  0.23676568391E+02  0.15682044688E+02  0.28426604970E+02  0.51100000000E-03 0.  1.
        -12    1    3    3    0    0  0.89226293445E+01  0.33675112292E+01  0.89982519250E+01  0.13111902379E+02  0.00000000000E+00 0.  1.
</event>
<event>
 7    1  0.4994895E-011  0.5052886E+02  0.7816164E-02  0.1300439E+00
        -11   -1    0    0    0    0  0.00000000000E+00  0.00000000000E+00  0.45593999997E+02  0.45594000000E+02  0.51100000000E-03 0. -1.
         11   -1    0    0    0    0 -0.00000000000E+00 -0.00000000000E+00 -0.45593999997E+02  0.45594000000E+02  0.51100000000E-03 0.  1.
    9900012    2    1    2    0    0  0.33988442870E+02  0.20983805008E+02  0.75915530534E+01  0.50528855898E+02  0.29999987988E+02 0.  0.
        -12    1    1    2    0    0 -0.33988442870E+02 -0.20983805008E+02 -0.75915530534E+01  0.40659144102E+02  0.00000000000E+00 0.  1.
         11    1    3    3    0    0  0.24304743854E+02  0.11021865474E+02  0.59740376065E+01  0.27347599857E+02  0.51100000000E-03 0. -1.
        -11    1    3    3    0    0  0.14774770197E+01  0.13902883704E+02  0.16461318662E+01  0.14077743570E+02  0.51100000000E-03 0.  1.
        -12    1    3    3    0    0  0.82062219966E+01 -0.39409441709E+01 -0.28616419332E-01  0.91035124713E+01  0.00000000000E+00 0.  1.
</event>
<event>
 7    1  0.4994895E-011  0.5052886E+02  0.7816164E-02  0.1300439E+00
        -11   -1    0    0    0    0  0.00000000000E+00  0.00000000000E+00  0.45593999997E+02  0.45594000000E+02  0.51100000000E-03 0. -1.
         11   -1    0    0    0    0 -0.00000000000E+00 -0.00000000000E+00 -0.45593999997E+02  0.45594000000E+02  0.51100000000E-03 0.  1.
    9900012    2    1    2    0    0  0.17316671289E+01  0.40622235238E+02  0.25227127997E-01  0.50528864456E+02  0.30000014000E+02 0.  0.
        -12    1    1    2    0    0 -0.17316671289E+01 -0.40622235238E+02 -0.25227127997E-01  0.40659135544E+02  0.00000000000E+00 0.  1.
         11    1    3    3    0    0  0.39668276733E+01  0.21916446303E+01  0.86999379238E+01  0.98095845027E+01  0.51100000000E-03 0. -1.
        -11    1    3    3    0    0 -0.26728052588E+01  0.31357586629E+02 -0.10877825231E+02  0.33298186274E+02  0.51100000000E-03 0.  1.
         12    1    3    3    0    0  0.43764471439E+00  0.70730039791E+01  0.22031144349E+01  0.74210936793E+01  0.00000000000E+00 0. -1.
</event>
<event>
 7    1  0.4994895E-011  0.5052887E+02  0.7816164E-02  0.1300439E+00
        -11   -1    0    0    0    0  0.00000000000E+00  0.00000000000E+00  0.45593999997E+02  0.45594000000E+02  0.51100000000E-03 0.  1.
         11   -1    0    0    0    0 -0.00000000000E+00 -0.00000000000E+00 -0.45593999997E+02  0.45594000000E+02  0.51100000000E-03 0. -1.
    9900012    2    1    2    0    0 -0.30911368127E+02  0.16355142554E+01 -0.26362426833E+02  0.50528866526E+02  0.30000020291E+02 0.  0.
        -12    1    1    2    0    0  0.30911368127E+02 -0.16355142554E+01  0.26362426833E+02  0.40659133474E+02  0.00000000000E+00 0.  1.
         11    1    3    3    0    0  0.15480790544E+00 -0.30414215301E+01  0.32359529243E+01  0.44436023676E+01  0.51100000000E-03 0.  1.
        -11    1    3    3    0    0 -0.25989364316E+02 -0.28845438717E+01 -0.23171310436E+02  0.34938192262E+02  0.51100000000E-03 0. -1.
         12    1    3    3    0    0 -0.50768117157E+01  0.75614796572E+01 -0.64270693212E+01  0.11147071896E+02  0.00000000000E+00 0. -1.
</event>
<event>
 7    1  0.4994895E-011  0.5052884E+02  0.7816164E-02  0.1300439E+00
        -11   -1    0    0    0    0  0.00000000000E+00  0.00000000000E+00  0.45593999997E+02  0.45594000000E+02  0.51100000000E-03 0.  1.
         11   -1    0    0    0    0 -0.00000000000E+00 -0.00000000000E+00 -0.45593999997E+02  0.45594000000E+02  0.51100000000E-03 0. -1.
    9900012    2    1    2    0    0  0.18332316184E+02 -0.97840589671E+01 -0.34948040102E+02  0.50528841947E+02  0.29999945583E+02 0.  0.
        -12    1    1    2    0    0 -0.18332316184E+02  0.97840589671E+01  0.34948040102E+02  0.40659158053E+02  0.00000000000E+00 0.  1.
         11    1    3    3    0    0  0.68670729319E+01 -0.10588636825E+02  0.10004310667E+00  0.12620852956E+02  0.51100000000E-03 0. -1.
        -11    1    3    3    0    0  0.68698411157E+00 -0.15382911773E+01 -0.68599916741E+00  0.18190332693E+01  0.51100000000E-03 0.  1.
         12    1    3    3    0    0  0.10778259141E+02  0.23428690347E+01 -0.34362084042E+02  0.36088955722E+02  0.00000000000E+00 0. -1.
</event>
<event>
 7    1  0.4994895E-011  0.5052886E+02  0.7816164E-02  0.1300439E+00
        -11   -1    0    0    0    0  0.00000000000E+00  0.00000000000E+00  0.45593999997E+02  0.45594000000E+02  0.51100000000E-03 0.  1.
         11   -1    0    0    0    0 -0.00000000000E+00 -0.00000000000E+00 -0.45593999997E+02  0.45594000000E+02  0.51100000000E-03 0. -1.
    9900012    2    1    2    0    0  0.62646630273E+01  0.20466180944E+02 -0.34569568526E+02  0.50528860396E+02  0.30000001659E+02 0.  0.
        -12    1    1    2    0    0 -0.62646630273E+01 -0.20466180944E+02  0.34569568526E+02  0.40659139604E+02  0.00000000000E+00 0.  1.
         11    1    3    3    0    0 -0.37159170131E+01 -0.14243751155E+01 -0.12332753683E+02  0.12958923465E+02  0.51100000000E-03 0. -1.
        -11    1    3    3    0    0  0.27988561522E+01  0.21687665299E+02 -0.20925683051E+02  0.30266691813E+02  0.51100000000E-03 0.  1.
        -12    1    3    3    0    0  0.71817238883E+01  0.20289076061E+00 -0.13111317924E+01  0.73032451175E+01  0.00000000000E+00 0.  1.
</event>
<event>
 7    1  0.4994895E-011  0.5052886E+02  0.7816164E-02  0.1300439E+00
        -11   -1    0    0    0    0  0.00000000000E+00  0.00000000000E+00  0.45593999997E+02  0.45594000000E+02  0.51100000000E-03 0.  1.
         11   -1    0    0    0    0 -0.00000000000E+00 -0.00000000000E+00 -0.45593999997E+02  0.45594000000E+02  0.51100000000E-03 0. -1.
    9900012    2    1    2    0    0  0.20949570712E+02 -0.27019322745E+02 -0.22005394974E+02  0.50528859299E+02  0.29999998324E+02 0.  0.
        -12    1    1    2    0    0 -0.20949570712E+02  0.27019322745E+02  0.22005394974E+02  0.40659140701E+02  0.00000000000E+00 0.  1.
         11    1    3    3    0    0  0.20568059380E+01 -0.92915797104E+01 -0.11822491981E+02  0.15176798776E+02  0.51100000000E-03 0. -1.
        -11    1    3    3    0    0  0.38004312930E+01 -0.76229749947E+01  0.64810101085E+01  0.10703107870E+02  0.51100000000E-03 0.  1.
        -12    1    3    3    0    0  0.15092333481E+02 -0.10104768040E+02 -0.16663913101E+02  0.24648952653E+02  0.00000000000E+00 0.  1.
</event>
<event>
 7    1  0.4994895E-011  0.5052886E+02  0.7816164E-02  0.1300439E+00
        -11   -1    0    0    0    0  0.00000000000E+00  0.00000000000E+00  0.45593999997E+02  0.45594000000E+02  0.51100000000E-03 0.  1.
         11   -1    0    0    0    0 -0.00000000000E+00 -0.00000000000E+00 -0.45593999997E+02  0.45594000000E+02  0.51100000000E-03 0. -1.
    9900012    2    1    2    0    0  0.27934399411E+02 -0.79520864173E+01 -0.28453461337E+02  0.50528858213E+02  0.29999995024E+02 0.  0.
        -12    1    1    2    0    0 -0.27934399411E+02  0.79520864173E+01  0.28453461337E+02  0.40659141787E+02  0.00000000000E+00 0.  1.
         11    1    3    3    0    0  0.24791999192E+02  0.12693263606E+01 -0.17824640319E+02  0.30560959018E+02  0.51100000000E-03 0. -1.
        -11    1    3    3    0    0  0.35117613308E+01 -0.10765941081E+02 -0.23851793657E+01  0.11572684903E+02  0.51100000000E-03 0.  1.
        -12    1    3    3    0    0 -0.36936111228E+00  0.15445283030E+01 -0.82436416523E+01  0.83952142916E+01  0.00000000000E+00 0.  1.
</event>
<event>
 7    1  0.5183682E-011  0.5052886E+02  0.7816164E-02  0.1300439E+00
        -11   -1    0    0    0    0  0.00000000000E+00  0.00000000000E+00  0.45593999997E+02  0.45594000000E+02  0.51100000000E-03 0.  1.
         11   -1    0    0    0    0 -0.00000000000E+00 -0.00000000000E+00 -0.45593999997E+02  0.45594000000E+02  0.51100000000E-03 0. -1.
    9900012    2    1    2    0    0  0.40225834139E+02  0.38970001093E+00  0.59072611013E+01  0.50528864102E+02  0.30000012925E+02 0.  0.
        -12    1    1    2    0    0 -0.40225834139E+02 -0.38970001093E+00 -0.59072611013E+01  0.40659135898E+02  0.00000000000E+00 0.  1.
         11    1    3    3    0    0  0.24772115721E+02  0.90224601571E+00 -0.64225412175E+01  0.25607045927E+02  0.51100000000E-03 0. -1.
        -11    1    3    3    0    0 -0.13423280675E+01 -0.29768097463E+01  0.59491405944E+01  0.67864213677E+01  0.51100000000E-03 0.  1.
        -12    1    3    3    0    0  0.16796046485E+02  0.24642637416E+01  0.63806617244E+01  0.18135396807E+02  0.00000000000E+00 0.  1.
</event>
<event>
 7    1  0.4994895E-011  0.5052887E+02  0.7816164E-02  0.1300439E+00
        -11   -1    0    0    0    0  0.00000000000E+00  0.00000000000E+00  0.45593999997E+02  0.45594000000E+02  0.51100000000E-03 0.  1.
         11   -1    0    0    0    0 -0.00000000000E+00 -0.00000000000E+00 -0.45593999997E+02  0.45594000000E+02  0.51100000000E-03 0. -1.
    9900012    2    1    2    0    0 -0.11753218051E+02 -0.25424437224E+02 -0.29472443138E+02  0.50528867603E+02  0.30000023567E+02 0.  0.
        -12    1    1    2    0    0  0.11753218051E+02  0.25424437224E+02  0.29472443138E+02  0.40659132397E+02  0.00000000000E+00 0.  1.
         11    1    3    3    0    0 -0.48147065686E+01 -0.11744628274E+02 -0.13622622993E+02  0.18619708647E+02  0.51100000000E-03 0. -1.
        -11    1    3    3    0    0  0.65332371761E+01  0.70450471010E+00 -0.87907638498E+01  0.10975292443E+02  0.51100000000E-03 0.  1.
        -12    1    3    3    0    0 -0.13471748659E+02 -0.14384313660E+02 -0.70590562953E+01  0.20933866513E+02  0.00000000000E+00 0.  1.
</event>
<event>
 7    1  0.4994895E-011  0.5052886E+02  0.7816164E-02  0.1300439E+00
        -11   -1    0    0    0    0  0.00000000000E+00  0.00000000000E+00  0.45593999997E+02  0.45594000000E+02  0.51100000000E-03 0.  1.
         11   -1    0    0    0    0 -0.00000000000E+00 -0.00000000000E+00 -0.45593999997E+02  0.45594000000E+02  0.51100000000E-03 0. -1.
    9900012    2    1    2    0    0 -0.67099502560E+01 -0.35422891724E+02 -0.18797897973E+02  0.50528860083E+02  0.30000000709E+02 0.  0.
        -12    1    1    2    0    0  0.67099502560E+01  0.35422891724E+02  0.18797897973E+02  0.40659139917E+02  0.00000000000E+00 0.  1.
         11    1    3    3    0    0 -0.57258686805E+01 -0.11116691333E+02 -0.14992890585E+02  0.19523144386E+02  0.51100000000E-03 0. -1.
        -11    1    3    3    0    0  0.80983954806E+01 -0.17919411381E+02 -0.26618667954E+01  0.19843760952E+02  0.51100000000E-03 0.  1.
        -12    1    3    3    0    0 -0.90824770560E+01 -0.63867890102E+01 -0.11431405927E+01  0.11161954746E+02  0.00000000000E+00 0.  1.
</event>
<event>
 7    1  0.4994895E-011  0.5052885E+02  0.7816164E-02  0.1300439E+00
        -11   -1    0    0    0    0  0.00000000000E+00  0.00000000000E+00  0.45593999997E+02  0.45594000000E+02  0.51100000000E-03 0. -1.
         11   -1    0    0    0    0 -0.00000000000E+00 -0.00000000000E+00 -0.45593999997E+02  0.45594000000E+02  0.51100000000E-03 0.  1.
    9900012    2    1    2    0    0  0.54457186962E+00 -0.40198180275E+02  0.60808137230E+01  0.50528849105E+02  0.29999967341E+02 0.  0.
        -12    1    1    2    0    0 -0.54457186962E+00  0.40198180275E+02 -0.60808137230E+01  0.40659150895E+02  0.00000000000E+00 0.  1.
         11    1    3    3    0    0  0.20024457589E+01 -0.35443856088E+02  0.24460886056E+01  0.35584548235E+02  0.51100000000E-03 0.  1.
        -11    1    3    3    0    0  0.15536516654E+01  0.36856673457E+01 -0.18827787590E+01  0.44207277000E+01  0.51100000000E-03 0. -1.
         12    1    3    3    0    0 -0.30115255547E+01 -0.84399915330E+01  0.55175038764E+01  0.10523573170E+02  0.00000000000E+00 0. -1.
</event>
<event>
 7    1  0.4994895E-011  0.5052886E+02  0.7816164E-02  0.1300439E+00
        -11   -1    0    0    0    0  0.00000000000E+00  0.00000000000E+00  0.45593999997E+02  0.45594000000E+02  0.51100000000E-03 0.  1.
         11   -1    0    0    0    0 -0.00000000000E+00 -0.00000000000E+00 -0.45593999997E+02  0.45594000000E+02  0.51100000000E-03 0. -1.
    9900012    2    1    2    0    0 -0.12393434504E+02 -0.22572112629E+02 -0.31465353910E+02  0.50528856084E+02  0.29999988552E+02 0.  0.
        -12    1    1    2    0    0  0.12393434504E+02  0.22572112629E+02  0.31465353910E+02  0.40659143916E+02  0.00000000000E+00 0.  1.
         11    1    3    3    0    0 -0.16514206732E+02 -0.27183053681E+02 -0.26302153498E+02  0.41272759907E+02  0.51100000000E-03 0. -1.
        -11    1    3    3    0    0  0.23271354223E+01  0.40454774102E+01 -0.56354143079E+01  0.73170582499E+01  0.51100000000E-03 0.  1.
         12    1    3    3    0    0  0.17936368052E+01  0.56546364195E+00  0.47221389592E+00  0.19390379271E+01  0.00000000000E+00 0. -1.
</event>
<event>
 7    1  0.4994895E-011  0.5052885E+02  0.7816164E-02  0.1300439E+00
        -11   -1    0    0    0    0  0.00000000000E+00  0.00000000000E+00  0.45593999997E+02  0.45594000000E+02  0.51100000000E-03 0. -1.
         11   -1    0    0    0    0 -0.00000000000E+00 -0.00000000000E+00 -0.45593999997E+02  0.45594000000E+02  0.51100000000E-03 0.  1.
    9900012    2    1    2    0    0  0.30872557796E+02 -0.10861895691E+02 -0.24126139227E+02  0.50528853466E+02  0.29999980595E+02 0.  0.
        -12    1    1    2    0    0 -0.30872557796E+02  0.10861895691E+02  0.24126139227E+02  0.40659146534E+02  0.00000000000E+00 0.  1.
         11    1    3    3    0    0  0.39254903677E+01 -0.46627043719E+01  0.14466023603E+01  0.62644189943E+01  0.51100000000E-03 0. -1.
        -11    1    3    3    0    0  0.16351442010E+02  0.81678107430E+01 -0.12822318943E+02  0.22326993785E+02  0.51100000000E-03 0.  1.
        -12    1    3    3    0    0  0.10595625418E+02 -0.14367002062E+02 -0.12750422644E+02  0.21937440687E+02  0.00000000000E+00 0.  1.
</event>
<event>
 7    1  0.4994895E-011  0.5052887E+02  0.7816164E-02  0.1300439E+00
        -11   -1    0    0    0    0  0.00000000000E+00  0.00000000000E+00  0.45593999997E+02  0.45594000000E+02  0.51100000000E-03 0.  1.
         11   -1    0    0    0    0 -0.00000000000E+00 -0.00000000000E+00 -0.45593999997E+02  0.45594000000E+02  0.51100000000E-03 0. -1.
    9900012    2    1    2    0    0  0.35122461521E+02 -0.65745697075E+01 -0.19399818125E+02  0.50528865560E+02  0.30000017356E+02 0.  0.
        -12    1    1    2    0    0 -0.35122461521E+02  0.65745697075E+01  0.19399818125E+02  0.40659134440E+02  0.00000000000E+00 0.  1.
         11    1    3    3    0    0  0.84319258957E+01 -0.97421809007E+01 -0.10665511907E+02  0.16726045782E+02  0.51100000000E-03 0. -1.
        -11    1    3    3    0    0  0.15445843464E+02  0.73179201818E+01 -0.12571772370E+02  0.21217339534E+02  0.51100000000E-03 0.  1.
         12    1    3    3    0    0  0.11244692161E+02 -0.41503089886E+01  0.38374661519E+01  0.12585480244E+02  0.00000000000E+00 0. -1.
</event>
<event>
 7    1  0.4994895E-011  0.5052886E+02  0.7816164E-02  0.1300439E+00
        -11   -1    0    0    0    0  0.00000000000E+00  0.00000000000E+00  0.45593999997E+02  0.45594000000E+02  0.51100000000E-03 0. -1.
         11   -1    0    0    0    0 -0.00000000000E+00 -0.00000000000E+00 -0.45593999997E+02  0.45594000000E+02  0.51100000000E-03 0.  1.
    9900012    2    1    2    0    0  0.20861876856E+02  0.24428215029E+02  0.24924085833E+02  0.50528860191E+02  0.30000001036E+02 0.  0.
        -12    1    1    2    0    0 -0.20861876856E+02 -0.24428215029E+02 -0.24924085833E+02  0.40659139809E+02  0.00000000000E+00 0.  1.
         11    1    3    3    0    0  0.48212666612E+01 -0.45037700022E+01 -0.52284602907E+00  0.66183022508E+01  0.51100000000E-03 0. -1.
        -11    1    3    3    0    0  0.16500607137E+02  0.26018576934E+02  0.17497557010E+02  0.35431636755E+02  0.51100000000E-03 0.  1.
        -12    1    3    3    0    0 -0.45999694246E+00  0.29134080974E+01  0.79493748519E+01  0.84789211852E+01  0.00000000000E+00 0.  1.
</event>
<event>
 7    1  0.6160179E-011  0.5052894E+02  0.7816164E-02  0.1300439E+00
        -11   -1    0    0    0    0  0.00000000000E+00  0.00000000000E+00  0.45593999997E+02  0.45594000000E+02  0.51100000000E-03 0. -1.
         11   -1    0    0    0    0 -0.00000000000E+00 -0.00000000000E+00 -0.45593999997E+02  0.45594000000E+02  0.51100000000E-03 0.  1.
    9900012    2    1    2    0    0 -0.38613936309E+02 -0.11578598871E+02 -0.52970967685E+01  0.50528938731E+02  0.30000239767E+02 0.  0.
        -12    1    1    2    0    0  0.38613936309E+02  0.11578598871E+02  0.52970967685E+01  0.40659061269E+02  0.00000000000E+00 0.  1.
         11    1    3    3    0    0 -0.22072241436E+02  0.13690525719E+01 -0.93087023023E+01  0.23993959360E+02  0.51100000000E-03 0.  1.
        -11    1    3    3    0    0  0.21147869411E+00  0.15737465962E+00  0.52238699601E+01  0.52305169575E+01  0.51100000000E-03 0. -1.
         12    1    3    3    0    0 -0.16753173567E+02 -0.13105026103E+02 -0.12122644263E+01  0.21304462414E+02  0.00000000000E+00 0. -1.
</event>
<event>
 7    1  0.4994895E-011  0.5052886E+02  0.7816164E-02  0.1300439E+00
        -11   -1    0    0    0    0  0.00000000000E+00  0.00000000000E+00  0.45593999997E+02  0.45594000000E+02  0.51100000000E-03 0.  1.
         11   -1    0    0    0    0 -0.00000000000E+00 -0.00000000000E+00 -0.45593999997E+02  0.45594000000E+02  0.51100000000E-03 0. -1.
    9900012    2    1    2    0    0  0.61577984166E+01 -0.33332111081E+02 -0.22454794739E+02  0.50528856905E+02  0.29999991048E+02 0.  0.
        -12    1    1    2    0    0 -0.61577984166E+01  0.33332111081E+02  0.22454794739E+02  0.40659143095E+02  0.00000000000E+00 0.  1.
         11    1    3    3    0    0  0.88180258408E+01 -0.30356648825E+02 -0.10225891623E+02  0.33224276777E+02  0.51100000000E-03 0. -1.
        -11    1    3    3    0    0 -0.57850848739E+01 -0.48475815657E+01 -0.11224135230E+02  0.13525807405E+02  0.51100000000E-03 0.  1.
         12    1    3    3    0    0  0.31248574496E+01  0.18721193093E+01 -0.10047678855E+01  0.37787727230E+01  0.00000000000E+00 0. -1.
</event>
<event>
 7    1  0.4994895E-011  0.5052886E+02  0.7816164E-02  0.1300439E+00
        -11   -1    0    0    0    0  0.00000000000E+00  0.00000000000E+00  0.45593999997E+02  0.45594000000E+02  0.51100000000E-03 0.  1.
         11   -1    0    0    0    0 -0.00000000000E+00 -0.00000000000E+00 -0.45593999997E+02  0.45594000000E+02  0.51100000000E-03 0. -1.
    9900012    2    1    2    0    0 -0.19695083354E+02 -0.27569781469E+02 -0.22476132089E+02  0.50528859917E+02  0.30000000204E+02 0.  0.
        -12    1    1    2    0    0  0.19695083354E+02  0.27569781469E+02  0.22476132089E+02  0.40659140083E+02  0.00000000000E+00 0.  1.
         11    1    3    3    0    0 -0.45026619304E+01 -0.65039466159E+01 -0.15567830221E+02  0.17462320124E+02  0.51100000000E-03 0. -1.
        -11    1    3    3    0    0 -0.14329062347E+02 -0.44437894331E+01  0.11052439649E+00  0.15002716694E+02  0.51100000000E-03 0.  1.
        -12    1    3    3    0    0 -0.86335907598E+00 -0.16622045420E+02 -0.70188262645E+01  0.18063823100E+02  0.00000000000E+00 0.  1.
</event>
<event>
 7    1  0.4994895E-011  0.5052890E+02  0.7816164E-02  0.1300439E+00
        -11   -1    0    0    0    0  0.00000000000E+00  0.00000000000E+00  0.45593999997E+02  0.45594000000E+02  0.51100000000E-03 0.  1.
         11   -1    0    0    0    0 -0.00000000000E+00 -0.00000000000E+00 -0.45593999997E+02  0.45594000000E+02  0.51100000000E-03 0. -1.
    9900012    2    1    2    0    0  0.17176846181E+02  0.78250454912E+00 -0.36844351499E+02  0.50528897754E+02  0.30000115212E+02 0.  0.
        -12    1    1    2    0    0 -0.17176846181E+02 -0.78250454912E+00  0.36844351499E+02  0.40659102246E+02  0.00000000000E+00 0.  1.
         11    1    3    3    0    0 -0.62417937007E+00  0.38514440163E+01 -0.15241665538E+02  0.15733136672E+02  0.51100000000E-03 0. -1.
        -11    1    3    3    0    0  0.12170757754E+02 -0.98998247843E+01 -0.58837967120E+01  0.16755683784E+02  0.51100000000E-03 0.  1.
        -12    1    3    3    0    0  0.56302677969E+01  0.68308853171E+01 -0.15718889249E+02  0.18040077297E+02  0.00000000000E+00 0.  1.
</event>
<event>
 7    1  0.4994895E-011  0.5052887E+02  0.7816164E-02  0.1300439E+00
        -11   -1    0    0    0    0  0.00000000000E+00  0.00000000000E+00  0.45593999997E+02  0.45594000000E+02  0.51100000000E-03 0.  1.
         11   -1    0    0    0    0 -0.00000000000E+00 -0.00000000000E+00 -0.45593999997E+02  0.45594000000E+02  0.51100000000E-03 0. -1.
    9900012    2    1    2    0    0  0.18316837165E+02 -0.10107299315E+01 -0.36285493355E+02  0.50528866626E+02  0.30000020597E+02 0.  0.
        -12    1    1    2    0    0 -0.18316837165E+02  0.10107299315E+01  0.36285493355E+02  0.40659133374E+02  0.00000000000E+00 0.  1.
         11    1    3    3    0    0  0.81479393039E+01  0.28110813719E+01 -0.86352923481E+01  0.12200793727E+02  0.51100000000E-03 0. -1.
        -11    1    3    3    0    0 -0.57981099616E+01 -0.92984558656E+00  0.43913878556E+00  0.58885936416E+01  0.51100000000E-03 0.  1.
        -12    1    3    3    0    0  0.15967007823E+02 -0.28919657168E+01 -0.28089339792E+02  0.32439479257E+02  0.00000000000E+00 0.  1.
</event>
<event>
 7    1  0.4994895E-011  0.5052888E+02  0.7816164E-02  0.1300439E+00
        -11   -1    0    0    0    0  0.00000000000E+00  0.00000000000E+00  0.45593999997E+02  0.45594000000E+02  0.51100000000E-03 0. -1.
         11   -1    0    0    0    0 -0.00000000000E+00 -0.00000000000E+00 -0.45593999997E+02  0.45594000000E+02  0.51100000000E-03 0.  1.
    9900012    2    1    2    0    0 -0.26416902239E+02  0.28602872970E+02  0.11712680615E+02  0.50528881057E+02  0.30000064461E+02 0.  0.
        -12    1    1    2    0    0  0.26416902239E+02 -0.28602872970E+02 -0.11712680615E+02  0.40659118943E+02  0.00000000000E+00 0.  1.
         11    1    3    3    0    0  0.15801677974E-01  0.18407430391E+02  0.56764515312E+00  0.18416187569E+02  0.51100000000E-03 0. -1.
        -11    1    3    3    0    0 -0.57921018871E+01  0.23294448926E+01  0.74453098422E+01  0.97163468796E+01  0.51100000000E-03 0.  1.
         12    1    3    3    0    0 -0.20640602030E+02  0.78659976859E+01  0.36997256196E+01  0.22396346608E+02  0.00000000000E+00 0. -1.
</event>
<event>
 7    1  0.4994895E-011  0.5052887E+02  0.7816164E-02  0.1300439E+00
        -11   -1    0    0    0    0  0.00000000000E+00  0.00000000000E+00  0.45593999997E+02  0.45594000000E+02  0.51100000000E-03 0.  1.
         11   -1    0    0    0    0 -0.00000000000E+00 -0.00000000000E+00 -0.45593999997E+02  0.45594000000E+02  0.51100000000E-03 0. -1.
    9900012    2    1    2    0    0  0.32089703024E+02  0.19409517871E+02 -0.15706263025E+02  0.50528866680E+02  0.30000020759E+02 0.  0.
        -12    1    1    2    0    0 -0.32089703024E+02 -0.19409517871E+02  0.15706263025E+02  0.40659133320E+02  0.00000000000E+00 0.  1.
         11    1    3    3    0    0 -0.26514564255E+01  0.69505114276E+01 -0.91649342549E+01  0.11804060761E+02  0.51100000000E-03 0. -1.
        -11    1    3    3    0    0  0.31466582271E+02  0.13456052192E+02 -0.39883078149E+01  0.34454575021E+02  0.51100000000E-03 0.  1.
        -12    1    3    3    0    0  0.32745771789E+01 -0.99704574857E+00 -0.25530209550E+01  0.42702308980E+01  0.00000000000E+00 0.  1.
</event>
<event>
 7    1  0.4994895E-011  0.5052886E+02  0.7816164E-02  0.1300439E+00
        -11   -1    0    0    0    0  0.00000000000E+00  0.00000000000E+00  0.45593999997E+02  0.45594000000E+02  0.51100000000E-03 0.  1.
         11   -1    0    0    0    0 -0.00000000000E+00 -0.00000000000E+00 -0.45593999997E+02  0.45594000000E+02  0.51100000000E-03 0. -1.
    9900012    2    1    2    0    0  0.14393521269E+02  0.97151568055E+01 -0.36764217343E+02  0.50528863227E+02  0.30000010264E+02 0.  0.
        -12    1    1    2    0    0 -0.14393521269E+02 -0.97151568055E+01  0.36764217343E+02  0.40659136773E+02  0.00000000000E+00 0.  1.
         11    1    3    3    0    0  0.22600970140E+01  0.17065658271E+02 -0.25851562890E+02  0.31058783538E+02  0.51100000000E-03 0. -1.
        -11    1    3    3    0    0  0.74814647266E-01 -0.20989880258E+01  0.38043798711E+00  0.21344979004E+01  0.51100000000E-03 0.  1.
         12    1    3    3    0    0  0.12058609608E+02 -0.52515134397E+01 -0.11293092441E+02  0.17335581789E+02  0.00000000000E+00 0. -1.
</event>
<event>
 7    1  0.4994895E-011  0.5052890E+02  0.7816164E-02  0.1300439E+00
        -11   -1    0    0    0    0  0.00000000000E+00  0.00000000000E+00  0.45593999997E+02  0.45594000000E+02  0.51100000000E-03 0.  1.
         11   -1    0    0    0    0 -0.00000000000E+00 -0.00000000000E+00 -0.45593999997E+02  0.45594000000E+02  0.51100000000E-03 0. -1.
    9900012    2    1    2    0    0 -0.15132514417E+02  0.39514809112E+01 -0.37530726652E+02  0.50528897243E+02  0.30000113659E+02 0.  0.
        -12    1    1    2    0    0  0.15132514417E+02 -0.39514809112E+01  0.37530726652E+02  0.40659102757E+02  0.00000000000E+00 0.  1.
         11    1    3    3    0    0  0.74106617715E+00  0.21179976691E+01 -0.17108181897E+02  0.17254708960E+02  0.51100000000E-03 0. -1.
        -11    1    3    3    0    0 -0.10607940508E+02  0.96704460087E+01 -0.50174734805E+01  0.15205951736E+02  0.51100000000E-03 0.  1.
        -12    1    3    3    0    0 -0.52656400869E+01 -0.78369627666E+01 -0.15405071274E+02  0.18068236546E+02  0.00000000000E+00 0.  1.
</event>
<event>
 7    1  0.4994895E-011  0.5052887E+02  0.7816164E-02  0.1300439E+00
        -11   -1    0    0    0    0  0.00000000000E+00  0.00000000000E+00  0.45593999997E+02  0.45594000000E+02  0.51100000000E-03 0. -1.
         11   -1    0    0    0    0 -0.00000000000E+00 -0.00000000000E+00 -0.45593999997E+02  0.45594000000E+02  0.51100000000E-03 0.  1.
    9900012    2    1    2    0    0 -0.11488324470E+02  0.38571668684E+02  0.57801230483E+01  0.50528867611E+02  0.30000023589E+02 0.  0.
        -12    1    1    2    0    0  0.11488324470E+02 -0.38571668684E+02 -0.57801230483E+01  0.40659132389E+02  0.00000000000E+00 0.  1.
         11    1    3    3    0    0 -0.50845500717E+01  0.24788800558E+02  0.13264820244E+02  0.28570837211E+02  0.51100000000E-03 0. -1.
        -11    1    3    3    0    0 -0.10811626987E+02  0.90669242968E+01 -0.60079208372E+01  0.15336085138E+02  0.51100000000E-03 0.  1.
         12    1    3    3    0    0  0.44078525884E+01  0.47159438291E+01 -0.14767763585E+01  0.66219452621E+01  0.00000000000E+00 0. -1.
</event>
<event>
 7    1  0.4994895E-011  0.5052885E+02  0.7816164E-02  0.1300439E+00
        -11   -1    0    0    0    0  0.00000000000E+00  0.00000000000E+00  0.45593999997E+02  0.45594000000E+02  0.51100000000E-03 0. -1.
         11   -1    0    0    0    0 -0.00000000000E+00 -0.00000000000E+00 -0.45593999997E+02  0.45594000000E+02  0.51100000000E-03 0.  1.
    9900012    2    1    2    0    0 -0.18264668599E+01 -0.40611554458E+02  0.72965051381E+00  0.50528846952E+02  0.29999960796E+02 0.  0.
        -12    1    1    2    0    0  0.18264668599E+01  0.40611554458E+02 -0.72965051381E+00  0.40659153048E+02  0.00000000000E+00 0.  1.
         11    1    3    3    0    0  0.10369288866E+01 -0.23050004846E+02  0.18450863567E+01  0.23146971483E+02  0.51100000000E-03 0. -1.
        -11    1    3    3    0    0 -0.21260044832E+01  0.43145527903E+01  0.21184103428E+01  0.52557514672E+01  0.51100000000E-03 0.  1.
        -12    1    3    3    0    0 -0.73739126330E+00 -0.21876102402E+02 -0.32338461857E+01  0.22126124002E+02  0.00000000000E+00 0.  1.
</event>
<event>
 7    1  0.4994895E-011  0.5052886E+02  0.7816164E-02  0.1300439E+00
        -11   -1    0    0    0    0  0.00000000000E+00  0.00000000000E+00  0.45593999997E+02  0.45594000000E+02  0.51100000000E-03 0.  1.
         11   -1    0    0    0    0 -0.00000000000E+00 -0.00000000000E+00 -0.45593999997E+02  0.45594000000E+02  0.51100000000E-03 0. -1.
    9900012    2    1    2    0    0 -0.14849511286E+02  0.72519236048E+01 -0.37149258914E+02  0.50528858110E+02  0.29999994710E+02 0.  0.
        -12    1    1    2    0    0  0.14849511286E+02 -0.72519236048E+01  0.37149258914E+02  0.40659141890E+02  0.00000000000E+00 0.  1.
         11    1    3    3    0    0 -0.90985345947E+01 -0.64514088068E+01 -0.58644603190E+01  0.12601424620E+02  0.51100000000E-03 0.  1.
        -11    1    3    3    0    0 -0.84988124672E+01  0.14799268552E+02 -0.30360171626E+02  0.34827979908E+02  0.51100000000E-03 0. -1.
        -12    1    3    3    0    0  0.27478357758E+01 -0.10959361400E+01 -0.92462696848E+00  0.30994535816E+01  0.00000000000E+00 0.  1.
</event>
<event>
 7    1  0.4994895E-011  0.5052886E+02  0.7816164E-02  0.1300439E+00
        -11   -1    0    0    0    0  0.00000000000E+00  0.00000000000E+00  0.45593999997E+02  0.45594000000E+02  0.51100000000E-03 0. -1.
         11   -1    0    0    0    0 -0.00000000000E+00 -0.00000000000E+00 -0.45593999997E+02  0.45594000000E+02  0.51100000000E-03 0.  1.
    9900012    2    1    2    0    0 -0.51738601609E+01  0.34788169687E+02  0.20400497475E+02  0.50528857407E+02  0.29999992575E+02 0.  0.
        -12    1    1    2    0    0  0.51738601609E+01 -0.34788169687E+02 -0.20400497475E+02  0.40659142593E+02  0.00000000000E+00 0.  1.
         11    1    3    3    0    0 -0.43039973237E+01  0.37369937972E+01 -0.62005881683E+01  0.84223992720E+01  0.51100000000E-03 0. -1.
        -11    1    3    3    0    0  0.35489338438E+01  0.24290909586E+02  0.19470779421E+02  0.31332961422E+02  0.51100000000E-03 0.  1.
         12    1    3    3    0    0 -0.44187966811E+01  0.67602663044E+01  0.71303062222E+01  0.10773496714E+02  0.00000000000E+00 0. -1.
</event>
<event>
 7    1  0.4994895E-011  0.5052886E+02  0.7816164E-02  0.1300439E+00
        -11   -1    0    0    0    0  0.00000000000E+00  0.00000000000E+00  0.45593999997E+02  0.45594000000E+02  0.51100000000E-03 0.  1.
         11   -1    0    0    0    0 -0.00000000000E+00 -0.00000000000E+00 -0.45593999997E+02  0.45594000000E+02  0.51100000000E-03 0. -1.
    9900012    2    1    2    0    0 -0.27802317765E+02 -0.25614809184E+02  0.14969250771E+02  0.50528858453E+02  0.29999995754E+02 0.  0.
        -12    1    1    2    0    0  0.27802317765E+02  0.25614809184E+02 -0.14969250771E+02  0.40659141547E+02  0.00000000000E+00 0.  1.
         11    1    3    3    0    0 -0.18127857097E+02 -0.36475792533E+01  0.10539118963E+02  0.21283727731E+02  0.51100000000E-03 0. -1.
        -11    1    3    3    0    0  0.40933377761E+01 -0.18502271319E+01  0.12402466388E+01  0.46601466259E+01  0.51100000000E-03 0.  1.
         12    1    3    3    0    0 -0.13767798445E+02 -0.20117002799E+02  0.31898851691E+01  0.24584984096E+02  0.00000000000E+00 0. -1.
</event>
<event>
 7    1  0.4994895E-011  0.5052887E+02  0.7816164E-02  0.1300439E+00
        -11   -1    0    0    0    0  0.00000000000E+00  0.00000000000E+00  0.45593999997E+02  0.45594000000E+02  0.51100000000E-03 0.  1.
         11   -1    0    0    0    0 -0.00000000000E+00 -0.00000000000E+00 -0.45593999997E+02  0.45594000000E+02  0.51100000000E-03 0. -1.
    9900012    2    1    2    0    0  0.25114959407E+02  0.25638703928E+02  0.19106554648E+02  0.50528871189E+02  0.30000034466E+02 0.  0.
        -12    1    1    2    0    0 -0.25114959407E+02 -0.25638703928E+02 -0.19106554648E+02  0.40659128811E+02  0.00000000000E+00 0.  1.
         11    1    3    3    0    0  0.27594060123E+02  0.15520401155E+02  0.22472824834E+02  0.38824513679E+02  0.51100000000E-03 0. -1.
        -11    1    3    3    0    0 -0.41963153359E+00  0.75730956622E+01 -0.36514546425E+01  0.84178969939E+01  0.51100000000E-03 0.  1.
         12    1    3    3    0    0 -0.20594691827E+01  0.25452071105E+01  0.28518445693E+00  0.32864605162E+01  0.00000000000E+00 0. -1.
</event>
<event>
 7    1  0.4994895E-011  0.5052887E+02  0.7816164E-02  0.1300439E+00
        -11   -1    0    0    0    0  0.00000000000E+00  0.00000000000E+00  0.45593999997E+02  0.45594000000E+02  0.51100000000E-03 0.  1.
         11   -1    0    0    0    0 -0.00000000000E+00 -0.00000000000E+00 -0.45593999997E+02  0.45594000000E+02  0.51100000000E-03 0. -1.
    9900012    2    1    2    0    0 -0.34380136498E+01 -0.36134424265E+02 -0.18320705846E+02  0.50528870429E+02  0.30000032155E+02 0.  0.
        -12    1    1    2    0    0  0.34380136498E+01  0.36134424265E+02  0.18320705846E+02  0.40659129571E+02  0.00000000000E+00 0.  1.
         11    1    3    3    0    0  0.15995090331E+01  0.11928215288E+00 -0.30247500211E+00  0.16322220336E+01  0.51100000000E-03 0. -1.
        -11    1    3    3    0    0 -0.14698479093E+02 -0.25341201357E+02 -0.57685486853E+01  0.29857962557E+02  0.51100000000E-03 0.  1.
        -12    1    3    3    0    0  0.96609564100E+01 -0.10912505061E+02 -0.12249682158E+02  0.19038685838E+02  0.00000000000E+00 0.  1.
</event>
<event>
 7    1  0.4994895E-011  0.5052887E+02  0.7816164E-02  0.1300439E+00
        -11   -1    0    0    0    0  0.00000000000E+00  0.00000000000E+00  0.45593999997E+02  0.45594000000E+02  0.51100000000E-03 0.  1.
         11   -1    0    0    0    0 -0.00000000000E+00 -0.00000000000E+00 -0.45593999997E+02  0.45594000000E+02  0.51100000000E-03 0. -1.
    9900012    2    1    2    0    0  0.18591711982E+00  0.38169888910E+02 -0.14006791102E+02  0.50528865951E+02  0.30000018546E+02 0.  0.
        -12    1    1    2    0    0 -0.18591711982E+00 -0.38169888910E+02  0.14006791102E+02  0.40659134049E+02  0.00000000000E+00 0.  1.
         11    1    3    3    0    0 -0.18532971732E+01  0.13397836901E+02 -0.15156007817E+02  0.20313574703E+02  0.51100000000E-03 0. -1.
        -11    1    3    3    0    0 -0.29975077245E+01  0.24823206354E+02 -0.18644816036E+00  0.25004227431E+02  0.51100000000E-03 0.  1.
        -12    1    3    3    0    0  0.50367220175E+01 -0.51154344161E-01  0.13356648744E+01  0.52110638171E+01  0.00000000000E+00 0.  1.
</event>
<event>
 7    1  0.4994895E-011  0.5052885E+02  0.7816164E-02  0.1300439E+00
        -11   -1    0    0    0    0  0.00000000000E+00  0.00000000000E+00  0.45593999997E+02  0.45594000000E+02  0.51100000000E-03 0.  1.
         11   -1    0    0    0    0 -0.00000000000E+00 -0.00000000000E+00 -0.45593999997E+02  0.45594000000E+02  0.51100000000E-03 0. -1.
    9900012    2    1    2    0    0  0.47576662377E+01 -0.19855017051E+02 -0.35161188187E+02  0.50528852876E+02  0.29999978802E+02 0.  0.
        -12    1    1    2    0    0 -0.47576662377E+01  0.19855017051E+02  0.35161188187E+02  0.40659147124E+02  0.00000000000E+00 0.  1.
         11    1    3    3    0    0  0.52424459794E-01 -0.19790648930E+02 -0.21546806644E+02  0.29256408019E+02  0.51100000000E-03 0. -1.
        -11    1    3    3    0    0  0.85024692664E+01  0.49567997512E+01 -0.99166653176E+01  0.13971474463E+02  0.51100000000E-03 0.  1.
        -12    1    3    3    0    0 -0.37972274885E+01 -0.50211678721E+01 -0.36977162257E+01  0.73009703934E+01  0.00000000000E+00 0.  1.
</event>
<event>
 7    1  0.4994895E-011  0.5052886E+02  0.7816164E-02  0.1300439E+00
        -11   -1    0    0    0    0  0.00000000000E+00  0.00000000000E+00  0.45593999997E+02  0.45594000000E+02  0.51100000000E-03 0.  1.
         11   -1    0    0    0    0 -0.00000000000E+00 -0.00000000000E+00 -0.45593999997E+02  0.45594000000E+02  0.51100000000E-03 0. -1.
    9900012    2    1    2    0    0 -0.18496703692E+02 -0.13851964343E+02 -0.33453863061E+02  0.50528856904E+02  0.29999991045E+02 0.  0.
        -12    1    1    2    0    0  0.18496703692E+02  0.13851964343E+02  0.33453863061E+02  0.40659143096E+02  0.00000000000E+00 0.  1.
         11    1    3    3    0    0  0.44647608272E+01 -0.98961046544E+01 -0.34915386560E+01  0.11404289501E+02  0.51100000000E-03 0. -1.
        -11    1    3    3    0    0  0.93004040015E+00  0.38474459945E-02 -0.13483623401E+01  0.16380083059E+01  0.51100000000E-03 0.  1.
         12    1    3    3    0    0 -0.23891504919E+02 -0.39597071346E+01 -0.28613962065E+02  0.37486559097E+02  0.00000000000E+00 0. -1.
</event>
<event>
 7    1  0.4994895E-011  0.5052888E+02  0.7816164E-02  0.1300439E+00
        -11   -1    0    0    0    0  0.00000000000E+00  0.00000000000E+00  0.45593999997E+02  0.45594000000E+02  0.51100000000E-03 0.  1.
         11   -1    0    0    0    0 -0.00000000000E+00 -0.00000000000E+00 -0.45593999997E+02  0.45594000000E+02  0.51100000000E-03 0. -1.
    9900012    2    1    2    0    0 -0.28471533671E+02 -0.20561596097E+02 -0.20487967112E+02  0.50528877284E+02  0.30000052993E+02 0.  0.
        -12    1    1    2    0    0  0.28471533671E+02  0.20561596097E+02  0.20487967112E+02  0.40659122716E+02  0.00000000000E+00 0.  1.
         11    1    3    3    0    0 -0.92272322641E+01 -0.18719743935E+02 -0.12267647023E+02  0.24208795756E+02  0.51100000000E-03 0. -1.
        -11    1    3    3    0    0 -0.16968691371E+02  0.22037575095E+01 -0.26927006831E+00  0.17113314718E+02  0.51100000000E-03 0.  1.
        -12    1    3    3    0    0 -0.22756100351E+01 -0.40456096722E+01 -0.79510500209E+01  0.92067668096E+01  0.00000000000E+00 0.  1.
</event>
<event>
 7    1  0.4994895E-011  0.5052886E+02  0.7816164E-02  0.1300439E+00
        -11   -1    0    0    0    0  0.00000000000E+00  0.00000000000E+00  0.45593999997E+02  0.45594000000E+02  0.51100000000E-03 0.  1.
         11   -1    0    0    0    0 -0.00000000000E+00 -0.00000000000E+00 -0.45593999997E+02  0.45594000000E+02  0.51100000000E-03 0. -1.
    9900012    2    1    2    0    0 -0.94614150647E+01  0.28318732897E+02 -0.27598847851E+02  0.50528863135E+02  0.30000009985E+02 0.  0.
        -12    1    1    2    0    0  0.94614150647E+01 -0.28318732897E+02  0.27598847851E+02  0.40659136865E+02  0.00000000000E+00 0.  1.
         11    1    3    3    0    0 -0.15981471606E+02  0.18103512557E+02 -0.18518026777E+02  0.30431265461E+02  0.51100000000E-03 0. -1.
        -11    1    3    3    0    0 -0.16624456313E+01  0.58250783800E+00  0.24308106561E+01  0.30019796077E+01  0.51100000000E-03 0.  1.
         12    1    3    3    0    0  0.81825021730E+01  0.96327125020E+01 -0.11511631731E+02  0.17095618066E+02  0.00000000000E+00 0. -1.
</event>
<event>
 7    1  0.4994895E-011  0.5052886E+02  0.7816164E-02  0.1300439E+00
        -11   -1    0    0    0    0  0.00000000000E+00  0.00000000000E+00  0.45593999997E+02  0.45594000000E+02  0.51100000000E-03 0. -1.
         11   -1    0    0    0    0 -0.00000000000E+00 -0.00000000000E+00 -0.45593999997E+02  0.45594000000E+02  0.51100000000E-03 0.  1.
    9900012    2    1    2    0    0 -0.22698358580E+02 -0.27466483420E+02 -0.19584240621E+02  0.50528859891E+02  0.30000000124E+02 0.  0.
        -12    1    1    2    0    0  0.22698358580E+02  0.27466483420E+02  0.19584240621E+02  0.40659140109E+02  0.00000000000E+00 0.  1.
         11    1    3    3    0    0  0.36815232491E+01 -0.16282533810E+02 -0.56529280953E+01  0.17624701899E+02  0.51100000000E-03 0. -1.
        -11    1    3    3    0    0 -0.14596391241E+01 -0.91475847812E+00  0.10991048918E+01  0.20433700767E+01  0.51100000000E-03 0.  1.
         12    1    3    3    0    0 -0.24920242705E+02 -0.10269191132E+02 -0.15030417418E+02  0.30860787915E+02  0.00000000000E+00 0. -1.
</event>
<event>
 7    1  0.4994895E-011  0.5052887E+02  0.7816164E-02  0.1300439E+00
        -11   -1    0    0    0    0  0.00000000000E+00  0.00000000000E+00  0.45593999997E+02  0.45594000000E+02  0.51100000000E-03 0.  1.
         11   -1    0    0    0    0 -0.00000000000E+00 -0.00000000000E+00 -0.45593999997E+02  0.45594000000E+02  0.51100000000E-03 0. -1.
    9900012    2    1    2    0    0 -0.22833008411E+02  0.26342848542E+02 -0.20925405548E+02  0.50528873844E+02  0.30000042537E+02 0.  0.
        -12    1    1    2    0    0  0.22833008411E+02 -0.26342848542E+02  0.20925405548E+02  0.40659126156E+02  0.00000000000E+00 0.  1.
         11    1    3    3    0    0  0.15843059954E+01  0.71572623274E+01  0.44199977224E-01  0.73306468616E+01  0.51100000000E-03 0. -1.
        -11    1    3    3    0    0 -0.25967707866E+02  0.15938531418E+02 -0.23765551917E+02  0.38641429758E+02  0.51100000000E-03 0.  1.
        -12    1    3    3    0    0  0.15503934595E+01  0.32470547959E+01  0.27959463910E+01  0.45567972249E+01  0.00000000000E+00 0.  1.
</event>
<event>
 7    1  0.4994895E-011  0.5052882E+02  0.7816164E-02  0.1300439E+00
        -11   -1    0    0    0    0  0.00000000000E+00  0.00000000000E+00  0.45593999997E+02  0.45594000000E+02  0.51100000000E-03 0.  1.
         11   -1    0    0    0    0 -0.00000000000E+00 -0.00000000000E+00 -0.45593999997E+02  0.45594000000E+02  0.51100000000E-03 0. -1.
    9900012    2    1    2    0    0  0.79457812004E+00 -0.39235468669E+02 -0.10635561808E+02  0.50528824762E+02  0.29999893346E+02 0.  0.
        -12    1    1    2    0    0 -0.79457812004E+00  0.39235468669E+02  0.10635561808E+02  0.40659175238E+02  0.00000000000E+00 0.  1.
         11    1    3    3    0    0  0.85927795854E+01 -0.18684891761E+02 -0.16623858515E+02  0.26444540331E+02  0.51100000000E-03 0. -1.
        -11    1    3    3    0    0 -0.40825118728E+01 -0.27075606293E+01  0.26008439144E+01  0.55463661150E+01  0.51100000000E-03 0.  1.
         12    1    3    3    0    0 -0.37156895925E+01 -0.17843016279E+02  0.33874527918E+01  0.18537918316E+02  0.00000000000E+00 0. -1.
</event>
<event>
 7    1  0.4994895E-011  0.5052886E+02  0.7816164E-02  0.1300439E+00
        -11   -1    0    0    0    0  0.00000000000E+00  0.00000000000E+00  0.45593999997E+02  0.45594000000E+02  0.51100000000E-03 0.  1.
         11   -1    0    0    0    0 -0.00000000000E+00 -0.00000000000E+00 -0.45593999997E+02  0.45594000000E+02  0.51100000000E-03 0. -1.
    9900012    2    1    2    0    0  0.39151528596E+01  0.36964097710E+02 -0.16477037006E+02  0.50528859700E+02  0.29999999545E+02 0.  0.
        -12    1    1    2    0    0 -0.39151528596E+01 -0.36964097710E+02  0.16477037006E+02  0.40659140300E+02  0.00000000000E+00 0.  1.
         11    1    3    3    0    0  0.20748336749E+01 -0.19618427397E+01 -0.42779885256E+01  0.51434373525E+01  0.51100000000E-03 0. -1.
        -11    1    3    3    0    0 -0.64447507871E+00  0.30095429773E+02 -0.17471015750E+02  0.34804980002E+02  0.51100000000E-03 0.  1.
        -12    1    3    3    0    0  0.24847942635E+01  0.88305106766E+01  0.52719672696E+01  0.10580442346E+02  0.00000000000E+00 0.  1.
</event>
<event>
 7    1  0.4994895E-011  0.5052887E+02  0.7816164E-02  0.1300439E+00
        -11   -1    0    0    0    0  0.00000000000E+00  0.00000000000E+00  0.45593999997E+02  0.45594000000E+02  0.51100000000E-03 0.  1.
         11   -1    0    0    0    0 -0.00000000000E+00 -0.00000000000E+00 -0.45593999997E+02  0.45594000000E+02  0.51100000000E-03 0. -1.
    9900012    2    1    2    0    0 -0.25163585861E+02 -0.31901026522E+02 -0.15110863827E+01  0.50528869062E+02  0.30000028002E+02 0.  0.
        -12    1    1    2    0    0  0.25163585861E+02  0.31901026522E+02  0.15110863827E+01  0.40659130938E+02  0.00000000000E+00 0.  1.
         11    1    3    3    0    0 -0.76379061812E+01 -0.20784131400E+02 -0.11485184602E+02  0.24944482245E+02  0.51100000000E-03 0. -1.
        -11    1    3    3    0    0 -0.14033990693E+02 -0.12368667971E+02  0.11044590645E+02  0.21723715725E+02  0.51100000000E-03 0.  1.
        -12    1    3    3    0    0 -0.34916889869E+01  0.12517728483E+01 -0.10704924263E+01  0.38606710919E+01  0.00000000000E+00 0.  1.
</event>
<event>
 7    1  0.4994895E-011  0.5052886E+02  0.7816164E-02  0.1300439E+00
        -11   -1    0    0    0    0  0.00000000000E+00  0.00000000000E+00  0.45593999997E+02  0.45594000000E+02  0.51100000000E-03 0. -1.
         11   -1    0    0    0    0 -0.00000000000E+00 -0.00000000000E+00 -0.45593999997E+02  0.45594000000E+02  0.51100000000E-03 0.  1.
    9900012    2    1    2    0    0  0.86535389427E+01  0.37325581763E+02  0.13604508111E+02  0.50528862882E+02  0.30000009217E+02 0.  0.
        -12    1    1    2    0    0 -0.86535389427E+01 -0.37325581763E+02 -0.13604508111E+02  0.40659137118E+02  0.00000000000E+00 0.  1.
         11    1    3    3    0    0  0.49157928248E+01  0.16375841660E+02  0.21018582901E+02  0.27094538870E+02  0.51100000000E-03 0. -1.
        -11    1    3    3    0    0  0.30346859797E+01  0.53865495567E+01 -0.43428116682E+01  0.75554118728E+01  0.51100000000E-03 0.  1.
         12    1    3    3    0    0  0.70306013819E+00  0.15563190547E+02 -0.30712631215E+01  0.15878912139E+02  0.00000000000E+00 0. -1.
</event>
<event>
 7    1  0.4994895E-011  0.5052885E+02  0.7816164E-02  0.1300439E+00
        -11   -1    0    0    0    0  0.00000000000E+00  0.00000000000E+00  0.45593999997E+02  0.45594000000E+02  0.51100000000E-03 0. -1.
         11   -1    0    0    0    0 -0.00000000000E+00 -0.00000000000E+00 -0.45593999997E+02  0.45594000000E+02  0.51100000000E-03 0.  1.
    9900012    2    1    2    0    0  0.31369637498E+02  0.14992076836E+01  0.25823717022E+02  0.50528854149E+02  0.29999982673E+02 0.  0.
        -12    1    1    2    0    0 -0.31369637498E+02 -0.14992076836E+01 -0.25823717022E+02  0.40659145851E+02  0.00000000000E+00 0.  1.
         11    1    3    3    0    0  0.12350909454E+02  0.10683303420E+02  0.78238124118E+01  0.18107732525E+02  0.51100000000E-03 0. -1.
        -11    1    3    3    0    0  0.69871590966E+01 -0.12636942914E+02  0.10040361542E+02  0.17587540437E+02  0.51100000000E-03 0.  1.
        -12    1    3    3    0    0  0.12031568948E+02  0.34528471782E+01  0.79595430681E+01  0.14833581187E+02  0.00000000000E+00 0.  1.
</event>
<event>
 7    1  0.9789100E-011  0.5052885E+02  0.7816164E-02  0.1300439E+00
        -11   -1    0    0    0    0  0.00000000000E+00  0.00000000000E+00  0.45593999997E+02  0.45594000000E+02  0.51100000000E-03 0. -1.
         11   -1    0    0    0    0 -0.00000000000E+00 -0.00000000000E+00 -0.45593999997E+02  0.45594000000E+02  0.51100000000E-03 0.  1.
    9900012    2    1    2    0    0 -0.14199238336E+02  0.10082644734E+02  0.36740825241E+02  0.50528851785E+02  0.29999975486E+02 0.  0.
        -12    1    1    2    0    0  0.14199238336E+02 -0.10082644734E+02 -0.36740825241E+02  0.40659148215E+02  0.00000000000E+00 0.  1.
         11    1    3    3    0    0 -0.37823510515E+01 -0.44195981169E+01  0.15429154047E+02  0.16489324482E+02  0.51100000000E-03 0. -1.
        -11    1    3    3    0    0 -0.16065193421E+02  0.87166145077E+01  0.12896444576E+02  0.22369356072E+02  0.51100000000E-03 0.  1.
        -12    1    3    3    0    0  0.56483061364E+01  0.57856283433E+01  0.84152266182E+01  0.11670171231E+02  0.00000000000E+00 0.  1.
</event>
<event>
 7    1  0.4994895E-011  0.5052890E+02  0.7816164E-02  0.1300439E+00
        -11   -1    0    0    0    0  0.00000000000E+00  0.00000000000E+00  0.45593999997E+02  0.45594000000E+02  0.51100000000E-03 0.  1.
         11   -1    0    0    0    0 -0.00000000000E+00 -0.00000000000E+00 -0.45593999997E+02  0.45594000000E+02  0.51100000000E-03 0. -1.
    9900012    2    1    2    0    0 -0.10032137307E+01 -0.22365176964E+02 -0.33940458313E+02  0.50528901523E+02  0.30000126671E+02 0.  0.
        -12    1    1    2    0    0  0.10032137307E+01  0.22365176964E+02  0.33940458313E+02  0.40659098477E+02  0.00000000000E+00 0.  1.
         11    1    3    3    0    0  0.12756438995E+01  0.11563323597E+00 -0.11357280599E+02  0.11429280873E+02  0.51100000000E-03 0. -1.
        -11    1    3    3    0    0  0.48716183091E+01 -0.20904146745E+02 -0.82326275918E+01  0.22988957641E+02  0.51100000000E-03 0.  1.
        -12    1    3    3    0    0 -0.71504759393E+01 -0.15766634551E+01 -0.14350550122E+02  0.16110663010E+02  0.00000000000E+00 0.  1.
</event>
<event>
 7    1  0.4994895E-011  0.5052888E+02  0.7816164E-02  0.1300439E+00
        -11   -1    0    0    0    0  0.00000000000E+00  0.00000000000E+00  0.45593999997E+02  0.45594000000E+02  0.51100000000E-03 0.  1.
         11   -1    0    0    0    0 -0.00000000000E+00 -0.00000000000E+00 -0.45593999997E+02  0.45594000000E+02  0.51100000000E-03 0. -1.
    9900012    2    1    2    0    0  0.14310672706E+02  0.41052220522E+00 -0.38055224844E+02  0.50528880240E+02  0.30000061976E+02 0.  0.
        -12    1    1    2    0    0 -0.14310672706E+02 -0.41052220522E+00  0.38055224844E+02  0.40659119760E+02  0.00000000000E+00 0.  1.
         11    1    3    3    0    0  0.21517950158E+02  0.36464057456E+01 -0.36377206762E+02  0.42421923883E+02  0.51100000000E-03 0. -1.
        -11    1    3    3    0    0 -0.18829224879E+01 -0.85208717991E+00 -0.12694371900E+00  0.20706435295E+01  0.51100000000E-03 0.  1.
         12    1    3    3    0    0 -0.53243549637E+01 -0.23837963604E+01 -0.15510743624E+01  0.60363128270E+01  0.00000000000E+00 0. -1.
</event>
<event>
 7    1  0.4994895E-011  0.5052887E+02  0.7816164E-02  0.1300439E+00
        -11   -1    0    0    0    0  0.00000000000E+00  0.00000000000E+00  0.45593999997E+02  0.45594000000E+02  0.51100000000E-03 0.  1.
         11   -1    0    0    0    0 -0.00000000000E+00 -0.00000000000E+00 -0.45593999997E+02  0.45594000000E+02  0.51100000000E-03 0. -1.
    9900012    2    1    2    0    0  0.20514488276E+01  0.38129249679E+02 -0.13968424534E+02  0.50528868094E+02  0.30000025060E+02 0.  0.
        -12    1    1    2    0    0 -0.20514488276E+01 -0.38129249679E+02  0.13968424534E+02  0.40659131906E+02  0.00000000000E+00 0.  1.
         11    1    3    3    0    0  0.53996102512E+01  0.10835492528E+02  0.61879131506E+01  0.13596100861E+02  0.51100000000E-03 0. -1.
        -11    1    3    3    0    0 -0.63015473394E+01  0.10160701117E+02 -0.14181575333E+02  0.18549027610E+02  0.51100000000E-03 0.  1.
        -12    1    3    3    0    0  0.29533859158E+01  0.17133056034E+02 -0.59747623509E+01  0.18383739624E+02  0.00000000000E+00 0.  1.
</event>
<event>
 7    1  0.4994895E-011  0.5052886E+02  0.7816164E-02  0.1300439E+00
        -11   -1    0    0    0    0  0.00000000000E+00  0.00000000000E+00  0.45593999997E+02  0.45594000000E+02  0.51100000000E-03 0.  1.
         11   -1    0    0    0    0 -0.00000000000E+00 -0.00000000000E+00 -0.45593999997E+02  0.45594000000E+02  0.51100000000E-03 0. -1.
    9900012    2    1    2    0    0 -0.37719142951E+02  0.77921321268E+01 -0.13027462561E+02  0.50528857746E+02  0.29999993604E+02 0.  0.
        -12    1    1    2    0    0  0.37719142951E+02 -0.77921321268E+01  0.13027462561E+02  0.40659142254E+02  0.00000000000E+00 0.  1.
         11    1    3    3    0    0 -0.10154893274E+02  0.65742288826E+01  0.13166426114E+01  0.12168643755E+02  0.51100000000E-03 0. -1.
        -11    1    3    3    0    0 -0.30087390549E+02  0.42270486040E+01 -0.15707876619E+02  0.34203163569E+02  0.51100000000E-03 0.  1.
        -12    1    3    3    0    0  0.25231408719E+01 -0.30091453598E+01  0.13637714465E+01  0.41570504224E+01  0.00000000000E+00 0.  1.
</event>
<event>
 7    1  0.4994895E-011  0.5052886E+02  0.7816164E-02  0.1300439E+00
        -11   -1    0    0    0    0  0.00000000000E+00  0.00000000000E+00  0.45593999997E+02  0.45594000000E+02  0.51100000000E-03 0.  1.
         11   -1    0    0    0    0 -0.00000000000E+00 -0.00000000000E+00 -0.45593999997E+02  0.45594000000E+02  0.51100000000E-03 0. -1.
    9900012    2    1    2    0    0  0.11183274163E+01  0.37634443812E+02  0.15348089309E+02  0.50528857575E+02  0.29999993085E+02 0.  0.
        -12    1    1    2    0    0 -0.11183274163E+01 -0.37634443812E+02 -0.15348089309E+02  0.40659142425E+02  0.00000000000E+00 0.  1.
         11    1    3    3    0    0  0.13572922608E+01  0.12891267428E+02  0.68403420531E+01  0.14656646883E+02  0.51100000000E-03 0. -1.
        -11    1    3    3    0    0 -0.20111850062E+01 -0.43814102585E+00 -0.62851021627E+01  0.66135725704E+01  0.51100000000E-03 0.  1.
        -12    1    3    3    0    0  0.17722201617E+01  0.25181317410E+02  0.14792849419E+02  0.29258638122E+02  0.00000000000E+00 0.  1.
</event>
<event>
 7    1  0.4994895E-011  0.5052886E+02  0.7816164E-02  0.1300439E+00
        -11   -1    0    0    0    0  0.00000000000E+00  0.00000000000E+00  0.45593999997E+02  0.45594000000E+02  0.51100000000E-03 0.  1.
         11   -1    0    0    0    0 -0.00000000000E+00 -0.00000000000E+00 -0.45593999997E+02  0.45594000000E+02  0.51100000000E-03 0. -1.
    9900012    2    1    2    0    0  0.32688266127E+02 -0.23285812288E+02 -0.65126111367E+01  0.50528857115E+02  0.29999991688E+02 0.  0.
        -12    1    1    2    0    0 -0.32688266127E+02  0.23285812288E+02  0.65126111367E+01  0.40659142885E+02  0.00000000000E+00 0.  1.
         11    1    3    3    0    0  0.18110236365E+02 -0.17443862034E+02  0.45840568784E+00  0.25149137558E+02  0.51100000000E-03 0. -1.
        -11    1    3    3    0    0 -0.20903299625E+01 -0.32810427666E+01 -0.75635097205E+01  0.85053748031E+01  0.51100000000E-03 0.  1.
        -12    1    3    3    0    0  0.16668359724E+02 -0.25609074877E+01  0.59249289598E+00  0.16874344755E+02  0.00000000000E+00 0.  1.
</event>
<event>
 7    1  0.4994895E-011  0.5052886E+02  0.7816164E-02  0.1300439E+00
        -11   -1    0    0    0    0  0.00000000000E+00  0.00000000000E+00  0.45593999997E+02  0.45594000000E+02  0.51100000000E-03 0.  1.
         11   -1    0    0    0    0 -0.00000000000E+00 -0.00000000000E+00 -0.45593999997E+02  0.45594000000E+02  0.51100000000E-03 0. -1.
    9900012    2    1    2    0    0  0.75525371862E+00  0.85841385308E+00 -0.40643060525E+02  0.50528860175E+02  0.30000000987E+02 0.  0.
        -12    1    1    2    0    0 -0.75525371862E+00 -0.85841385308E+00  0.40643060525E+02  0.40659139825E+02  0.00000000000E+00 0.  1.
         11    1    3    3    0    0 -0.69752853063E+01 -0.63776835881E+01 -0.12067892134E+02  0.15328518320E+02  0.51100000000E-03 0. -1.
        -11    1    3    3    0    0  0.15296704245E+01  0.12391744081E+02 -0.16967087943E+02  0.21066022085E+02  0.51100000000E-03 0.  1.
        -12    1    3    3    0    0  0.62008686004E+01 -0.51556466401E+01 -0.11608080448E+02  0.14134319770E+02  0.00000000000E+00 0.  1.
</event>
<event>
 7    1  0.4994895E-011  0.5052886E+02  0.7816164E-02  0.1300439E+00
        -11   -1    0    0    0    0  0.00000000000E+00  0.00000000000E+00  0.45593999997E+02  0.45594000000E+02  0.51100000000E-03 0.  1.
         11   -1    0    0    0    0 -0.00000000000E+00 -0.00000000000E+00 -0.45593999997E+02  0.45594000000E+02  0.51100000000E-03 0. -1.
    9900012    2    1    2    0    0  0.21946368345E+02 -0.33998698303E+02  0.39510750571E+01  0.50528861250E+02  0.30000004254E+02 0.  0.
        -12    1    1    2    0    0 -0.21946368345E+02  0.33998698303E+02 -0.39510750571E+01  0.40659138750E+02  0.00000000000E+00 0.  1.
         11    1    3    3    0    0  0.41926209926E+01 -0.18234659849E+02 -0.11013236848E+02  0.21711109523E+02  0.51100000000E-03 0. -1.
        -11    1    3    3    0    0  0.90958333413E+01 -0.43785419372E+01  0.81493902571E+01  0.12973757185E+02  0.51100000000E-03 0.  1.
         12    1    3    3    0    0  0.86579140106E+01 -0.11385496517E+02  0.68149216483E+01  0.15843994541E+02  0.00000000000E+00 0. -1.
</event>
<event>
 7    1  0.4994895E-011  0.5052886E+02  0.7816164E-02  0.1300439E+00
        -11   -1    0    0    0    0  0.00000000000E+00  0.00000000000E+00  0.45593999997E+02  0.45594000000E+02  0.51100000000E-03 0.  1.
         11   -1    0    0    0    0 -0.00000000000E+00 -0.00000000000E+00 -0.45593999997E+02  0.45594000000E+02  0.51100000000E-03 0. -1.
    9900012    2    1    2    0    0  0.21887412134E+02  0.20836833197E+02 -0.27201716653E+02  0.50528858144E+02  0.29999994814E+02 0.  0.
        -12    1    1    2    0    0 -0.21887412134E+02 -0.20836833197E+02  0.27201716653E+02  0.40659141856E+02  0.00000000000E+00 0.  1.
         11    1    3    3    0    0  0.83138233793E+01  0.82336161058E+01  0.23435890786E+01  0.11933335803E+02  0.51100000000E-03 0. -1.
        -11    1    3    3    0    0  0.14421725595E+02  0.25583255414E+01 -0.15729061033E+02  0.21492662933E+02  0.51100000000E-03 0.  1.
         12    1    3    3    0    0 -0.84813684060E+00  0.10044891550E+02 -0.13816244699E+02  0.17102859408E+02  0.00000000000E+00 0. -1.
</event>
<event>
 7    1  0.4994895E-011  0.5052887E+02  0.7816164E-02  0.1300439E+00
        -11   -1    0    0    0    0  0.00000000000E+00  0.00000000000E+00  0.45593999997E+02  0.45594000000E+02  0.51100000000E-03 0. -1.
         11   -1    0    0    0    0 -0.00000000000E+00 -0.00000000000E+00 -0.45593999997E+02  0.45594000000E+02  0.51100000000E-03 0.  1.
    9900012    2    1    2    0    0  0.16533285139E+02 -0.32605736014E+02 -0.17795544309E+02  0.50528868975E+02  0.30000027735E+02 0.  0.
        -12    1    1    2    0    0 -0.16533285139E+02  0.32605736014E+02  0.17795544309E+02  0.40659131025E+02  0.00000000000E+00 0.  1.
         11    1    3    3    0    0  0.98325885294E+01 -0.19267619016E+02 -0.11007654727E+02  0.24271164014E+02  0.51100000000E-03 0. -1.
        -11    1    3    3    0    0 -0.48915901647E+01 -0.19623342851E+00 -0.72260623112E+01  0.87282380057E+01  0.51100000000E-03 0.  1.
        -12    1    3    3    0    0  0.11592286774E+02 -0.13141883569E+02  0.43817272838E+00  0.17529466955E+02  0.00000000000E+00 0.  1.
</event>
<event>
 7    1  0.4994895E-011  0.5052886E+02  0.7816164E-02  0.1300439E+00
        -11   -1    0    0    0    0  0.00000000000E+00  0.00000000000E+00  0.45593999997E+02  0.45594000000E+02  0.51100000000E-03 0. -1.
         11   -1    0    0    0    0 -0.00000000000E+00 -0.00000000000E+00 -0.45593999997E+02  0.45594000000E+02  0.51100000000E-03 0.  1.
    9900012    2    1    2    0    0  0.28948871685E+02  0.20081383859E+02  0.20294497631E+02  0.50528858548E+02  0.29999996044E+02 0.  0.
        -12    1    1    2    0    0 -0.28948871685E+02 -0.20081383859E+02 -0.20294497631E+02  0.40659141452E+02  0.00000000000E+00 0.  1.
         11    1    3    3    0    0  0.30305197602E+01  0.63121918907E+01  0.75528237722E+01  0.10299172961E+02  0.51100000000E-03 0. -1.
        -11    1    3    3    0    0  0.14499807254E+02  0.13570733201E+02 -0.37094043090E+01  0.20203190109E+02  0.51100000000E-03 0.  1.
        -12    1    3    3    0    0  0.11418544671E+02  0.19845876734E+00  0.16451078167E+02  0.20026495478E+02  0.00000000000E+00 0.  1.
</event>
<event>
 7    1  0.4994895E-011  0.5052887E+02  0.7816164E-02  0.1300439E+00
        -11   -1    0    0    0    0  0.00000000000E+00  0.00000000000E+00  0.45593999997E+02  0.45594000000E+02  0.51100000000E-03 0. -1.
         11   -1    0    0    0    0 -0.00000000000E+00 -0.00000000000E+00 -0.45593999997E+02  0.45594000000E+02  0.51100000000E-03 0.  1.
    9900012    2    1    2    0    0  0.12666205025E+01  0.40006082711E+02  0.71465938494E+01  0.50528870828E+02  0.30000033368E+02 0.  0.
        -12    1    1    2    0    0 -0.12666205025E+01 -0.40006082711E+02 -0.71465938494E+01  0.40659129172E+02  0.00000000000E+00 0.  1.
         11    1    3    3    0    0  0.73206342873E+00 -0.93819155351E+00 -0.62011682917E+01  0.63143177540E+01  0.51100000000E-03 0.  1.
        -11    1    3    3    0    0  0.40851034735E+01  0.22893810322E+02  0.40620634030E+01  0.23607519582E+02  0.51100000000E-03 0. -1.
        -12    1    3    3    0    0 -0.35505463997E+01  0.18050463943E+02  0.92856987381E+01  0.20607033492E+02  0.00000000000E+00 0.  1.
</event>
<event>
 7    1  0.4994895E-011  0.5052880E+02  0.7816164E-02  0.1300439E+00
        -11   -1    0    0    0    0  0.00000000000E+00  0.00000000000E+00  0.45593999997E+02  0.45594000000E+02  0.51100000000E-03 0. -1.
         11   -1    0    0    0    0 -0.00000000000E+00 -0.00000000000E+00 -0.45593999997E+02  0.45594000000E+02  0.51100000000E-03 0.  1.
    9900012    2    1    2    0    0 -0.71219225853E+01 -0.29382230232E+02  0.27187002930E+02  0.50528802234E+02  0.29999824869E+02 0.  0.
        -12    1    1    2    0    0  0.71219225853E+01  0.29382230232E+02 -0.27187002930E+02  0.40659197766E+02  0.00000000000E+00 0.  1.
         11    1    3    3    0    0 -0.90417461337E+01 -0.28163368471E+02  0.30087256682E+02  0.42192078779E+02  0.51100000000E-03 0. -1.
        -11    1    3    3    0    0 -0.73459720132E+00  0.28284944311E+01 -0.15687247447E+01  0.33167621833E+01  0.51100000000E-03 0.  1.
         12    1    3    3    0    0  0.26544207497E+01 -0.40473561919E+01 -0.13315290082E+01  0.50199612708E+01  0.00000000000E+00 0. -1.
</event>
<event>
 7    1  0.4994895E-011  0.5052886E+02  0.7816164E-02  0.1300439E+00
        -11   -1    0    0    0    0  0.00000000000E+00  0.00000000000E+00  0.45593999997E+02  0.45594000000E+02  0.51100000000E-03 0. -1.
         11   -1    0    0    0    0 -0.00000000000E+00 -0.00000000000E+00 -0.45593999997E+02  0.45594000000E+02  0.51100000000E-03 0.  1.
    9900012    2    1    2    0    0 -0.21924604606E+00 -0.13752230287E+02  0.38262174965E+02  0.50528856628E+02  0.29999990206E+02 0.  0.
        -12    1    1    2    0    0  0.21924604606E+00  0.13752230287E+02 -0.38262174965E+02  0.40659143372E+02  0.00000000000E+00 0.  1.
         11    1    3    3    0    0  0.16696651940E+01  0.23110334706E+00  0.62270234429E+01  0.64511248505E+01  0.51100000000E-03 0. -1.
        -11    1    3    3    0    0  0.65632872111E+01 -0.18898748613E+02  0.17617650682E+02  0.26657476511E+02  0.51100000000E-03 0.  1.
        -12    1    3    3    0    0 -0.84521984512E+01  0.49154149782E+01  0.14417500840E+02  0.17420255266E+02  0.00000000000E+00 0.  1.
</event>
<event>
 7    1  0.4994895E-011  0.5052887E+02  0.7816164E-02  0.1300439E+00
        -11   -1    0    0    0    0  0.00000000000E+00  0.00000000000E+00  0.45593999997E+02  0.45594000000E+02  0.51100000000E-03 0. -1.
         11   -1    0    0    0    0 -0.00000000000E+00 -0.00000000000E+00 -0.45593999997E+02  0.45594000000E+02  0.51100000000E-03 0.  1.
    9900012    2    1    2    0    0  0.21044535893E+02 -0.33628818319E+02  0.89103811844E+01  0.50528870579E+02  0.30000032611E+02 0.  0.
        -12    1    1    2    0    0 -0.21044535893E+02  0.33628818319E+02 -0.89103811844E+01  0.40659129421E+02  0.00000000000E+00 0.  1.
         11    1    3    3    0    0  0.52138520058E+01 -0.18753726054E+02 -0.21064244457E+01  0.19578649541E+02  0.51100000000E-03 0. -1.
        -11    1    3    3    0    0  0.47957520979E+01  0.44844068214E+01  0.15956073046E+01  0.67568561962E+01  0.51100000000E-03 0.  1.
        -12    1    3    3    0    0  0.11034931789E+02 -0.19359499086E+02  0.94211983254E+01  0.24193364841E+02  0.00000000000E+00 0.  1.
</event>
<event>
 7    1  0.4994895E-011  0.5052887E+02  0.7816164E-02  0.1300439E+00
        -11   -1    0    0    0    0  0.00000000000E+00  0.00000000000E+00  0.45593999997E+02  0.45594000000E+02  0.51100000000E-03 0. -1.
         11   -1    0    0    0    0 -0.00000000000E+00 -0.00000000000E+00 -0.45593999997E+02  0.45594000000E+02  0.51100000000E-03 0.  1.
    9900012    2    1    2    0    0 -0.11407281577E+02  0.20137045713E+02  0.33429605050E+02  0.50528866010E+02  0.30000018724E+02 0.  0.
        -12    1    1    2    0    0  0.11407281577E+02 -0.20137045713E+02 -0.33429605050E+02  0.40659133990E+02  0.00000000000E+00 0.  1.
         11    1    3    3    0    0  0.29754592053E+00 -0.20790756429E-01  0.22002685078E+02  0.22004706695E+02  0.51100000000E-03 0. -1.
        -11    1    3    3    0    0 -0.82162722042E+01  0.14773826919E+02  0.18621038609E+01  0.17007072699E+02  0.51100000000E-03 0.  1.
        -12    1    3    3    0    0 -0.34885552929E+01  0.53840095509E+01  0.95648161106E+01  0.11517086615E+02  0.00000000000E+00 0.  1.
</event>
<event>
 7    1  0.4994895E-011  0.5052886E+02  0.7816164E-02  0.1300439E+00
        -11   -1    0    0    0    0  0.00000000000E+00  0.00000000000E+00  0.45593999997E+02  0.45594000000E+02  0.51100000000E-03 0. -1.
         11   -1    0    0    0    0 -0.00000000000E+00 -0.00000000000E+00 -0.45593999997E+02  0.45594000000E+02  0.51100000000E-03 0.  1.
    9900012    2    1    2    0    0 -0.24047736022E+02 -0.14372775415E+02  0.29466850850E+02  0.50528861053E+02  0.30000003656E+02 0.  0.
        -12    1    1    2    0    0  0.24047736022E+02  0.14372775415E+02 -0.29466850850E+02  0.40659138947E+02  0.00000000000E+00 0.  1.
         11    1    3    3    0    0 -0.62588731388E+01 -0.67903028671E+01  0.18278080504E+02  0.20478523706E+02  0.51100000000E-03 0. -1.
        -11    1    3    3    0    0 -0.16740989702E+02 -0.35267002132E+01 -0.10240899318E+01  0.17139052221E+02  0.51100000000E-03 0.  1.
        -12    1    3    3    0    0 -0.10478731811E+01 -0.40557723351E+01  0.12212860277E+02  0.12911285126E+02  0.00000000000E+00 0.  1.
</event>
<event>
 7    1  0.4994895E-011  0.5052894E+02  0.7816164E-02  0.1300439E+00
        -11   -1    0    0    0    0  0.00000000000E+00  0.00000000000E+00  0.45593999997E+02  0.45594000000E+02  0.51100000000E-03 0.  1.
         11   -1    0    0    0    0 -0.00000000000E+00 -0.00000000000E+00 -0.45593999997E+02  0.45594000000E+02  0.51100000000E-03 0. -1.
    9900012    2    1    2    0    0  0.20125385749E+02 -0.35079321452E+02 -0.41915397268E+01  0.50528942579E+02  0.30000251463E+02 0.  0.
        -12    1    1    2    0    0 -0.20125385749E+02  0.35079321452E+02  0.41915397268E+01  0.40659057421E+02  0.00000000000E+00 0.  1.
         11    1    3    3    0    0  0.52546315853E+01 -0.49456809423E+01 -0.21419822266E+01  0.75272173610E+01  0.51100000000E-03 0. -1.
        -11    1    3    3    0    0  0.37989052573E+01  0.30830206233E+01 -0.60274426065E+01  0.77631670053E+01  0.51100000000E-03 0.  1.
        -12    1    3    3    0    0  0.11071848906E+02 -0.33216661133E+02  0.39778851063E+01  0.35238558213E+02  0.00000000000E+00 0.  1.
</event>
<event>
 7    1  0.4994895E-011  0.5052886E+02  0.7816164E-02  0.1300439E+00
        -11   -1    0    0    0    0  0.00000000000E+00  0.00000000000E+00  0.45593999997E+02  0.45594000000E+02  0.51100000000E-03 0. -1.
         11   -1    0    0    0    0 -0.00000000000E+00 -0.00000000000E+00 -0.45593999997E+02  0.45594000000E+02  0.51100000000E-03 0.  1.
    9900012    2    1    2    0    0 -0.32156595695E+02 -0.23843337870E+02  0.71143885673E+01  0.50528856722E+02  0.29999990491E+02 0.  0.
        -12    1    1    2    0    0  0.32156595695E+02  0.23843337870E+02 -0.71143885673E+01  0.40659143278E+02  0.00000000000E+00 0.  1.
         11    1    3    3    0    0 -0.25306514524E+02 -0.92501933050E+01  0.11861279953E+02  0.29439356581E+02  0.51100000000E-03 0. -1.
        -11    1    3    3    0    0 -0.46605611254E+01 -0.16363291922E+02 -0.19577405703E+01  0.17126321874E+02  0.51100000000E-03 0.  1.
         12    1    3    3    0    0 -0.21895200454E+01  0.17701473575E+01 -0.27891508156E+01  0.39631782661E+01  0.00000000000E+00 0. -1.
</event>
<event>
 7    1  0.4994895E-011  0.5052883E+02  0.7816164E-02  0.1300439E+00
        -11   -1    0    0    0    0  0.00000000000E+00  0.00000000000E+00  0.45593999997E+02  0.45594000000E+02  0.51100000000E-03 0. -1.
         11   -1    0    0    0    0 -0.00000000000E+00 -0.00000000000E+00 -0.45593999997E+02  0.45594000000E+02  0.51100000000E-03 0.  1.
    9900012    2    1    2    0    0  0.87941382662E+01 -0.29109200470E+02  0.26990471500E+02  0.50528831641E+02  0.29999914256E+02 0.  0.
        -12    1    1    2    0    0 -0.87941382662E+01  0.29109200470E+02 -0.26990471500E+02  0.40659168359E+02  0.00000000000E+00 0.  1.
         11    1    3    3    0    0  0.77123684233E+01 -0.11500204257E+02  0.29444324142E+02  0.32537725014E+02  0.51100000000E-03 0. -1.
        -11    1    3    3    0    0  0.53932679026E+00 -0.73742118286E+01  0.22612990921E+00  0.73973649685E+01  0.51100000000E-03 0.  1.
         12    1    3    3    0    0  0.54244305264E+00 -0.10234784384E+02 -0.26799825510E+01  0.10593741658E+02  0.00000000000E+00 0. -1.
</event>
<event>
 7    1  0.4994895E-011  0.5052886E+02  0.7816164E-02  0.1300439E+00
        -11   -1    0    0    0    0  0.00000000000E+00  0.00000000000E+00  0.45593999997E+02  0.45594000000E+02  0.51100000000E-03 0.  1.
         11   -1    0    0    0    0 -0.00000000000E+00 -0.00000000000E+00 -0.45593999997E+02  0.45594000000E+02  0.51100000000E-03 0. -1.
    9900012    2    1    2    0    0 -0.12338945308E+02  0.28152657156E+02 -0.26614730886E+02  0.50528861096E+02  0.30000003788E+02 0.  0.
        -12    1    1    2    0    0  0.12338945308E+02 -0.28152657156E+02  0.26614730886E+02  0.40659138904E+02  0.00000000000E+00 0.  1.
         11    1    3    3    0    0  0.73775270750E+01  0.84601093007E+01 -0.15065578761E+02  0.18787576182E+02  0.51100000000E-03 0. -1.
        -11    1    3    3    0    0 -0.10898726160E+02  0.46296098341E+01 -0.67904867798E+01  0.13650136633E+02  0.51100000000E-03 0.  1.
         12    1    3    3    0    0 -0.88177462228E+01  0.15062938021E+02 -0.47586653450E+01  0.18091148282E+02  0.00000000000E+00 0. -1.
</event>
<event>
 7    1  0.5399751E-011  0.5052887E+02  0.7816164E-02  0.1300439E+00
        -11   -1    0    0    0    0  0.00000000000E+00  0.00000000000E+00  0.45593999997E+02  0.45594000000E+02  0.51100000000E-03 0.  1.
         11   -1    0    0    0    0 -0.00000000000E+00 -0.00000000000E+00 -0.45593999997E+02  0.45594000000E+02  0.51100000000E-03 0. -1.
    9900012    2    1    2    0    0 -0.27421875805E+02 -0.29957182158E+02 -0.19422954789E+01  0.50528873752E+02  0.30000042256E+02 0.  0.
        -12    1    1    2    0    0  0.27421875805E+02  0.29957182158E+02  0.19422954789E+01  0.40659126248E+02  0.00000000000E+00 0.  1.
         11    1    3    3    0    0 -0.13266563472E+02 -0.17262342099E+02 -0.85970121809E+01  0.23407237765E+02  0.51100000000E-03 0. -1.
        -11    1    3    3    0    0 -0.18233248792E+02 -0.77374797016E+01  0.58460660454E+01  0.20651790288E+02  0.51100000000E-03 0.  1.
        -12    1    3    3    0    0  0.40779364585E+01 -0.49573603576E+01  0.80865065671E+00  0.64698456983E+01  0.00000000000E+00 0.  1.
</event>
<event>
 7    1  0.4994895E-011  0.5052886E+02  0.7816164E-02  0.1300439E+00
        -11   -1    0    0    0    0  0.00000000000E+00  0.00000000000E+00  0.45593999997E+02  0.45594000000E+02  0.51100000000E-03 0.  1.
         11   -1    0    0    0    0 -0.00000000000E+00 -0.00000000000E+00 -0.45593999997E+02  0.45594000000E+02  0.51100000000E-03 0. -1.
    9900012    2    1    2    0    0  0.39693614126E+02 -0.86046660586E+01 -0.18821223917E+01  0.50528860006E+02  0.30000000473E+02 0.  0.
        -12    1    1    2    0    0 -0.39693614126E+02  0.86046660586E+01  0.18821223917E+01  0.40659139994E+02  0.00000000000E+00 0.  1.
         11    1    3    3    0    0  0.24728264029E+02 -0.15903645985E+02 -0.13612122550E+01  0.29432395358E+02  0.51100000000E-03 0. -1.
        -11    1    3    3    0    0  0.16120448457E+02  0.50902526617E+01  0.25984794598E+01  0.17103555958E+02  0.51100000000E-03 0.  1.
         12    1    3    3    0    0 -0.11550983598E+01  0.22087272643E+01 -0.31193895965E+01  0.39929086897E+01  0.00000000000E+00 0. -1.
</event>
<event>
 7    1  0.4994895E-011  0.5052886E+02  0.7816164E-02  0.1300439E+00
        -11   -1    0    0    0    0  0.00000000000E+00  0.00000000000E+00  0.45593999997E+02  0.45594000000E+02  0.51100000000E-03 0.  1.
         11   -1    0    0    0    0 -0.00000000000E+00 -0.00000000000E+00 -0.45593999997E+02  0.45594000000E+02  0.51100000000E-03 0. -1.
    9900012    2    1    2    0    0 -0.15363814898E+02  0.27658731742E+02 -0.25536506263E+02  0.50528863242E+02  0.30000010311E+02 0.  0.
        -12    1    1    2    0    0  0.15363814898E+02 -0.27658731742E+02  0.25536506263E+02  0.40659136758E+02  0.00000000000E+00 0.  1.
         11    1    3    3    0    0 -0.58516325451E+01  0.93042716168E+01 -0.37506762972E+01  0.11613726650E+02  0.51100000000E-03 0. -1.
        -11    1    3    3    0    0 -0.44411065318E+01 -0.44673565398E+01  0.87111719329E+00  0.63592096290E+01  0.51100000000E-03 0.  1.
        -12    1    3    3    0    0 -0.50710758207E+01  0.22821816664E+02 -0.22656947159E+02  0.32555926963E+02  0.00000000000E+00 0.  1.
</event>
<event>
 7    1  0.4994895E-011  0.5052886E+02  0.7816164E-02  0.1300439E+00
        -11   -1    0    0    0    0  0.00000000000E+00  0.00000000000E+00  0.45593999997E+02  0.45594000000E+02  0.51100000000E-03 0.  1.
         11   -1    0    0    0    0 -0.00000000000E+00 -0.00000000000E+00 -0.45593999997E+02  0.45594000000E+02  0.51100000000E-03 0. -1.
    9900012    2    1    2    0    0 -0.15791733505E+01  0.52508289308E+01 -0.40287727226E+02  0.50528856404E+02  0.29999989525E+02 0.  0.
        -12    1    1    2    0    0  0.15791733505E+01 -0.52508289308E+01  0.40287727226E+02  0.40659143596E+02  0.00000000000E+00 0.  1.
         11    1    3    3    0    0 -0.41257685657E+01  0.14371149723E+02 -0.27925181370E+02  0.31675979313E+02  0.51100000000E-03 0. -1.
        -11    1    3    3    0    0 -0.21575666811E+01 -0.61864453721E+01 -0.15971131445E+01  0.67437356845E+01  0.51100000000E-03 0.  1.
        -12    1    3    3    0    0  0.47041618962E+01 -0.29338754202E+01 -0.10765432712E+02  0.12109141406E+02  0.00000000000E+00 0.  1.
</event>
<event>
 7    1  0.4994895E-011  0.5052886E+02  0.7816164E-02  0.1300439E+00
        -11   -1    0    0    0    0  0.00000000000E+00  0.00000000000E+00  0.45593999997E+02  0.45594000000E+02  0.51100000000E-03 0.  1.
         11   -1    0    0    0    0 -0.00000000000E+00 -0.00000000000E+00 -0.45593999997E+02  0.45594000000E+02  0.51100000000E-03 0. -1.
    9900012    2    1    2    0    0  0.29147506848E+02  0.18856583936E+02 -0.21166432102E+02  0.50528858825E+02  0.29999996884E+02 0.  0.
        -12    1    1    2    0    0 -0.29147506848E+02 -0.18856583936E+02  0.21166432102E+02  0.40659141175E+02  0.00000000000E+00 0.  1.
         11    1    3    3    0    0  0.16784129617E+02  0.67864701216E+01 -0.10151180412E+02  0.20755954513E+02  0.51100000000E-03 0. -1.
        -11    1    3    3    0    0 -0.59574347707E+01  0.30189455352E+01 -0.53782197095E+01  0.85749815566E+01  0.51100000000E-03 0.  1.
        -12    1    3    3    0    0  0.18320812001E+02  0.90511682795E+01 -0.56370319804E+01  0.21197922755E+02  0.00000000000E+00 0.  1.
</event>
<event>
 7    1  0.4994895E-011  0.5052888E+02  0.7816164E-02  0.1300439E+00
        -11   -1    0    0    0    0  0.00000000000E+00  0.00000000000E+00  0.45593999997E+02  0.45594000000E+02  0.51100000000E-03 0.  1.
         11   -1    0    0    0    0 -0.00000000000E+00 -0.00000000000E+00 -0.45593999997E+02  0.45594000000E+02  0.51100000000E-03 0. -1.
    9900012    2    1    2    0    0  0.39166659130E+02 -0.81154314811E+01  0.72991104279E+01  0.50528875211E+02  0.30000046693E+02 0.  0.
        -12    1    1    2    0    0 -0.39166659130E+02  0.81154314811E+01 -0.72991104279E+01  0.40659124789E+02  0.00000000000E+00 0.  1.
         11    1    3    3    0    0  0.99050706087E+01  0.61098009356E+01 -0.58550188011E+01  0.13027714176E+02  0.51100000000E-03 0. -1.
        -11    1    3    3    0    0  0.19303291730E+02 -0.15376623920E+02  0.11900206047E+02  0.27398403950E+02  0.51100000000E-03 0.  1.
        -12    1    3    3    0    0  0.99582967911E+01  0.11513915028E+01  0.12539231815E+01  0.10102757085E+02  0.00000000000E+00 0.  1.
</event>
<event>
 7    1  0.4994895E-011  0.5052885E+02  0.7816164E-02  0.1300439E+00
        -11   -1    0    0    0    0  0.00000000000E+00  0.00000000000E+00  0.45593999997E+02  0.45594000000E+02  0.51100000000E-03 0.  1.
         11   -1    0    0    0    0 -0.00000000000E+00 -0.00000000000E+00 -0.45593999997E+02  0.45594000000E+02  0.51100000000E-03 0. -1.
    9900012    2    1    2    0    0  0.45208252088E+01  0.39960647340E+02  0.59896190143E+01  0.50528846881E+02  0.29999960580E+02 0.  0.
        -12    1    1    2    0    0 -0.45208252088E+01 -0.39960647340E+02 -0.59896190143E+01  0.40659153119E+02  0.00000000000E+00 0.  1.
         11    1    3    3    0    0  0.14962053309E+02  0.18733811951E+02  0.44079619486E+01  0.24377220478E+02  0.51100000000E-03 0.  1.
        -11    1    3    3    0    0 -0.67617506937E+01  0.17696957580E+02 -0.31389660265E+01  0.19203038510E+02  0.51100000000E-03 0. -1.
        -12    1    3    3    0    0 -0.36794774065E+01  0.35298778090E+01  0.47206230922E+01  0.69485878932E+01  0.00000000000E+00 0.  1.
</event>
<event>
 7    1  0.4994895E-011  0.5052886E+02  0.7816164E-02  0.1300439E+00
        -11   -1    0    0    0    0  0.00000000000E+00  0.00000000000E+00  0.45593999997E+02  0.45594000000E+02  0.51100000000E-03 0. -1.
         11   -1    0    0    0    0 -0.00000000000E+00 -0.00000000000E+00 -0.45593999997E+02  0.45594000000E+02  0.51100000000E-03 0.  1.
    9900012    2    1    2    0    0 -0.29101594812E+02  0.20959937699E+02  0.19155787392E+02  0.50528855892E+02  0.29999987970E+02 0.  0.
        -12    1    1    2    0    0  0.29101594812E+02 -0.20959937699E+02 -0.19155787392E+02  0.40659144108E+02  0.00000000000E+00 0.  1.
         11    1    3    3    0    0 -0.10778316821E+02  0.18385878050E+02  0.17954448562E+02  0.27867092575E+02  0.51100000000E-03 0. -1.
        -11    1    3    3    0    0  0.15270519712E+00 -0.26223936875E+01 -0.18703625833E+01  0.32246742445E+01  0.51100000000E-03 0.  1.
         12    1    3    3    0    0 -0.18475983188E+02  0.51964533368E+01  0.30717014130E+01  0.19437089073E+02  0.00000000000E+00 0. -1.
</event>
<event>
 7    1  0.4994895E-011  0.5052885E+02  0.7816164E-02  0.1300439E+00
        -11   -1    0    0    0    0  0.00000000000E+00  0.00000000000E+00  0.45593999997E+02  0.45594000000E+02  0.51100000000E-03 0.  1.
         11   -1    0    0    0    0 -0.00000000000E+00 -0.00000000000E+00 -0.45593999997E+02  0.45594000000E+02  0.51100000000E-03 0. -1.
    9900012    2    1    2    0    0  0.14660364575E+02  0.17602240020E+02 -0.33591680336E+02  0.50528854276E+02  0.29999983056E+02 0.  0.
        -12    1    1    2    0    0 -0.14660364575E+02 -0.17602240020E+02  0.33591680336E+02  0.40659145724E+02  0.00000000000E+00 0.  1.
         11    1    3    3    0    0  0.99772234924E+01  0.12668459090E+02 -0.67786066494E+01  0.17492408430E+02  0.51100000000E-03 0.  1.
        -11    1    3    3    0    0  0.38006105562E+01  0.45038883939E+01 -0.29548377942E+02  0.30130321779E+02  0.51100000000E-03 0. -1.
        -12    1    3    3    0    0  0.88253052664E+00  0.42989253688E+00  0.27353042546E+01  0.29061240663E+01  0.00000000000E+00 0.  1.
</event>
<event>
 7    1  0.4994895E-011  0.5052886E+02  0.7816164E-02  0.1300439E+00
        -11   -1    0    0    0    0  0.00000000000E+00  0.00000000000E+00  0.45593999997E+02  0.45594000000E+02  0.51100000000E-03 0. -1.
         11   -1    0    0    0    0 -0.00000000000E+00 -0.00000000000E+00 -0.45593999997E+02  0.45594000000E+02  0.51100000000E-03 0.  1.
    9900012    2    1    2    0    0  0.57368080998E+01 -0.21951181658E+02  0.33740187353E+02  0.50528860979E+02  0.30000003431E+02 0.  0.
        -12    1    1    2    0    0 -0.57368080998E+01  0.21951181658E+02 -0.33740187353E+02  0.40659139021E+02  0.00000000000E+00 0.  1.
         11    1    3    3    0    0 -0.19205611943E+01 -0.11099985261E+01  0.15024168238E+02  0.15187043278E+02  0.51100000000E-03 0. -1.
        -11    1    3    3    0    0  0.10205344460E+02 -0.23640188682E+02  0.18177361906E+02  0.31518630405E+02  0.51100000000E-03 0.  1.
        -12    1    3    3    0    0 -0.25479751654E+01  0.27990055504E+01  0.53865720906E+00  0.38231872965E+01  0.00000000000E+00 0.  1.
</event>
<event>
 7    1  0.4994895E-011  0.5052880E+02  0.7816164E-02  0.1300439E+00
        -11   -1    0    0    0    0  0.00000000000E+00  0.00000000000E+00  0.45593999997E+02  0.45594000000E+02  0.51100000000E-03 0.  1.
         11   -1    0    0    0    0 -0.00000000000E+00 -0.00000000000E+00 -0.45593999997E+02  0.45594000000E+02  0.51100000000E-03 0. -1.
    9900012    2    1    2    0    0 -0.11460855072E+02  0.38926735136E+02 -0.25550437390E+01  0.50528804781E+02  0.29999832611E+02 0.  0.
        -12    1    1    2    0    0  0.11460855072E+02 -0.38926735136E+02  0.25550437390E+01  0.40659195219E+02  0.00000000000E+00 0.  1.
         11    1    3    3    0    0 -0.70651557301E+01  0.16325322768E+02 -0.13159228605E+02  0.22126858944E+02  0.51100000000E-03 0. -1.
        -11    1    3    3    0    0 -0.66095276367E+01  0.10405306117E+02  0.10200117132E+02  0.15999957523E+02  0.51100000000E-03 0.  1.
         12    1    3    3    0    0  0.22138282949E+01  0.12196106251E+02  0.40406773498E+00  0.12401988314E+02  0.00000000000E+00 0. -1.
</event>
<event>
 7    1  0.4994895E-011  0.5052886E+02  0.7816164E-02  0.1300439E+00
        -11   -1    0    0    0    0  0.00000000000E+00  0.00000000000E+00  0.45593999997E+02  0.45594000000E+02  0.51100000000E-03 0. -1.
         11   -1    0    0    0    0 -0.00000000000E+00 -0.00000000000E+00 -0.45593999997E+02  0.45594000000E+02  0.51100000000E-03 0.  1.
    9900012    2    1    2    0    0  0.26751487219E+01 -0.18400394930E+02  0.36158471218E+02  0.50528855947E+02  0.29999988138E+02 0.  0.
        -12    1    1    2    0    0 -0.26751487219E+01  0.18400394930E+02 -0.36158471218E+02  0.40659144053E+02  0.00000000000E+00 0.  1.
         11    1    3    3    0    0  0.48110297761E+01  0.42518426096E+01  0.20630907123E+01  0.67439244236E+01  0.51100000000E-03 0.  1.
        -11    1    3    3    0    0 -0.82944969833E+01 -0.14092425203E+02  0.24924408432E+02  0.29809751161E+02  0.51100000000E-03 0. -1.
        -12    1    3    3    0    0  0.61586159291E+01 -0.85598123369E+01  0.91709720734E+01  0.13975180363E+02  0.00000000000E+00 0.  1.
</event>
<event>
 7    1  0.4994895E-011  0.5052885E+02  0.7816164E-02  0.1300439E+00
        -11   -1    0    0    0    0  0.00000000000E+00  0.00000000000E+00  0.45593999997E+02  0.45594000000E+02  0.51100000000E-03 0.  1.
         11   -1    0    0    0    0 -0.00000000000E+00 -0.00000000000E+00 -0.45593999997E+02  0.45594000000E+02  0.51100000000E-03 0. -1.
    9900012    2    1    2    0    0 -0.31799869392E+02 -0.24420868278E+02 -0.67495158448E+01  0.50528850170E+02  0.29999970575E+02 0.  0.
        -12    1    1    2    0    0  0.31799869392E+02  0.24420868278E+02  0.67495158448E+01  0.40659149830E+02  0.00000000000E+00 0.  1.
         11    1    3    3    0    0 -0.37360094622E+02 -0.20241628581E+02 -0.71727389676E+01  0.43092323937E+02  0.51100000000E-03 0. -1.
        -11    1    3    3    0    0  0.37558014492E+01 -0.32594437883E+01  0.14304367449E+01  0.51745693422E+01  0.51100000000E-03 0.  1.
         12    1    3    3    0    0  0.18044237803E+01 -0.91979590841E+00 -0.10072136221E+01  0.22619568901E+01  0.00000000000E+00 0. -1.
</event>
<event>
 7    1  0.4994895E-011  0.5052887E+02  0.7816164E-02  0.1300439E+00
        -11   -1    0    0    0    0  0.00000000000E+00  0.00000000000E+00  0.45593999997E+02  0.45594000000E+02  0.51100000000E-03 0. -1.
         11   -1    0    0    0    0 -0.00000000000E+00 -0.00000000000E+00 -0.45593999997E+02  0.45594000000E+02  0.51100000000E-03 0.  1.
    9900012    2    1    2    0    0 -0.21893477240E+02  0.27250073080E+02  0.20767135852E+02  0.50528871135E+02  0.30000034302E+02 0.  0.
        -12    1    1    2    0    0  0.21893477240E+02 -0.27250073080E+02 -0.20767135852E+02  0.40659128865E+02  0.00000000000E+00 0.  1.
         11    1    3    3    0    0 -0.13105482824E+02  0.15664893608E+02  0.19578374388E+02  0.28292319024E+02  0.51100000000E-03 0. -1.
        -11    1    3    3    0    0 -0.13568300493E+02  0.98309268508E+01 -0.78872439164E+00  0.16774027168E+02  0.51100000000E-03 0.  1.
         12    1    3    3    0    0  0.47803060764E+01  0.17542526210E+01  0.19774858555E+01  0.54625249429E+01  0.00000000000E+00 0. -1.
</event>
<event>
 7    1  0.4994895E-011  0.5052886E+02  0.7816164E-02  0.1300439E+00
        -11   -1    0    0    0    0  0.00000000000E+00  0.00000000000E+00  0.45593999997E+02  0.45594000000E+02  0.51100000000E-03 0. -1.
         11   -1    0    0    0    0 -0.00000000000E+00 -0.00000000000E+00 -0.45593999997E+02  0.45594000000E+02  0.51100000000E-03 0.  1.
    9900012    2    1    2    0    0  0.26310484820E+02 -0.21225145776E+02  0.22592411883E+02  0.50528862043E+02  0.30000006666E+02 0.  0.
        -12    1    1    2    0    0 -0.26310484820E+02  0.21225145776E+02 -0.22592411883E+02  0.40659137957E+02  0.00000000000E+00 0.  1.
         11    1    3    3    0    0  0.88082216919E+01 -0.12449721630E+02  0.25463147057E+02  0.29680838875E+02  0.51100000000E-03 0. -1.
        -11    1    3    3    0    0  0.12096967437E+02 -0.72171455084E+01  0.83612210107E+00  0.14111091768E+02  0.51100000000E-03 0.  1.
         12    1    3    3    0    0  0.54052956920E+01 -0.15582786371E+01 -0.37068572745E+01  0.67369313995E+01  0.00000000000E+00 0. -1.
</event>
<event>
 7    1  0.4994895E-011  0.5052883E+02  0.7816164E-02  0.1300439E+00
        -11   -1    0    0    0    0  0.00000000000E+00  0.00000000000E+00  0.45593999997E+02  0.45594000000E+02  0.51100000000E-03 0.  1.
         11   -1    0    0    0    0 -0.00000000000E+00 -0.00000000000E+00 -0.45593999997E+02  0.45594000000E+02  0.51100000000E-03 0. -1.
    9900012    2    1    2    0    0 -0.18680098864E+02  0.35723691026E+02 -0.52952449858E+01  0.50528833585E+02  0.29999920165E+02 0.  0.
        -12    1    1    2    0    0  0.18680098864E+02 -0.35723691026E+02  0.52952449858E+01  0.40659166415E+02  0.00000000000E+00 0.  1.
         11    1    3    3    0    0 -0.97387198030E+01  0.24034016125E+02  0.43548840548E+01  0.26295277331E+02  0.51100000000E-03 0. -1.
        -11    1    3    3    0    0  0.35265263816E+01  0.34605360582E+01 -0.77268486100E+01  0.91714714104E+01  0.51100000000E-03 0.  1.
         12    1    3    3    0    0 -0.12467905443E+02  0.82291388427E+01 -0.19232804307E+01  0.15062084844E+02  0.00000000000E+00 0. -1.
</event>
<event>
 7    1  0.4994895E-011  0.5052887E+02  0.7816164E-02  0.1300439E+00
        -11   -1    0    0    0    0  0.00000000000E+00  0.00000000000E+00  0.45593999997E+02  0.45594000000E+02  0.51100000000E-03 0.  1.
         11   -1    0    0    0    0 -0.00000000000E+00 -0.00000000000E+00 -0.45593999997E+02  0.45594000000E+02  0.51100000000E-03 0. -1.
    9900012    2    1    2    0    0 -0.23483957537E+02  0.31414637783E+02 -0.10713975678E+02  0.50528868142E+02  0.30000025203E+02 0.  0.
        -12    1    1    2    0    0  0.23483957537E+02 -0.31414637783E+02  0.10713975678E+02  0.40659131858E+02  0.00000000000E+00 0.  1.
         11    1    3    3    0    0 -0.20999376857E+02  0.11294785743E+02 -0.24806101341E+01  0.23972889693E+02  0.51100000000E-03 0. -1.
        -11    1    3    3    0    0 -0.15897768980E+01  0.19795329846E+02 -0.16757474584E+01  0.19929641344E+02  0.51100000000E-03 0.  1.
        -12    1    3    3    0    0 -0.89480378215E+00  0.32452219471E+00 -0.65576180858E+01  0.66263371045E+01  0.00000000000E+00 0.  1.
</event>
<event>
 7    1  0.4994895E-011  0.5052886E+02  0.7816164E-02  0.1300439E+00
        -11   -1    0    0    0    0  0.00000000000E+00  0.00000000000E+00  0.45593999997E+02  0.45594000000E+02  0.51100000000E-03 0.  1.
         11   -1    0    0    0    0 -0.00000000000E+00 -0.00000000000E+00 -0.45593999997E+02  0.45594000000E+02  0.51100000000E-03 0. -1.
    9900012    2    1    2    0    0  0.21773262629E+01  0.39713018545E+01 -0.40406111071E+02  0.50528858347E+02  0.29999995431E+02 0.  0.
        -12    1    1    2    0    0 -0.21773262629E+01 -0.39713018545E+01  0.40406111071E+02  0.40659141653E+02  0.00000000000E+00 0.  1.
         11    1    3    3    0    0  0.37391046561E+01  0.68379820527E+01 -0.42947964077E+02  0.43649358768E+02  0.51100000000E-03 0. -1.
        -11    1    3    3    0    0 -0.25425638327E+01 -0.25186000639E+01 -0.54668111093E+00  0.36203366727E+01  0.51100000000E-03 0.  1.
         12    1    3    3    0    0  0.98078543956E+00 -0.34808013431E+00  0.30885341170E+01  0.32591629064E+01  0.00000000000E+00 0. -1.
</event>
<event>
 7    1  0.4994895E-011  0.5052885E+02  0.7816164E-02  0.1300439E+00
        -11   -1    0    0    0    0  0.00000000000E+00  0.00000000000E+00  0.45593999997E+02  0.45594000000E+02  0.51100000000E-03 0. -1.
         11   -1    0    0    0    0 -0.00000000000E+00 -0.00000000000E+00 -0.45593999997E+02  0.45594000000E+02  0.51100000000E-03 0.  1.
    9900012    2    1    2    0    0  0.34413717450E+02 -0.20344125244E+02  0.74147710579E+01  0.50528853299E+02  0.29999980086E+02 0.  0.
        -12    1    1    2    0    0 -0.34413717450E+02  0.20344125244E+02 -0.74147710579E+01  0.40659146701E+02  0.00000000000E+00 0.  1.
         11    1    3    3    0    0  0.11530445672E+02 -0.20480470502E+02  0.43807102801E+01  0.23907979258E+02  0.51100000000E-03 0. -1.
        -11    1    3    3    0    0  0.97684231064E+01  0.55823773091E+01 -0.22411925013E+01  0.11472051713E+02  0.51100000000E-03 0.  1.
         12    1    3    3    0    0  0.13114848671E+02 -0.54460320514E+01  0.52752532790E+01  0.15148822328E+02  0.00000000000E+00 0. -1.
</event>
<event>
 7    1  0.4994895E-011  0.5052886E+02  0.7816164E-02  0.1300439E+00
        -11   -1    0    0    0    0  0.00000000000E+00  0.00000000000E+00  0.45593999997E+02  0.45594000000E+02  0.51100000000E-03 0.  1.
         11   -1    0    0    0    0 -0.00000000000E+00 -0.00000000000E+00 -0.45593999997E+02  0.45594000000E+02  0.51100000000E-03 0. -1.
    9900012    2    1    2    0    0 -0.49301826960E+01 -0.30030808431E+02 -0.26963120140E+02  0.50528855836E+02  0.29999987800E+02 0.  0.
        -12    1    1    2    0    0  0.49301826960E+01  0.30030808431E+02  0.26963120140E+02  0.40659144164E+02  0.00000000000E+00 0.  1.
         11    1    3    3    0    0  0.17721588332E+01 -0.18644576351E+02 -0.37316562472E+01  0.19096754511E+02  0.51100000000E-03 0. -1.
        -11    1    3    3    0    0 -0.78600856793E+01  0.13848133715E+01 -0.11845323445E+02  0.14283218921E+02  0.51100000000E-03 0.  1.
        -12    1    3    3    0    0  0.11577441501E+01 -0.12771045452E+02 -0.11386140448E+02  0.17148882405E+02  0.00000000000E+00 0.  1.
</event>
<event>
 7    1  0.4994895E-011  0.5052886E+02  0.7816164E-02  0.1300439E+00
        -11   -1    0    0    0    0  0.00000000000E+00  0.00000000000E+00  0.45593999997E+02  0.45594000000E+02  0.51100000000E-03 0.  1.
         11   -1    0    0    0    0 -0.00000000000E+00 -0.00000000000E+00 -0.45593999997E+02  0.45594000000E+02  0.51100000000E-03 0. -1.
    9900012    2    1    2    0    0 -0.14041317174E+01  0.25576011969E+02 -0.31576289242E+02  0.50528855685E+02  0.29999987340E+02 0.  0.
        -12    1    1    2    0    0  0.14041317174E+01 -0.25576011969E+02  0.31576289242E+02  0.40659144315E+02  0.00000000000E+00 0.  1.
         11    1    3    3    0    0  0.38965819345E+01  0.14985018387E+02 -0.55868831855E+01  0.16460479666E+02  0.51100000000E-03 0. -1.
        -11    1    3    3    0    0 -0.28932570330E+01 -0.47440610263E+01 -0.11776377646E+02  0.13021525333E+02  0.51100000000E-03 0.  1.
         12    1    3    3    0    0 -0.24074566189E+01  0.15335054608E+02 -0.14213028411E+02  0.21046850687E+02  0.00000000000E+00 0. -1.
</event>
<event>
 7    1  0.4994895E-011  0.5052886E+02  0.7816164E-02  0.1300439E+00
        -11   -1    0    0    0    0  0.00000000000E+00  0.00000000000E+00  0.45593999997E+02  0.45594000000E+02  0.51100000000E-03 0. -1.
         11   -1    0    0    0    0 -0.00000000000E+00 -0.00000000000E+00 -0.45593999997E+02  0.45594000000E+02  0.51100000000E-03 0.  1.
    9900012    2    1    2    0    0  0.24999231313E+02  0.27943123028E+02  0.15728502925E+02  0.50528862097E+02  0.30000006829E+02 0.  0.
        -12    1    1    2    0    0 -0.24999231313E+02 -0.27943123028E+02 -0.15728502925E+02  0.40659137903E+02  0.00000000000E+00 0.  1.
         11    1    3    3    0    0  0.20927815513E+02  0.12118304781E+02  0.51542344524E+01  0.24726360549E+02  0.51100000000E-03 0. -1.
        -11    1    3    3    0    0 -0.38871373103E+00  0.16751110451E+02  0.30858769786E+01  0.17037412852E+02  0.51100000000E-03 0.  1.
         12    1    3    3    0    0  0.44601295310E+01 -0.92629220464E+00  0.74883914938E+01  0.87650886958E+01  0.00000000000E+00 0. -1.
</event>
<event>
 7    1  0.4994895E-011  0.5052886E+02  0.7816164E-02  0.1300439E+00
        -11   -1    0    0    0    0  0.00000000000E+00  0.00000000000E+00  0.45593999997E+02  0.45594000000E+02  0.51100000000E-03 0.  1.
         11   -1    0    0    0    0 -0.00000000000E+00 -0.00000000000E+00 -0.45593999997E+02  0.45594000000E+02  0.51100000000E-03 0. -1.
    9900012    2    1    2    0    0 -0.38665966238E+02  0.12564298825E+02 -0.49727179557E+00  0.50528857986E+02  0.29999994333E+02 0.  0.
        -12    1    1    2    0    0  0.38665966238E+02 -0.12564298825E+02  0.49727179557E+00  0.40659142014E+02  0.00000000000E+00 0.  1.
         11    1    3    3    0    0 -0.26868684335E+02  0.24589469914E+01  0.20235521876E+01  0.27056743742E+02  0.51100000000E-03 0. -1.
        -11    1    3    3    0    0  0.34313264986E+00  0.11019885732E+02 -0.24638201555E+01  0.11297169184E+02  0.51100000000E-03 0.  1.
        -12    1    3    3    0    0 -0.12140414553E+02 -0.91453389781E+00 -0.57003827722E-01  0.12174945060E+02  0.00000000000E+00 0.  1.
</event>
<event>
 7    1  0.4994895E-011  0.5052886E+02  0.7816164E-02  0.1300439E+00
        -11   -1    0    0    0    0  0.00000000000E+00  0.00000000000E+00  0.45593999997E+02  0.45594000000E+02  0.51100000000E-03 0.  1.
         11   -1    0    0    0    0 -0.00000000000E+00 -0.00000000000E+00 -0.45593999997E+02  0.45594000000E+02  0.51100000000E-03 0. -1.
    9900012    2    1    2    0    0 -0.11886842123E+01  0.20502862288E+02 -0.35091097037E+02  0.50528862978E+02  0.30000009508E+02 0.  0.
        -12    1    1    2    0    0  0.11886842123E+01 -0.20502862288E+02  0.35091097037E+02  0.40659137022E+02  0.00000000000E+00 0.  1.
         11    1    3    3    0    0 -0.95807347098E+01  0.16412500753E+02 -0.15456743014E+02  0.24496358166E+02  0.51100000000E-03 0. -1.
        -11    1    3    3    0    0  0.66188733556E+01 -0.46838438929E+01 -0.10144824067E+02  0.12987121842E+02  0.51100000000E-03 0.  1.
        -12    1    3    3    0    0  0.17731771419E+01  0.87742054282E+01 -0.94895299550E+01  0.13045382970E+02  0.00000000000E+00 0.  1.
</event>
<event>
 7    1  0.4994895E-011  0.5052889E+02  0.7816164E-02  0.1300439E+00
        -11   -1    0    0    0    0  0.00000000000E+00  0.00000000000E+00  0.45593999997E+02  0.45594000000E+02  0.51100000000E-03 0. -1.
         11   -1    0    0    0    0 -0.00000000000E+00 -0.00000000000E+00 -0.45593999997E+02  0.45594000000E+02  0.51100000000E-03 0.  1.
    9900012    2    1    2    0    0  0.21166856238E+02  0.36195395286E+01  0.34525732810E+02  0.50528891605E+02  0.30000096523E+02 0.  0.
        -12    1    1    2    0    0 -0.21166856238E+02 -0.36195395286E+01 -0.34525732810E+02  0.40659108395E+02  0.00000000000E+00 0.  1.
         11    1    3    3    0    0  0.19400086405E+02 -0.74760611515E+01  0.21411233441E+02  0.29844526476E+02  0.51100000000E-03 0. -1.
        -11    1    3    3    0    0  0.95662718750E+00  0.51431271073E+01 -0.10167426646E+01  0.53292267662E+01  0.51100000000E-03 0.  1.
         12    1    3    3    0    0  0.81014264589E+00  0.59524735728E+01  0.14131242033E+02  0.15355138363E+02  0.00000000000E+00 0. -1.
</event>
<event>
 7    1  0.4994895E-011  0.5052885E+02  0.7816164E-02  0.1300439E+00
        -11   -1    0    0    0    0  0.00000000000E+00  0.00000000000E+00  0.45593999997E+02  0.45594000000E+02  0.51100000000E-03 0.  1.
         11   -1    0    0    0    0 -0.00000000000E+00 -0.00000000000E+00 -0.45593999997E+02  0.45594000000E+02  0.51100000000E-03 0. -1.
    9900012    2    1    2    0    0 -0.29931282990E+02  0.18859797498E+01 -0.27454097947E+02  0.50528854471E+02  0.29999983650E+02 0.  0.
        -12    1    1    2    0    0  0.29931282990E+02 -0.18859797498E+01  0.27454097947E+02  0.40659145529E+02  0.00000000000E+00 0.  1.
         11    1    3    3    0    0 -0.18955604348E+02 -0.18328871404E+01 -0.30179212491E+02  0.35685561202E+02  0.51100000000E-03 0. -1.
        -11    1    3    3    0    0  0.77889565366E+00 -0.15282681501E+01  0.42009272312E+00  0.17660011708E+01  0.51100000000E-03 0.  1.
         12    1    3    3    0    0 -0.11754574296E+02  0.52471350403E+01  0.23050218216E+01  0.13077292098E+02  0.00000000000E+00 0. -1.
</event>
<event>
 7    1  0.4994895E-011  0.5052884E+02  0.7816164E-02  0.1300439E+00
        -11   -1    0    0    0    0  0.00000000000E+00  0.00000000000E+00  0.45593999997E+02  0.45594000000E+02  0.51100000000E-03 0.  1.
         11   -1    0    0    0    0 -0.00000000000E+00 -0.00000000000E+00 -0.45593999997E+02  0.45594000000E+02  0.51100000000E-03 0. -1.
    9900012    2    1    2    0    0  0.35344083434E+02 -0.20098450767E+02 -0.12373136376E+00  0.50528840313E+02  0.29999940614E+02 0.  0.
        -12    1    1    2    0    0 -0.35344083434E+02  0.20098450767E+02  0.12373136376E+00  0.40659159687E+02  0.00000000000E+00 0.  1.
         11    1    3    3    0    0  0.16596325564E+02  0.34183516619E+01 -0.42202264247E+01  0.17462344105E+02  0.51100000000E-03 0. -1.
        -11    1    3    3    0    0  0.14635628636E+02 -0.19247687389E+02 -0.23681151014E+01  0.24295741701E+02  0.51100000000E-03 0.  1.
        -12    1    3    3    0    0  0.41121292339E+01 -0.42691150391E+01  0.64646101623E+01  0.87707545060E+01  0.00000000000E+00 0.  1.
</event>
<event>
 7    1  0.4994895E-011  0.5052886E+02  0.7816164E-02  0.1300439E+00
        -11   -1    0    0    0    0  0.00000000000E+00  0.00000000000E+00  0.45593999997E+02  0.45594000000E+02  0.51100000000E-03 0. -1.
         11   -1    0    0    0    0 -0.00000000000E+00 -0.00000000000E+00 -0.45593999997E+02  0.45594000000E+02  0.51100000000E-03 0.  1.
    9900012    2    1    2    0    0 -0.37892610281E+02  0.30471699115E+01 -0.14423250563E+02  0.50528864309E+02  0.30000013552E+02 0.  0.
        -12    1    1    2    0    0  0.37892610281E+02 -0.30471699115E+01  0.14423250563E+02  0.40659135691E+02  0.00000000000E+00 0.  1.
         11    1    3    3    0    0 -0.65090229935E+01 -0.38476529464E+01  0.48356861506E+01  0.89752812956E+01  0.51100000000E-03 0. -1.
        -11    1    3    3    0    0 -0.16255962573E+01  0.11947558185E+01 -0.95147362581E+01  0.97262639785E+01  0.51100000000E-03 0.  1.
         12    1    3    3    0    0 -0.29757991030E+02  0.57000670394E+01 -0.97442004556E+01  0.31827319034E+02  0.00000000000E+00 0. -1.
</event>
<event>
 7    1  0.4994895E-011  0.5052887E+02  0.7816164E-02  0.1300439E+00
        -11   -1    0    0    0    0  0.00000000000E+00  0.00000000000E+00  0.45593999997E+02  0.45594000000E+02  0.51100000000E-03 0.  1.
         11   -1    0    0    0    0 -0.00000000000E+00 -0.00000000000E+00 -0.45593999997E+02  0.45594000000E+02  0.51100000000E-03 0. -1.
    9900012    2    1    2    0    0  0.53796534022E+01  0.33260268043E+02 -0.22759154746E+02  0.50528865408E+02  0.30000016895E+02 0.  0.
        -12    1    1    2    0    0 -0.53796534022E+01 -0.33260268043E+02  0.22759154746E+02  0.40659134592E+02  0.00000000000E+00 0.  1.
         11    1    3    3    0    0  0.66133294181E+01 -0.85179891969E+00 -0.98836978335E+01  0.11922632701E+02  0.51100000000E-03 0.  1.
        -11    1    3    3    0    0  0.21177802185E+01  0.72538164892E+01  0.18688182488E+01  0.77843001369E+01  0.51100000000E-03 0. -1.
         12    1    3    3    0    0 -0.33514562344E+01  0.26858250473E+02 -0.14744275161E+02  0.30821932571E+02  0.00000000000E+00 0. -1.
</event>
<event>
 7    1  0.4994895E-011  0.5052886E+02  0.7816164E-02  0.1300439E+00
        -11   -1    0    0    0    0  0.00000000000E+00  0.00000000000E+00  0.45593999997E+02  0.45594000000E+02  0.51100000000E-03 0.  1.
         11   -1    0    0    0    0 -0.00000000000E+00 -0.00000000000E+00 -0.45593999997E+02  0.45594000000E+02  0.51100000000E-03 0. -1.
    9900012    2    1    2    0    0 -0.39808193234E+02  0.82599738877E+01  0.49602123844E+00  0.50528862599E+02  0.30000008355E+02 0.  0.
        -12    1    1    2    0    0  0.39808193234E+02 -0.82599738877E+01 -0.49602123844E+00  0.40659137401E+02  0.00000000000E+00 0.  1.
         11    1    3    3    0    0 -0.37368161010E+02  0.10732916351E+02 -0.86412015628E+01  0.39827695331E+02  0.51100000000E-03 0. -1.
        -11    1    3    3    0    0 -0.13831423361E+01  0.11225762444E+01  0.23606749894E+01  0.29573716055E+01  0.51100000000E-03 0.  1.
         12    1    3    3    0    0 -0.10568898878E+01 -0.35955187076E+01  0.67765478119E+01  0.77437956622E+01  0.00000000000E+00 0. -1.
</event>
<event>
 7    1  0.4994895E-011  0.5052884E+02  0.7816164E-02  0.1300439E+00
        -11   -1    0    0    0    0  0.00000000000E+00  0.00000000000E+00  0.45593999997E+02  0.45594000000E+02  0.51100000000E-03 0.  1.
         11   -1    0    0    0    0 -0.00000000000E+00 -0.00000000000E+00 -0.45593999997E+02  0.45594000000E+02  0.51100000000E-03 0. -1.
    9900012    2    1    2    0    0  0.17745269059E+02  0.11686645981E+02 -0.34665467680E+02  0.50528844602E+02  0.29999953651E+02 0.  0.
        -12    1    1    2    0    0 -0.17745269059E+02 -0.11686645981E+02  0.34665467680E+02  0.40659155398E+02  0.00000000000E+00 0.  1.
         11    1    3    3    0    0  0.39377253951E+01  0.66001915565E+01 -0.36832800011E+01  0.85226029884E+01  0.51100000000E-03 0. -1.
        -11    1    3    3    0    0  0.12118203271E+02 -0.80593599822E+01 -0.12043679535E+02  0.18890588949E+02  0.51100000000E-03 0.  1.
        -12    1    3    3    0    0  0.16893403925E+01  0.13145814407E+02 -0.18938508143E+02  0.23115652664E+02  0.00000000000E+00 0.  1.
</event>
<event>
 7    1  0.4994895E-011  0.5052888E+02  0.7816164E-02  0.1300439E+00
        -11   -1    0    0    0    0  0.00000000000E+00  0.00000000000E+00  0.45593999997E+02  0.45594000000E+02  0.51100000000E-03 0.  1.
         11   -1    0    0    0    0 -0.00000000000E+00 -0.00000000000E+00 -0.45593999997E+02  0.45594000000E+02  0.51100000000E-03 0. -1.
    9900012    2    1    2    0    0 -0.16718321711E+02  0.15836196261E+02 -0.33509350129E+02  0.50528881232E+02  0.30000064994E+02 0.  0.
        -12    1    1    2    0    0  0.16718321711E+02 -0.15836196261E+02  0.33509350129E+02  0.40659118768E+02  0.00000000000E+00 0.  1.
         11    1    3    3    0    0  0.23852594218E+01 -0.54847600511E+01 -0.43414968122E+01  0.73905784725E+01  0.51100000000E-03 0. -1.
        -11    1    3    3    0    0 -0.60229686951E+01  0.16952640904E+02 -0.16706320312E+02  0.24551360944E+02  0.51100000000E-03 0.  1.
         12    1    3    3    0    0 -0.13080612438E+02  0.43683154078E+01 -0.12461533005E+02  0.18586941816E+02  0.00000000000E+00 0. -1.
</event>
<event>
 7    1  0.4994895E-011  0.5052885E+02  0.7816164E-02  0.1300439E+00
        -11   -1    0    0    0    0  0.00000000000E+00  0.00000000000E+00  0.45593999997E+02  0.45594000000E+02  0.51100000000E-03 0.  1.
         11   -1    0    0    0    0 -0.00000000000E+00 -0.00000000000E+00 -0.45593999997E+02  0.45594000000E+02  0.51100000000E-03 0. -1.
    9900012    2    1    2    0    0  0.52562439317E+01 -0.40279659478E+02  0.17570156436E+01  0.50528853774E+02  0.29999981530E+02 0.  0.
        -12    1    1    2    0    0 -0.52562439317E+01  0.40279659478E+02 -0.17570156436E+01  0.40659146226E+02  0.00000000000E+00 0.  1.
         11    1    3    3    0    0  0.10704743757E+02 -0.25283875793E+02  0.12151190094E+02  0.30025278266E+02  0.51100000000E-03 0. -1.
        -11    1    3    3    0    0 -0.39330532334E+01 -0.26113742308E+01 -0.51010067125E+01  0.69504282495E+01  0.51100000000E-03 0.  1.
        -12    1    3    3    0    0 -0.15154465919E+01 -0.12384409454E+02 -0.52931677376E+01  0.13553147258E+02  0.00000000000E+00 0.  1.
</event>
<event>
 7    1  0.4994895E-011  0.5052886E+02  0.7816164E-02  0.1300439E+00
        -11   -1    0    0    0    0  0.00000000000E+00  0.00000000000E+00  0.45593999997E+02  0.45594000000E+02  0.51100000000E-03 0.  1.
         11   -1    0    0    0    0 -0.00000000000E+00 -0.00000000000E+00 -0.45593999997E+02  0.45594000000E+02  0.51100000000E-03 0. -1.
    9900012    2    1    2    0    0  0.21642155006E+02 -0.26873060074E+02 -0.21508634575E+02  0.50528860900E+02  0.30000003192E+02 0.  0.
        -12    1    1    2    0    0 -0.21642155006E+02  0.26873060074E+02  0.21508634575E+02  0.40659139100E+02  0.00000000000E+00 0.  1.
         11    1    3    3    0    0  0.12949177308E+02 -0.15252841242E+01 -0.33350210962E+01  0.13458456471E+02  0.51100000000E-03 0.  1.
        -11    1    3    3    0    0 -0.14859636732E+01 -0.16078239735E+02 -0.16692035163E+02  0.23223736115E+02  0.51100000000E-03 0. -1.
         12    1    3    3    0    0  0.10178941371E+02 -0.92695362152E+01 -0.14815783154E+01  0.13846668314E+02  0.00000000000E+00 0. -1.
</event>
<event>
 7    1  0.4994895E-011  0.5052886E+02  0.7816164E-02  0.1300439E+00
        -11   -1    0    0    0    0  0.00000000000E+00  0.00000000000E+00  0.45593999997E+02  0.45594000000E+02  0.51100000000E-03 0.  1.
         11   -1    0    0    0    0 -0.00000000000E+00 -0.00000000000E+00 -0.45593999997E+02  0.45594000000E+02  0.51100000000E-03 0. -1.
    9900012    2    1    2    0    0  0.23907371376E+02  0.31617811577E+02 -0.90508286552E+01  0.50528856940E+02  0.29999991154E+02 0.  0.
        -12    1    1    2    0    0 -0.23907371376E+02 -0.31617811577E+02  0.90508286552E+01  0.40659143060E+02  0.00000000000E+00 0.  1.
         11    1    3    3    0    0  0.87076649836E+01  0.12983204353E+01 -0.63616302635E+01  0.10861832501E+02  0.51100000000E-03 0. -1.
        -11    1    3    3    0    0 -0.37729984940E+01  0.92044353661E+01 -0.50985015919E+01  0.11178187098E+02  0.51100000000E-03 0.  1.
        -12    1    3    3    0    0  0.18972704886E+02  0.21115055776E+02  0.24093032002E+01  0.28488837341E+02  0.00000000000E+00 0.  1.
</event>
<event>
 7    1  0.4994895E-011  0.5052886E+02  0.7816164E-02  0.1300439E+00
        -11   -1    0    0    0    0  0.00000000000E+00  0.00000000000E+00  0.45593999997E+02  0.45594000000E+02  0.51100000000E-03 0.  1.
         11   -1    0    0    0    0 -0.00000000000E+00 -0.00000000000E+00 -0.45593999997E+02  0.45594000000E+02  0.51100000000E-03 0. -1.
    9900012    2    1    2    0    0 -0.15879251643E+02  0.25886165244E+02 -0.27035562074E+02  0.50528858341E+02  0.29999995413E+02 0.  0.
        -12    1    1    2    0    0  0.15879251643E+02 -0.25886165244E+02  0.27035562074E+02  0.40659141659E+02  0.00000000000E+00 0.  1.
         11    1    3    3    0    0 -0.41753473604E+01  0.18690962570E+02 -0.30640972510E+01  0.19395213317E+02  0.51100000000E-03 0.  1.
        -11    1    3    3    0    0 -0.36924134638E+01 -0.97439041241E+00 -0.17655794642E+02  0.18064064840E+02  0.51100000000E-03 0. -1.
         12    1    3    3    0    0 -0.80114908191E+01  0.81695930863E+01 -0.63156701811E+01  0.13069580184E+02  0.00000000000E+00 0. -1.
</event>
<event>
 7    1  0.4994895E-011  0.5052888E+02  0.7816164E-02  0.1300439E+00
        -11   -1    0    0    0    0  0.00000000000E+00  0.00000000000E+00  0.45593999997E+02  0.45594000000E+02  0.51100000000E-03 0.  1.
         11   -1    0    0    0    0 -0.00000000000E+00 -0.00000000000E+00 -0.45593999997E+02  0.45594000000E+02  0.51100000000E-03 0. -1.
    9900012    2    1    2    0    0 -0.38512071092E+02 -0.23098534976E+01 -0.12831556330E+02  0.50528881947E+02  0.30000067167E+02 0.  0.
        -12    1    1    2    0    0  0.38512071092E+02  0.23098534976E+01  0.12831556330E+02  0.40659118053E+02  0.00000000000E+00 0.  1.
         11    1    3    3    0    0 -0.18875532619E+02 -0.15109370765E+02 -0.62131833520E+01  0.24963622818E+02  0.51100000000E-03 0. -1.
        -11    1    3    3    0    0 -0.15490308944E+02  0.11378665022E+02 -0.22069581105E+01  0.19346688431E+02  0.51100000000E-03 0.  1.
         12    1    3    3    0    0 -0.41462295280E+01  0.14208522453E+01 -0.44114148679E+01  0.62185706990E+01  0.00000000000E+00 0. -1.
</event>
<event>
 7    1  0.4994895E-011  0.5052886E+02  0.7816164E-02  0.1300439E+00
        -11   -1    0    0    0    0  0.00000000000E+00  0.00000000000E+00  0.45593999997E+02  0.45594000000E+02  0.51100000000E-03 0. -1.
         11   -1    0    0    0    0 -0.00000000000E+00 -0.00000000000E+00 -0.45593999997E+02  0.45594000000E+02  0.51100000000E-03 0.  1.
    9900012    2    1    2    0    0 -0.25936354415E+02  0.23472677101E+01  0.31224375294E+02  0.50528858856E+02  0.29999996980E+02 0.  0.
        -12    1    1    2    0    0  0.25936354415E+02 -0.23472677101E+01 -0.31224375294E+02  0.40659141144E+02  0.00000000000E+00 0.  1.
         11    1    3    3    0    0  0.94449484835E+00  0.28311688731E+01  0.56976099263E+01  0.64319784545E+01  0.51100000000E-03 0. -1.
        -11    1    3    3    0    0 -0.31176185542E+02 -0.14090898638E+01  0.24247345577E+02  0.39520549680E+02  0.51100000000E-03 0.  1.
        -12    1    3    3    0    0  0.42953362786E+01  0.92518870080E+00  0.12794197907E+01  0.45763307222E+01  0.00000000000E+00 0.  1.
</event>
<event>
 7    1  0.4994895E-011  0.5052886E+02  0.7816164E-02  0.1300439E+00
        -11   -1    0    0    0    0  0.00000000000E+00  0.00000000000E+00  0.45593999997E+02  0.45594000000E+02  0.51100000000E-03 0.  1.
         11   -1    0    0    0    0 -0.00000000000E+00 -0.00000000000E+00 -0.45593999997E+02  0.45594000000E+02  0.51100000000E-03 0. -1.
    9900012    2    1    2    0    0  0.17370884311E+02 -0.24544417673E+02 -0.27367670270E+02  0.50528862815E+02  0.30000009011E+02 0.  0.
        -12    1    1    2    0    0 -0.17370884311E+02  0.24544417673E+02  0.27367670270E+02  0.40659137185E+02  0.00000000000E+00 0.  1.
         11    1    3    3    0    0  0.14347841054E+00  0.63256589770E+01 -0.37013659442E+01  0.73303927358E+01  0.51100000000E-03 0. -1.
        -11    1    3    3    0    0  0.10806317338E+02 -0.14245121501E+02 -0.85040567509E+01  0.19799468742E+02  0.51100000000E-03 0.  1.
         12    1    3    3    0    0  0.64210885625E+01 -0.16624955149E+02 -0.15162247575E+02  0.23399001337E+02  0.00000000000E+00 0. -1.
</event>
<event>
 7    1  0.4994895E-011  0.5052886E+02  0.7816164E-02  0.1300439E+00
        -11   -1    0    0    0    0  0.00000000000E+00  0.00000000000E+00  0.45593999997E+02  0.45594000000E+02  0.51100000000E-03 0.  1.
         11   -1    0    0    0    0 -0.00000000000E+00 -0.00000000000E+00 -0.45593999997E+02  0.45594000000E+02  0.51100000000E-03 0. -1.
    9900012    2    1    2    0    0 -0.32318813860E+02 -0.20717675092E+02 -0.13395438878E+02  0.50528861135E+02  0.30000003906E+02 0.  0.
        -12    1    1    2    0    0  0.32318813860E+02  0.20717675092E+02  0.13395438878E+02  0.40659138865E+02  0.00000000000E+00 0.  1.
         11    1    3    3    0    0 -0.24344646581E+01 -0.96799326744E+01 -0.35079159793E+01  0.10579848275E+02  0.51100000000E-03 0. -1.
        -11    1    3    3    0    0 -0.14336465897E+02  0.49651124513E+01 -0.89548029405E+01  0.17617465540E+02  0.51100000000E-03 0.  1.
        -12    1    3    3    0    0 -0.15547883304E+02 -0.16002854869E+02 -0.93271995839E+00  0.22331547320E+02  0.00000000000E+00 0.  1.
</event>
<event>
 7    1  0.4994895E-011  0.5052885E+02  0.7816164E-02  0.1300439E+00
        -11   -1    0    0    0    0  0.00000000000E+00  0.00000000000E+00  0.45593999997E+02  0.45594000000E+02  0.51100000000E-03 0. -1.
         11   -1    0    0    0    0 -0.00000000000E+00 -0.00000000000E+00 -0.45593999997E+02  0.45594000000E+02  0.51100000000E-03 0.  1.
    9900012    2    1    2    0    0  0.35905897590E+02 -0.20416375376E+01  0.18967456770E+02  0.50528853650E+02  0.29999981155E+02 0.  0.
        -12    1    1    2    0    0 -0.35905897590E+02  0.20416375376E+01 -0.18967456770E+02  0.40659146350E+02  0.00000000000E+00 0.  1.
         11    1    3    3    0    0  0.50868402259E+01  0.37909026386E+01 -0.63178873426E+01  0.89533561882E+01  0.51100000000E-03 0.  1.
        -11    1    3    3    0    0  0.27000712405E+02 -0.73453750465E+01  0.18182181678E+02  0.33370417075E+02  0.51100000000E-03 0. -1.
        -12    1    3    3    0    0  0.38183449586E+01  0.15128348704E+01  0.71031624351E+01  0.82050803864E+01  0.00000000000E+00 0.  1.
</event>
<event>
 7    1  0.4994895E-011  0.5052891E+02  0.7816164E-02  0.1300439E+00
        -11   -1    0    0    0    0  0.00000000000E+00  0.00000000000E+00  0.45593999997E+02  0.45594000000E+02  0.51100000000E-03 0.  1.
         11   -1    0    0    0    0 -0.00000000000E+00 -0.00000000000E+00 -0.45593999997E+02  0.45594000000E+02  0.51100000000E-03 0. -1.
    9900012    2    1    2    0    0  0.27391233967E+02  0.18859197625E+02 -0.23392579320E+02  0.50528907530E+02  0.30000144927E+02 0.  0.
        -12    1    1    2    0    0 -0.27391233967E+02 -0.18859197625E+02  0.23392579320E+02  0.40659092470E+02  0.00000000000E+00 0.  1.
         11    1    3    3    0    0  0.14265554478E+02  0.17758034539E+02 -0.16795067953E+02  0.28300673898E+02  0.51100000000E-03 0. -1.
        -11    1    3    3    0    0  0.64076433070E+01 -0.40610591885E+01  0.40672811602E+01  0.86077215789E+01  0.51100000000E-03 0.  1.
        -12    1    3    3    0    0  0.67180361817E+01  0.51622222739E+01 -0.10664792527E+02  0.13620512053E+02  0.00000000000E+00 0.  1.
</event>
<event>
 7    1  0.4994895E-011  0.5052889E+02  0.7816164E-02  0.1300439E+00
        -11   -1    0    0    0    0  0.00000000000E+00  0.00000000000E+00  0.45593999997E+02  0.45594000000E+02  0.51100000000E-03 0.  1.
         11   -1    0    0    0    0 -0.00000000000E+00 -0.00000000000E+00 -0.45593999997E+02  0.45594000000E+02  0.51100000000E-03 0. -1.
    9900012    2    1    2    0    0  0.55562480411E+01 -0.10890314232E+02 -0.38777469938E+02  0.50528892642E+02  0.30000099675E+02 0.  0.
        -12    1    1    2    0    0 -0.55562480411E+01  0.10890314232E+02  0.38777469938E+02  0.40659107358E+02  0.00000000000E+00 0.  1.
         11    1    3    3    0    0 -0.10261066663E+02 -0.15274520681E+01 -0.19852338842E+02  0.22399507955E+02  0.51100000000E-03 0. -1.
        -11    1    3    3    0    0  0.13756283664E+02 -0.31731936726E+01 -0.14556453505E+02  0.20277939669E+02  0.51100000000E-03 0.  1.
         12    1    3    3    0    0  0.20610310401E+01 -0.61896684912E+01 -0.43686775910E+01  0.78514450182E+01  0.00000000000E+00 0. -1.
</event>
<event>
 7    1  0.4994895E-011  0.5052886E+02  0.7816164E-02  0.1300439E+00
        -11   -1    0    0    0    0  0.00000000000E+00  0.00000000000E+00  0.45593999997E+02  0.45594000000E+02  0.51100000000E-03 0.  1.
         11   -1    0    0    0    0 -0.00000000000E+00 -0.00000000000E+00 -0.45593999997E+02  0.45594000000E+02  0.51100000000E-03 0. -1.
    9900012    2    1    2    0    0  0.43154907674E+01 -0.27932708735E+02 -0.29228519012E+02  0.50528855868E+02  0.29999987898E+02 0.  0.
        -12    1    1    2    0    0 -0.43154907674E+01  0.27932708735E+02  0.29228519012E+02  0.40659144132E+02  0.00000000000E+00 0.  1.
         11    1    3    3    0    0  0.11019331018E+02 -0.16089328090E+02 -0.59470623352E+01  0.20387733693E+02  0.51100000000E-03 0. -1.
        -11    1    3    3    0    0  0.20247815143E+01 -0.10939592487E+01 -0.12174096556E+02  0.12389718086E+02  0.51100000000E-03 0.  1.
         12    1    3    3    0    0 -0.87286217653E+01 -0.10749421397E+02 -0.11107360121E+02  0.17751404089E+02  0.00000000000E+00 0. -1.
</event>
<event>
 7    1  0.4994895E-011  0.5052887E+02  0.7816164E-02  0.1300439E+00
        -11   -1    0    0    0    0  0.00000000000E+00  0.00000000000E+00  0.45593999997E+02  0.45594000000E+02  0.51100000000E-03 0. -1.
         11   -1    0    0    0    0 -0.00000000000E+00 -0.00000000000E+00 -0.45593999997E+02  0.45594000000E+02  0.51100000000E-03 0.  1.
    9900012    2    1    2    0    0  0.27700620947E+02  0.27562530148E+02 -0.11231531418E+02  0.50528871050E+02  0.30000034043E+02 0.  0.
        -12    1    1    2    0    0 -0.27700620947E+02 -0.27562530148E+02  0.11231531418E+02  0.40659128950E+02  0.00000000000E+00 0.  1.
         11    1    3    3    0    0  0.22557846978E+02  0.13936833219E+02 -0.17530307838E+02  0.31786844348E+02  0.51100000000E-03 0. -1.
        -11    1    3    3    0    0 -0.16801777959E+01  0.30593166905E+01 -0.16524492501E+01  0.38617359858E+01  0.51100000000E-03 0.  1.
         12    1    3    3    0    0  0.68229517652E+01  0.10566380238E+02  0.79512256702E+01  0.14880290715E+02  0.00000000000E+00 0. -1.
</event>
<event>
 7    1  0.4994895E-011  0.5052886E+02  0.7816164E-02  0.1300439E+00
        -11   -1    0    0    0    0  0.00000000000E+00  0.00000000000E+00  0.45593999997E+02  0.45594000000E+02  0.51100000000E-03 0.  1.
         11   -1    0    0    0    0 -0.00000000000E+00 -0.00000000000E+00 -0.45593999997E+02  0.45594000000E+02  0.51100000000E-03 0. -1.
    9900012    2    1    2    0    0  0.15243431444E+02  0.35232963531E+02 -0.13395601226E+02  0.50528855228E+02  0.29999985950E+02 0.  0.
        -12    1    1    2    0    0 -0.15243431444E+02 -0.35232963531E+02  0.13395601226E+02  0.40659144772E+02  0.00000000000E+00 0.  1.
         11    1    3    3    0    0 -0.44326182734E+01  0.10926310934E+02  0.63050413927E+01  0.13371085319E+02  0.51100000000E-03 0.  1.
        -11    1    3    3    0    0  0.16249044736E+02  0.19601901648E+02 -0.17675375484E+02  0.30994917354E+02  0.51100000000E-03 0. -1.
        -12    1    3    3    0    0  0.34270049816E+01  0.47047509488E+01 -0.20252671357E+01  0.61628525542E+01  0.00000000000E+00 0.  1.
</event>
<event>
 7    1  0.4994895E-011  0.5052886E+02  0.7816164E-02  0.1300439E+00
        -11   -1    0    0    0    0  0.00000000000E+00  0.00000000000E+00  0.45593999997E+02  0.45594000000E+02  0.51100000000E-03 0.  1.
         11   -1    0    0    0    0 -0.00000000000E+00 -0.00000000000E+00 -0.45593999997E+02  0.45594000000E+02  0.51100000000E-03 0. -1.
    9900012    2    1    2    0    0 -0.64898897853E+01 -0.92358467359E+01 -0.39060799835E+02  0.50528860583E+02  0.30000002228E+02 0.  0.
        -12    1    1    2    0    0  0.64898897853E+01  0.92358467359E+01  0.39060799835E+02  0.40659139417E+02  0.00000000000E+00 0.  1.
         11    1    3    3    0    0  0.23824764686E+01 -0.60737403626E+01 -0.39372041361E+02  0.39908948336E+02  0.51100000000E-03 0. -1.
        -11    1    3    3    0    0 -0.73388283797E+01 -0.29476426405E+00 -0.76943375281E-01  0.73451486372E+01  0.51100000000E-03 0.  1.
         12    1    3    3    0    0 -0.15335378742E+01 -0.28673421093E+01  0.38818490083E+00  0.32747636099E+01  0.00000000000E+00 0. -1.
</event>
<event>
 7    1  0.4994895E-011  0.5052886E+02  0.7816164E-02  0.1300439E+00
        -11   -1    0    0    0    0  0.00000000000E+00  0.00000000000E+00  0.45593999997E+02  0.45594000000E+02  0.51100000000E-03 0. -1.
         11   -1    0    0    0    0 -0.00000000000E+00 -0.00000000000E+00 -0.45593999997E+02  0.45594000000E+02  0.51100000000E-03 0.  1.
    9900012    2    1    2    0    0 -0.20381631343E+02 -0.12639222629E+02  0.32832986940E+02  0.50528857409E+02  0.29999992579E+02 0.  0.
        -12    1    1    2    0    0  0.20381631343E+02  0.12639222629E+02 -0.32832986940E+02  0.40659142591E+02  0.00000000000E+00 0.  1.
         11    1    3    3    0    0  0.34665812407E+01  0.38293004494E+01  0.13265182037E+02  0.14235370812E+02  0.51100000000E-03 0. -1.
        -11    1    3    3    0    0 -0.89967219701E+01 -0.11894264857E+02  0.80249773487E+01  0.16935607589E+02  0.51100000000E-03 0.  1.
         12    1    3    3    0    0 -0.14851490614E+02 -0.45742582220E+01  0.11542827554E+02  0.19357879007E+02  0.00000000000E+00 0. -1.
</event>
<event>
 7    1  0.4994895E-011  0.5052887E+02  0.7816164E-02  0.1300439E+00
        -11   -1    0    0    0    0  0.00000000000E+00  0.00000000000E+00  0.45593999997E+02  0.45594000000E+02  0.51100000000E-03 0.  1.
         11   -1    0    0    0    0 -0.00000000000E+00 -0.00000000000E+00 -0.45593999997E+02  0.45594000000E+02  0.51100000000E-03 0. -1.
    9900012    2    1    2    0    0  0.65485244390E+01 -0.35958336014E+02 -0.17812356127E+02  0.50528866561E+02  0.30000020398E+02 0.  0.
        -12    1    1    2    0    0 -0.65485244390E+01  0.35958336014E+02  0.17812356127E+02  0.40659133439E+02  0.00000000000E+00 0.  1.
         11    1    3    3    0    0  0.48734384037E+01 -0.83356125676E+01 -0.55647021501E+01  0.11144449248E+02  0.51100000000E-03 0. -1.
        -11    1    3    3    0    0 -0.77837595864E+01 -0.11626987060E+02 -0.15097324419E+02  0.20584045916E+02  0.51100000000E-03 0.  1.
        -12    1    3    3    0    0  0.94588456218E+01 -0.15995736387E+02  0.28496704421E+01  0.18800371398E+02  0.00000000000E+00 0.  1.
</event>
<event>
 7    1  0.4994895E-011  0.5052886E+02  0.7816164E-02  0.1300439E+00
        -11   -1    0    0    0    0  0.00000000000E+00  0.00000000000E+00  0.45593999997E+02  0.45594000000E+02  0.51100000000E-03 0. -1.
         11   -1    0    0    0    0 -0.00000000000E+00 -0.00000000000E+00 -0.45593999997E+02  0.45594000000E+02  0.51100000000E-03 0.  1.
    9900012    2    1    2    0    0 -0.25646990554E+02  0.29499189482E+02  0.11189068615E+02  0.50528861285E+02  0.30000004361E+02 0.  0.
        -12    1    1    2    0    0  0.25646990554E+02 -0.29499189482E+02 -0.11189068615E+02  0.40659138715E+02  0.00000000000E+00 0.  1.
         11    1    3    3    0    0  0.28508771267E+01  0.14615405251E+02  0.87593600825E+01  0.17276109527E+02  0.51100000000E-03 0. -1.
        -11    1    3    3    0    0 -0.21735089747E+02  0.73604742904E+01  0.49253853131E+00  0.22952849552E+02  0.51100000000E-03 0.  1.
        -12    1    3    3    0    0 -0.67627779339E+01  0.75233099406E+01  0.19371700011E+01  0.10299902206E+02  0.00000000000E+00 0.  1.
</event>
<event>
 7    1  0.4994895E-011  0.5052885E+02  0.7816164E-02  0.1300439E+00
        -11   -1    0    0    0    0  0.00000000000E+00  0.00000000000E+00  0.45593999997E+02  0.45594000000E+02  0.51100000000E-03 0. -1.
         11   -1    0    0    0    0 -0.00000000000E+00 -0.00000000000E+00 -0.45593999997E+02  0.45594000000E+02  0.51100000000E-03 0.  1.
    9900012    2    1    2    0    0  0.37750390762E+02 -0.13709291948E+02  0.63347773755E+01  0.50528854746E+02  0.29999984486E+02 0.  0.
        -12    1    1    2    0    0 -0.37750390762E+02  0.13709291948E+02 -0.63347773755E+01  0.40659145254E+02  0.00000000000E+00 0.  1.
         11    1    3    3    0    0  0.83536702164E+01  0.55125874273E+01  0.64271461446E+01  0.11894563214E+02  0.51100000000E-03 0. -1.
        -11    1    3    3    0    0  0.18191475227E+02 -0.46232248443E+01 -0.53087476467E+01  0.19506070356E+02  0.51100000000E-03 0.  1.
         12    1    3    3    0    0  0.11205245319E+02 -0.14598654531E+02  0.52163788776E+01  0.19128221176E+02  0.00000000000E+00 0. -1.
</event>
<event>
 7    1  0.4994895E-011  0.5052889E+02  0.7816164E-02  0.1300439E+00
        -11   -1    0    0    0    0  0.00000000000E+00  0.00000000000E+00  0.45593999997E+02  0.45594000000E+02  0.51100000000E-03 0.  1.
         11   -1    0    0    0    0 -0.00000000000E+00 -0.00000000000E+00 -0.45593999997E+02  0.45594000000E+02  0.51100000000E-03 0. -1.
    9900012    2    1    2    0    0  0.21453837343E+02 -0.35711591055E+01 -0.34353212946E+02  0.50528885969E+02  0.30000079391E+02 0.  0.
        -12    1    1    2    0    0 -0.21453837343E+02  0.35711591055E+01  0.34353212946E+02  0.40659114031E+02  0.00000000000E+00 0.  1.
         11    1    3    3    0    0  0.11902659527E+02  0.12030451332E+02 -0.14684540548E+02  0.22406266857E+02  0.51100000000E-03 0. -1.
        -11    1    3    3    0    0  0.38921577303E+01 -0.53559200670E+01 -0.19771724728E+01  0.69097020782E+01  0.51100000000E-03 0.  1.
         12    1    3    3    0    0  0.56590200853E+01 -0.10245690371E+02 -0.17691499925E+02  0.21212917034E+02  0.00000000000E+00 0. -1.
</event>
<event>
 7    1  0.4994895E-011  0.5052887E+02  0.7816164E-02  0.1300439E+00
        -11   -1    0    0    0    0  0.00000000000E+00  0.00000000000E+00  0.45593999997E+02  0.45594000000E+02  0.51100000000E-03 0. -1.
         11   -1    0    0    0    0 -0.00000000000E+00 -0.00000000000E+00 -0.45593999997E+02  0.45594000000E+02  0.51100000000E-03 0.  1.
    9900012    2    1    2    0    0  0.19031256100E+02  0.20428344777E+02  0.29557727430E+02  0.50528865357E+02  0.30000016740E+02 0.  0.
        -12    1    1    2    0    0 -0.19031256100E+02 -0.20428344777E+02 -0.29557727430E+02  0.40659134643E+02  0.00000000000E+00 0.  1.
         11    1    3    3    0    0  0.30609981594E+01  0.75536405800E+01  0.14736270797E+02  0.16839978415E+02  0.51100000000E-03 0. -1.
        -11    1    3    3    0    0  0.17463811764E+02  0.34192212088E+01  0.23240218670E+01  0.17946500297E+02  0.51100000000E-03 0.  1.
        -12    1    3    3    0    0 -0.14935538236E+01  0.94554829880E+01  0.12497434766E+02  0.15742386646E+02  0.00000000000E+00 0.  1.
</event>
<event>
 7    1  0.4994895E-011  0.5052890E+02  0.7816164E-02  0.1300439E+00
        -11   -1    0    0    0    0  0.00000000000E+00  0.00000000000E+00  0.45593999997E+02  0.45594000000E+02  0.51100000000E-03 0.  1.
         11   -1    0    0    0    0 -0.00000000000E+00 -0.00000000000E+00 -0.45593999997E+02  0.45594000000E+02  0.51100000000E-03 0. -1.
    9900012    2    1    2    0    0  0.33772387433E+02  0.16628019708E+02 -0.15365467534E+02  0.50528895424E+02  0.30000108132E+02 0.  0.
        -12    1    1    2    0    0 -0.33772387433E+02 -0.16628019708E+02  0.15365467534E+02  0.40659104576E+02  0.00000000000E+00 0.  1.
         11    1    3    3    0    0  0.36000293086E+02  0.15702582677E+02 -0.61344242418E+01  0.39752023421E+02  0.51100000000E-03 0. -1.
        -11    1    3    3    0    0  0.14974500844E+01  0.69761245944E+00 -0.41949489091E+01  0.45085049085E+01  0.51100000000E-03 0.  1.
         12    1    3    3    0    0 -0.37253557374E+01  0.22782457212E+00 -0.50360943830E+01  0.62683670952E+01  0.00000000000E+00 0. -1.
</event>
<event>
 7    1  0.4994895E-011  0.5052885E+02  0.7816164E-02  0.1300439E+00
        -11   -1    0    0    0    0  0.00000000000E+00  0.00000000000E+00  0.45593999997E+02  0.45594000000E+02  0.51100000000E-03 0.  1.
         11   -1    0    0    0    0 -0.00000000000E+00 -0.00000000000E+00 -0.45593999997E+02  0.45594000000E+02  0.51100000000E-03 0. -1.
    9900012    2    1    2    0    0  0.25127564697E+02 -0.24875855166E+02 -0.20073951310E+02  0.50528853439E+02  0.29999980514E+02 0.  0.
        -12    1    1    2    0    0 -0.25127564697E+02  0.24875855166E+02  0.20073951310E+02  0.40659146561E+02  0.00000000000E+00 0.  1.
         11    1    3    3    0    0  0.16264034617E+02 -0.90014451348E+01 -0.17391295290E+02  0.25455883184E+02  0.51100000000E-03 0. -1.
        -11    1    3    3    0    0  0.13133580080E+02 -0.15926962335E+02 -0.18933394965E+01  0.20730262653E+02  0.51100000000E-03 0.  1.
         12    1    3    3    0    0 -0.42700499997E+01  0.52552304657E-01 -0.78931652375E+00  0.43427076023E+01  0.00000000000E+00 0. -1.
</event>
<event>
 7    1  0.4994895E-011  0.5052886E+02  0.7816164E-02  0.1300439E+00
        -11   -1    0    0    0    0  0.00000000000E+00  0.00000000000E+00  0.45593999997E+02  0.45594000000E+02  0.51100000000E-03 0.  1.
         11   -1    0    0    0    0 -0.00000000000E+00 -0.00000000000E+00 -0.45593999997E+02  0.45594000000E+02  0.51100000000E-03 0. -1.
    9900012    2    1    2    0    0  0.41828769047E+01  0.36815823825E+02 -0.16741106355E+02  0.50528856070E+02  0.29999988510E+02 0.  0.
        -12    1    1    2    0    0 -0.41828769047E+01 -0.36815823825E+02  0.16741106355E+02  0.40659143930E+02  0.00000000000E+00 0.  1.
         11    1    3    3    0    0  0.20280317879E+01  0.36049180346E+02 -0.16660152421E+02  0.39764519304E+02  0.51100000000E-03 0. -1.
        -11    1    3    3    0    0 -0.28559835109E+01 -0.32214186552E+01 -0.56439847952E+00  0.43419725783E+01  0.51100000000E-03 0.  1.
        -12    1    3    3    0    0  0.50108286277E+01  0.39880621347E+01  0.48344454589E+00  0.64223641874E+01  0.00000000000E+00 0.  1.
</event>
<event>
 7    1  0.4994895E-011  0.5052886E+02  0.7816164E-02  0.1300439E+00
        -11   -1    0    0    0    0  0.00000000000E+00  0.00000000000E+00  0.45593999997E+02  0.45594000000E+02  0.51100000000E-03 0.  1.
         11   -1    0    0    0    0 -0.00000000000E+00 -0.00000000000E+00 -0.45593999997E+02  0.45594000000E+02  0.51100000000E-03 0. -1.
    9900012    2    1    2    0    0  0.28463686723E+02 -0.12658458456E+02 -0.26129441099E+02  0.50528859275E+02  0.29999998253E+02 0.  0.
        -12    1    1    2    0    0 -0.28463686723E+02  0.12658458456E+02  0.26129441099E+02  0.40659140725E+02  0.00000000000E+00 0.  1.
         11    1    3    3    0    0  0.15340631282E+02 -0.43105748820E+01 -0.19890472223E+01  0.16058403814E+02  0.51100000000E-03 0. -1.
        -11    1    3    3    0    0 -0.23563934054E+01 -0.19953212233E+01 -0.15178368364E+02  0.15489246693E+02  0.51100000000E-03 0.  1.
        -12    1    3    3    0    0  0.15479448847E+02 -0.63525623505E+01 -0.89620255124E+01  0.18981208768E+02  0.00000000000E+00 0.  1.
</event>
<event>
 7    1  0.4994895E-011  0.5052886E+02  0.7816164E-02  0.1300439E+00
        -11   -1    0    0    0    0  0.00000000000E+00  0.00000000000E+00  0.45593999997E+02  0.45594000000E+02  0.51100000000E-03 0.  1.
         11   -1    0    0    0    0 -0.00000000000E+00 -0.00000000000E+00 -0.45593999997E+02  0.45594000000E+02  0.51100000000E-03 0. -1.
    9900012    2    1    2    0    0  0.95977786462E+01  0.66939556578E+01 -0.38938915372E+02  0.50528861696E+02  0.30000005610E+02 0.  0.
        -12    1    1    2    0    0 -0.95977786462E+01 -0.66939556578E+01  0.38938915372E+02  0.40659138304E+02  0.00000000000E+00 0.  1.
         11    1    3    3    0    0  0.82784164330E+01  0.46154130565E+01 -0.39246673426E+02  0.40374937667E+02  0.51100000000E-03 0. -1.
        -11    1    3    3    0    0 -0.40746257665E+01  0.19138341417E+01  0.12585087142E+01  0.46743107196E+01  0.51100000000E-03 0.  1.
         12    1    3    3    0    0  0.53939879797E+01  0.16470845965E+00 -0.95075066023E+00  0.54796133093E+01  0.00000000000E+00 0. -1.
</event>
<event>
 7    1  0.4994895E-011  0.5052882E+02  0.7816164E-02  0.1300439E+00
        -11   -1    0    0    0    0  0.00000000000E+00  0.00000000000E+00  0.45593999997E+02  0.45594000000E+02  0.51100000000E-03 0.  1.
         11   -1    0    0    0    0 -0.00000000000E+00 -0.00000000000E+00 -0.45593999997E+02  0.45594000000E+02  0.51100000000E-03 0. -1.
    9900012    2    1    2    0    0  0.30006490848E+02 -0.16588024768E+02 -0.21854438320E+02  0.50528824738E+02  0.29999893273E+02 0.  0.
        -12    1    1    2    0    0 -0.30006490848E+02  0.16588024768E+02  0.21854438320E+02  0.40659175262E+02  0.00000000000E+00 0.  1.
         11    1    3    3    0    0  0.23085883427E+01 -0.85506237474E+01  0.48428521478E+01  0.10094353065E+02  0.51100000000E-03 0. -1.
        -11    1    3    3    0    0  0.20528488577E+02 -0.15600974408E+01 -0.16471259145E+02  0.26365794609E+02  0.51100000000E-03 0.  1.
         12    1    3    3    0    0  0.71694139290E+01 -0.64773035793E+01 -0.10226031322E+02  0.14068677065E+02  0.00000000000E+00 0. -1.
</event>
<event>
 7    1  0.4994895E-011  0.5052886E+02  0.7816164E-02  0.1300439E+00
        -11   -1    0    0    0    0  0.00000000000E+00  0.00000000000E+00  0.45593999997E+02  0.45594000000E+02  0.51100000000E-03 0.  1.
         11   -1    0    0    0    0 -0.00000000000E+00 -0.00000000000E+00 -0.45593999997E+02  0.45594000000E+02  0.51100000000E-03 0. -1.
    9900012    2    1    2    0    0  0.33253777355E+02  0.19428591226E+02  0.13033866196E+02  0.50528861625E+02  0.30000005395E+02 0.  0.
        -12    1    1    2    0    0 -0.33253777355E+02 -0.19428591226E+02 -0.13033866196E+02  0.40659138375E+02  0.00000000000E+00 0.  1.
         11    1    3    3    0    0  0.14804751030E+02 -0.60044273193E+01  0.46459427398E+01  0.16637865990E+02  0.51100000000E-03 0. -1.
        -11    1    3    3    0    0  0.19467590770E+02  0.22768674880E+02  0.72609662416E+01  0.30824037328E+02  0.51100000000E-03 0.  1.
         12    1    3    3    0    0 -0.10185644447E+01  0.26643436649E+01  0.11269572150E+01  0.30669583071E+01  0.00000000000E+00 0. -1.
</event>
<event>
 7    1  0.4994895E-011  0.5052886E+02  0.7816164E-02  0.1300439E+00
        -11   -1    0    0    0    0  0.00000000000E+00  0.00000000000E+00  0.45593999997E+02  0.45594000000E+02  0.51100000000E-03 0. -1.
         11   -1    0    0    0    0 -0.00000000000E+00 -0.00000000000E+00 -0.45593999997E+02  0.45594000000E+02  0.51100000000E-03 0.  1.
    9900012    2    1    2    0    0  0.14822579783E+02  0.61191059910E+01  0.37363258661E+02  0.50528862929E+02  0.30000009360E+02 0.  0.
        -12    1    1    2    0    0 -0.14822579783E+02 -0.61191059910E+01 -0.37363258661E+02  0.40659137071E+02  0.00000000000E+00 0.  1.
         11    1    3    3    0    0 -0.58251862653E+00  0.26463046650E+01  0.56835246631E+01  0.62964044650E+01  0.51100000000E-03 0. -1.
        -11    1    3    3    0    0  0.15881043616E+02 -0.90379351199E+01  0.17254102511E+02  0.25131571206E+02  0.51100000000E-03 0.  1.
        -12    1    3    3    0    0 -0.47594520596E+00  0.12510736446E+02  0.14425631486E+02  0.19100887258E+02  0.00000000000E+00 0.  1.
</event>
<event>
 7    1  0.4994895E-011  0.5052886E+02  0.7816164E-02  0.1300439E+00
        -11   -1    0    0    0    0  0.00000000000E+00  0.00000000000E+00  0.45593999997E+02  0.45594000000E+02  0.51100000000E-03 0.  1.
         11   -1    0    0    0    0 -0.00000000000E+00 -0.00000000000E+00 -0.45593999997E+02  0.45594000000E+02  0.51100000000E-03 0. -1.
    9900012    2    1    2    0    0 -0.71114386419E+01 -0.30316402180E+02 -0.26144007950E+02  0.50528856473E+02  0.29999989734E+02 0.  0.
        -12    1    1    2    0    0  0.71114386419E+01  0.30316402180E+02  0.26144007950E+02  0.40659143527E+02  0.00000000000E+00 0.  1.
         11    1    3    3    0    0 -0.57701854669E+01 -0.98841518804E+01  0.17643915712E+01  0.11580353043E+02  0.51100000000E-03 0. -1.
        -11    1    3    3    0    0  0.58063377186E+01 -0.10574085929E+02 -0.22696650125E+02  0.25703361222E+02  0.51100000000E-03 0.  1.
        -12    1    3    3    0    0 -0.71475908936E+01 -0.98581643710E+01 -0.52117493954E+01  0.13245142208E+02  0.00000000000E+00 0.  1.
</event>
<event>
 7    1  0.4994895E-011  0.5052887E+02  0.7816164E-02  0.1300439E+00
        -11   -1    0    0    0    0  0.00000000000E+00  0.00000000000E+00  0.45593999997E+02  0.45594000000E+02  0.51100000000E-03 0.  1.
         11   -1    0    0    0    0 -0.00000000000E+00 -0.00000000000E+00 -0.45593999997E+02  0.45594000000E+02  0.51100000000E-03 0. -1.
    9900012    2    1    2    0    0  0.22563066320E+02 -0.28018929083E+02 -0.18947623549E+02  0.50528870805E+02  0.30000033298E+02 0.  0.
        -12    1    1    2    0    0 -0.22563066320E+02  0.28018929083E+02  0.18947623549E+02  0.40659129195E+02  0.00000000000E+00 0.  1.
         11    1    3    3    0    0  0.11888949203E+02  0.21949024549E+01 -0.68143933588E+01  0.13878064240E+02  0.51100000000E-03 0.  1.
        -11    1    3    3    0    0  0.12786572948E+02 -0.19607979287E+02 -0.57924000720E+01  0.24114750638E+02  0.51100000000E-03 0. -1.
         12    1    3    3    0    0 -0.21124558305E+01 -0.10605852252E+02 -0.63408301184E+01  0.12536055927E+02  0.00000000000E+00 0. -1.
</event>
<event>
 7    1  0.4994895E-011  0.5052886E+02  0.7816164E-02  0.1300439E+00
        -11   -1    0    0    0    0  0.00000000000E+00  0.00000000000E+00  0.45593999997E+02  0.45594000000E+02  0.51100000000E-03 0.  1.
         11   -1    0    0    0    0 -0.00000000000E+00 -0.00000000000E+00 -0.45593999997E+02  0.45594000000E+02  0.51100000000E-03 0. -1.
    9900012    2    1    2    0    0  0.36551390690E+02  0.40769072798E+00 -0.17804369573E+02  0.50528856514E+02  0.29999989861E+02 0.  0.
        -12    1    1    2    0    0 -0.36551390690E+02 -0.40769072798E+00  0.17804369573E+02  0.40659143486E+02  0.00000000000E+00 0.  1.
         11    1    3    3    0    0  0.13681039004E+02  0.84552937351E+01  0.34757015052E+01  0.16454279735E+02  0.51100000000E-03 0. -1.
        -11    1    3    3    0    0  0.30309617981E+01 -0.56943886224E+01 -0.35491364919E+01  0.73626870980E+01  0.51100000000E-03 0.  1.
         12    1    3    3    0    0  0.19839389888E+02 -0.23532143848E+01 -0.17730934586E+02  0.26711889682E+02  0.00000000000E+00 0. -1.
</event>
<event>
 7    1  0.4994895E-011  0.5052886E+02  0.7816164E-02  0.1300439E+00
        -11   -1    0    0    0    0  0.00000000000E+00  0.00000000000E+00  0.45593999997E+02  0.45594000000E+02  0.51100000000E-03 0.  1.
         11   -1    0    0    0    0 -0.00000000000E+00 -0.00000000000E+00 -0.45593999997E+02  0.45594000000E+02  0.51100000000E-03 0. -1.
    9900012    2    1    2    0    0 -0.28978343828E+02  0.18552285079E+01 -0.28460133007E+02  0.50528862594E+02  0.30000008341E+02 0.  0.
        -12    1    1    2    0    0  0.28978343828E+02 -0.18552285079E+01  0.28460133007E+02  0.40659137406E+02  0.00000000000E+00 0.  1.
         11    1    3    3    0    0  0.13919637736E+01  0.49277205454E+01 -0.77963262417E+01  0.93275235754E+01  0.51100000000E-03 0. -1.
        -11    1    3    3    0    0 -0.32820682105E+02 -0.30822616755E+01 -0.20325879495E+02  0.38727753464E+02  0.51100000000E-03 0.  1.
        -12    1    3    3    0    0  0.24503745039E+01  0.97696380757E-02 -0.33792727080E+00  0.24735855545E+01  0.00000000000E+00 0.  1.
</event>
<event>
 7    1  0.4994895E-011  0.5052886E+02  0.7816164E-02  0.1300439E+00
        -11   -1    0    0    0    0  0.00000000000E+00  0.00000000000E+00  0.45593999997E+02  0.45594000000E+02  0.51100000000E-03 0.  1.
         11   -1    0    0    0    0 -0.00000000000E+00 -0.00000000000E+00 -0.45593999997E+02  0.45594000000E+02  0.51100000000E-03 0. -1.
    9900012    2    1    2    0    0 -0.21137435756E+02 -0.34441083077E+02  0.44929186880E+01  0.50528859427E+02  0.29999998714E+02 0.  0.
        -12    1    1    2    0    0  0.21137435756E+02  0.34441083077E+02 -0.44929186880E+01  0.40659140573E+02  0.00000000000E+00 0.  1.
         11    1    3    3    0    0 -0.25091732811E+01 -0.63634327838E+01 -0.51303493243E+01  0.85504217322E+01  0.51100000000E-03 0. -1.
        -11    1    3    3    0    0 -0.27431409128E+01 -0.23347001766E+02  0.96306529808E+01  0.25403873536E+02  0.51100000000E-03 0.  1.
        -12    1    3    3    0    0 -0.15885121562E+02 -0.47306485269E+01 -0.73849685370E-02  0.16574564159E+02  0.00000000000E+00 0.  1.
</event>
<event>
 7    1  0.4994895E-011  0.5052888E+02  0.7816164E-02  0.1300439E+00
        -11   -1    0    0    0    0  0.00000000000E+00  0.00000000000E+00  0.45593999997E+02  0.45594000000E+02  0.51100000000E-03 0.  1.
         11   -1    0    0    0    0 -0.00000000000E+00 -0.00000000000E+00 -0.45593999997E+02  0.45594000000E+02  0.51100000000E-03 0. -1.
    9900012    2    1    2    0    0  0.34261665887E+02 -0.13550790675E+02 -0.17195293009E+02  0.50528883200E+02  0.30000070974E+02 0.  0.
        -12    1    1    2    0    0 -0.34261665887E+02  0.13550790675E+02  0.17195293009E+02  0.40659116800E+02  0.00000000000E+00 0.  1.
         11    1    3    3    0    0  0.15401470585E+02 -0.10675147211E+02 -0.21197486762E+02  0.28293064689E+02  0.51100000000E-03 0. -1.
        -11    1    3    3    0    0  0.67657093110E+01  0.12250498498E+01  0.62226591309E+01  0.92734597932E+01  0.51100000000E-03 0.  1.
         12    1    3    3    0    0  0.12094485991E+02 -0.41006933134E+01 -0.22204653778E+01  0.12962358718E+02  0.00000000000E+00 0. -1.
</event>
<event>
 7    1  0.4994895E-011  0.5052891E+02  0.7816164E-02  0.1300439E+00
        -11   -1    0    0    0    0  0.00000000000E+00  0.00000000000E+00  0.45593999997E+02  0.45594000000E+02  0.51100000000E-03 0.  1.
         11   -1    0    0    0    0 -0.00000000000E+00 -0.00000000000E+00 -0.45593999997E+02  0.45594000000E+02  0.51100000000E-03 0. -1.
    9900012    2    1    2    0    0 -0.38369814685E+02 -0.12796647558E+02 -0.41430506028E+01  0.50528908323E+02  0.30000147339E+02 0.  0.
        -12    1    1    2    0    0  0.38369814685E+02  0.12796647558E+02  0.41430506028E+01  0.40659091677E+02  0.00000000000E+00 0.  1.
         11    1    3    3    0    0 -0.19257847514E+02 -0.69839157241E+01 -0.67716548164E+01  0.21575334967E+02  0.51100000000E-03 0. -1.
        -11    1    3    3    0    0 -0.75682002864E+01 -0.84744607932E+01  0.98858937117E+01  0.15060711671E+02  0.51100000000E-03 0.  1.
        -12    1    3    3    0    0 -0.11543766885E+02  0.26617289594E+01 -0.72572894981E+01  0.13892861685E+02  0.00000000000E+00 0.  1.
</event>
<event>
 7    1  0.4994895E-011  0.5052885E+02  0.7816164E-02  0.1300439E+00
        -11   -1    0    0    0    0  0.00000000000E+00  0.00000000000E+00  0.45593999997E+02  0.45594000000E+02  0.51100000000E-03 0.  1.
         11   -1    0    0    0    0 -0.00000000000E+00 -0.00000000000E+00 -0.45593999997E+02  0.45594000000E+02  0.51100000000E-03 0. -1.
    9900012    2    1    2    0    0  0.71229574029E+01 -0.30249948107E+02 -0.26217749080E+02  0.50528852819E+02  0.29999978630E+02 0.  0.
        -12    1    1    2    0    0 -0.71229574029E+01  0.30249948107E+02  0.26217749080E+02  0.40659147181E+02  0.00000000000E+00 0.  1.
         11    1    3    3    0    0  0.10112408884E+02 -0.20081802879E+02 -0.28573502361E+02  0.36359106944E+02  0.51100000000E-03 0. -1.
        -11    1    3    3    0    0  0.26199757499E+01 -0.11381366379E+01  0.20838175591E+01  0.35358059643E+01  0.51100000000E-03 0.  1.
         12    1    3    3    0    0 -0.56094272306E+01 -0.90300085902E+01  0.27193572243E+00  0.10633939911E+02  0.00000000000E+00 0. -1.
</event>
<event>
 7    1  0.4994895E-011  0.5052885E+02  0.7816164E-02  0.1300439E+00
        -11   -1    0    0    0    0  0.00000000000E+00  0.00000000000E+00  0.45593999997E+02  0.45594000000E+02  0.51100000000E-03 0.  1.
         11   -1    0    0    0    0 -0.00000000000E+00 -0.00000000000E+00 -0.45593999997E+02  0.45594000000E+02  0.51100000000E-03 0. -1.
    9900012    2    1    2    0    0  0.33117687681E+02  0.16848609119E+02 -0.16507870096E+02  0.50528847996E+02  0.29999963968E+02 0.  0.
        -12    1    1    2    0    0 -0.33117687681E+02 -0.16848609119E+02  0.16507870096E+02  0.40659152004E+02  0.00000000000E+00 0.  1.
         11    1    3    3    0    0  0.92438122608E+01  0.18290468541E+02  0.11737212371E+01  0.20527224030E+02  0.51100000000E-03 0. -1.
        -11    1    3    3    0    0  0.10525621998E+02 -0.15867502825E+01 -0.99739697074E+01  0.14587205589E+02  0.51100000000E-03 0.  1.
         12    1    3    3    0    0  0.13348253422E+02  0.14489086042E+00 -0.77076216255E+01  0.15414418377E+02  0.00000000000E+00 0. -1.
</event>
<event>
 7    1  0.4994895E-011  0.5052886E+02  0.7816164E-02  0.1300439E+00
        -11   -1    0    0    0    0  0.00000000000E+00  0.00000000000E+00  0.45593999997E+02  0.45594000000E+02  0.51100000000E-03 0. -1.
         11   -1    0    0    0    0 -0.00000000000E+00 -0.00000000000E+00 -0.45593999997E+02  0.45594000000E+02  0.51100000000E-03 0.  1.
    9900012    2    1    2    0    0 -0.37592924458E+02  0.35260257660E+01  0.15083263700E+02  0.50528859935E+02  0.30000000259E+02 0.  0.
        -12    1    1    2    0    0  0.37592924458E+02 -0.35260257660E+01 -0.15083263700E+02  0.40659140065E+02  0.00000000000E+00 0.  1.
         11    1    3    3    0    0 -0.74041342160E+01 -0.90087292748E+01 -0.28060405734E+01  0.11993843029E+02  0.51100000000E-03 0. -1.
        -11    1    3    3    0    0 -0.87345866766E+00  0.27639932426E+01  0.14592649100E+00  0.29023927183E+01  0.51100000000E-03 0.  1.
         12    1    3    3    0    0 -0.29315331574E+02  0.97707617982E+01  0.17743377782E+02  0.35632624188E+02  0.00000000000E+00 0. -1.
</event>
<event>
 7    1  0.4994895E-011  0.5052885E+02  0.7816164E-02  0.1300439E+00
        -11   -1    0    0    0    0  0.00000000000E+00  0.00000000000E+00  0.45593999997E+02  0.45594000000E+02  0.51100000000E-03 0.  1.
         11   -1    0    0    0    0 -0.00000000000E+00 -0.00000000000E+00 -0.45593999997E+02  0.45594000000E+02  0.51100000000E-03 0. -1.
    9900012    2    1    2    0    0 -0.32628711357E+02  0.21529149989E+02 -0.11181656215E+02  0.50528849249E+02  0.29999967778E+02 0.  0.
        -12    1    1    2    0    0  0.32628711357E+02 -0.21529149989E+02  0.11181656215E+02  0.40659150751E+02  0.00000000000E+00 0.  1.
         11    1    3    3    0    0 -0.12658662211E+02  0.11338837866E+02 -0.68976205835E+01  0.18340887196E+02  0.51100000000E-03 0. -1.
        -11    1    3    3    0    0  0.36398049449E+01  0.69308246228E+01  0.62683622088E+00  0.78534981950E+01  0.51100000000E-03 0.  1.
        -12    1    3    3    0    0 -0.23609854091E+02  0.32594874993E+01 -0.49108718523E+01  0.24334463859E+02  0.00000000000E+00 0.  1.
</event>
<event>
 7    1  0.4994895E-011  0.5052887E+02  0.7816164E-02  0.1300439E+00
        -11   -1    0    0    0    0  0.00000000000E+00  0.00000000000E+00  0.45593999997E+02  0.45594000000E+02  0.51100000000E-03 0.  1.
         11   -1    0    0    0    0 -0.00000000000E+00 -0.00000000000E+00 -0.45593999997E+02  0.45594000000E+02  0.51100000000E-03 0. -1.
    9900012    2    1    2    0    0  0.31447268774E+02 -0.68403290403E+01 -0.24848424595E+02  0.50528867944E+02  0.30000024601E+02 0.  0.
        -12    1    1    2    0    0 -0.31447268774E+02  0.68403290403E+01  0.24848424595E+02  0.40659132056E+02  0.00000000000E+00 0.  1.
         11    1    3    3    0    0  0.19555544659E+02 -0.13183758277E+02 -0.19155586854E+02  0.30383668593E+02  0.51100000000E-03 0. -1.
        -11    1    3    3    0    0 -0.10466010676E+01  0.57575983337E+01 -0.39886161497E+01  0.70819751071E+01  0.51100000000E-03 0.  1.
        -12    1    3    3    0    0  0.12938325183E+02  0.58583090342E+00 -0.17042215914E+01  0.13063224243E+02  0.00000000000E+00 0.  1.
</event>
<event>
 7    1  0.4994895E-011  0.5052886E+02  0.7816164E-02  0.1300439E+00
        -11   -1    0    0    0    0  0.00000000000E+00  0.00000000000E+00  0.45593999997E+02  0.45594000000E+02  0.51100000000E-03 0.  1.
         11   -1    0    0    0    0 -0.00000000000E+00 -0.00000000000E+00 -0.45593999997E+02  0.45594000000E+02  0.51100000000E-03 0. -1.
    9900012    2    1    2    0    0  0.23951760977E+02  0.25905950825E+02 -0.20207929538E+02  0.50528861319E+02  0.30000004466E+02 0.  0.
        -12    1    1    2    0    0 -0.23951760977E+02 -0.25905950825E+02  0.20207929538E+02  0.40659138681E+02  0.00000000000E+00 0.  1.
         11    1    3    3    0    0  0.21519065198E+02  0.26616286498E+02 -0.13048257744E+02  0.36629959109E+02  0.51100000000E-03 0. -1.
        -11    1    3    3    0    0  0.24554530844E+01 -0.46817038901E+01  0.45983706997E+00  0.53065102993E+01  0.51100000000E-03 0.  1.
         12    1    3    3    0    0 -0.22757306109E-01  0.39713682177E+01 -0.76195088641E+01  0.85923919106E+01  0.00000000000E+00 0. -1.
</event>
<event>
 7    1  0.4994895E-011  0.5052885E+02  0.7816164E-02  0.1300439E+00
        -11   -1    0    0    0    0  0.00000000000E+00  0.00000000000E+00  0.45593999997E+02  0.45594000000E+02  0.51100000000E-03 0.  1.
         11   -1    0    0    0    0 -0.00000000000E+00 -0.00000000000E+00 -0.45593999997E+02  0.45594000000E+02  0.51100000000E-03 0. -1.
    9900012    2    1    2    0    0  0.16283595998E+02  0.35271965326E+01 -0.37088673761E+02  0.50528851763E+02  0.29999975419E+02 0.  0.
        -12    1    1    2    0    0 -0.16283595998E+02 -0.35271965326E+01  0.37088673761E+02  0.40659148237E+02  0.00000000000E+00 0.  1.
         11    1    3    3    0    0  0.22819041966E+01 -0.90475291854E+01 -0.22320657597E+02  0.24192491128E+02  0.51100000000E-03 0. -1.
        -11    1    3    3    0    0  0.76293130469E+01  0.11989648934E+02 -0.58689570994E+01  0.15375394526E+02  0.51100000000E-03 0.  1.
         12    1    3    3    0    0  0.63723787543E+01  0.58507678399E+00 -0.88990590641E+01  0.10960966110E+02  0.00000000000E+00 0. -1.
</event>
<event>
 7    1  0.4994895E-011  0.5052888E+02  0.7816164E-02  0.1300439E+00
        -11   -1    0    0    0    0  0.00000000000E+00  0.00000000000E+00  0.45593999997E+02  0.45594000000E+02  0.51100000000E-03 0.  1.
         11   -1    0    0    0    0 -0.00000000000E+00 -0.00000000000E+00 -0.45593999997E+02  0.45594000000E+02  0.51100000000E-03 0. -1.
    9900012    2    1    2    0    0 -0.17897189522E+02 -0.10427193946E+02 -0.34987545050E+02  0.50528879560E+02  0.30000059910E+02 0.  0.
        -12    1    1    2    0    0  0.17897189522E+02  0.10427193946E+02  0.34987545050E+02  0.40659120440E+02  0.00000000000E+00 0.  1.
         11    1    3    3    0    0 -0.60823349169E+01 -0.12628357178E+02 -0.29847904018E+02  0.32975257051E+02  0.51100000000E-03 0. -1.
        -11    1    3    3    0    0 -0.82083031059E+00  0.10327564933E+01  0.33589588869E+01  0.36087329409E+01  0.51100000000E-03 0.  1.
        -12    1    3    3    0    0 -0.10994024294E+02  0.11684067386E+01 -0.84985999181E+01  0.13944889568E+02  0.00000000000E+00 0.  1.
</event>
<event>
 7    1  0.4994895E-011  0.5052886E+02  0.7816164E-02  0.1300439E+00
        -11   -1    0    0    0    0  0.00000000000E+00  0.00000000000E+00  0.45593999997E+02  0.45594000000E+02  0.51100000000E-03 0. -1.
         11   -1    0    0    0    0 -0.00000000000E+00 -0.00000000000E+00 -0.45593999997E+02  0.45594000000E+02  0.51100000000E-03 0.  1.
    9900012    2    1    2    0    0  0.14532372625E+02  0.22646634016E+02  0.30481239951E+02  0.50528857420E+02  0.29999992615E+02 0.  0.
        -12    1    1    2    0    0 -0.14532372625E+02 -0.22646634016E+02 -0.30481239951E+02  0.40659142580E+02  0.00000000000E+00 0.  1.
         11    1    3    3    0    0  0.64536243629E+01  0.14504838162E+02  0.44779114982E+01  0.16495189880E+02  0.51100000000E-03 0. -1.
        -11    1    3    3    0    0  0.11669567246E+02  0.93949749792E+01  0.26248056025E+02  0.30222587578E+02  0.51100000000E-03 0.  1.
        -12    1    3    3    0    0 -0.35908189842E+01 -0.12531791252E+01 -0.24472757203E+00  0.38110799626E+01  0.00000000000E+00 0.  1.
</event>
<event>
 7    1  0.4994895E-011  0.5052887E+02  0.7816164E-02  0.1300439E+00
        -11   -1    0    0    0    0  0.00000000000E+00  0.00000000000E+00  0.45593999997E+02  0.45594000000E+02  0.51100000000E-03 0. -1.
         11   -1    0    0    0    0 -0.00000000000E+00 -0.00000000000E+00 -0.45593999997E+02  0.45594000000E+02  0.51100000000E-03 0.  1.
    9900012    2    1    2    0    0 -0.34114184390E+02  0.55834606245E+01  0.21405888434E+02  0.50528872257E+02  0.30000037713E+02 0.  0.
        -12    1    1    2    0    0  0.34114184390E+02 -0.55834606245E+01 -0.21405888434E+02  0.40659127743E+02  0.00000000000E+00 0.  1.
         11    1    3    3    0    0  0.27753540706E+01 -0.15326653011E+01  0.73099056352E+01  0.79678336955E+01  0.51100000000E-03 0. -1.
        -11    1    3    3    0    0 -0.29394979480E+02  0.11313828878E+02  0.12106040555E+02  0.33743499532E+02  0.51100000000E-03 0.  1.
        -12    1    3    3    0    0 -0.74945589815E+01 -0.41977029524E+01  0.19899422438E+01  0.88175390295E+01  0.00000000000E+00 0.  1.
</event>
<event>
 7    1  0.4994895E-011  0.5052885E+02  0.7816164E-02  0.1300439E+00
        -11   -1    0    0    0    0  0.00000000000E+00  0.00000000000E+00  0.45593999997E+02  0.45594000000E+02  0.51100000000E-03 0. -1.
         11   -1    0    0    0    0 -0.00000000000E+00 -0.00000000000E+00 -0.45593999997E+02  0.45594000000E+02  0.51100000000E-03 0.  1.
    9900012    2    1    2    0    0  0.28564716171E+02 -0.14033025502E+02  0.25304099896E+02  0.50528852367E+02  0.29999977254E+02 0.  0.
        -12    1    1    2    0    0 -0.28564716171E+02  0.14033025502E+02 -0.25304099896E+02  0.40659147633E+02  0.00000000000E+00 0.  1.
         11    1    3    3    0    0  0.11728634931E+02  0.75504086865E+01  0.11805251656E+02  0.18273847860E+02  0.51100000000E-03 0. -1.
        -11    1    3    3    0    0  0.13577881984E+02 -0.14945637010E+02  0.46453310836E+01  0.20719798405E+02  0.51100000000E-03 0.  1.
         12    1    3    3    0    0  0.32581992561E+01 -0.66377971782E+01  0.88535171565E+01  0.11535206102E+02  0.00000000000E+00 0. -1.
</event>
<event>
 7    1  0.4994895E-011  0.5052886E+02  0.7816164E-02  0.1300439E+00
        -11   -1    0    0    0    0  0.00000000000E+00  0.00000000000E+00  0.45593999997E+02  0.45594000000E+02  0.51100000000E-03 0. -1.
         11   -1    0    0    0    0 -0.00000000000E+00 -0.00000000000E+00 -0.45593999997E+02  0.45594000000E+02  0.51100000000E-03 0.  1.
    9900012    2    1    2    0    0  0.39959600262E+02 -0.10670300314E+01 -0.74335312884E+01  0.50528860884E+02  0.30000003144E+02 0.  0.
        -12    1    1    2    0    0 -0.39959600262E+02  0.10670300314E+01  0.74335312884E+01  0.40659139116E+02  0.00000000000E+00 0.  1.
         11    1    3    3    0    0  0.16513076904E+02  0.42583484077E+01  0.81937408374E+01  0.18919636074E+02  0.51100000000E-03 0. -1.
        -11    1    3    3    0    0  0.70776284405E+01  0.38803691411E+01 -0.79231533422E+01  0.11310457469E+02  0.51100000000E-03 0.  1.
         12    1    3    3    0    0  0.16368894918E+02 -0.92057475802E+01 -0.77041187836E+01  0.20298767342E+02  0.00000000000E+00 0. -1.
</event>
<event>
 7    1  0.4994895E-011  0.5052890E+02  0.7816164E-02  0.1300439E+00
        -11   -1    0    0    0    0  0.00000000000E+00  0.00000000000E+00  0.45593999997E+02  0.45594000000E+02  0.51100000000E-03 0.  1.
         11   -1    0    0    0    0 -0.00000000000E+00 -0.00000000000E+00 -0.45593999997E+02  0.45594000000E+02  0.51100000000E-03 0. -1.
    9900012    2    1    2    0    0 -0.29790268198E+02 -0.11869204438E+02 -0.24996482532E+02  0.50528902220E+02  0.30000128787E+02 0.  0.
        -12    1    1    2    0    0  0.29790268198E+02  0.11869204438E+02  0.24996482532E+02  0.40659097780E+02  0.00000000000E+00 0.  1.
         11    1    3    3    0    0 -0.77848906005E+01 -0.18438608812E+02 -0.13397695522E+02  0.24084955099E+02  0.51100000000E-03 0. -1.
        -11    1    3    3    0    0 -0.16188412662E+02  0.34954874907E+01 -0.54403892884E+01  0.17432182112E+02  0.51100000000E-03 0.  1.
         12    1    3    3    0    0 -0.58169649358E+01  0.30739168830E+01 -0.61583977223E+01  0.90117650088E+01  0.00000000000E+00 0. -1.
</event>
<event>
 7    1  0.4994895E-011  0.5052886E+02  0.7816164E-02  0.1300439E+00
        -11   -1    0    0    0    0  0.00000000000E+00  0.00000000000E+00  0.45593999997E+02  0.45594000000E+02  0.51100000000E-03 0. -1.
         11   -1    0    0    0    0 -0.00000000000E+00 -0.00000000000E+00 -0.45593999997E+02  0.45594000000E+02  0.51100000000E-03 0.  1.
    9900012    2    1    2    0    0  0.27159382183E+02 -0.83206848476E+01  0.29091238166E+02  0.50528856196E+02  0.29999988893E+02 0.  0.
        -12    1    1    2    0    0 -0.27159382183E+02  0.83206848476E+01 -0.29091238166E+02  0.40659143804E+02  0.00000000000E+00 0.  1.
         11    1    3    3    0    0  0.14618248026E+02 -0.19243734639E+02  0.18700805884E+02  0.30557071836E+02  0.51100000000E-03 0. -1.
        -11    1    3    3    0    0  0.69756601471E+01  0.36884392367E+01  0.41576463919E+01  0.89191054637E+01  0.51100000000E-03 0.  1.
         12    1    3    3    0    0  0.55654740098E+01  0.72346105549E+01  0.62327858896E+01  0.11052678896E+02  0.00000000000E+00 0. -1.
</event>
<event>
 7    1  0.4994895E-011  0.5052885E+02  0.7816164E-02  0.1300439E+00
        -11   -1    0    0    0    0  0.00000000000E+00  0.00000000000E+00  0.45593999997E+02  0.45594000000E+02  0.51100000000E-03 0.  1.
         11   -1    0    0    0    0 -0.00000000000E+00 -0.00000000000E+00 -0.45593999997E+02  0.45594000000E+02  0.51100000000E-03 0. -1.
    9900012    2    1    2    0    0 -0.40009238450E+02 -0.23478152875E+01 -0.68494876984E+01  0.50528845069E+02  0.29999955071E+02 0.  0.
        -12    1    1    2    0    0  0.40009238450E+02  0.23478152875E+01  0.68494876984E+01  0.40659154931E+02  0.00000000000E+00 0.  1.
         11    1    3    3    0    0 -0.25814188957E+02  0.91555156493E+01 -0.13365161440E+02  0.30476603467E+02  0.51100000000E-03 0.  1.
        -11    1    3    3    0    0 -0.11361683179E+02 -0.11427791303E+02  0.58230067749E+01  0.17134458465E+02  0.51100000000E-03 0. -1.
        -12    1    3    3    0    0 -0.28333663138E+01 -0.75539633342E-01  0.69266696641E+00  0.29177831364E+01  0.00000000000E+00 0.  1.
</event>
<event>
 7    1  0.4994895E-011  0.5052886E+02  0.7816164E-02  0.1300439E+00
        -11   -1    0    0    0    0  0.00000000000E+00  0.00000000000E+00  0.45593999997E+02  0.45594000000E+02  0.51100000000E-03 0.  1.
         11   -1    0    0    0    0 -0.00000000000E+00 -0.00000000000E+00 -0.45593999997E+02  0.45594000000E+02  0.51100000000E-03 0. -1.
    9900012    2    1    2    0    0 -0.35626451166E+02  0.34140520661E+01 -0.19294195640E+02  0.50528858844E+02  0.29999996941E+02 0.  0.
        -12    1    1    2    0    0  0.35626451166E+02 -0.34140520661E+01  0.19294195640E+02  0.40659141156E+02  0.00000000000E+00 0.  1.
         11    1    3    3    0    0 -0.30608118820E+01  0.33492057204E+00  0.67308101514E+00  0.31517898852E+01  0.51100000000E-03 0. -1.
        -11    1    3    3    0    0 -0.35195407943E+02  0.91341775496E+01 -0.16780248806E+02  0.40046556531E+02  0.51100000000E-03 0.  1.
        -12    1    3    3    0    0  0.26297686589E+01 -0.60550460556E+01 -0.31870278490E+01  0.73305124272E+01  0.00000000000E+00 0.  1.
</event>
<event>
 7    1  0.4994895E-011  0.5052886E+02  0.7816164E-02  0.1300439E+00
        -11   -1    0    0    0    0  0.00000000000E+00  0.00000000000E+00  0.45593999997E+02  0.45594000000E+02  0.51100000000E-03 0.  1.
         11   -1    0    0    0    0 -0.00000000000E+00 -0.00000000000E+00 -0.45593999997E+02  0.45594000000E+02  0.51100000000E-03 0. -1.
    9900012    2    1    2    0    0 -0.23369143212E+02 -0.25907270143E+02 -0.20877311111E+02  0.50528860561E+02  0.30000002160E+02 0.  0.
        -12    1    1    2    0    0  0.23369143212E+02  0.25907270143E+02  0.20877311111E+02  0.40659139439E+02  0.00000000000E+00 0.  1.
         11    1    3    3    0    0  0.11324961731E+01 -0.67751598759E+01 -0.31974429709E+01  0.75768714348E+01  0.51100000000E-03 0. -1.
        -11    1    3    3    0    0 -0.68181938909E+01  0.53880398673E+01 -0.20920130418E+01  0.89384148692E+01  0.51100000000E-03 0.  1.
        -12    1    3    3    0    0 -0.17683445495E+02 -0.24520150134E+02 -0.15587855098E+02  0.34013574257E+02  0.00000000000E+00 0.  1.
</event>
<event>
 7    1  0.4994895E-011  0.5052887E+02  0.7816164E-02  0.1300439E+00
        -11   -1    0    0    0    0  0.00000000000E+00  0.00000000000E+00  0.45593999997E+02  0.45594000000E+02  0.51100000000E-03 0. -1.
         11   -1    0    0    0    0 -0.00000000000E+00 -0.00000000000E+00 -0.45593999997E+02  0.45594000000E+02  0.51100000000E-03 0.  1.
    9900012    2    1    2    0    0 -0.31854965973E+01 -0.11202127013E+02  0.38955486866E+02  0.50528868244E+02  0.30000025516E+02 0.  0.
        -12    1    1    2    0    0  0.31854965973E+01  0.11202127013E+02 -0.38955486866E+02  0.40659131756E+02  0.00000000000E+00 0.  1.
         11    1    3    3    0    0 -0.12340666068E+02 -0.67597552167E+01  0.34926412651E+02  0.37654224604E+02  0.51100000000E-03 0. -1.
        -11    1    3    3    0    0  0.97467912689E+01 -0.42476800344E+01  0.49778108923E+01  0.11739732844E+02  0.51100000000E-03 0.  1.
         12    1    3    3    0    0 -0.59162179775E+00 -0.19469176143E+00 -0.94873667714E+00  0.11349107965E+01  0.00000000000E+00 0. -1.
</event>
<event>
 7    1  0.4994895E-011  0.5052886E+02  0.7816164E-02  0.1300439E+00
        -11   -1    0    0    0    0  0.00000000000E+00  0.00000000000E+00  0.45593999997E+02  0.45594000000E+02  0.51100000000E-03 0.  1.
         11   -1    0    0    0    0 -0.00000000000E+00 -0.00000000000E+00 -0.45593999997E+02  0.45594000000E+02  0.51100000000E-03 0. -1.
    9900012    2    1    2    0    0  0.65904778114E+01 -0.14568588175E+02 -0.37382984974E+02  0.50528859271E+02  0.29999998241E+02 0.  0.
        -12    1    1    2    0    0 -0.65904778114E+01  0.14568588175E+02  0.37382984974E+02  0.40659140729E+02  0.00000000000E+00 0.  1.
         11    1    3    3    0    0 -0.71815827746E+01 -0.81736124675E+01 -0.19114873587E+02  0.21994578068E+02  0.51100000000E-03 0. -1.
        -11    1    3    3    0    0  0.15067783090E+02 -0.99985261610E+01 -0.14796280708E+02  0.23365327639E+02  0.51100000000E-03 0.  1.
        -12    1    3    3    0    0 -0.12957225037E+01  0.36035504531E+01 -0.34718306801E+01  0.51689535639E+01  0.00000000000E+00 0.  1.
</event>
<event>
 7    1  0.4994895E-011  0.5052891E+02  0.7816164E-02  0.1300439E+00
        -11   -1    0    0    0    0  0.00000000000E+00  0.00000000000E+00  0.45593999997E+02  0.45594000000E+02  0.51100000000E-03 0.  1.
         11   -1    0    0    0    0 -0.00000000000E+00 -0.00000000000E+00 -0.45593999997E+02  0.45594000000E+02  0.51100000000E-03 0. -1.
    9900012    2    1    2    0    0 -0.45093804232E+01 -0.15632642145E+02 -0.37261882006E+02  0.50528906763E+02  0.30000142596E+02 0.  0.
        -12    1    1    2    0    0  0.45093804232E+01  0.15632642145E+02  0.37261882006E+02  0.40659093237E+02  0.00000000000E+00 0.  1.
         11    1    3    3    0    0 -0.83644677315E+01 -0.10783818377E+02 -0.26946591299E+02  0.30205526681E+02  0.51100000000E-03 0. -1.
        -11    1    3    3    0    0 -0.37265541864E+01  0.19869606948E+01  0.17040290731E+01  0.45540020037E+01  0.51100000000E-03 0.  1.
         12    1    3    3    0    0  0.75816414947E+01 -0.68357844624E+01 -0.12019319780E+02  0.15769378078E+02  0.00000000000E+00 0. -1.
</event>
<event>
 7    1  0.4994895E-011  0.5052890E+02  0.7816164E-02  0.1300439E+00
        -11   -1    0    0    0    0  0.00000000000E+00  0.00000000000E+00  0.45593999997E+02  0.45594000000E+02  0.51100000000E-03 0. -1.
         11   -1    0    0    0    0 -0.00000000000E+00 -0.00000000000E+00 -0.45593999997E+02  0.45594000000E+02  0.51100000000E-03 0.  1.
    9900012    2    1    2    0    0  0.25380662406E+01  0.40108481760E+02 -0.61668652011E+01  0.50528901193E+02  0.30000125667E+02 0.  0.
        -12    1    1    2    0    0 -0.25380662406E+01 -0.40108481760E+02  0.61668652011E+01  0.40659098807E+02  0.00000000000E+00 0.  1.
         11    1    3    3    0    0  0.10762910596E+02  0.16670553525E+02 -0.10655476672E+02  0.22523027832E+02  0.51100000000E-03 0. -1.
        -11    1    3    3    0    0 -0.29498284023E+01  0.71458759688E+01  0.73225455292E+01  0.10648225404E+02  0.51100000000E-03 0.  1.
         12    1    3    3    0    0 -0.52750159536E+01  0.16292052267E+02 -0.28339340580E+01  0.17357647958E+02  0.00000000000E+00 0. -1.
</event>
<event>
 7    1  0.4994895E-011  0.5052886E+02  0.7816164E-02  0.1300439E+00
        -11   -1    0    0    0    0  0.00000000000E+00  0.00000000000E+00  0.45593999997E+02  0.45594000000E+02  0.51100000000E-03 0. -1.
         11   -1    0    0    0    0 -0.00000000000E+00 -0.00000000000E+00 -0.45593999997E+02  0.45594000000E+02  0.51100000000E-03 0.  1.
    9900012    2    1    2    0    0  0.12414852407E+02  0.14596989806E+02  0.35860356762E+02  0.50528857623E+02  0.29999993232E+02 0.  0.
        -12    1    1    2    0    0 -0.12414852407E+02 -0.14596989806E+02 -0.35860356762E+02  0.40659142377E+02  0.00000000000E+00 0.  1.
         11    1    3    3    0    0  0.46576216294E+01  0.97401080442E+01  0.30144781115E+02  0.32019852790E+02  0.51100000000E-03 0. -1.
        -11    1    3    3    0    0 -0.50977328038E+00 -0.26778835085E+01 -0.32009788192E+01  0.42044255903E+01  0.51100000000E-03 0.  1.
         12    1    3    3    0    0  0.82670040579E+01  0.75347652704E+01  0.89165544662E+01  0.14304579243E+02  0.00000000000E+00 0. -1.
</event>
<event>
 7    1  0.4994895E-011  0.5052887E+02  0.7816164E-02  0.1300439E+00
        -11   -1    0    0    0    0  0.00000000000E+00  0.00000000000E+00  0.45593999997E+02  0.45594000000E+02  0.51100000000E-03 0.  1.
         11   -1    0    0    0    0 -0.00000000000E+00 -0.00000000000E+00 -0.45593999997E+02  0.45594000000E+02  0.51100000000E-03 0. -1.
    9900012    2    1    2    0    0 -0.25173993390E+02 -0.62086196278E+01  0.31319136526E+02  0.50528865557E+02  0.30000017348E+02 0.  0.
        -12    1    1    2    0    0  0.25173993390E+02  0.62086196278E+01 -0.31319136526E+02  0.40659134443E+02  0.00000000000E+00 0.  1.
         11    1    3    3    0    0  0.35334237621E+01 -0.49449190566E+01 -0.94271418591E+00  0.61502860305E+01  0.51100000000E-03 0. -1.
        -11    1    3    3    0    0 -0.16913625179E+02 -0.56971842788E+01  0.19817866611E+02  0.26669766828E+02  0.51100000000E-03 0.  1.
         12    1    3    3    0    0 -0.11793791974E+02  0.44334837076E+01  0.12443984101E+02  0.17708812699E+02  0.00000000000E+00 0. -1.
</event>
<event>
 7    1  0.4994895E-011  0.5052886E+02  0.7816164E-02  0.1300439E+00
        -11   -1    0    0    0    0  0.00000000000E+00  0.00000000000E+00  0.45593999997E+02  0.45594000000E+02  0.51100000000E-03 0.  1.
         11   -1    0    0    0    0 -0.00000000000E+00 -0.00000000000E+00 -0.45593999997E+02  0.45594000000E+02  0.51100000000E-03 0. -1.
    9900012    2    1    2    0    0  0.30081946893E+02  0.84912066866E+01 -0.26002720034E+02  0.50528861186E+02  0.30000004062E+02 0.  0.
        -12    1    1    2    0    0 -0.30081946893E+02 -0.84912066866E+01  0.26002720034E+02  0.40659138814E+02  0.00000000000E+00 0.  1.
         11    1    3    3    0    0  0.27148774314E+01 -0.42908158453E+01 -0.88157440879E+01  0.10173446032E+02  0.51100000000E-03 0. -1.
        -11    1    3    3    0    0  0.27061767851E+02  0.17122141746E+02 -0.16225941196E+02  0.35899696171E+02  0.51100000000E-03 0.  1.
        -12    1    3    3    0    0  0.30530161122E+00 -0.43401192144E+01 -0.96103474988E+00  0.44557189834E+01  0.00000000000E+00 0.  1.
</event>
<event>
 7    1  0.4994895E-011  0.5052886E+02  0.7816164E-02  0.1300439E+00
        -11   -1    0    0    0    0  0.00000000000E+00  0.00000000000E+00  0.45593999997E+02  0.45594000000E+02  0.51100000000E-03 0. -1.
         11   -1    0    0    0    0 -0.00000000000E+00 -0.00000000000E+00 -0.45593999997E+02  0.45594000000E+02  0.51100000000E-03 0.  1.
    9900012    2    1    2    0    0 -0.28447603805E+02  0.25011877061E+00  0.29048870502E+02  0.50528860817E+02  0.30000002939E+02 0.  0.
        -12    1    1    2    0    0  0.28447603805E+02 -0.25011877061E+00 -0.29048870502E+02  0.40659139183E+02  0.00000000000E+00 0.  1.
         11    1    3    3    0    0  0.32864186008E+00 -0.75602929190E+01  0.61617350109E+01  0.97587403439E+01  0.51100000000E-03 0. -1.
        -11    1    3    3    0    0 -0.26781330024E+02  0.10990198007E+02  0.16389699050E+02  0.33266294132E+02  0.51100000000E-03 0.  1.
        -12    1    3    3    0    0 -0.19949156416E+01 -0.31797863178E+01  0.64974364411E+01  0.75038263406E+01  0.00000000000E+00 0.  1.
</event>
<event>
 7    1  0.4994895E-011  0.5052881E+02  0.7816164E-02  0.1300439E+00
        -11   -1    0    0    0    0  0.00000000000E+00  0.00000000000E+00  0.45593999997E+02  0.45594000000E+02  0.51100000000E-03 0.  1.
         11   -1    0    0    0    0 -0.00000000000E+00 -0.00000000000E+00 -0.45593999997E+02  0.45594000000E+02  0.51100000000E-03 0. -1.
    9900012    2    1    2    0    0  0.21925637385E+02  0.21933350612E+00 -0.34240154247E+02  0.50528808606E+02  0.29999844239E+02 0.  0.
        -12    1    1    2    0    0 -0.21925637385E+02 -0.21933350612E+00  0.34240154247E+02  0.40659191394E+02  0.00000000000E+00 0.  1.
         11    1    3    3    0    0  0.79346175860E+01  0.50359125974E+01 -0.22900906153E+02  0.24754193076E+02  0.51100000000E-03 0. -1.
        -11    1    3    3    0    0  0.76892651033E+01 -0.26522722978E+01  0.39900848818E+01  0.90598081545E+01  0.51100000000E-03 0.  1.
        -12    1    3    3    0    0  0.63017546957E+01 -0.21643067935E+01 -0.15329332976E+02  0.16714807376E+02  0.00000000000E+00 0.  1.
</event>
<event>
 7    1  0.4994895E-011  0.5052886E+02  0.7816164E-02  0.1300439E+00
        -11   -1    0    0    0    0  0.00000000000E+00  0.00000000000E+00  0.45593999997E+02  0.45594000000E+02  0.51100000000E-03 0.  1.
         11   -1    0    0    0    0 -0.00000000000E+00 -0.00000000000E+00 -0.45593999997E+02  0.45594000000E+02  0.51100000000E-03 0. -1.
    9900012    2    1    2    0    0  0.33302442069E+02 -0.13363146607E+02 -0.19119085018E+02  0.50528858999E+02  0.29999997413E+02 0.  0.
        -12    1    1    2    0    0 -0.33302442069E+02  0.13363146607E+02  0.19119085018E+02  0.40659141001E+02  0.00000000000E+00 0.  1.
         11    1    3    3    0    0  0.19474497985E+02 -0.67115606805E+01 -0.16994037940E+02  0.26703903166E+02  0.51100000000E-03 0. -1.
        -11    1    3    3    0    0  0.24264478011E+01 -0.98726523466E+01  0.34435042614E+01  0.10733808045E+02  0.51100000000E-03 0.  1.
        -12    1    3    3    0    0  0.11401496283E+02  0.32210664199E+01 -0.55685513393E+01  0.13091147787E+02  0.00000000000E+00 0.  1.
</event>
<event>
 7    1  0.4994895E-011  0.5052886E+02  0.7816164E-02  0.1300439E+00
        -11   -1    0    0    0    0  0.00000000000E+00  0.00000000000E+00  0.45593999997E+02  0.45594000000E+02  0.51100000000E-03 0. -1.
         11   -1    0    0    0    0 -0.00000000000E+00 -0.00000000000E+00 -0.45593999997E+02  0.45594000000E+02  0.51100000000E-03 0.  1.
    9900012    2    1    2    0    0  0.39144553518E+01  0.39980580680E+02  0.62766162750E+01  0.50528859526E+02  0.29999999017E+02 0.  0.
        -12    1    1    2    0    0 -0.39144553518E+01 -0.39980580680E+02 -0.62766162750E+01  0.40659140474E+02  0.00000000000E+00 0.  1.
         11    1    3    3    0    0  0.97113134760E+01  0.17604576556E+02  0.13090853198E+02  0.23991689454E+02  0.51100000000E-03 0. -1.
        -11    1    3    3    0    0 -0.11652118567E+01  0.26274816758E+00 -0.35050732040E+01  0.37030114362E+01  0.51100000000E-03 0.  1.
         12    1    3    3    0    0 -0.46316462675E+01  0.22113255956E+02 -0.33091637186E+01  0.22834158636E+02  0.00000000000E+00 0. -1.
</event>
<event>
 7    1  0.4994895E-011  0.5052888E+02  0.7816164E-02  0.1300439E+00
        -11   -1    0    0    0    0  0.00000000000E+00  0.00000000000E+00  0.45593999997E+02  0.45594000000E+02  0.51100000000E-03 0. -1.
         11   -1    0    0    0    0 -0.00000000000E+00 -0.00000000000E+00 -0.45593999997E+02  0.45594000000E+02  0.51100000000E-03 0.  1.
    9900012    2    1    2    0    0 -0.32437938161E+01 -0.13523680777E+02  0.38206702973E+02  0.50528876889E+02  0.30000051792E+02 0.  0.
        -12    1    1    2    0    0  0.32437938161E+01  0.13523680777E+02 -0.38206702973E+02  0.40659123111E+02  0.00000000000E+00 0.  1.
         11    1    3    3    0    0  0.40658357017E+01 -0.46372895480E+01  0.29657868966E+02  0.30292320251E+02  0.51100000000E-03 0. -1.
        -11    1    3    3    0    0 -0.50652207053E+01 -0.12708616899E+02  0.50266848810E+01  0.14575080289E+02  0.51100000000E-03 0.  1.
        -12    1    3    3    0    0 -0.22444088125E+01  0.38222256699E+01  0.35221491257E+01  0.56614763493E+01  0.00000000000E+00 0.  1.
</event>
<event>
 7    1  0.4994895E-011  0.5052886E+02  0.7816164E-02  0.1300439E+00
        -11   -1    0    0    0    0  0.00000000000E+00  0.00000000000E+00  0.45593999997E+02  0.45594000000E+02  0.51100000000E-03 0.  1.
         11   -1    0    0    0    0 -0.00000000000E+00 -0.00000000000E+00 -0.45593999997E+02  0.45594000000E+02  0.51100000000E-03 0. -1.
    9900012    2    1    2    0    0 -0.30897224961E+02  0.22553537986E+02  0.13779161439E+02  0.50528857413E+02  0.29999992593E+02 0.  0.
        -12    1    1    2    0    0  0.30897224961E+02 -0.22553537986E+02 -0.13779161439E+02  0.40659142587E+02  0.00000000000E+00 0.  1.
         11    1    3    3    0    0 -0.62261814207E+01  0.15612341481E+02  0.13046512978E+02  0.21277265866E+02  0.51100000000E-03 0. -1.
        -11    1    3    3    0    0 -0.22583501834E+02  0.11388602315E+01  0.27143932358E+01  0.22774535969E+02  0.51100000000E-03 0.  1.
        -12    1    3    3    0    0 -0.20875417063E+01  0.58023362734E+01 -0.19817447750E+01  0.64770555779E+01  0.00000000000E+00 0.  1.
</event>
<event>
 7    1  0.4994895E-011  0.5052889E+02  0.7816164E-02  0.1300439E+00
        -11   -1    0    0    0    0  0.00000000000E+00  0.00000000000E+00  0.45593999997E+02  0.45594000000E+02  0.51100000000E-03 0.  1.
         11   -1    0    0    0    0 -0.00000000000E+00 -0.00000000000E+00 -0.45593999997E+02  0.45594000000E+02  0.51100000000E-03 0. -1.
    9900012    2    1    2    0    0 -0.10626953196E+02 -0.29083277071E+02 -0.26351358806E+02  0.50528889701E+02  0.30000090734E+02 0.  0.
        -12    1    1    2    0    0  0.10626953196E+02  0.29083277071E+02  0.26351358806E+02  0.40659110299E+02  0.00000000000E+00 0.  1.
         11    1    3    3    0    0  0.54510842573E+01 -0.22471424269E+02 -0.20290123621E+02  0.30763100381E+02  0.51100000000E-03 0. -1.
        -11    1    3    3    0    0 -0.16088491382E+02 -0.70544124377E+01 -0.44878707020E+01  0.18131334024E+02  0.51100000000E-03 0.  1.
         12    1    3    3    0    0  0.10453928729E-01  0.44255963580E+00 -0.15733644833E+01  0.16344552956E+01  0.00000000000E+00 0. -1.
</event>
<event>
 7    1  0.4994895E-011  0.5052886E+02  0.7816164E-02  0.1300439E+00
        -11   -1    0    0    0    0  0.00000000000E+00  0.00000000000E+00  0.45593999997E+02  0.45594000000E+02  0.51100000000E-03 0.  1.
         11   -1    0    0    0    0 -0.00000000000E+00 -0.00000000000E+00 -0.45593999997E+02  0.45594000000E+02  0.51100000000E-03 0. -1.
    9900012    2    1    2    0    0 -0.98262729361E+01 -0.38913748584E+02  0.65061591569E+01  0.50528861106E+02  0.30000003817E+02 0.  0.
        -12    1    1    2    0    0  0.98262729361E+01  0.38913748584E+02 -0.65061591569E+01  0.40659138894E+02  0.00000000000E+00 0.  1.
         11    1    3    3    0    0 -0.10312925614E+02 -0.25112152922E+02 -0.17516170888E+01  0.27203764846E+02  0.51100000000E-03 0. -1.
        -11    1    3    3    0    0  0.34625069293E+01 -0.12207846929E+02  0.12561554078E+02  0.17855338753E+02  0.51100000000E-03 0.  1.
         12    1    3    3    0    0 -0.29758542515E+01 -0.15937487323E+01 -0.43037778325E+01  0.54697575065E+01  0.00000000000E+00 0. -1.
</event>
<event>
 7    1  0.4994895E-011  0.5052883E+02  0.7816164E-02  0.1300439E+00
        -11   -1    0    0    0    0  0.00000000000E+00  0.00000000000E+00  0.45593999997E+02  0.45594000000E+02  0.51100000000E-03 0.  1.
         11   -1    0    0    0    0 -0.00000000000E+00 -0.00000000000E+00 -0.45593999997E+02  0.45594000000E+02  0.51100000000E-03 0. -1.
    9900012    2    1    2    0    0  0.28608934785E+02 -0.27760974190E+02  0.80015621668E+01  0.50528833326E+02  0.29999919378E+02 0.  0.
        -12    1    1    2    0    0 -0.28608934785E+02  0.27760974190E+02 -0.80015621668E+01  0.40659166674E+02  0.00000000000E+00 0.  1.
         11    1    3    3    0    0  0.74574575570E+01 -0.14130351998E+02  0.10273355583E+02  0.18995324582E+02  0.51100000000E-03 0. -1.
        -11    1    3    3    0    0  0.23594395790E+02 -0.13608461864E+02 -0.51900535383E+01  0.27727646907E+02  0.51100000000E-03 0.  1.
        -12    1    3    3    0    0 -0.24429185621E+01 -0.22160328530E-01  0.29182601222E+01  0.38058618370E+01  0.00000000000E+00 0.  1.
</event>
<event>
 7    1  0.4994895E-011  0.5052886E+02  0.7816164E-02  0.1300439E+00
        -11   -1    0    0    0    0  0.00000000000E+00  0.00000000000E+00  0.45593999997E+02  0.45594000000E+02  0.51100000000E-03 0. -1.
         11   -1    0    0    0    0 -0.00000000000E+00 -0.00000000000E+00 -0.45593999997E+02  0.45594000000E+02  0.51100000000E-03 0.  1.
    9900012    2    1    2    0    0 -0.36363249750E+01  0.14549891022E+02  0.37792108653E+02  0.50528860012E+02  0.30000000494E+02 0.  0.
        -12    1    1    2    0    0  0.36363249750E+01 -0.14549891022E+02 -0.37792108653E+02  0.40659139988E+02  0.00000000000E+00 0.  1.
         11    1    3    3    0    0 -0.97522337229E+01  0.17215446819E+02  0.19746368682E+02  0.27953474707E+02  0.51100000000E-03 0. -1.
        -11    1    3    3    0    0  0.23837631794E+01 -0.67487550794E+01  0.60737858260E+01  0.93871665874E+01  0.51100000000E-03 0.  1.
         12    1    3    3    0    0  0.37321455685E+01  0.40831992828E+01  0.11971954145E+02  0.13188218718E+02  0.00000000000E+00 0. -1.
</event>
<event>
 7    1  0.4994895E-011  0.5052886E+02  0.7816164E-02  0.1300439E+00
        -11   -1    0    0    0    0  0.00000000000E+00  0.00000000000E+00  0.45593999997E+02  0.45594000000E+02  0.51100000000E-03 0.  1.
         11   -1    0    0    0    0 -0.00000000000E+00 -0.00000000000E+00 -0.45593999997E+02  0.45594000000E+02  0.51100000000E-03 0. -1.
    9900012    2    1    2    0    0  0.36441379790E+02  0.15316455876E+02  0.95182755695E+01  0.50528861403E+02  0.30000004721E+02 0.  0.
        -12    1    1    2    0    0 -0.36441379790E+02 -0.15316455876E+02 -0.95182755695E+01  0.40659138597E+02  0.00000000000E+00 0.  1.
         11    1    3    3    0    0  0.18331973861E+02  0.15966351885E+02 -0.54793387359E+01  0.24920048383E+02  0.51100000000E-03 0. -1.
        -11    1    3    3    0    0  0.83854182394E+01 -0.35708642424E+01  0.23920265299E+01  0.94227438503E+01  0.51100000000E-03 0.  1.
         12    1    3    3    0    0  0.97239876898E+01  0.29209682335E+01  0.12605587776E+02  0.16186069170E+02  0.00000000000E+00 0. -1.
</event>
<event>
 7    1  0.4994895E-011  0.5052887E+02  0.7816164E-02  0.1300439E+00
        -11   -1    0    0    0    0  0.00000000000E+00  0.00000000000E+00  0.45593999997E+02  0.45594000000E+02  0.51100000000E-03 0.  1.
         11   -1    0    0    0    0 -0.00000000000E+00 -0.00000000000E+00 -0.45593999997E+02  0.45594000000E+02  0.51100000000E-03 0. -1.
    9900012    2    1    2    0    0 -0.65357918779E+01  0.31155222877E+02 -0.25294269970E+02  0.50528873333E+02  0.30000040983E+02 0.  0.
        -12    1    1    2    0    0  0.65357918779E+01 -0.31155222877E+02  0.25294269970E+02  0.40659126667E+02  0.00000000000E+00 0.  1.
         11    1    3    3    0    0 -0.59352539958E+01  0.26120513072E+02 -0.30383635449E+02  0.40505231100E+02  0.51100000000E-03 0. -1.
        -11    1    3    3    0    0  0.10789995921E+01  0.55088303893E+01  0.58609100939E+01  0.81155233823E+01  0.51100000000E-03 0.  1.
         12    1    3    3    0    0 -0.16795374743E+01 -0.47412058396E+00 -0.77154461494E+00  0.19081188507E+01  0.00000000000E+00 0. -1.
</event>
<event>
 7    1  0.4994895E-011  0.5052883E+02  0.7816164E-02  0.1300439E+00
        -11   -1    0    0    0    0  0.00000000000E+00  0.00000000000E+00  0.45593999997E+02  0.45594000000E+02  0.51100000000E-03 0.  1.
         11   -1    0    0    0    0 -0.00000000000E+00 -0.00000000000E+00 -0.45593999997E+02  0.45594000000E+02  0.51100000000E-03 0. -1.
    9900012    2    1    2    0    0 -0.10010277738E+02  0.37144560905E+02 -0.13162205682E+02  0.50528834691E+02  0.29999923528E+02 0.  0.
        -12    1    1    2    0    0  0.10010277738E+02 -0.37144560905E+02  0.13162205682E+02  0.40659165309E+02  0.00000000000E+00 0.  1.
         11    1    3    3    0    0 -0.66809179750E+01  0.26046930421E+02 -0.13873627734E+02  0.30258136031E+02  0.51100000000E-03 0. -1.
        -11    1    3    3    0    0  0.25540434876E+01 -0.15157630133E+01 -0.45145388907E+01  0.54038631834E+01  0.51100000000E-03 0.  1.
        -12    1    3    3    0    0 -0.58834032502E+01  0.12613393497E+02  0.52259609422E+01  0.14866835477E+02  0.00000000000E+00 0.  1.
</event>
<event>
 7    1  0.4994895E-011  0.5052886E+02  0.7816164E-02  0.1300439E+00
        -11   -1    0    0    0    0  0.00000000000E+00  0.00000000000E+00  0.45593999997E+02  0.45594000000E+02  0.51100000000E-03 0.  1.
         11   -1    0    0    0    0 -0.00000000000E+00 -0.00000000000E+00 -0.45593999997E+02  0.45594000000E+02  0.51100000000E-03 0. -1.
    9900012    2    1    2    0    0  0.27246430050E+02  0.10329051288E+02 -0.28356808488E+02  0.50528857871E+02  0.29999993986E+02 0.  0.
        -12    1    1    2    0    0 -0.27246430050E+02 -0.10329051288E+02  0.28356808488E+02  0.40659142129E+02  0.00000000000E+00 0.  1.
         11    1    3    3    0    0  0.89588002204E+01  0.35184150136E+01 -0.15850908292E+01  0.97545814259E+01  0.51100000000E-03 0. -1.
        -11    1    3    3    0    0  0.14233209220E+02  0.12749509863E+02 -0.27564260829E+02  0.33539867647E+02  0.51100000000E-03 0.  1.
        -12    1    3    3    0    0  0.40544206097E+01 -0.59388735889E+01  0.79254317036E+00  0.72344087984E+01  0.00000000000E+00 0.  1.
</event>
<event>
 7    1  0.4994895E-011  0.5052886E+02  0.7816164E-02  0.1300439E+00
        -11   -1    0    0    0    0  0.00000000000E+00  0.00000000000E+00  0.45593999997E+02  0.45594000000E+02  0.51100000000E-03 0. -1.
         11   -1    0    0    0    0 -0.00000000000E+00 -0.00000000000E+00 -0.45593999997E+02  0.45594000000E+02  0.51100000000E-03 0.  1.
    9900012    2    1    2    0    0  0.26403993646E+02 -0.29371434379E+02  0.96598849701E+01  0.50528863074E+02  0.30000009799E+02 0.  0.
        -12    1    1    2    0    0 -0.26403993646E+02  0.29371434379E+02 -0.96598849701E+01  0.40659136926E+02  0.00000000000E+00 0.  1.
         11    1    3    3    0    0  0.21739439558E+01 -0.12922665246E+02  0.10312423809E+02  0.16675352904E+02  0.51100000000E-03 0. -1.
        -11    1    3    3    0    0 -0.85483222345E+00 -0.27409424825E+01 -0.41585009855E+01  0.50533785263E+01  0.51100000000E-03 0.  1.
         12    1    3    3    0    0  0.25084881914E+02 -0.13707826651E+02  0.35059621466E+01  0.28800131643E+02  0.00000000000E+00 0. -1.
</event>
<event>
 7    1  0.4994895E-011  0.5052886E+02  0.7816164E-02  0.1300439E+00
        -11   -1    0    0    0    0  0.00000000000E+00  0.00000000000E+00  0.45593999997E+02  0.45594000000E+02  0.51100000000E-03 0.  1.
         11   -1    0    0    0    0 -0.00000000000E+00 -0.00000000000E+00 -0.45593999997E+02  0.45594000000E+02  0.51100000000E-03 0. -1.
    9900012    2    1    2    0    0 -0.31227212811E+02 -0.21759209190E+02 -0.14302576381E+02  0.50528859630E+02  0.29999999331E+02 0.  0.
        -12    1    1    2    0    0  0.31227212811E+02  0.21759209190E+02  0.14302576381E+02  0.40659140370E+02  0.00000000000E+00 0.  1.
         11    1    3    3    0    0 -0.22274001359E+02 -0.38302015768E+01 -0.12222847967E+02  0.25694349444E+02  0.51100000000E-03 0. -1.
        -11    1    3    3    0    0  0.31235028321E+01 -0.87763338655E+01 -0.26026064722E+01  0.96723247863E+01  0.51100000000E-03 0.  1.
        -12    1    3    3    0    0 -0.12076714284E+02 -0.91526737475E+01  0.52287805813E+00  0.15162185399E+02  0.00000000000E+00 0.  1.
</event>
<event>
 7    1  0.4994895E-011  0.5052886E+02  0.7816164E-02  0.1300439E+00
        -11   -1    0    0    0    0  0.00000000000E+00  0.00000000000E+00  0.45593999997E+02  0.45594000000E+02  0.51100000000E-03 0.  1.
         11   -1    0    0    0    0 -0.00000000000E+00 -0.00000000000E+00 -0.45593999997E+02  0.45594000000E+02  0.51100000000E-03 0. -1.
    9900012    2    1    2    0    0 -0.13813962956E+02  0.36385226803E+02 -0.11766712125E+02  0.50528858146E+02  0.29999994822E+02 0.  0.
        -12    1    1    2    0    0  0.13813962956E+02 -0.36385226803E+02  0.11766712125E+02  0.40659141854E+02  0.00000000000E+00 0.  1.
         11    1    3    3    0    0  0.55855014123E+01  0.12801465432E+02  0.19981556756E+01  0.14109144893E+02  0.51100000000E-03 0. -1.
        -11    1    3    3    0    0 -0.61038590028E+01 -0.33616310940E+00 -0.42533841790E+01  0.74472395958E+01  0.51100000000E-03 0.  1.
         12    1    3    3    0    0 -0.13295605366E+02  0.23919924480E+02 -0.95114836215E+01  0.28972473658E+02  0.00000000000E+00 0. -1.
</event>
<event>
 7    1  0.4994895E-011  0.5052883E+02  0.7816164E-02  0.1300439E+00
        -11   -1    0    0    0    0  0.00000000000E+00  0.00000000000E+00  0.45593999997E+02  0.45594000000E+02  0.51100000000E-03 0.  1.
         11   -1    0    0    0    0 -0.00000000000E+00 -0.00000000000E+00 -0.45593999997E+02  0.45594000000E+02  0.51100000000E-03 0. -1.
    9900012    2    1    2    0    0 -0.14187531717E+02 -0.18631792068E+02 -0.33237606624E+02  0.50528828513E+02  0.29999904749E+02 0.  0.
        -12    1    1    2    0    0  0.14187531717E+02  0.18631792068E+02  0.33237606624E+02  0.40659171487E+02  0.00000000000E+00 0.  1.
         11    1    3    3    0    0 -0.17273305050E+02 -0.21377345036E+02 -0.22174019190E+02  0.35313525390E+02  0.51100000000E-03 0. -1.
        -11    1    3    3    0    0  0.43849709610E+00  0.13737590736E+01  0.16299527574E+01  0.21762904099E+01  0.51100000000E-03 0.  1.
         12    1    3    3    0    0  0.26472762369E+01  0.13717938949E+01 -0.12693540191E+02  0.13039012714E+02  0.00000000000E+00 0. -1.
</event>
<event>
 7    1  0.4994895E-011  0.5052886E+02  0.7816164E-02  0.1300439E+00
        -11   -1    0    0    0    0  0.00000000000E+00  0.00000000000E+00  0.45593999997E+02  0.45594000000E+02  0.51100000000E-03 0. -1.
         11   -1    0    0    0    0 -0.00000000000E+00 -0.00000000000E+00 -0.45593999997E+02  0.45594000000E+02  0.51100000000E-03 0.  1.
    9900012    2    1    2    0    0  0.35349785620E+02  0.92300778399E+01  0.17842762308E+02  0.50528857767E+02  0.29999993670E+02 0.  0.
        -12    1    1    2    0    0 -0.35349785620E+02 -0.92300778399E+01 -0.17842762308E+02  0.40659142233E+02  0.00000000000E+00 0.  1.
         11    1    3    3    0    0  0.42234921349E+01  0.16194659511E+01  0.15595944508E+02  0.16238658846E+02  0.51100000000E-03 0. -1.
        -11    1    3    3    0    0  0.13183249029E+02 -0.16066623890E+01 -0.26260961459E+01  0.13537939290E+02  0.51100000000E-03 0.  1.
        -12    1    3    3    0    0  0.17943044456E+02  0.92172742778E+01  0.48729139467E+01  0.20752259631E+02  0.00000000000E+00 0.  1.
</event>
<event>
 7    1  0.4994895E-011  0.5052886E+02  0.7816164E-02  0.1300439E+00
        -11   -1    0    0    0    0  0.00000000000E+00  0.00000000000E+00  0.45593999997E+02  0.45594000000E+02  0.51100000000E-03 0. -1.
         11   -1    0    0    0    0 -0.00000000000E+00 -0.00000000000E+00 -0.45593999997E+02  0.45594000000E+02  0.51100000000E-03 0.  1.
    9900012    2    1    2    0    0  0.21366407325E+02  0.27349152358E+02  0.21181747999E+02  0.50528856564E+02  0.29999990012E+02 0.  0.
        -12    1    1    2    0    0 -0.21366407325E+02 -0.27349152358E+02 -0.21181747999E+02  0.40659143436E+02  0.00000000000E+00 0.  1.
         11    1    3    3    0    0  0.15269715681E+02  0.14372549377E+02  0.66516816605E+01  0.21999528671E+02  0.51100000000E-03 0. -1.
        -11    1    3    3    0    0 -0.11291346564E+01 -0.45266735670E+01  0.64041595538E+01  0.79233186548E+01  0.51100000000E-03 0.  1.
        -12    1    3    3    0    0  0.72258262995E+01  0.17503276548E+02  0.81259067846E+01  0.20606009238E+02  0.00000000000E+00 0.  1.
</event>
<event>
 7    1  0.4994895E-011  0.5052886E+02  0.7816164E-02  0.1300439E+00
        -11   -1    0    0    0    0  0.00000000000E+00  0.00000000000E+00  0.45593999997E+02  0.45594000000E+02  0.51100000000E-03 0.  1.
         11   -1    0    0    0    0 -0.00000000000E+00 -0.00000000000E+00 -0.45593999997E+02  0.45594000000E+02  0.51100000000E-03 0. -1.
    9900012    2    1    2    0    0 -0.12952339825E+02 -0.13278463846E+02 -0.36181275509E+02  0.50528863186E+02  0.30000010140E+02 0.  0.
        -12    1    1    2    0    0  0.12952339825E+02  0.13278463846E+02  0.36181275509E+02  0.40659136814E+02  0.00000000000E+00 0.  1.
         11    1    3    3    0    0 -0.93728859177E+01 -0.87030632189E+01 -0.38879251972E+02  0.40929091536E+02  0.51100000000E-03 0. -1.
        -11    1    3    3    0    0 -0.15972083114E+01  0.73619842670E+00 -0.16835048562E+01  0.24345947045E+01  0.51100000000E-03 0.  1.
         12    1    3    3    0    0 -0.19822455957E+01 -0.53115990534E+01  0.43814813194E+01  0.71651769453E+01  0.00000000000E+00 0. -1.
</event>
<event>
 7    1  0.4994895E-011  0.5052887E+02  0.7816164E-02  0.1300439E+00
        -11   -1    0    0    0    0  0.00000000000E+00  0.00000000000E+00  0.45593999997E+02  0.45594000000E+02  0.51100000000E-03 0.  1.
         11   -1    0    0    0    0 -0.00000000000E+00 -0.00000000000E+00 -0.45593999997E+02  0.45594000000E+02  0.51100000000E-03 0. -1.
    9900012    2    1    2    0    0 -0.26419909155E+02 -0.12428183147E+02 -0.28296534595E+02  0.50528865649E+02  0.30000017628E+02 0.  0.
        -12    1    1    2    0    0  0.26419909155E+02  0.12428183147E+02  0.28296534595E+02  0.40659134351E+02  0.00000000000E+00 0.  1.
         11    1    3    3    0    0 -0.99863453708E+01  0.94298396092E+00 -0.23663069315E+02  0.25701306626E+02  0.51100000000E-03 0. -1.
        -11    1    3    3    0    0 -0.54831640279E+01 -0.69620199619E+01  0.37470402211E+01  0.96215965612E+01  0.51100000000E-03 0.  1.
        -12    1    3    3    0    0 -0.10950399756E+02 -0.64091471460E+01 -0.83805055009E+01  0.15205962462E+02  0.00000000000E+00 0.  1.
</event>
<event>
 7    1  0.4994895E-011  0.5052886E+02  0.7816164E-02  0.1300439E+00
        -11   -1    0    0    0    0  0.00000000000E+00  0.00000000000E+00  0.45593999997E+02  0.45594000000E+02  0.51100000000E-03 0.  1.
         11   -1    0    0    0    0 -0.00000000000E+00 -0.00000000000E+00 -0.45593999997E+02  0.45594000000E+02  0.51100000000E-03 0. -1.
    9900012    2    1    2    0    0  0.90576226649E+01 -0.10049053174E+02 -0.38342425256E+02  0.50528861143E+02  0.30000003931E+02 0.  0.
        -12    1    1    2    0    0 -0.90576226649E+01  0.10049053174E+02  0.38342425256E+02  0.40659138857E+02  0.00000000000E+00 0.  1.
         11    1    3    3    0    0  0.78559533724E+01 -0.67505310475E+01 -0.22584511230E+02  0.24846444827E+02  0.51100000000E-03 0. -1.
        -11    1    3    3    0    0 -0.80127138171E+01 -0.65359593244E+01 -0.97730792303E+01  0.14227980352E+02  0.51100000000E-03 0.  1.
        -12    1    3    3    0    0  0.92143831095E+01  0.32374371980E+01 -0.59848347963E+01  0.11454435963E+02  0.00000000000E+00 0.  1.
</event>
<event>
 7    1  0.4994895E-011  0.5052883E+02  0.7816164E-02  0.1300439E+00
        -11   -1    0    0    0    0  0.00000000000E+00  0.00000000000E+00  0.45593999997E+02  0.45594000000E+02  0.51100000000E-03 0. -1.
         11   -1    0    0    0    0 -0.00000000000E+00 -0.00000000000E+00 -0.45593999997E+02  0.45594000000E+02  0.51100000000E-03 0.  1.
    9900012    2    1    2    0    0  0.15271001657E+02 -0.26105952717E+02  0.27174323968E+02  0.50528829546E+02  0.29999907888E+02 0.  0.
        -12    1    1    2    0    0 -0.15271001657E+02  0.26105952717E+02 -0.27174323968E+02  0.40659170454E+02  0.00000000000E+00 0.  1.
         11    1    3    3    0    0 -0.17133601689E+01 -0.24786532964E+00  0.11183183398E+01  0.20609891946E+01  0.51100000000E-03 0. -1.
        -11    1    3    3    0    0  0.71329494335E+01 -0.22454971644E+02  0.37637608310E+01  0.23859392595E+02  0.51100000000E-03 0.  1.
        -12    1    3    3    0    0  0.98514123923E+01 -0.34031157439E+01  0.22292244797E+02  0.24608447756E+02  0.00000000000E+00 0.  1.
</event>
<event>
 7    1  0.4994895E-011  0.5052887E+02  0.7816164E-02  0.1300439E+00
        -11   -1    0    0    0    0  0.00000000000E+00  0.00000000000E+00  0.45593999997E+02  0.45594000000E+02  0.51100000000E-03 0.  1.
         11   -1    0    0    0    0 -0.00000000000E+00 -0.00000000000E+00 -0.45593999997E+02  0.45594000000E+02  0.51100000000E-03 0. -1.
    9900012    2    1    2    0    0 -0.38528419189E+02 -0.12960351366E+02  0.86897476102E+00  0.50528869293E+02  0.30000028702E+02 0.  0.
        -12    1    1    2    0    0  0.38528419189E+02  0.12960351366E+02 -0.86897476102E+00  0.40659130707E+02  0.00000000000E+00 0.  1.
         11    1    3    3    0    0  0.12054123634E+01  0.41549597617E+00 -0.50653411907E+00  0.13719449504E+01  0.51100000000E-03 0. -1.
        -11    1    3    3    0    0 -0.29302519146E+02 -0.18138092665E+02 -0.67319452369E+01  0.35113346761E+02  0.51100000000E-03 0.  1.
        -12    1    3    3    0    0 -0.10431312407E+02  0.47622453221E+01  0.81074541170E+01  0.14043577582E+02  0.00000000000E+00 0.  1.
</event>
<event>
 7    1  0.4994895E-011  0.5052886E+02  0.7816164E-02  0.1300439E+00
        -11   -1    0    0    0    0  0.00000000000E+00  0.00000000000E+00  0.45593999997E+02  0.45594000000E+02  0.51100000000E-03 0.  1.
         11   -1    0    0    0    0 -0.00000000000E+00 -0.00000000000E+00 -0.45593999997E+02  0.45594000000E+02  0.51100000000E-03 0. -1.
    9900012    2    1    2    0    0  0.15709166121E+02  0.97634157938E+01 -0.36208608533E+02  0.50528861789E+02  0.30000005895E+02 0.  0.
        -12    1    1    2    0    0 -0.15709166121E+02 -0.97634157938E+01  0.36208608533E+02  0.40659138211E+02  0.00000000000E+00 0.  1.
         11    1    3    3    0    0 -0.30656285444E+01 -0.73078149289E+01 -0.37289419990E+01  0.87582673001E+01  0.51100000000E-03 0.  1.
        -11    1    3    3    0    0  0.67067811994E+01  0.70756243224E+01 -0.75742842429E+01  0.12345653310E+02  0.51100000000E-03 0. -1.
         12    1    3    3    0    0  0.12068013466E+02  0.99956064004E+01 -0.24905382291E+02  0.29424941179E+02  0.00000000000E+00 0. -1.
</event>
<event>
 7    1  0.6903434E-011  0.5052886E+02  0.7816164E-02  0.1300439E+00
        -11   -1    0    0    0    0  0.00000000000E+00  0.00000000000E+00  0.45593999997E+02  0.45594000000E+02  0.51100000000E-03 0. -1.
         11   -1    0    0    0    0 -0.00000000000E+00 -0.00000000000E+00 -0.45593999997E+02  0.45594000000E+02  0.51100000000E-03 0.  1.
    9900012    2    1    2    0    0 -0.14123345573E+02  0.38127205813E+02  0.11349127056E+00  0.50528860885E+02  0.30000003146E+02 0.  0.
        -12    1    1    2    0    0  0.14123345573E+02 -0.38127205813E+02 -0.11349127056E+00  0.40659139115E+02  0.00000000000E+00 0.  1.
         11    1    3    3    0    0 -0.15194112930E+02  0.19275020556E+02  0.76990092843E+00  0.24555655823E+02  0.51100000000E-03 0. -1.
        -11    1    3    3    0    0  0.17134503478E+01 -0.30327701992E+01  0.18357075482E+01  0.39374394775E+01  0.51100000000E-03 0.  1.
        -12    1    3    3    0    0 -0.64268299015E+00  0.21884955456E+02 -0.24921172061E+01  0.22035765585E+02  0.00000000000E+00 0.  1.
</event>
<event>
 7    1  0.4994895E-011  0.5052884E+02  0.7816164E-02  0.1300439E+00
        -11   -1    0    0    0    0  0.00000000000E+00  0.00000000000E+00  0.45593999997E+02  0.45594000000E+02  0.51100000000E-03 0. -1.
         11   -1    0    0    0    0 -0.00000000000E+00 -0.00000000000E+00 -0.45593999997E+02  0.45594000000E+02  0.51100000000E-03 0.  1.
    9900012    2    1    2    0    0  0.14107913104E+02 -0.30251764159E+02  0.23215612058E+02  0.50528842481E+02  0.29999947206E+02 0.  0.
        -12    1    1    2    0    0 -0.14107913104E+02  0.30251764159E+02 -0.23215612058E+02  0.40659157519E+02  0.00000000000E+00 0.  1.
         11    1    3    3    0    0  0.56593481006E+01 -0.16700580023E+02  0.18237903571E+02  0.25368459176E+02  0.51100000000E-03 0. -1.
        -11    1    3    3    0    0  0.72550180130E+01 -0.31698401475E+01 -0.60528676458E+01  0.99659610640E+01  0.51100000000E-03 0.  1.
        -12    1    3    3    0    0  0.11935469906E+01 -0.10381343988E+02  0.11030576133E+02  0.15194422242E+02  0.00000000000E+00 0.  1.
</event>
<event>
 7    1  0.4994895E-011  0.5052886E+02  0.7816164E-02  0.1300439E+00
        -11   -1    0    0    0    0  0.00000000000E+00  0.00000000000E+00  0.45593999997E+02  0.45594000000E+02  0.51100000000E-03 0.  1.
         11   -1    0    0    0    0 -0.00000000000E+00 -0.00000000000E+00 -0.45593999997E+02  0.45594000000E+02  0.51100000000E-03 0. -1.
    9900012    2    1    2    0    0  0.13795329171E+02  0.22830674029E+02 -0.30685743740E+02  0.50528860161E+02  0.30000000946E+02 0.  0.
        -12    1    1    2    0    0 -0.13795329171E+02 -0.22830674029E+02  0.30685743740E+02  0.40659139839E+02  0.00000000000E+00 0.  1.
         11    1    3    3    0    0  0.99008801416E+00  0.89886882305E+01  0.16967421912E+01  0.92008545639E+01  0.51100000000E-03 0. -1.
        -11    1    3    3    0    0  0.85792940664E+01 -0.23833114202E+01 -0.11713279275E+02  0.14713441869E+02  0.51100000000E-03 0.  1.
         12    1    3    3    0    0  0.42259470901E+01  0.16225297219E+02 -0.20669206657E+02  0.26614563728E+02  0.00000000000E+00 0. -1.
</event>
<event>
 7    1  0.4994895E-011  0.5052886E+02  0.7816164E-02  0.1300439E+00
        -11   -1    0    0    0    0  0.00000000000E+00  0.00000000000E+00  0.45593999997E+02  0.45594000000E+02  0.51100000000E-03 0.  1.
         11   -1    0    0    0    0 -0.00000000000E+00 -0.00000000000E+00 -0.45593999997E+02  0.45594000000E+02  0.51100000000E-03 0. -1.
    9900012    2    1    2    0    0 -0.37731540996E+02  0.15106402058E+02  0.11370430557E+01  0.50528862823E+02  0.30000009036E+02 0.  0.
        -12    1    1    2    0    0  0.37731540996E+02 -0.15106402058E+02 -0.11370430557E+01  0.40659137177E+02  0.00000000000E+00 0.  1.
         11    1    3    3    0    0 -0.96107949999E+01 -0.52319448696E+01  0.31951114680E+01  0.11399533552E+02  0.51100000000E-03 0.  1.
        -11    1    3    3    0    0 -0.18926847991E+02  0.22686502102E+02 -0.23276167294E+01  0.29636476720E+02  0.51100000000E-03 0. -1.
         12    1    3    3    0    0 -0.91938980052E+01 -0.23481551740E+01  0.26954831712E+00  0.94928525506E+01  0.00000000000E+00 0. -1.
</event>
<event>
 7    1  0.4994895E-011  0.5052886E+02  0.7816164E-02  0.1300439E+00
        -11   -1    0    0    0    0  0.00000000000E+00  0.00000000000E+00  0.45593999997E+02  0.45594000000E+02  0.51100000000E-03 0.  1.
         11   -1    0    0    0    0 -0.00000000000E+00 -0.00000000000E+00 -0.45593999997E+02  0.45594000000E+02  0.51100000000E-03 0. -1.
    9900012    2    1    2    0    0 -0.63256976783E+01 -0.31446673391E+02 -0.24985150647E+02  0.50528862388E+02  0.30000007714E+02 0.  0.
        -12    1    1    2    0    0  0.63256976783E+01  0.31446673391E+02  0.24985150647E+02  0.40659137612E+02  0.00000000000E+00 0.  1.
         11    1    3    3    0    0 -0.70499015901E+01 -0.22129423296E+02 -0.46596245511E+01  0.23688068496E+02  0.51100000000E-03 0. -1.
        -11    1    3    3    0    0  0.27712605064E+01 -0.12363187868E+02 -0.19197260558E+02  0.23001371965E+02  0.51100000000E-03 0.  1.
        -12    1    3    3    0    0 -0.20470565945E+01  0.30459377725E+01 -0.11282655374E+01  0.38394219276E+01  0.00000000000E+00 0.  1.
</event>
<event>
 7    1  0.4994895E-011  0.5052886E+02  0.7816164E-02  0.1300439E+00
        -11   -1    0    0    0    0  0.00000000000E+00  0.00000000000E+00  0.45593999997E+02  0.45594000000E+02  0.51100000000E-03 0. -1.
         11   -1    0    0    0    0 -0.00000000000E+00 -0.00000000000E+00 -0.45593999997E+02  0.45594000000E+02  0.51100000000E-03 0.  1.
    9900012    2    1    2    0    0 -0.11491819387E+02 -0.42091851927E+01  0.38773524137E+02  0.50528864166E+02  0.30000013118E+02 0.  0.
        -12    1    1    2    0    0  0.11491819387E+02  0.42091851927E+01 -0.38773524137E+02  0.40659135834E+02  0.00000000000E+00 0.  1.
         11    1    3    3    0    0 -0.17356516108E+02 -0.67316744212E+00  0.20412410208E+02  0.26802393486E+02  0.51100000000E-03 0. -1.
        -11    1    3    3    0    0  0.53904766566E+01 -0.28045677737E+00  0.34103102190E+00  0.54085300229E+01  0.51100000000E-03 0.  1.
         12    1    3    3    0    0  0.47422006464E+00 -0.32555609732E+01  0.18020082907E+02  0.18317940657E+02  0.00000000000E+00 0. -1.
</event>
<event>
 7    1  0.4994895E-011  0.5052887E+02  0.7816164E-02  0.1300439E+00
        -11   -1    0    0    0    0  0.00000000000E+00  0.00000000000E+00  0.45593999997E+02  0.45594000000E+02  0.51100000000E-03 0.  1.
         11   -1    0    0    0    0 -0.00000000000E+00 -0.00000000000E+00 -0.45593999997E+02  0.45594000000E+02  0.51100000000E-03 0. -1.
    9900012    2    1    2    0    0  0.12034206347E+02  0.11653975561E+02 -0.37047640111E+02  0.50528869334E+02  0.30000028826E+02 0.  0.
        -12    1    1    2    0    0 -0.12034206347E+02 -0.11653975561E+02  0.37047640111E+02  0.40659130666E+02  0.00000000000E+00 0.  1.
         11    1    3    3    0    0  0.14892091490E+02 -0.25690478982E+01 -0.11141937562E+02  0.18775440579E+02  0.51100000000E-03 0. -1.
        -11    1    3    3    0    0  0.30974991854E+01  0.11289356652E+02 -0.17180671745E+02  0.20789890733E+02  0.51100000000E-03 0.  1.
         12    1    3    3    0    0 -0.59553843276E+01  0.29336668070E+01 -0.87250308038E+01  0.10963538022E+02  0.00000000000E+00 0. -1.
</event>
<event>
 7    1  0.4994895E-011  0.5052885E+02  0.7816164E-02  0.1300439E+00
        -11   -1    0    0    0    0  0.00000000000E+00  0.00000000000E+00  0.45593999997E+02  0.45594000000E+02  0.51100000000E-03 0. -1.
         11   -1    0    0    0    0 -0.00000000000E+00 -0.00000000000E+00 -0.45593999997E+02  0.45594000000E+02  0.51100000000E-03 0.  1.
    9900012    2    1    2    0    0 -0.10320148674E+02 -0.38918174040E+02  0.56600729165E+01  0.50528853862E+02  0.29999981799E+02 0.  0.
        -12    1    1    2    0    0  0.10320148674E+02  0.38918174040E+02 -0.56600729165E+01  0.40659146138E+02  0.00000000000E+00 0.  1.
         11    1    3    3    0    0 -0.10278185136E+02 -0.24565638054E+02 -0.74267065916E+00  0.26639504925E+02  0.51100000000E-03 0. -1.
        -11    1    3    3    0    0 -0.33980656338E+01 -0.10063751737E+02  0.12036929141E+02  0.16053461075E+02  0.51100000000E-03 0.  1.
        -12    1    3    3    0    0  0.33561020957E+01 -0.42887842494E+01 -0.56341855653E+01  0.78358878628E+01  0.00000000000E+00 0.  1.
</event>
<event>
 7    1  0.4994895E-011  0.5052888E+02  0.7816164E-02  0.1300439E+00
        -11   -1    0    0    0    0  0.00000000000E+00  0.00000000000E+00  0.45593999997E+02  0.45594000000E+02  0.51100000000E-03 0.  1.
         11   -1    0    0    0    0 -0.00000000000E+00 -0.00000000000E+00 -0.45593999997E+02  0.45594000000E+02  0.51100000000E-03 0. -1.
    9900012    2    1    2    0    0  0.13078413554E+02 -0.31673027043E+02 -0.21884664967E+02  0.50528879205E+02  0.30000058830E+02 0.  0.
        -12    1    1    2    0    0 -0.13078413554E+02  0.31673027043E+02  0.21884664967E+02  0.40659120795E+02  0.00000000000E+00 0.  1.
         11    1    3    3    0    0  0.75267582456E+01 -0.19934046595E+02 -0.84699872325E+01  0.22929434954E+02  0.51100000000E-03 0. -1.
        -11    1    3    3    0    0 -0.82175185149E+00 -0.28878543643E+01 -0.16091128758E+02  0.16368854691E+02  0.51100000000E-03 0.  1.
        -12    1    3    3    0    0  0.63734071601E+01 -0.88511260838E+01  0.26764510234E+01  0.11230589560E+02  0.00000000000E+00 0.  1.
</event>
<event>
 7    1  0.4994895E-011  0.5052884E+02  0.7816164E-02  0.1300439E+00
        -11   -1    0    0    0    0  0.00000000000E+00  0.00000000000E+00  0.45593999997E+02  0.45594000000E+02  0.51100000000E-03 0.  1.
         11   -1    0    0    0    0 -0.00000000000E+00 -0.00000000000E+00 -0.45593999997E+02  0.45594000000E+02  0.51100000000E-03 0. -1.
    9900012    2    1    2    0    0  0.16669677486E+02  0.13638854725E+02 -0.34485810918E+02  0.50528835469E+02  0.29999925891E+02 0.  0.
        -12    1    1    2    0    0 -0.16669677486E+02 -0.13638854725E+02  0.34485810918E+02  0.40659164531E+02  0.00000000000E+00 0.  1.
         11    1    3    3    0    0  0.67722112283E+01  0.29276817942E+01 -0.25482264294E+02  0.26528851453E+02  0.51100000000E-03 0. -1.
        -11    1    3    3    0    0  0.11465391689E+01  0.12793928121E+02 -0.30173215715E+01  0.13194823930E+02  0.51100000000E-03 0.  1.
         12    1    3    3    0    0  0.87509270892E+01 -0.20827551894E+01 -0.59862250518E+01  0.10805160085E+02  0.00000000000E+00 0. -1.
</event>
<event>
 7    1  0.4994895E-011  0.5052885E+02  0.7816164E-02  0.1300439E+00
        -11   -1    0    0    0    0  0.00000000000E+00  0.00000000000E+00  0.45593999997E+02  0.45594000000E+02  0.51100000000E-03 0.  1.
         11   -1    0    0    0    0 -0.00000000000E+00 -0.00000000000E+00 -0.45593999997E+02  0.45594000000E+02  0.51100000000E-03 0. -1.
    9900012    2    1    2    0    0  0.52367013803E+01 -0.60899656747E+01 -0.39857939954E+02  0.50528854649E+02  0.29999984192E+02 0.  0.
        -12    1    1    2    0    0 -0.52367013803E+01  0.60899656747E+01  0.39857939954E+02  0.40659145351E+02  0.00000000000E+00 0.  1.
         11    1    3    3    0    0  0.17147818626E+02 -0.57112882277E+01 -0.28939759541E+02  0.34120026075E+02  0.51100000000E-03 0. -1.
        -11    1    3    3    0    0 -0.61555388206E+01 -0.37372050215E+00 -0.75187909643E+01  0.97243273809E+01  0.51100000000E-03 0.  1.
         12    1    3    3    0    0 -0.57555784248E+01 -0.49569448864E-02 -0.33993894489E+01  0.66845011930E+01  0.00000000000E+00 0. -1.
</event>
<event>
 7    1  0.4994895E-011  0.5052888E+02  0.7816164E-02  0.1300439E+00
        -11   -1    0    0    0    0  0.00000000000E+00  0.00000000000E+00  0.45593999997E+02  0.45594000000E+02  0.51100000000E-03 0. -1.
         11   -1    0    0    0    0 -0.00000000000E+00 -0.00000000000E+00 -0.45593999997E+02  0.45594000000E+02  0.51100000000E-03 0.  1.
    9900012    2    1    2    0    0  0.40606965275E+01  0.36077853218E+02  0.18304731067E+02  0.50528881361E+02  0.30000065384E+02 0.  0.
        -12    1    1    2    0    0 -0.40606965275E+01 -0.36077853218E+02 -0.18304731067E+02  0.40659118639E+02  0.00000000000E+00 0.  1.
         11    1    3    3    0    0 -0.46220287862E+01 -0.12841738848E+01  0.20544125947E+01  0.52185116688E+01  0.51100000000E-03 0. -1.
        -11    1    3    3    0    0  0.99904364211E+01  0.19315907481E+02  0.12069035675E+01  0.21780030261E+02  0.51100000000E-03 0.  1.
        -12    1    3    3    0    0 -0.13077111073E+01  0.18046119622E+02  0.15043414905E+02  0.23530339431E+02  0.00000000000E+00 0.  1.
</event>
<event>
 7    1  0.4994895E-011  0.5052887E+02  0.7816164E-02  0.1300439E+00
        -11   -1    0    0    0    0  0.00000000000E+00  0.00000000000E+00  0.45593999997E+02  0.45594000000E+02  0.51100000000E-03 0. -1.
         11   -1    0    0    0    0 -0.00000000000E+00 -0.00000000000E+00 -0.45593999997E+02  0.45594000000E+02  0.51100000000E-03 0.  1.
    9900012    2    1    2    0    0 -0.29688467430E+02 -0.10946416811E+02 -0.25533039357E+02  0.50528865256E+02  0.30000016433E+02 0.  0.
        -12    1    1    2    0    0  0.29688467430E+02  0.10946416811E+02  0.25533039357E+02  0.40659134744E+02  0.00000000000E+00 0.  1.
         11    1    3    3    0    0 -0.16646949682E+02 -0.18537096648E+01  0.22278803353E+01  0.16897355542E+02  0.51100000000E-03 0. -1.
        -11    1    3    3    0    0 -0.29149109293E+01 -0.81567742659E+01 -0.10664913547E+02  0.13739361462E+02  0.51100000000E-03 0.  1.
         12    1    3    3    0    0 -0.10126606818E+02 -0.93593288037E+00 -0.17096006145E+02  0.19892148253E+02  0.00000000000E+00 0. -1.
</event>
<event>
 7    1  0.4994895E-011  0.5052886E+02  0.7816164E-02  0.1300439E+00
        -11   -1    0    0    0    0  0.00000000000E+00  0.00000000000E+00  0.45593999997E+02  0.45594000000E+02  0.51100000000E-03 0.  1.
         11   -1    0    0    0    0 -0.00000000000E+00 -0.00000000000E+00 -0.45593999997E+02  0.45594000000E+02  0.51100000000E-03 0. -1.
    9900012    2    1    2    0    0  0.15322652272E+02 -0.33571687762E+02 -0.17068219231E+02  0.50528855893E+02  0.29999987972E+02 0.  0.
        -12    1    1    2    0    0 -0.15322652272E+02  0.33571687762E+02  0.17068219231E+02  0.40659144107E+02  0.00000000000E+00 0.  1.
         11    1    3    3    0    0  0.47137170598E+01 -0.18437938086E+02 -0.19831239248E+02  0.27485536920E+02  0.51100000000E-03 0. -1.
        -11    1    3    3    0    0  0.22049975021E+01 -0.14202399850E+02  0.10090483233E+01  0.14407926786E+02  0.51100000000E-03 0.  1.
         12    1    3    3    0    0  0.84039377099E+01 -0.93134982576E+00  0.17539716938E+01  0.86353921876E+01  0.00000000000E+00 0. -1.
</event>
<event>
 7    1  0.4994895E-011  0.5052886E+02  0.7816164E-02  0.1300439E+00
        -11   -1    0    0    0    0  0.00000000000E+00  0.00000000000E+00  0.45593999997E+02  0.45594000000E+02  0.51100000000E-03 0.  1.
         11   -1    0    0    0    0 -0.00000000000E+00 -0.00000000000E+00 -0.45593999997E+02  0.45594000000E+02  0.51100000000E-03 0. -1.
    9900012    2    1    2    0    0  0.23204798006E+02  0.13528577020E+02 -0.30523445386E+02  0.50528858778E+02  0.29999996741E+02 0.  0.
        -12    1    1    2    0    0 -0.23204798006E+02 -0.13528577020E+02  0.30523445386E+02  0.40659141222E+02  0.00000000000E+00 0.  1.
         11    1    3    3    0    0  0.11609718683E+02  0.10737041791E+02 -0.10316541248E+02  0.18881225011E+02  0.51100000000E-03 0. -1.
        -11    1    3    3    0    0  0.10773762450E+02 -0.60201804424E+01 -0.19083707017E+02  0.22726733238E+02  0.51100000000E-03 0.  1.
        -12    1    3    3    0    0  0.82131687363E+00  0.88117156714E+01 -0.11231971204E+01  0.89209005292E+01  0.00000000000E+00 0.  1.
</event>
<event>
 7    1  0.4994895E-011  0.5052886E+02  0.7816164E-02  0.1300439E+00
        -11   -1    0    0    0    0  0.00000000000E+00  0.00000000000E+00  0.45593999997E+02  0.45594000000E+02  0.51100000000E-03 0. -1.
         11   -1    0    0    0    0 -0.00000000000E+00 -0.00000000000E+00 -0.45593999997E+02  0.45594000000E+02  0.51100000000E-03 0.  1.
    9900012    2    1    2    0    0 -0.52477565452E+01 -0.11805185047E+02  0.38552100703E+02  0.50528858207E+02  0.29999995005E+02 0.  0.
        -12    1    1    2    0    0  0.52477565452E+01  0.11805185047E+02 -0.38552100703E+02  0.40659141793E+02  0.00000000000E+00 0.  1.
         11    1    3    3    0    0 -0.62356991859E+01 -0.95185390251E+01  0.17199194953E+02  0.20622774712E+02  0.51100000000E-03 0.  1.
        -11    1    3    3    0    0 -0.49768117668E+01  0.74816601621E+01  0.12702079859E+02  0.15559136452E+02  0.51100000000E-03 0. -1.
        -12    1    3    3    0    0  0.59647544076E+01 -0.97683061845E+01  0.86508258910E+01  0.14346947043E+02  0.00000000000E+00 0.  1.
</event>
<event>
 7    1  0.4994895E-011  0.5052887E+02  0.7816164E-02  0.1300439E+00
        -11   -1    0    0    0    0  0.00000000000E+00  0.00000000000E+00  0.45593999997E+02  0.45594000000E+02  0.51100000000E-03 0. -1.
         11   -1    0    0    0    0 -0.00000000000E+00 -0.00000000000E+00 -0.45593999997E+02  0.45594000000E+02  0.51100000000E-03 0.  1.
    9900012    2    1    2    0    0  0.56753041960E+01  0.38210939729E+02  0.12683851223E+02  0.50528867268E+02  0.30000022547E+02 0.  0.
        -12    1    1    2    0    0 -0.56753041960E+01 -0.38210939729E+02 -0.12683851223E+02  0.40659132732E+02  0.00000000000E+00 0.  1.
         11    1    3    3    0    0 -0.10298514828E+01  0.15181520417E+02  0.24520155893E+01  0.15412706997E+02  0.51100000000E-03 0. -1.
        -11    1    3    3    0    0  0.14904966800E+02  0.15230302530E+02  0.26032646157E+01  0.21468515025E+02  0.51100000000E-03 0.  1.
        -12    1    3    3    0    0 -0.81998111208E+01  0.77991167819E+01  0.76285710181E+01  0.13647645246E+02  0.00000000000E+00 0.  1.
</event>
<event>
 7    1  0.4994895E-011  0.5052886E+02  0.7816164E-02  0.1300439E+00
        -11   -1    0    0    0    0  0.00000000000E+00  0.00000000000E+00  0.45593999997E+02  0.45594000000E+02  0.51100000000E-03 0. -1.
         11   -1    0    0    0    0 -0.00000000000E+00 -0.00000000000E+00 -0.45593999997E+02  0.45594000000E+02  0.51100000000E-03 0.  1.
    9900012    2    1    2    0    0  0.95443395538E+01 -0.39052590240E+02  0.60800352331E+01  0.50528855267E+02  0.29999986071E+02 0.  0.
        -12    1    1    2    0    0 -0.95443395538E+01  0.39052590240E+02 -0.60800352331E+01  0.40659144733E+02  0.00000000000E+00 0.  1.
         11    1    3    3    0    0  0.87827456936E+01 -0.13557731994E+02  0.12772584867E+02  0.20593388337E+02  0.51100000000E-03 0. -1.
        -11    1    3    3    0    0 -0.46536324145E+01 -0.26949583089E+01  0.55486151413E+00  0.54061970457E+01  0.51100000000E-03 0.  1.
         12    1    3    3    0    0  0.54152262747E+01 -0.22799899936E+02 -0.72474111482E+01  0.24529269885E+02  0.00000000000E+00 0. -1.
</event>
<event>
 7    1  0.4994895E-011  0.5052886E+02  0.7816164E-02  0.1300439E+00
        -11   -1    0    0    0    0  0.00000000000E+00  0.00000000000E+00  0.45593999997E+02  0.45594000000E+02  0.51100000000E-03 0.  1.
         11   -1    0    0    0    0 -0.00000000000E+00 -0.00000000000E+00 -0.45593999997E+02  0.45594000000E+02  0.51100000000E-03 0. -1.
    9900012    2    1    2    0    0 -0.31550774616E+01 -0.30855381253E+02 -0.26289859141E+02  0.50528858842E+02  0.29999996937E+02 0.  0.
        -12    1    1    2    0    0  0.31550774616E+01  0.30855381253E+02  0.26289859141E+02  0.40659141158E+02  0.00000000000E+00 0.  1.
         11    1    3    3    0    0 -0.13130344789E+02 -0.52043691940E+01 -0.12317556622E+02  0.18740694074E+02  0.51100000000E-03 0. -1.
        -11    1    3    3    0    0  0.92686303322E+01 -0.26067079499E+02 -0.13909602164E+02  0.30965741950E+02  0.51100000000E-03 0.  1.
        -12    1    3    3    0    0  0.70663699523E+00  0.41606744041E+00 -0.62700354598E-01  0.82242281854E+00  0.00000000000E+00 0.  1.
</event>
<event>
 7    1  0.4994895E-011  0.5052884E+02  0.7816164E-02  0.1300439E+00
        -11   -1    0    0    0    0  0.00000000000E+00  0.00000000000E+00  0.45593999997E+02  0.45594000000E+02  0.51100000000E-03 0.  1.
         11   -1    0    0    0    0 -0.00000000000E+00 -0.00000000000E+00 -0.45593999997E+02  0.45594000000E+02  0.51100000000E-03 0. -1.
    9900012    2    1    2    0    0  0.31358543609E+02  0.98804866353E+01 -0.23920384587E+02  0.50528842701E+02  0.29999947874E+02 0.  0.
        -12    1    1    2    0    0 -0.31358543609E+02 -0.98804866353E+01  0.23920384587E+02  0.40659157299E+02  0.00000000000E+00 0.  1.
         11    1    3    3    0    0  0.22546397951E+02  0.15093338956E+02 -0.23710509565E+02  0.36032446566E+02  0.51100000000E-03 0. -1.
        -11    1    3    3    0    0 -0.23126641167E+01 -0.44923047903E+00 -0.41864332480E+00  0.23927987451E+01  0.51100000000E-03 0.  1.
         12    1    3    3    0    0  0.11124809775E+02 -0.47636218420E+01  0.20876830233E+00  0.12103597390E+02  0.00000000000E+00 0. -1.
</event>
<event>
 7    1  0.4994895E-011  0.5052886E+02  0.7816164E-02  0.1300439E+00
        -11   -1    0    0    0    0  0.00000000000E+00  0.00000000000E+00  0.45593999997E+02  0.45594000000E+02  0.51100000000E-03 0. -1.
         11   -1    0    0    0    0 -0.00000000000E+00 -0.00000000000E+00 -0.45593999997E+02  0.45594000000E+02  0.51100000000E-03 0.  1.
    9900012    2    1    2    0    0 -0.10533255504E+02 -0.25361966709E+02  0.29983110532E+02  0.50528859035E+02  0.29999997522E+02 0.  0.
        -12    1    1    2    0    0  0.10533255504E+02  0.25361966709E+02 -0.29983110532E+02  0.40659140965E+02  0.00000000000E+00 0.  1.
         11    1    3    3    0    0  0.71030591857E+01 -0.46643782894E+01  0.27577730028E+01  0.89339345654E+01  0.51100000000E-03 0. -1.
        -11    1    3    3    0    0 -0.67144594571E+01  0.38278628032E+00  0.10808458329E+02  0.12730014251E+02  0.51100000000E-03 0.  1.
         12    1    3    3    0    0 -0.10921855233E+02 -0.21080374700E+02  0.16416879200E+02  0.28864910218E+02  0.00000000000E+00 0. -1.
</event>
<event>
 7    1  0.4994895E-011  0.5052889E+02  0.7816164E-02  0.1300439E+00
        -11   -1    0    0    0    0  0.00000000000E+00  0.00000000000E+00  0.45593999997E+02  0.45594000000E+02  0.51100000000E-03 0.  1.
         11   -1    0    0    0    0 -0.00000000000E+00 -0.00000000000E+00 -0.45593999997E+02  0.45594000000E+02  0.51100000000E-03 0. -1.
    9900012    2    1    2    0    0 -0.23434339961E+02  0.79970965733E-01 -0.33226318718E+02  0.50528893513E+02  0.30000102323E+02 0.  0.
        -12    1    1    2    0    0  0.23434339961E+02 -0.79970965733E-01  0.33226318718E+02  0.40659106487E+02  0.00000000000E+00 0.  1.
         11    1    3    3    0    0 -0.15338819392E+02  0.13602280649E+02 -0.19568783250E+02  0.28341466041E+02  0.51100000000E-03 0. -1.
        -11    1    3    3    0    0  0.79866292700E+00 -0.50942931009E+01 -0.31238019789E+01  0.60289156350E+01  0.51100000000E-03 0.  1.
         12    1    3    3    0    0 -0.88941834962E+01 -0.84280165828E+01 -0.10533733489E+02  0.16158511837E+02  0.00000000000E+00 0. -1.
</event>
<event>
 7    1  0.4994895E-011  0.5052886E+02  0.7816164E-02  0.1300439E+00
        -11   -1    0    0    0    0  0.00000000000E+00  0.00000000000E+00  0.45593999997E+02  0.45594000000E+02  0.51100000000E-03 0.  1.
         11   -1    0    0    0    0 -0.00000000000E+00 -0.00000000000E+00 -0.45593999997E+02  0.45594000000E+02  0.51100000000E-03 0. -1.
    9900012    2    1    2    0    0  0.12913543570E+02  0.33794002998E+02 -0.18557240195E+02  0.50528863145E+02  0.30000010015E+02 0.  0.
        -12    1    1    2    0    0 -0.12913543570E+02 -0.33794002998E+02  0.18557240195E+02  0.40659136855E+02  0.00000000000E+00 0.  1.
         11    1    3    3    0    0  0.18318955871E+02  0.14699874109E+02 -0.28753208176E+01  0.23663007270E+02  0.51100000000E-03 0. -1.
        -11    1    3    3    0    0 -0.25708100856E+01  0.15723693895E+01  0.23785002788E+00  0.30229096728E+01  0.51100000000E-03 0.  1.
         12    1    3    3    0    0 -0.28346022153E+01  0.17521759499E+02 -0.15919769405E+02  0.23842946202E+02  0.00000000000E+00 0. -1.
</event>
<event>
 7    1  0.4994895E-011  0.5052886E+02  0.7816164E-02  0.1300439E+00
        -11   -1    0    0    0    0  0.00000000000E+00  0.00000000000E+00  0.45593999997E+02  0.45594000000E+02  0.51100000000E-03 0.  1.
         11   -1    0    0    0    0 -0.00000000000E+00 -0.00000000000E+00 -0.45593999997E+02  0.45594000000E+02  0.51100000000E-03 0. -1.
    9900012    2    1    2    0    0  0.44656067900E+01  0.14627618552E+01 -0.40386686109E+02  0.50528859194E+02  0.29999998005E+02 0.  0.
        -12    1    1    2    0    0 -0.44656067900E+01 -0.14627618552E+01  0.40386686109E+02  0.40659140806E+02  0.00000000000E+00 0.  1.
         11    1    3    3    0    0  0.52623289676E+01  0.53511251939E+01 -0.22295842813E+01  0.78292843436E+01  0.51100000000E-03 0.  1.
        -11    1    3    3    0    0  0.52365436353E+01 -0.66620473515E+01 -0.33584891684E+02  0.34637396176E+02  0.51100000000E-03 0. -1.
         12    1    3    3    0    0 -0.60332658129E+01  0.27736840128E+01 -0.45722101432E+01  0.80621786736E+01  0.00000000000E+00 0. -1.
</event>
<event>
 7    1  0.4994895E-011  0.5052886E+02  0.7816164E-02  0.1300439E+00
        -11   -1    0    0    0    0  0.00000000000E+00  0.00000000000E+00  0.45593999997E+02  0.45594000000E+02  0.51100000000E-03 0. -1.
         11   -1    0    0    0    0 -0.00000000000E+00 -0.00000000000E+00 -0.45593999997E+02  0.45594000000E+02  0.51100000000E-03 0.  1.
    9900012    2    1    2    0    0 -0.24911040727E+02  0.29493810333E+02  0.12756222347E+02  0.50528855805E+02  0.29999987706E+02 0.  0.
        -12    1    1    2    0    0  0.24911040727E+02 -0.29493810333E+02 -0.12756222347E+02  0.40659144195E+02  0.00000000000E+00 0.  1.
         11    1    3    3    0    0 -0.15630567316E+02  0.78497604443E+01  0.12099396921E+02  0.21268022470E+02  0.51100000000E-03 0. -1.
        -11    1    3    3    0    0  0.33264663939E+01  0.14139132086E+02  0.12363984200E+01  0.14577692415E+02  0.51100000000E-03 0.  1.
        -12    1    3    3    0    0 -0.12606939804E+02  0.75049178027E+01 -0.57957299342E+00  0.14683140921E+02  0.00000000000E+00 0.  1.
</event>
<event>
 7    1  0.4994895E-011  0.5052887E+02  0.7816164E-02  0.1300439E+00
        -11   -1    0    0    0    0  0.00000000000E+00  0.00000000000E+00  0.45593999997E+02  0.45594000000E+02  0.51100000000E-03 0. -1.
         11   -1    0    0    0    0 -0.00000000000E+00 -0.00000000000E+00 -0.45593999997E+02  0.45594000000E+02  0.51100000000E-03 0.  1.
    9900012    2    1    2    0    0  0.40186901574E+02 -0.15473134861E+01 -0.59819433210E+01  0.50528869623E+02  0.30000029705E+02 0.  0.
        -12    1    1    2    0    0 -0.40186901574E+02  0.15473134861E+01  0.59819433210E+01  0.40659130377E+02  0.00000000000E+00 0.  1.
         11    1    3    3    0    0  0.29207450357E+02  0.50034295259E+01  0.60133508068E+01  0.30236895534E+02  0.51100000000E-03 0. -1.
        -11    1    3    3    0    0  0.12297330573E+02 -0.53473920540E+01 -0.12607121450E+02  0.18405391941E+02  0.51100000000E-03 0.  1.
         12    1    3    3    0    0 -0.13178793558E+01 -0.12033509580E+01  0.61182732205E+00  0.18865821468E+01  0.00000000000E+00 0. -1.
</event>
<event>
 7    1  0.4994895E-011  0.5052886E+02  0.7816164E-02  0.1300439E+00
        -11   -1    0    0    0    0  0.00000000000E+00  0.00000000000E+00  0.45593999997E+02  0.45594000000E+02  0.51100000000E-03 0.  1.
         11   -1    0    0    0    0 -0.00000000000E+00 -0.00000000000E+00 -0.45593999997E+02  0.45594000000E+02  0.51100000000E-03 0. -1.
    9900012    2    1    2    0    0 -0.19915920950E+02  0.28596673853E+02 -0.20946416130E+02  0.50528855746E+02  0.29999987526E+02 0.  0.
        -12    1    1    2    0    0  0.19915920950E+02 -0.28596673853E+02  0.20946416130E+02  0.40659144254E+02  0.00000000000E+00 0.  1.
         11    1    3    3    0    0  0.60791604317E+01  0.67708194390E+01  0.17046036401E+01  0.92577460141E+01  0.51100000000E-03 0. -1.
        -11    1    3    3    0    0 -0.18846932799E+02  0.13643781716E+02 -0.12548773309E+02  0.26435418803E+02  0.51100000000E-03 0.  1.
         12    1    3    3    0    0 -0.71481485832E+01  0.81820726982E+01 -0.10102246460E+02  0.14835690929E+02  0.00000000000E+00 0. -1.
</event>
<event>
 7    1  0.4994895E-011  0.5052886E+02  0.7816164E-02  0.1300439E+00
        -11   -1    0    0    0    0  0.00000000000E+00  0.00000000000E+00  0.45593999997E+02  0.45594000000E+02  0.51100000000E-03 0.  1.
         11   -1    0    0    0    0 -0.00000000000E+00 -0.00000000000E+00 -0.45593999997E+02  0.45594000000E+02  0.51100000000E-03 0. -1.
    9900012    2    1    2    0    0 -0.47146182562E+01  0.31046082496E+02 -0.25827874709E+02  0.50528856187E+02  0.29999988866E+02 0.  0.
        -12    1    1    2    0    0  0.47146182562E+01 -0.31046082496E+02  0.25827874709E+02  0.40659143813E+02  0.00000000000E+00 0.  1.
         11    1    3    3    0    0  0.43230485797E+01  0.12665056981E+02 -0.25954212197E+02  0.29201259363E+02  0.51100000000E-03 0. -1.
        -11    1    3    3    0    0 -0.52756715808E+01  0.13299712533E+02  0.25932775213E+01  0.14540981832E+02  0.51100000000E-03 0.  1.
         12    1    3    3    0    0 -0.37619952551E+01  0.50813129824E+01 -0.24669400332E+01  0.67866149922E+01  0.00000000000E+00 0. -1.
</event>
<event>
 7    1  0.4994895E-011  0.5052887E+02  0.7816164E-02  0.1300439E+00
        -11   -1    0    0    0    0  0.00000000000E+00  0.00000000000E+00  0.45593999997E+02  0.45594000000E+02  0.51100000000E-03 0. -1.
         11   -1    0    0    0    0 -0.00000000000E+00 -0.00000000000E+00 -0.45593999997E+02  0.45594000000E+02  0.51100000000E-03 0.  1.
    9900012    2    1    2    0    0 -0.33852979889E+02  0.26994319610E+01  0.22357414362E+02  0.50528866251E+02  0.30000019457E+02 0.  0.
        -12    1    1    2    0    0  0.33852979889E+02 -0.26994319610E+01 -0.22357414362E+02  0.40659133749E+02  0.00000000000E+00 0.  1.
         11    1    3    3    0    0 -0.83995140223E+01 -0.89442931383E+01  0.63465483621E+01  0.13814155491E+02  0.51100000000E-03 0. -1.
        -11    1    3    3    0    0 -0.25545062991E+02  0.83653466925E+01  0.79791440731E+01  0.28039187023E+02  0.51100000000E-03 0.  1.
        -12    1    3    3    0    0  0.91597124525E-01  0.32783784067E+01  0.80317219268E+01  0.86755237375E+01  0.00000000000E+00 0.  1.
</event>
<event>
 7    1  0.4994895E-011  0.5052891E+02  0.7816164E-02  0.1300439E+00
        -11   -1    0    0    0    0  0.00000000000E+00  0.00000000000E+00  0.45593999997E+02  0.45594000000E+02  0.51100000000E-03 0.  1.
         11   -1    0    0    0    0 -0.00000000000E+00 -0.00000000000E+00 -0.45593999997E+02  0.45594000000E+02  0.51100000000E-03 0. -1.
    9900012    2    1    2    0    0 -0.95001871093E+01 -0.26409568781E+02 -0.29418413021E+02  0.50528906270E+02  0.30000141097E+02 0.  0.
        -12    1    1    2    0    0  0.95001871093E+01  0.26409568781E+02  0.29418413021E+02  0.40659093730E+02  0.00000000000E+00 0.  1.
         11    1    3    3    0    0 -0.89231831045E+01  0.36493388681E+00 -0.93458311741E+01  0.12926752649E+02  0.51100000000E-03 0. -1.
        -11    1    3    3    0    0  0.38345793931E+01 -0.21806200603E+02 -0.21438212927E+02  0.30819009680E+02  0.51100000000E-03 0.  1.
         12    1    3    3    0    0 -0.44115833979E+01 -0.49683020639E+01  0.13656310799E+01  0.67831439408E+01  0.00000000000E+00 0. -1.
</event>
<event>
 7    1  0.4994895E-011  0.5052878E+02  0.7816164E-02  0.1300439E+00
        -11   -1    0    0    0    0  0.00000000000E+00  0.00000000000E+00  0.45593999997E+02  0.45594000000E+02  0.51100000000E-03 0.  1.
         11   -1    0    0    0    0 -0.00000000000E+00 -0.00000000000E+00 -0.45593999997E+02  0.45594000000E+02  0.51100000000E-03 0. -1.
    9900012    2    1    2    0    0 -0.22164816086E+02  0.19815158524E+02 -0.27735399819E+02  0.50528782317E+02  0.29999764331E+02 0.  0.
        -12    1    1    2    0    0  0.22164816086E+02 -0.19815158524E+02  0.27735399819E+02  0.40659217683E+02  0.00000000000E+00 0.  1.
         11    1    3    3    0    0 -0.11784955698E+02  0.46817406099E+01 -0.14907687760E+02  0.19571485139E+02  0.51100000000E-03 0. -1.
        -11    1    3    3    0    0  0.37252085648E+01  0.19463011414E+00  0.31879377646E+01  0.49069346016E+01  0.51100000000E-03 0.  1.
        -12    1    3    3    0    0 -0.14105068953E+02  0.14938787800E+02 -0.16015649823E+02  0.26050362576E+02  0.00000000000E+00 0.  1.
</event>
<event>
 7    1  0.4994895E-011  0.5052887E+02  0.7816164E-02  0.1300439E+00
        -11   -1    0    0    0    0  0.00000000000E+00  0.00000000000E+00  0.45593999997E+02  0.45594000000E+02  0.51100000000E-03 0.  1.
         11   -1    0    0    0    0 -0.00000000000E+00 -0.00000000000E+00 -0.45593999997E+02  0.45594000000E+02  0.51100000000E-03 0. -1.
    9900012    2    1    2    0    0  0.20647484945E+02  0.28002303441E+02 -0.21040842632E+02  0.50528871982E+02  0.30000036876E+02 0.  0.
        -12    1    1    2    0    0 -0.20647484945E+02 -0.28002303441E+02  0.21040842632E+02  0.40659128018E+02  0.00000000000E+00 0.  1.
         11    1    3    3    0    0  0.48149068970E+01  0.10986321721E+02 -0.18040345404E+02  0.21664179096E+02  0.51100000000E-03 0. -1.
        -11    1    3    3    0    0  0.19190931212E+02  0.13010702185E+02 -0.81678669474E+00  0.23199942950E+02  0.51100000000E-03 0.  1.
        -12    1    3    3    0    0 -0.33583531643E+01  0.40052795355E+01 -0.21837105331E+01  0.56647499350E+01  0.00000000000E+00 0.  1.
</event>
<event>
 7    1  0.4994895E-011  0.5052887E+02  0.7816164E-02  0.1300439E+00
        -11   -1    0    0    0    0  0.00000000000E+00  0.00000000000E+00  0.45593999997E+02  0.45594000000E+02  0.51100000000E-03 0. -1.
         11   -1    0    0    0    0 -0.00000000000E+00 -0.00000000000E+00 -0.45593999997E+02  0.45594000000E+02  0.51100000000E-03 0.  1.
    9900012    2    1    2    0    0 -0.20593257584E+01 -0.28694337669E+02  0.28732540111E+02  0.50528871897E+02  0.30000036619E+02 0.  0.
        -12    1    1    2    0    0  0.20593257584E+01  0.28694337669E+02 -0.28732540111E+02  0.40659128103E+02  0.00000000000E+00 0.  1.
         11    1    3    3    0    0  0.21057764349E+00 -0.30362217103E+02  0.12314826099E+02  0.32765279068E+02  0.51100000000E-03 0. -1.
        -11    1    3    3    0    0 -0.21725612786E+01  0.38137802097E+01  0.85888832924E+01  0.96454060811E+01  0.51100000000E-03 0.  1.
         12    1    3    3    0    0 -0.97342123311E-01 -0.21459007757E+01  0.78288307203E+01  0.81181867480E+01  0.00000000000E+00 0. -1.
</event>
<event>
 7    1  0.4994895E-011  0.5052886E+02  0.7816164E-02  0.1300439E+00
        -11   -1    0    0    0    0  0.00000000000E+00  0.00000000000E+00  0.45593999997E+02  0.45594000000E+02  0.51100000000E-03 0.  1.
         11   -1    0    0    0    0 -0.00000000000E+00 -0.00000000000E+00 -0.45593999997E+02  0.45594000000E+02  0.51100000000E-03 0. -1.
    9900012    2    1    2    0    0  0.18979301742E+02 -0.10015503943E+02 -0.34534638288E+02  0.50528862583E+02  0.30000008306E+02 0.  0.
        -12    1    1    2    0    0 -0.18979301742E+02  0.10015503943E+02  0.34534638288E+02  0.40659137417E+02  0.00000000000E+00 0.  1.
         11    1    3    3    0    0  0.21119346009E+02 -0.13052989362E+02 -0.22433966774E+02  0.33461771809E+02  0.51100000000E-03 0. -1.
        -11    1    3    3    0    0  0.35744785574E+01  0.47168982693E+01 -0.74238590784E+01  0.94941934948E+01  0.51100000000E-03 0.  1.
         12    1    3    3    0    0 -0.57145228245E+01 -0.16794128510E+01 -0.46768124357E+01  0.75728972788E+01  0.00000000000E+00 0. -1.
</event>
<event>
 7    1  0.4994895E-011  0.5052886E+02  0.7816164E-02  0.1300439E+00
        -11   -1    0    0    0    0  0.00000000000E+00  0.00000000000E+00  0.45593999997E+02  0.45594000000E+02  0.51100000000E-03 0.  1.
         11   -1    0    0    0    0 -0.00000000000E+00 -0.00000000000E+00 -0.45593999997E+02  0.45594000000E+02  0.51100000000E-03 0. -1.
    9900012    2    1    2    0    0 -0.12195545265E+02 -0.32527728443E+02 -0.21127743198E+02  0.50528856199E+02  0.29999988902E+02 0.  0.
        -12    1    1    2    0    0  0.12195545265E+02  0.32527728443E+02  0.21127743198E+02  0.40659143801E+02  0.00000000000E+00 0.  1.
         11    1    3    3    0    0 -0.40759414623E+00 -0.67299872959E+01 -0.48217127082E+01  0.82890153633E+01  0.51100000000E-03 0. -1.
        -11    1    3    3    0    0 -0.28970401689E+01  0.49975637136E+01  0.92288901130E+00  0.58498042018E+01  0.51100000000E-03 0.  1.
        -12    1    3    3    0    0 -0.88909109495E+01 -0.30795304861E+02 -0.17228919501E+02  0.36390036634E+02  0.00000000000E+00 0.  1.
</event>
<event>
 7    1  0.4994895E-011  0.5052886E+02  0.7816164E-02  0.1300439E+00
        -11   -1    0    0    0    0  0.00000000000E+00  0.00000000000E+00  0.45593999997E+02  0.45594000000E+02  0.51100000000E-03 0. -1.
         11   -1    0    0    0    0 -0.00000000000E+00 -0.00000000000E+00 -0.45593999997E+02  0.45594000000E+02  0.51100000000E-03 0.  1.
    9900012    2    1    2    0    0  0.22059915406E+01  0.36132695346E+02  0.18512900520E+02  0.50528861331E+02  0.30000004503E+02 0.  0.
        -12    1    1    2    0    0 -0.22059915406E+01 -0.36132695346E+02 -0.18512900520E+02  0.40659138669E+02  0.00000000000E+00 0.  1.
         11    1    3    3    0    0  0.17216838711E+01  0.19847093666E+02  0.72307372326E+01  0.21193274488E+02  0.51100000000E-03 0. -1.
        -11    1    3    3    0    0 -0.17993650850E+01 -0.31712459124E+01  0.88787924128E+01  0.95983055962E+01  0.51100000000E-03 0.  1.
        -12    1    3    3    0    0  0.22836727546E+01  0.19456847592E+02  0.24033708746E+01  0.19737281247E+02  0.00000000000E+00 0.  1.
</event>
<event>
 7    1  0.4994895E-011  0.5052883E+02  0.7816164E-02  0.1300439E+00
        -11   -1    0    0    0    0  0.00000000000E+00  0.00000000000E+00  0.45593999997E+02  0.45594000000E+02  0.51100000000E-03 0.  1.
         11   -1    0    0    0    0 -0.00000000000E+00 -0.00000000000E+00 -0.45593999997E+02  0.45594000000E+02  0.51100000000E-03 0. -1.
    9900012    2    1    2    0    0  0.26293104939E+02 -0.83590945953E+01 -0.29865804890E+02  0.50528829675E+02  0.29999908281E+02 0.  0.
        -12    1    1    2    0    0 -0.26293104939E+02  0.83590945953E+01  0.29865804890E+02  0.40659170325E+02  0.00000000000E+00 0.  1.
         11    1    3    3    0    0  0.13769906260E+02 -0.11084990225E+02 -0.82533584482E+01  0.19509106915E+02  0.51100000000E-03 0.  1.
        -11    1    3    3    0    0  0.37900506582E+01  0.10112622007E+02 -0.99517287506E+01  0.14685588624E+02  0.51100000000E-03 0. -1.
         12    1    3    3    0    0  0.87331480208E+01 -0.73867263769E+01 -0.11660717691E+02  0.16334134136E+02  0.00000000000E+00 0. -1.
</event>
<event>
 7    1  0.5093514E-011  0.5052886E+02  0.7816164E-02  0.1300439E+00
        -11   -1    0    0    0    0  0.00000000000E+00  0.00000000000E+00  0.45593999997E+02  0.45594000000E+02  0.51100000000E-03 0.  1.
         11   -1    0    0    0    0 -0.00000000000E+00 -0.00000000000E+00 -0.45593999997E+02  0.45594000000E+02  0.51100000000E-03 0. -1.
    9900012    2    1    2    0    0  0.27642656927E+02  0.29813040895E+02 -0.48138170391E+00  0.50528860588E+02  0.30000002243E+02 0.  0.
        -12    1    1    2    0    0 -0.27642656927E+02 -0.29813040895E+02  0.48138170391E+00  0.40659139412E+02  0.00000000000E+00 0.  1.
         11    1    3    3    0    0  0.17401094875E+02  0.12834262943E+02  0.61254859983E+01  0.22473050240E+02  0.51100000000E-03 0. -1.
        -11    1    3    3    0    0  0.71741840738E+01  0.46662762434E+01 -0.11603869112E+02  0.14418489163E+02  0.51100000000E-03 0.  1.
        -12    1    3    3    0    0  0.30673779782E+01  0.12312501709E+02  0.49970014103E+01  0.13637321184E+02  0.00000000000E+00 0.  1.
</event>
<event>
 7    1  0.4994895E-011  0.5052886E+02  0.7816164E-02  0.1300439E+00
        -11   -1    0    0    0    0  0.00000000000E+00  0.00000000000E+00  0.45593999997E+02  0.45594000000E+02  0.51100000000E-03 0. -1.
         11   -1    0    0    0    0 -0.00000000000E+00 -0.00000000000E+00 -0.45593999997E+02  0.45594000000E+02  0.51100000000E-03 0.  1.
    9900012    2    1    2    0    0 -0.29299971476E+02 -0.19933466325E+02  0.19933252816E+02  0.50528856181E+02  0.29999988848E+02 0.  0.
        -12    1    1    2    0    0  0.29299971476E+02  0.19933466325E+02 -0.19933252816E+02  0.40659143819E+02  0.00000000000E+00 0.  1.
         11    1    3    3    0    0 -0.23207846748E+01 -0.17711056745E+02  0.98804815496E+01  0.20413022521E+02  0.51100000000E-03 0. -1.
        -11    1    3    3    0    0 -0.21259153468E+02 -0.51418404102E+01  0.67237527616E+01  0.22882285298E+02  0.51100000000E-03 0.  1.
         12    1    3    3    0    0 -0.57200333335E+01  0.29194308300E+01  0.33290185047E+01  0.72335483625E+01  0.00000000000E+00 0. -1.
</event>
<event>
 7    1  0.5812389E-011  0.5052886E+02  0.7816164E-02  0.1300439E+00
        -11   -1    0    0    0    0  0.00000000000E+00  0.00000000000E+00  0.45593999997E+02  0.45594000000E+02  0.51100000000E-03 0. -1.
         11   -1    0    0    0    0 -0.00000000000E+00 -0.00000000000E+00 -0.45593999997E+02  0.45594000000E+02  0.51100000000E-03 0.  1.
    9900012    2    1    2    0    0 -0.23669105220E+02 -0.24419635554E+02  0.22284982563E+02  0.50528860924E+02  0.30000003266E+02 0.  0.
        -12    1    1    2    0    0  0.23669105220E+02  0.24419635554E+02 -0.22284982563E+02  0.40659139076E+02  0.00000000000E+00 0.  1.
         11    1    3    3    0    0 -0.24981456689E+02 -0.13239568673E+02  0.11153104567E+02  0.30393273906E+02  0.51100000000E-03 0. -1.
        -11    1    3    3    0    0  0.44437398338E+01 -0.82305624844E+00 -0.12599563657E+00  0.45210751443E+01  0.51100000000E-03 0.  1.
         12    1    3    3    0    0 -0.31313883645E+01 -0.10357010633E+02  0.11257873633E+02  0.15614511874E+02  0.00000000000E+00 0. -1.
</event>
<event>
 7    1  0.4994895E-011  0.5052886E+02  0.7816164E-02  0.1300439E+00
        -11   -1    0    0    0    0  0.00000000000E+00  0.00000000000E+00  0.45593999997E+02  0.45594000000E+02  0.51100000000E-03 0. -1.
         11   -1    0    0    0    0 -0.00000000000E+00 -0.00000000000E+00 -0.45593999997E+02  0.45594000000E+02  0.51100000000E-03 0.  1.
    9900012    2    1    2    0    0 -0.30342852731E+02 -0.17422892187E+02 -0.20710382699E+02  0.50528857909E+02  0.29999994101E+02 0.  0.
        -12    1    1    2    0    0  0.30342852731E+02  0.17422892187E+02  0.20710382699E+02  0.40659142091E+02  0.00000000000E+00 0.  1.
         11    1    3    3    0    0 -0.15138097413E+02 -0.15891204421E+01 -0.57048262583E+01  0.16255225005E+02  0.51100000000E-03 0. -1.
        -11    1    3    3    0    0 -0.83513325906E+01 -0.20062763120E+02 -0.67858427915E+01  0.22766354181E+02  0.51100000000E-03 0.  1.
        -12    1    3    3    0    0 -0.68534227272E+01  0.42289913752E+01 -0.82197136493E+01  0.11507278723E+02  0.00000000000E+00 0.  1.
</event>
<event>
 7    1  0.4994895E-011  0.5052886E+02  0.7816164E-02  0.1300439E+00
        -11   -1    0    0    0    0  0.00000000000E+00  0.00000000000E+00  0.45593999997E+02  0.45594000000E+02  0.51100000000E-03 0.  1.
         11   -1    0    0    0    0 -0.00000000000E+00 -0.00000000000E+00 -0.45593999997E+02  0.45594000000E+02  0.51100000000E-03 0. -1.
    9900012    2    1    2    0    0  0.39780760239E+00 -0.12573046573E+02 -0.38664271650E+02  0.50528860151E+02  0.30000000914E+02 0.  0.
        -12    1    1    2    0    0 -0.39780760239E+00  0.12573046573E+02  0.38664271650E+02  0.40659139849E+02  0.00000000000E+00 0.  1.
         11    1    3    3    0    0 -0.44539885311E+01 -0.10324853058E+02 -0.40725870034E+01  0.11959371625E+02  0.51100000000E-03 0. -1.
        -11    1    3    3    0    0 -0.10648081089E+01  0.39253290597E+01 -0.26455339661E+02  0.26766154401E+02  0.51100000000E-03 0.  1.
        -12    1    3    3    0    0  0.59166042424E+01 -0.61735225750E+01 -0.81363449855E+01  0.11803334125E+02  0.00000000000E+00 0.  1.
</event>
<event>
 7    1  0.4994895E-011  0.5052887E+02  0.7816164E-02  0.1300439E+00
        -11   -1    0    0    0    0  0.00000000000E+00  0.00000000000E+00  0.45593999997E+02  0.45594000000E+02  0.51100000000E-03 0. -1.
         11   -1    0    0    0    0 -0.00000000000E+00 -0.00000000000E+00 -0.45593999997E+02  0.45594000000E+02  0.51100000000E-03 0.  1.
    9900012    2    1    2    0    0 -0.39842580779E+02 -0.80872888911E+01  0.57362864316E+00  0.50528873908E+02  0.30000042730E+02 0.  0.
        -12    1    1    2    0    0  0.39842580779E+02  0.80872888911E+01 -0.57362864316E+00  0.40659126092E+02  0.00000000000E+00 0.  1.
         11    1    3    3    0    0 -0.21290401913E+02 -0.86084007558E+01  0.14578819328E+02  0.27201613012E+02  0.51100000000E-03 0. -1.
        -11    1    3    3    0    0 -0.13594789931E+02 -0.26330196607E+00 -0.10883379129E+02  0.17416531880E+02  0.51100000000E-03 0.  1.
         12    1    3    3    0    0 -0.49573889349E+01  0.78441383078E+00 -0.31218115562E+01  0.59107290161E+01  0.00000000000E+00 0. -1.
</event>
<event>
 7    1  0.4994895E-011  0.5052886E+02  0.7816164E-02  0.1300439E+00
        -11   -1    0    0    0    0  0.00000000000E+00  0.00000000000E+00  0.45593999997E+02  0.45594000000E+02  0.51100000000E-03 0.  1.
         11   -1    0    0    0    0 -0.00000000000E+00 -0.00000000000E+00 -0.45593999997E+02  0.45594000000E+02  0.51100000000E-03 0. -1.
    9900012    2    1    2    0    0 -0.86011275014E+01  0.25776659381E+02 -0.30244833929E+02  0.50528861513E+02  0.30000005054E+02 0.  0.
        -12    1    1    2    0    0  0.86011275014E+01 -0.25776659381E+02  0.30244833929E+02  0.40659138487E+02  0.00000000000E+00 0.  1.
         11    1    3    3    0    0  0.14080546711E+01 -0.12463763061E+01 -0.85494094244E+01  0.87537691094E+01  0.51100000000E-03 0.  1.
        -11    1    3    3    0    0 -0.14429372868E+02  0.88713694885E+01 -0.11708045121E+02  0.20590928070E+02  0.51100000000E-03 0. -1.
        -12    1    3    3    0    0  0.44201906951E+01  0.18151666199E+02 -0.99873793828E+01  0.21184164334E+02  0.00000000000E+00 0.  1.
</event>
<event>
 7    1  0.4994895E-011  0.5052886E+02  0.7816164E-02  0.1300439E+00
        -11   -1    0    0    0    0  0.00000000000E+00  0.00000000000E+00  0.45593999997E+02  0.45594000000E+02  0.51100000000E-03 0.  1.
         11   -1    0    0    0    0 -0.00000000000E+00 -0.00000000000E+00 -0.45593999997E+02  0.45594000000E+02  0.51100000000E-03 0. -1.
    9900012    2    1    2    0    0 -0.27376752459E+02 -0.14126573718E+02 -0.26535248311E+02  0.50528855111E+02  0.29999985595E+02 0.  0.
        -12    1    1    2    0    0  0.27376752459E+02  0.14126573718E+02  0.26535248311E+02  0.40659144889E+02  0.00000000000E+00 0.  1.
         11    1    3    3    0    0 -0.25913142830E+02 -0.76959062202E+01 -0.84546882572E+01  0.28323130082E+02  0.51100000000E-03 0. -1.
        -11    1    3    3    0    0  0.24503186458E+01 -0.58295940005E+01 -0.37804721979E+01  0.73675096184E+01  0.51100000000E-03 0.  1.
         12    1    3    3    0    0 -0.39139282748E+01 -0.60107349770E+00 -0.14300087855E+02  0.14838215410E+02  0.00000000000E+00 0. -1.
</event>
<event>
 7    1  0.4994895E-011  0.5052887E+02  0.7816164E-02  0.1300439E+00
        -11   -1    0    0    0    0  0.00000000000E+00  0.00000000000E+00  0.45593999997E+02  0.45594000000E+02  0.51100000000E-03 0.  1.
         11   -1    0    0    0    0 -0.00000000000E+00 -0.00000000000E+00 -0.45593999997E+02  0.45594000000E+02  0.51100000000E-03 0. -1.
    9900012    2    1    2    0    0  0.21813500179E+02 -0.95833142318E+01 -0.32946872881E+02  0.50528866532E+02  0.30000020311E+02 0.  0.
        -12    1    1    2    0    0 -0.21813500179E+02  0.95833142318E+01  0.32946872881E+02  0.40659133468E+02  0.00000000000E+00 0.  1.
         11    1    3    3    0    0  0.60210652916E+01  0.45964725320E+00  0.48523988580E+00  0.60580492611E+01  0.51100000000E-03 0. -1.
        -11    1    3    3    0    0  0.31602136307E+01 -0.74419963457E+01 -0.30076418678E+02  0.31144200433E+02  0.51100000000E-03 0.  1.
        -12    1    3    3    0    0  0.12632221257E+02 -0.26009651393E+01 -0.33556940880E+01  0.13326616838E+02  0.00000000000E+00 0.  1.
</event>
<event>
 7    1  0.4994895E-011  0.5052886E+02  0.7816164E-02  0.1300439E+00
        -11   -1    0    0    0    0  0.00000000000E+00  0.00000000000E+00  0.45593999997E+02  0.45594000000E+02  0.51100000000E-03 0.  1.
         11   -1    0    0    0    0 -0.00000000000E+00 -0.00000000000E+00 -0.45593999997E+02  0.45594000000E+02  0.51100000000E-03 0. -1.
    9900012    2    1    2    0    0 -0.79572008090E+01 -0.37502402051E+02 -0.13543201159E+02  0.50528862012E+02  0.30000006571E+02 0.  0.
        -12    1    1    2    0    0  0.79572008090E+01  0.37502402051E+02  0.13543201159E+02  0.40659137988E+02  0.00000000000E+00 0.  1.
         11    1    3    3    0    0 -0.10029372857E+02 -0.81847905370E+01 -0.68212486499E+01  0.14632448512E+02  0.51100000000E-03 0. -1.
        -11    1    3    3    0    0  0.77150300692E+01 -0.24144298910E+02 -0.10406997014E+02  0.27400263611E+02  0.51100000000E-03 0.  1.
        -12    1    3    3    0    0 -0.56428580213E+01 -0.51733126034E+01  0.36850445044E+01  0.84961498892E+01  0.00000000000E+00 0.  1.
</event>
<event>
 7    1  0.4994895E-011  0.5052886E+02  0.7816164E-02  0.1300439E+00
        -11   -1    0    0    0    0  0.00000000000E+00  0.00000000000E+00  0.45593999997E+02  0.45594000000E+02  0.51100000000E-03 0. -1.
         11   -1    0    0    0    0 -0.00000000000E+00 -0.00000000000E+00 -0.45593999997E+02  0.45594000000E+02  0.51100000000E-03 0.  1.
    9900012    2    1    2    0    0  0.32133658112E+02 -0.69427877240E+01  0.23924704541E+02  0.50528858686E+02  0.29999996461E+02 0.  0.
        -12    1    1    2    0    0 -0.32133658112E+02  0.69427877240E+01 -0.23924704541E+02  0.40659141314E+02  0.00000000000E+00 0.  1.
         11    1    3    3    0    0  0.58688082365E+01 -0.11622178421E+02 -0.34030409845E+00  0.13024352134E+02  0.51100000000E-03 0. -1.
        -11    1    3    3    0    0  0.21818810914E+02  0.26392231007E+01  0.13796253565E+02  0.25949231606E+02  0.51100000000E-03 0.  1.
         12    1    3    3    0    0  0.44460389621E+01  0.20401675959E+01  0.10468755074E+02  0.11555274946E+02  0.00000000000E+00 0. -1.
</event>
<event>
 7    1  0.4994895E-011  0.5052886E+02  0.7816164E-02  0.1300439E+00
        -11   -1    0    0    0    0  0.00000000000E+00  0.00000000000E+00  0.45593999997E+02  0.45594000000E+02  0.51100000000E-03 0. -1.
         11   -1    0    0    0    0 -0.00000000000E+00 -0.00000000000E+00 -0.45593999997E+02  0.45594000000E+02  0.51100000000E-03 0.  1.
    9900012    2    1    2    0    0  0.16404338767E+02 -0.20994767459E+02  0.30712915513E+02  0.50528858711E+02  0.29999996537E+02 0.  0.
        -12    1    1    2    0    0 -0.16404338767E+02  0.20994767459E+02 -0.30712915513E+02  0.40659141289E+02  0.00000000000E+00 0.  1.
         11    1    3    3    0    0 -0.39940847739E+00 -0.85819510560E+01  0.63070551208E+01  0.10657783804E+02  0.51100000000E-03 0. -1.
        -11    1    3    3    0    0  0.20152659854E+02 -0.13544345805E+02  0.26354306090E+02  0.35834738066E+02  0.51100000000E-03 0.  1.
        -12    1    3    3    0    0 -0.33489126101E+01  0.11315294022E+01 -0.19484456974E+01  0.40363368409E+01  0.00000000000E+00 0.  1.
</event>
<event>
 7    1  0.4994895E-011  0.5052886E+02  0.7816164E-02  0.1300439E+00
        -11   -1    0    0    0    0  0.00000000000E+00  0.00000000000E+00  0.45593999997E+02  0.45594000000E+02  0.51100000000E-03 0.  1.
         11   -1    0    0    0    0 -0.00000000000E+00 -0.00000000000E+00 -0.45593999997E+02  0.45594000000E+02  0.51100000000E-03 0. -1.
    9900012    2    1    2    0    0  0.35140064209E+02 -0.16298453019E+02 -0.12357279367E+02  0.50528855434E+02  0.29999986579E+02 0.  0.
        -12    1    1    2    0    0 -0.35140064209E+02  0.16298453019E+02  0.12357279367E+02  0.40659144566E+02  0.00000000000E+00 0.  1.
         11    1    3    3    0    0  0.22745553901E+02  0.31131693780E+01 -0.82221181767E+01  0.24385554605E+02  0.51100000000E-03 0. -1.
        -11    1    3    3    0    0  0.10032517697E+02 -0.20774747664E+02 -0.34062964373E+01  0.23320471855E+02  0.51100000000E-03 0.  1.
        -12    1    3    3    0    0  0.23619926118E+01  0.13631252672E+01 -0.72886475292E+00  0.28228289747E+01  0.00000000000E+00 0.  1.
</event>
<event>
 7    1  0.4994895E-011  0.5052886E+02  0.7816164E-02  0.1300439E+00
        -11   -1    0    0    0    0  0.00000000000E+00  0.00000000000E+00  0.45593999997E+02  0.45594000000E+02  0.51100000000E-03 0.  1.
         11   -1    0    0    0    0 -0.00000000000E+00 -0.00000000000E+00 -0.45593999997E+02  0.45594000000E+02  0.51100000000E-03 0. -1.
    9900012    2    1    2    0    0 -0.31256633631E+02  0.18184042685E+01 -0.25939968621E+02  0.50528859428E+02  0.29999998716E+02 0.  0.
        -12    1    1    2    0    0  0.31256633631E+02 -0.18184042685E+01  0.25939968621E+02  0.40659140572E+02  0.00000000000E+00 0.  1.
         11    1    3    3    0    0 -0.28809909885E+02  0.85428032525E+01 -0.18080357908E+02  0.35069783822E+02  0.51100000000E-03 0. -1.
        -11    1    3    3    0    0 -0.51264604831E+01 -0.70032031326E+01 -0.90273275289E+01  0.12522703134E+02  0.51100000000E-03 0.  1.
         12    1    3    3    0    0  0.26797367368E+01  0.27880414870E+00  0.11677168160E+01  0.29363724720E+01  0.00000000000E+00 0. -1.
</event>
<event>
 7    1  0.4994895E-011  0.5052885E+02  0.7816164E-02  0.1300439E+00
        -11   -1    0    0    0    0  0.00000000000E+00  0.00000000000E+00  0.45593999997E+02  0.45594000000E+02  0.51100000000E-03 0.  1.
         11   -1    0    0    0    0 -0.00000000000E+00 -0.00000000000E+00 -0.45593999997E+02  0.45594000000E+02  0.51100000000E-03 0. -1.
    9900012    2    1    2    0    0 -0.38463645189E+02  0.31746625628E+00 -0.13176253004E+02  0.50528850608E+02  0.29999971909E+02 0.  0.
        -12    1    1    2    0    0  0.38463645189E+02 -0.31746625628E+00  0.13176253004E+02  0.40659149392E+02  0.00000000000E+00 0.  1.
         11    1    3    3    0    0 -0.16344140701E+02  0.15872923080E+01 -0.13946386535E+02  0.21544190163E+02  0.51100000000E-03 0. -1.
        -11    1    3    3    0    0 -0.80875944791E+00 -0.68794501438E+01  0.52364470418E+00  0.69465912621E+01  0.51100000000E-03 0.  1.
        -12    1    3    3    0    0 -0.21310745040E+02  0.56096240920E+01  0.24648882641E+00  0.22038069184E+02  0.00000000000E+00 0.  1.
</event>
<event>
 7    1  0.4994895E-011  0.5052886E+02  0.7816164E-02  0.1300439E+00
        -11   -1    0    0    0    0  0.00000000000E+00  0.00000000000E+00  0.45593999997E+02  0.45594000000E+02  0.51100000000E-03 0.  1.
         11   -1    0    0    0    0 -0.00000000000E+00 -0.00000000000E+00 -0.45593999997E+02  0.45594000000E+02  0.51100000000E-03 0. -1.
    9900012    2    1    2    0    0 -0.12770622948E+02 -0.31422739122E+02 -0.22420708513E+02  0.50528861856E+02  0.30000006096E+02 0.  0.
        -12    1    1    2    0    0  0.12770622948E+02  0.31422739122E+02  0.22420708513E+02  0.40659138144E+02  0.00000000000E+00 0.  1.
         11    1    3    3    0    0 -0.33033713038E+01 -0.17971911897E+02 -0.17703182102E+02  0.25442180253E+02  0.51100000000E-03 0. -1.
        -11    1    3    3    0    0 -0.57742630581E+01  0.15715988727E+01 -0.72610295620E+01  0.94092819834E+01  0.51100000000E-03 0.  1.
        -12    1    3    3    0    0 -0.36929885865E+01 -0.15022426097E+02  0.25435031508E+01  0.15677399619E+02  0.00000000000E+00 0.  1.
</event>
<event>
 7    1  0.4994895E-011  0.5052885E+02  0.7816164E-02  0.1300439E+00
        -11   -1    0    0    0    0  0.00000000000E+00  0.00000000000E+00  0.45593999997E+02  0.45594000000E+02  0.51100000000E-03 0.  1.
         11   -1    0    0    0    0 -0.00000000000E+00 -0.00000000000E+00 -0.45593999997E+02  0.45594000000E+02  0.51100000000E-03 0. -1.
    9900012    2    1    2    0    0  0.13091110360E+02  0.12799849505E+02 -0.36303628228E+02  0.50528846782E+02  0.29999960280E+02 0.  0.
        -12    1    1    2    0    0 -0.13091110360E+02 -0.12799849505E+02  0.36303628228E+02  0.40659153218E+02  0.00000000000E+00 0.  1.
         11    1    3    3    0    0  0.48273239167E+01  0.73668770836E+01 -0.69711767124E+01  0.11232597170E+02  0.51100000000E-03 0. -1.
        -11    1    3    3    0    0  0.16080683651E+01 -0.53713907599E+01  0.16259950044E+01  0.58379433517E+01  0.51100000000E-03 0.  1.
        -12    1    3    3    0    0  0.66557180785E+01  0.10804363182E+02 -0.30958446520E+02  0.33458306261E+02  0.00000000000E+00 0.  1.
</event>
<event>
 7    1  0.4994895E-011  0.5052885E+02  0.7816164E-02  0.1300439E+00
        -11   -1    0    0    0    0  0.00000000000E+00  0.00000000000E+00  0.45593999997E+02  0.45594000000E+02  0.51100000000E-03 0.  1.
         11   -1    0    0    0    0 -0.00000000000E+00 -0.00000000000E+00 -0.45593999997E+02  0.45594000000E+02  0.51100000000E-03 0. -1.
    9900012    2    1    2    0    0 -0.21249609227E+02 -0.35694044307E+01 -0.34480143746E+02  0.50528845397E+02  0.29999956069E+02 0.  0.
        -12    1    1    2    0    0  0.21249609227E+02  0.35694044307E+01  0.34480143746E+02  0.40659154603E+02  0.00000000000E+00 0.  1.
         11    1    3    3    0    0  0.20300512962E+01 -0.33686396048E+01 -0.20383748242E+02  0.20759721426E+02  0.51100000000E-03 0. -1.
        -11    1    3    3    0    0 -0.23653591606E+02 -0.25957038161E+01 -0.12738065078E+02  0.26990523825E+02  0.51100000000E-03 0.  1.
         12    1    3    3    0    0  0.37393108264E+00  0.23949389902E+01 -0.13583304262E+01  0.27786001454E+01  0.00000000000E+00 0. -1.
</event>
