<event>
 7    1  0.4356471E-010  0.4778727E+02  0.7816164E-02  0.1312668E+00
        -11   -1    0    0    0    0  0.00000000000E+00  0.00000000000E+00  0.45593999997E+02  0.45594000000E+02  0.51100000000E-03 0.  1.
         11   -1    0    0    0    0 -0.00000000000E+00 -0.00000000000E+00 -0.45593999997E+02  0.45594000000E+02  0.51100000000E-03 0. -1.
    9900012    2    1    2    0    0  0.20483149582E+01  0.35025298099E+02 -0.25547139837E+02  0.47787268958E+02  0.19999990488E+02 0.  0.
        -12    1    1    2    0    0 -0.20483149582E+01 -0.35025298099E+02  0.25547139837E+02  0.43400731042E+02  0.00000000000E+00 0.  1.
         11    1    3    3    0    0  0.29886592167E+01  0.59795946515E+01  0.14564104808E+01  0.68416933474E+01  0.51100000000E-03 0. -1.
        -11    1    3    3    0    0 -0.36644755526E+01  0.50625205756E+01 -0.31043087249E+01  0.69781250042E+01  0.51100000000E-03 0.  1.
         12    1    3    3    0    0  0.27241312941E+01  0.23983182872E+02 -0.23899241593E+02  0.33967450607E+02  0.00000000000E+00 0. -1.
</event>
<event>
 7    1  0.4356471E-010  0.4778727E+02  0.7816164E-02  0.1312668E+00
        -11   -1    0    0    0    0  0.00000000000E+00  0.00000000000E+00  0.45593999997E+02  0.45594000000E+02  0.51100000000E-03 0. -1.
         11   -1    0    0    0    0 -0.00000000000E+00 -0.00000000000E+00 -0.45593999997E+02  0.45594000000E+02  0.51100000000E-03 0.  1.
    9900012    2    1    2    0    0  0.38134215481E+01 -0.11367785214E+02  0.41711562938E+02  0.47787271811E+02  0.20000003497E+02 0.  0.
        -12    1    1    2    0    0 -0.38134215481E+01  0.11367785214E+02 -0.41711562938E+02  0.43400728189E+02  0.00000000000E+00 0.  1.
         11    1    3    3    0    0  0.37877660241E+01 -0.17705340750E+01  0.14936872594E+01  0.44399396679E+01  0.51100000000E-03 0. -1.
        -11    1    3    3    0    0  0.30489272347E+01  0.93180466603E+00  0.24440818805E+01  0.40171823107E+01  0.51100000000E-03 0.  1.
         12    1    3    3    0    0 -0.30232717106E+01 -0.10529055805E+02  0.37773793798E+02  0.39330149833E+02  0.00000000000E+00 0. -1.
</event>
<event>
 7    1  0.4356471E-010  0.4778728E+02  0.7816164E-02  0.1312668E+00
        -11   -1    0    0    0    0  0.00000000000E+00  0.00000000000E+00  0.45593999997E+02  0.45594000000E+02  0.51100000000E-03 0.  1.
         11   -1    0    0    0    0 -0.00000000000E+00 -0.00000000000E+00 -0.45593999997E+02  0.45594000000E+02  0.51100000000E-03 0. -1.
    9900012    2    1    2    0    0  0.12533624166E+02  0.35536288533E+00 -0.41550021476E+02  0.47787282239E+02  0.20000051041E+02 0.  0.
        -12    1    1    2    0    0 -0.12533624166E+02 -0.35536288533E+00  0.41550021476E+02  0.43400717761E+02  0.00000000000E+00 0.  1.
         11    1    3    3    0    0 -0.44964617552E+01  0.23115524036E+01 -0.15477912869E+02  0.16282727961E+02  0.51100000000E-03 0. -1.
        -11    1    3    3    0    0  0.67161942164E+01  0.12213735832E+01 -0.87886793836E+01  0.11128337870E+02  0.51100000000E-03 0.  1.
         12    1    3    3    0    0  0.10313891705E+02 -0.31775631015E+01 -0.17283429224E+02  0.20376216408E+02  0.00000000000E+00 0. -1.
</event>
<event>
 7    1  0.4356471E-010  0.4778727E+02  0.7816164E-02  0.1312668E+00
        -11   -1    0    0    0    0  0.00000000000E+00  0.00000000000E+00  0.45593999997E+02  0.45594000000E+02  0.51100000000E-03 0.  1.
         11   -1    0    0    0    0 -0.00000000000E+00 -0.00000000000E+00 -0.45593999997E+02  0.45594000000E+02  0.51100000000E-03 0. -1.
    9900012    2    1    2    0    0 -0.40902773492E+02 -0.81354584381E+01  0.12016674164E+02  0.47787273954E+02  0.20000013267E+02 0.  0.
        -12    1    1    2    0    0  0.40902773492E+02  0.81354584381E+01 -0.12016674164E+02  0.43400726046E+02  0.00000000000E+00 0.  1.
         11    1    3    3    0    0 -0.11174591420E+01 -0.31118578044E+01 -0.57443298440E+00  0.33559421097E+01  0.51100000000E-03 0. -1.
        -11    1    3    3    0    0 -0.15512424066E+01 -0.10397170053E+01  0.48791549123E+01  0.52243198002E+01  0.51100000000E-03 0.  1.
         12    1    3    3    0    0 -0.38234071944E+02 -0.39838836284E+01  0.77119522358E+01  0.39207012044E+02  0.00000000000E+00 0. -1.
</event>
<event>
 7    1  0.4356471E-010  0.4778727E+02  0.7816164E-02  0.1312668E+00
        -11   -1    0    0    0    0  0.00000000000E+00  0.00000000000E+00  0.45593999997E+02  0.45594000000E+02  0.51100000000E-03 0.  1.
         11   -1    0    0    0    0 -0.00000000000E+00 -0.00000000000E+00 -0.45593999997E+02  0.45594000000E+02  0.51100000000E-03 0. -1.
    9900012    2    1    2    0    0 -0.33796476542E+02 -0.19573187506E+02 -0.18929122864E+02  0.47787272031E+02  0.20000004499E+02 0.  0.
        -12    1    1    2    0    0  0.33796476542E+02  0.19573187506E+02  0.18929122864E+02  0.43400727969E+02  0.00000000000E+00 0.  1.
         11    1    3    3    0    0 -0.13822495678E+02 -0.11129670004E+02 -0.88616808961E+01  0.19835834485E+02  0.51100000000E-03 0. -1.
        -11    1    3    3    0    0 -0.15856923020E+02 -0.12051512068E+02 -0.51002836932E+01  0.20559519567E+02  0.51100000000E-03 0.  1.
        -12    1    3    3    0    0 -0.41170578442E+01  0.36079945663E+01 -0.49671582749E+01  0.73919179792E+01  0.00000000000E+00 0.  1.
</event>
<event>
 7    1  0.4356471E-010  0.4778726E+02  0.7816164E-02  0.1312668E+00
        -11   -1    0    0    0    0  0.00000000000E+00  0.00000000000E+00  0.45593999997E+02  0.45594000000E+02  0.51100000000E-03 0.  1.
         11   -1    0    0    0    0 -0.00000000000E+00 -0.00000000000E+00 -0.45593999997E+02  0.45594000000E+02  0.51100000000E-03 0. -1.
    9900012    2    1    2    0    0  0.39292067061E+02 -0.18809534924E+01 -0.18336286567E+02  0.47787263543E+02  0.19999965798E+02 0.  0.
        -12    1    1    2    0    0 -0.39292067061E+02  0.18809534924E+01  0.18336286567E+02  0.43400736457E+02  0.00000000000E+00 0.  1.
         11    1    3    3    0    0  0.34400268617E+02 -0.54896817948E+01 -0.96064041590E+01  0.36135828319E+02  0.51100000000E-03 0. -1.
        -11    1    3    3    0    0 -0.21081969254E+00  0.16644288204E+00  0.49407409302E+00  0.56236789228E+00  0.51100000000E-03 0.  1.
         12    1    3    3    0    0  0.51026181360E+01  0.34422854204E+01 -0.92239565013E+01  0.11089067332E+02  0.00000000000E+00 0. -1.
</event>
<event>
 7    1  0.4356471E-010  0.4778727E+02  0.7816164E-02  0.1312668E+00
        -11   -1    0    0    0    0  0.00000000000E+00  0.00000000000E+00  0.45593999997E+02  0.45594000000E+02  0.51100000000E-03 0.  1.
         11   -1    0    0    0    0 -0.00000000000E+00 -0.00000000000E+00 -0.45593999997E+02  0.45594000000E+02  0.51100000000E-03 0. -1.
    9900012    2    1    2    0    0 -0.36631716114E+02 -0.17632528219E+02 -0.15193239450E+02  0.47787271875E+02  0.20000003785E+02 0.  0.
        -12    1    1    2    0    0  0.36631716114E+02  0.17632528219E+02  0.15193239450E+02  0.43400728125E+02  0.00000000000E+00 0.  1.
         11    1    3    3    0    0 -0.23020875907E+02 -0.39439839926E+01 -0.15745976587E+02  0.28168271445E+02  0.51100000000E-03 0. -1.
        -11    1    3    3    0    0 -0.16469250651E+01 -0.32759192089E+01 -0.60515273010E+00  0.37162102902E+01  0.51100000000E-03 0.  1.
        -12    1    3    3    0    0 -0.11963915142E+02 -0.10412625018E+02  0.11578898671E+01  0.15902790140E+02  0.00000000000E+00 0.  1.
</event>
<event>
 7    1  0.4356471E-010  0.4778727E+02  0.7816164E-02  0.1312668E+00
        -11   -1    0    0    0    0  0.00000000000E+00  0.00000000000E+00  0.45593999997E+02  0.45594000000E+02  0.51100000000E-03 0. -1.
         11   -1    0    0    0    0 -0.00000000000E+00 -0.00000000000E+00 -0.45593999997E+02  0.45594000000E+02  0.51100000000E-03 0.  1.
    9900012    2    1    2    0    0  0.18442812658E+02  0.38988243881E+02 -0.48376727790E+01  0.47787267546E+02  0.19999984048E+02 0.  0.
        -12    1    1    2    0    0 -0.18442812658E+02 -0.38988243881E+02  0.48376727790E+01  0.43400732454E+02  0.00000000000E+00 0.  1.
         11    1    3    3    0    0  0.15950274572E+02  0.35869116650E+02 -0.59053729574E+01  0.39697332634E+02  0.51100000000E-03 0. -1.
        -11    1    3    3    0    0  0.23042131480E+01  0.40845072689E+01 -0.18268099922E+01  0.50328752091E+01  0.51100000000E-03 0.  1.
        -12    1    3    3    0    0  0.18832493777E+00 -0.96538003818E+00  0.28945101707E+01  0.30570597031E+01  0.00000000000E+00 0.  1.
</event>
<event>
 7    1  0.4356471E-010  0.4778726E+02  0.7816164E-02  0.1312668E+00
        -11   -1    0    0    0    0  0.00000000000E+00  0.00000000000E+00  0.45593999997E+02  0.45594000000E+02  0.51100000000E-03 0. -1.
         11   -1    0    0    0    0 -0.00000000000E+00 -0.00000000000E+00 -0.45593999997E+02  0.45594000000E+02  0.51100000000E-03 0.  1.
    9900012    2    1    2    0    0  0.46922682691E+01  0.22404918276E+02  0.36873107691E+02  0.47787264808E+02  0.19999971566E+02 0.  0.
        -12    1    1    2    0    0 -0.46922682691E+01 -0.22404918276E+02 -0.36873107691E+02  0.43400735192E+02  0.00000000000E+00 0.  1.
         11    1    3    3    0    0 -0.31793452426E+00  0.29683387799E+01  0.77144167359E+01  0.82719008281E+01  0.51100000000E-03 0. -1.
        -11    1    3    3    0    0  0.87473178637E+01  0.20866832310E+02  0.25533161760E+02  0.34115723797E+02  0.51100000000E-03 0.  1.
        -12    1    3    3    0    0 -0.37371150704E+01 -0.14302528145E+01  0.36255291946E+01  0.53996401828E+01  0.00000000000E+00 0.  1.
</event>
<event>
 7    1  0.4356471E-010  0.4778727E+02  0.7816164E-02  0.1312668E+00
        -11   -1    0    0    0    0  0.00000000000E+00  0.00000000000E+00  0.45593999997E+02  0.45594000000E+02  0.51100000000E-03 0.  1.
         11   -1    0    0    0    0 -0.00000000000E+00 -0.00000000000E+00 -0.45593999997E+02  0.45594000000E+02  0.51100000000E-03 0. -1.
    9900012    2    1    2    0    0 -0.18751120961E+02 -0.98434492883E+01 -0.37883049130E+02  0.47787269101E+02  0.19999991140E+02 0.  0.
        -12    1    1    2    0    0  0.18751120961E+02  0.98434492883E+01  0.37883049130E+02  0.43400730899E+02  0.00000000000E+00 0.  1.
         11    1    3    3    0    0 -0.12170117718E+02 -0.35968331222E+01 -0.28545535522E+02  0.31239343340E+02  0.51100000000E-03 0. -1.
        -11    1    3    3    0    0 -0.86915502386E+01 -0.67284929096E+01 -0.92753029293E+01  0.14382173239E+02  0.51100000000E-03 0.  1.
        -12    1    3    3    0    0  0.21105469965E+01  0.48187674345E+00 -0.62210678679E-01  0.21657525225E+01  0.00000000000E+00 0.  1.
</event>
<event>
 7    1  0.4356471E-010  0.4778727E+02  0.7816164E-02  0.1312668E+00
        -11   -1    0    0    0    0  0.00000000000E+00  0.00000000000E+00  0.45593999997E+02  0.45594000000E+02  0.51100000000E-03 0. -1.
         11   -1    0    0    0    0 -0.00000000000E+00 -0.00000000000E+00 -0.45593999997E+02  0.45594000000E+02  0.51100000000E-03 0.  1.
    9900012    2    1    2    0    0 -0.51591066994E+01  0.11480725254E+02  0.41535524209E+02  0.47787271831E+02  0.20000003586E+02 0.  0.
        -12    1    1    2    0    0  0.51591066994E+01 -0.11480725254E+02 -0.41535524209E+02  0.43400728169E+02  0.00000000000E+00 0.  1.
         11    1    3    3    0    0  0.40351307350E+01  0.52866576370E+01  0.10811587143E+02  0.12693362275E+02  0.51100000000E-03 0. -1.
        -11    1    3    3    0    0 -0.30203688126E+01  0.69391372287E+01  0.61689844915E+01  0.97637402239E+01  0.51100000000E-03 0.  1.
         12    1    3    3    0    0 -0.61738686218E+01 -0.74506961184E+00  0.24554952574E+02  0.25330169332E+02  0.00000000000E+00 0. -1.
</event>
<event>
 7    1  0.4356471E-010  0.4778728E+02  0.7816164E-02  0.1312668E+00
        -11   -1    0    0    0    0  0.00000000000E+00  0.00000000000E+00  0.45593999997E+02  0.45594000000E+02  0.51100000000E-03 0.  1.
         11   -1    0    0    0    0 -0.00000000000E+00 -0.00000000000E+00 -0.45593999997E+02  0.45594000000E+02  0.51100000000E-03 0. -1.
    9900012    2    1    2    0    0  0.11286350462E+02 -0.49728674231E+01 -0.41611435685E+02  0.47787277691E+02  0.20000030306E+02 0.  0.
        -12    1    1    2    0    0 -0.11286350462E+02  0.49728674231E+01  0.41611435685E+02  0.43400722309E+02  0.00000000000E+00 0.  1.
         11    1    3    3    0    0 -0.29424747083E+00  0.22983829731E+01 -0.48790225749E+01  0.54012968269E+01  0.51100000000E-03 0. -1.
        -11    1    3    3    0    0 -0.20954503915E+01  0.47880568417E+00  0.28591899024E+00  0.21683904529E+01  0.51100000000E-03 0.  1.
         12    1    3    3    0    0  0.13676048324E+02 -0.77500560804E+01 -0.37018332100E+02  0.40217590411E+02  0.00000000000E+00 0. -1.
</event>
<event>
 7    1  0.4356471E-010  0.4778727E+02  0.7816164E-02  0.1312668E+00
        -11   -1    0    0    0    0  0.00000000000E+00  0.00000000000E+00  0.45593999997E+02  0.45594000000E+02  0.51100000000E-03 0.  1.
         11   -1    0    0    0    0 -0.00000000000E+00 -0.00000000000E+00 -0.45593999997E+02  0.45594000000E+02  0.51100000000E-03 0. -1.
    9900012    2    1    2    0    0  0.37821579835E+02  0.10408874203E+02 -0.18568983500E+02  0.47787266001E+02  0.19999977005E+02 0.  0.
        -12    1    1    2    0    0 -0.37821579835E+02 -0.10408874203E+02  0.18568983500E+02  0.43400733999E+02  0.00000000000E+00 0.  1.
         11    1    3    3    0    0  0.36796464091E+02  0.10860314140E+02 -0.16490612618E+02  0.41759627604E+02  0.51100000000E-03 0. -1.
        -11    1    3    3    0    0  0.30496258087E+01 -0.65501067638E+00 -0.13282912758E-03  0.31191756665E+01  0.51100000000E-03 0.  1.
         12    1    3    3    0    0 -0.20245100649E+01  0.20357073953E+00 -0.20782380532E+01  0.29084627305E+01  0.00000000000E+00 0. -1.
</event>
<event>
 7    1  0.4356471E-010  0.4778727E+02  0.7816164E-02  0.1312668E+00
        -11   -1    0    0    0    0  0.00000000000E+00  0.00000000000E+00  0.45593999997E+02  0.45594000000E+02  0.51100000000E-03 0.  1.
         11   -1    0    0    0    0 -0.00000000000E+00 -0.00000000000E+00 -0.45593999997E+02  0.45594000000E+02  0.51100000000E-03 0. -1.
    9900012    2    1    2    0    0 -0.41663768567E+02 -0.32601105883E+01 -0.11710053972E+02  0.47787270786E+02  0.19999998821E+02 0.  0.
        -12    1    1    2    0    0  0.41663768567E+02  0.32601105883E+01  0.11710053972E+02  0.43400729214E+02  0.00000000000E+00 0.  1.
         11    1    3    3    0    0 -0.75373626412E+01 -0.56587291278E+01 -0.63374636637E-02  0.94251308400E+01  0.51100000000E-03 0. -1.
        -11    1    3    3    0    0  0.10798095486E+01 -0.27442445554E+00 -0.91890967073E+00  0.14441927459E+01  0.51100000000E-03 0.  1.
         12    1    3    3    0    0 -0.35206215475E+02  0.26730429950E+01 -0.10784806838E+02  0.36917947200E+02  0.00000000000E+00 0. -1.
</event>
<event>
 7    1  0.4356471E-010  0.4778727E+02  0.7816164E-02  0.1312668E+00
        -11   -1    0    0    0    0  0.00000000000E+00  0.00000000000E+00  0.45593999997E+02  0.45594000000E+02  0.51100000000E-03 0.  1.
         11   -1    0    0    0    0 -0.00000000000E+00 -0.00000000000E+00 -0.45593999997E+02  0.45594000000E+02  0.51100000000E-03 0. -1.
    9900012    2    1    2    0    0 -0.38735564304E+02 -0.12695090537E+02  0.14900146498E+02  0.47787266927E+02  0.19999981225E+02 0.  0.
        -12    1    1    2    0    0  0.38735564304E+02  0.12695090537E+02 -0.14900146498E+02  0.43400733073E+02  0.00000000000E+00 0.  1.
         11    1    3    3    0    0 -0.41320624189E+01 -0.29588324478E+01  0.85945058947E+01  0.99846963460E+01  0.51100000000E-03 0. -1.
        -11    1    3    3    0    0 -0.18598712080E+01 -0.25617226626E+01 -0.13131198176E+01  0.34272186721E+01  0.51100000000E-03 0.  1.
        -12    1    3    3    0    0 -0.32743630677E+02 -0.71745354262E+01  0.76187604207E+01  0.34375351908E+02  0.00000000000E+00 0.  1.
</event>
<event>
 7    1  0.4356471E-010  0.4778728E+02  0.7816164E-02  0.1312668E+00
        -11   -1    0    0    0    0  0.00000000000E+00  0.00000000000E+00  0.45593999997E+02  0.45594000000E+02  0.51100000000E-03 0.  1.
         11   -1    0    0    0    0 -0.00000000000E+00 -0.00000000000E+00 -0.45593999997E+02  0.45594000000E+02  0.51100000000E-03 0. -1.
    9900012    2    1    2    0    0 -0.39246380007E+02  0.76280111715E+00 -0.18513840337E+02  0.47787280038E+02  0.20000041006E+02 0.  0.
        -12    1    1    2    0    0  0.39246380007E+02 -0.76280111715E+00  0.18513840337E+02  0.43400719962E+02  0.00000000000E+00 0.  1.
         11    1    3    3    0    0 -0.13015824735E+01  0.25518550450E+01 -0.74791206030E+00  0.29606509110E+01  0.51100000000E-03 0.  1.
        -11    1    3    3    0    0 -0.57342647477E+01 -0.11871689132E+01  0.29174665814E+01  0.65423828793E+01  0.51100000000E-03 0. -1.
         12    1    3    3    0    0 -0.32210532786E+02 -0.60188501468E+00 -0.20683394858E+02  0.38284246248E+02  0.00000000000E+00 0. -1.
</event>
<event>
 7    1  0.4356471E-010  0.4778727E+02  0.7816164E-02  0.1312668E+00
        -11   -1    0    0    0    0  0.00000000000E+00  0.00000000000E+00  0.45593999997E+02  0.45594000000E+02  0.51100000000E-03 0.  1.
         11   -1    0    0    0    0 -0.00000000000E+00 -0.00000000000E+00 -0.45593999997E+02  0.45594000000E+02  0.51100000000E-03 0. -1.
    9900012    2    1    2    0    0  0.36156120342E+02  0.21862206712E+00 -0.24006470393E+02  0.47787268963E+02  0.19999990510E+02 0.  0.
        -12    1    1    2    0    0 -0.36156120342E+02 -0.21862206712E+00  0.24006470393E+02  0.43400731037E+02  0.00000000000E+00 0.  1.
         11    1    3    3    0    0  0.14971144263E+01 -0.10213456675E+01 -0.35974404847E+00  0.18476781699E+01  0.51100000000E-03 0. -1.
        -11    1    3    3    0    0 -0.60171131741E+00 -0.17928855162E+01 -0.61998962757E+01  0.64819139977E+01  0.51100000000E-03 0.  1.
         12    1    3    3    0    0  0.35260717233E+02  0.30328532508E+01 -0.17446830069E+02  0.39457676795E+02  0.00000000000E+00 0. -1.
</event>
<event>
 7    1  0.4553549E-010  0.4778727E+02  0.7816164E-02  0.1312668E+00
        -11   -1    0    0    0    0  0.00000000000E+00  0.00000000000E+00  0.45593999997E+02  0.45594000000E+02  0.51100000000E-03 0. -1.
         11   -1    0    0    0    0 -0.00000000000E+00 -0.00000000000E+00 -0.45593999997E+02  0.45594000000E+02  0.51100000000E-03 0.  1.
    9900012    2    1    2    0    0 -0.43393747507E+02  0.37660555665E+00  0.68124736613E+00  0.47787271292E+02  0.20000001129E+02 0.  0.
        -12    1    1    2    0    0  0.43393747507E+02 -0.37660555665E+00 -0.68124736613E+00  0.43400728708E+02  0.00000000000E+00 0.  1.
         11    1    3    3    0    0 -0.25518933374E+02 -0.64241164390E+01 -0.39913775514E+01  0.26616091516E+02  0.51100000000E-03 0. -1.
        -11    1    3    3    0    0  0.58798828713E+00  0.78528409540E+00 -0.46401413652E+00  0.10852238093E+01  0.51100000000E-03 0.  1.
         12    1    3    3    0    0 -0.18462802420E+02  0.60154379002E+01  0.51366390541E+01  0.20085955967E+02  0.00000000000E+00 0. -1.
</event>
<event>
 7    1  0.4356471E-010  0.4778727E+02  0.7816164E-02  0.1312668E+00
        -11   -1    0    0    0    0  0.00000000000E+00  0.00000000000E+00  0.45593999997E+02  0.45594000000E+02  0.51100000000E-03 0. -1.
         11   -1    0    0    0    0 -0.00000000000E+00 -0.00000000000E+00 -0.45593999997E+02  0.45594000000E+02  0.51100000000E-03 0.  1.
    9900012    2    1    2    0    0  0.34487253359E+02  0.49602519932E+01  0.25877568758E+02  0.47787270641E+02  0.19999998161E+02 0.  0.
        -12    1    1    2    0    0 -0.34487253359E+02 -0.49602519932E+01 -0.25877568758E+02  0.43400729359E+02  0.00000000000E+00 0.  1.
         11    1    3    3    0    0  0.15364347994E+02  0.13216137457E+01  0.69475084295E+01  0.16913832381E+02  0.51100000000E-03 0. -1.
        -11    1    3    3    0    0  0.93534729158E+01  0.89238775850E+01  0.75482407024E+01  0.14969936029E+02  0.51100000000E-03 0.  1.
        -12    1    3    3    0    0  0.97694324489E+01 -0.52852393374E+01  0.11381819626E+02  0.15903502231E+02  0.00000000000E+00 0.  1.
</event>
<event>
 7    1  0.4356471E-010  0.4778728E+02  0.7816164E-02  0.1312668E+00
        -11   -1    0    0    0    0  0.00000000000E+00  0.00000000000E+00  0.45593999997E+02  0.45594000000E+02  0.51100000000E-03 0. -1.
         11   -1    0    0    0    0 -0.00000000000E+00 -0.00000000000E+00 -0.45593999997E+02  0.45594000000E+02  0.51100000000E-03 0.  1.
    9900012    2    1    2    0    0 -0.28525108224E+02 -0.28172508815E+01  0.32588400137E+02  0.47787279669E+02  0.20000039325E+02 0.  0.
        -12    1    1    2    0    0  0.28525108224E+02  0.28172508815E+01 -0.32588400137E+02  0.43400720331E+02  0.00000000000E+00 0.  1.
         11    1    3    3    0    0 -0.18163191938E+02  0.11491552291E+01  0.16566993892E+02  0.24610716893E+02  0.51100000000E-03 0. -1.
        -11    1    3    3    0    0 -0.68767273343E+01  0.23461108272E+01  0.13859682991E+02  0.15648783586E+02  0.51100000000E-03 0.  1.
        -12    1    3    3    0    0 -0.34851889516E+01 -0.63125169378E+01  0.21617232548E+01  0.75277791910E+01  0.00000000000E+00 0.  1.
</event>
<event>
 7    1  0.4356471E-010  0.4778727E+02  0.7816164E-02  0.1312668E+00
        -11   -1    0    0    0    0  0.00000000000E+00  0.00000000000E+00  0.45593999997E+02  0.45594000000E+02  0.51100000000E-03 0.  1.
         11   -1    0    0    0    0 -0.00000000000E+00 -0.00000000000E+00 -0.45593999997E+02  0.45594000000E+02  0.51100000000E-03 0. -1.
    9900012    2    1    2    0    0 -0.22321850463E+02  0.37209407846E+02 -0.90473520246E+00  0.47787267447E+02  0.19999983597E+02 0.  0.
        -12    1    1    2    0    0  0.22321850463E+02 -0.37209407846E+02  0.90473520246E+00  0.43400732553E+02  0.00000000000E+00 0.  1.
         11    1    3    3    0    0 -0.18615424608E+01  0.49563107547E+01 -0.30825803548E+01  0.61263903349E+01  0.51100000000E-03 0. -1.
        -11    1    3    3    0    0  0.53963470618E+00  0.10256782649E+02 -0.32422080078E+01  0.10770548219E+02  0.51100000000E-03 0.  1.
         12    1    3    3    0    0 -0.20999942708E+02  0.21996314443E+02  0.54200531601E+01  0.30890328893E+02  0.00000000000E+00 0. -1.
</event>
<event>
 7    1  0.4356471E-010  0.4778728E+02  0.7816164E-02  0.1312668E+00
        -11   -1    0    0    0    0  0.00000000000E+00  0.00000000000E+00  0.45593999997E+02  0.45594000000E+02  0.51100000000E-03 0.  1.
         11   -1    0    0    0    0 -0.00000000000E+00 -0.00000000000E+00 -0.45593999997E+02  0.45594000000E+02  0.51100000000E-03 0. -1.
    9900012    2    1    2    0    0  0.12484557239E+02  0.41371311994E+02 -0.40216020752E+01  0.47787275251E+02  0.20000019177E+02 0.  0.
        -12    1    1    2    0    0 -0.12484557239E+02 -0.41371311994E+02  0.40216020752E+01  0.43400724749E+02  0.00000000000E+00 0.  1.
         11    1    3    3    0    0  0.17622400200E+01  0.23199199780E+01 -0.47062142835E+01  0.55349771215E+01  0.51100000000E-03 0. -1.
        -11    1    3    3    0    0  0.78363418242E+01  0.25027825397E+02 -0.52626895500E+01  0.26748760697E+02  0.51100000000E-03 0.  1.
        -12    1    3    3    0    0  0.28859753946E+01  0.14023566619E+02  0.59473017583E+01  0.15503537432E+02  0.00000000000E+00 0.  1.
</event>
<event>
 7    1  0.4356471E-010  0.4778727E+02  0.7816164E-02  0.1312668E+00
        -11   -1    0    0    0    0  0.00000000000E+00  0.00000000000E+00  0.45593999997E+02  0.45594000000E+02  0.51100000000E-03 0. -1.
         11   -1    0    0    0    0 -0.00000000000E+00 -0.00000000000E+00 -0.45593999997E+02  0.45594000000E+02  0.51100000000E-03 0.  1.
    9900012    2    1    2    0    0 -0.42694377808E+02  0.74501171555E+01  0.23042636202E+01  0.47787265296E+02  0.19999973790E+02 0.  0.
        -12    1    1    2    0    0  0.42694377808E+02 -0.74501171555E+01 -0.23042636202E+01  0.43400734704E+02  0.00000000000E+00 0.  1.
         11    1    3    3    0    0 -0.15832528318E+02 -0.48163853196E+01 -0.34528614716E+01  0.16905288318E+02  0.51100000000E-03 0.  1.
        -11    1    3    3    0    0 -0.20258968512E+02  0.58227716229E+01  0.46884116053E+01  0.21594251044E+02  0.51100000000E-03 0. -1.
        -12    1    3    3    0    0 -0.66028809779E+01  0.64437308522E+01  0.10687134865E+01  0.92877259337E+01  0.00000000000E+00 0.  1.
</event>
<event>
 7    1  0.4356471E-010  0.4778727E+02  0.7816164E-02  0.1312668E+00
        -11   -1    0    0    0    0  0.00000000000E+00  0.00000000000E+00  0.45593999997E+02  0.45594000000E+02  0.51100000000E-03 0.  1.
         11   -1    0    0    0    0 -0.00000000000E+00 -0.00000000000E+00 -0.45593999997E+02  0.45594000000E+02  0.51100000000E-03 0. -1.
    9900012    2    1    2    0    0 -0.33630441018E+02  0.41523148097E+01 -0.27117799756E+02  0.47787270226E+02  0.19999996268E+02 0.  0.
        -12    1    1    2    0    0  0.33630441018E+02 -0.41523148097E+01  0.27117799756E+02  0.43400729774E+02  0.00000000000E+00 0.  1.
         11    1    3    3    0    0 -0.86513649858E+01 -0.17728239352E+01 -0.28727970617E+01  0.92866562358E+01  0.51100000000E-03 0. -1.
        -11    1    3    3    0    0 -0.20154127730E+02 -0.76427767471E+00 -0.11207992838E+02  0.23073623223E+02  0.51100000000E-03 0.  1.
        -12    1    3    3    0    0 -0.48249483027E+01  0.66894164196E+01 -0.13037009856E+02  0.15426990767E+02  0.00000000000E+00 0.  1.
</event>
<event>
 7    1  0.4356471E-010  0.4778728E+02  0.7816164E-02  0.1312668E+00
        -11   -1    0    0    0    0  0.00000000000E+00  0.00000000000E+00  0.45593999997E+02  0.45594000000E+02  0.51100000000E-03 0.  1.
         11   -1    0    0    0    0 -0.00000000000E+00 -0.00000000000E+00 -0.45593999997E+02  0.45594000000E+02  0.51100000000E-03 0. -1.
    9900012    2    1    2    0    0 -0.14583659034E+02  0.20447197524E+02 -0.35395644043E+02  0.47787278639E+02  0.20000034628E+02 0.  0.
        -12    1    1    2    0    0  0.14583659034E+02 -0.20447197524E+02  0.35395644043E+02  0.43400721361E+02  0.00000000000E+00 0.  1.
         11    1    3    3    0    0 -0.48254798978E+01  0.97234339891E+01 -0.17662883569E+02  0.20731808435E+02  0.51100000000E-03 0. -1.
        -11    1    3    3    0    0 -0.91031359922E+01  0.13301925354E+02 -0.10219585369E+02  0.19085288271E+02  0.51100000000E-03 0.  1.
        -12    1    3    3    0    0 -0.65504314423E+00 -0.25781618185E+01 -0.75131751047E+01  0.79701819325E+01  0.00000000000E+00 0.  1.
</event>
<event>
 7    1  0.4356471E-010  0.4778729E+02  0.7816164E-02  0.1312668E+00
        -11   -1    0    0    0    0  0.00000000000E+00  0.00000000000E+00  0.45593999997E+02  0.45594000000E+02  0.51100000000E-03 0.  1.
         11   -1    0    0    0    0 -0.00000000000E+00 -0.00000000000E+00 -0.45593999997E+02  0.45594000000E+02  0.51100000000E-03 0. -1.
    9900012    2    1    2    0    0 -0.17204159013E+02  0.24970900896E+02 -0.31049838986E+02  0.47787291712E+02  0.20000094230E+02 0.  0.
        -12    1    1    2    0    0  0.17204159013E+02 -0.24970900896E+02  0.31049838986E+02  0.43400708288E+02  0.00000000000E+00 0.  1.
         11    1    3    3    0    0  0.28151200822E+01  0.20563493363E-01 -0.24018265030E+01  0.37005533027E+01  0.51100000000E-03 0. -1.
        -11    1    3    3    0    0  0.24869928507E+00  0.58508737696E+00  0.66217329911E+00  0.91796095356E+00  0.51100000000E-03 0.  1.
        -12    1    3    3    0    0 -0.20267978380E+02  0.24365250025E+02 -0.29310185782E+02  0.43168777455E+02  0.00000000000E+00 0.  1.
</event>
<event>
 7    1  0.4356471E-010  0.4778727E+02  0.7816164E-02  0.1312668E+00
        -11   -1    0    0    0    0  0.00000000000E+00  0.00000000000E+00  0.45593999997E+02  0.45594000000E+02  0.51100000000E-03 0.  1.
         11   -1    0    0    0    0 -0.00000000000E+00 -0.00000000000E+00 -0.45593999997E+02  0.45594000000E+02  0.51100000000E-03 0. -1.
    9900012    2    1    2    0    0  0.33836410830E+02  0.26582628202E+02 -0.56643196679E+01  0.47787270314E+02  0.19999996671E+02 0.  0.
        -12    1    1    2    0    0 -0.33836410830E+02 -0.26582628202E+02  0.56643196679E+01  0.43400729686E+02  0.00000000000E+00 0.  1.
         11    1    3    3    0    0  0.16140614467E+02  0.39564512831E+01 -0.91352784137E+00  0.16643541556E+02  0.51100000000E-03 0. -1.
        -11    1    3    3    0    0  0.89130047390E+01  0.96008376632E+01  0.32737379489E+01  0.13503151400E+02  0.51100000000E-03 0.  1.
         12    1    3    3    0    0  0.87827916231E+01  0.13025339256E+02 -0.80245297754E+01  0.17640577358E+02  0.00000000000E+00 0. -1.
</event>
<event>
 7    1  0.4356471E-010  0.4778728E+02  0.7816164E-02  0.1312668E+00
        -11   -1    0    0    0    0  0.00000000000E+00  0.00000000000E+00  0.45593999997E+02  0.45594000000E+02  0.51100000000E-03 0. -1.
         11   -1    0    0    0    0 -0.00000000000E+00 -0.00000000000E+00 -0.45593999997E+02  0.45594000000E+02  0.51100000000E-03 0.  1.
    9900012    2    1    2    0    0  0.38603154622E+02 -0.16719702447E+02 -0.10671021910E+02  0.47787277595E+02  0.20000029866E+02 0.  0.
        -12    1    1    2    0    0 -0.38603154622E+02  0.16719702447E+02  0.10671021910E+02  0.43400722405E+02  0.00000000000E+00 0.  1.
         11    1    3    3    0    0  0.12764353239E+02 -0.90021545981E+01  0.20762357489E+01  0.15756847913E+02  0.51100000000E-03 0. -1.
        -11    1    3    3    0    0  0.75006362262E+01  0.23863345754E+01 -0.76855049633E+00  0.79085274628E+01  0.51100000000E-03 0.  1.
        -12    1    3    3    0    0  0.18338165157E+02 -0.10103882424E+02 -0.11978707163E+02  0.24121902219E+02  0.00000000000E+00 0.  1.
</event>
<event>
 7    1  0.4356471E-010  0.4778727E+02  0.7816164E-02  0.1312668E+00
        -11   -1    0    0    0    0  0.00000000000E+00  0.00000000000E+00  0.45593999997E+02  0.45594000000E+02  0.51100000000E-03 0. -1.
         11   -1    0    0    0    0 -0.00000000000E+00 -0.00000000000E+00 -0.45593999997E+02  0.45594000000E+02  0.51100000000E-03 0.  1.
    9900012    2    1    2    0    0 -0.26864722746E+02  0.32666227381E+02 -0.97379518377E+01  0.47787269067E+02  0.19999990984E+02 0.  0.
        -12    1    1    2    0    0  0.26864722746E+02 -0.32666227381E+02  0.97379518377E+01  0.43400730933E+02  0.00000000000E+00 0.  1.
         11    1    3    3    0    0 -0.40945863185E+01  0.72982239342E+01 -0.28756105920E+01  0.88486635291E+01  0.51100000000E-03 0. -1.
        -11    1    3    3    0    0 -0.66438310840E+01 -0.15978346844E+01 -0.21741132351E+01  0.71707974293E+01  0.51100000000E-03 0.  1.
        -12    1    3    3    0    0 -0.16126305344E+02  0.26965838131E+02 -0.46882280107E+01  0.31767808109E+02  0.00000000000E+00 0.  1.
</event>
<event>
 7    1  0.4356471E-010  0.4778727E+02  0.7816164E-02  0.1312668E+00
        -11   -1    0    0    0    0  0.00000000000E+00  0.00000000000E+00  0.45593999997E+02  0.45594000000E+02  0.51100000000E-03 0. -1.
         11   -1    0    0    0    0 -0.00000000000E+00 -0.00000000000E+00 -0.45593999997E+02  0.45594000000E+02  0.51100000000E-03 0.  1.
    9900012    2    1    2    0    0 -0.41280771875E+02  0.88447542999E+01  0.10064366561E+02  0.47787270980E+02  0.19999999706E+02 0.  0.
        -12    1    1    2    0    0  0.41280771875E+02 -0.88447542999E+01 -0.10064366561E+02  0.43400729020E+02  0.00000000000E+00 0.  1.
         11    1    3    3    0    0 -0.42223516872E+01  0.31651512610E+01 -0.27324176720E+01  0.59424357692E+01  0.51100000000E-03 0. -1.
        -11    1    3    3    0    0  0.40834966402E+00 -0.11671688391E+00 -0.13221443997E+01  0.13886822365E+01  0.51100000000E-03 0.  1.
         12    1    3    3    0    0 -0.37466769852E+02  0.57963199228E+01  0.14118928632E+02  0.40456152974E+02  0.00000000000E+00 0. -1.
</event>
<event>
 7    1  0.4356471E-010  0.4778726E+02  0.7816164E-02  0.1312668E+00
        -11   -1    0    0    0    0  0.00000000000E+00  0.00000000000E+00  0.45593999997E+02  0.45594000000E+02  0.51100000000E-03 0.  1.
         11   -1    0    0    0    0 -0.00000000000E+00 -0.00000000000E+00 -0.45593999997E+02  0.45594000000E+02  0.51100000000E-03 0. -1.
    9900012    2    1    2    0    0 -0.18785201567E+02  0.11529520559E+02 -0.37387302321E+02  0.47787262483E+02  0.19999960964E+02 0.  0.
        -12    1    1    2    0    0  0.18785201567E+02 -0.11529520559E+02  0.37387302321E+02  0.43400737517E+02  0.00000000000E+00 0.  1.
         11    1    3    3    0    0  0.69192703586E+00 -0.28164691723E+01 -0.36667081118E+01  0.46750412041E+01  0.51100000000E-03 0. -1.
        -11    1    3    3    0    0 -0.14649114931E+01  0.45906229831E+01 -0.13477753268E+02  0.14313267218E+02  0.51100000000E-03 0.  1.
         12    1    3    3    0    0 -0.18012217110E+02  0.97553667484E+01 -0.20242840941E+02  0.28798954060E+02  0.00000000000E+00 0. -1.
</event>
<event>
 7    1  0.4356471E-010  0.4778726E+02  0.7816164E-02  0.1312668E+00
        -11   -1    0    0    0    0  0.00000000000E+00  0.00000000000E+00  0.45593999997E+02  0.45594000000E+02  0.51100000000E-03 0.  1.
         11   -1    0    0    0    0 -0.00000000000E+00 -0.00000000000E+00 -0.45593999997E+02  0.45594000000E+02  0.51100000000E-03 0. -1.
    9900012    2    1    2    0    0  0.32330246146E+02  0.42298821128E+01 -0.28644158478E+02  0.47787256533E+02  0.19999933837E+02 0.  0.
        -12    1    1    2    0    0 -0.32330246146E+02 -0.42298821128E+01  0.28644158478E+02  0.43400743467E+02  0.00000000000E+00 0.  1.
         11    1    3    3    0    0  0.19776668965E+02  0.52466644500E+01 -0.11219754498E+02  0.23335102623E+02  0.51100000000E-03 0. -1.
        -11    1    3    3    0    0  0.32675164004E+01  0.45212551684E+01 -0.27353467076E+01  0.62129327694E+01  0.51100000000E-03 0.  1.
         12    1    3    3    0    0  0.92860607811E+01 -0.55380375056E+01 -0.14689057273E+02  0.18239221140E+02  0.00000000000E+00 0. -1.
</event>
<event>
 7    1  0.4356471E-010  0.4778727E+02  0.7816164E-02  0.1312668E+00
        -11   -1    0    0    0    0  0.00000000000E+00  0.00000000000E+00  0.45593999997E+02  0.45594000000E+02  0.51100000000E-03 0. -1.
         11   -1    0    0    0    0 -0.00000000000E+00 -0.00000000000E+00 -0.45593999997E+02  0.45594000000E+02  0.51100000000E-03 0.  1.
    9900012    2    1    2    0    0 -0.36037043710E+02  0.24181950090E+02  0.43358671481E+00  0.47787271585E+02  0.20000002463E+02 0.  0.
        -12    1    1    2    0    0  0.36037043710E+02 -0.24181950090E+02 -0.43358671481E+00  0.43400728415E+02  0.00000000000E+00 0.  1.
         11    1    3    3    0    0 -0.54614708819E+01  0.99361226962E+01 -0.69975894738E+00  0.11359747412E+02  0.51100000000E-03 0. -1.
        -11    1    3    3    0    0 -0.13978044471E+02  0.46996691825E+01 -0.61013669033E+01  0.15959301238E+02  0.51100000000E-03 0.  1.
        -12    1    3    3    0    0 -0.16597528358E+02  0.95461582115E+01  0.72347125655E+01  0.20468222934E+02  0.00000000000E+00 0.  1.
</event>
<event>
 7    1  0.4356471E-010  0.4778727E+02  0.7816164E-02  0.1312668E+00
        -11   -1    0    0    0    0  0.00000000000E+00  0.00000000000E+00  0.45593999997E+02  0.45594000000E+02  0.51100000000E-03 0.  1.
         11   -1    0    0    0    0 -0.00000000000E+00 -0.00000000000E+00 -0.45593999997E+02  0.45594000000E+02  0.51100000000E-03 0. -1.
    9900012    2    1    2    0    0 -0.22787417924E+02 -0.13878284186E+02 -0.34230839839E+02  0.47787267476E+02  0.19999983729E+02 0.  0.
        -12    1    1    2    0    0  0.22787417924E+02  0.13878284186E+02  0.34230839839E+02  0.43400732524E+02  0.00000000000E+00 0.  1.
         11    1    3    3    0    0 -0.14913740036E+02 -0.61960296327E+01 -0.17460972183E+02  0.23784364085E+02  0.51100000000E-03 0. -1.
        -11    1    3    3    0    0 -0.86100629823E+01 -0.25630088872E+01 -0.32934464260E+01  0.95681235745E+01  0.51100000000E-03 0.  1.
         12    1    3    3    0    0  0.73638509461E+00 -0.51192456660E+01 -0.13476421229E+02  0.14434779816E+02  0.00000000000E+00 0. -1.
</event>
<event>
 7    1  0.4356471E-010  0.4778725E+02  0.7816164E-02  0.1312668E+00
        -11   -1    0    0    0    0  0.00000000000E+00  0.00000000000E+00  0.45593999997E+02  0.45594000000E+02  0.51100000000E-03 0.  1.
         11   -1    0    0    0    0 -0.00000000000E+00 -0.00000000000E+00 -0.45593999997E+02  0.45594000000E+02  0.51100000000E-03 0. -1.
    9900012    2    1    2    0    0  0.24059449138E+02 -0.24409655305E+01 -0.36038998253E+02  0.47787253456E+02  0.19999919806E+02 0.  0.
        -12    1    1    2    0    0 -0.24059449138E+02  0.24409655305E+01  0.36038998253E+02  0.43400746544E+02  0.00000000000E+00 0.  1.
         11    1    3    3    0    0 -0.14218846587E+01  0.11643390791E+01  0.10155122159E+01  0.20996920716E+01  0.51100000000E-03 0. -1.
        -11    1    3    3    0    0  0.41517280118E+01 -0.33120953292E+01 -0.89056680575E+01  0.10369076370E+02  0.51100000000E-03 0.  1.
         12    1    3    3    0    0  0.21329605784E+02 -0.29320928043E+00 -0.28148842411E+02  0.35318485014E+02  0.00000000000E+00 0. -1.
</event>
<event>
 7    1  0.4356471E-010  0.4778727E+02  0.7816164E-02  0.1312668E+00
        -11   -1    0    0    0    0  0.00000000000E+00  0.00000000000E+00  0.45593999997E+02  0.45594000000E+02  0.51100000000E-03 0.  1.
         11   -1    0    0    0    0 -0.00000000000E+00 -0.00000000000E+00 -0.45593999997E+02  0.45594000000E+02  0.51100000000E-03 0. -1.
    9900012    2    1    2    0    0 -0.37342376204E+02  0.73046284804E+01  0.20876136555E+02  0.47787265729E+02  0.19999975764E+02 0.  0.
        -12    1    1    2    0    0  0.37342376204E+02 -0.73046284804E+01 -0.20876136555E+02  0.43400734271E+02  0.00000000000E+00 0.  1.
         11    1    3    3    0    0 -0.15739508559E+02  0.72995960206E+01  0.28265412546E+01  0.17578554191E+02  0.51100000000E-03 0.  1.
        -11    1    3    3    0    0 -0.15794203002E+02 -0.33139085125E+01  0.76897675581E+01  0.17876559050E+02  0.51100000000E-03 0. -1.
        -12    1    3    3    0    0 -0.58086646428E+01  0.33189409723E+01  0.10359827743E+02  0.12332152487E+02  0.00000000000E+00 0.  1.
</event>
<event>
 7    1  0.4356471E-010  0.4778728E+02  0.7816164E-02  0.1312668E+00
        -11   -1    0    0    0    0  0.00000000000E+00  0.00000000000E+00  0.45593999997E+02  0.45594000000E+02  0.51100000000E-03 0. -1.
         11   -1    0    0    0    0 -0.00000000000E+00 -0.00000000000E+00 -0.45593999997E+02  0.45594000000E+02  0.51100000000E-03 0.  1.
    9900012    2    1    2    0    0 -0.42858953920E+02 -0.25574296874E+01  0.63397273215E+01  0.47787279727E+02  0.20000039585E+02 0.  0.
        -12    1    1    2    0    0  0.42858953920E+02  0.25574296874E+01 -0.63397273215E+01  0.43400720273E+02  0.00000000000E+00 0.  1.
         11    1    3    3    0    0 -0.29357325855E+02 -0.47168541722E+00 -0.37783259219E+01  0.29603223060E+02  0.51100000000E-03 0. -1.
        -11    1    3    3    0    0 -0.23370126028E+00  0.13715979701E+01  0.10931803978E+01  0.17694464993E+01  0.51100000000E-03 0.  1.
        -12    1    3    3    0    0 -0.13267926805E+02 -0.34573422403E+01  0.90248728455E+01  0.16414610167E+02  0.00000000000E+00 0.  1.
</event>
<event>
 7    1  0.4356471E-010  0.4778727E+02  0.7816164E-02  0.1312668E+00
        -11   -1    0    0    0    0  0.00000000000E+00  0.00000000000E+00  0.45593999997E+02  0.45594000000E+02  0.51100000000E-03 0.  1.
         11   -1    0    0    0    0 -0.00000000000E+00 -0.00000000000E+00 -0.45593999997E+02  0.45594000000E+02  0.51100000000E-03 0. -1.
    9900012    2    1    2    0    0  0.91979195271E+01 -0.38366950344E+02 -0.18083109570E+02  0.47787268969E+02  0.19999990535E+02 0.  0.
        -12    1    1    2    0    0 -0.91979195271E+01  0.38366950344E+02  0.18083109570E+02  0.43400731031E+02  0.00000000000E+00 0.  1.
         11    1    3    3    0    0 -0.21060043677E+01 -0.97242169774E+01 -0.11088396253E+02  0.14897925424E+02  0.51100000000E-03 0. -1.
        -11    1    3    3    0    0  0.24047513005E+00 -0.18163227478E+01  0.17992398010E+01  0.25679020104E+01  0.51100000000E-03 0.  1.
        -12    1    3    3    0    0  0.11063448765E+02 -0.26826410619E+02 -0.87939531181E+01  0.30321441534E+02  0.00000000000E+00 0.  1.
</event>
<event>
 7    1  0.4356471E-010  0.4778727E+02  0.7816164E-02  0.1312668E+00
        -11   -1    0    0    0    0  0.00000000000E+00  0.00000000000E+00  0.45593999997E+02  0.45594000000E+02  0.51100000000E-03 0. -1.
         11   -1    0    0    0    0 -0.00000000000E+00 -0.00000000000E+00 -0.45593999997E+02  0.45594000000E+02  0.51100000000E-03 0.  1.
    9900012    2    1    2    0    0  0.39553549122E+02  0.12054752505E+02  0.13184182449E+02  0.47787274511E+02  0.20000015804E+02 0.  0.
        -12    1    1    2    0    0 -0.39553549122E+02 -0.12054752505E+02 -0.13184182449E+02  0.43400725489E+02  0.00000000000E+00 0.  1.
         11    1    3    3    0    0 -0.37851999501E+00  0.19272027445E+01 -0.12643691346E+01  0.23358119305E+01  0.51100000000E-03 0.  1.
        -11    1    3    3    0    0  0.12651920025E+02  0.76202055817E+01  0.66563539718E+00  0.14784508250E+02  0.51100000000E-03 0. -1.
         12    1    3    3    0    0  0.27280149092E+02  0.25073441790E+01  0.13782916186E+02  0.30666954331E+02  0.00000000000E+00 0. -1.
</event>
<event>
 7    1  0.4356471E-010  0.4778727E+02  0.7816164E-02  0.1312668E+00
        -11   -1    0    0    0    0  0.00000000000E+00  0.00000000000E+00  0.45593999997E+02  0.45594000000E+02  0.51100000000E-03 0.  1.
         11   -1    0    0    0    0 -0.00000000000E+00 -0.00000000000E+00 -0.45593999997E+02  0.45594000000E+02  0.51100000000E-03 0. -1.
    9900012    2    1    2    0    0 -0.29412559241E+02  0.30054853742E+02  0.10734541644E+02  0.47787271218E+02  0.20000000790E+02 0.  0.
        -12    1    1    2    0    0  0.29412559241E+02 -0.30054853742E+02 -0.10734541644E+02  0.43400728782E+02  0.00000000000E+00 0.  1.
         11    1    3    3    0    0 -0.23988645097E+02  0.15346452852E+02  0.49294099155E+01  0.28900999828E+02  0.51100000000E-03 0. -1.
        -11    1    3    3    0    0 -0.14788763708E+01  0.62029758343E+00  0.37935361214E+01  0.41185872550E+01  0.51100000000E-03 0.  1.
        -12    1    3    3    0    0 -0.39450377731E+01  0.14088103306E+02  0.20115956075E+01  0.14767684134E+02  0.00000000000E+00 0.  1.
</event>
<event>
 7    1  0.4356471E-010  0.4778727E+02  0.7816164E-02  0.1312668E+00
        -11   -1    0    0    0    0  0.00000000000E+00  0.00000000000E+00  0.45593999997E+02  0.45594000000E+02  0.51100000000E-03 0.  1.
         11   -1    0    0    0    0 -0.00000000000E+00 -0.00000000000E+00 -0.45593999997E+02  0.45594000000E+02  0.51100000000E-03 0. -1.
    9900012    2    1    2    0    0  0.17649701309E+02  0.12486695932E+02 -0.37632348154E+02  0.47787272366E+02  0.20000006025E+02 0.  0.
        -12    1    1    2    0    0 -0.17649701309E+02 -0.12486695932E+02  0.37632348154E+02  0.43400727634E+02  0.00000000000E+00 0.  1.
         11    1    3    3    0    0  0.65371928192E+01  0.14236252443E+02 -0.17048233340E+02  0.23152711156E+02  0.51100000000E-03 0. -1.
        -11    1    3    3    0    0  0.53954682781E+01  0.10947846267E+01 -0.38348790829E+01  0.67093911170E+01  0.51100000000E-03 0.  1.
         12    1    3    3    0    0  0.57170402112E+01 -0.28443411379E+01 -0.16749235731E+02  0.17925170093E+02  0.00000000000E+00 0. -1.
</event>
<event>
 7    1  0.4356471E-010  0.4778727E+02  0.7816164E-02  0.1312668E+00
        -11   -1    0    0    0    0  0.00000000000E+00  0.00000000000E+00  0.45593999997E+02  0.45594000000E+02  0.51100000000E-03 0.  1.
         11   -1    0    0    0    0 -0.00000000000E+00 -0.00000000000E+00 -0.45593999997E+02  0.45594000000E+02  0.51100000000E-03 0. -1.
    9900012    2    1    2    0    0  0.41620711598E+01 -0.34947973025E+02 -0.25395661497E+02  0.47787270999E+02  0.19999999794E+02 0.  0.
        -12    1    1    2    0    0 -0.41620711598E+01  0.34947973025E+02  0.25395661497E+02  0.43400729001E+02  0.00000000000E+00 0.  1.
         11    1    3    3    0    0  0.90481791735E+00 -0.57401963941E+00 -0.69994948350E+01  0.70810396282E+01  0.51100000000E-03 0. -1.
        -11    1    3    3    0    0  0.54677007242E+01 -0.87586747905E+01 -0.30596605104E+01  0.10769013789E+02  0.51100000000E-03 0.  1.
         12    1    3    3    0    0 -0.22104474818E+01 -0.25615278595E+02 -0.15336506152E+02  0.29937217582E+02  0.00000000000E+00 0. -1.
</event>
<event>
 7    1  0.4356471E-010  0.4778727E+02  0.7816164E-02  0.1312668E+00
        -11   -1    0    0    0    0  0.00000000000E+00  0.00000000000E+00  0.45593999997E+02  0.45594000000E+02  0.51100000000E-03 0.  1.
         11   -1    0    0    0    0 -0.00000000000E+00 -0.00000000000E+00 -0.45593999997E+02  0.45594000000E+02  0.51100000000E-03 0. -1.
    9900012    2    1    2    0    0 -0.27802064265E+02 -0.73264948340E+01 -0.32511401332E+02  0.47787268203E+02  0.19999987046E+02 0.  0.
        -12    1    1    2    0    0  0.27802064265E+02  0.73264948340E+01  0.32511401332E+02  0.43400731797E+02  0.00000000000E+00 0.  1.
         11    1    3    3    0    0 -0.19696000607E+02 -0.31448886786E+01 -0.21019513818E+02  0.28976589277E+02  0.51100000000E-03 0. -1.
        -11    1    3    3    0    0 -0.93019895938E+01 -0.43893377927E-01 -0.11105091960E+02  0.14486269525E+02  0.51100000000E-03 0.  1.
         12    1    3    3    0    0  0.11959259363E+01 -0.41377127775E+01 -0.38679555349E+00  0.43244094018E+01  0.00000000000E+00 0. -1.
</event>
<event>
 7    1  0.4356471E-010  0.4778727E+02  0.7816164E-02  0.1312668E+00
        -11   -1    0    0    0    0  0.00000000000E+00  0.00000000000E+00  0.45593999997E+02  0.45594000000E+02  0.51100000000E-03 0. -1.
         11   -1    0    0    0    0 -0.00000000000E+00 -0.00000000000E+00 -0.45593999997E+02  0.45594000000E+02  0.51100000000E-03 0.  1.
    9900012    2    1    2    0    0 -0.33379786943E+02  0.26911191288E+02 -0.67231469273E+01  0.47787273076E+02  0.20000009265E+02 0.  0.
        -12    1    1    2    0    0  0.33379786943E+02 -0.26911191288E+02  0.67231469273E+01  0.43400726924E+02  0.00000000000E+00 0.  1.
         11    1    3    3    0    0 -0.13948373514E+00  0.22947967068E+01 -0.40667091753E+01  0.46715812543E+01  0.51100000000E-03 0. -1.
        -11    1    3    3    0    0 -0.42336381308E+00  0.31567747866E+01  0.17904532754E+01  0.36537907937E+01  0.51100000000E-03 0.  1.
         12    1    3    3    0    0 -0.32816939395E+02  0.21459619794E+02 -0.44468910274E+01  0.39461901028E+02  0.00000000000E+00 0. -1.
</event>
<event>
 7    1  0.4356471E-010  0.4778727E+02  0.7816164E-02  0.1312668E+00
        -11   -1    0    0    0    0  0.00000000000E+00  0.00000000000E+00  0.45593999997E+02  0.45594000000E+02  0.51100000000E-03 0.  1.
         11   -1    0    0    0    0 -0.00000000000E+00 -0.00000000000E+00 -0.45593999997E+02  0.45594000000E+02  0.51100000000E-03 0. -1.
    9900012    2    1    2    0    0  0.23124754189E+01 -0.14144129286E+02 -0.40966075329E+02  0.47787271162E+02  0.20000000535E+02 0.  0.
        -12    1    1    2    0    0 -0.23124754189E+01  0.14144129286E+02  0.40966075329E+02  0.43400728838E+02  0.00000000000E+00 0.  1.
         11    1    3    3    0    0  0.95588746494E+00  0.63714400233E+00 -0.10757597914E+01  0.15738274096E+01  0.51100000000E-03 0. -1.
        -11    1    3    3    0    0 -0.59670781194E+01 -0.51369559788E+01 -0.51132501266E+01  0.93882727447E+01  0.51100000000E-03 0.  1.
         12    1    3    3    0    0  0.73236660733E+01 -0.96443173096E+01 -0.34777065411E+02  0.36825171007E+02  0.00000000000E+00 0. -1.
</event>
<event>
 7    1  0.4356471E-010  0.4778727E+02  0.7816164E-02  0.1312668E+00
        -11   -1    0    0    0    0  0.00000000000E+00  0.00000000000E+00  0.45593999997E+02  0.45594000000E+02  0.51100000000E-03 0.  1.
         11   -1    0    0    0    0 -0.00000000000E+00 -0.00000000000E+00 -0.45593999997E+02  0.45594000000E+02  0.51100000000E-03 0. -1.
    9900012    2    1    2    0    0  0.76293237337E+00  0.52086828822E+01 -0.43080282045E+02  0.47787272538E+02  0.20000006809E+02 0.  0.
        -12    1    1    2    0    0 -0.76293237337E+00 -0.52086828822E+01  0.43080282045E+02  0.43400727462E+02  0.00000000000E+00 0.  1.
         11    1    3    3    0    0  0.36263308373E+01  0.84675247490E+01 -0.36428532037E+02  0.37575087456E+02  0.51100000000E-03 0. -1.
        -11    1    3    3    0    0 -0.10262321022E+01 -0.20307474890E+01 -0.75057672727E+01  0.78430625590E+01  0.51100000000E-03 0.  1.
        -12    1    3    3    0    0 -0.18371663617E+01 -0.12280943778E+01  0.85401726438E+00  0.23691225230E+01  0.00000000000E+00 0.  1.
</event>
<event>
 7    1  0.4356471E-010  0.4778727E+02  0.7816164E-02  0.1312668E+00
        -11   -1    0    0    0    0  0.00000000000E+00  0.00000000000E+00  0.45593999997E+02  0.45594000000E+02  0.51100000000E-03 0.  1.
         11   -1    0    0    0    0 -0.00000000000E+00 -0.00000000000E+00 -0.45593999997E+02  0.45594000000E+02  0.51100000000E-03 0. -1.
    9900012    2    1    2    0    0  0.30853615379E+02 -0.29205140092E+02  0.88734199478E+01  0.47787269922E+02  0.19999994882E+02 0.  0.
        -12    1    1    2    0    0 -0.30853615379E+02  0.29205140092E+02 -0.88734199478E+01  0.43400730078E+02  0.00000000000E+00 0.  1.
         11    1    3    3    0    0  0.24880697013E+02 -0.17985152901E+02  0.10398085108E+02  0.32413500010E+02  0.51100000000E-03 0. -1.
        -11    1    3    3    0    0  0.50498216540E+01 -0.10396525494E+02  0.19175492883E+01  0.11716033314E+02  0.51100000000E-03 0.  1.
         12    1    3    3    0    0  0.92309671183E+00 -0.82346169741E+00 -0.34422144489E+01  0.36577365978E+01  0.00000000000E+00 0. -1.
</event>
<event>
 7    1  0.4356471E-010  0.4778727E+02  0.7816164E-02  0.1312668E+00
        -11   -1    0    0    0    0  0.00000000000E+00  0.00000000000E+00  0.45593999997E+02  0.45594000000E+02  0.51100000000E-03 0.  1.
         11   -1    0    0    0    0 -0.00000000000E+00 -0.00000000000E+00 -0.45593999997E+02  0.45594000000E+02  0.51100000000E-03 0. -1.
    9900012    2    1    2    0    0 -0.31104954418E+02  0.22420104926E+02 -0.20333321311E+02  0.47787271322E+02  0.20000001264E+02 0.  0.
        -12    1    1    2    0    0  0.31104954418E+02 -0.22420104926E+02  0.20333321311E+02  0.43400728678E+02  0.00000000000E+00 0.  1.
         11    1    3    3    0    0 -0.13460780313E+02  0.10985387082E+02 -0.13043105222E+02  0.21725421287E+02  0.51100000000E-03 0. -1.
        -11    1    3    3    0    0  0.50668688925E+00  0.44048142411E+01 -0.46395685512E+01  0.64175319793E+01  0.51100000000E-03 0.  1.
         12    1    3    3    0    0 -0.18150860994E+02  0.70299036032E+01 -0.26506475377E+01  0.19644318056E+02  0.00000000000E+00 0. -1.
</event>
<event>
 7    1  0.4356471E-010  0.4778727E+02  0.7816164E-02  0.1312668E+00
        -11   -1    0    0    0    0  0.00000000000E+00  0.00000000000E+00  0.45593999997E+02  0.45594000000E+02  0.51100000000E-03 0. -1.
         11   -1    0    0    0    0 -0.00000000000E+00 -0.00000000000E+00 -0.45593999997E+02  0.45594000000E+02  0.51100000000E-03 0.  1.
    9900012    2    1    2    0    0  0.14449995826E+01  0.43159331949E+02 -0.43367348593E+01  0.47787271581E+02  0.20000002445E+02 0.  0.
        -12    1    1    2    0    0 -0.14449995826E+01 -0.43159331949E+02  0.43367348593E+01  0.43400728419E+02  0.00000000000E+00 0.  1.
         11    1    3    3    0    0  0.87377722436E+00  0.25247231877E+02 -0.65372484038E+01  0.26094478747E+02  0.51100000000E-03 0. -1.
        -11    1    3    3    0    0  0.30125990264E+01  0.56909501108E+01 -0.41948635304E+01  0.76850209081E+01  0.51100000000E-03 0.  1.
         12    1    3    3    0    0 -0.24413766682E+01  0.12221149961E+02  0.63953770749E+01  0.14007771926E+02  0.00000000000E+00 0. -1.
</event>
<event>
 7    1  0.4356471E-010  0.4778727E+02  0.7816164E-02  0.1312668E+00
        -11   -1    0    0    0    0  0.00000000000E+00  0.00000000000E+00  0.45593999997E+02  0.45594000000E+02  0.51100000000E-03 0.  1.
         11   -1    0    0    0    0 -0.00000000000E+00 -0.00000000000E+00 -0.45593999997E+02  0.45594000000E+02  0.51100000000E-03 0. -1.
    9900012    2    1    2    0    0  0.56282242579E+01 -0.42973302666E+02  0.22895410192E+01  0.47787266730E+02  0.19999980329E+02 0.  0.
        -12    1    1    2    0    0 -0.56282242579E+01  0.42973302666E+02 -0.22895410192E+01  0.43400733270E+02  0.00000000000E+00 0.  1.
         11    1    3    3    0    0  0.22181724742E+01 -0.19564232309E+02  0.17353332876E+01  0.19765901367E+02  0.51100000000E-03 0. -1.
        -11    1    3    3    0    0  0.38356537171E+01 -0.13730305327E+02 -0.68610715185E+01  0.15821119633E+02  0.51100000000E-03 0.  1.
         12    1    3    3    0    0 -0.42560193334E+00 -0.96787650295E+01  0.74152792502E+01  0.12200245729E+02  0.00000000000E+00 0. -1.
</event>
<event>
 7    1  0.4356471E-010  0.4778727E+02  0.7816164E-02  0.1312668E+00
        -11   -1    0    0    0    0  0.00000000000E+00  0.00000000000E+00  0.45593999997E+02  0.45594000000E+02  0.51100000000E-03 0.  1.
         11   -1    0    0    0    0 -0.00000000000E+00 -0.00000000000E+00 -0.45593999997E+02  0.45594000000E+02  0.51100000000E-03 0. -1.
    9900012    2    1    2    0    0 -0.17245588049E+02 -0.27135693313E+02 -0.29152482446E+02  0.47787269689E+02  0.19999993821E+02 0.  0.
        -12    1    1    2    0    0  0.17245588049E+02  0.27135693313E+02  0.29152482446E+02  0.43400730311E+02  0.00000000000E+00 0.  1.
         11    1    3    3    0    0 -0.13007676336E+02 -0.77999236816E+01 -0.10330819020E+02  0.18351138247E+02  0.51100000000E-03 0. -1.
        -11    1    3    3    0    0 -0.73335516131E+01 -0.10672511002E+02 -0.79523913504E+01  0.15196183692E+02  0.51100000000E-03 0.  1.
        -12    1    3    3    0    0  0.30956398992E+01 -0.86632586289E+01 -0.10869272076E+02  0.14239947750E+02  0.00000000000E+00 0.  1.
</event>
<event>
 7    1  0.4356471E-010  0.4778726E+02  0.7816164E-02  0.1312668E+00
        -11   -1    0    0    0    0  0.00000000000E+00  0.00000000000E+00  0.45593999997E+02  0.45594000000E+02  0.51100000000E-03 0.  1.
         11   -1    0    0    0    0 -0.00000000000E+00 -0.00000000000E+00 -0.45593999997E+02  0.45594000000E+02  0.51100000000E-03 0. -1.
    9900012    2    1    2    0    0  0.35399856428E+01 -0.22803674016E+02 -0.36757107972E+02  0.47787262294E+02  0.19999960101E+02 0.  0.
        -12    1    1    2    0    0 -0.35399856428E+01  0.22803674016E+02  0.36757107972E+02  0.43400737706E+02  0.00000000000E+00 0.  1.
         11    1    3    3    0    0  0.24412665591E+01  0.12497101186E+01 -0.19666374237E+01  0.33747919655E+01  0.51100000000E-03 0. -1.
        -11    1    3    3    0    0 -0.59468401708E+01 -0.73158681951E+01 -0.11135068797E+02  0.14590291047E+02  0.51100000000E-03 0.  1.
         12    1    3    3    0    0  0.70455592544E+01 -0.16737515939E+02 -0.23655401751E+02  0.29822179281E+02  0.00000000000E+00 0. -1.
</event>
<event>
 7    1  0.4356471E-010  0.4778727E+02  0.7816164E-02  0.1312668E+00
        -11   -1    0    0    0    0  0.00000000000E+00  0.00000000000E+00  0.45593999997E+02  0.45594000000E+02  0.51100000000E-03 0.  1.
         11   -1    0    0    0    0 -0.00000000000E+00 -0.00000000000E+00 -0.45593999997E+02  0.45594000000E+02  0.51100000000E-03 0. -1.
    9900012    2    1    2    0    0  0.37340551974E+00 -0.31791123682E+02 -0.29543326874E+02  0.47787272593E+02  0.20000007060E+02 0.  0.
        -12    1    1    2    0    0 -0.37340551974E+00  0.31791123682E+02  0.29543326874E+02  0.43400727407E+02  0.00000000000E+00 0.  1.
         11    1    3    3    0    0  0.35309850618E+01 -0.22885837075E+02 -0.97215100956E+01  0.25114480941E+02  0.51100000000E-03 0. -1.
        -11    1    3    3    0    0 -0.18348507951E+00 -0.71112413688E+01 -0.10136693803E+02  0.12383698240E+02  0.51100000000E-03 0.  1.
         12    1    3    3    0    0 -0.29740944626E+01 -0.17940452388E+01 -0.96851229756E+01  0.10289093412E+02  0.00000000000E+00 0. -1.
</event>
<event>
 7    1  0.4356471E-010  0.4778727E+02  0.7816164E-02  0.1312668E+00
        -11   -1    0    0    0    0  0.00000000000E+00  0.00000000000E+00  0.45593999997E+02  0.45594000000E+02  0.51100000000E-03 0.  1.
         11   -1    0    0    0    0 -0.00000000000E+00 -0.00000000000E+00 -0.45593999997E+02  0.45594000000E+02  0.51100000000E-03 0. -1.
    9900012    2    1    2    0    0  0.16615896328E+02  0.13195345674E+02 -0.37860508588E+02  0.47787271103E+02  0.20000000269E+02 0.  0.
        -12    1    1    2    0    0 -0.16615896328E+02 -0.13195345674E+02  0.37860508588E+02  0.43400728897E+02  0.00000000000E+00 0.  1.
         11    1    3    3    0    0  0.13649545063E+02  0.12705974654E+02 -0.27055902724E+02  0.32859910908E+02  0.51100000000E-03 0. -1.
        -11    1    3    3    0    0  0.38555030978E+01  0.43832723333E+01 -0.85137926087E+01  0.10322918450E+02  0.51100000000E-03 0.  1.
        -12    1    3    3    0    0 -0.88915183329E+00 -0.38939013135E+01 -0.22908132545E+01  0.46044417456E+01  0.00000000000E+00 0.  1.
</event>
<event>
 7    1  0.4356471E-010  0.4778727E+02  0.7816164E-02  0.1312668E+00
        -11   -1    0    0    0    0  0.00000000000E+00  0.00000000000E+00  0.45593999997E+02  0.45594000000E+02  0.51100000000E-03 0.  1.
         11   -1    0    0    0    0 -0.00000000000E+00 -0.00000000000E+00 -0.45593999997E+02  0.45594000000E+02  0.51100000000E-03 0. -1.
    9900012    2    1    2    0    0  0.25284132904E+02 -0.33484928791E+02  0.11094828429E+02  0.47787273615E+02  0.20000011720E+02 0.  0.
        -12    1    1    2    0    0 -0.25284132904E+02  0.33484928791E+02 -0.11094828429E+02  0.43400726385E+02  0.00000000000E+00 0.  1.
         11    1    3    3    0    0  0.69710095918E+01 -0.85345595992E+01 -0.47906597117E+01  0.12015993634E+02  0.51100000000E-03 0. -1.
        -11    1    3    3    0    0 -0.74254574644E+00 -0.21975919577E+01  0.17066901975E+01  0.28798569912E+01  0.51100000000E-03 0.  1.
        -12    1    3    3    0    0  0.19055669059E+02 -0.22752777234E+02  0.14178797944E+02  0.32891422990E+02  0.00000000000E+00 0.  1.
</event>
<event>
 7    1  0.4356471E-010  0.4778727E+02  0.7816164E-02  0.1312668E+00
        -11   -1    0    0    0    0  0.00000000000E+00  0.00000000000E+00  0.45593999997E+02  0.45594000000E+02  0.51100000000E-03 0.  1.
         11   -1    0    0    0    0 -0.00000000000E+00 -0.00000000000E+00 -0.45593999997E+02  0.45594000000E+02  0.51100000000E-03 0. -1.
    9900012    2    1    2    0    0 -0.17790521134E+02  0.33372270130E+01 -0.39445953294E+02  0.47787274688E+02  0.20000016612E+02 0.  0.
        -12    1    1    2    0    0  0.17790521134E+02 -0.33372270130E+01  0.39445953294E+02  0.43400725312E+02  0.00000000000E+00 0.  1.
         11    1    3    3    0    0 -0.47966062682E+01  0.91265384426E-01 -0.45727048193E+01  0.66276233062E+01  0.51100000000E-03 0. -1.
        -11    1    3    3    0    0  0.26214975753E+01  0.53645939923E+01 -0.11706819930E+02  0.13141565789E+02  0.51100000000E-03 0.  1.
        -12    1    3    3    0    0 -0.15615412441E+02 -0.21186323638E+01 -0.23166428544E+02  0.28018085593E+02  0.00000000000E+00 0.  1.
</event>
<event>
 7    1  0.4356471E-010  0.4778727E+02  0.7816164E-02  0.1312668E+00
        -11   -1    0    0    0    0  0.00000000000E+00  0.00000000000E+00  0.45593999997E+02  0.45594000000E+02  0.51100000000E-03 0. -1.
         11   -1    0    0    0    0 -0.00000000000E+00 -0.00000000000E+00 -0.45593999997E+02  0.45594000000E+02  0.51100000000E-03 0.  1.
    9900012    2    1    2    0    0  0.25042283472E+02 -0.78290205368E+01  0.34571864242E+02  0.47787270499E+02  0.19999997511E+02 0.  0.
        -12    1    1    2    0    0 -0.25042283472E+02  0.78290205368E+01 -0.34571864242E+02  0.43400729501E+02  0.00000000000E+00 0.  1.
         11    1    3    3    0    0 -0.41483713068E+00 -0.13910694161E+01  0.37479520235E+01  0.40192422914E+01  0.51100000000E-03 0.  1.
        -11    1    3    3    0    0  0.18673580252E+02  0.16514317507E+01  0.26264207931E+02  0.32268226551E+02  0.51100000000E-03 0. -1.
         12    1    3    3    0    0  0.67835403507E+01 -0.80893828714E+01  0.45597042878E+01  0.11499801656E+02  0.00000000000E+00 0. -1.
</event>
<event>
 7    1  0.4356471E-010  0.4778727E+02  0.7816164E-02  0.1312668E+00
        -11   -1    0    0    0    0  0.00000000000E+00  0.00000000000E+00  0.45593999997E+02  0.45594000000E+02  0.51100000000E-03 0. -1.
         11   -1    0    0    0    0 -0.00000000000E+00 -0.00000000000E+00 -0.45593999997E+02  0.45594000000E+02  0.51100000000E-03 0.  1.
    9900012    2    1    2    0    0 -0.36027550869E+01  0.31574221076E+02  0.29558622887E+02  0.47787268811E+02  0.19999989815E+02 0.  0.
        -12    1    1    2    0    0  0.36027550869E+01 -0.31574221076E+02 -0.29558622887E+02  0.43400731189E+02  0.00000000000E+00 0.  1.
         11    1    3    3    0    0  0.16116068117E+01  0.13874910831E+01  0.40084799796E+01  0.45376557857E+01  0.51100000000E-03 0. -1.
        -11    1    3    3    0    0 -0.96312162144E+01  0.88526257054E+01  0.10424590619E+02  0.16727265093E+02  0.51100000000E-03 0.  1.
         12    1    3    3    0    0  0.44168543158E+01  0.21334104288E+02  0.15125552289E+02  0.26522347932E+02  0.00000000000E+00 0. -1.
</event>
<event>
 7    1  0.4356471E-010  0.4778727E+02  0.7816164E-02  0.1312668E+00
        -11   -1    0    0    0    0  0.00000000000E+00  0.00000000000E+00  0.45593999997E+02  0.45594000000E+02  0.51100000000E-03 0.  1.
         11   -1    0    0    0    0 -0.00000000000E+00 -0.00000000000E+00 -0.45593999997E+02  0.45594000000E+02  0.51100000000E-03 0. -1.
    9900012    2    1    2    0    0  0.14954211197E+02 -0.40005574473E+02 -0.77167949189E+01  0.47787270222E+02  0.19999996250E+02 0.  0.
        -12    1    1    2    0    0 -0.14954211197E+02  0.40005574473E+02  0.77167949189E+01  0.43400729778E+02  0.00000000000E+00 0.  1.
         11    1    3    3    0    0  0.20157768035E+01 -0.48706439496E+01 -0.64592534290E+01  0.83371748049E+01  0.51100000000E-03 0.  1.
        -11    1    3    3    0    0  0.65836649055E+00 -0.36925060818E+01  0.37751100568E+01  0.53216072574E+01  0.51100000000E-03 0. -1.
         12    1    3    3    0    0  0.12280067903E+02 -0.31442424442E+02 -0.50326515466E+01  0.34128488160E+02  0.00000000000E+00 0. -1.
</event>
<event>
 7    1  0.4356471E-010  0.4778727E+02  0.7816164E-02  0.1312668E+00
        -11   -1    0    0    0    0  0.00000000000E+00  0.00000000000E+00  0.45593999997E+02  0.45594000000E+02  0.51100000000E-03 0.  1.
         11   -1    0    0    0    0 -0.00000000000E+00 -0.00000000000E+00 -0.45593999997E+02  0.45594000000E+02  0.51100000000E-03 0. -1.
    9900012    2    1    2    0    0  0.33330186769E+02  0.24665207907E+02 -0.12819891136E+02  0.47787269131E+02  0.19999991277E+02 0.  0.
        -12    1    1    2    0    0 -0.33330186769E+02 -0.24665207907E+02  0.12819891136E+02  0.43400730869E+02  0.00000000000E+00 0.  1.
         11    1    3    3    0    0  0.22230941411E+01 -0.43399851781E+00 -0.99822892910E+00  0.24752703953E+01  0.51100000000E-03 0.  1.
        -11    1    3    3    0    0  0.62790637293E+01 -0.13573580783E+01  0.16114355029E+01  0.66231251619E+01  0.51100000000E-03 0. -1.
         12    1    3    3    0    0  0.24828028899E+02  0.26456564503E+02 -0.13433097710E+02  0.38688873574E+02  0.00000000000E+00 0. -1.
</event>
<event>
 7    1  0.4356471E-010  0.4778727E+02  0.7816164E-02  0.1312668E+00
        -11   -1    0    0    0    0  0.00000000000E+00  0.00000000000E+00  0.45593999997E+02  0.45594000000E+02  0.51100000000E-03 0. -1.
         11   -1    0    0    0    0 -0.00000000000E+00 -0.00000000000E+00 -0.45593999997E+02  0.45594000000E+02  0.51100000000E-03 0.  1.
    9900012    2    1    2    0    0 -0.41535236542E+02  0.11334875687E+02 -0.54743297403E+01  0.47787267661E+02  0.19999984573E+02 0.  0.
        -12    1    1    2    0    0  0.41535236542E+02 -0.11334875687E+02  0.54743297403E+01  0.43400732339E+02  0.00000000000E+00 0.  1.
         11    1    3    3    0    0 -0.97448992750E+01  0.26546699319E+01 -0.82682040284E+01  0.13052721266E+02  0.51100000000E-03 0. -1.
        -11    1    3    3    0    0 -0.36324257352E+01  0.50617977952E+01  0.34985133855E+00  0.62400889306E+01  0.51100000000E-03 0.  1.
        -12    1    3    3    0    0 -0.28157911532E+02  0.36184079600E+01  0.24440229496E+01  0.28494457464E+02  0.00000000000E+00 0.  1.
</event>
<event>
 7    1  0.4356471E-010  0.4778727E+02  0.7816164E-02  0.1312668E+00
        -11   -1    0    0    0    0  0.00000000000E+00  0.00000000000E+00  0.45593999997E+02  0.45594000000E+02  0.51100000000E-03 0.  1.
         11   -1    0    0    0    0 -0.00000000000E+00 -0.00000000000E+00 -0.45593999997E+02  0.45594000000E+02  0.51100000000E-03 0. -1.
    9900012    2    1    2    0    0  0.62618524537E+01  0.18611038820E+02 -0.38704542658E+02  0.47787272074E+02  0.20000004694E+02 0.  0.
        -12    1    1    2    0    0 -0.62618524537E+01 -0.18611038820E+02  0.38704542658E+02  0.43400727926E+02  0.00000000000E+00 0.  1.
         11    1    3    3    0    0  0.11964495196E+01 -0.26480041826E+01 -0.11263676502E+01  0.31164277544E+01  0.51100000000E-03 0. -1.
        -11    1    3    3    0    0 -0.51392832451E+00 -0.46129979109E+00  0.21658569634E+00  0.72376062685E+00  0.51100000000E-03 0.  1.
        -12    1    3    3    0    0  0.55793312586E+01  0.21720342794E+02 -0.37794760704E+02  0.43947083693E+02  0.00000000000E+00 0.  1.
</event>
<event>
 7    1  0.4356471E-010  0.4778726E+02  0.7816164E-02  0.1312668E+00
        -11   -1    0    0    0    0  0.00000000000E+00  0.00000000000E+00  0.45593999997E+02  0.45594000000E+02  0.51100000000E-03 0.  1.
         11   -1    0    0    0    0 -0.00000000000E+00 -0.00000000000E+00 -0.45593999997E+02  0.45594000000E+02  0.51100000000E-03 0. -1.
    9900012    2    1    2    0    0 -0.16638334766E+02  0.28478432052E+02 -0.28209370889E+02  0.47787264040E+02  0.19999968064E+02 0.  0.
        -12    1    1    2    0    0  0.16638334766E+02 -0.28478432052E+02  0.28209370889E+02  0.43400735960E+02  0.00000000000E+00 0.  1.
         11    1    3    3    0    0 -0.72141199065E+01  0.21983463621E+02 -0.16664790413E+02  0.28513706153E+02  0.51100000000E-03 0. -1.
        -11    1    3    3    0    0 -0.28227658443E+01  0.48178425038E+01 -0.11127147909E+02  0.12449619844E+02  0.51100000000E-03 0.  1.
         12    1    3    3    0    0 -0.66014490148E+01  0.16771259277E+01 -0.41743256686E+00  0.68239380434E+01  0.00000000000E+00 0. -1.
</event>
<event>
 7    1  0.4356471E-010  0.4778727E+02  0.7816164E-02  0.1312668E+00
        -11   -1    0    0    0    0  0.00000000000E+00  0.00000000000E+00  0.45593999997E+02  0.45594000000E+02  0.51100000000E-03 0.  1.
         11   -1    0    0    0    0 -0.00000000000E+00 -0.00000000000E+00 -0.45593999997E+02  0.45594000000E+02  0.51100000000E-03 0. -1.
    9900012    2    1    2    0    0 -0.31623447536E+02 -0.83573570425E+01 -0.28526044290E+02  0.47787273582E+02  0.20000011571E+02 0.  0.
        -12    1    1    2    0    0  0.31623447536E+02  0.83573570425E+01  0.28526044290E+02  0.43400726418E+02  0.00000000000E+00 0.  1.
         11    1    3    3    0    0 -0.13467706784E+02 -0.16562654297E+01 -0.38087836488E+01  0.14093586284E+02  0.51100000000E-03 0. -1.
        -11    1    3    3    0    0 -0.10368366808E+02 -0.81915786802E+01 -0.86979167969E+01  0.15819568528E+02  0.51100000000E-03 0.  1.
         12    1    3    3    0    0 -0.77873739436E+01  0.14904870674E+01 -0.16019343844E+02  0.17874118771E+02  0.00000000000E+00 0. -1.
</event>
<event>
 7    1  0.4356471E-010  0.4778727E+02  0.7816164E-02  0.1312668E+00
        -11   -1    0    0    0    0  0.00000000000E+00  0.00000000000E+00  0.45593999997E+02  0.45594000000E+02  0.51100000000E-03 0.  1.
         11   -1    0    0    0    0 -0.00000000000E+00 -0.00000000000E+00 -0.45593999997E+02  0.45594000000E+02  0.51100000000E-03 0. -1.
    9900012    2    1    2    0    0 -0.14700572446E+02 -0.38275302043E+02 -0.14230864459E+02  0.47787273278E+02  0.20000010186E+02 0.  0.
        -12    1    1    2    0    0  0.14700572446E+02  0.38275302043E+02  0.14230864459E+02  0.43400726722E+02  0.00000000000E+00 0.  1.
         11    1    3    3    0    0 -0.28237441523E+01 -0.17284162696E+02 -0.71265321849E+01  0.18907756937E+02  0.51100000000E-03 0. -1.
        -11    1    3    3    0    0  0.96449136875E+00 -0.41224182596E+01 -0.63923530805E+01  0.76672520550E+01  0.51100000000E-03 0.  1.
        -12    1    3    3    0    0 -0.12841319663E+02 -0.16868721087E+02 -0.71197919338E+00  0.21212264287E+02  0.00000000000E+00 0.  1.
</event>
<event>
 7    1  0.4356471E-010  0.4778726E+02  0.7816164E-02  0.1312668E+00
        -11   -1    0    0    0    0  0.00000000000E+00  0.00000000000E+00  0.45593999997E+02  0.45594000000E+02  0.51100000000E-03 0.  1.
         11   -1    0    0    0    0 -0.00000000000E+00 -0.00000000000E+00 -0.45593999997E+02  0.45594000000E+02  0.51100000000E-03 0. -1.
    9900012    2    1    2    0    0  0.98353426392E+01 -0.13949888889E+02 -0.39903514792E+02  0.47787264319E+02  0.19999969336E+02 0.  0.
        -12    1    1    2    0    0 -0.98353426392E+01  0.13949888889E+02  0.39903514792E+02  0.43400735681E+02  0.00000000000E+00 0.  1.
         11    1    3    3    0    0  0.21651385590E+01 -0.10443605797E+02 -0.25387787867E+02  0.27537183953E+02  0.51100000000E-03 0. -1.
        -11    1    3    3    0    0 -0.14084356257E+01  0.64467780933E+00 -0.84031224065E+01  0.85446923191E+01  0.51100000000E-03 0.  1.
        -12    1    3    3    0    0  0.90786397059E+01 -0.41509609017E+01 -0.61126045186E+01  0.11705388046E+02  0.00000000000E+00 0.  1.
</event>
<event>
 7    1  0.4356471E-010  0.4778727E+02  0.7816164E-02  0.1312668E+00
        -11   -1    0    0    0    0  0.00000000000E+00  0.00000000000E+00  0.45593999997E+02  0.45594000000E+02  0.51100000000E-03 0.  1.
         11   -1    0    0    0    0 -0.00000000000E+00 -0.00000000000E+00 -0.45593999997E+02  0.45594000000E+02  0.51100000000E-03 0. -1.
    9900012    2    1    2    0    0 -0.20479408409E+01 -0.37788890002E+02 -0.21246869069E+02  0.47787265968E+02  0.19999976853E+02 0.  0.
        -12    1    1    2    0    0  0.20479408409E+01  0.37788890002E+02  0.21246869069E+02  0.43400734032E+02  0.00000000000E+00 0.  1.
         11    1    3    3    0    0 -0.58087564350E+01 -0.85802456965E+01 -0.82008566680E+01  0.13214246777E+02  0.51100000000E-03 0.  1.
        -11    1    3    3    0    0 -0.17295776375E+01 -0.14182495418E+02 -0.11793557805E+02  0.18526268406E+02  0.51100000000E-03 0. -1.
         12    1    3    3    0    0  0.54903932316E+01 -0.15026148888E+02 -0.12524545962E+01  0.16046750785E+02  0.00000000000E+00 0. -1.
</event>
<event>
 7    1  0.4356471E-010  0.4778727E+02  0.7816164E-02  0.1312668E+00
        -11   -1    0    0    0    0  0.00000000000E+00  0.00000000000E+00  0.45593999997E+02  0.45594000000E+02  0.51100000000E-03 0.  1.
         11   -1    0    0    0    0 -0.00000000000E+00 -0.00000000000E+00 -0.45593999997E+02  0.45594000000E+02  0.51100000000E-03 0. -1.
    9900012    2    1    2    0    0 -0.11549030495E+01 -0.18147723791E+02 -0.39407485811E+02  0.47787267082E+02  0.19999981932E+02 0.  0.
        -12    1    1    2    0    0  0.11549030495E+01  0.18147723791E+02  0.39407485811E+02  0.43400732918E+02  0.00000000000E+00 0.  1.
         11    1    3    3    0    0 -0.38679257360E+01 -0.90252362593E+00 -0.13626427359E+02  0.14193481646E+02  0.51100000000E-03 0. -1.
        -11    1    3    3    0    0 -0.41914229850E+01 -0.12290203898E+02 -0.16733515935E+02  0.21180833183E+02  0.51100000000E-03 0.  1.
        -12    1    3    3    0    0  0.69044456716E+01 -0.49549962671E+01 -0.90475425172E+01  0.12412952253E+02  0.00000000000E+00 0.  1.
</event>
<event>
 7    1  0.4356471E-010  0.4778727E+02  0.7816164E-02  0.1312668E+00
        -11   -1    0    0    0    0  0.00000000000E+00  0.00000000000E+00  0.45593999997E+02  0.45594000000E+02  0.51100000000E-03 0.  1.
         11   -1    0    0    0    0 -0.00000000000E+00 -0.00000000000E+00 -0.45593999997E+02  0.45594000000E+02  0.51100000000E-03 0. -1.
    9900012    2    1    2    0    0 -0.74254946630E+01  0.42759929632E+02 -0.27122639356E+00  0.47787272854E+02  0.20000008249E+02 0.  0.
        -12    1    1    2    0    0  0.74254946630E+01 -0.42759929632E+02  0.27122639356E+00  0.43400727146E+02  0.00000000000E+00 0.  1.
         11    1    3    3    0    0 -0.67815522757E+01  0.42297783636E+02  0.38179279909E+01  0.43007772858E+02  0.51100000000E-03 0. -1.
        -11    1    3    3    0    0  0.52716324012E+00 -0.36378613269E+00 -0.26051901834E+00  0.69145632697E+00  0.51100000000E-03 0.  1.
         12    1    3    3    0    0 -0.11711056275E+01  0.82593212823E+00 -0.38286353661E+01  0.40880436688E+01  0.00000000000E+00 0. -1.
</event>
<event>
 7    1  0.4356471E-010  0.4778727E+02  0.7816164E-02  0.1312668E+00
        -11   -1    0    0    0    0  0.00000000000E+00  0.00000000000E+00  0.45593999997E+02  0.45594000000E+02  0.51100000000E-03 0.  1.
         11   -1    0    0    0    0 -0.00000000000E+00 -0.00000000000E+00 -0.45593999997E+02  0.45594000000E+02  0.51100000000E-03 0. -1.
    9900012    2    1    2    0    0  0.26745940841E+02 -0.34024167124E+02 -0.32609868202E+01  0.47787270340E+02  0.19999996788E+02 0.  0.
        -12    1    1    2    0    0 -0.26745940841E+02  0.34024167124E+02  0.32609868202E+01  0.43400729660E+02  0.00000000000E+00 0.  1.
         11    1    3    3    0    0 -0.13136195269E+01 -0.33969555978E+01 -0.25558795570E+01  0.44494296450E+01  0.51100000000E-03 0. -1.
        -11    1    3    3    0    0  0.20826851283E+01 -0.95000924179E+01 -0.15229838098E+01  0.98442274069E+01  0.51100000000E-03 0.  1.
         12    1    3    3    0    0  0.25976875240E+02 -0.21127119109E+02  0.81787654659E+00  0.33493613288E+02  0.00000000000E+00 0. -1.
</event>
<event>
 7    1  0.4356471E-010  0.4778727E+02  0.7816164E-02  0.1312668E+00
        -11   -1    0    0    0    0  0.00000000000E+00  0.00000000000E+00  0.45593999997E+02  0.45594000000E+02  0.51100000000E-03 0.  1.
         11   -1    0    0    0    0 -0.00000000000E+00 -0.00000000000E+00 -0.45593999997E+02  0.45594000000E+02  0.51100000000E-03 0. -1.
    9900012    2    1    2    0    0 -0.35784564224E+02 -0.16080175946E+01 -0.24505161831E+02  0.47787265978E+02  0.19999976902E+02 0.  0.
        -12    1    1    2    0    0  0.35784564224E+02  0.16080175946E+01  0.24505161831E+02  0.43400734022E+02  0.00000000000E+00 0.  1.
         11    1    3    3    0    0 -0.25697416045E+02 -0.12161349263E-01 -0.13355725472E+02  0.28960882971E+02  0.51100000000E-03 0. -1.
        -11    1    3    3    0    0 -0.92594521351E+01 -0.44169030320E+00 -0.13322550599E+02  0.16230308035E+02  0.51100000000E-03 0.  1.
        -12    1    3    3    0    0 -0.82769604302E+00 -0.11541659421E+01  0.21731142406E+01  0.25960749728E+01  0.00000000000E+00 0.  1.
</event>
<event>
 7    1  0.4356471E-010  0.4778727E+02  0.7816164E-02  0.1312668E+00
        -11   -1    0    0    0    0  0.00000000000E+00  0.00000000000E+00  0.45593999997E+02  0.45594000000E+02  0.51100000000E-03 0.  1.
         11   -1    0    0    0    0 -0.00000000000E+00 -0.00000000000E+00 -0.45593999997E+02  0.45594000000E+02  0.51100000000E-03 0. -1.
    9900012    2    1    2    0    0 -0.25948198754E+02 -0.95654999632E+01 -0.33448697754E+02  0.47787272016E+02  0.20000004429E+02 0.  0.
        -12    1    1    2    0    0  0.25948198754E+02  0.95654999632E+01  0.33448697754E+02  0.43400727984E+02  0.00000000000E+00 0.  1.
         11    1    3    3    0    0 -0.45148852051E+01 -0.84184329389E+01 -0.13754010049E+02  0.16745954563E+02  0.51100000000E-03 0.  1.
        -11    1    3    3    0    0 -0.88995565177E+00  0.27824929639E+01 -0.36798273739E+01  0.46984484587E+01  0.51100000000E-03 0. -1.
        -12    1    3    3    0    0 -0.20543357897E+02 -0.39295599881E+01 -0.16014860331E+02  0.26342868994E+02  0.00000000000E+00 0.  1.
</event>
<event>
 7    1  0.4356471E-010  0.4778727E+02  0.7816164E-02  0.1312668E+00
        -11   -1    0    0    0    0  0.00000000000E+00  0.00000000000E+00  0.45593999997E+02  0.45594000000E+02  0.51100000000E-03 0.  1.
         11   -1    0    0    0    0 -0.00000000000E+00 -0.00000000000E+00 -0.45593999997E+02  0.45594000000E+02  0.51100000000E-03 0. -1.
    9900012    2    1    2    0    0  0.42406256314E+02 -0.80061643735E+01 -0.46080323978E+01  0.47787271837E+02  0.20000003612E+02 0.  0.
        -12    1    1    2    0    0 -0.42406256314E+02  0.80061643735E+01  0.46080323978E+01  0.43400728163E+02  0.00000000000E+00 0.  1.
         11    1    3    3    0    0  0.12222748347E+02  0.12134769586E+01 -0.56064296126E+01  0.13501857529E+02  0.51100000000E-03 0. -1.
        -11    1    3    3    0    0  0.13706695716E+02  0.15301404806E+01 -0.32247703627E+01  0.14163826513E+02  0.51100000000E-03 0.  1.
         12    1    3    3    0    0  0.16476812251E+02 -0.10749781813E+02  0.42231675775E+01  0.20121587794E+02  0.00000000000E+00 0. -1.
</event>
<event>
 7    1  0.4356471E-010  0.4778726E+02  0.7816164E-02  0.1312668E+00
        -11   -1    0    0    0    0  0.00000000000E+00  0.00000000000E+00  0.45593999997E+02  0.45594000000E+02  0.51100000000E-03 0. -1.
         11   -1    0    0    0    0 -0.00000000000E+00 -0.00000000000E+00 -0.45593999997E+02  0.45594000000E+02  0.51100000000E-03 0.  1.
    9900012    2    1    2    0    0 -0.87893827401E+01 -0.41978167553E+02  0.66486461038E+01  0.47787259279E+02  0.19999946359E+02 0.  0.
        -12    1    1    2    0    0  0.87893827401E+01  0.41978167553E+02 -0.66486461038E+01  0.43400740721E+02  0.00000000000E+00 0.  1.
         11    1    3    3    0    0 -0.69061653796E+01 -0.17383398830E+02  0.52043661288E+01  0.19415537649E+02  0.51100000000E-03 0. -1.
        -11    1    3    3    0    0 -0.39139408940E+01 -0.20759667224E+02 -0.39052919659E+01  0.21483342900E+02  0.51100000000E-03 0.  1.
        -12    1    3    3    0    0  0.20307235335E+01 -0.38351014989E+01  0.53495719409E+01  0.68883787299E+01  0.00000000000E+00 0.  1.
</event>
<event>
 7    1  0.4356471E-010  0.4778728E+02  0.7816164E-02  0.1312668E+00
        -11   -1    0    0    0    0  0.00000000000E+00  0.00000000000E+00  0.45593999997E+02  0.45594000000E+02  0.51100000000E-03 0. -1.
         11   -1    0    0    0    0 -0.00000000000E+00 -0.00000000000E+00 -0.45593999997E+02  0.45594000000E+02  0.51100000000E-03 0.  1.
    9900012    2    1    2    0    0  0.39118541994E+02  0.36836341223E+01 -0.18433485622E+02  0.47787275579E+02  0.20000020675E+02 0.  0.
        -12    1    1    2    0    0 -0.39118541994E+02 -0.36836341223E+01  0.18433485622E+02  0.43400724421E+02  0.00000000000E+00 0.  1.
         11    1    3    3    0    0  0.16156526577E+02 -0.51794442798E+01 -0.72618160790E+01  0.18455188081E+02  0.51100000000E-03 0. -1.
        -11    1    3    3    0    0  0.91670005203E+01 -0.21044678906E+01 -0.27469521262E+01  0.97983891475E+01  0.51100000000E-03 0.  1.
         12    1    3    3    0    0  0.13795014896E+02  0.10967546293E+02 -0.84247174172E+01  0.19533698350E+02  0.00000000000E+00 0. -1.
</event>
<event>
 7    1  0.4468781E-010  0.4778726E+02  0.7816164E-02  0.1312668E+00
        -11   -1    0    0    0    0  0.00000000000E+00  0.00000000000E+00  0.45593999997E+02  0.45594000000E+02  0.51100000000E-03 0.  1.
         11   -1    0    0    0    0 -0.00000000000E+00 -0.00000000000E+00 -0.45593999997E+02  0.45594000000E+02  0.51100000000E-03 0. -1.
    9900012    2    1    2    0    0 -0.15823673283E+02 -0.36288663261E+02 -0.17786758596E+02  0.47787256933E+02  0.19999935658E+02 0.  0.
        -12    1    1    2    0    0  0.15823673283E+02  0.36288663261E+02  0.17786758596E+02  0.43400743067E+02  0.00000000000E+00 0.  1.
         11    1    3    3    0    0 -0.10516630785E+02 -0.16502699232E+02 -0.56856255312E+01  0.20378050519E+02  0.51100000000E-03 0. -1.
        -11    1    3    3    0    0 -0.23880530482E+01 -0.46172566312E+01  0.28358267314E+01  0.59214668513E+01  0.51100000000E-03 0.  1.
        -12    1    3    3    0    0 -0.29189894493E+01 -0.15168707398E+02 -0.14936959797E+02  0.21487739562E+02  0.00000000000E+00 0.  1.
</event>
<event>
 7    1  0.4356471E-010  0.4778727E+02  0.7816164E-02  0.1312668E+00
        -11   -1    0    0    0    0  0.00000000000E+00  0.00000000000E+00  0.45593999997E+02  0.45594000000E+02  0.51100000000E-03 0.  1.
         11   -1    0    0    0    0 -0.00000000000E+00 -0.00000000000E+00 -0.45593999997E+02  0.45594000000E+02  0.51100000000E-03 0. -1.
    9900012    2    1    2    0    0 -0.36830422403E+02  0.19720125432E+02  0.11758404929E+02  0.47787269039E+02  0.19999990857E+02 0.  0.
        -12    1    1    2    0    0  0.36830422403E+02 -0.19720125432E+02 -0.11758404929E+02  0.43400730961E+02  0.00000000000E+00 0.  1.
         11    1    3    3    0    0 -0.49316659309E+01  0.32835671222E+01 -0.49428617025E+00  0.59453730731E+01  0.51100000000E-03 0. -1.
        -11    1    3    3    0    0 -0.22204325508E+01 -0.10616126478E+01 -0.32377635100E+01  0.40669958119E+01  0.51100000000E-03 0.  1.
         12    1    3    3    0    0 -0.29678323922E+02  0.17498170958E+02  0.15490454609E+02  0.37774900154E+02  0.00000000000E+00 0. -1.
</event>
<event>
 7    1  0.4356471E-010  0.4778727E+02  0.7816164E-02  0.1312668E+00
        -11   -1    0    0    0    0  0.00000000000E+00  0.00000000000E+00  0.45593999997E+02  0.45594000000E+02  0.51100000000E-03 0.  1.
         11   -1    0    0    0    0 -0.00000000000E+00 -0.00000000000E+00 -0.45593999997E+02  0.45594000000E+02  0.51100000000E-03 0. -1.
    9900012    2    1    2    0    0  0.28993763006E+02 -0.29486876098E+02 -0.13172273098E+02  0.47787274962E+02  0.20000017861E+02 0.  0.
        -12    1    1    2    0    0 -0.28993763006E+02  0.29486876098E+02  0.13172273098E+02  0.43400725038E+02  0.00000000000E+00 0.  1.
         11    1    3    3    0    0  0.17828807930E+02 -0.10078527421E+02 -0.72123713094E+01  0.21713162076E+02  0.51100000000E-03 0. -1.
        -11    1    3    3    0    0  0.10655145183E+02 -0.15780829145E+02 -0.92330388654E+01  0.21161656228E+02  0.51100000000E-03 0.  1.
        -12    1    3    3    0    0  0.50980989275E+00 -0.36275195322E+01  0.32731370769E+01  0.49124566571E+01  0.00000000000E+00 0.  1.
</event>
<event>
 7    1  0.4356471E-010  0.4778727E+02  0.7816164E-02  0.1312668E+00
        -11   -1    0    0    0    0  0.00000000000E+00  0.00000000000E+00  0.45593999997E+02  0.45594000000E+02  0.51100000000E-03 0.  1.
         11   -1    0    0    0    0 -0.00000000000E+00 -0.00000000000E+00 -0.45593999997E+02  0.45594000000E+02  0.51100000000E-03 0. -1.
    9900012    2    1    2    0    0  0.10686758463E+02  0.36891234028E+02 -0.20210231319E+02  0.47787269539E+02  0.19999993137E+02 0.  0.
        -12    1    1    2    0    0 -0.10686758463E+02 -0.36891234028E+02  0.20210231319E+02  0.43400730461E+02  0.00000000000E+00 0.  1.
         11    1    3    3    0    0  0.57238669233E+01  0.10873906903E+02 -0.83754655872E+01  0.14871211381E+02  0.51100000000E-03 0. -1.
        -11    1    3    3    0    0  0.10109217241E+00  0.77514403651E+01 -0.11674073952E+02  0.14013530970E+02  0.51100000000E-03 0.  1.
         12    1    3    3    0    0  0.48617993675E+01  0.18265886760E+02 -0.16069178015E+00  0.18902527187E+02  0.00000000000E+00 0. -1.
</event>
<event>
 7    1  0.4356471E-010  0.4778728E+02  0.7816164E-02  0.1312668E+00
        -11   -1    0    0    0    0  0.00000000000E+00  0.00000000000E+00  0.45593999997E+02  0.45594000000E+02  0.51100000000E-03 0. -1.
         11   -1    0    0    0    0 -0.00000000000E+00 -0.00000000000E+00 -0.45593999997E+02  0.45594000000E+02  0.51100000000E-03 0.  1.
    9900012    2    1    2    0    0 -0.39631628400E+02  0.17553116695E+02  0.22011292298E+01  0.47787275983E+02  0.20000022517E+02 0.  0.
        -12    1    1    2    0    0  0.39631628400E+02 -0.17553116695E+02 -0.22011292298E+01  0.43400724017E+02  0.00000000000E+00 0.  1.
         11    1    3    3    0    0 -0.13005058846E+02  0.76496154776E+01 -0.26477184156E+00  0.15090337204E+02  0.51100000000E-03 0. -1.
        -11    1    3    3    0    0 -0.25848516971E+02  0.44526693692E+01 -0.89800587807E+00  0.26244590089E+02  0.51100000000E-03 0.  1.
         12    1    3    3    0    0 -0.77805258292E+00  0.54508318481E+01  0.33639069494E+01  0.64523486904E+01  0.00000000000E+00 0. -1.
</event>
<event>
 7    1  0.4356471E-010  0.4778727E+02  0.7816164E-02  0.1312668E+00
        -11   -1    0    0    0    0  0.00000000000E+00  0.00000000000E+00  0.45593999997E+02  0.45594000000E+02  0.51100000000E-03 0. -1.
         11   -1    0    0    0    0 -0.00000000000E+00 -0.00000000000E+00 -0.45593999997E+02  0.45594000000E+02  0.51100000000E-03 0.  1.
    9900012    2    1    2    0    0  0.99153685303E+01  0.42248532804E+02  0.60868423900E+00  0.47787267821E+02  0.19999985304E+02 0.  0.
        -12    1    1    2    0    0 -0.99153685303E+01 -0.42248532804E+02 -0.60868423900E+00  0.43400732179E+02  0.00000000000E+00 0.  1.
         11    1    3    3    0    0  0.51179515964E+01  0.16057159781E+02 -0.41689094592E+01  0.17361037271E+02  0.51100000000E-03 0. -1.
        -11    1    3    3    0    0  0.22363001192E+01  0.90329742515E+01 -0.49461635497E+01  0.10538510150E+02  0.51100000000E-03 0.  1.
         12    1    3    3    0    0  0.25611168147E+01  0.17158398771E+02  0.97237572479E+01  0.19887720401E+02  0.00000000000E+00 0. -1.
</event>
<event>
 7    1  0.4356471E-010  0.4778727E+02  0.7816164E-02  0.1312668E+00
        -11   -1    0    0    0    0  0.00000000000E+00  0.00000000000E+00  0.45593999997E+02  0.45594000000E+02  0.51100000000E-03 0.  1.
         11   -1    0    0    0    0 -0.00000000000E+00 -0.00000000000E+00 -0.45593999997E+02  0.45594000000E+02  0.51100000000E-03 0. -1.
    9900012    2    1    2    0    0  0.40565365102E+01  0.50738595076E+01 -0.42911812824E+02  0.47787271681E+02  0.20000002902E+02 0.  0.
        -12    1    1    2    0    0 -0.40565365102E+01 -0.50738595076E+01  0.42911812824E+02  0.43400728319E+02  0.00000000000E+00 0.  1.
         11    1    3    3    0    0  0.51244684028E+01  0.28235991226E+01 -0.94340823507E+01  0.11101116992E+02  0.51100000000E-03 0. -1.
        -11    1    3    3    0    0  0.49095990753E+01 -0.33019477682E+01 -0.20675372833E+02  0.21505303165E+02  0.51100000000E-03 0.  1.
        -12    1    3    3    0    0 -0.59775309678E+01  0.55522081531E+01 -0.12802357640E+02  0.15180851524E+02  0.00000000000E+00 0.  1.
</event>
<event>
 7    1  0.4356471E-010  0.4778732E+02  0.7816164E-02  0.1312668E+00
        -11   -1    0    0    0    0  0.00000000000E+00  0.00000000000E+00  0.45593999997E+02  0.45594000000E+02  0.51100000000E-03 0.  1.
         11   -1    0    0    0    0 -0.00000000000E+00 -0.00000000000E+00 -0.45593999997E+02  0.45594000000E+02  0.51100000000E-03 0. -1.
    9900012    2    1    2    0    0  0.16630305245E+02  0.40086928333E+02  0.29957634504E+00  0.47787324640E+02  0.20000244363E+02 0.  0.
        -12    1    1    2    0    0 -0.16630305245E+02 -0.40086928333E+02 -0.29957634504E+00  0.43400675360E+02  0.00000000000E+00 0.  1.
         11    1    3    3    0    0  0.58364581225E+01  0.25768849065E+02  0.39378845564E+01  0.26713381677E+02  0.51100000000E-03 0. -1.
        -11    1    3    3    0    0  0.72468953464E+00  0.36894855158E+01  0.31789254200E+01  0.49237227156E+01  0.51100000000E-03 0.  1.
         12    1    3    3    0    0  0.10069157588E+02  0.10628593751E+02 -0.68172336314E+01  0.16150220248E+02  0.00000000000E+00 0. -1.
</event>
<event>
 7    1  0.4356471E-010  0.4778727E+02  0.7816164E-02  0.1312668E+00
        -11   -1    0    0    0    0  0.00000000000E+00  0.00000000000E+00  0.45593999997E+02  0.45594000000E+02  0.51100000000E-03 0.  1.
         11   -1    0    0    0    0 -0.00000000000E+00 -0.00000000000E+00 -0.45593999997E+02  0.45594000000E+02  0.51100000000E-03 0. -1.
    9900012    2    1    2    0    0 -0.11194455654E+02 -0.13730239432E+02 -0.39620549777E+02  0.47787271009E+02  0.19999999840E+02 0.  0.
        -12    1    1    2    0    0  0.11194455654E+02  0.13730239432E+02  0.39620549777E+02  0.43400728991E+02  0.00000000000E+00 0.  1.
         11    1    3    3    0    0  0.26513432373E+01 -0.26327059367E+01 -0.15982144648E+02  0.16413095665E+02  0.51100000000E-03 0. -1.
        -11    1    3    3    0    0 -0.77505852267E+01 -0.39730131629E+01 -0.19026596247E+02  0.20925290200E+02  0.51100000000E-03 0.  1.
        -12    1    3    3    0    0 -0.60952136651E+01 -0.71245203319E+01 -0.46118088822E+01  0.10448885144E+02  0.00000000000E+00 0.  1.
</event>
<event>
 7    1  0.4356471E-010  0.4778723E+02  0.7816164E-02  0.1312668E+00
        -11   -1    0    0    0    0  0.00000000000E+00  0.00000000000E+00  0.45593999997E+02  0.45594000000E+02  0.51100000000E-03 0.  1.
         11   -1    0    0    0    0 -0.00000000000E+00 -0.00000000000E+00 -0.45593999997E+02  0.45594000000E+02  0.51100000000E-03 0. -1.
    9900012    2    1    2    0    0  0.15947596247E+02 -0.12856284719E+02 -0.38262471215E+02  0.47787232883E+02  0.19999826006E+02 0.  0.
        -12    1    1    2    0    0 -0.15947596247E+02  0.12856284719E+02  0.38262471215E+02  0.43400767117E+02  0.00000000000E+00 0.  1.
         11    1    3    3    0    0  0.78434457881E+01 -0.34940581031E+01 -0.17084310726E+02  0.19120715392E+02  0.51100000000E-03 0. -1.
        -11    1    3    3    0    0  0.45639219385E+01  0.28901581717E+01 -0.11334156953E+02  0.12555696389E+02  0.51100000000E-03 0.  1.
        -12    1    3    3    0    0  0.35402285206E+01 -0.12252384787E+02 -0.98440035366E+01  0.16110821102E+02  0.00000000000E+00 0.  1.
</event>
<event>
 7    1  0.4356471E-010  0.4778728E+02  0.7816164E-02  0.1312668E+00
        -11   -1    0    0    0    0  0.00000000000E+00  0.00000000000E+00  0.45593999997E+02  0.45594000000E+02  0.51100000000E-03 0.  1.
         11   -1    0    0    0    0 -0.00000000000E+00 -0.00000000000E+00 -0.45593999997E+02  0.45594000000E+02  0.51100000000E-03 0. -1.
    9900012    2    1    2    0    0  0.36687154723E+02 -0.22505647540E+02 -0.55830912571E+01  0.47787281102E+02  0.20000045857E+02 0.  0.
        -12    1    1    2    0    0 -0.36687154723E+02  0.22505647540E+02  0.55830912571E+01  0.43400718898E+02  0.00000000000E+00 0.  1.
         11    1    3    3    0    0  0.10634840450E+02 -0.13330901956E+02  0.11149448990E+00  0.17053598143E+02  0.51100000000E-03 0.  1.
        -11    1    3    3    0    0  0.17167460601E+02 -0.65085002271E+01  0.22799581098E+01  0.18500823980E+02  0.51100000000E-03 0. -1.
         12    1    3    3    0    0  0.88848536717E+01 -0.26662453575E+01 -0.79745438567E+01  0.12232858979E+02  0.00000000000E+00 0. -1.
</event>
<event>
 7    1  0.4356471E-010  0.4778727E+02  0.7816164E-02  0.1312668E+00
        -11   -1    0    0    0    0  0.00000000000E+00  0.00000000000E+00  0.45593999997E+02  0.45594000000E+02  0.51100000000E-03 0.  1.
         11   -1    0    0    0    0 -0.00000000000E+00 -0.00000000000E+00 -0.45593999997E+02  0.45594000000E+02  0.51100000000E-03 0. -1.
    9900012    2    1    2    0    0 -0.24543435260E+02  0.17728311763E+02 -0.31095814813E+02  0.47787274762E+02  0.20000016950E+02 0.  0.
        -12    1    1    2    0    0  0.24543435260E+02 -0.17728311763E+02  0.31095814813E+02  0.43400725238E+02  0.00000000000E+00 0.  1.
         11    1    3    3    0    0 -0.76492025490E+01  0.15053690810E+02 -0.21177381071E+02  0.27085150469E+02  0.51100000000E-03 0. -1.
        -11    1    3    3    0    0 -0.20713195765E+00 -0.20811480942E+00 -0.19761830114E+01  0.19978776182E+01  0.51100000000E-03 0.  1.
         12    1    3    3    0    0 -0.16687100753E+02  0.28827357625E+01 -0.79422507306E+01  0.18704246675E+02  0.00000000000E+00 0. -1.
</event>
<event>
 7    1  0.4356471E-010  0.4778727E+02  0.7816164E-02  0.1312668E+00
        -11   -1    0    0    0    0  0.00000000000E+00  0.00000000000E+00  0.45593999997E+02  0.45594000000E+02  0.51100000000E-03 0.  1.
         11   -1    0    0    0    0 -0.00000000000E+00 -0.00000000000E+00 -0.45593999997E+02  0.45594000000E+02  0.51100000000E-03 0. -1.
    9900012    2    1    2    0    0  0.66814005698E+01 -0.17349275931E+02 -0.39217145049E+02  0.47787274721E+02  0.20000016764E+02 0.  0.
        -12    1    1    2    0    0 -0.66814005698E+01  0.17349275931E+02  0.39217145049E+02  0.43400725279E+02  0.00000000000E+00 0.  1.
         11    1    3    3    0    0  0.57187365080E+01 -0.31414144244E+01 -0.74268758495E+01  0.98858948497E+01  0.51100000000E-03 0. -1.
        -11    1    3    3    0    0  0.76641515544E+00  0.13909545301E+01 -0.14606904346E+02  0.14692984773E+02  0.51100000000E-03 0.  1.
         12    1    3    3    0    0  0.19624890638E+00 -0.15598816036E+02 -0.17183364854E+02  0.23208395099E+02  0.00000000000E+00 0. -1.
</event>
<event>
 7    1  0.4356471E-010  0.4778728E+02  0.7816164E-02  0.1312668E+00
        -11   -1    0    0    0    0  0.00000000000E+00  0.00000000000E+00  0.45593999997E+02  0.45594000000E+02  0.51100000000E-03 0. -1.
         11   -1    0    0    0    0 -0.00000000000E+00 -0.00000000000E+00 -0.45593999997E+02  0.45594000000E+02  0.51100000000E-03 0.  1.
    9900012    2    1    2    0    0  0.42419573712E+02 -0.83112318748E+01 -0.38892101848E+01  0.47787276906E+02  0.20000026725E+02 0.  0.
        -12    1    1    2    0    0 -0.42419573712E+02  0.83112318748E+01  0.38892101848E+01  0.43400723094E+02  0.00000000000E+00 0.  1.
         11    1    3    3    0    0  0.19385342072E+02 -0.29659576929E+01  0.38114553420E+00  0.19614628838E+02  0.51100000000E-03 0. -1.
        -11    1    3    3    0    0  0.15230101808E+02  0.16961500265E+01 -0.76550812730E+01  0.17129891872E+02  0.51100000000E-03 0.  1.
         12    1    3    3    0    0  0.78041298330E+01 -0.70414242084E+01  0.33847255540E+01  0.11042756196E+02  0.00000000000E+00 0. -1.
</event>
<event>
 7    1  0.4356471E-010  0.4778727E+02  0.7816164E-02  0.1312668E+00
        -11   -1    0    0    0    0  0.00000000000E+00  0.00000000000E+00  0.45593999997E+02  0.45594000000E+02  0.51100000000E-03 0.  1.
         11   -1    0    0    0    0 -0.00000000000E+00 -0.00000000000E+00 -0.45593999997E+02  0.45594000000E+02  0.51100000000E-03 0. -1.
    9900012    2    1    2    0    0  0.11197349480E+01 -0.38968828259E+02 -0.19073551874E+02  0.47787265406E+02  0.19999974292E+02 0.  0.
        -12    1    1    2    0    0 -0.11197349480E+01  0.38968828259E+02  0.19073551874E+02  0.43400734594E+02  0.00000000000E+00 0.  1.
         11    1    3    3    0    0  0.74174534932E+01 -0.12261326939E+02 -0.82801285510E+01  0.16550507053E+02  0.51100000000E-03 0. -1.
        -11    1    3    3    0    0 -0.21436346072E+00 -0.55111555883E+00 -0.33053426550E+01  0.33578222676E+01  0.51100000000E-03 0.  1.
         12    1    3    3    0    0 -0.60833550846E+01 -0.26156385761E+02 -0.74880806684E+01  0.27878936086E+02  0.00000000000E+00 0. -1.
</event>
<event>
 7    1  0.4356471E-010  0.4778727E+02  0.7816164E-02  0.1312668E+00
        -11   -1    0    0    0    0  0.00000000000E+00  0.00000000000E+00  0.45593999997E+02  0.45594000000E+02  0.51100000000E-03 0. -1.
         11   -1    0    0    0    0 -0.00000000000E+00 -0.00000000000E+00 -0.45593999997E+02  0.45594000000E+02  0.51100000000E-03 0.  1.
    9900012    2    1    2    0    0 -0.33062839339E+02  0.25941755405E+02  0.10839615898E+02  0.47787270841E+02  0.19999999073E+02 0.  0.
        -12    1    1    2    0    0  0.33062839339E+02 -0.25941755405E+02 -0.10839615898E+02  0.43400729159E+02  0.00000000000E+00 0.  1.
         11    1    3    3    0    0 -0.11472442971E+00  0.20319315902E+01  0.21148061891E+01  0.29350150188E+01  0.51100000000E-03 0. -1.
        -11    1    3    3    0    0 -0.68699150351E+01  0.14082689926E+02  0.64029974160E-01  0.15669141273E+02  0.51100000000E-03 0.  1.
         12    1    3    3    0    0 -0.26078199875E+02  0.98271338895E+01  0.86607797349E+01  0.29183114549E+02  0.00000000000E+00 0. -1.
</event>
<event>
 7    1  0.4356471E-010  0.4778726E+02  0.7816164E-02  0.1312668E+00
        -11   -1    0    0    0    0  0.00000000000E+00  0.00000000000E+00  0.45593999997E+02  0.45594000000E+02  0.51100000000E-03 0.  1.
         11   -1    0    0    0    0 -0.00000000000E+00 -0.00000000000E+00 -0.45593999997E+02  0.45594000000E+02  0.51100000000E-03 0. -1.
    9900012    2    1    2    0    0  0.20394448265E+02  0.23563585281E+02 -0.30206752529E+02  0.47787263029E+02  0.19999963452E+02 0.  0.
        -12    1    1    2    0    0 -0.20394448265E+02 -0.23563585281E+02  0.30206752529E+02  0.43400736971E+02  0.00000000000E+00 0.  1.
         11    1    3    3    0    0  0.20036995348E+02  0.22075437847E+02 -0.22644135127E+02  0.37437454436E+02  0.51100000000E-03 0. -1.
        -11    1    3    3    0    0  0.22183247891E+01  0.25334626117E+01 -0.74923330059E+01  0.82142834019E+01  0.51100000000E-03 0.  1.
        -12    1    3    3    0    0 -0.18608718720E+01 -0.10453151776E+01 -0.70284395536E-01  0.21355251909E+01  0.00000000000E+00 0.  1.
</event>
<event>
 7    1  0.4356471E-010  0.4778727E+02  0.7816164E-02  0.1312668E+00
        -11   -1    0    0    0    0  0.00000000000E+00  0.00000000000E+00  0.45593999997E+02  0.45594000000E+02  0.51100000000E-03 0.  1.
         11   -1    0    0    0    0 -0.00000000000E+00 -0.00000000000E+00 -0.45593999997E+02  0.45594000000E+02  0.51100000000E-03 0. -1.
    9900012    2    1    2    0    0  0.10317820352E+02  0.28303416800E+01 -0.42061325115E+02  0.47787270498E+02  0.19999997509E+02 0.  0.
        -12    1    1    2    0    0 -0.10317820352E+02 -0.28303416800E+01  0.42061325115E+02  0.43400729502E+02  0.00000000000E+00 0.  1.
         11    1    3    3    0    0  0.27412499193E+01  0.77931248956E+00 -0.14761042048E+00  0.28536937772E+01  0.51100000000E-03 0. -1.
        -11    1    3    3    0    0  0.67477021088E+01 -0.45235484281E+01 -0.13486293693E+02  0.15744017656E+02  0.51100000000E-03 0.  1.
         12    1    3    3    0    0  0.82886832363E+00  0.65745776185E+01 -0.28427421002E+02  0.29189559065E+02  0.00000000000E+00 0. -1.
</event>
<event>
 7    1  0.4356471E-010  0.4778727E+02  0.7816164E-02  0.1312668E+00
        -11   -1    0    0    0    0  0.00000000000E+00  0.00000000000E+00  0.45593999997E+02  0.45594000000E+02  0.51100000000E-03 0.  1.
         11   -1    0    0    0    0 -0.00000000000E+00 -0.00000000000E+00 -0.45593999997E+02  0.45594000000E+02  0.51100000000E-03 0. -1.
    9900012    2    1    2    0    0  0.30534993846E+02  0.23936948191E+02 -0.19448911480E+02  0.47787268490E+02  0.19999988353E+02 0.  0.
        -12    1    1    2    0    0 -0.30534993846E+02 -0.23936948191E+02  0.19448911480E+02  0.43400731510E+02  0.00000000000E+00 0.  1.
         11    1    3    3    0    0  0.13995023296E+02  0.11892969258E+02 -0.13117753886E+02  0.22569423167E+02  0.51100000000E-03 0. -1.
        -11    1    3    3    0    0  0.17760698480E+02  0.81492202149E+01 -0.75643483723E+01  0.20954034627E+02  0.51100000000E-03 0.  1.
        -12    1    3    3    0    0 -0.12207279300E+01  0.38947587185E+01  0.12331907784E+01  0.42638106958E+01  0.00000000000E+00 0.  1.
</event>
<event>
 7    1  0.4356471E-010  0.4778728E+02  0.7816164E-02  0.1312668E+00
        -11   -1    0    0    0    0  0.00000000000E+00  0.00000000000E+00  0.45593999997E+02  0.45594000000E+02  0.51100000000E-03 0. -1.
         11   -1    0    0    0    0 -0.00000000000E+00 -0.00000000000E+00 -0.45593999997E+02  0.45594000000E+02  0.51100000000E-03 0.  1.
    9900012    2    1    2    0    0  0.19806920391E+02 -0.38352916162E+02 -0.45124878453E+01  0.47787276273E+02  0.20000023839E+02 0.  0.
        -12    1    1    2    0    0 -0.19806920391E+02  0.38352916162E+02  0.45124878453E+01  0.43400723727E+02  0.00000000000E+00 0.  1.
         11    1    3    3    0    0  0.91205497385E+01 -0.15561236382E+02  0.93348618617E+00  0.18061226481E+02  0.51100000000E-03 0. -1.
        -11    1    3    3    0    0  0.13180204290E+02 -0.23174564462E+02 -0.45338823813E+01  0.27043193466E+02  0.51100000000E-03 0.  1.
        -12    1    3    3    0    0 -0.24938336370E+01  0.38288468250E+00 -0.91209165009E+00  0.26828563263E+01  0.00000000000E+00 0.  1.
</event>
<event>
 7    1  0.4356471E-010  0.4778728E+02  0.7816164E-02  0.1312668E+00
        -11   -1    0    0    0    0  0.00000000000E+00  0.00000000000E+00  0.45593999997E+02  0.45594000000E+02  0.51100000000E-03 0.  1.
         11   -1    0    0    0    0 -0.00000000000E+00 -0.00000000000E+00 -0.45593999997E+02  0.45594000000E+02  0.51100000000E-03 0. -1.
    9900012    2    1    2    0    0 -0.20056167066E+02  0.91158738025E+01 -0.37393500904E+02  0.47787275324E+02  0.20000019512E+02 0.  0.
        -12    1    1    2    0    0  0.20056167066E+02 -0.91158738025E+01  0.37393500904E+02  0.43400724676E+02  0.00000000000E+00 0.  1.
         11    1    3    3    0    0 -0.24332662724E+01  0.13755834482E+01 -0.11887732625E+02  0.12211928668E+02  0.51100000000E-03 0. -1.
        -11    1    3    3    0    0 -0.13098482449E+02  0.17815499381E+01 -0.24745535232E+02  0.28055047261E+02  0.51100000000E-03 0.  1.
        -12    1    3    3    0    0 -0.45244183446E+01  0.59587404162E+01 -0.76023304728E+00  0.75202993950E+01  0.00000000000E+00 0.  1.
</event>
<event>
 7    1  0.4356471E-010  0.4778727E+02  0.7816164E-02  0.1312668E+00
        -11   -1    0    0    0    0  0.00000000000E+00  0.00000000000E+00  0.45593999997E+02  0.45594000000E+02  0.51100000000E-03 0. -1.
         11   -1    0    0    0    0 -0.00000000000E+00 -0.00000000000E+00 -0.45593999997E+02  0.45594000000E+02  0.51100000000E-03 0.  1.
    9900012    2    1    2    0    0  0.16842362473E+02 -0.20473587480E+02  0.34362630898E+02  0.47787270050E+02  0.19999995465E+02 0.  0.
        -12    1    1    2    0    0 -0.16842362473E+02  0.20473587480E+02 -0.34362630898E+02  0.43400729950E+02  0.00000000000E+00 0.  1.
         11    1    3    3    0    0  0.69935507365E+01 -0.16273084935E+02  0.30174646812E+02  0.34989031935E+02  0.51100000000E-03 0. -1.
        -11    1    3    3    0    0  0.39058834428E+01 -0.24984864772E+01  0.46912696635E+01  0.65959359808E+01  0.51100000000E-03 0.  1.
        -12    1    3    3    0    0  0.59429282932E+01 -0.17020160679E+01 -0.50328557755E+00  0.62023021344E+01  0.00000000000E+00 0.  1.
</event>
<event>
 7    1  0.4356471E-010  0.4778727E+02  0.7816164E-02  0.1312668E+00
        -11   -1    0    0    0    0  0.00000000000E+00  0.00000000000E+00  0.45593999997E+02  0.45594000000E+02  0.51100000000E-03 0.  1.
         11   -1    0    0    0    0 -0.00000000000E+00 -0.00000000000E+00 -0.45593999997E+02  0.45594000000E+02  0.51100000000E-03 0. -1.
    9900012    2    1    2    0    0 -0.40263531942E+02 -0.12608327703E+02 -0.10173553138E+02  0.47787272871E+02  0.20000008327E+02 0.  0.
        -12    1    1    2    0    0  0.40263531942E+02  0.12608327703E+02  0.10173553138E+02  0.43400727129E+02  0.00000000000E+00 0.  1.
         11    1    3    3    0    0 -0.12373754187E+02 -0.57162427866E+01 -0.40247838708E+01  0.14212111376E+02  0.51100000000E-03 0. -1.
        -11    1    3    3    0    0 -0.21974531338E+02 -0.35569993812E+01  0.26971276347E+01  0.22423353225E+02  0.51100000000E-03 0.  1.
         12    1    3    3    0    0 -0.59152464164E+01 -0.33350855350E+01 -0.88458969018E+01  0.11151808270E+02  0.00000000000E+00 0. -1.
</event>
<event>
 7    1  0.4356471E-010  0.4778727E+02  0.7816164E-02  0.1312668E+00
        -11   -1    0    0    0    0  0.00000000000E+00  0.00000000000E+00  0.45593999997E+02  0.45594000000E+02  0.51100000000E-03 0.  1.
         11   -1    0    0    0    0 -0.00000000000E+00 -0.00000000000E+00 -0.45593999997E+02  0.45594000000E+02  0.51100000000E-03 0. -1.
    9900012    2    1    2    0    0  0.98373935017E+01  0.34314650865E+02 -0.24685091889E+02  0.47787270324E+02  0.19999996714E+02 0.  0.
        -12    1    1    2    0    0 -0.98373935017E+01 -0.34314650865E+02  0.24685091889E+02  0.43400729676E+02  0.00000000000E+00 0.  1.
         11    1    3    3    0    0  0.68990604406E+01  0.18996840318E+02 -0.31441081429E+01  0.20453908998E+02  0.51100000000E-03 0. -1.
        -11    1    3    3    0    0 -0.12472740346E+01  0.13501705209E+01 -0.86121958316E+00  0.20298651148E+01  0.51100000000E-03 0.  1.
        -12    1    3    3    0    0  0.41856070957E+01  0.13967640026E+02 -0.20679764163E+02  0.25303496211E+02  0.00000000000E+00 0.  1.
</event>
<event>
 7    1  0.4356471E-010  0.4778727E+02  0.7816164E-02  0.1312668E+00
        -11   -1    0    0    0    0  0.00000000000E+00  0.00000000000E+00  0.45593999997E+02  0.45594000000E+02  0.51100000000E-03 0.  1.
         11   -1    0    0    0    0 -0.00000000000E+00 -0.00000000000E+00 -0.45593999997E+02  0.45594000000E+02  0.51100000000E-03 0. -1.
    9900012    2    1    2    0    0 -0.19439296725E+02  0.35327766367E+02 -0.16052597595E+02  0.47787271629E+02  0.20000002664E+02 0.  0.
        -12    1    1    2    0    0  0.19439296725E+02 -0.35327766367E+02  0.16052597595E+02  0.43400728371E+02  0.00000000000E+00 0.  1.
         11    1    3    3    0    0 -0.26546272140E+01  0.12462347724E+02  0.31226306454E+01  0.13118993057E+02  0.51100000000E-03 0. -1.
        -11    1    3    3    0    0 -0.57141686050E+01  0.48655052347E+01 -0.31132069586E+01  0.81250798066E+01  0.51100000000E-03 0.  1.
         12    1    3    3    0    0 -0.11070500906E+02  0.17999913408E+02 -0.16062021282E+02  0.26543198765E+02  0.00000000000E+00 0. -1.
</event>
<event>
 7    1  0.4356471E-010  0.4778727E+02  0.7816164E-02  0.1312668E+00
        -11   -1    0    0    0    0  0.00000000000E+00  0.00000000000E+00  0.45593999997E+02  0.45594000000E+02  0.51100000000E-03 0.  1.
         11   -1    0    0    0    0 -0.00000000000E+00 -0.00000000000E+00 -0.45593999997E+02  0.45594000000E+02  0.51100000000E-03 0. -1.
    9900012    2    1    2    0    0  0.27786850551E+02  0.33338102469E+02 -0.29204453598E+00  0.47787269248E+02  0.19999991810E+02 0.  0.
        -12    1    1    2    0    0 -0.27786850551E+02 -0.33338102469E+02  0.29204453598E+00  0.43400730752E+02  0.00000000000E+00 0.  1.
         11    1    3    3    0    0  0.19186962478E+02  0.14000504148E+02 -0.73773152869E+01  0.24871236934E+02  0.51100000000E-03 0. -1.
        -11    1    3    3    0    0  0.10428625473E+01  0.43072396693E+01  0.36600378775E+01  0.57476737370E+01  0.51100000000E-03 0.  1.
         12    1    3    3    0    0  0.75570255259E+01  0.15030358652E+02  0.34252328734E+01  0.17168358577E+02  0.00000000000E+00 0. -1.
</event>
<event>
 7    1  0.4356471E-010  0.4778727E+02  0.7816164E-02  0.1312668E+00
        -11   -1    0    0    0    0  0.00000000000E+00  0.00000000000E+00  0.45593999997E+02  0.45594000000E+02  0.51100000000E-03 0.  1.
         11   -1    0    0    0    0 -0.00000000000E+00 -0.00000000000E+00 -0.45593999997E+02  0.45594000000E+02  0.51100000000E-03 0. -1.
    9900012    2    1    2    0    0  0.22336504885E+02 -0.23315557017E+02 -0.29001524042E+02  0.47787273666E+02  0.20000011954E+02 0.  0.
        -12    1    1    2    0    0 -0.22336504885E+02  0.23315557017E+02  0.29001524042E+02  0.43400726334E+02  0.00000000000E+00 0.  1.
         11    1    3    3    0    0  0.15552078923E+02 -0.65292861891E+01 -0.17578262809E+02  0.24361733531E+02  0.51100000000E-03 0. -1.
        -11    1    3    3    0    0  0.62978397636E+01 -0.56531768831E+01 -0.16908478796E+01  0.86301889534E+01  0.51100000000E-03 0.  1.
         12    1    3    3    0    0  0.48658619849E+00 -0.11133093945E+02 -0.97324133538E+01  0.14795351182E+02  0.00000000000E+00 0. -1.
</event>
<event>
 7    1  0.4356471E-010  0.4778727E+02  0.7816164E-02  0.1312668E+00
        -11   -1    0    0    0    0  0.00000000000E+00  0.00000000000E+00  0.45593999997E+02  0.45594000000E+02  0.51100000000E-03 0.  1.
         11   -1    0    0    0    0 -0.00000000000E+00 -0.00000000000E+00 -0.45593999997E+02  0.45594000000E+02  0.51100000000E-03 0. -1.
    9900012    2    1    2    0    0 -0.13579666214E+02 -0.28246113585E+02 -0.30022874298E+02  0.47787271339E+02  0.20000001345E+02 0.  0.
        -12    1    1    2    0    0  0.13579666214E+02  0.28246113585E+02  0.30022874298E+02  0.43400728661E+02  0.00000000000E+00 0.  1.
         11    1    3    3    0    0 -0.47412708135E+01 -0.49232591371E+00  0.11219667322E+01  0.48970239270E+01  0.51100000000E-03 0. -1.
        -11    1    3    3    0    0 -0.81142010578E+00 -0.84766040372E+01 -0.75294955634E+01  0.11366816718E+02  0.51100000000E-03 0.  1.
         12    1    3    3    0    0 -0.80269752943E+01 -0.19277183634E+02 -0.23615345467E+02  0.31523430695E+02  0.00000000000E+00 0. -1.
</event>
<event>
 7    1  0.4356471E-010  0.4778727E+02  0.7816164E-02  0.1312668E+00
        -11   -1    0    0    0    0  0.00000000000E+00  0.00000000000E+00  0.45593999997E+02  0.45594000000E+02  0.51100000000E-03 0.  1.
         11   -1    0    0    0    0 -0.00000000000E+00 -0.00000000000E+00 -0.45593999997E+02  0.45594000000E+02  0.51100000000E-03 0. -1.
    9900012    2    1    2    0    0  0.15392818858E+01 -0.35038464546E+02 -0.25564814738E+02  0.47787272597E+02  0.20000007079E+02 0.  0.
        -12    1    1    2    0    0 -0.15392818858E+01  0.35038464546E+02  0.25564814738E+02  0.43400727403E+02  0.00000000000E+00 0.  1.
         11    1    3    3    0    0 -0.84188665084E+00 -0.23335796220E+02 -0.10916084624E+02  0.25776521529E+02  0.51100000000E-03 0. -1.
        -11    1    3    3    0    0  0.30543375664E+01 -0.13847370337E+02 -0.12609026111E+02  0.18975409955E+02  0.51100000000E-03 0.  1.
        -12    1    3    3    0    0 -0.67316902971E+00  0.21447020102E+01 -0.20397040024E+01  0.30353411131E+01  0.00000000000E+00 0.  1.
</event>
<event>
 7    1  0.4356471E-010  0.4778727E+02  0.7816164E-02  0.1312668E+00
        -11   -1    0    0    0    0  0.00000000000E+00  0.00000000000E+00  0.45593999997E+02  0.45594000000E+02  0.51100000000E-03 0. -1.
         11   -1    0    0    0    0 -0.00000000000E+00 -0.00000000000E+00 -0.45593999997E+02  0.45594000000E+02  0.51100000000E-03 0.  1.
    9900012    2    1    2    0    0 -0.37005503854E+02  0.95748577269E+01  0.20555728312E+02  0.47787272098E+02  0.20000004803E+02 0.  0.
        -12    1    1    2    0    0  0.37005503854E+02 -0.95748577269E+01 -0.20555728312E+02  0.43400727902E+02  0.00000000000E+00 0.  1.
         11    1    3    3    0    0 -0.52675743295E+01  0.17514188539E+01  0.10121227145E+02  0.11543571652E+02  0.51100000000E-03 0. -1.
        -11    1    3    3    0    0 -0.80310401814E+01 -0.20620261466E+01  0.58621358213E+01  0.10154515984E+02  0.51100000000E-03 0.  1.
        -12    1    3    3    0    0 -0.23706889343E+02  0.98854650196E+01  0.45723653462E+01  0.26089184461E+02  0.00000000000E+00 0.  1.
</event>
<event>
 7    1  0.4356471E-010  0.4778727E+02  0.7816164E-02  0.1312668E+00
        -11   -1    0    0    0    0  0.00000000000E+00  0.00000000000E+00  0.45593999997E+02  0.45594000000E+02  0.51100000000E-03 0. -1.
         11   -1    0    0    0    0 -0.00000000000E+00 -0.00000000000E+00 -0.45593999997E+02  0.45594000000E+02  0.51100000000E-03 0.  1.
    9900012    2    1    2    0    0 -0.43157221724E+02 -0.20108539606E+01 -0.41272481437E+01  0.47787268464E+02  0.19999988236E+02 0.  0.
        -12    1    1    2    0    0  0.43157221724E+02  0.20108539606E+01  0.41272481437E+01  0.43400731536E+02  0.00000000000E+00 0.  1.
         11    1    3    3    0    0 -0.13361118931E+02  0.61468364379E+01  0.35513971210E+01  0.15129954363E+02  0.51100000000E-03 0. -1.
        -11    1    3    3    0    0 -0.13430282157E+01  0.11716654799E+01 -0.67358218688E+00  0.19053183484E+01  0.51100000000E-03 0.  1.
        -12    1    3    3    0    0 -0.28453074578E+02 -0.93293558784E+01 -0.70050630778E+01  0.30751995752E+02  0.00000000000E+00 0.  1.
</event>
<event>
 7    1  0.4356471E-010  0.4778727E+02  0.7816164E-02  0.1312668E+00
        -11   -1    0    0    0    0  0.00000000000E+00  0.00000000000E+00  0.45593999997E+02  0.45594000000E+02  0.51100000000E-03 0.  1.
         11   -1    0    0    0    0 -0.00000000000E+00 -0.00000000000E+00 -0.45593999997E+02  0.45594000000E+02  0.51100000000E-03 0. -1.
    9900012    2    1    2    0    0 -0.17517844914E+02 -0.25963389159E+02 -0.30044149575E+02  0.47787269698E+02  0.19999993863E+02 0.  0.
        -12    1    1    2    0    0  0.17517844914E+02  0.25963389159E+02  0.30044149575E+02  0.43400730302E+02  0.00000000000E+00 0.  1.
         11    1    3    3    0    0 -0.37036230086E+01 -0.13285392541E+02 -0.12499092425E+02  0.18613054292E+02  0.51100000000E-03 0. -1.
        -11    1    3    3    0    0 -0.59225181126E+01 -0.12709038018E+02 -0.15738460067E+02  0.21078306233E+02  0.51100000000E-03 0.  1.
        -12    1    3    3    0    0 -0.78917037925E+01  0.31041400697E-01 -0.18065970838E+01  0.80959091732E+01  0.00000000000E+00 0.  1.
</event>
<event>
 7    1  0.4356471E-010  0.4778726E+02  0.7816164E-02  0.1312668E+00
        -11   -1    0    0    0    0  0.00000000000E+00  0.00000000000E+00  0.45593999997E+02  0.45594000000E+02  0.51100000000E-03 0. -1.
         11   -1    0    0    0    0 -0.00000000000E+00 -0.00000000000E+00 -0.45593999997E+02  0.45594000000E+02  0.51100000000E-03 0.  1.
    9900012    2    1    2    0    0 -0.31441241836E+02  0.23435960158E+02  0.18596457259E+02  0.47787261074E+02  0.19999954541E+02 0.  0.
        -12    1    1    2    0    0  0.31441241836E+02 -0.23435960158E+02 -0.18596457259E+02  0.43400738926E+02  0.00000000000E+00 0.  1.
         11    1    3    3    0    0 -0.80668261322E+01  0.28419990658E+01  0.99739325858E+01  0.13138872631E+02  0.51100000000E-03 0. -1.
        -11    1    3    3    0    0 -0.19788677556E+02  0.11223613657E+02  0.93336923329E+01  0.24590223174E+02  0.51100000000E-03 0.  1.
        -12    1    3    3    0    0 -0.35857381477E+01  0.93703474353E+01 -0.71116765976E+00  0.10058165268E+02  0.00000000000E+00 0.  1.
</event>
<event>
 7    1  0.4356471E-010  0.4778727E+02  0.7816164E-02  0.1312668E+00
        -11   -1    0    0    0    0  0.00000000000E+00  0.00000000000E+00  0.45593999997E+02  0.45594000000E+02  0.51100000000E-03 0. -1.
         11   -1    0    0    0    0 -0.00000000000E+00 -0.00000000000E+00 -0.45593999997E+02  0.45594000000E+02  0.51100000000E-03 0.  1.
    9900012    2    1    2    0    0  0.29091295042E+02  0.35820001919E+01  0.32007636843E+02  0.47787274328E+02  0.20000014972E+02 0.  0.
        -12    1    1    2    0    0 -0.29091295042E+02 -0.35820001919E+01 -0.32007636843E+02  0.43400725672E+02  0.00000000000E+00 0.  1.
         11    1    3    3    0    0  0.12347473648E+02  0.63583068460E+01  0.89657833598E+01  0.16530984331E+02  0.51100000000E-03 0. -1.
        -11    1    3    3    0    0  0.31064908233E+01 -0.31161860182E+01 -0.90642499150E-01  0.44010358848E+01  0.51100000000E-03 0.  1.
         12    1    3    3    0    0  0.13637330571E+02  0.33987936405E+00  0.23132495982E+02  0.26855254113E+02  0.00000000000E+00 0. -1.
</event>
<event>
 7    1  0.4356471E-010  0.4778727E+02  0.7816164E-02  0.1312668E+00
        -11   -1    0    0    0    0  0.00000000000E+00  0.00000000000E+00  0.45593999997E+02  0.45594000000E+02  0.51100000000E-03 0.  1.
         11   -1    0    0    0    0 -0.00000000000E+00 -0.00000000000E+00 -0.45593999997E+02  0.45594000000E+02  0.51100000000E-03 0. -1.
    9900012    2    1    2    0    0 -0.26112538974E+01  0.91572758801E+01 -0.42343226125E+02  0.47787272505E+02  0.20000006659E+02 0.  0.
        -12    1    1    2    0    0  0.26112538974E+01 -0.91572758801E+01  0.42343226125E+02  0.43400727495E+02  0.00000000000E+00 0.  1.
         11    1    3    3    0    0  0.29139058639E+01  0.69290385794E+01 -0.86398263200E+01  0.11452031353E+02  0.51100000000E-03 0. -1.
        -11    1    3    3    0    0 -0.20296661336E+01  0.33090556417E+01 -0.18998061790E+01  0.43218812608E+01  0.51100000000E-03 0.  1.
         12    1    3    3    0    0 -0.34954936278E+01 -0.10808183410E+01 -0.31803593626E+02  0.32013359891E+02  0.00000000000E+00 0. -1.
</event>
<event>
 7    1  0.4356471E-010  0.4778727E+02  0.7816164E-02  0.1312668E+00
        -11   -1    0    0    0    0  0.00000000000E+00  0.00000000000E+00  0.45593999997E+02  0.45594000000E+02  0.51100000000E-03 0. -1.
         11   -1    0    0    0    0 -0.00000000000E+00 -0.00000000000E+00 -0.45593999997E+02  0.45594000000E+02  0.51100000000E-03 0.  1.
    9900012    2    1    2    0    0 -0.24592152472E+02  0.35552977835E+02 -0.38516323807E+01  0.47787271111E+02  0.20000000303E+02 0.  0.
        -12    1    1    2    0    0  0.24592152472E+02 -0.35552977835E+02  0.38516323807E+01  0.43400728889E+02  0.00000000000E+00 0.  1.
         11    1    3    3    0    0 -0.94533249030E+01  0.12668374974E+02 -0.39231385864E+01  0.16286316122E+02  0.51100000000E-03 0. -1.
        -11    1    3    3    0    0 -0.56612436038E+01  0.18264236383E+02 -0.50528381745E+01  0.19777845780E+02  0.51100000000E-03 0.  1.
        -12    1    3    3    0    0 -0.94775839649E+01  0.46203664771E+01  0.51243443801E+01  0.11723109209E+02  0.00000000000E+00 0.  1.
</event>
<event>
 7    1  0.4356471E-010  0.4778728E+02  0.7816164E-02  0.1312668E+00
        -11   -1    0    0    0    0  0.00000000000E+00  0.00000000000E+00  0.45593999997E+02  0.45594000000E+02  0.51100000000E-03 0.  1.
         11   -1    0    0    0    0 -0.00000000000E+00 -0.00000000000E+00 -0.45593999997E+02  0.45594000000E+02  0.51100000000E-03 0. -1.
    9900012    2    1    2    0    0 -0.41172853618E+01  0.16642100391E+02 -0.39871184116E+02  0.47787275732E+02  0.20000021372E+02 0.  0.
        -12    1    1    2    0    0  0.41172853618E+01 -0.16642100391E+02  0.39871184116E+02  0.43400724268E+02  0.00000000000E+00 0.  1.
         11    1    3    3    0    0  0.15289433201E+01  0.44122879346E+01 -0.39831098527E+01  0.61376800872E+01  0.51100000000E-03 0. -1.
        -11    1    3    3    0    0 -0.79766183936E+00  0.13225279870E+02 -0.14271482462E+02  0.19473559099E+02  0.51100000000E-03 0.  1.
         12    1    3    3    0    0 -0.48485668425E+01 -0.99546741303E+00 -0.21616591801E+02  0.22176036546E+02  0.00000000000E+00 0. -1.
</event>
<event>
 7    1  0.4356471E-010  0.4778727E+02  0.7816164E-02  0.1312668E+00
        -11   -1    0    0    0    0  0.00000000000E+00  0.00000000000E+00  0.45593999997E+02  0.45594000000E+02  0.51100000000E-03 0.  1.
         11   -1    0    0    0    0 -0.00000000000E+00 -0.00000000000E+00 -0.45593999997E+02  0.45594000000E+02  0.51100000000E-03 0. -1.
    9900012    2    1    2    0    0 -0.54551162574E+00  0.24198508074E+02 -0.36024404042E+02  0.47787273480E+02  0.20000011104E+02 0.  0.
        -12    1    1    2    0    0  0.54551162574E+00 -0.24198508074E+02  0.36024404042E+02  0.43400726520E+02  0.00000000000E+00 0.  1.
         11    1    3    3    0    0  0.97758912237E+00  0.13817514621E+02 -0.15306998164E+02  0.20644214295E+02  0.51100000000E-03 0. -1.
        -11    1    3    3    0    0  0.61572666786E+01  0.51714584034E+01 -0.75206942754E+01  0.11009848210E+02  0.51100000000E-03 0.  1.
        -12    1    3    3    0    0 -0.76803674267E+01  0.52095350488E+01 -0.13196711602E+02  0.16133210974E+02  0.00000000000E+00 0.  1.
</event>
<event>
 7    1  0.4356471E-010  0.4778727E+02  0.7816164E-02  0.1312668E+00
        -11   -1    0    0    0    0  0.00000000000E+00  0.00000000000E+00  0.45593999997E+02  0.45594000000E+02  0.51100000000E-03 0. -1.
         11   -1    0    0    0    0 -0.00000000000E+00 -0.00000000000E+00 -0.45593999997E+02  0.45594000000E+02  0.51100000000E-03 0.  1.
    9900012    2    1    2    0    0  0.36895035281E+02 -0.20128069764E+02  0.10827761751E+02  0.47787271373E+02  0.20000001499E+02 0.  0.
        -12    1    1    2    0    0 -0.36895035281E+02  0.20128069764E+02 -0.10827761751E+02  0.43400728627E+02  0.00000000000E+00 0.  1.
         11    1    3    3    0    0  0.32387575868E+01 -0.76147604508E+01  0.14605698272E+01  0.84028204735E+01  0.51100000000E-03 0. -1.
        -11    1    3    3    0    0  0.24585184645E+02 -0.14867222957E+02  0.55326530403E+01  0.29258774281E+02  0.51100000000E-03 0.  1.
        -12    1    3    3    0    0  0.90710930487E+01  0.23539136434E+01  0.38345388838E+01  0.10125676619E+02  0.00000000000E+00 0.  1.
</event>
<event>
 7    1  0.4356471E-010  0.4778727E+02  0.7816164E-02  0.1312668E+00
        -11   -1    0    0    0    0  0.00000000000E+00  0.00000000000E+00  0.45593999997E+02  0.45594000000E+02  0.51100000000E-03 0.  1.
         11   -1    0    0    0    0 -0.00000000000E+00 -0.00000000000E+00 -0.45593999997E+02  0.45594000000E+02  0.51100000000E-03 0. -1.
    9900012    2    1    2    0    0  0.34945599936E+02  0.92720061068E+01 -0.24009542692E+02  0.47787271983E+02  0.20000004279E+02 0.  0.
        -12    1    1    2    0    0 -0.34945599936E+02 -0.92720061068E+01  0.24009542692E+02  0.43400728017E+02  0.00000000000E+00 0.  1.
         11    1    3    3    0    0  0.11239681691E+02  0.54744242648E+01 -0.14579726864E+02  0.19205941821E+02  0.51100000000E-03 0.  1.
        -11    1    3    3    0    0  0.23141759853E+02  0.15390498007E+01 -0.52235337493E+01  0.23773830749E+02  0.51100000000E-03 0. -1.
         12    1    3    3    0    0  0.56415839114E+00  0.22585320413E+01 -0.42062820795E+01  0.48074994128E+01  0.00000000000E+00 0. -1.
</event>
<event>
 7    1  0.4356471E-010  0.4778727E+02  0.7816164E-02  0.1312668E+00
        -11   -1    0    0    0    0  0.00000000000E+00  0.00000000000E+00  0.45593999997E+02  0.45594000000E+02  0.51100000000E-03 0. -1.
         11   -1    0    0    0    0 -0.00000000000E+00 -0.00000000000E+00 -0.45593999997E+02  0.45594000000E+02  0.51100000000E-03 0.  1.
    9900012    2    1    2    0    0 -0.78317621067E+01 -0.16302824505E+01  0.42657109685E+02  0.47787270452E+02  0.19999997301E+02 0.  0.
        -12    1    1    2    0    0  0.78317621067E+01  0.16302824505E+01 -0.42657109685E+02  0.43400729548E+02  0.00000000000E+00 0.  1.
         11    1    3    3    0    0 -0.34332919269E+01 -0.68179630740E+01  0.19827572256E+02  0.21246287576E+02  0.51100000000E-03 0. -1.
        -11    1    3    3    0    0 -0.45431995990E+01  0.60836693746E+00  0.21181805202E+02  0.21672093688E+02  0.51100000000E-03 0.  1.
        -12    1    3    3    0    0  0.14472941924E+00  0.45793136861E+01  0.16477322274E+01  0.48688891888E+01  0.00000000000E+00 0.  1.
</event>
<event>
 7    1  0.4356471E-010  0.4778727E+02  0.7816164E-02  0.1312668E+00
        -11   -1    0    0    0    0  0.00000000000E+00  0.00000000000E+00  0.45593999997E+02  0.45594000000E+02  0.51100000000E-03 0.  1.
         11   -1    0    0    0    0 -0.00000000000E+00 -0.00000000000E+00 -0.45593999997E+02  0.45594000000E+02  0.51100000000E-03 0. -1.
    9900012    2    1    2    0    0 -0.23928897834E+02 -0.77731899691E+01 -0.35363944335E+02  0.47787271979E+02  0.20000004259E+02 0.  0.
        -12    1    1    2    0    0  0.23928897834E+02  0.77731899691E+01  0.35363944335E+02  0.43400728021E+02  0.00000000000E+00 0.  1.
         11    1    3    3    0    0 -0.43499198641E+01  0.34064321884E+01 -0.74868813733E+01  0.93047824283E+01  0.51100000000E-03 0. -1.
        -11    1    3    3    0    0  0.36811907398E+00  0.10686660393E+01  0.85884980464E+00  0.14195710635E+01  0.51100000000E-03 0.  1.
         12    1    3    3    0    0 -0.19947097044E+02 -0.12248288197E+02 -0.28735912767E+02  0.37062918487E+02  0.00000000000E+00 0. -1.
</event>
<event>
 7    1  0.4356471E-010  0.4778727E+02  0.7816164E-02  0.1312668E+00
        -11   -1    0    0    0    0  0.00000000000E+00  0.00000000000E+00  0.45593999997E+02  0.45594000000E+02  0.51100000000E-03 0. -1.
         11   -1    0    0    0    0 -0.00000000000E+00 -0.00000000000E+00 -0.45593999997E+02  0.45594000000E+02  0.51100000000E-03 0.  1.
    9900012    2    1    2    0    0 -0.42784381607E+01 -0.10737119787E+02  0.41833393880E+02  0.47787267081E+02  0.19999981927E+02 0.  0.
        -12    1    1    2    0    0  0.42784381607E+01  0.10737119787E+02 -0.41833393880E+02  0.43400732919E+02  0.00000000000E+00 0.  1.
         11    1    3    3    0    0 -0.34818336542E+01  0.31564682803E+01  0.84948016491E+01  0.97081467294E+01  0.51100000000E-03 0. -1.
        -11    1    3    3    0    0  0.23410269162E+01 -0.13654714595E+01  0.45216618482E+00  0.27476123905E+01  0.51100000000E-03 0.  1.
         12    1    3    3    0    0 -0.31376314227E+01 -0.12528116608E+02  0.32886426046E+02  0.35331507961E+02  0.00000000000E+00 0. -1.
</event>
<event>
 7    1  0.4356471E-010  0.4778727E+02  0.7816164E-02  0.1312668E+00
        -11   -1    0    0    0    0  0.00000000000E+00  0.00000000000E+00  0.45593999997E+02  0.45594000000E+02  0.51100000000E-03 0.  1.
         11   -1    0    0    0    0 -0.00000000000E+00 -0.00000000000E+00 -0.45593999997E+02  0.45594000000E+02  0.51100000000E-03 0. -1.
    9900012    2    1    2    0    0  0.36224759031E+02  0.16780356251E+02 -0.17023814282E+02  0.47787265266E+02  0.19999973653E+02 0.  0.
        -12    1    1    2    0    0 -0.36224759031E+02 -0.16780356251E+02  0.17023814282E+02  0.43400734734E+02  0.00000000000E+00 0.  1.
         11    1    3    3    0    0  0.14373448484E+02  0.46305049491E+01 -0.94018200701E+01  0.17788530526E+02  0.51100000000E-03 0. -1.
        -11    1    3    3    0    0  0.19879503845E+02  0.66371830325E+01 -0.10537608417E+02  0.23458219522E+02  0.51100000000E-03 0.  1.
        -12    1    3    3    0    0  0.19718067019E+01  0.55126682697E+01  0.29156142043E+01  0.65405152175E+01  0.00000000000E+00 0.  1.
</event>
<event>
 7    1  0.4356471E-010  0.4778727E+02  0.7816164E-02  0.1312668E+00
        -11   -1    0    0    0    0  0.00000000000E+00  0.00000000000E+00  0.45593999997E+02  0.45594000000E+02  0.51100000000E-03 0. -1.
         11   -1    0    0    0    0 -0.00000000000E+00 -0.00000000000E+00 -0.45593999997E+02  0.45594000000E+02  0.51100000000E-03 0.  1.
    9900012    2    1    2    0    0  0.81978973869E+01  0.20976146267E+02  0.37100127170E+02  0.47787266483E+02  0.19999979204E+02 0.  0.
        -12    1    1    2    0    0 -0.81978973869E+01 -0.20976146267E+02 -0.37100127170E+02  0.43400733517E+02  0.00000000000E+00 0.  1.
         11    1    3    3    0    0  0.51372867829E+01  0.83583636484E+01  0.14297499026E+02  0.17339908795E+02  0.51100000000E-03 0. -1.
        -11    1    3    3    0    0  0.93800640106E+01  0.70171012825E+01  0.13879007856E+02  0.18161832798E+02  0.51100000000E-03 0.  1.
        -12    1    3    3    0    0 -0.63194534067E+01  0.56006813363E+01  0.89236202878E+01  0.12285524890E+02  0.00000000000E+00 0.  1.
</event>
<event>
 7    1  0.4356471E-010  0.4778727E+02  0.7816164E-02  0.1312668E+00
        -11   -1    0    0    0    0  0.00000000000E+00  0.00000000000E+00  0.45593999997E+02  0.45594000000E+02  0.51100000000E-03 0.  1.
         11   -1    0    0    0    0 -0.00000000000E+00 -0.00000000000E+00 -0.45593999997E+02  0.45594000000E+02  0.51100000000E-03 0. -1.
    9900012    2    1    2    0    0  0.42091823776E+02 -0.56243710492E+01 -0.89592555748E+01  0.47787269143E+02  0.19999991330E+02 0.  0.
        -12    1    1    2    0    0 -0.42091823776E+02  0.56243710492E+01  0.89592555748E+01  0.43400730857E+02  0.00000000000E+00 0.  1.
         11    1    3    3    0    0  0.33152627603E+02 -0.21923409456E+00 -0.41795262218E+01  0.33415763051E+02  0.51100000000E-03 0. -1.
        -11    1    3    3    0    0  0.69752468072E+01 -0.35319989111E+01  0.11001149797E+01  0.78955264270E+01  0.51100000000E-03 0.  1.
        -12    1    3    3    0    0  0.19639493652E+01 -0.18731380435E+01 -0.58798443326E+01  0.64759796645E+01  0.00000000000E+00 0.  1.
</event>
<event>
 7    1  0.4356471E-010  0.4778727E+02  0.7816164E-02  0.1312668E+00
        -11   -1    0    0    0    0  0.00000000000E+00  0.00000000000E+00  0.45593999997E+02  0.45594000000E+02  0.51100000000E-03 0. -1.
         11   -1    0    0    0    0 -0.00000000000E+00 -0.00000000000E+00 -0.45593999997E+02  0.45594000000E+02  0.51100000000E-03 0.  1.
    9900012    2    1    2    0    0  0.19627410504E+02  0.19520142183E+02  0.33426812919E+02  0.47787274017E+02  0.20000013553E+02 0.  0.
        -12    1    1    2    0    0 -0.19627410504E+02 -0.19520142183E+02 -0.33426812919E+02  0.43400725983E+02  0.00000000000E+00 0.  1.
         11    1    3    3    0    0  0.11412323220E+01 -0.38125845656E+01  0.53731693919E+01  0.66864909974E+01  0.51100000000E-03 0. -1.
        -11    1    3    3    0    0  0.65099179658E+00  0.21629749422E+01  0.30758906963E+01  0.38161963729E+01  0.51100000000E-03 0.  1.
         12    1    3    3    0    0  0.17835186386E+02  0.21169751807E+02  0.24977752830E+02  0.37284586647E+02  0.00000000000E+00 0. -1.
</event>
<event>
 7    1  0.4356471E-010  0.4778727E+02  0.7816164E-02  0.1312668E+00
        -11   -1    0    0    0    0  0.00000000000E+00  0.00000000000E+00  0.45593999997E+02  0.45594000000E+02  0.51100000000E-03 0.  1.
         11   -1    0    0    0    0 -0.00000000000E+00 -0.00000000000E+00 -0.45593999997E+02  0.45594000000E+02  0.51100000000E-03 0. -1.
    9900012    2    1    2    0    0 -0.42203781845E+02 -0.40844825275E+01 -0.92618005284E+01  0.47787272488E+02  0.20000006583E+02 0.  0.
        -12    1    1    2    0    0  0.42203781845E+02  0.40844825275E+01  0.92618005284E+01  0.43400727512E+02  0.00000000000E+00 0.  1.
         11    1    3    3    0    0 -0.18384767686E+02 -0.50675237860E+01 -0.30249042696E+01  0.19308794014E+02  0.51100000000E-03 0. -1.
        -11    1    3    3    0    0 -0.63340576347E+01 -0.22118931927E+01  0.41526028750E+01  0.78903021815E+01  0.51100000000E-03 0.  1.
         12    1    3    3    0    0 -0.17484956524E+02  0.31949344512E+01 -0.10389499134E+02  0.20588176293E+02  0.00000000000E+00 0. -1.
</event>
<event>
 7    1  0.4356471E-010  0.4778728E+02  0.7816164E-02  0.1312668E+00
        -11   -1    0    0    0    0  0.00000000000E+00  0.00000000000E+00  0.45593999997E+02  0.45594000000E+02  0.51100000000E-03 0.  1.
         11   -1    0    0    0    0 -0.00000000000E+00 -0.00000000000E+00 -0.45593999997E+02  0.45594000000E+02  0.51100000000E-03 0. -1.
    9900012    2    1    2    0    0 -0.62825375708E+01  0.30925146826E+01 -0.42832099785E+02  0.47787277686E+02  0.20000030281E+02 0.  0.
        -12    1    1    2    0    0  0.62825375708E+01 -0.30925146826E+01  0.42832099785E+02  0.43400722314E+02  0.00000000000E+00 0.  1.
         11    1    3    3    0    0  0.61545723324E+01  0.47258080485E+01 -0.12187668335E+02  0.14448227642E+02  0.51100000000E-03 0.  1.
        -11    1    3    3    0    0 -0.40227582123E+01  0.92775611081E+00 -0.72079900968E+01  0.83065297527E+01  0.51100000000E-03 0. -1.
         12    1    3    3    0    0 -0.84143516909E+01 -0.25610494767E+01 -0.23436441354E+02  0.25032520291E+02  0.00000000000E+00 0. -1.
</event>
<event>
 7    1  0.4356471E-010  0.4778727E+02  0.7816164E-02  0.1312668E+00
        -11   -1    0    0    0    0  0.00000000000E+00  0.00000000000E+00  0.45593999997E+02  0.45594000000E+02  0.51100000000E-03 0.  1.
         11   -1    0    0    0    0 -0.00000000000E+00 -0.00000000000E+00 -0.45593999997E+02  0.45594000000E+02  0.51100000000E-03 0. -1.
    9900012    2    1    2    0    0  0.35723694148E+02 -0.31472971743E+01 -0.24444536933E+02  0.47787272023E+02  0.20000004461E+02 0.  0.
        -12    1    1    2    0    0 -0.35723694148E+02  0.31472971743E+01  0.24444536933E+02  0.43400727977E+02  0.00000000000E+00 0.  1.
         11    1    3    3    0    0  0.17978078077E+02 -0.58718403917E+01 -0.90218212939E+01  0.20954308880E+02  0.51100000000E-03 0. -1.
        -11    1    3    3    0    0  0.18249601497E+00 -0.33560279328E+01 -0.26725285600E+01  0.42940234566E+01  0.51100000000E-03 0.  1.
         12    1    3    3    0    0  0.17563120056E+02  0.60805711502E+01 -0.12750187080E+02  0.22538939686E+02  0.00000000000E+00 0. -1.
</event>
<event>
 7    1  0.4356471E-010  0.4778727E+02  0.7816164E-02  0.1312668E+00
        -11   -1    0    0    0    0  0.00000000000E+00  0.00000000000E+00  0.45593999997E+02  0.45594000000E+02  0.51100000000E-03 0.  1.
         11   -1    0    0    0    0 -0.00000000000E+00 -0.00000000000E+00 -0.45593999997E+02  0.45594000000E+02  0.51100000000E-03 0. -1.
    9900012    2    1    2    0    0 -0.53517527681E+01 -0.10531498528E+02 -0.41762059696E+02  0.47787270179E+02  0.19999996056E+02 0.  0.
        -12    1    1    2    0    0  0.53517527681E+01  0.10531498528E+02  0.41762059696E+02  0.43400729821E+02  0.00000000000E+00 0.  1.
         11    1    3    3    0    0 -0.31466667184E+01  0.35261160189E+01 -0.10184211096E+02  0.11227339913E+02  0.51100000000E-03 0. -1.
        -11    1    3    3    0    0  0.74096178462E+00  0.19054661020E+01 -0.22548953782E+01  0.30437442172E+01  0.51100000000E-03 0.  1.
         12    1    3    3    0    0 -0.29460478343E+01 -0.15963080649E+02 -0.29322953221E+02  0.33516186049E+02  0.00000000000E+00 0. -1.
</event>
<event>
 7    1  0.4356471E-010  0.4778726E+02  0.7816164E-02  0.1312668E+00
        -11   -1    0    0    0    0  0.00000000000E+00  0.00000000000E+00  0.45593999997E+02  0.45594000000E+02  0.51100000000E-03 0. -1.
         11   -1    0    0    0    0 -0.00000000000E+00 -0.00000000000E+00 -0.45593999997E+02  0.45594000000E+02  0.51100000000E-03 0.  1.
    9900012    2    1    2    0    0  0.25869137240E+02  0.11052408406E+02  0.33049294403E+02  0.47787264365E+02  0.19999969545E+02 0.  0.
        -12    1    1    2    0    0 -0.25869137240E+02 -0.11052408406E+02 -0.33049294403E+02  0.43400735635E+02  0.00000000000E+00 0.  1.
         11    1    3    3    0    0  0.41816918182E+01  0.30586993543E+01  0.49481717360E+01  0.71642579512E+01  0.51100000000E-03 0. -1.
        -11    1    3    3    0    0  0.24087818331E+02  0.70429875175E+01  0.28539414078E+02  0.38004273724E+02  0.51100000000E-03 0.  1.
        -12    1    3    3    0    0 -0.24003729088E+01  0.95072153461E+00 -0.43829141093E+00  0.26187326894E+01  0.00000000000E+00 0.  1.
</event>
<event>
 7    1  0.4356471E-010  0.4778727E+02  0.7816164E-02  0.1312668E+00
        -11   -1    0    0    0    0  0.00000000000E+00  0.00000000000E+00  0.45593999997E+02  0.45594000000E+02  0.51100000000E-03 0.  1.
         11   -1    0    0    0    0 -0.00000000000E+00 -0.00000000000E+00 -0.45593999997E+02  0.45594000000E+02  0.51100000000E-03 0. -1.
    9900012    2    1    2    0    0 -0.15171358804E+02  0.29188430116E+02 -0.28310576953E+02  0.47787270190E+02  0.19999996106E+02 0.  0.
        -12    1    1    2    0    0  0.15171358804E+02 -0.29188430116E+02  0.28310576953E+02  0.43400729810E+02  0.00000000000E+00 0.  1.
         11    1    3    3    0    0 -0.65886119467E+01  0.81948173070E+01 -0.23555928217E+01  0.10775604664E+02  0.51100000000E-03 0.  1.
        -11    1    3    3    0    0 -0.97973187532E+01  0.13414177757E+02 -0.10217521111E+02  0.19501932150E+02  0.51100000000E-03 0. -1.
         12    1    3    3    0    0  0.12145718957E+01  0.75794350515E+01 -0.15737463020E+02  0.17509733376E+02  0.00000000000E+00 0. -1.
</event>
<event>
 7    1  0.4356471E-010  0.4778727E+02  0.7816164E-02  0.1312668E+00
        -11   -1    0    0    0    0  0.00000000000E+00  0.00000000000E+00  0.45593999997E+02  0.45594000000E+02  0.51100000000E-03 0.  1.
         11   -1    0    0    0    0 -0.00000000000E+00 -0.00000000000E+00 -0.45593999997E+02  0.45594000000E+02  0.51100000000E-03 0. -1.
    9900012    2    1    2    0    0  0.16183667475E+02  0.38507914592E+02 -0.11783567251E+02  0.47787273781E+02  0.20000012476E+02 0.  0.
        -12    1    1    2    0    0 -0.16183667475E+02 -0.38507914592E+02  0.11783567251E+02  0.43400726219E+02  0.00000000000E+00 0.  1.
         11    1    3    3    0    0  0.22041883163E+01  0.66612933506E+01  0.46051660832E+01  0.83927844099E+01  0.51100000000E-03 0.  1.
        -11    1    3    3    0    0  0.87503853094E+01  0.11479328658E+02 -0.39570904587E+01  0.14966722910E+02  0.51100000000E-03 0. -1.
        -12    1    3    3    0    0  0.52290938490E+01  0.20367292583E+02 -0.12431642876E+02  0.24427766461E+02  0.00000000000E+00 0.  1.
</event>
<event>
 7    1  0.4356471E-010  0.4778727E+02  0.7816164E-02  0.1312668E+00
        -11   -1    0    0    0    0  0.00000000000E+00  0.00000000000E+00  0.45593999997E+02  0.45594000000E+02  0.51100000000E-03 0. -1.
         11   -1    0    0    0    0 -0.00000000000E+00 -0.00000000000E+00 -0.45593999997E+02  0.45594000000E+02  0.51100000000E-03 0.  1.
    9900012    2    1    2    0    0 -0.19032984801E+02 -0.34683738936E+02  0.17843971773E+02  0.47787267453E+02  0.19999983623E+02 0.  0.
        -12    1    1    2    0    0  0.19032984801E+02  0.34683738936E+02 -0.17843971773E+02  0.43400732547E+02  0.00000000000E+00 0.  1.
         11    1    3    3    0    0 -0.93766901973E+01 -0.25376396726E+02  0.96490262065E+01  0.28722596276E+02  0.51100000000E-03 0. -1.
        -11    1    3    3    0    0 -0.66879539807E+01 -0.10988055733E+02  0.36294618043E+01  0.13365593533E+02  0.51100000000E-03 0.  1.
        -12    1    3    3    0    0 -0.29683406233E+01  0.16807135231E+01  0.45654837623E+01  0.56990776435E+01  0.00000000000E+00 0.  1.
</event>
<event>
 7    1  0.4356471E-010  0.4778727E+02  0.7816164E-02  0.1312668E+00
        -11   -1    0    0    0    0  0.00000000000E+00  0.00000000000E+00  0.45593999997E+02  0.45594000000E+02  0.51100000000E-03 0. -1.
         11   -1    0    0    0    0 -0.00000000000E+00 -0.00000000000E+00 -0.45593999997E+02  0.45594000000E+02  0.51100000000E-03 0.  1.
    9900012    2    1    2    0    0 -0.28265464282E+02  0.19406795691E+02  0.26609453267E+02  0.47787271974E+02  0.20000004238E+02 0.  0.
        -12    1    1    2    0    0  0.28265464282E+02 -0.19406795691E+02 -0.26609453267E+02  0.43400728026E+02  0.00000000000E+00 0.  1.
         11    1    3    3    0    0 -0.10353699631E+02  0.72822709002E+01  0.40266745444E-01  0.12658285318E+02  0.51100000000E-03 0. -1.
        -11    1    3    3    0    0 -0.49427474801E+01 -0.38209357821E+00  0.53938937082E+01  0.73260383394E+01  0.51100000000E-03 0.  1.
         12    1    3    3    0    0 -0.12969017171E+02  0.12506618369E+02  0.21175292813E+02  0.27802948317E+02  0.00000000000E+00 0. -1.
</event>
<event>
 7    1  0.4356471E-010  0.4778727E+02  0.7816164E-02  0.1312668E+00
        -11   -1    0    0    0    0  0.00000000000E+00  0.00000000000E+00  0.45593999997E+02  0.45594000000E+02  0.51100000000E-03 0.  1.
         11   -1    0    0    0    0 -0.00000000000E+00 -0.00000000000E+00 -0.45593999997E+02  0.45594000000E+02  0.51100000000E-03 0. -1.
    9900012    2    1    2    0    0  0.39860877768E+02 -0.53291333455E+01 -0.16319739915E+02  0.47787272477E+02  0.20000006532E+02 0.  0.
        -12    1    1    2    0    0 -0.39860877768E+02  0.53291333455E+01  0.16319739915E+02  0.43400727523E+02  0.00000000000E+00 0.  1.
         11    1    3    3    0    0  0.37776565891E+02 -0.87933762736E+01 -0.17721462037E+02  0.42643201261E+02  0.51100000000E-03 0. -1.
        -11    1    3    3    0    0  0.10066493365E+01 -0.58910408477E-02 -0.40619769786E+00  0.10855295583E+01  0.51100000000E-03 0.  1.
        -12    1    3    3    0    0  0.10776625399E+01  0.34701339689E+01  0.18079198197E+01  0.40585416576E+01  0.00000000000E+00 0.  1.
</event>
<event>
 7    1  0.4356471E-010  0.4778728E+02  0.7816164E-02  0.1312668E+00
        -11   -1    0    0    0    0  0.00000000000E+00  0.00000000000E+00  0.45593999997E+02  0.45594000000E+02  0.51100000000E-03 0.  1.
         11   -1    0    0    0    0 -0.00000000000E+00 -0.00000000000E+00 -0.45593999997E+02  0.45594000000E+02  0.51100000000E-03 0. -1.
    9900012    2    1    2    0    0 -0.17447966014E+01 -0.22788226750E+02 -0.36895462435E+02  0.47787277174E+02  0.20000027945E+02 0.  0.
        -12    1    1    2    0    0  0.17447966014E+01  0.22788226750E+02  0.36895462435E+02  0.43400722826E+02  0.00000000000E+00 0.  1.
         11    1    3    3    0    0  0.13952738250E+01 -0.28963812929E+01 -0.11824632692E+02  0.12253887229E+02  0.51100000000E-03 0. -1.
        -11    1    3    3    0    0  0.57401710239E+00  0.24573276834E+01 -0.23904130459E+01  0.34759214273E+01  0.51100000000E-03 0.  1.
        -12    1    3    3    0    0 -0.37140875288E+01 -0.22349173141E+02 -0.22680416696E+02  0.32057468518E+02  0.00000000000E+00 0.  1.
</event>
<event>
 7    1  0.4356471E-010  0.4778727E+02  0.7816164E-02  0.1312668E+00
        -11   -1    0    0    0    0  0.00000000000E+00  0.00000000000E+00  0.45593999997E+02  0.45594000000E+02  0.51100000000E-03 0.  1.
         11   -1    0    0    0    0 -0.00000000000E+00 -0.00000000000E+00 -0.45593999997E+02  0.45594000000E+02  0.51100000000E-03 0. -1.
    9900012    2    1    2    0    0 -0.39613632113E+02  0.17301110687E+02 -0.38800860992E+01  0.47787270187E+02  0.19999996091E+02 0.  0.
        -12    1    1    2    0    0  0.39613632113E+02 -0.17301110687E+02  0.38800860992E+01  0.43400729813E+02  0.00000000000E+00 0.  1.
         11    1    3    3    0    0 -0.69787717878E+01  0.22347760329E+01 -0.69440904938E+01  0.10095438209E+02  0.51100000000E-03 0. -1.
        -11    1    3    3    0    0 -0.24842443944E+01  0.42697036114E+01  0.27733653340E+01  0.56651032363E+01  0.51100000000E-03 0.  1.
        -12    1    3    3    0    0 -0.30150615930E+02  0.10796631043E+02  0.29063906051E+00  0.32026728742E+02  0.00000000000E+00 0.  1.
</event>
<event>
 7    1  0.4356471E-010  0.4778727E+02  0.7816164E-02  0.1312668E+00
        -11   -1    0    0    0    0  0.00000000000E+00  0.00000000000E+00  0.45593999997E+02  0.45594000000E+02  0.51100000000E-03 0.  1.
         11   -1    0    0    0    0 -0.00000000000E+00 -0.00000000000E+00 -0.45593999997E+02  0.45594000000E+02  0.51100000000E-03 0. -1.
    9900012    2    1    2    0    0  0.49513103359E+00  0.32276727133E+02 -0.29010185530E+02  0.47787272660E+02  0.20000007367E+02 0.  0.
        -12    1    1    2    0    0 -0.49513103359E+00 -0.32276727133E+02  0.29010185530E+02  0.43400727340E+02  0.00000000000E+00 0.  1.
         11    1    3    3    0    0 -0.65981112363E+00  0.13424596859E+02 -0.73988659316E+01  0.15342697575E+02  0.51100000000E-03 0.  1.
        -11    1    3    3    0    0  0.41739040833E+01  0.20353112793E+02 -0.17829837896E+02  0.27378345373E+02  0.51100000000E-03 0. -1.
        -12    1    3    3    0    0 -0.30189619261E+01 -0.15009825196E+01 -0.37814817023E+01  0.50662297125E+01  0.00000000000E+00 0.  1.
</event>
<event>
 7    1  0.4356471E-010  0.4778728E+02  0.7816164E-02  0.1312668E+00
        -11   -1    0    0    0    0  0.00000000000E+00  0.00000000000E+00  0.45593999997E+02  0.45594000000E+02  0.51100000000E-03 0.  1.
         11   -1    0    0    0    0 -0.00000000000E+00 -0.00000000000E+00 -0.45593999997E+02  0.45594000000E+02  0.51100000000E-03 0. -1.
    9900012    2    1    2    0    0  0.40313259816E+02 -0.11556529276E+02 -0.11176339575E+02  0.47787275902E+02  0.20000022148E+02 0.  0.
        -12    1    1    2    0    0 -0.40313259816E+02  0.11556529276E+02  0.11176339575E+02  0.43400724098E+02  0.00000000000E+00 0.  1.
         11    1    3    3    0    0 -0.83330875199E+00 -0.11045557081E+01  0.88593679731E-01  0.13864688564E+01  0.51100000000E-03 0. -1.
        -11    1    3    3    0    0  0.10123929209E+02 -0.95738910593E+01 -0.25495839666E+01  0.14165228954E+02  0.51100000000E-03 0.  1.
         12    1    3    3    0    0  0.31022639359E+02 -0.87808250828E+00 -0.87153492885E+01  0.32235578092E+02  0.00000000000E+00 0. -1.
</event>
<event>
 7    1  0.4356471E-010  0.4778727E+02  0.7816164E-02  0.1312668E+00
        -11   -1    0    0    0    0  0.00000000000E+00  0.00000000000E+00  0.45593999997E+02  0.45594000000E+02  0.51100000000E-03 0.  1.
         11   -1    0    0    0    0 -0.00000000000E+00 -0.00000000000E+00 -0.45593999997E+02  0.45594000000E+02  0.51100000000E-03 0. -1.
    9900012    2    1    2    0    0 -0.37263254012E+02 -0.16718781282E+02  0.14681807417E+02  0.47787271709E+02  0.20000003032E+02 0.  0.
        -12    1    1    2    0    0  0.37263254012E+02  0.16718781282E+02 -0.14681807417E+02  0.43400728291E+02  0.00000000000E+00 0.  1.
         11    1    3    3    0    0 -0.12977261347E+01 -0.16022544298E+01  0.29721458997E+01  0.36173144581E+01  0.51100000000E-03 0. -1.
        -11    1    3    3    0    0 -0.32444768874E+01  0.32794444599E+01 -0.63019938134E+00  0.46560216666E+01  0.51100000000E-03 0.  1.
         12    1    3    3    0    0 -0.32721050990E+02 -0.18395971312E+02  0.12339860899E+02  0.39513935585E+02  0.00000000000E+00 0. -1.
</event>
<event>
 7    1  0.4356471E-010  0.4778727E+02  0.7816164E-02  0.1312668E+00
        -11   -1    0    0    0    0  0.00000000000E+00  0.00000000000E+00  0.45593999997E+02  0.45594000000E+02  0.51100000000E-03 0.  1.
         11   -1    0    0    0    0 -0.00000000000E+00 -0.00000000000E+00 -0.45593999997E+02  0.45594000000E+02  0.51100000000E-03 0. -1.
    9900012    2    1    2    0    0 -0.24827498745E+00  0.42017590383E+02 -0.10866657757E+02  0.47787265066E+02  0.19999972740E+02 0.  0.
        -12    1    1    2    0    0  0.24827498745E+00 -0.42017590383E+02  0.10866657757E+02  0.43400734934E+02  0.00000000000E+00 0.  1.
         11    1    3    3    0    0  0.15031213683E+01  0.62604043463E+01 -0.60955380865E+01  0.88660939118E+01  0.51100000000E-03 0. -1.
        -11    1    3    3    0    0  0.12780165186E+01  0.69552862881E+01 -0.69025926681E+01  0.98820604822E+01  0.51100000000E-03 0.  1.
         12    1    3    3    0    0 -0.30294128743E+01  0.28801899748E+02  0.21314729974E+01  0.29039110672E+02  0.00000000000E+00 0. -1.
</event>
<event>
 7    1  0.4356471E-010  0.4778726E+02  0.7816164E-02  0.1312668E+00
        -11   -1    0    0    0    0  0.00000000000E+00  0.00000000000E+00  0.45593999997E+02  0.45594000000E+02  0.51100000000E-03 0.  1.
         11   -1    0    0    0    0 -0.00000000000E+00 -0.00000000000E+00 -0.45593999997E+02  0.45594000000E+02  0.51100000000E-03 0. -1.
    9900012    2    1    2    0    0 -0.13323523577E+02 -0.54697652317E+01 -0.40941292174E+02  0.47787262482E+02  0.19999960961E+02 0.  0.
        -12    1    1    2    0    0  0.13323523577E+02  0.54697652317E+01  0.40941292174E+02  0.43400737518E+02  0.00000000000E+00 0.  1.
         11    1    3    3    0    0 -0.68108664010E+01  0.47019037099E+01 -0.26863720815E+02  0.28109701100E+02  0.51100000000E-03 0. -1.
        -11    1    3    3    0    0 -0.58148455499E+00 -0.33342848156E+01 -0.82371770747E+01  0.89054290150E+01  0.51100000000E-03 0.  1.
         12    1    3    3    0    0 -0.59311726207E+01 -0.68373841260E+01 -0.58403942845E+01  0.10772132367E+02  0.00000000000E+00 0. -1.
</event>
<event>
 7    1  0.4356471E-010  0.4778727E+02  0.7816164E-02  0.1312668E+00
        -11   -1    0    0    0    0  0.00000000000E+00  0.00000000000E+00  0.45593999997E+02  0.45594000000E+02  0.51100000000E-03 0.  1.
         11   -1    0    0    0    0 -0.00000000000E+00 -0.00000000000E+00 -0.45593999997E+02  0.45594000000E+02  0.51100000000E-03 0. -1.
    9900012    2    1    2    0    0 -0.74267344634E+01 -0.19543935042E+02 -0.38032898473E+02  0.47787272495E+02  0.20000006613E+02 0.  0.
        -12    1    1    2    0    0  0.74267344634E+01  0.19543935042E+02  0.38032898473E+02  0.43400727505E+02  0.00000000000E+00 0.  1.
         11    1    3    3    0    0 -0.85587597378E+01 -0.11146245343E+02 -0.23624716069E+02  0.27488513294E+02  0.51100000000E-03 0. -1.
        -11    1    3    3    0    0  0.15849100945E+01 -0.88378644268E+01 -0.16132256923E+02  0.18462651525E+02  0.51100000000E-03 0.  1.
        -12    1    3    3    0    0 -0.45288482008E+00  0.44017472850E+00  0.17240745188E+01  0.18361076761E+01  0.00000000000E+00 0.  1.
</event>
<event>
 7    1  0.4356471E-010  0.4778726E+02  0.7816164E-02  0.1312668E+00
        -11   -1    0    0    0    0  0.00000000000E+00  0.00000000000E+00  0.45593999997E+02  0.45594000000E+02  0.51100000000E-03 0.  1.
         11   -1    0    0    0    0 -0.00000000000E+00 -0.00000000000E+00 -0.45593999997E+02  0.45594000000E+02  0.51100000000E-03 0. -1.
    9900012    2    1    2    0    0 -0.21421063066E+02 -0.11136459560E+02 -0.36065789077E+02  0.47787264797E+02  0.19999971516E+02 0.  0.
        -12    1    1    2    0    0  0.21421063066E+02  0.11136459560E+02  0.36065789077E+02  0.43400735203E+02  0.00000000000E+00 0.  1.
         11    1    3    3    0    0  0.89796224052E+00  0.14199554119E+01 -0.35881362913E+00  0.17179514075E+01  0.51100000000E-03 0. -1.
        -11    1    3    3    0    0 -0.22634000689E+01 -0.58754747522E+01 -0.15897679424E+02  0.17099134328E+02  0.51100000000E-03 0.  1.
         12    1    3    3    0    0 -0.20055625238E+02 -0.66809402197E+01 -0.19809296023E+02  0.28970179061E+02  0.00000000000E+00 0. -1.
</event>
<event>
 7    1  0.4356471E-010  0.4778727E+02  0.7816164E-02  0.1312668E+00
        -11   -1    0    0    0    0  0.00000000000E+00  0.00000000000E+00  0.45593999997E+02  0.45594000000E+02  0.51100000000E-03 0.  1.
         11   -1    0    0    0    0 -0.00000000000E+00 -0.00000000000E+00 -0.45593999997E+02  0.45594000000E+02  0.51100000000E-03 0. -1.
    9900012    2    1    2    0    0  0.20193893972E+02 -0.13855562785E+02 -0.35830895808E+02  0.47787273413E+02  0.20000010798E+02 0.  0.
        -12    1    1    2    0    0 -0.20193893972E+02  0.13855562785E+02  0.35830895808E+02  0.43400726587E+02  0.00000000000E+00 0.  1.
         11    1    3    3    0    0  0.55849954410E+01 -0.30224829189E+01 -0.58924126448E+01  0.86630308847E+01  0.51100000000E-03 0. -1.
        -11    1    3    3    0    0 -0.12619689316E+01 -0.59584849249E+01 -0.16278205615E+01  0.63044355993E+01  0.51100000000E-03 0.  1.
        -12    1    3    3    0    0  0.15870867463E+02 -0.48745949414E+01 -0.28310662602E+02  0.32819806929E+02  0.00000000000E+00 0.  1.
</event>
<event>
 7    1  0.4356471E-010  0.4778727E+02  0.7816164E-02  0.1312668E+00
        -11   -1    0    0    0    0  0.00000000000E+00  0.00000000000E+00  0.45593999997E+02  0.45594000000E+02  0.51100000000E-03 0.  1.
         11   -1    0    0    0    0 -0.00000000000E+00 -0.00000000000E+00 -0.45593999997E+02  0.45594000000E+02  0.51100000000E-03 0. -1.
    9900012    2    1    2    0    0  0.98110493529E+01 -0.16415852723E+02 -0.38960063129E+02  0.47787269257E+02  0.19999991848E+02 0.  0.
        -12    1    1    2    0    0 -0.98110493529E+01  0.16415852723E+02  0.38960063129E+02  0.43400730743E+02  0.00000000000E+00 0.  1.
         11    1    3    3    0    0  0.34272908779E+01 -0.39211524870E+01 -0.53270066871E+01  0.74497489953E+01  0.51100000000E-03 0. -1.
        -11    1    3    3    0    0 -0.35609965986E+01  0.24467530997E+01 -0.64103855255E+01  0.77304812498E+01  0.51100000000E-03 0.  1.
        -12    1    3    3    0    0  0.99447550736E+01 -0.14941453336E+02 -0.27222670917E+02  0.32607039012E+02  0.00000000000E+00 0.  1.
</event>
<event>
 7    1  0.4356471E-010  0.4778727E+02  0.7816164E-02  0.1312668E+00
        -11   -1    0    0    0    0  0.00000000000E+00  0.00000000000E+00  0.45593999997E+02  0.45594000000E+02  0.51100000000E-03 0.  1.
         11   -1    0    0    0    0 -0.00000000000E+00 -0.00000000000E+00 -0.45593999997E+02  0.45594000000E+02  0.51100000000E-03 0. -1.
    9900012    2    1    2    0    0  0.89098778989E+01  0.16914658806E+01 -0.42442622936E+02  0.47787271634E+02  0.20000002687E+02 0.  0.
        -12    1    1    2    0    0 -0.89098778989E+01 -0.16914658806E+01  0.42442622936E+02  0.43400728366E+02  0.00000000000E+00 0.  1.
         11    1    3    3    0    0  0.20498264454E+00  0.44397783710E+01 -0.23938258402E+02  0.24347358491E+02  0.51100000000E-03 0. -1.
        -11    1    3    3    0    0 -0.20713600232E+01 -0.27869880120E+01 -0.60029373628E+01  0.69349182956E+01  0.51100000000E-03 0.  1.
        -12    1    3    3    0    0  0.10776255278E+02  0.38675521588E-01 -0.12501427171E+02  0.16504994848E+02  0.00000000000E+00 0.  1.
</event>
<event>
 7    1  0.4356471E-010  0.4778727E+02  0.7816164E-02  0.1312668E+00
        -11   -1    0    0    0    0  0.00000000000E+00  0.00000000000E+00  0.45593999997E+02  0.45594000000E+02  0.51100000000E-03 0.  1.
         11   -1    0    0    0    0 -0.00000000000E+00 -0.00000000000E+00 -0.45593999997E+02  0.45594000000E+02  0.51100000000E-03 0. -1.
    9900012    2    1    2    0    0  0.32835573513E+01 -0.38460324627E+02 -0.19840495066E+02  0.47787267704E+02  0.19999984771E+02 0.  0.
        -12    1    1    2    0    0 -0.32835573513E+01  0.38460324627E+02  0.19840495066E+02  0.43400732296E+02  0.00000000000E+00 0.  1.
         11    1    3    3    0    0  0.18386922590E+01 -0.21514403972E+02 -0.14274570519E+02  0.25884623452E+02  0.51100000000E-03 0. -1.
        -11    1    3    3    0    0  0.23300022979E+01 -0.17233445031E+01 -0.59837682039E+01  0.66486321273E+01  0.51100000000E-03 0.  1.
         12    1    3    3    0    0 -0.88513720567E+00 -0.15222576152E+02  0.41784365689E+00  0.15254012125E+02  0.00000000000E+00 0. -1.
</event>
<event>
 7    1  0.4356471E-010  0.4778727E+02  0.7816164E-02  0.1312668E+00
        -11   -1    0    0    0    0  0.00000000000E+00  0.00000000000E+00  0.45593999997E+02  0.45594000000E+02  0.51100000000E-03 0. -1.
         11   -1    0    0    0    0 -0.00000000000E+00 -0.00000000000E+00 -0.45593999997E+02  0.45594000000E+02  0.51100000000E-03 0.  1.
    9900012    2    1    2    0    0 -0.22618282778E+01  0.39234460000E+02  0.18416415234E+02  0.47787273408E+02  0.20000010777E+02 0.  0.
        -12    1    1    2    0    0  0.22618282778E+01 -0.39234460000E+02 -0.18416415234E+02  0.43400726592E+02  0.00000000000E+00 0.  1.
         11    1    3    3    0    0 -0.31870263256E+01  0.42540852470E+01  0.63775235013E+01  0.83022397194E+01  0.51100000000E-03 0. -1.
        -11    1    3    3    0    0 -0.41762848280E+01  0.39602459502E+01 -0.17705662475E+00  0.57581465994E+01  0.51100000000E-03 0.  1.
         12    1    3    3    0    0  0.51014828757E+01  0.31020128803E+02  0.12215948357E+02  0.33726887089E+02  0.00000000000E+00 0. -1.
</event>
<event>
 7    1  0.4356471E-010  0.4778728E+02  0.7816164E-02  0.1312668E+00
        -11   -1    0    0    0    0  0.00000000000E+00  0.00000000000E+00  0.45593999997E+02  0.45594000000E+02  0.51100000000E-03 0.  1.
         11   -1    0    0    0    0 -0.00000000000E+00 -0.00000000000E+00 -0.45593999997E+02  0.45594000000E+02  0.51100000000E-03 0. -1.
    9900012    2    1    2    0    0  0.18487881031E+02  0.37111820685E+02 -0.12827069211E+02  0.47787277839E+02  0.20000030978E+02 0.  0.
        -12    1    1    2    0    0 -0.18487881031E+02 -0.37111820685E+02  0.12827069211E+02  0.43400722161E+02  0.00000000000E+00 0.  1.
         11    1    3    3    0    0  0.12014054129E+02  0.20099847676E+02 -0.18680614075E+01  0.23491083987E+02  0.51100000000E-03 0. -1.
        -11    1    3    3    0    0  0.38976381133E+00  0.22087659493E+01  0.25186574028E+01  0.33725655251E+01  0.51100000000E-03 0.  1.
         12    1    3    3    0    0  0.60840630912E+01  0.14803207059E+02 -0.13477665206E+02  0.20923628327E+02  0.00000000000E+00 0. -1.
</event>
<event>
 7    1  0.4356471E-010  0.4778727E+02  0.7816164E-02  0.1312668E+00
        -11   -1    0    0    0    0  0.00000000000E+00  0.00000000000E+00  0.45593999997E+02  0.45594000000E+02  0.51100000000E-03 0. -1.
         11   -1    0    0    0    0 -0.00000000000E+00 -0.00000000000E+00 -0.45593999997E+02  0.45594000000E+02  0.51100000000E-03 0.  1.
    9900012    2    1    2    0    0  0.16806282052E+02 -0.10964181864E+02  0.38483232123E+02  0.47787267806E+02  0.19999985235E+02 0.  0.
        -12    1    1    2    0    0 -0.16806282052E+02  0.10964181864E+02 -0.38483232123E+02  0.43400732194E+02  0.00000000000E+00 0.  1.
         11    1    3    3    0    0  0.70586602849E+01 -0.62643449948E+01  0.22752733656E+02  0.24632368792E+02  0.51100000000E-03 0. -1.
        -11    1    3    3    0    0 -0.11926109772E+01 -0.57843630273E+01  0.43790906084E+01  0.73523881421E+01  0.51100000000E-03 0.  1.
        -12    1    3    3    0    0  0.10940232744E+02  0.10845261577E+01  0.11351407859E+02  0.15802510872E+02  0.00000000000E+00 0.  1.
</event>
<event>
 7    1  0.4356471E-010  0.4778727E+02  0.7816164E-02  0.1312668E+00
        -11   -1    0    0    0    0  0.00000000000E+00  0.00000000000E+00  0.45593999997E+02  0.45594000000E+02  0.51100000000E-03 0.  1.
         11   -1    0    0    0    0 -0.00000000000E+00 -0.00000000000E+00 -0.45593999997E+02  0.45594000000E+02  0.51100000000E-03 0. -1.
    9900012    2    1    2    0    0 -0.14690295704E+01 -0.19454277266E+02 -0.38768495715E+02  0.47787271759E+02  0.20000003258E+02 0.  0.
        -12    1    1    2    0    0  0.14690295704E+01  0.19454277266E+02  0.38768495715E+02  0.43400728241E+02  0.00000000000E+00 0.  1.
         11    1    3    3    0    0  0.38666303552E+00 -0.20890896106E+02 -0.23783279864E+02  0.31657912909E+02  0.51100000000E-03 0. -1.
        -11    1    3    3    0    0 -0.95251731284E+00  0.49521593289E+00  0.13866001393E-01  0.10736482564E+01  0.51100000000E-03 0.  1.
        -12    1    3    3    0    0 -0.90317529305E+00  0.94140290725E+00 -0.14999081853E+02  0.15055710593E+02  0.00000000000E+00 0.  1.
</event>
<event>
 7    1  0.5196238E-010  0.4778727E+02  0.7816164E-02  0.1312668E+00
        -11   -1    0    0    0    0  0.00000000000E+00  0.00000000000E+00  0.45593999997E+02  0.45594000000E+02  0.51100000000E-03 0. -1.
         11   -1    0    0    0    0 -0.00000000000E+00 -0.00000000000E+00 -0.45593999997E+02  0.45594000000E+02  0.51100000000E-03 0.  1.
    9900012    2    1    2    0    0 -0.38471668472E+02  0.68251512718E+01  0.18893682260E+02  0.47787271962E+02  0.20000004181E+02 0.  0.
        -12    1    1    2    0    0  0.38471668472E+02 -0.68251512718E+01 -0.18893682260E+02  0.43400728038E+02  0.00000000000E+00 0.  1.
         11    1    3    3    0    0 -0.89992488864E+01  0.20799140352E+01  0.67473494626E+01  0.11438498500E+02  0.51100000000E-03 0. -1.
        -11    1    3    3    0    0 -0.24935140736E+02  0.17803398092E+01  0.22936145479E+01  0.25103615702E+02  0.51100000000E-03 0.  1.
        -12    1    3    3    0    0 -0.45372788496E+01  0.29648974273E+01  0.98527182496E+01  0.11245157759E+02  0.00000000000E+00 0.  1.
</event>
<event>
 7    1  0.4356471E-010  0.4778727E+02  0.7816164E-02  0.1312668E+00
        -11   -1    0    0    0    0  0.00000000000E+00  0.00000000000E+00  0.45593999997E+02  0.45594000000E+02  0.51100000000E-03 0.  1.
         11   -1    0    0    0    0 -0.00000000000E+00 -0.00000000000E+00 -0.45593999997E+02  0.45594000000E+02  0.51100000000E-03 0. -1.
    9900012    2    1    2    0    0 -0.32083883035E+02  0.15864942211E+02 -0.24546918486E+02  0.47787272482E+02  0.20000006554E+02 0.  0.
        -12    1    1    2    0    0  0.32083883035E+02 -0.15864942211E+02  0.24546918486E+02  0.43400727518E+02  0.00000000000E+00 0.  1.
         11    1    3    3    0    0 -0.10766491233E+02  0.77260702085E+00 -0.12255267715E+02  0.16331131072E+02  0.51100000000E-03 0.  1.
        -11    1    3    3    0    0 -0.10287284162E+02  0.10932277224E+02 -0.12696415551E+02  0.19660668067E+02  0.51100000000E-03 0. -1.
        -12    1    3    3    0    0 -0.11030107641E+02  0.41600579656E+01  0.40476478101E+00  0.11795473342E+02  0.00000000000E+00 0.  1.
</event>
<event>
 7    1  0.4356471E-010  0.4778727E+02  0.7816164E-02  0.1312668E+00
        -11   -1    0    0    0    0  0.00000000000E+00  0.00000000000E+00  0.45593999997E+02  0.45594000000E+02  0.51100000000E-03 0.  1.
         11   -1    0    0    0    0 -0.00000000000E+00 -0.00000000000E+00 -0.45593999997E+02  0.45594000000E+02  0.51100000000E-03 0. -1.
    9900012    2    1    2    0    0 -0.30936106326E+02  0.13404612123E+02 -0.27329413114E+02  0.47787272795E+02  0.20000007981E+02 0.  0.
        -12    1    1    2    0    0  0.30936106326E+02 -0.13404612123E+02  0.27329413114E+02  0.43400727205E+02  0.00000000000E+00 0.  1.
         11    1    3    3    0    0 -0.16810862736E+01  0.58553714487E-01 -0.23443284575E+01  0.28853692614E+01  0.51100000000E-03 0. -1.
        -11    1    3    3    0    0  0.14821543885E+01  0.13203486906E+01 -0.70782754683E+01  0.73513322712E+01  0.51100000000E-03 0.  1.
        -12    1    3    3    0    0 -0.30737174441E+02  0.12025709718E+02 -0.17906809189E+02  0.37550571262E+02  0.00000000000E+00 0.  1.
</event>
<event>
 7    1  0.4356471E-010  0.4778727E+02  0.7816164E-02  0.1312668E+00
        -11   -1    0    0    0    0  0.00000000000E+00  0.00000000000E+00  0.45593999997E+02  0.45594000000E+02  0.51100000000E-03 0.  1.
         11   -1    0    0    0    0 -0.00000000000E+00 -0.00000000000E+00 -0.45593999997E+02  0.45594000000E+02  0.51100000000E-03 0. -1.
    9900012    2    1    2    0    0  0.25517202637E+02  0.33424663578E+02 -0.10737211733E+02  0.47787268652E+02  0.19999989090E+02 0.  0.
        -12    1    1    2    0    0 -0.25517202637E+02 -0.33424663578E+02  0.10737211733E+02  0.43400731348E+02  0.00000000000E+00 0.  1.
         11    1    3    3    0    0  0.95745857970E+01  0.10769560225E+02  0.12226267155E+01  0.14462051617E+02  0.51100000000E-03 0. -1.
        -11    1    3    3    0    0  0.56821283222E+01  0.18719971139E+02 -0.45931711001E+01  0.20095301011E+02  0.51100000000E-03 0.  1.
        -12    1    3    3    0    0  0.10260488518E+02  0.39351322153E+01 -0.73666673484E+01  0.13229916024E+02  0.00000000000E+00 0.  1.
</event>
<event>
 7    1  0.4356471E-010  0.4778727E+02  0.7816164E-02  0.1312668E+00
        -11   -1    0    0    0    0  0.00000000000E+00  0.00000000000E+00  0.45593999997E+02  0.45594000000E+02  0.51100000000E-03 0.  1.
         11   -1    0    0    0    0 -0.00000000000E+00 -0.00000000000E+00 -0.45593999997E+02  0.45594000000E+02  0.51100000000E-03 0. -1.
    9900012    2    1    2    0    0 -0.18537928232E+02  0.11874227520E+01 -0.39224463008E+02  0.47787271271E+02  0.20000001034E+02 0.  0.
        -12    1    1    2    0    0  0.18537928232E+02 -0.11874227520E+01  0.39224463008E+02  0.43400728729E+02  0.00000000000E+00 0.  1.
         11    1    3    3    0    0  0.23411157875E+01 -0.55850763466E+00 -0.84683325109E+01  0.88037156749E+01  0.51100000000E-03 0. -1.
        -11    1    3    3    0    0 -0.55302430957E+01 -0.11958974919E+01 -0.15622732222E+01  0.58697919376E+01  0.51100000000E-03 0.  1.
        -12    1    3    3    0    0 -0.15348800924E+02  0.29418278785E+01 -0.29193857275E+02  0.33113763659E+02  0.00000000000E+00 0.  1.
</event>
<event>
 7    1  0.4356471E-010  0.4778727E+02  0.7816164E-02  0.1312668E+00
        -11   -1    0    0    0    0  0.00000000000E+00  0.00000000000E+00  0.45593999997E+02  0.45594000000E+02  0.51100000000E-03 0.  1.
         11   -1    0    0    0    0 -0.00000000000E+00 -0.00000000000E+00 -0.45593999997E+02  0.45594000000E+02  0.51100000000E-03 0. -1.
    9900012    2    1    2    0    0  0.24350974771E+02  0.34633634089E+02  0.95480280168E+01  0.47787269343E+02  0.19999992244E+02 0.  0.
        -12    1    1    2    0    0 -0.24350974771E+02 -0.34633634089E+02 -0.95480280168E+01  0.43400730657E+02  0.00000000000E+00 0.  1.
         11    1    3    3    0    0  0.58100210269E+00 -0.38899412764E+00  0.37360833878E+01  0.38009471473E+01  0.51100000000E-03 0. -1.
        -11    1    3    3    0    0  0.24499897990E+01  0.11089187010E+01 -0.17661333032E+01  0.32173557164E+01  0.51100000000E-03 0.  1.
         12    1    3    3    0    0  0.21319982870E+02  0.33913709516E+02  0.75780779321E+01  0.40768966480E+02  0.00000000000E+00 0. -1.
</event>
<event>
 7    1  0.4356471E-010  0.4778727E+02  0.7816164E-02  0.1312668E+00
        -11   -1    0    0    0    0  0.00000000000E+00  0.00000000000E+00  0.45593999997E+02  0.45594000000E+02  0.51100000000E-03 0.  1.
         11   -1    0    0    0    0 -0.00000000000E+00 -0.00000000000E+00 -0.45593999997E+02  0.45594000000E+02  0.51100000000E-03 0. -1.
    9900012    2    1    2    0    0 -0.94916997951E+01  0.42340994846E+02 -0.87831113704E+00  0.47787266827E+02  0.19999980769E+02 0.  0.
        -12    1    1    2    0    0  0.94916997951E+01 -0.42340994846E+02  0.87831113704E+00  0.43400733173E+02  0.00000000000E+00 0.  1.
         11    1    3    3    0    0 -0.99217133664E+01  0.22686641232E+02  0.12908599342E+01  0.24794967355E+02  0.51100000000E-03 0. -1.
        -11    1    3    3    0    0 -0.16954057653E+01  0.14426979007E+00  0.23032844212E+01  0.28636225078E+01  0.51100000000E-03 0.  1.
         12    1    3    3    0    0  0.21254193366E+01  0.19510083824E+02 -0.44724554924E+01  0.20128676963E+02  0.00000000000E+00 0. -1.
</event>
<event>
 7    1  0.4356471E-010  0.4778728E+02  0.7816164E-02  0.1312668E+00
        -11   -1    0    0    0    0  0.00000000000E+00  0.00000000000E+00  0.45593999997E+02  0.45594000000E+02  0.51100000000E-03 0. -1.
         11   -1    0    0    0    0 -0.00000000000E+00 -0.00000000000E+00 -0.45593999997E+02  0.45594000000E+02  0.51100000000E-03 0.  1.
    9900012    2    1    2    0    0 -0.39150181386E+02 -0.18602262440E+02 -0.22004116506E+01  0.47787277865E+02  0.20000031097E+02 0.  0.
        -12    1    1    2    0    0  0.39150181386E+02  0.18602262440E+02  0.22004116506E+01  0.43400722135E+02  0.00000000000E+00 0.  1.
         11    1    3    3    0    0 -0.37296963719E+01 -0.33511283760E+01  0.42968708765E+00  0.50324276123E+01  0.51100000000E-03 0. -1.
        -11    1    3    3    0    0 -0.17657008997E+02  0.10409996790E+01  0.31551441955E+01  0.17966874581E+02  0.51100000000E-03 0.  1.
        -12    1    3    3    0    0 -0.17763476017E+02 -0.16292133743E+02 -0.57852429337E+01  0.24787975672E+02  0.00000000000E+00 0.  1.
</event>
<event>
 7    1  0.4356471E-010  0.4778724E+02  0.7816164E-02  0.1312668E+00
        -11   -1    0    0    0    0  0.00000000000E+00  0.00000000000E+00  0.45593999997E+02  0.45594000000E+02  0.51100000000E-03 0.  1.
         11   -1    0    0    0    0 -0.00000000000E+00 -0.00000000000E+00 -0.45593999997E+02  0.45594000000E+02  0.51100000000E-03 0. -1.
    9900012    2    1    2    0    0  0.12683309164E+02 -0.77715662225E+01 -0.40772078553E+02  0.47787240071E+02  0.19999858778E+02 0.  0.
        -12    1    1    2    0    0 -0.12683309164E+02  0.77715662225E+01  0.40772078553E+02  0.43400759929E+02  0.00000000000E+00 0.  1.
         11    1    3    3    0    0  0.46439280110E+01  0.39348294661E+01 -0.67369714024E+01  0.90794126592E+01  0.51100000000E-03 0. -1.
        -11    1    3    3    0    0  0.72103450126E+01 -0.59007946204E+00 -0.11957732001E+02  0.13975858608E+02  0.51100000000E-03 0.  1.
        -12    1    3    3    0    0  0.82903614005E+00 -0.11116316227E+02 -0.22077375150E+02  0.24731968803E+02  0.00000000000E+00 0.  1.
</event>
<event>
 7    1  0.4356471E-010  0.4778727E+02  0.7816164E-02  0.1312668E+00
        -11   -1    0    0    0    0  0.00000000000E+00  0.00000000000E+00  0.45593999997E+02  0.45594000000E+02  0.51100000000E-03 0. -1.
         11   -1    0    0    0    0 -0.00000000000E+00 -0.00000000000E+00 -0.45593999997E+02  0.45594000000E+02  0.51100000000E-03 0.  1.
    9900012    2    1    2    0    0  0.19279689447E+02 -0.36992155364E+02 -0.11979038419E+02  0.47787270224E+02  0.19999996261E+02 0.  0.
        -12    1    1    2    0    0 -0.19279689447E+02  0.36992155364E+02  0.11979038419E+02  0.43400729776E+02  0.00000000000E+00 0.  1.
         11    1    3    3    0    0  0.22279732518E+01 -0.73854661047E+01  0.11075509778E+01  0.77933076305E+01  0.51100000000E-03 0. -1.
        -11    1    3    3    0    0  0.18095541507E+02 -0.17215200378E+02 -0.60219180339E+01  0.25691929541E+02  0.51100000000E-03 0.  1.
        -12    1    3    3    0    0 -0.10438253124E+01 -0.12391488881E+02 -0.70646713625E+01  0.14302033053E+02  0.00000000000E+00 0.  1.
</event>
<event>
 7    1  0.4356471E-010  0.4778727E+02  0.7816164E-02  0.1312668E+00
        -11   -1    0    0    0    0  0.00000000000E+00  0.00000000000E+00  0.45593999997E+02  0.45594000000E+02  0.51100000000E-03 0.  1.
         11   -1    0    0    0    0 -0.00000000000E+00 -0.00000000000E+00 -0.45593999997E+02  0.45594000000E+02  0.51100000000E-03 0. -1.
    9900012    2    1    2    0    0  0.73856242383E+01  0.16087342405E+02 -0.39626672940E+02  0.47787271443E+02  0.20000001816E+02 0.  0.
        -12    1    1    2    0    0 -0.73856242383E+01 -0.16087342405E+02  0.39626672940E+02  0.43400728557E+02  0.00000000000E+00 0.  1.
         11    1    3    3    0    0  0.58896340825E+01  0.77088509098E+01 -0.15433342776E+02  0.18229159099E+02  0.51100000000E-03 0. -1.
        -11    1    3    3    0    0  0.50246847219E+01  0.54654102572E+01 -0.23839382920E+02  0.24968667247E+02  0.51100000000E-03 0.  1.
        -12    1    3    3    0    0 -0.35286945661E+01  0.29130812379E+01 -0.35394724366E+00  0.45894450962E+01  0.00000000000E+00 0.  1.
</event>
<event>
 7    1  0.4356471E-010  0.4778728E+02  0.7816164E-02  0.1312668E+00
        -11   -1    0    0    0    0  0.00000000000E+00  0.00000000000E+00  0.45593999997E+02  0.45594000000E+02  0.51100000000E-03 0. -1.
         11   -1    0    0    0    0 -0.00000000000E+00 -0.00000000000E+00 -0.45593999997E+02  0.45594000000E+02  0.51100000000E-03 0.  1.
    9900012    2    1    2    0    0  0.31856412369E+02 -0.20086521417E+02  0.21571358759E+02  0.47787275693E+02  0.20000021194E+02 0.  0.
        -12    1    1    2    0    0 -0.31856412369E+02  0.20086521417E+02 -0.21571358759E+02  0.43400724307E+02  0.00000000000E+00 0.  1.
         11    1    3    3    0    0  0.12303237751E+01 -0.82908126969E+01  0.54040717134E+01  0.99727259619E+01  0.51100000000E-03 0. -1.
        -11    1    3    3    0    0  0.53663019389E+01 -0.36974997208E-01  0.62543077582E+01  0.82410514769E+01  0.51100000000E-03 0.  1.
         12    1    3    3    0    0  0.25259786655E+02 -0.11758733723E+02  0.99129792878E+01  0.29573498254E+02  0.00000000000E+00 0. -1.
</event>
<event>
 7    1  0.4356471E-010  0.4778727E+02  0.7816164E-02  0.1312668E+00
        -11   -1    0    0    0    0  0.00000000000E+00  0.00000000000E+00  0.45593999997E+02  0.45594000000E+02  0.51100000000E-03 0. -1.
         11   -1    0    0    0    0 -0.00000000000E+00 -0.00000000000E+00 -0.45593999997E+02  0.45594000000E+02  0.51100000000E-03 0.  1.
    9900012    2    1    2    0    0  0.86299642246E+01  0.16825265929E+02  0.39064785416E+02  0.47787270563E+02  0.19999997803E+02 0.  0.
        -12    1    1    2    0    0 -0.86299642246E+01 -0.16825265929E+02 -0.39064785416E+02  0.43400729437E+02  0.00000000000E+00 0.  1.
         11    1    3    3    0    0 -0.26972374348E+01  0.16842970029E+01  0.43048985137E+01  0.53520180912E+01  0.51100000000E-03 0. -1.
        -11    1    3    3    0    0 -0.37168253373E+01  0.45595310790E+01  0.98129678262E+01  0.11441086140E+02  0.51100000000E-03 0.  1.
         12    1    3    3    0    0  0.15044026997E+02  0.10581437847E+02  0.24946919076E+02  0.30994166331E+02  0.00000000000E+00 0. -1.
</event>
<event>
 7    1  0.4356471E-010  0.4778727E+02  0.7816164E-02  0.1312668E+00
        -11   -1    0    0    0    0  0.00000000000E+00  0.00000000000E+00  0.45593999997E+02  0.45594000000E+02  0.51100000000E-03 0.  1.
         11   -1    0    0    0    0 -0.00000000000E+00 -0.00000000000E+00 -0.45593999997E+02  0.45594000000E+02  0.51100000000E-03 0. -1.
    9900012    2    1    2    0    0  0.22937513253E+02 -0.31629110033E+02 -0.18896908650E+02  0.47787271063E+02  0.20000000086E+02 0.  0.
        -12    1    1    2    0    0 -0.22937513253E+02  0.31629110033E+02  0.18896908650E+02  0.43400728937E+02  0.00000000000E+00 0.  1.
         11    1    3    3    0    0  0.74639859237E+01 -0.14421245013E+02 -0.35562065920E+01  0.16623176567E+02  0.51100000000E-03 0. -1.
        -11    1    3    3    0    0 -0.26756328878E+01 -0.33001739531E+01 -0.20568154028E+01  0.47202382708E+01  0.51100000000E-03 0.  1.
        -12    1    3    3    0    0  0.18149160218E+02 -0.13907691067E+02 -0.13283886655E+02  0.26443856226E+02  0.00000000000E+00 0.  1.
</event>
<event>
 7    1  0.4356471E-010  0.4778728E+02  0.7816164E-02  0.1312668E+00
        -11   -1    0    0    0    0  0.00000000000E+00  0.00000000000E+00  0.45593999997E+02  0.45594000000E+02  0.51100000000E-03 0. -1.
         11   -1    0    0    0    0 -0.00000000000E+00 -0.00000000000E+00 -0.45593999997E+02  0.45594000000E+02  0.51100000000E-03 0.  1.
    9900012    2    1    2    0    0 -0.40957837080E+02 -0.66179302581E+01 -0.12738968990E+02  0.47787277079E+02  0.20000027514E+02 0.  0.
        -12    1    1    2    0    0  0.40957837080E+02  0.66179302581E+01  0.12738968990E+02  0.43400722921E+02  0.00000000000E+00 0.  1.
         11    1    3    3    0    0 -0.60706283207E+01 -0.42659121067E+01  0.81924157691E+00  0.74646963323E+01  0.51100000000E-03 0.  1.
        -11    1    3    3    0    0 -0.13441550015E+02 -0.70445616912E+01 -0.97603708397E+01  0.18043446329E+02  0.51100000000E-03 0. -1.
        -12    1    3    3    0    0 -0.21445658744E+02  0.46925435398E+01 -0.37978397268E+01  0.22279134418E+02  0.00000000000E+00 0.  1.
</event>
<event>
 7    1  0.4356471E-010  0.4778727E+02  0.7816164E-02  0.1312668E+00
        -11   -1    0    0    0    0  0.00000000000E+00  0.00000000000E+00  0.45593999997E+02  0.45594000000E+02  0.51100000000E-03 0.  1.
         11   -1    0    0    0    0 -0.00000000000E+00 -0.00000000000E+00 -0.45593999997E+02  0.45594000000E+02  0.51100000000E-03 0. -1.
    9900012    2    1    2    0    0  0.61207802615E+00  0.19340109781E+02 -0.38848537673E+02  0.47787269992E+02  0.19999995203E+02 0.  0.
        -12    1    1    2    0    0 -0.61207802615E+00 -0.19340109781E+02  0.38848537673E+02  0.43400730008E+02  0.00000000000E+00 0.  1.
         11    1    3    3    0    0 -0.10594018925E+01  0.45965409895E+01 -0.10708494648E+01  0.48370693892E+01  0.51100000000E-03 0. -1.
        -11    1    3    3    0    0  0.34933478781E+01  0.14327970401E+02 -0.18864931473E+02  0.23945351427E+02  0.51100000000E-03 0.  1.
         12    1    3    3    0    0 -0.18218679595E+01  0.41559839050E+00 -0.18912756735E+02  0.19004849176E+02  0.00000000000E+00 0. -1.
</event>
<event>
 7    1  0.4356471E-010  0.4778727E+02  0.7816164E-02  0.1312668E+00
        -11   -1    0    0    0    0  0.00000000000E+00  0.00000000000E+00  0.45593999997E+02  0.45594000000E+02  0.51100000000E-03 0.  1.
         11   -1    0    0    0    0 -0.00000000000E+00 -0.00000000000E+00 -0.45593999997E+02  0.45594000000E+02  0.51100000000E-03 0. -1.
    9900012    2    1    2    0    0  0.30977874583E+01  0.42603958832E+02 -0.76766009072E+01  0.47787265020E+02  0.19999972531E+02 0.  0.
        -12    1    1    2    0    0 -0.30977874583E+01 -0.42603958832E+02  0.76766009072E+01  0.43400734980E+02  0.00000000000E+00 0.  1.
         11    1    3    3    0    0 -0.24429058223E-01  0.24033489788E+02 -0.71478900525E+01  0.25073921924E+02  0.51100000000E-03 0. -1.
        -11    1    3    3    0    0  0.59520568999E+01  0.80519287334E+01 -0.46848888407E+01  0.11054805352E+02  0.51100000000E-03 0.  1.
        -12    1    3    3    0    0 -0.28298403834E+01  0.10518540311E+02  0.41561779860E+01  0.11658537744E+02  0.00000000000E+00 0.  1.
</event>
<event>
 7    1  0.4356471E-010  0.4778727E+02  0.7816164E-02  0.1312668E+00
        -11   -1    0    0    0    0  0.00000000000E+00  0.00000000000E+00  0.45593999997E+02  0.45594000000E+02  0.51100000000E-03 0. -1.
         11   -1    0    0    0    0 -0.00000000000E+00 -0.00000000000E+00 -0.45593999997E+02  0.45594000000E+02  0.51100000000E-03 0.  1.
    9900012    2    1    2    0    0  0.18165098405E+01  0.72801497296E+01  0.42747194582E+02  0.47787274975E+02  0.20000017920E+02 0.  0.
        -12    1    1    2    0    0 -0.18165098405E+01 -0.72801497296E+01 -0.42747194582E+02  0.43400725025E+02  0.00000000000E+00 0.  1.
         11    1    3    3    0    0  0.97594546450E+01  0.59341285437E+01  0.20733419805E+02  0.23671407513E+02  0.51100000000E-03 0. -1.
        -11    1    3    3    0    0 -0.63361784766E+00 -0.68152953653E+00  0.11142935779E+00  0.93721440927E+00  0.51100000000E-03 0.  1.
         12    1    3    3    0    0 -0.73093269569E+01  0.20275507224E+01  0.21902345419E+02  0.23178653053E+02  0.00000000000E+00 0. -1.
</event>
<event>
 7    1  0.4356471E-010  0.4778727E+02  0.7816164E-02  0.1312668E+00
        -11   -1    0    0    0    0  0.00000000000E+00  0.00000000000E+00  0.45593999997E+02  0.45594000000E+02  0.51100000000E-03 0.  1.
         11   -1    0    0    0    0 -0.00000000000E+00 -0.00000000000E+00 -0.45593999997E+02  0.45594000000E+02  0.51100000000E-03 0. -1.
    9900012    2    1    2    0    0 -0.32972630861E+01 -0.20716859150E+02 -0.37994252573E+02  0.47787269298E+02  0.19999992038E+02 0.  0.
        -12    1    1    2    0    0  0.32972630861E+01  0.20716859150E+02  0.37994252573E+02  0.43400730702E+02  0.00000000000E+00 0.  1.
         11    1    3    3    0    0 -0.15329351425E+01 -0.99189332796E+01 -0.64918798711E+01  0.11953226848E+02  0.51100000000E-03 0. -1.
        -11    1    3    3    0    0 -0.59616700310E+01 -0.74966015914E+01 -0.10715848042E+02  0.14372541338E+02  0.51100000000E-03 0.  1.
        -12    1    3    3    0    0  0.41973420874E+01 -0.33013242788E+01 -0.20786524659E+02  0.21461501112E+02  0.00000000000E+00 0.  1.
</event>
<event>
 7    1  0.4356471E-010  0.4778727E+02  0.7816164E-02  0.1312668E+00
        -11   -1    0    0    0    0  0.00000000000E+00  0.00000000000E+00  0.45593999997E+02  0.45594000000E+02  0.51100000000E-03 0.  1.
         11   -1    0    0    0    0 -0.00000000000E+00 -0.00000000000E+00 -0.45593999997E+02  0.45594000000E+02  0.51100000000E-03 0. -1.
    9900012    2    1    2    0    0  0.28882938601E+02 -0.20539648981E+02 -0.25050389196E+02  0.47787270498E+02  0.19999997507E+02 0.  0.
        -12    1    1    2    0    0 -0.28882938601E+02  0.20539648981E+02  0.25050389196E+02  0.43400729502E+02  0.00000000000E+00 0.  1.
         11    1    3    3    0    0  0.13501567785E+01 -0.72978650445E+01 -0.26881073464E+01  0.78935213246E+01  0.51100000000E-03 0. -1.
        -11    1    3    3    0    0  0.12285167386E+02 -0.66718167285E+01 -0.28388144497E+01  0.14265249521E+02  0.51100000000E-03 0.  1.
         12    1    3    3    0    0  0.15247614436E+02 -0.65699672078E+01 -0.19523467400E+02  0.25628499652E+02  0.00000000000E+00 0. -1.
</event>
<event>
 7    1  0.4356471E-010  0.4778727E+02  0.7816164E-02  0.1312668E+00
        -11   -1    0    0    0    0  0.00000000000E+00  0.00000000000E+00  0.45593999997E+02  0.45594000000E+02  0.51100000000E-03 0.  1.
         11   -1    0    0    0    0 -0.00000000000E+00 -0.00000000000E+00 -0.45593999997E+02  0.45594000000E+02  0.51100000000E-03 0. -1.
    9900012    2    1    2    0    0  0.12361899563E+02  0.15006093341E+02 -0.38802372886E+02  0.47787267981E+02  0.19999986034E+02 0.  0.
        -12    1    1    2    0    0 -0.12361899563E+02 -0.15006093341E+02  0.38802372886E+02  0.43400732019E+02  0.00000000000E+00 0.  1.
         11    1    3    3    0    0 -0.32656371630E+01  0.33555126308E+00 -0.12412307195E+01  0.35096487988E+01  0.51100000000E-03 0. -1.
        -11    1    3    3    0    0  0.57407503137E+01  0.57686338803E+00 -0.13598593966E+02  0.14771958016E+02  0.51100000000E-03 0.  1.
         12    1    3    3    0    0  0.98867864119E+01  0.14093678689E+02 -0.23962548201E+02  0.29505661166E+02  0.00000000000E+00 0. -1.
</event>
<event>
 7    1  0.4356471E-010  0.4778727E+02  0.7816164E-02  0.1312668E+00
        -11   -1    0    0    0    0  0.00000000000E+00  0.00000000000E+00  0.45593999997E+02  0.45594000000E+02  0.51100000000E-03 0.  1.
         11   -1    0    0    0    0 -0.00000000000E+00 -0.00000000000E+00 -0.45593999997E+02  0.45594000000E+02  0.51100000000E-03 0. -1.
    9900012    2    1    2    0    0  0.24995250080E+02 -0.18642494535E+02 -0.30188045559E+02  0.47787271622E+02  0.20000002634E+02 0.  0.
        -12    1    1    2    0    0 -0.24995250080E+02  0.18642494535E+02  0.30188045559E+02  0.43400728378E+02  0.00000000000E+00 0.  1.
         11    1    3    3    0    0  0.13539244992E+02 -0.81655585926E+01 -0.14346444421E+02  0.21349659713E+02  0.51100000000E-03 0. -1.
        -11    1    3    3    0    0  0.10785725475E+02 -0.67246650287E+01 -0.18016771991E+02  0.22048969750E+02  0.51100000000E-03 0.  1.
        -12    1    3    3    0    0  0.67027961324E+00 -0.37522709132E+01  0.21751708527E+01  0.43886421595E+01  0.00000000000E+00 0.  1.
</event>
<event>
 7    1  0.4356471E-010  0.4778727E+02  0.7816164E-02  0.1312668E+00
        -11   -1    0    0    0    0  0.00000000000E+00  0.00000000000E+00  0.45593999997E+02  0.45594000000E+02  0.51100000000E-03 0.  1.
         11   -1    0    0    0    0 -0.00000000000E+00 -0.00000000000E+00 -0.45593999997E+02  0.45594000000E+02  0.51100000000E-03 0. -1.
    9900012    2    1    2    0    0  0.79435278339E+01  0.63264187610E+01 -0.42195971712E+02  0.47787271464E+02  0.20000001911E+02 0.  0.
        -12    1    1    2    0    0 -0.79435278339E+01 -0.63264187610E+01  0.42195971712E+02  0.43400728536E+02  0.00000000000E+00 0.  1.
         11    1    3    3    0    0  0.36007040605E+00  0.47861188190E+01 -0.32653330689E+01  0.58050826315E+01  0.51100000000E-03 0. -1.
        -11    1    3    3    0    0  0.10767014080E+01 -0.43822979402E+01 -0.42361264408E+01  0.61893932370E+01  0.51100000000E-03 0.  1.
         12    1    3    3    0    0  0.65067560198E+01  0.59225978822E+01 -0.34694512202E+02  0.35792795595E+02  0.00000000000E+00 0. -1.
</event>
<event>
 7    1  0.4356471E-010  0.4778727E+02  0.7816164E-02  0.1312668E+00
        -11   -1    0    0    0    0  0.00000000000E+00  0.00000000000E+00  0.45593999997E+02  0.45594000000E+02  0.51100000000E-03 0. -1.
         11   -1    0    0    0    0 -0.00000000000E+00 -0.00000000000E+00 -0.45593999997E+02  0.45594000000E+02  0.51100000000E-03 0.  1.
    9900012    2    1    2    0    0  0.13495297404E+02 -0.18543194336E+01  0.41207545960E+02  0.47787269630E+02  0.19999993552E+02 0.  0.
        -12    1    1    2    0    0 -0.13495297404E+02  0.18543194336E+01 -0.41207545960E+02  0.43400730370E+02  0.00000000000E+00 0.  1.
         11    1    3    3    0    0  0.19821474010E+01 -0.44906586053E+01  0.28307226054E+02  0.28729670554E+02  0.51100000000E-03 0. -1.
        -11    1    3    3    0    0  0.16509745288E+01  0.29478622432E+01  0.64139628489E+01  0.72494502128E+01  0.51100000000E-03 0.  1.
         12    1    3    3    0    0  0.98621754738E+01 -0.31152307143E+00  0.64863570572E+01  0.11808148863E+02  0.00000000000E+00 0. -1.
</event>
<event>
 7    1  0.4356471E-010  0.4778727E+02  0.7816164E-02  0.1312668E+00
        -11   -1    0    0    0    0  0.00000000000E+00  0.00000000000E+00  0.45593999997E+02  0.45594000000E+02  0.51100000000E-03 0.  1.
         11   -1    0    0    0    0 -0.00000000000E+00 -0.00000000000E+00 -0.45593999997E+02  0.45594000000E+02  0.51100000000E-03 0. -1.
    9900012    2    1    2    0    0  0.35825797112E+01 -0.29891221085E+02 -0.31261846899E+02  0.47787273659E+02  0.20000011922E+02 0.  0.
        -12    1    1    2    0    0 -0.35825797112E+01  0.29891221085E+02  0.31261846899E+02  0.43400726341E+02  0.00000000000E+00 0.  1.
         11    1    3    3    0    0 -0.22864417297E+01 -0.92708195845E+01 -0.17790015859E+02  0.20190606135E+02  0.51100000000E-03 0. -1.
        -11    1    3    3    0    0 -0.16981666497E+01  0.90165304816E-02  0.21099443721E+00  0.17112481356E+01  0.51100000000E-03 0.  1.
        -12    1    3    3    0    0  0.75671880906E+01 -0.20629418031E+02 -0.13682825477E+02  0.25885419389E+02  0.00000000000E+00 0.  1.
</event>
<event>
 7    1  0.4356471E-010  0.4778727E+02  0.7816164E-02  0.1312668E+00
        -11   -1    0    0    0    0  0.00000000000E+00  0.00000000000E+00  0.45593999997E+02  0.45594000000E+02  0.51100000000E-03 0.  1.
         11   -1    0    0    0    0 -0.00000000000E+00 -0.00000000000E+00 -0.45593999997E+02  0.45594000000E+02  0.51100000000E-03 0. -1.
    9900012    2    1    2    0    0 -0.25310485260E+02  0.53450917900E+01 -0.34848709820E+02  0.47787271361E+02  0.20000001441E+02 0.  0.
        -12    1    1    2    0    0  0.25310485260E+02 -0.53450917900E+01  0.34848709820E+02  0.43400728639E+02  0.00000000000E+00 0.  1.
         11    1    3    3    0    0 -0.47433484957E+01  0.43075359457E+01 -0.14067546768E+02  0.15458010649E+02  0.51100000000E-03 0. -1.
        -11    1    3    3    0    0 -0.40976021413E+01  0.33715143313E+00 -0.13849257630E+02  0.14446658837E+02  0.51100000000E-03 0.  1.
        -12    1    3    3    0    0 -0.16469534623E+02  0.70040441116E+00 -0.69319054217E+01  0.17882601875E+02  0.00000000000E+00 0.  1.
</event>
<event>
 7    1  0.4356471E-010  0.4778726E+02  0.7816164E-02  0.1312668E+00
        -11   -1    0    0    0    0  0.00000000000E+00  0.00000000000E+00  0.45593999997E+02  0.45594000000E+02  0.51100000000E-03 0. -1.
         11   -1    0    0    0    0 -0.00000000000E+00 -0.00000000000E+00 -0.45593999997E+02  0.45594000000E+02  0.51100000000E-03 0.  1.
    9900012    2    1    2    0    0  0.32751945514E+02  0.56298242557E+01  0.27914858569E+02  0.47787260547E+02  0.19999952139E+02 0.  0.
        -12    1    1    2    0    0 -0.32751945514E+02 -0.56298242557E+01 -0.27914858569E+02  0.43400739453E+02  0.00000000000E+00 0.  1.
         11    1    3    3    0    0  0.16377454301E+02  0.11101067114E+02  0.12383346440E+02  0.23340993333E+02  0.51100000000E-03 0. -1.
        -11    1    3    3    0    0  0.29092116149E+01  0.19441202371E+01  0.31466520071E+01  0.47057980016E+01  0.51100000000E-03 0.  1.
        -12    1    3    3    0    0  0.13465279599E+02 -0.74153630954E+01  0.12384860122E+02  0.19740469213E+02  0.00000000000E+00 0.  1.
</event>
<event>
 7    1  0.4356471E-010  0.4778727E+02  0.7816164E-02  0.1312668E+00
        -11   -1    0    0    0    0  0.00000000000E+00  0.00000000000E+00  0.45593999997E+02  0.45594000000E+02  0.51100000000E-03 0.  1.
         11   -1    0    0    0    0 -0.00000000000E+00 -0.00000000000E+00 -0.45593999997E+02  0.45594000000E+02  0.51100000000E-03 0. -1.
    9900012    2    1    2    0    0 -0.37574281754E+02  0.20219556296E+02  0.79351206899E+01  0.47787271360E+02  0.20000001439E+02 0.  0.
        -12    1    1    2    0    0  0.37574281754E+02 -0.20219556296E+02 -0.79351206899E+01  0.43400728640E+02  0.00000000000E+00 0.  1.
         11    1    3    3    0    0 -0.24515446408E+01  0.23875054869E+01  0.16776725137E+01  0.38111466647E+01  0.51100000000E-03 0. -1.
        -11    1    3    3    0    0  0.19361910289E+01  0.23289816098E+01  0.18861437233E+01  0.35679867496E+01  0.51100000000E-03 0.  1.
         12    1    3    3    0    0 -0.37058928142E+02  0.15503069199E+02  0.43713044529E+01  0.40408137946E+02  0.00000000000E+00 0. -1.
</event>
<event>
 7    1  0.4356471E-010  0.4778727E+02  0.7816164E-02  0.1312668E+00
        -11   -1    0    0    0    0  0.00000000000E+00  0.00000000000E+00  0.45593999997E+02  0.45594000000E+02  0.51100000000E-03 0.  1.
         11   -1    0    0    0    0 -0.00000000000E+00 -0.00000000000E+00 -0.45593999997E+02  0.45594000000E+02  0.51100000000E-03 0. -1.
    9900012    2    1    2    0    0 -0.27568768040E+02 -0.18063869712E+02 -0.28236200675E+02  0.47787269721E+02  0.19999993965E+02 0.  0.
        -12    1    1    2    0    0  0.27568768040E+02  0.18063869712E+02  0.28236200675E+02  0.43400730279E+02  0.00000000000E+00 0.  1.
         11    1    3    3    0    0 -0.11907179017E+02 -0.12426085701E+01 -0.15100771101E+02  0.19270658430E+02  0.51100000000E-03 0. -1.
        -11    1    3    3    0    0 -0.64006083368E+00 -0.19509948530E+00 -0.44262349761E+01  0.44765274494E+01  0.51100000000E-03 0.  1.
        -12    1    3    3    0    0 -0.15021528189E+02 -0.16626161656E+02 -0.87091945971E+01  0.24040083841E+02  0.00000000000E+00 0.  1.
</event>
<event>
 7    1  0.4356471E-010  0.4778727E+02  0.7816164E-02  0.1312668E+00
        -11   -1    0    0    0    0  0.00000000000E+00  0.00000000000E+00  0.45593999997E+02  0.45594000000E+02  0.51100000000E-03 0. -1.
         11   -1    0    0    0    0 -0.00000000000E+00 -0.00000000000E+00 -0.45593999997E+02  0.45594000000E+02  0.51100000000E-03 0.  1.
    9900012    2    1    2    0    0 -0.56188597446E+01 -0.31917586436E+02  0.28867271232E+02  0.47787271238E+02  0.20000000881E+02 0.  0.
        -12    1    1    2    0    0  0.56188597446E+01  0.31917586436E+02 -0.28867271232E+02  0.43400728762E+02  0.00000000000E+00 0.  1.
         11    1    3    3    0    0  0.12135644718E+01 -0.72577715506E+00 -0.11360528261E+01  0.18138653453E+01  0.51100000000E-03 0. -1.
        -11    1    3    3    0    0 -0.14472184591E+01 -0.18246036856E+02  0.82124303967E+01  0.20061313902E+02  0.51100000000E-03 0.  1.
         12    1    3    3    0    0 -0.53852057573E+01 -0.12945772425E+02  0.21790893662E+02  0.25912091990E+02  0.00000000000E+00 0. -1.
</event>
<event>
 7    1  0.4356471E-010  0.4778727E+02  0.7816164E-02  0.1312668E+00
        -11   -1    0    0    0    0  0.00000000000E+00  0.00000000000E+00  0.45593999997E+02  0.45594000000E+02  0.51100000000E-03 0.  1.
         11   -1    0    0    0    0 -0.00000000000E+00 -0.00000000000E+00 -0.45593999997E+02  0.45594000000E+02  0.51100000000E-03 0. -1.
    9900012    2    1    2    0    0 -0.34296080171E+02 -0.23774002906E+02 -0.11924717828E+02  0.47787271612E+02  0.20000002590E+02 0.  0.
        -12    1    1    2    0    0  0.34296080171E+02  0.23774002906E+02  0.11924717828E+02  0.43400728388E+02  0.00000000000E+00 0.  1.
         11    1    3    3    0    0 -0.15705442195E+02 -0.71580233863E+01 -0.13046126701E+02  0.21635610356E+02  0.51100000000E-03 0. -1.
        -11    1    3    3    0    0 -0.67887232738E+01 -0.15042238263E+01  0.31236589011E+00  0.69603897677E+01  0.51100000000E-03 0.  1.
        -12    1    3    3    0    0 -0.11801914703E+02 -0.15111755694E+02  0.80904298302E+00  0.19191271488E+02  0.00000000000E+00 0.  1.
</event>
<event>
 7    1  0.4356471E-010  0.4778727E+02  0.7816164E-02  0.1312668E+00
        -11   -1    0    0    0    0  0.00000000000E+00  0.00000000000E+00  0.45593999997E+02  0.45594000000E+02  0.51100000000E-03 0. -1.
         11   -1    0    0    0    0 -0.00000000000E+00 -0.00000000000E+00 -0.45593999997E+02  0.45594000000E+02  0.51100000000E-03 0.  1.
    9900012    2    1    2    0    0 -0.42099224902E+02 -0.77900348607E+01  0.71129469251E+01  0.47787269655E+02  0.19999993665E+02 0.  0.
        -12    1    1    2    0    0  0.42099224902E+02  0.77900348607E+01 -0.71129469251E+01  0.43400730345E+02  0.00000000000E+00 0.  1.
         11    1    3    3    0    0 -0.29257820229E+02 -0.63403295754E+01  0.30388364004E+01  0.30090768529E+02  0.51100000000E-03 0. -1.
        -11    1    3    3    0    0 -0.93866625055E+01 -0.60028195306E+01  0.43822446794E+01  0.11972775117E+02  0.51100000000E-03 0.  1.
        -12    1    3    3    0    0 -0.34547421675E+01  0.45531142454E+01 -0.30813415476E+00  0.57237260095E+01  0.00000000000E+00 0.  1.
</event>
<event>
 7    1  0.4356471E-010  0.4778730E+02  0.7816164E-02  0.1312668E+00
        -11   -1    0    0    0    0  0.00000000000E+00  0.00000000000E+00  0.45593999997E+02  0.45594000000E+02  0.51100000000E-03 0.  1.
         11   -1    0    0    0    0 -0.00000000000E+00 -0.00000000000E+00 -0.45593999997E+02  0.45594000000E+02  0.51100000000E-03 0. -1.
    9900012    2    1    2    0    0 -0.25441690720E+02  0.34133156507E+02 -0.84420820424E+01  0.47787300132E+02  0.20000132622E+02 0.  0.
        -12    1    1    2    0    0  0.25441690720E+02 -0.34133156507E+02  0.84420820424E+01  0.43400699868E+02  0.00000000000E+00 0.  1.
         11    1    3    3    0    0 -0.44817986038E+01  0.74187457559E+01 -0.60333000691E+01  0.10560540578E+02  0.51100000000E-03 0. -1.
        -11    1    3    3    0    0 -0.18550130864E+02  0.11693796757E+02 -0.10489146348E+01  0.21953415676E+02  0.51100000000E-03 0.  1.
        -12    1    3    3    0    0 -0.24097612523E+01  0.15020613994E+02 -0.13598673385E+01  0.15273343878E+02  0.00000000000E+00 0.  1.
</event>
<event>
 7    1  0.4356471E-010  0.4778727E+02  0.7816164E-02  0.1312668E+00
        -11   -1    0    0    0    0  0.00000000000E+00  0.00000000000E+00  0.45593999997E+02  0.45594000000E+02  0.51100000000E-03 0. -1.
         11   -1    0    0    0    0 -0.00000000000E+00 -0.00000000000E+00 -0.45593999997E+02  0.45594000000E+02  0.51100000000E-03 0.  1.
    9900012    2    1    2    0    0  0.13007566636E+02  0.35272937409E+02  0.21685168441E+02  0.47787269205E+02  0.19999991611E+02 0.  0.
        -12    1    1    2    0    0 -0.13007566636E+02 -0.35272937409E+02 -0.21685168441E+02  0.43400730795E+02  0.00000000000E+00 0.  1.
         11    1    3    3    0    0  0.34579092947E+01  0.74825657276E+01  0.16504913275E+01  0.84065479504E+01  0.51100000000E-03 0. -1.
        -11    1    3    3    0    0  0.66899722755E+01  0.21616997287E+02  0.54327154411E+01  0.23271542667E+02  0.51100000000E-03 0.  1.
        -12    1    3    3    0    0  0.28596850657E+01  0.61733743945E+01  0.14601961672E+02  0.16109178587E+02  0.00000000000E+00 0.  1.
</event>
<event>
 7    1  0.4356471E-010  0.4778727E+02  0.7816164E-02  0.1312668E+00
        -11   -1    0    0    0    0  0.00000000000E+00  0.00000000000E+00  0.45593999997E+02  0.45594000000E+02  0.51100000000E-03 0.  1.
         11   -1    0    0    0    0 -0.00000000000E+00 -0.00000000000E+00 -0.45593999997E+02  0.45594000000E+02  0.51100000000E-03 0. -1.
    9900012    2    1    2    0    0  0.16699516371E+02 -0.19059650452E+01 -0.40013959718E+02  0.47787268185E+02  0.19999986964E+02 0.  0.
        -12    1    1    2    0    0 -0.16699516371E+02  0.19059650452E+01  0.40013959718E+02  0.43400731815E+02  0.00000000000E+00 0.  1.
         11    1    3    3    0    0  0.14928235196E+02  0.67321598501E-01 -0.20524621905E+02  0.25379457103E+02  0.51100000000E-03 0. -1.
        -11    1    3    3    0    0  0.37748744485E+01 -0.37962466600E+01 -0.18889359788E+02  0.19633366478E+02  0.51100000000E-03 0.  1.
        -12    1    3    3    0    0 -0.20035932740E+01  0.18229600163E+01 -0.59997802502E+00  0.27744446037E+01  0.00000000000E+00 0.  1.
</event>
<event>
 7    1  0.4356471E-010  0.4778727E+02  0.7816164E-02  0.1312668E+00
        -11   -1    0    0    0    0  0.00000000000E+00  0.00000000000E+00  0.45593999997E+02  0.45594000000E+02  0.51100000000E-03 0. -1.
         11   -1    0    0    0    0 -0.00000000000E+00 -0.00000000000E+00 -0.45593999997E+02  0.45594000000E+02  0.51100000000E-03 0.  1.
    9900012    2    1    2    0    0 -0.37121624824E+02  0.18230284301E+02  0.13163016418E+02  0.47787270784E+02  0.19999998811E+02 0.  0.
        -12    1    1    2    0    0  0.37121624824E+02 -0.18230284301E+02 -0.13163016418E+02  0.43400729216E+02  0.00000000000E+00 0.  1.
         11    1    3    3    0    0 -0.10757776647E+02 -0.68421136904E+00  0.36026172840E+01  0.11365595239E+02  0.51100000000E-03 0. -1.
        -11    1    3    3    0    0 -0.25929904843E+01  0.31914669750E+01 -0.31850118597E+01  0.52012846405E+01  0.51100000000E-03 0.  1.
         12    1    3    3    0    0 -0.23770857693E+02  0.15723028695E+02  0.12745410994E+02  0.31220390904E+02  0.00000000000E+00 0. -1.
</event>
<event>
 7    1  0.4356471E-010  0.4778727E+02  0.7816164E-02  0.1312668E+00
        -11   -1    0    0    0    0  0.00000000000E+00  0.00000000000E+00  0.45593999997E+02  0.45594000000E+02  0.51100000000E-03 0. -1.
         11   -1    0    0    0    0 -0.00000000000E+00 -0.00000000000E+00 -0.45593999997E+02  0.45594000000E+02  0.51100000000E-03 0.  1.
    9900012    2    1    2    0    0 -0.61268109626E+01 -0.36380597248E+02  0.22859083878E+02  0.47787269770E+02  0.19999994190E+02 0.  0.
        -12    1    1    2    0    0  0.61268109626E+01  0.36380597248E+02 -0.22859083878E+02  0.43400730230E+02  0.00000000000E+00 0.  1.
         11    1    3    3    0    0 -0.53659038759E+01 -0.20530054619E+02  0.16033743930E+02  0.26596184158E+02  0.51100000000E-03 0. -1.
        -11    1    3    3    0    0 -0.85117977878E+00 -0.16967558683E+02  0.86389103088E+01  0.19059205814E+02  0.51100000000E-03 0.  1.
        -12    1    3    3    0    0  0.90272692099E-01  0.11170160534E+01 -0.18135703608E+01  0.21318797987E+01  0.00000000000E+00 0.  1.
</event>
<event>
 7    1  0.4356471E-010  0.4778726E+02  0.7816164E-02  0.1312668E+00
        -11   -1    0    0    0    0  0.00000000000E+00  0.00000000000E+00  0.45593999997E+02  0.45594000000E+02  0.51100000000E-03 0.  1.
         11   -1    0    0    0    0 -0.00000000000E+00 -0.00000000000E+00 -0.45593999997E+02  0.45594000000E+02  0.51100000000E-03 0. -1.
    9900012    2    1    2    0    0 -0.21125074924E+02  0.37087750864E+02  0.78647334226E+01  0.47787261683E+02  0.19999957316E+02 0.  0.
        -12    1    1    2    0    0  0.21125074924E+02 -0.37087750864E+02 -0.78647334226E+01  0.43400738317E+02  0.00000000000E+00 0.  1.
         11    1    3    3    0    0 -0.81430225094E+01  0.28175752747E+02  0.32848708018E+01  0.29512238731E+02  0.51100000000E-03 0. -1.
        -11    1    3    3    0    0 -0.41253354606E+01  0.59185848842E+01 -0.11564863507E+01  0.73065382114E+01  0.51100000000E-03 0.  1.
        -12    1    3    3    0    0 -0.88567169538E+01  0.29934132326E+01  0.57363489715E+01  0.10968484741E+02  0.00000000000E+00 0.  1.
</event>
<event>
 7    1  0.4356471E-010  0.4778727E+02  0.7816164E-02  0.1312668E+00
        -11   -1    0    0    0    0  0.00000000000E+00  0.00000000000E+00  0.45593999997E+02  0.45594000000E+02  0.51100000000E-03 0.  1.
         11   -1    0    0    0    0 -0.00000000000E+00 -0.00000000000E+00 -0.45593999997E+02  0.45594000000E+02  0.51100000000E-03 0. -1.
    9900012    2    1    2    0    0 -0.24194901127E+01  0.42578027884E+01 -0.43123553132E+02  0.47787266692E+02  0.19999980154E+02 0.  0.
        -12    1    1    2    0    0  0.24194901127E+01 -0.42578027884E+01  0.43123553132E+02  0.43400733308E+02  0.00000000000E+00 0.  1.
         11    1    3    3    0    0 -0.69163825839E-01 -0.23357664321E+01  0.44819115540E-01  0.23372200312E+01  0.51100000000E-03 0. -1.
        -11    1    3    3    0    0 -0.37111917654E+01  0.67205470796E+01 -0.11961381907E+02  0.14213140214E+02  0.51100000000E-03 0.  1.
         12    1    3    3    0    0  0.13608654785E+01 -0.12697785901E+00 -0.31206990340E+02  0.31236906446E+02  0.00000000000E+00 0. -1.
</event>
<event>
 7    1  0.4356471E-010  0.4778726E+02  0.7816164E-02  0.1312668E+00
        -11   -1    0    0    0    0  0.00000000000E+00  0.00000000000E+00  0.45593999997E+02  0.45594000000E+02  0.51100000000E-03 0.  1.
         11   -1    0    0    0    0 -0.00000000000E+00 -0.00000000000E+00 -0.45593999997E+02  0.45594000000E+02  0.51100000000E-03 0. -1.
    9900012    2    1    2    0    0 -0.56955167338E+01  0.19953674907E+02 -0.38118706826E+02  0.47787264254E+02  0.19999969041E+02 0.  0.
        -12    1    1    2    0    0  0.56955167338E+01 -0.19953674907E+02  0.38118706826E+02  0.43400735746E+02  0.00000000000E+00 0.  1.
         11    1    3    3    0    0 -0.57837658415E+01  0.33641734551E+01 -0.71041832538E+01  0.97590486376E+01  0.51100000000E-03 0.  1.
        -11    1    3    3    0    0 -0.30506982428E+01  0.56308163031E+01 -0.23543028843E+02  0.24398505270E+02  0.51100000000E-03 0. -1.
        -12    1    3    3    0    0  0.31389473505E+01  0.10958685149E+02 -0.74714947289E+01  0.13629710347E+02  0.00000000000E+00 0.  1.
</event>
<event>
 7    1  0.4756230E-010  0.4778727E+02  0.7816164E-02  0.1312668E+00
        -11   -1    0    0    0    0  0.00000000000E+00  0.00000000000E+00  0.45593999997E+02  0.45594000000E+02  0.51100000000E-03 0.  1.
         11   -1    0    0    0    0 -0.00000000000E+00 -0.00000000000E+00 -0.45593999997E+02  0.45594000000E+02  0.51100000000E-03 0. -1.
    9900012    2    1    2    0    0  0.39856103004E+02  0.16158485714E+02 -0.58324669537E+01  0.47787270997E+02  0.19999999782E+02 0.  0.
        -12    1    1    2    0    0 -0.39856103004E+02 -0.16158485714E+02  0.58324669537E+01  0.43400729003E+02  0.00000000000E+00 0.  1.
         11    1    3    3    0    0  0.64367385103E+01 -0.78122969544E+00  0.17959542616E+01  0.67281033329E+01  0.51100000000E-03 0. -1.
        -11    1    3    3    0    0 -0.58345024530E+00  0.11643254342E+01 -0.30250827294E+01  0.32935078088E+01  0.51100000000E-03 0.  1.
         12    1    3    3    0    0  0.34002814739E+02  0.15775389975E+02 -0.46033384859E+01  0.37765659855E+02  0.00000000000E+00 0. -1.
</event>
<event>
 7    1  0.4356471E-010  0.4778727E+02  0.7816164E-02  0.1312668E+00
        -11   -1    0    0    0    0  0.00000000000E+00  0.00000000000E+00  0.45593999997E+02  0.45594000000E+02  0.51100000000E-03 0.  1.
         11   -1    0    0    0    0 -0.00000000000E+00 -0.00000000000E+00 -0.45593999997E+02  0.45594000000E+02  0.51100000000E-03 0. -1.
    9900012    2    1    2    0    0  0.19945022024E+02 -0.41388127096E+01 -0.38323485907E+02  0.47787271363E+02  0.20000001450E+02 0.  0.
        -12    1    1    2    0    0 -0.19945022024E+02  0.41388127096E+01  0.38323485907E+02  0.43400728637E+02  0.00000000000E+00 0.  1.
         11    1    3    3    0    0  0.23951429853E-01 -0.45356872239E+01 -0.14682684256E+02  0.15367311069E+02  0.51100000000E-03 0. -1.
        -11    1    3    3    0    0  0.23775539551E+01 -0.12412631898E+01  0.29498765700E+00  0.26982429643E+01  0.51100000000E-03 0.  1.
         12    1    3    3    0    0  0.17543516639E+02  0.16381377040E+01 -0.23935789308E+02  0.29721717329E+02  0.00000000000E+00 0. -1.
</event>
<event>
 7    1  0.4356471E-010  0.4778728E+02  0.7816164E-02  0.1312668E+00
        -11   -1    0    0    0    0  0.00000000000E+00  0.00000000000E+00  0.45593999997E+02  0.45594000000E+02  0.51100000000E-03 0.  1.
         11   -1    0    0    0    0 -0.00000000000E+00 -0.00000000000E+00 -0.45593999997E+02  0.45594000000E+02  0.51100000000E-03 0. -1.
    9900012    2    1    2    0    0  0.32704762783E+02  0.57466883212E+01 -0.27946321486E+02  0.47787276274E+02  0.20000023844E+02 0.  0.
        -12    1    1    2    0    0 -0.32704762783E+02 -0.57466883212E+01  0.27946321486E+02  0.43400723726E+02  0.00000000000E+00 0.  1.
         11    1    3    3    0    0  0.13014301559E+02  0.76864653082E+01 -0.13827829754E+02  0.20485669869E+02  0.51100000000E-03 0. -1.
        -11    1    3    3    0    0  0.14195002923E+00  0.96713332354E+00  0.17175524301E+01  0.19762295635E+01  0.51100000000E-03 0.  1.
         12    1    3    3    0    0  0.19548511195E+02 -0.29069103105E+01 -0.15836044162E+02  0.25325376842E+02  0.00000000000E+00 0. -1.
</event>
<event>
 7    1  0.4356471E-010  0.4778728E+02  0.7816164E-02  0.1312668E+00
        -11   -1    0    0    0    0  0.00000000000E+00  0.00000000000E+00  0.45593999997E+02  0.45594000000E+02  0.51100000000E-03 0. -1.
         11   -1    0    0    0    0 -0.00000000000E+00 -0.00000000000E+00 -0.45593999997E+02  0.45594000000E+02  0.51100000000E-03 0.  1.
    9900012    2    1    2    0    0 -0.19518562845E+01  0.35763106428E+02  0.24511491319E+02  0.47787277299E+02  0.20000028515E+02 0.  0.
        -12    1    1    2    0    0  0.19518562845E+01 -0.35763106428E+02 -0.24511491319E+02  0.43400722701E+02  0.00000000000E+00 0.  1.
         11    1    3    3    0    0 -0.85750528756E+01  0.30655673563E+02  0.22516673244E+02  0.38991055739E+02  0.51100000000E-03 0. -1.
        -11    1    3    3    0    0  0.82905783197E+00  0.74193966123E-01 -0.10550259654E+00  0.83903080536E+00  0.51100000000E-03 0.  1.
         12    1    3    3    0    0  0.57941387592E+01  0.50332388990E+01  0.21003206717E+01  0.79571907542E+01  0.00000000000E+00 0. -1.
</event>
<event>
 7    1  0.4356471E-010  0.4778728E+02  0.7816164E-02  0.1312668E+00
        -11   -1    0    0    0    0  0.00000000000E+00  0.00000000000E+00  0.45593999997E+02  0.45594000000E+02  0.51100000000E-03 0.  1.
         11   -1    0    0    0    0 -0.00000000000E+00 -0.00000000000E+00 -0.45593999997E+02  0.45594000000E+02  0.51100000000E-03 0. -1.
    9900012    2    1    2    0    0 -0.23712641473E+02 -0.72460575657E-01 -0.36350079273E+02  0.47787275590E+02  0.20000020725E+02 0.  0.
        -12    1    1    2    0    0  0.23712641473E+02  0.72460575657E-01  0.36350079273E+02  0.43400724410E+02  0.00000000000E+00 0.  1.
         11    1    3    3    0    0 -0.21474368288E+02 -0.44672815637E+01 -0.17339502965E+02  0.27960033284E+02  0.51100000000E-03 0. -1.
        -11    1    3    3    0    0  0.53072840069E+00  0.18716902866E+00 -0.26378943911E+01  0.26972563765E+01  0.51100000000E-03 0.  1.
         12    1    3    3    0    0 -0.27690015864E+01  0.42076519594E+01 -0.16372681916E+02  0.17129985929E+02  0.00000000000E+00 0. -1.
</event>
<event>
 7    1  0.5046436E-010  0.4778727E+02  0.7816164E-02  0.1312668E+00
        -11   -1    0    0    0    0  0.00000000000E+00  0.00000000000E+00  0.45593999997E+02  0.45594000000E+02  0.51100000000E-03 0.  1.
         11   -1    0    0    0    0 -0.00000000000E+00 -0.00000000000E+00 -0.45593999997E+02  0.45594000000E+02  0.51100000000E-03 0. -1.
    9900012    2    1    2    0    0  0.28750011653E+02 -0.32114266587E+02 -0.50728749474E+01  0.47787270183E+02  0.19999996071E+02 0.  0.
        -12    1    1    2    0    0 -0.28750011653E+02  0.32114266587E+02  0.50728749474E+01  0.43400729817E+02  0.00000000000E+00 0.  1.
         11    1    3    3    0    0  0.14761168947E+02 -0.88805454685E+01 -0.73286986414E+01  0.18720737713E+02  0.51100000000E-03 0. -1.
        -11    1    3    3    0    0 -0.77815851260E+00  0.83915984794E-01  0.12166778659E+01  0.14466782136E+01  0.51100000000E-03 0.  1.
         12    1    3    3    0    0  0.14767001218E+02 -0.23317637103E+02  0.10391458280E+01  0.27619854256E+02  0.00000000000E+00 0. -1.
</event>
<event>
 7    1  0.4356471E-010  0.4778728E+02  0.7816164E-02  0.1312668E+00
        -11   -1    0    0    0    0  0.00000000000E+00  0.00000000000E+00  0.45593999997E+02  0.45594000000E+02  0.51100000000E-03 0. -1.
         11   -1    0    0    0    0 -0.00000000000E+00 -0.00000000000E+00 -0.45593999997E+02  0.45594000000E+02  0.51100000000E-03 0.  1.
    9900012    2    1    2    0    0 -0.28077970300E+02 -0.28371716748E+02  0.17038058189E+02  0.47787283943E+02  0.20000058810E+02 0.  0.
        -12    1    1    2    0    0  0.28077970300E+02  0.28371716748E+02 -0.17038058189E+02  0.43400716057E+02  0.00000000000E+00 0.  1.
         11    1    3    3    0    0 -0.13890963310E+02 -0.16412743325E+02  0.41274423946E+01  0.21894583488E+02  0.51100000000E-03 0. -1.
        -11    1    3    3    0    0 -0.23052866778E+00  0.23738997758E+01  0.84421063354E+00  0.25300662970E+01  0.51100000000E-03 0.  1.
        -12    1    3    3    0    0 -0.13956478322E+02 -0.14332873199E+02  0.12066405161E+02  0.23362634158E+02  0.00000000000E+00 0.  1.
</event>
<event>
 7    1  0.4356471E-010  0.4778727E+02  0.7816164E-02  0.1312668E+00
        -11   -1    0    0    0    0  0.00000000000E+00  0.00000000000E+00  0.45593999997E+02  0.45594000000E+02  0.51100000000E-03 0. -1.
         11   -1    0    0    0    0 -0.00000000000E+00 -0.00000000000E+00 -0.45593999997E+02  0.45594000000E+02  0.51100000000E-03 0.  1.
    9900012    2    1    2    0    0  0.18883308112E+02 -0.31194281890E+02  0.23536368265E+02  0.47787272138E+02  0.20000004986E+02 0.  0.
        -12    1    1    2    0    0 -0.18883308112E+02  0.31194281890E+02 -0.23536368265E+02  0.43400727862E+02  0.00000000000E+00 0.  1.
         11    1    3    3    0    0  0.47690884390E+01 -0.63005162248E+01  0.42111872068E+01  0.89540385966E+01  0.51100000000E-03 0. -1.
        -11    1    3    3    0    0  0.31838554914E+01 -0.52215723269E+01  0.14611907226E+02  0.15840125833E+02  0.51100000000E-03 0.  1.
         12    1    3    3    0    0  0.10930364182E+02 -0.19672193338E+02  0.47132738314E+01  0.22993107708E+02  0.00000000000E+00 0. -1.
</event>
<event>
 7    1  0.4356471E-010  0.4778727E+02  0.7816164E-02  0.1312668E+00
        -11   -1    0    0    0    0  0.00000000000E+00  0.00000000000E+00  0.45593999997E+02  0.45594000000E+02  0.51100000000E-03 0.  1.
         11   -1    0    0    0    0 -0.00000000000E+00 -0.00000000000E+00 -0.45593999997E+02  0.45594000000E+02  0.51100000000E-03 0. -1.
    9900012    2    1    2    0    0  0.17334120679E+02  0.19293437501E+02 -0.34798198100E+02  0.47787273493E+02  0.20000011164E+02 0.  0.
        -12    1    1    2    0    0 -0.17334120679E+02 -0.19293437501E+02  0.34798198100E+02  0.43400726507E+02  0.00000000000E+00 0.  1.
         11    1    3    3    0    0  0.12945000142E+02  0.13396857375E+02 -0.13940675720E+02  0.23267815884E+02  0.51100000000E-03 0. -1.
        -11    1    3    3    0    0  0.46691775786E+01 -0.90992274041E+00 -0.35988317108E+01  0.59649617432E+01  0.51100000000E-03 0.  1.
        -12    1    3    3    0    0 -0.28005704168E+00  0.68065028664E+01 -0.17258690670E+02  0.18554495866E+02  0.00000000000E+00 0.  1.
</event>
<event>
 7    1  0.4356471E-010  0.4778726E+02  0.7816164E-02  0.1312668E+00
        -11   -1    0    0    0    0  0.00000000000E+00  0.00000000000E+00  0.45593999997E+02  0.45594000000E+02  0.51100000000E-03 0.  1.
         11   -1    0    0    0    0 -0.00000000000E+00 -0.00000000000E+00 -0.45593999997E+02  0.45594000000E+02  0.51100000000E-03 0. -1.
    9900012    2    1    2    0    0 -0.18145133232E+02 -0.14249429573E+02 -0.36760465926E+02  0.47787263160E+02  0.19999964052E+02 0.  0.
        -12    1    1    2    0    0  0.18145133232E+02  0.14249429573E+02  0.36760465926E+02  0.43400736840E+02  0.00000000000E+00 0.  1.
         11    1    3    3    0    0 -0.81268676568E+01 -0.29663912593E+01 -0.10642861774E+02  0.13715537248E+02  0.51100000000E-03 0. -1.
        -11    1    3    3    0    0 -0.99481229281E+01 -0.13010940661E+02 -0.13190542396E+02  0.21029506310E+02  0.51100000000E-03 0.  1.
        -12    1    3    3    0    0 -0.70142647217E-01  0.17279023469E+01 -0.12927061756E+02  0.13042219602E+02  0.00000000000E+00 0.  1.
</event>
<event>
 7    1  0.4356471E-010  0.4778727E+02  0.7816164E-02  0.1312668E+00
        -11   -1    0    0    0    0  0.00000000000E+00  0.00000000000E+00  0.45593999997E+02  0.45594000000E+02  0.51100000000E-03 0.  1.
         11   -1    0    0    0    0 -0.00000000000E+00 -0.00000000000E+00 -0.45593999997E+02  0.45594000000E+02  0.51100000000E-03 0. -1.
    9900012    2    1    2    0    0 -0.37343253612E+02  0.17996957030E+02 -0.12853569031E+02  0.47787270864E+02  0.19999999178E+02 0.  0.
        -12    1    1    2    0    0  0.37343253612E+02 -0.17996957030E+02  0.12853569031E+02  0.43400729136E+02  0.00000000000E+00 0.  1.
         11    1    3    3    0    0 -0.63985849915E+01  0.51623097448E+00 -0.12422656601E+01  0.65384714226E+01  0.51100000000E-03 0. -1.
        -11    1    3    3    0    0 -0.92189869742E+01  0.58536172238E+01 -0.12491283509E+02  0.16591766615E+02  0.51100000000E-03 0.  1.
         12    1    3    3    0    0 -0.21725681646E+02  0.11627108832E+02  0.87998013786E+00  0.24657032827E+02  0.00000000000E+00 0. -1.
</event>
<event>
 7    1  0.4654279E-010  0.4778727E+02  0.7816164E-02  0.1312668E+00
        -11   -1    0    0    0    0  0.00000000000E+00  0.00000000000E+00  0.45593999997E+02  0.45594000000E+02  0.51100000000E-03 0.  1.
         11   -1    0    0    0    0 -0.00000000000E+00 -0.00000000000E+00 -0.45593999997E+02  0.45594000000E+02  0.51100000000E-03 0. -1.
    9900012    2    1    2    0    0  0.31239027502E+02  0.13381233558E+02 -0.26994240417E+02  0.47787271129E+02  0.20000000386E+02 0.  0.
        -12    1    1    2    0    0 -0.31239027502E+02 -0.13381233558E+02  0.26994240417E+02  0.43400728871E+02  0.00000000000E+00 0.  1.
         11    1    3    3    0    0  0.19842061188E+02  0.67664584589E+01 -0.18352883153E+02  0.27862531697E+02  0.51100000000E-03 0. -1.
        -11    1    3    3    0    0  0.48133204329E+01  0.64444484030E+01 -0.10362272383E+02  0.13117761166E+02  0.51100000000E-03 0.  1.
        -12    1    3    3    0    0  0.65836458809E+01  0.17032669624E+00  0.17209151186E+01  0.68069782660E+01  0.00000000000E+00 0.  1.
</event>
<event>
 7    1  0.4356471E-010  0.4778727E+02  0.7816164E-02  0.1312668E+00
        -11   -1    0    0    0    0  0.00000000000E+00  0.00000000000E+00  0.45593999997E+02  0.45594000000E+02  0.51100000000E-03 0.  1.
         11   -1    0    0    0    0 -0.00000000000E+00 -0.00000000000E+00 -0.45593999997E+02  0.45594000000E+02  0.51100000000E-03 0. -1.
    9900012    2    1    2    0    0  0.16971228911E+02 -0.58570303038E+01 -0.39513242120E+02  0.47787265933E+02  0.19999976695E+02 0.  0.
        -12    1    1    2    0    0 -0.16971228911E+02  0.58570303038E+01  0.39513242120E+02  0.43400734067E+02  0.00000000000E+00 0.  1.
         11    1    3    3    0    0  0.13836878475E+02 -0.47438315808E+01 -0.29004778096E+02  0.32484462388E+02  0.51100000000E-03 0. -1.
        -11    1    3    3    0    0  0.27797843879E+01 -0.57924580186E+01 -0.63322469590E+01  0.90209269453E+01  0.51100000000E-03 0.  1.
        -12    1    3    3    0    0  0.35456604777E+00  0.46792592956E+01 -0.41762170649E+01  0.62818765995E+01  0.00000000000E+00 0.  1.
</event>
<event>
 7    1  0.4356471E-010  0.4778727E+02  0.7816164E-02  0.1312668E+00
        -11   -1    0    0    0    0  0.00000000000E+00  0.00000000000E+00  0.45593999997E+02  0.45594000000E+02  0.51100000000E-03 0.  1.
         11   -1    0    0    0    0 -0.00000000000E+00 -0.00000000000E+00 -0.45593999997E+02  0.45594000000E+02  0.51100000000E-03 0. -1.
    9900012    2    1    2    0    0 -0.56936596959E+01 -0.14022728549E+02 -0.40676389473E+02  0.47787270315E+02  0.19999996672E+02 0.  0.
        -12    1    1    2    0    0  0.56936596959E+01  0.14022728549E+02  0.40676389473E+02  0.43400729685E+02  0.00000000000E+00 0.  1.
         11    1    3    3    0    0 -0.50373541239E+01 -0.15835713883E+01 -0.76380483187E+01  0.92856026886E+01  0.51100000000E-03 0. -1.
        -11    1    3    3    0    0 -0.71146289600E+01 -0.31683984422E+01 -0.18624273030E+02  0.20187130556E+02  0.51100000000E-03 0.  1.
        -12    1    3    3    0    0  0.64583233879E+01 -0.92707587190E+01 -0.14414068124E+02  0.18314537070E+02  0.00000000000E+00 0.  1.
</event>
<event>
 7    1  0.4356471E-010  0.4778727E+02  0.7816164E-02  0.1312668E+00
        -11   -1    0    0    0    0  0.00000000000E+00  0.00000000000E+00  0.45593999997E+02  0.45594000000E+02  0.51100000000E-03 0.  1.
         11   -1    0    0    0    0 -0.00000000000E+00 -0.00000000000E+00 -0.45593999997E+02  0.45594000000E+02  0.51100000000E-03 0. -1.
    9900012    2    1    2    0    0  0.26131367776E+02 -0.11046602513E+02 -0.32844291793E+02  0.47787270601E+02  0.19999997980E+02 0.  0.
        -12    1    1    2    0    0 -0.26131367776E+02  0.11046602513E+02  0.32844291793E+02  0.43400729399E+02  0.00000000000E+00 0.  1.
         11    1    3    3    0    0  0.10649635388E+02 -0.57807077293E+01 -0.43146813367E+01  0.12862651012E+02  0.51100000000E-03 0. -1.
        -11    1    3    3    0    0  0.35878317636E+01 -0.49051228465E+01 -0.30419171544E+01  0.67960302485E+01  0.51100000000E-03 0.  1.
         12    1    3    3    0    0  0.11893900624E+02 -0.36077193728E+00 -0.25487693302E+02  0.28128589341E+02  0.00000000000E+00 0. -1.
</event>
<event>
 7    1  0.4356471E-010  0.4778727E+02  0.7816164E-02  0.1312668E+00
        -11   -1    0    0    0    0  0.00000000000E+00  0.00000000000E+00  0.45593999997E+02  0.45594000000E+02  0.51100000000E-03 0. -1.
         11   -1    0    0    0    0 -0.00000000000E+00 -0.00000000000E+00 -0.45593999997E+02  0.45594000000E+02  0.51100000000E-03 0.  1.
    9900012    2    1    2    0    0  0.40121906943E+02 -0.15999019372E+02 -0.42293456643E+01  0.47787269565E+02  0.19999993253E+02 0.  0.
        -12    1    1    2    0    0 -0.40121906943E+02  0.15999019372E+02  0.42293456643E+01  0.43400730435E+02  0.00000000000E+00 0.  1.
         11    1    3    3    0    0  0.18706045713E+02 -0.40043793517E+01 -0.90405277471E+01  0.21158505203E+02  0.51100000000E-03 0. -1.
        -11    1    3    3    0    0 -0.75464376340E+00 -0.14490725463E+01  0.43861827321E+00  0.16916514726E+01  0.51100000000E-03 0.  1.
         12    1    3    3    0    0  0.22170504993E+02 -0.10545567474E+02  0.43725638096E+01  0.24937112889E+02  0.00000000000E+00 0. -1.
</event>
<event>
 7    1  0.4356471E-010  0.4778728E+02  0.7816164E-02  0.1312668E+00
        -11   -1    0    0    0    0  0.00000000000E+00  0.00000000000E+00  0.45593999997E+02  0.45594000000E+02  0.51100000000E-03 0.  1.
         11   -1    0    0    0    0 -0.00000000000E+00 -0.00000000000E+00 -0.45593999997E+02  0.45594000000E+02  0.51100000000E-03 0. -1.
    9900012    2    1    2    0    0  0.39348266470E+02  0.70273495155E+01 -0.16910134929E+02  0.47787281357E+02  0.20000047017E+02 0.  0.
        -12    1    1    2    0    0 -0.39348266470E+02 -0.70273495155E+01  0.16910134929E+02  0.43400718643E+02  0.00000000000E+00 0.  1.
         11    1    3    3    0    0 -0.11512245810E+01  0.11155756452E+01 -0.15474997868E+01  0.22281344006E+01  0.51100000000E-03 0.  1.
        -11    1    3    3    0    0  0.13236393552E+02 -0.40773347840E+01 -0.46295935104E+01  0.14603421159E+02  0.51100000000E-03 0. -1.
         12    1    3    3    0    0  0.27263097499E+02  0.99891086543E+01 -0.10733041632E+02  0.30955725797E+02  0.00000000000E+00 0. -1.
</event>
<event>
 7    1  0.4356471E-010  0.4778726E+02  0.7816164E-02  0.1312668E+00
        -11   -1    0    0    0    0  0.00000000000E+00  0.00000000000E+00  0.45593999997E+02  0.45594000000E+02  0.51100000000E-03 0.  1.
         11   -1    0    0    0    0 -0.00000000000E+00 -0.00000000000E+00 -0.45593999997E+02  0.45594000000E+02  0.51100000000E-03 0. -1.
    9900012    2    1    2    0    0  0.11430573478E+02 -0.78836704772E+01 -0.41119511363E+02  0.47787257092E+02  0.19999936385E+02 0.  0.
        -12    1    1    2    0    0 -0.11430573478E+02  0.78836704772E+01  0.41119511363E+02  0.43400742908E+02  0.00000000000E+00 0.  1.
         11    1    3    3    0    0  0.75206723902E+01 -0.44774508845E+01 -0.78621436486E+01  0.11765261690E+02  0.51100000000E-03 0. -1.
        -11    1    3    3    0    0  0.22635658138E+01 -0.72272385422E+01 -0.29360201393E+02  0.30321248873E+02  0.51100000000E-03 0.  1.
         12    1    3    3    0    0  0.16463352736E+01  0.38210189496E+01 -0.38971663216E+01  0.57007465287E+01  0.00000000000E+00 0. -1.
</event>
<event>
 7    1  0.4356471E-010  0.4778725E+02  0.7816164E-02  0.1312668E+00
        -11   -1    0    0    0    0  0.00000000000E+00  0.00000000000E+00  0.45593999997E+02  0.45594000000E+02  0.51100000000E-03 0.  1.
         11   -1    0    0    0    0 -0.00000000000E+00 -0.00000000000E+00 -0.45593999997E+02  0.45594000000E+02  0.51100000000E-03 0. -1.
    9900012    2    1    2    0    0  0.38224997053E+02  0.19811488504E+02 -0.54753844872E+01  0.47787247567E+02  0.19999892958E+02 0.  0.
        -12    1    1    2    0    0 -0.38224997053E+02 -0.19811488504E+02  0.54753844872E+01  0.43400752433E+02  0.00000000000E+00 0.  1.
         11    1    3    3    0    0  0.10710938522E+02  0.13369007730E+02 -0.68537227224E+01  0.18450693405E+02  0.51100000000E-03 0. -1.
        -11    1    3    3    0    0  0.16735212944E+02  0.58287751155E+01  0.41278620839E+01  0.18195637315E+02  0.51100000000E-03 0.  1.
        -12    1    3    3    0    0  0.10778845587E+02  0.61370565834E+00 -0.27495238487E+01  0.11140916848E+02  0.00000000000E+00 0.  1.
</event>
<event>
 7    1  0.4356471E-010  0.4778726E+02  0.7816164E-02  0.1312668E+00
        -11   -1    0    0    0    0  0.00000000000E+00  0.00000000000E+00  0.45593999997E+02  0.45594000000E+02  0.51100000000E-03 0. -1.
         11   -1    0    0    0    0 -0.00000000000E+00 -0.00000000000E+00 -0.45593999997E+02  0.45594000000E+02  0.51100000000E-03 0.  1.
    9900012    2    1    2    0    0 -0.38267908130E+02 -0.74853680715E+01  0.19056766888E+02  0.47787263922E+02  0.19999967527E+02 0.  0.
        -12    1    1    2    0    0  0.38267908130E+02  0.74853680715E+01 -0.19056766888E+02  0.43400736078E+02  0.00000000000E+00 0.  1.
         11    1    3    3    0    0 -0.12759416873E+02  0.27663127775E+01  0.14901998022E+00  0.13056699910E+02  0.51100000000E-03 0. -1.
        -11    1    3    3    0    0 -0.24506593314E+01 -0.21603463035E+01 -0.76978176445E+00  0.33563956167E+01  0.51100000000E-03 0.  1.
        -12    1    3    3    0    0 -0.23057831926E+02 -0.80913345455E+01  0.19677528673E+02  0.31374168395E+02  0.00000000000E+00 0.  1.
</event>
<event>
 7    1  0.4356471E-010  0.4778727E+02  0.7816164E-02  0.1312668E+00
        -11   -1    0    0    0    0  0.00000000000E+00  0.00000000000E+00  0.45593999997E+02  0.45594000000E+02  0.51100000000E-03 0.  1.
         11   -1    0    0    0    0 -0.00000000000E+00 -0.00000000000E+00 -0.45593999997E+02  0.45594000000E+02  0.51100000000E-03 0. -1.
    9900012    2    1    2    0    0 -0.21955894539E+01 -0.11736167767E+02 -0.41726069530E+02  0.47787272756E+02  0.20000007802E+02 0.  0.
        -12    1    1    2    0    0  0.21955894539E+01  0.11736167767E+02  0.41726069530E+02  0.43400727244E+02  0.00000000000E+00 0.  1.
         11    1    3    3    0    0  0.94950773557E+00 -0.22049731584E+01 -0.13183029986E+01  0.27388673984E+01  0.51100000000E-03 0. -1.
        -11    1    3    3    0    0 -0.74488364807E-01 -0.13001597773E+01 -0.34355788968E+02  0.34380462473E+02  0.51100000000E-03 0.  1.
        -12    1    3    3    0    0 -0.30706088246E+01 -0.82310348314E+01 -0.60519775632E+01  0.10667942884E+02  0.00000000000E+00 0.  1.
</event>
<event>
 7    1  0.4356471E-010  0.4778727E+02  0.7816164E-02  0.1312668E+00
        -11   -1    0    0    0    0  0.00000000000E+00  0.00000000000E+00  0.45593999997E+02  0.45594000000E+02  0.51100000000E-03 0. -1.
         11   -1    0    0    0    0 -0.00000000000E+00 -0.00000000000E+00 -0.45593999997E+02  0.45594000000E+02  0.51100000000E-03 0.  1.
    9900012    2    1    2    0    0  0.22222141835E+02 -0.34770031849E+02  0.13447842709E+02  0.47787272172E+02  0.20000005140E+02 0.  0.
        -12    1    1    2    0    0 -0.22222141835E+02  0.34770031849E+02 -0.13447842709E+02  0.43400727828E+02  0.00000000000E+00 0.  1.
         11    1    3    3    0    0  0.77506345445E+01 -0.10033599950E+02  0.10702629007E+02  0.16591917662E+02  0.51100000000E-03 0. -1.
        -11    1    3    3    0    0 -0.86046026674E+00  0.38110469657E+00 -0.11780414278E+01  0.15077846422E+01  0.51100000000E-03 0.  1.
         12    1    3    3    0    0  0.15331967557E+02 -0.25117536596E+02  0.39232551301E+01  0.29687569867E+02  0.00000000000E+00 0. -1.
</event>
<event>
 7    1  0.4356471E-010  0.4778727E+02  0.7816164E-02  0.1312668E+00
        -11   -1    0    0    0    0  0.00000000000E+00  0.00000000000E+00  0.45593999997E+02  0.45594000000E+02  0.51100000000E-03 0.  1.
         11   -1    0    0    0    0 -0.00000000000E+00 -0.00000000000E+00 -0.45593999997E+02  0.45594000000E+02  0.51100000000E-03 0. -1.
    9900012    2    1    2    0    0  0.38357144717E+02 -0.20259091226E+02  0.13862384876E+01  0.47787274369E+02  0.20000015160E+02 0.  0.
        -12    1    1    2    0    0 -0.38357144717E+02  0.20259091226E+02 -0.13862384876E+01  0.43400725631E+02  0.00000000000E+00 0.  1.
         11    1    3    3    0    0  0.13760983466E+01  0.46978950907E+00  0.37886053440E+00  0.15026258376E+01  0.51100000000E-03 0. -1.
        -11    1    3    3    0    0  0.20287152217E+02 -0.16729624808E+01  0.40928424962E+01  0.20763398289E+02  0.51100000000E-03 0.  1.
         12    1    3    3    0    0  0.16693894153E+02 -0.19055918255E+02 -0.30854645429E+01  0.25521250243E+02  0.00000000000E+00 0. -1.
</event>
<event>
 7    1  0.4356471E-010  0.4778727E+02  0.7816164E-02  0.1312668E+00
        -11   -1    0    0    0    0  0.00000000000E+00  0.00000000000E+00  0.45593999997E+02  0.45594000000E+02  0.51100000000E-03 0.  1.
         11   -1    0    0    0    0 -0.00000000000E+00 -0.00000000000E+00 -0.45593999997E+02  0.45594000000E+02  0.51100000000E-03 0. -1.
    9900012    2    1    2    0    0 -0.23511001693E+02 -0.96353188375E+01 -0.35185462307E+02  0.47787270427E+02  0.19999997186E+02 0.  0.
        -12    1    1    2    0    0  0.23511001693E+02  0.96353188375E+01  0.35185462307E+02  0.43400729573E+02  0.00000000000E+00 0.  1.
         11    1    3    3    0    0 -0.13366572929E+02 -0.74134778974E+01 -0.12200938182E+02  0.19557295804E+02  0.51100000000E-03 0. -1.
        -11    1    3    3    0    0 -0.35670688075E+00 -0.57586800569E+01 -0.61051483958E+01  0.84001472006E+01  0.51100000000E-03 0.  1.
        -12    1    3    3    0    0 -0.97877218837E+01  0.35368391168E+01 -0.16879375729E+02  0.19829827422E+02  0.00000000000E+00 0.  1.
</event>
<event>
 7    1  0.4356471E-010  0.4778727E+02  0.7816164E-02  0.1312668E+00
        -11   -1    0    0    0    0  0.00000000000E+00  0.00000000000E+00  0.45593999997E+02  0.45594000000E+02  0.51100000000E-03 0. -1.
         11   -1    0    0    0    0 -0.00000000000E+00 -0.00000000000E+00 -0.45593999997E+02  0.45594000000E+02  0.51100000000E-03 0.  1.
    9900012    2    1    2    0    0  0.26994556371E+02  0.33142350427E+02  0.75167681594E+01  0.47787271100E+02  0.20000000252E+02 0.  0.
        -12    1    1    2    0    0 -0.26994556371E+02 -0.33142350427E+02 -0.75167681594E+01  0.43400728900E+02  0.00000000000E+00 0.  1.
         11    1    3    3    0    0  0.98350805080E+01  0.45755862573E+01 -0.12067926741E+01  0.10914263467E+02  0.51100000000E-03 0. -1.
        -11    1    3    3    0    0  0.28519851134E+00  0.76259723415E+01  0.62536810850E+01  0.98663731795E+01  0.51100000000E-03 0.  1.
         12    1    3    3    0    0  0.16874277352E+02  0.20940791828E+02  0.24698797484E+01  0.27006634454E+02  0.00000000000E+00 0. -1.
</event>
<event>
 7    1  0.4356471E-010  0.4778727E+02  0.7816164E-02  0.1312668E+00
        -11   -1    0    0    0    0  0.00000000000E+00  0.00000000000E+00  0.45593999997E+02  0.45594000000E+02  0.51100000000E-03 0. -1.
         11   -1    0    0    0    0 -0.00000000000E+00 -0.00000000000E+00 -0.45593999997E+02  0.45594000000E+02  0.51100000000E-03 0.  1.
    9900012    2    1    2    0    0 -0.27900783947E+02  0.12145394309E+02  0.30946063996E+02  0.47787271612E+02  0.20000002587E+02 0.  0.
        -12    1    1    2    0    0  0.27900783947E+02 -0.12145394309E+02 -0.30946063996E+02  0.43400728388E+02  0.00000000000E+00 0.  1.
         11    1    3    3    0    0 -0.82817733018E+01  0.63309956356E+01  0.16494848487E+02  0.19512798406E+02  0.51100000000E-03 0. -1.
        -11    1    3    3    0    0 -0.20617977353E+02  0.41818691608E+01  0.15463296172E+02  0.26109434092E+02  0.51100000000E-03 0.  1.
        -12    1    3    3    0    0  0.99896670841E+00  0.16325295131E+01 -0.10120806632E+01  0.21650391138E+01  0.00000000000E+00 0.  1.
</event>
<event>
 7    1  0.4356471E-010  0.4778727E+02  0.7816164E-02  0.1312668E+00
        -11   -1    0    0    0    0  0.00000000000E+00  0.00000000000E+00  0.45593999997E+02  0.45594000000E+02  0.51100000000E-03 0.  1.
         11   -1    0    0    0    0 -0.00000000000E+00 -0.00000000000E+00 -0.45593999997E+02  0.45594000000E+02  0.51100000000E-03 0. -1.
    9900012    2    1    2    0    0 -0.37799135874E+02 -0.44316329152E+01 -0.20861671047E+02  0.47787270029E+02  0.19999995372E+02 0.  0.
        -12    1    1    2    0    0  0.37799135874E+02  0.44316329152E+01  0.20861671047E+02  0.43400729971E+02  0.00000000000E+00 0.  1.
         11    1    3    3    0    0 -0.48962004684E+00  0.26079091265E+01 -0.39196754912E+01  0.47333681475E+01  0.51100000000E-03 0. -1.
        -11    1    3    3    0    0 -0.34493888629E+01  0.26130765542E+01 -0.25028483012E+01  0.49990701621E+01  0.51100000000E-03 0.  1.
        -12    1    3    3    0    0 -0.33860126964E+02 -0.96526185959E+01 -0.14439147255E+02  0.38054831720E+02  0.00000000000E+00 0.  1.
</event>
<event>
 7    1  0.4356471E-010  0.4778727E+02  0.7816164E-02  0.1312668E+00
        -11   -1    0    0    0    0  0.00000000000E+00  0.00000000000E+00  0.45593999997E+02  0.45594000000E+02  0.51100000000E-03 0.  1.
         11   -1    0    0    0    0 -0.00000000000E+00 -0.00000000000E+00 -0.45593999997E+02  0.45594000000E+02  0.51100000000E-03 0. -1.
    9900012    2    1    2    0    0 -0.42135136952E+02 -0.10362390414E+02  0.93509913122E+00  0.47787270612E+02  0.19999998028E+02 0.  0.
        -12    1    1    2    0    0  0.42135136952E+02  0.10362390414E+02 -0.93509913122E+00  0.43400729388E+02  0.00000000000E+00 0.  1.
         11    1    3    3    0    0 -0.26262884922E+02 -0.22034680656E+01  0.65600146563E+01  0.27159311267E+02  0.51100000000E-03 0. -1.
        -11    1    3    3    0    0 -0.46446645585E+01  0.40094709235E-01  0.16597240812E+01  0.49324639617E+01  0.51100000000E-03 0.  1.
        -12    1    3    3    0    0 -0.11227587471E+02 -0.81990170574E+01 -0.72846396062E+01  0.15695495383E+02  0.00000000000E+00 0.  1.
</event>
<event>
 7    1  0.4356471E-010  0.4778727E+02  0.7816164E-02  0.1312668E+00
        -11   -1    0    0    0    0  0.00000000000E+00  0.00000000000E+00  0.45593999997E+02  0.45594000000E+02  0.51100000000E-03 0. -1.
         11   -1    0    0    0    0 -0.00000000000E+00 -0.00000000000E+00 -0.45593999997E+02  0.45594000000E+02  0.51100000000E-03 0.  1.
    9900012    2    1    2    0    0  0.39183240748E+01  0.20228651797E+01  0.43176126792E+02  0.47787272219E+02  0.20000005357E+02 0.  0.
        -12    1    1    2    0    0 -0.39183240748E+01 -0.20228651797E+01 -0.43176126792E+02  0.43400727781E+02  0.00000000000E+00 0.  1.
         11    1    3    3    0    0  0.26955967788E+01  0.67712451328E+01  0.16262034161E+02  0.17820487029E+02  0.51100000000E-03 0. -1.
        -11    1    3    3    0    0 -0.18972681570E+01 -0.55893734519E+00  0.23806898556E+02  0.23888919116E+02  0.51100000000E-03 0.  1.
        -12    1    3    3    0    0  0.31199954531E+01 -0.41894426080E+01  0.31071940750E+01  0.60778660739E+01  0.00000000000E+00 0.  1.
</event>
<event>
 7    1  0.4356471E-010  0.4778727E+02  0.7816164E-02  0.1312668E+00
        -11   -1    0    0    0    0  0.00000000000E+00  0.00000000000E+00  0.45593999997E+02  0.45594000000E+02  0.51100000000E-03 0. -1.
         11   -1    0    0    0    0 -0.00000000000E+00 -0.00000000000E+00 -0.45593999997E+02  0.45594000000E+02  0.51100000000E-03 0.  1.
    9900012    2    1    2    0    0  0.65311327311E+01 -0.42580053162E+02  0.52826730044E+01  0.47787271249E+02  0.20000000933E+02 0.  0.
        -12    1    1    2    0    0 -0.65311327311E+01  0.42580053162E+02 -0.52826730044E+01  0.43400728751E+02  0.00000000000E+00 0.  1.
         11    1    3    3    0    0  0.60681050415E+01 -0.32535468705E+02  0.34708318009E+01  0.33278000185E+02  0.51100000000E-03 0. -1.
        -11    1    3    3    0    0 -0.64380822377E+00 -0.10358062552E+02  0.47057587709E+01  0.11395091695E+02  0.51100000000E-03 0.  1.
        -12    1    3    3    0    0  0.11068359133E+01  0.31347809541E+00 -0.28939175674E+01  0.31141793690E+01  0.00000000000E+00 0.  1.
</event>
<event>
 7    1  0.4356471E-010  0.4778728E+02  0.7816164E-02  0.1312668E+00
        -11   -1    0    0    0    0  0.00000000000E+00  0.00000000000E+00  0.45593999997E+02  0.45594000000E+02  0.51100000000E-03 0.  1.
         11   -1    0    0    0    0 -0.00000000000E+00 -0.00000000000E+00 -0.45593999997E+02  0.45594000000E+02  0.51100000000E-03 0. -1.
    9900012    2    1    2    0    0 -0.76281389729E+01 -0.34062902835E+02 -0.25790554456E+02  0.47787279350E+02  0.20000037870E+02 0.  0.
        -12    1    1    2    0    0  0.76281389729E+01  0.34062902835E+02  0.25790554456E+02  0.43400720650E+02  0.00000000000E+00 0.  1.
         11    1    3    3    0    0  0.93902369852E+00 -0.43218952316E+01 -0.37081722966E+01  0.57715756897E+01  0.51100000000E-03 0. -1.
        -11    1    3    3    0    0  0.75227900847E+00 -0.25234787516E+02 -0.17353396634E+02  0.30634960416E+02  0.51100000000E-03 0.  1.
         12    1    3    3    0    0 -0.93194416799E+01 -0.45062200876E+01 -0.47289855258E+01  0.11380743245E+02  0.00000000000E+00 0. -1.
</event>
<event>
 7    1  0.4356471E-010  0.4778727E+02  0.7816164E-02  0.1312668E+00
        -11   -1    0    0    0    0  0.00000000000E+00  0.00000000000E+00  0.45593999997E+02  0.45594000000E+02  0.51100000000E-03 0.  1.
         11   -1    0    0    0    0 -0.00000000000E+00 -0.00000000000E+00 -0.45593999997E+02  0.45594000000E+02  0.51100000000E-03 0. -1.
    9900012    2    1    2    0    0  0.21201225644E+02  0.92751356165E+00 -0.37858568891E+02  0.47787268570E+02  0.19999988717E+02 0.  0.
        -12    1    1    2    0    0 -0.21201225644E+02 -0.92751356165E+00  0.37858568891E+02  0.43400731430E+02  0.00000000000E+00 0.  1.
         11    1    3    3    0    0  0.23990101292E+01  0.29232296040E+01 -0.10322851806E+01  0.39199660551E+01  0.51100000000E-03 0. -1.
        -11    1    3    3    0    0 -0.71722224772E+00 -0.26994243238E+01 -0.83095166234E+00  0.29140659496E+01  0.51100000000E-03 0.  1.
         12    1    3    3    0    0  0.19519437762E+02  0.70370828145E+00 -0.35995332048E+02  0.40953236565E+02  0.00000000000E+00 0. -1.
</event>
<event>
 7    1  0.4356471E-010  0.4778727E+02  0.7816164E-02  0.1312668E+00
        -11   -1    0    0    0    0  0.00000000000E+00  0.00000000000E+00  0.45593999997E+02  0.45594000000E+02  0.51100000000E-03 0.  1.
         11   -1    0    0    0    0 -0.00000000000E+00 -0.00000000000E+00 -0.45593999997E+02  0.45594000000E+02  0.51100000000E-03 0. -1.
    9900012    2    1    2    0    0 -0.28257835998E+02 -0.14586338857E+02 -0.29535684430E+02  0.47787271535E+02  0.20000002238E+02 0.  0.
        -12    1    1    2    0    0  0.28257835998E+02  0.14586338857E+02  0.29535684430E+02  0.43400728465E+02  0.00000000000E+00 0.  1.
         11    1    3    3    0    0 -0.58908171279E+01 -0.73779464070E+00 -0.80315484130E+01  0.99875841692E+01  0.51100000000E-03 0. -1.
        -11    1    3    3    0    0  0.14623823920E+01 -0.10384223208E+01  0.14604038351E+01  0.23129338078E+01  0.51100000000E-03 0.  1.
        -12    1    3    3    0    0 -0.23829401262E+02 -0.12810121896E+02 -0.22964539852E+02  0.35486753558E+02  0.00000000000E+00 0.  1.
</event>
<event>
 7    1  0.4356471E-010  0.4778727E+02  0.7816164E-02  0.1312668E+00
        -11   -1    0    0    0    0  0.00000000000E+00  0.00000000000E+00  0.45593999997E+02  0.45594000000E+02  0.51100000000E-03 0.  1.
         11   -1    0    0    0    0 -0.00000000000E+00 -0.00000000000E+00 -0.45593999997E+02  0.45594000000E+02  0.51100000000E-03 0. -1.
    9900012    2    1    2    0    0 -0.19614769327E+02 -0.33180498902E+02  0.19948400196E+02  0.47787270127E+02  0.19999995819E+02 0.  0.
        -12    1    1    2    0    0  0.19614769327E+02  0.33180498902E+02 -0.19948400196E+02  0.43400729873E+02  0.00000000000E+00 0.  1.
         11    1    3    3    0    0 -0.82136938282E+01 -0.15315485042E+02  0.81111929598E+01  0.19178641763E+02  0.51100000000E-03 0. -1.
        -11    1    3    3    0    0 -0.19340336292E+01 -0.11433658883E+02  0.12617851702E+02  0.17137071610E+02  0.51100000000E-03 0.  1.
         12    1    3    3    0    0 -0.94670418692E+01 -0.64313549765E+01 -0.78064446613E+00  0.11471556754E+02  0.00000000000E+00 0. -1.
</event>
<event>
 7    1  0.4356471E-010  0.4778727E+02  0.7816164E-02  0.1312668E+00
        -11   -1    0    0    0    0  0.00000000000E+00  0.00000000000E+00  0.45593999997E+02  0.45594000000E+02  0.51100000000E-03 0.  1.
         11   -1    0    0    0    0 -0.00000000000E+00 -0.00000000000E+00 -0.45593999997E+02  0.45594000000E+02  0.51100000000E-03 0. -1.
    9900012    2    1    2    0    0  0.35903107537E+02 -0.11858944322E+01 -0.24355371188E+02  0.47787267493E+02  0.19999983809E+02 0.  0.
        -12    1    1    2    0    0 -0.35903107537E+02  0.11858944322E+01  0.24355371188E+02  0.43400732507E+02  0.00000000000E+00 0.  1.
         11    1    3    3    0    0  0.71598141803E+01  0.32640503752E+01 -0.11681121233E+02  0.14084230809E+02  0.51100000000E-03 0. -1.
        -11    1    3    3    0    0 -0.92259937485E+00  0.35869140126E+00  0.19762502993E+00  0.10094082630E+01  0.51100000000E-03 0.  1.
        -12    1    3    3    0    0  0.29665892731E+02 -0.48086362087E+01 -0.12871874985E+02  0.32693628422E+02  0.00000000000E+00 0.  1.
</event>
<event>
 7    1  0.4356471E-010  0.4778727E+02  0.7816164E-02  0.1312668E+00
        -11   -1    0    0    0    0  0.00000000000E+00  0.00000000000E+00  0.45593999997E+02  0.45594000000E+02  0.51100000000E-03 0. -1.
         11   -1    0    0    0    0 -0.00000000000E+00 -0.00000000000E+00 -0.45593999997E+02  0.45594000000E+02  0.51100000000E-03 0.  1.
    9900012    2    1    2    0    0 -0.11258054143E+02 -0.84551202119E+01  0.41053507508E+02  0.47787270518E+02  0.19999997600E+02 0.  0.
        -12    1    1    2    0    0  0.11258054143E+02  0.84551202119E+01 -0.41053507508E+02  0.43400729482E+02  0.00000000000E+00 0.  1.
         11    1    3    3    0    0  0.40645815241E+00 -0.84499988115E+01  0.20108573307E+02  0.21815645965E+02  0.51100000000E-03 0. -1.
        -11    1    3    3    0    0 -0.49103559723E+01 -0.40849179314E+01  0.47609005111E+01  0.79664499132E+01  0.51100000000E-03 0.  1.
        -12    1    3    3    0    0 -0.67541563228E+01  0.40797965310E+01  0.16184033689E+02  0.18005174640E+02  0.00000000000E+00 0.  1.
</event>
<event>
 7    1  0.4356471E-010  0.4778729E+02  0.7816164E-02  0.1312668E+00
        -11   -1    0    0    0    0  0.00000000000E+00  0.00000000000E+00  0.45593999997E+02  0.45594000000E+02  0.51100000000E-03 0.  1.
         11   -1    0    0    0    0 -0.00000000000E+00 -0.00000000000E+00 -0.45593999997E+02  0.45594000000E+02  0.51100000000E-03 0. -1.
    9900012    2    1    2    0    0 -0.28890350164E+02  0.19508730410E+02 -0.25853019984E+02  0.47787291053E+02  0.20000091226E+02 0.  0.
        -12    1    1    2    0    0  0.28890350164E+02 -0.19508730410E+02  0.25853019984E+02  0.43400708947E+02  0.00000000000E+00 0.  1.
         11    1    3    3    0    0 -0.10645887537E+02  0.97082199334E+01 -0.99625022424E+01  0.17516732198E+02  0.51100000000E-03 0. -1.
        -11    1    3    3    0    0 -0.24291954586E+01  0.13454952033E+01 -0.11468526792E+02  0.11799934532E+02  0.51100000000E-03 0.  1.
         12    1    3    3    0    0 -0.15815267169E+02  0.84550152736E+01 -0.44219909494E+01  0.18470624322E+02  0.00000000000E+00 0. -1.
</event>
<event>
 7    1  0.4356471E-010  0.4778728E+02  0.7816164E-02  0.1312668E+00
        -11   -1    0    0    0    0  0.00000000000E+00  0.00000000000E+00  0.45593999997E+02  0.45594000000E+02  0.51100000000E-03 0. -1.
         11   -1    0    0    0    0 -0.00000000000E+00 -0.00000000000E+00 -0.45593999997E+02  0.45594000000E+02  0.51100000000E-03 0.  1.
    9900012    2    1    2    0    0 -0.28471736519E+02 -0.32711488717E+02  0.17151020364E+01  0.47787275934E+02  0.20000022293E+02 0.  0.
        -12    1    1    2    0    0  0.28471736519E+02  0.32711488717E+02 -0.17151020364E+01  0.43400724066E+02  0.00000000000E+00 0.  1.
         11    1    3    3    0    0 -0.15731988965E+02 -0.15914011274E+02 -0.20463628574E+01  0.22470844062E+02  0.51100000000E-03 0. -1.
        -11    1    3    3    0    0 -0.23208720421E+01 -0.30159335917E+01  0.67828986517E+01  0.77775328251E+01  0.51100000000E-03 0.  1.
         12    1    3    3    0    0 -0.10418875512E+02 -0.13781543851E+02 -0.30214337579E+01  0.17538899047E+02  0.00000000000E+00 0. -1.
</event>
<event>
 7    1  0.4356471E-010  0.4778727E+02  0.7816164E-02  0.1312668E+00
        -11   -1    0    0    0    0  0.00000000000E+00  0.00000000000E+00  0.45593999997E+02  0.45594000000E+02  0.51100000000E-03 0.  1.
         11   -1    0    0    0    0 -0.00000000000E+00 -0.00000000000E+00 -0.45593999997E+02  0.45594000000E+02  0.51100000000E-03 0. -1.
    9900012    2    1    2    0    0 -0.17741174519E+02 -0.21641026703E+01 -0.39549856723E+02  0.47787265208E+02  0.19999973387E+02 0.  0.
        -12    1    1    2    0    0  0.17741174519E+02  0.21641026703E+01  0.39549856723E+02  0.43400734792E+02  0.00000000000E+00 0.  1.
         11    1    3    3    0    0 -0.50974709127E+01 -0.71834160549E+01 -0.22467612120E+02  0.24132535519E+02  0.51100000000E-03 0. -1.
        -11    1    3    3    0    0  0.83637071751E+00  0.19546021930E+01 -0.44347540430E+01  0.49180310484E+01  0.51100000000E-03 0.  1.
        -12    1    3    3    0    0 -0.13480074324E+02  0.30647111916E+01 -0.12647490560E+02  0.18736698640E+02  0.00000000000E+00 0.  1.
</event>
<event>
 7    1  0.4356471E-010  0.4778727E+02  0.7816164E-02  0.1312668E+00
        -11   -1    0    0    0    0  0.00000000000E+00  0.00000000000E+00  0.45593999997E+02  0.45594000000E+02  0.51100000000E-03 0. -1.
         11   -1    0    0    0    0 -0.00000000000E+00 -0.00000000000E+00 -0.45593999997E+02  0.45594000000E+02  0.51100000000E-03 0.  1.
    9900012    2    1    2    0    0  0.35058439959E+02 -0.23410389467E+02  0.10319041707E+02  0.47787272251E+02  0.20000005500E+02 0.  0.
        -12    1    1    2    0    0 -0.35058439959E+02  0.23410389467E+02 -0.10319041707E+02  0.43400727749E+02  0.00000000000E+00 0.  1.
         11    1    3    3    0    0  0.20471252744E+02 -0.16008164399E+02  0.12374409267E+02  0.28782972767E+02  0.51100000000E-03 0. -1.
        -11    1    3    3    0    0  0.15892149772E+02 -0.61774486281E+01 -0.14378650577E+01  0.17111071039E+02  0.51100000000E-03 0.  1.
        -12    1    3    3    0    0 -0.13049625565E+01 -0.12247764405E+01 -0.61750250214E+00  0.18932284445E+01  0.00000000000E+00 0.  1.
</event>
<event>
 7    1  0.4356471E-010  0.4778727E+02  0.7816164E-02  0.1312668E+00
        -11   -1    0    0    0    0  0.00000000000E+00  0.00000000000E+00  0.45593999997E+02  0.45594000000E+02  0.51100000000E-03 0. -1.
         11   -1    0    0    0    0 -0.00000000000E+00 -0.00000000000E+00 -0.45593999997E+02  0.45594000000E+02  0.51100000000E-03 0.  1.
    9900012    2    1    2    0    0  0.38132339309E+02  0.10704597719E+02 -0.17747101862E+02  0.47787270306E+02  0.19999996632E+02 0.  0.
        -12    1    1    2    0    0 -0.38132339309E+02 -0.10704597719E+02  0.17747101862E+02  0.43400729694E+02  0.00000000000E+00 0.  1.
         11    1    3    3    0    0  0.11155850761E+02 -0.50966452424E+00 -0.96110640459E+01  0.14733815408E+02  0.51100000000E-03 0. -1.
        -11    1    3    3    0    0  0.31603903917E+01  0.25563642441E+01 -0.64915073097E+01  0.76591600707E+01  0.51100000000E-03 0.  1.
         12    1    3    3    0    0  0.23816098157E+02  0.86578979987E+01 -0.16445305063E+01  0.25394294827E+02  0.00000000000E+00 0. -1.
</event>
<event>
 7    1  0.4356471E-010  0.4778725E+02  0.7816164E-02  0.1312668E+00
        -11   -1    0    0    0    0  0.00000000000E+00  0.00000000000E+00  0.45593999997E+02  0.45594000000E+02  0.51100000000E-03 0. -1.
         11   -1    0    0    0    0 -0.00000000000E+00 -0.00000000000E+00 -0.45593999997E+02  0.45594000000E+02  0.51100000000E-03 0.  1.
    9900012    2    1    2    0    0  0.40652124275E+01  0.41668346429E+02  0.11438875209E+02  0.47787252170E+02  0.19999913942E+02 0.  0.
        -12    1    1    2    0    0 -0.40652124275E+01 -0.41668346429E+02 -0.11438875209E+02  0.43400747830E+02  0.00000000000E+00 0.  1.
         11    1    3    3    0    0  0.24546076339E+01  0.20399448025E+02  0.12376450539E+01  0.20583836958E+02  0.51100000000E-03 0. -1.
        -11    1    3    3    0    0 -0.34528354600E+01  0.38889403829E+01 -0.17781004989E+01  0.54961415248E+01  0.51100000000E-03 0.  1.
        -12    1    3    3    0    0  0.50634402536E+01  0.17379958021E+02  0.11979330654E+02  0.21707273687E+02  0.00000000000E+00 0.  1.
</event>
<event>
 7    1  0.4356471E-010  0.4778726E+02  0.7816164E-02  0.1312668E+00
        -11   -1    0    0    0    0  0.00000000000E+00  0.00000000000E+00  0.45593999997E+02  0.45594000000E+02  0.51100000000E-03 0.  1.
         11   -1    0    0    0    0 -0.00000000000E+00 -0.00000000000E+00 -0.45593999997E+02  0.45594000000E+02  0.51100000000E-03 0. -1.
    9900012    2    1    2    0    0  0.30097129772E+02  0.22650835136E+02 -0.21557510303E+02  0.47787264945E+02  0.19999972188E+02 0.  0.
        -12    1    1    2    0    0 -0.30097129772E+02 -0.22650835136E+02  0.21557510303E+02  0.43400735055E+02  0.00000000000E+00 0.  1.
         11    1    3    3    0    0  0.16890565787E+01  0.12788240260E+01 -0.54699941024E+01  0.58659303403E+01  0.51100000000E-03 0. -1.
        -11    1    3    3    0    0  0.28797835907E+01 -0.31636972279E-01 -0.67268270681E+01  0.73174009793E+01  0.51100000000E-03 0.  1.
         12    1    3    3    0    0  0.25528289603E+02  0.21403648083E+02 -0.93606891325E+01  0.34603933625E+02  0.00000000000E+00 0. -1.
</event>
<event>
 7    1  0.4356471E-010  0.4778727E+02  0.7816164E-02  0.1312668E+00
        -11   -1    0    0    0    0  0.00000000000E+00  0.00000000000E+00  0.45593999997E+02  0.45594000000E+02  0.51100000000E-03 0.  1.
         11   -1    0    0    0    0 -0.00000000000E+00 -0.00000000000E+00 -0.45593999997E+02  0.45594000000E+02  0.51100000000E-03 0. -1.
    9900012    2    1    2    0    0  0.31965987620E+02  0.20315281941E+02 -0.21191703675E+02  0.47787270174E+02  0.19999996029E+02 0.  0.
        -12    1    1    2    0    0 -0.31965987620E+02 -0.20315281941E+02  0.21191703675E+02  0.43400729826E+02  0.00000000000E+00 0.  1.
         11    1    3    3    0    0  0.69164565904E+01  0.85295643897E+01 -0.66731404405E+01  0.12849966694E+02  0.51100000000E-03 0. -1.
        -11    1    3    3    0    0  0.18924040977E+01  0.38789224016E+01 -0.88101549513E+01  0.98105077745E+01  0.51100000000E-03 0.  1.
         12    1    3    3    0    0  0.23157126932E+02  0.79067951495E+01 -0.57084082826E+01  0.25126795705E+02  0.00000000000E+00 0. -1.
</event>
<event>
 7    1  0.4356471E-010  0.4778727E+02  0.7816164E-02  0.1312668E+00
        -11   -1    0    0    0    0  0.00000000000E+00  0.00000000000E+00  0.45593999997E+02  0.45594000000E+02  0.51100000000E-03 0. -1.
         11   -1    0    0    0    0 -0.00000000000E+00 -0.00000000000E+00 -0.45593999997E+02  0.45594000000E+02  0.51100000000E-03 0.  1.
    9900012    2    1    2    0    0  0.27027289054E+02  0.11510950841E+02  0.31947567811E+02  0.47787269224E+02  0.19999991698E+02 0.  0.
        -12    1    1    2    0    0 -0.27027289054E+02 -0.11510950841E+02 -0.31947567811E+02  0.43400730776E+02  0.00000000000E+00 0.  1.
         11    1    3    3    0    0 -0.17243890575E+01  0.11136010317E+01  0.10600639648E+01  0.23102728735E+01  0.51100000000E-03 0. -1.
        -11    1    3    3    0    0  0.24508638272E+01 -0.28292836456E+01  0.51940409171E+01  0.64023152653E+01  0.51100000000E-03 0.  1.
         12    1    3    3    0    0  0.26300814284E+02  0.13226633455E+02  0.25693462929E+02  0.39074681085E+02  0.00000000000E+00 0. -1.
</event>
<event>
 7    1  0.4356471E-010  0.4778727E+02  0.7816164E-02  0.1312668E+00
        -11   -1    0    0    0    0  0.00000000000E+00  0.00000000000E+00  0.45593999997E+02  0.45594000000E+02  0.51100000000E-03 0.  1.
         11   -1    0    0    0    0 -0.00000000000E+00 -0.00000000000E+00 -0.45593999997E+02  0.45594000000E+02  0.51100000000E-03 0. -1.
    9900012    2    1    2    0    0 -0.93663713929E+01 -0.37702708886E+02  0.19349421766E+02  0.47787270823E+02  0.19999998992E+02 0.  0.
        -12    1    1    2    0    0  0.93663713929E+01  0.37702708886E+02 -0.19349421766E+02  0.43400729177E+02  0.00000000000E+00 0.  1.
         11    1    3    3    0    0 -0.71872132897E+01 -0.65834228619E+01  0.13557741734E+01  0.98405088954E+01  0.51100000000E-03 0. -1.
        -11    1    3    3    0    0 -0.55495531452E+01 -0.65153753598E+01  0.40848501413E+01  0.94833357596E+01  0.51100000000E-03 0.  1.
         12    1    3    3    0    0  0.33703950420E+01 -0.24603910664E+02  0.13908797451E+02  0.28463426168E+02  0.00000000000E+00 0. -1.
</event>
<event>
 7    1  0.4356471E-010  0.4778726E+02  0.7816164E-02  0.1312668E+00
        -11   -1    0    0    0    0  0.00000000000E+00  0.00000000000E+00  0.45593999997E+02  0.45594000000E+02  0.51100000000E-03 0.  1.
         11   -1    0    0    0    0 -0.00000000000E+00 -0.00000000000E+00 -0.45593999997E+02  0.45594000000E+02  0.51100000000E-03 0. -1.
    9900012    2    1    2    0    0  0.43109722413E+02 -0.49591395367E+01  0.76328311633E+00  0.47787264608E+02  0.19999970654E+02 0.  0.
        -12    1    1    2    0    0 -0.43109722413E+02  0.49591395367E+01 -0.76328311633E+00  0.43400735392E+02  0.00000000000E+00 0.  1.
         11    1    3    3    0    0  0.16437505744E+02 -0.90633137201E+01  0.17594838464E+01  0.18852878675E+02  0.51100000000E-03 0. -1.
        -11    1    3    3    0    0  0.19593398775E+02 -0.17178981447E+01 -0.17001178332E+01  0.19741905949E+02  0.51100000000E-03 0.  1.
        -12    1    3    3    0    0  0.70788178939E+01  0.58220723281E+01  0.70391710313E+00  0.91924799840E+01  0.00000000000E+00 0.  1.
</event>
<event>
 7    1  0.4356471E-010  0.4778727E+02  0.7816164E-02  0.1312668E+00
        -11   -1    0    0    0    0  0.00000000000E+00  0.00000000000E+00  0.45593999997E+02  0.45594000000E+02  0.51100000000E-03 0.  1.
         11   -1    0    0    0    0 -0.00000000000E+00 -0.00000000000E+00 -0.45593999997E+02  0.45594000000E+02  0.51100000000E-03 0. -1.
    9900012    2    1    2    0    0 -0.35888828467E+01  0.17372393121E+02 -0.39609884697E+02  0.47787273180E+02  0.20000009736E+02 0.  0.
        -12    1    1    2    0    0  0.35888828467E+01 -0.17372393121E+02  0.39609884697E+02  0.43400726820E+02  0.00000000000E+00 0.  1.
         11    1    3    3    0    0 -0.56024670558E+01  0.82707905240E+01 -0.10012187758E+02  0.14143461986E+02  0.51100000000E-03 0. -1.
        -11    1    3    3    0    0  0.52024499028E+00 -0.53126295119E+00  0.11602899456E+01  0.13781031138E+01  0.51100000000E-03 0.  1.
         12    1    3    3    0    0  0.14933392188E+01  0.96328655485E+01 -0.30757986884E+02  0.32265708080E+02  0.00000000000E+00 0. -1.
</event>
<event>
 7    1  0.4356471E-010  0.4778728E+02  0.7816164E-02  0.1312668E+00
        -11   -1    0    0    0    0  0.00000000000E+00  0.00000000000E+00  0.45593999997E+02  0.45594000000E+02  0.51100000000E-03 0.  1.
         11   -1    0    0    0    0 -0.00000000000E+00 -0.00000000000E+00 -0.45593999997E+02  0.45594000000E+02  0.51100000000E-03 0. -1.
    9900012    2    1    2    0    0 -0.19018359871E+02  0.83132974228E+01 -0.38115786272E+02  0.47787284690E+02  0.20000062217E+02 0.  0.
        -12    1    1    2    0    0  0.19018359871E+02 -0.83132974228E+01  0.38115786272E+02  0.43400715310E+02  0.00000000000E+00 0.  1.
         11    1    3    3    0    0  0.15011756803E+01  0.11368242139E+01 -0.55612712309E+00  0.19634600466E+01  0.51100000000E-03 0. -1.
        -11    1    3    3    0    0 -0.84052321119E+01 -0.40793069696E+01 -0.10012528808E+02  0.13694502751E+02  0.51100000000E-03 0.  1.
         12    1    3    3    0    0 -0.12114303439E+02  0.11255780179E+02 -0.27547130341E+02  0.32129321893E+02  0.00000000000E+00 0. -1.
</event>
<event>
 7    1  0.4356471E-010  0.4778727E+02  0.7816164E-02  0.1312668E+00
        -11   -1    0    0    0    0  0.00000000000E+00  0.00000000000E+00  0.45593999997E+02  0.45594000000E+02  0.51100000000E-03 0.  1.
         11   -1    0    0    0    0 -0.00000000000E+00 -0.00000000000E+00 -0.45593999997E+02  0.45594000000E+02  0.51100000000E-03 0. -1.
    9900012    2    1    2    0    0 -0.25762451062E+02  0.34021441310E+02 -0.79032347192E+01  0.47787268755E+02  0.19999989562E+02 0.  0.
        -12    1    1    2    0    0  0.25762451062E+02 -0.34021441310E+02  0.79032347192E+01  0.43400731245E+02  0.00000000000E+00 0.  1.
         11    1    3    3    0    0 -0.93450746843E+01  0.49710495891E+01 -0.19379521854E+01  0.10760920677E+02  0.51100000000E-03 0. -1.
        -11    1    3    3    0    0 -0.96363885508E+01  0.27931270740E+02 -0.36364044743E+01  0.29769771703E+02  0.51100000000E-03 0.  1.
        -12    1    3    3    0    0 -0.67809878271E+01  0.11191209806E+01 -0.23288780596E+01  0.72565763758E+01  0.00000000000E+00 0.  1.
</event>
<event>
 7    1  0.4356471E-010  0.4778727E+02  0.7816164E-02  0.1312668E+00
        -11   -1    0    0    0    0  0.00000000000E+00  0.00000000000E+00  0.45593999997E+02  0.45594000000E+02  0.51100000000E-03 0.  1.
         11   -1    0    0    0    0 -0.00000000000E+00 -0.00000000000E+00 -0.45593999997E+02  0.45594000000E+02  0.51100000000E-03 0. -1.
    9900012    2    1    2    0    0  0.22764091183E+02 -0.23291429320E+01 -0.36878103210E+02  0.47787271313E+02  0.20000001224E+02 0.  0.
        -12    1    1    2    0    0 -0.22764091183E+02  0.23291429320E+01  0.36878103210E+02  0.43400728687E+02  0.00000000000E+00 0.  1.
         11    1    3    3    0    0  0.61831533519E+00  0.47726416648E+01 -0.77412302085E+01  0.91152107884E+01  0.51100000000E-03 0. -1.
        -11    1    3    3    0    0  0.97008380129E+01  0.13659577888E+01 -0.76125228423E+01  0.12406554845E+02  0.51100000000E-03 0.  1.
         12    1    3    3    0    0  0.12444937835E+02 -0.84677423856E+01 -0.21524350160E+02  0.26265505680E+02  0.00000000000E+00 0. -1.
</event>
<event>
 7    1  0.4356471E-010  0.4778727E+02  0.7816164E-02  0.1312668E+00
        -11   -1    0    0    0    0  0.00000000000E+00  0.00000000000E+00  0.45593999997E+02  0.45594000000E+02  0.51100000000E-03 0.  1.
         11   -1    0    0    0    0 -0.00000000000E+00 -0.00000000000E+00 -0.45593999997E+02  0.45594000000E+02  0.51100000000E-03 0. -1.
    9900012    2    1    2    0    0  0.23884856275E+02  0.24960547943E+02 -0.26269905130E+02  0.47787271568E+02  0.20000002385E+02 0.  0.
        -12    1    1    2    0    0 -0.23884856275E+02 -0.24960547943E+02  0.26269905130E+02  0.43400728432E+02  0.00000000000E+00 0.  1.
         11    1    3    3    0    0  0.14837800523E+02  0.12508237715E+02 -0.15476304792E+02  0.24822013323E+02  0.51100000000E-03 0. -1.
        -11    1    3    3    0    0  0.98119818167E+01  0.14735276318E+02 -0.10381192643E+02  0.20522488063E+02  0.51100000000E-03 0.  1.
        -12    1    3    3    0    0 -0.76492606502E+00 -0.22829660902E+01 -0.41240769508E+00  0.24427701818E+01  0.00000000000E+00 0.  1.
</event>
<event>
 7    1  0.4356471E-010  0.4778727E+02  0.7816164E-02  0.1312668E+00
        -11   -1    0    0    0    0  0.00000000000E+00  0.00000000000E+00  0.45593999997E+02  0.45594000000E+02  0.51100000000E-03 0. -1.
         11   -1    0    0    0    0 -0.00000000000E+00 -0.00000000000E+00 -0.45593999997E+02  0.45594000000E+02  0.51100000000E-03 0.  1.
    9900012    2    1    2    0    0  0.33965055370E+02 -0.78434721993E+00  0.27007088210E+02  0.47787274195E+02  0.20000014362E+02 0.  0.
        -12    1    1    2    0    0 -0.33965055370E+02  0.78434721993E+00 -0.27007088210E+02  0.43400725805E+02  0.00000000000E+00 0.  1.
         11    1    3    3    0    0  0.10031064902E+02 -0.52268865549E+01  0.14272976524E+02  0.18211547579E+02  0.51100000000E-03 0. -1.
        -11    1    3    3    0    0  0.15399628711E+01 -0.58864807872E+00 -0.17746632362E+01  0.24222762163E+01  0.51100000000E-03 0.  1.
         12    1    3    3    0    0  0.22394027597E+02  0.50311874137E+01  0.14508774923E+02  0.27153450399E+02  0.00000000000E+00 0. -1.
</event>
<event>
 7    1  0.4356471E-010  0.4778727E+02  0.7816164E-02  0.1312668E+00
        -11   -1    0    0    0    0  0.00000000000E+00  0.00000000000E+00  0.45593999997E+02  0.45594000000E+02  0.51100000000E-03 0.  1.
         11   -1    0    0    0    0 -0.00000000000E+00 -0.00000000000E+00 -0.45593999997E+02  0.45594000000E+02  0.51100000000E-03 0. -1.
    9900012    2    1    2    0    0  0.92122455521E+01 -0.87919416787E+01 -0.41490474404E+02  0.47787272208E+02  0.20000005306E+02 0.  0.
        -12    1    1    2    0    0 -0.92122455521E+01  0.87919416787E+01  0.41490474404E+02  0.43400727792E+02  0.00000000000E+00 0.  1.
         11    1    3    3    0    0  0.20160416664E+01  0.25192818699E+01 -0.29540228416E+02  0.29715926710E+02  0.51100000000E-03 0. -1.
        -11    1    3    3    0    0  0.16971089293E+01 -0.32969452439E+01 -0.44625654043E+01  0.58021131416E+01  0.51100000000E-03 0.  1.
         12    1    3    3    0    0  0.54990949565E+01 -0.80142783046E+01 -0.74876805841E+01  0.12269232356E+02  0.00000000000E+00 0. -1.
</event>
<event>
 7    1  0.4356471E-010  0.4778725E+02  0.7816164E-02  0.1312668E+00
        -11   -1    0    0    0    0  0.00000000000E+00  0.00000000000E+00  0.45593999997E+02  0.45594000000E+02  0.51100000000E-03 0. -1.
         11   -1    0    0    0    0 -0.00000000000E+00 -0.00000000000E+00 -0.45593999997E+02  0.45594000000E+02  0.51100000000E-03 0.  1.
    9900012    2    1    2    0    0  0.39546473484E+01  0.42972321706E+02 -0.46222867688E+01  0.47787248815E+02  0.19999898646E+02 0.  0.
        -12    1    1    2    0    0 -0.39546473484E+01 -0.42972321706E+02  0.46222867688E+01  0.43400751185E+02  0.00000000000E+00 0.  1.
         11    1    3    3    0    0 -0.30022019043E+01  0.33687319059E+01  0.41575882565E+01  0.61357241871E+01  0.51100000000E-03 0.  1.
        -11    1    3    3    0    0  0.23507117966E+00  0.95753110243E+01  0.25357972014E+00  0.95815522024E+01  0.51100000000E-03 0. -1.
        -12    1    3    3    0    0  0.67217780731E+01  0.30028278776E+02 -0.90334547455E+01  0.32069972425E+02  0.00000000000E+00 0.  1.
</event>
<event>
 7    1  0.4356471E-010  0.4778727E+02  0.7816164E-02  0.1312668E+00
        -11   -1    0    0    0    0  0.00000000000E+00  0.00000000000E+00  0.45593999997E+02  0.45594000000E+02  0.51100000000E-03 0.  1.
         11   -1    0    0    0    0 -0.00000000000E+00 -0.00000000000E+00 -0.45593999997E+02  0.45594000000E+02  0.51100000000E-03 0. -1.
    9900012    2    1    2    0    0  0.42943280935E+02  0.57854771260E+01 -0.24548406263E+01  0.47787269989E+02  0.19999995186E+02 0.  0.
        -12    1    1    2    0    0 -0.42943280935E+02 -0.57854771260E+01  0.24548406263E+01  0.43400730011E+02  0.00000000000E+00 0.  1.
         11    1    3    3    0    0  0.27814728477E+02 -0.49189984213E+01 -0.52148519949E+01  0.28723689654E+02  0.51100000000E-03 0. -1.
        -11    1    3    3    0    0  0.16656361610E+01  0.18083022591E+01 -0.70805372198E+00  0.25584450776E+01  0.51100000000E-03 0.  1.
         12    1    3    3    0    0  0.13462916297E+02  0.88961732883E+01  0.34680650906E+01  0.16505135257E+02  0.00000000000E+00 0. -1.
</event>
<event>
 7    1  0.4356471E-010  0.4778727E+02  0.7816164E-02  0.1312668E+00
        -11   -1    0    0    0    0  0.00000000000E+00  0.00000000000E+00  0.45593999997E+02  0.45594000000E+02  0.51100000000E-03 0. -1.
         11   -1    0    0    0    0 -0.00000000000E+00 -0.00000000000E+00 -0.45593999997E+02  0.45594000000E+02  0.51100000000E-03 0.  1.
    9900012    2    1    2    0    0  0.28173223973E+02  0.33013311801E+02  0.11947312711E+00  0.47787267530E+02  0.19999983976E+02 0.  0.
        -12    1    1    2    0    0 -0.28173223973E+02 -0.33013311801E+02 -0.11947312711E+00  0.43400732470E+02  0.00000000000E+00 0.  1.
         11    1    3    3    0    0  0.35491365582E+01  0.15484108432E+02  0.16072167997E+01  0.15966750776E+02  0.51100000000E-03 0. -1.
        -11    1    3    3    0    0  0.29457186617E+01  0.64506052392E+00 -0.30621826060E+01  0.42977114942E+01  0.51100000000E-03 0.  1.
         12    1    3    3    0    0  0.21678368753E+02  0.16884142846E+02  0.15744389334E+01  0.27522805260E+02  0.00000000000E+00 0. -1.
</event>
<event>
 7    1  0.4356471E-010  0.4778729E+02  0.7816164E-02  0.1312668E+00
        -11   -1    0    0    0    0  0.00000000000E+00  0.00000000000E+00  0.45593999997E+02  0.45594000000E+02  0.51100000000E-03 0.  1.
         11   -1    0    0    0    0 -0.00000000000E+00 -0.00000000000E+00 -0.45593999997E+02  0.45594000000E+02  0.51100000000E-03 0. -1.
    9900012    2    1    2    0    0 -0.17319573570E+02  0.39689749043E+02 -0.28944210593E+01  0.47787291699E+02  0.20000094173E+02 0.  0.
        -12    1    1    2    0    0  0.17319573570E+02 -0.39689749043E+02  0.28944210593E+01  0.43400708301E+02  0.00000000000E+00 0.  1.
         11    1    3    3    0    0  0.95132804762E+00  0.11238917873E+02  0.26761048696E+01  0.11592231776E+02  0.51100000000E-03 0. -1.
        -11    1    3    3    0    0 -0.21785302901E+01  0.37407217233E+01  0.32531922800E+01  0.54150026323E+01  0.51100000000E-03 0.  1.
        -12    1    3    3    0    0 -0.16092371328E+02  0.24710109446E+02 -0.88237182089E+01  0.30780057291E+02  0.00000000000E+00 0.  1.
</event>
<event>
 7    1  0.4356471E-010  0.4778727E+02  0.7816164E-02  0.1312668E+00
        -11   -1    0    0    0    0  0.00000000000E+00  0.00000000000E+00  0.45593999997E+02  0.45594000000E+02  0.51100000000E-03 0.  1.
         11   -1    0    0    0    0 -0.00000000000E+00 -0.00000000000E+00 -0.45593999997E+02  0.45594000000E+02  0.51100000000E-03 0. -1.
    9900012    2    1    2    0    0  0.45525581254E+01 -0.24838827961E+02 -0.35297730997E+02  0.47787274505E+02  0.20000015780E+02 0.  0.
        -12    1    1    2    0    0 -0.45525581254E+01  0.24838827961E+02  0.35297730997E+02  0.43400725495E+02  0.00000000000E+00 0.  1.
         11    1    3    3    0    0  0.68761432913E+01 -0.15636012997E+02 -0.20977081003E+02  0.27051879356E+02  0.51100000000E-03 0. -1.
        -11    1    3    3    0    0  0.89111184182E+00 -0.10146095845E+02 -0.61336866972E+01  0.11889468195E+02  0.51100000000E-03 0.  1.
         12    1    3    3    0    0 -0.32146970078E+01  0.94328088050E+00 -0.81869632964E+01  0.88459269547E+01  0.00000000000E+00 0. -1.
</event>
<event>
 7    1  0.4356471E-010  0.4778727E+02  0.7816164E-02  0.1312668E+00
        -11   -1    0    0    0    0  0.00000000000E+00  0.00000000000E+00  0.45593999997E+02  0.45594000000E+02  0.51100000000E-03 0.  1.
         11   -1    0    0    0    0 -0.00000000000E+00 -0.00000000000E+00 -0.45593999997E+02  0.45594000000E+02  0.51100000000E-03 0. -1.
    9900012    2    1    2    0    0  0.17132263042E+02  0.18159076357E+02 -0.35501502826E+02  0.47787271965E+02  0.20000004198E+02 0.  0.
        -12    1    1    2    0    0 -0.17132263042E+02 -0.18159076357E+02  0.35501502826E+02  0.43400728035E+02  0.00000000000E+00 0.  1.
         11    1    3    3    0    0  0.17948489470E+02  0.19577163258E+02 -0.31182664455E+02  0.40960617162E+02  0.51100000000E-03 0. -1.
        -11    1    3    3    0    0  0.18167564816E+01  0.31850519937E+00 -0.27307665979E+01  0.32953203409E+01  0.51100000000E-03 0.  1.
        -12    1    3    3    0    0 -0.26329829104E+01 -0.17365921005E+01 -0.15880717729E+01  0.35313344624E+01  0.00000000000E+00 0.  1.
</event>
<event>
 7    1  0.4356471E-010  0.4778727E+02  0.7816164E-02  0.1312668E+00
        -11   -1    0    0    0    0  0.00000000000E+00  0.00000000000E+00  0.45593999997E+02  0.45594000000E+02  0.51100000000E-03 0.  1.
         11   -1    0    0    0    0 -0.00000000000E+00 -0.00000000000E+00 -0.45593999997E+02  0.45594000000E+02  0.51100000000E-03 0. -1.
    9900012    2    1    2    0    0  0.25771978674E+02 -0.18701362755E+02 -0.29490458439E+02  0.47787274285E+02  0.20000014776E+02 0.  0.
        -12    1    1    2    0    0 -0.25771978674E+02  0.18701362755E+02  0.29490458439E+02  0.43400725715E+02  0.00000000000E+00 0.  1.
         11    1    3    3    0    0  0.21419156855E+01 -0.43177733644E+01 -0.79815893508E+01  0.93239872617E+01  0.51100000000E-03 0. -1.
        -11    1    3    3    0    0  0.22397801112E+02 -0.95064684635E+01 -0.22718937537E+02  0.33289406128E+02  0.51100000000E-03 0.  1.
        -12    1    3    3    0    0  0.12322618758E+01 -0.48771209271E+01  0.12100684486E+01  0.51738808953E+01  0.00000000000E+00 0.  1.
</event>
<event>
 7    1  0.4356471E-010  0.4778727E+02  0.7816164E-02  0.1312668E+00
        -11   -1    0    0    0    0  0.00000000000E+00  0.00000000000E+00  0.45593999997E+02  0.45594000000E+02  0.51100000000E-03 0.  1.
         11   -1    0    0    0    0 -0.00000000000E+00 -0.00000000000E+00 -0.45593999997E+02  0.45594000000E+02  0.51100000000E-03 0. -1.
    9900012    2    1    2    0    0 -0.18614997860E+02  0.31459860918E+02 -0.23396204800E+02  0.47787269668E+02  0.19999993725E+02 0.  0.
        -12    1    1    2    0    0  0.18614997860E+02 -0.31459860918E+02  0.23396204800E+02  0.43400730332E+02  0.00000000000E+00 0.  1.
         11    1    3    3    0    0 -0.67478325905E+01  0.91270977498E+01 -0.63381177430E+01  0.13000342103E+02  0.51100000000E-03 0. -1.
        -11    1    3    3    0    0 -0.84769193683E+01  0.22742246010E+02 -0.87421695185E+01  0.25797159605E+02  0.51100000000E-03 0.  1.
         12    1    3    3    0    0 -0.33902459018E+01 -0.40948284190E+00 -0.83159175380E+01  0.89897679598E+01  0.00000000000E+00 0. -1.
</event>
<event>
 7    1  0.4356471E-010  0.4778727E+02  0.7816164E-02  0.1312668E+00
        -11   -1    0    0    0    0  0.00000000000E+00  0.00000000000E+00  0.45593999997E+02  0.45594000000E+02  0.51100000000E-03 0.  1.
         11   -1    0    0    0    0 -0.00000000000E+00 -0.00000000000E+00 -0.45593999997E+02  0.45594000000E+02  0.51100000000E-03 0. -1.
    9900012    2    1    2    0    0 -0.19985103983E+02  0.12524047415E+02 -0.36433052275E+02  0.47787269097E+02  0.19999991119E+02 0.  0.
        -12    1    1    2    0    0  0.19985103983E+02 -0.12524047415E+02  0.36433052275E+02  0.43400730903E+02  0.00000000000E+00 0.  1.
         11    1    3    3    0    0  0.41151584566E+00 -0.88239572269E+00  0.44834087335E+00  0.10719035882E+01  0.51100000000E-03 0. -1.
        -11    1    3    3    0    0 -0.11357373430E+02  0.10450800250E+01 -0.77042628943E+01  0.13763640162E+02  0.51100000000E-03 0.  1.
         12    1    3    3    0    0 -0.90392463984E+01  0.12361363112E+02 -0.29177130254E+02  0.32951725347E+02  0.00000000000E+00 0. -1.
</event>
<event>
 7    1  0.4356471E-010  0.4778727E+02  0.7816164E-02  0.1312668E+00
        -11   -1    0    0    0    0  0.00000000000E+00  0.00000000000E+00  0.45593999997E+02  0.45594000000E+02  0.51100000000E-03 0.  1.
         11   -1    0    0    0    0 -0.00000000000E+00 -0.00000000000E+00 -0.45593999997E+02  0.45594000000E+02  0.51100000000E-03 0. -1.
    9900012    2    1    2    0    0 -0.22303481677E+02 -0.35745371228E+02 -0.10413764431E+02  0.47787270182E+02  0.19999996067E+02 0.  0.
        -12    1    1    2    0    0  0.22303481677E+02  0.35745371228E+02  0.10413764431E+02  0.43400729818E+02  0.00000000000E+00 0.  1.
         11    1    3    3    0    0  0.12938695527E+01 -0.17164865603E+01  0.22204605569E+01  0.30904481677E+01  0.51100000000E-03 0. -1.
        -11    1    3    3    0    0 -0.33116021099E+01 -0.13348603289E+02 -0.23249629157E+01  0.13948382384E+02  0.51100000000E-03 0.  1.
         12    1    3    3    0    0 -0.20285749119E+02 -0.20680281379E+02 -0.10309262072E+02  0.30748439631E+02  0.00000000000E+00 0. -1.
</event>
<event>
 7    1  0.4356471E-010  0.4778727E+02  0.7816164E-02  0.1312668E+00
        -11   -1    0    0    0    0  0.00000000000E+00  0.00000000000E+00  0.45593999997E+02  0.45594000000E+02  0.51100000000E-03 0.  1.
         11   -1    0    0    0    0 -0.00000000000E+00 -0.00000000000E+00 -0.45593999997E+02  0.45594000000E+02  0.51100000000E-03 0. -1.
    9900012    2    1    2    0    0  0.11296787623E+01  0.42590598847E+02 -0.82696989862E+01  0.47787271831E+02  0.20000003586E+02 0.  0.
        -12    1    1    2    0    0 -0.11296787623E+01 -0.42590598847E+02  0.82696989862E+01  0.43400728169E+02  0.00000000000E+00 0.  1.
         11    1    3    3    0    0  0.43138389104E+01  0.24005902712E+02 -0.61722516680E+00  0.24398228181E+02  0.51100000000E-03 0. -1.
        -11    1    3    3    0    0 -0.51442385895E+01  0.18273534031E+02 -0.42556880499E+01  0.19454976682E+02  0.51100000000E-03 0.  1.
         12    1    3    3    0    0  0.19600784415E+01  0.31116210403E+00 -0.33967857695E+01  0.39340669689E+01  0.00000000000E+00 0. -1.
</event>
<event>
 7    1  0.4356471E-010  0.4778727E+02  0.7816164E-02  0.1312668E+00
        -11   -1    0    0    0    0  0.00000000000E+00  0.00000000000E+00  0.45593999997E+02  0.45594000000E+02  0.51100000000E-03 0.  1.
         11   -1    0    0    0    0 -0.00000000000E+00 -0.00000000000E+00 -0.45593999997E+02  0.45594000000E+02  0.51100000000E-03 0. -1.
    9900012    2    1    2    0    0 -0.25982756522E+02  0.43817928398E+01 -0.34486512261E+02  0.47787271056E+02  0.20000000053E+02 0.  0.
        -12    1    1    2    0    0  0.25982756522E+02 -0.43817928398E+01  0.34486512261E+02  0.43400728944E+02  0.00000000000E+00 0.  1.
         11    1    3    3    0    0 -0.15259820030E+02 -0.29008669132E+01 -0.23301642875E+02  0.28004351397E+02  0.51100000000E-03 0.  1.
        -11    1    3    3    0    0 -0.13970630550E+00 -0.21325737998E+01 -0.11849494574E+01  0.24436641220E+01  0.51100000000E-03 0. -1.
         12    1    3    3    0    0 -0.10583230186E+02  0.94152335528E+01 -0.99999199280E+01  0.17339255537E+02  0.00000000000E+00 0. -1.
</event>
<event>
 7    1  0.4356471E-010  0.4778727E+02  0.7816164E-02  0.1312668E+00
        -11   -1    0    0    0    0  0.00000000000E+00  0.00000000000E+00  0.45593999997E+02  0.45594000000E+02  0.51100000000E-03 0. -1.
         11   -1    0    0    0    0 -0.00000000000E+00 -0.00000000000E+00 -0.45593999997E+02  0.45594000000E+02  0.51100000000E-03 0.  1.
    9900012    2    1    2    0    0  0.11379919140E+02  0.13509900593E+02  0.39643452177E+02  0.47787271041E+02  0.19999999982E+02 0.  0.
        -12    1    1    2    0    0 -0.11379919140E+02 -0.13509900593E+02 -0.39643452177E+02  0.43400728959E+02  0.00000000000E+00 0.  1.
         11    1    3    3    0    0  0.64025218268E+00 -0.84060717461E-01  0.30065789803E+01  0.30751433280E+01  0.51100000000E-03 0. -1.
        -11    1    3    3    0    0  0.11886000651E+01 -0.26790740094E+01  0.17837213385E+02  0.18076404213E+02  0.51100000000E-03 0.  1.
        -12    1    3    3    0    0  0.95510668921E+01  0.16273035320E+02  0.18799659812E+02  0.26635723500E+02  0.00000000000E+00 0.  1.
</event>
<event>
 7    1  0.4356471E-010  0.4778729E+02  0.7816164E-02  0.1312668E+00
        -11   -1    0    0    0    0  0.00000000000E+00  0.00000000000E+00  0.45593999997E+02  0.45594000000E+02  0.51100000000E-03 0.  1.
         11   -1    0    0    0    0 -0.00000000000E+00 -0.00000000000E+00 -0.45593999997E+02  0.45594000000E+02  0.51100000000E-03 0. -1.
    9900012    2    1    2    0    0 -0.70174275705E+01  0.25742342658E+02 -0.34230232084E+02  0.47787293972E+02  0.20000104534E+02 0.  0.
        -12    1    1    2    0    0  0.70174275705E+01 -0.25742342658E+02  0.34230232084E+02  0.43400706028E+02  0.00000000000E+00 0.  1.
         11    1    3    3    0    0 -0.50035143774E+00  0.32224987434E+01 -0.63116962974E+01  0.71043902007E+01  0.51100000000E-03 0. -1.
        -11    1    3    3    0    0  0.40421819298E+01  0.17386521564E+02 -0.16748199004E+02  0.24477184008E+02  0.51100000000E-03 0.  1.
         12    1    3    3    0    0 -0.10559258063E+02  0.51333223512E+01 -0.11170336783E+02  0.16205719763E+02  0.00000000000E+00 0. -1.
</event>
<event>
 7    1  0.4356471E-010  0.4778727E+02  0.7816164E-02  0.1312668E+00
        -11   -1    0    0    0    0  0.00000000000E+00  0.00000000000E+00  0.45593999997E+02  0.45594000000E+02  0.51100000000E-03 0.  1.
         11   -1    0    0    0    0 -0.00000000000E+00 -0.00000000000E+00 -0.45593999997E+02  0.45594000000E+02  0.51100000000E-03 0. -1.
    9900012    2    1    2    0    0 -0.66099053284E+01  0.16182362716E+02 -0.39724844873E+02  0.47787274065E+02  0.20000013773E+02 0.  0.
        -12    1    1    2    0    0  0.66099053284E+01 -0.16182362716E+02  0.39724844873E+02  0.43400725935E+02  0.00000000000E+00 0.  1.
         11    1    3    3    0    0 -0.83620723262E+01  0.23466637650E+01 -0.11997436492E+02  0.14811129837E+02  0.51100000000E-03 0. -1.
        -11    1    3    3    0    0  0.18066135808E+01  0.14070127781E+01  0.30679370253E+00  0.23103376864E+01  0.51100000000E-03 0.  1.
        -12    1    3    3    0    0 -0.54446583023E-01  0.12428686173E+02 -0.28034202083E+02  0.30665806542E+02  0.00000000000E+00 0.  1.
</event>
<event>
 7    1  0.4356471E-010  0.4778727E+02  0.7816164E-02  0.1312668E+00
        -11   -1    0    0    0    0  0.00000000000E+00  0.00000000000E+00  0.45593999997E+02  0.45594000000E+02  0.51100000000E-03 0. -1.
         11   -1    0    0    0    0 -0.00000000000E+00 -0.00000000000E+00 -0.45593999997E+02  0.45594000000E+02  0.51100000000E-03 0.  1.
    9900012    2    1    2    0    0  0.10767582755E+02  0.41941848984E+02  0.29263436005E+01  0.47787273952E+02  0.20000013259E+02 0.  0.
        -12    1    1    2    0    0 -0.10767582755E+02 -0.41941848984E+02 -0.29263436005E+01  0.43400726048E+02  0.00000000000E+00 0.  1.
         11    1    3    3    0    0  0.49201487263E+01  0.33159127968E+02  0.41009215826E-01  0.33522191353E+02  0.51100000000E-03 0. -1.
        -11    1    3    3    0    0  0.23195412120E+01  0.92610188183E+01  0.42526195691E+01  0.10451388159E+02  0.51100000000E-03 0.  1.
        -12    1    3    3    0    0  0.35278928164E+01 -0.47829780200E+00 -0.13672851845E+01  0.38136944407E+01  0.00000000000E+00 0.  1.
</event>
<event>
 7    1  0.4356471E-010  0.4778727E+02  0.7816164E-02  0.1312668E+00
        -11   -1    0    0    0    0  0.00000000000E+00  0.00000000000E+00  0.45593999997E+02  0.45594000000E+02  0.51100000000E-03 0. -1.
         11   -1    0    0    0    0 -0.00000000000E+00 -0.00000000000E+00 -0.45593999997E+02  0.45594000000E+02  0.51100000000E-03 0.  1.
    9900012    2    1    2    0    0  0.24390408026E+02  0.85961516015E+01 -0.34854519915E+02  0.47787269770E+02  0.19999994187E+02 0.  0.
        -12    1    1    2    0    0 -0.24390408026E+02 -0.85961516015E+01  0.34854519915E+02  0.43400730230E+02  0.00000000000E+00 0.  1.
         11    1    3    3    0    0  0.77100234316E+01  0.50159292256E+01 -0.13424506224E+02  0.16273333246E+02  0.51100000000E-03 0. -1.
        -11    1    3    3    0    0  0.24542119448E+01 -0.20123086168E+01 -0.14298066254E+02  0.14646065721E+02  0.51100000000E-03 0.  1.
         12    1    3    3    0    0  0.14226172650E+02  0.55925309927E+01 -0.71319474366E+01  0.16867870802E+02  0.00000000000E+00 0. -1.
</event>
<event>
 7    1  0.4356471E-010  0.4778727E+02  0.7816164E-02  0.1312668E+00
        -11   -1    0    0    0    0  0.00000000000E+00  0.00000000000E+00  0.45593999997E+02  0.45594000000E+02  0.51100000000E-03 0.  1.
         11   -1    0    0    0    0 -0.00000000000E+00 -0.00000000000E+00 -0.45593999997E+02  0.45594000000E+02  0.51100000000E-03 0. -1.
    9900012    2    1    2    0    0 -0.11769635303E+02  0.37094294324E+01 -0.41609361608E+02  0.47787272411E+02  0.20000006229E+02 0.  0.
        -12    1    1    2    0    0  0.11769635303E+02 -0.37094294324E+01  0.41609361608E+02  0.43400727589E+02  0.00000000000E+00 0.  1.
         11    1    3    3    0    0  0.32918655921E+00  0.88176802932E+00 -0.12031008337E+02  0.12067768664E+02  0.51100000000E-03 0. -1.
        -11    1    3    3    0    0  0.21363710132E+01  0.24863589257E+01 -0.46559408366E+00  0.33110179591E+01  0.51100000000E-03 0.  1.
         12    1    3    3    0    0 -0.14235192875E+02  0.34130247735E+00 -0.29112759187E+02  0.32408485788E+02  0.00000000000E+00 0. -1.
</event>
<event>
 7    1  0.4356471E-010  0.4778727E+02  0.7816164E-02  0.1312668E+00
        -11   -1    0    0    0    0  0.00000000000E+00  0.00000000000E+00  0.45593999997E+02  0.45594000000E+02  0.51100000000E-03 0. -1.
         11   -1    0    0    0    0 -0.00000000000E+00 -0.00000000000E+00 -0.45593999997E+02  0.45594000000E+02  0.51100000000E-03 0.  1.
    9900012    2    1    2    0    0  0.37324519070E+02  0.20772031150E+02  0.76828432441E+01  0.47787273252E+02  0.20000010066E+02 0.  0.
        -12    1    1    2    0    0 -0.37324519070E+02 -0.20772031150E+02 -0.76828432441E+01  0.43400726748E+02  0.00000000000E+00 0.  1.
         11    1    3    3    0    0  0.11330389813E+02  0.95044466967E+01  0.11948593630E+02  0.19012657108E+02  0.51100000000E-03 0.  1.
        -11    1    3    3    0    0  0.74598391237E+01  0.36127681671E+01 -0.77068436699E-01  0.82889826509E+01  0.51100000000E-03 0. -1.
        -12    1    3    3    0    0  0.18534290134E+02  0.76548162861E+01 -0.41886819495E+01  0.20485633493E+02  0.00000000000E+00 0.  1.
</event>
<event>
 7    1  0.4356471E-010  0.4778724E+02  0.7816164E-02  0.1312668E+00
        -11   -1    0    0    0    0  0.00000000000E+00  0.00000000000E+00  0.45593999997E+02  0.45594000000E+02  0.51100000000E-03 0.  1.
         11   -1    0    0    0    0 -0.00000000000E+00 -0.00000000000E+00 -0.45593999997E+02  0.45594000000E+02  0.51100000000E-03 0. -1.
    9900012    2    1    2    0    0 -0.32419169457E+02 -0.14131648024E+02 -0.25157896246E+02  0.47787242315E+02  0.19999869009E+02 0.  0.
        -12    1    1    2    0    0  0.32419169457E+02  0.14131648024E+02  0.25157896246E+02  0.43400757685E+02  0.00000000000E+00 0.  1.
         11    1    3    3    0    0 -0.21035632168E+02 -0.54949422863E+01 -0.46227619833E+01  0.22227508633E+02  0.51100000000E-03 0. -1.
        -11    1    3    3    0    0 -0.17190131671E+00 -0.22254493749E+01 -0.22136807777E+01  0.31436535797E+01  0.51100000000E-03 0.  1.
        -12    1    3    3    0    0 -0.11211635972E+02 -0.64112563624E+01 -0.18321453485E+02  0.22416080102E+02  0.00000000000E+00 0.  1.
</event>
<event>
 7    1  0.4356471E-010  0.4778727E+02  0.7816164E-02  0.1312668E+00
        -11   -1    0    0    0    0  0.00000000000E+00  0.00000000000E+00  0.45593999997E+02  0.45594000000E+02  0.51100000000E-03 0.  1.
         11   -1    0    0    0    0 -0.00000000000E+00 -0.00000000000E+00 -0.45593999997E+02  0.45594000000E+02  0.51100000000E-03 0. -1.
    9900012    2    1    2    0    0  0.56026600220E+01 -0.18791977919E+02 -0.38718152897E+02  0.47787267320E+02  0.19999983019E+02 0.  0.
        -12    1    1    2    0    0 -0.56026600220E+01  0.18791977919E+02  0.38718152897E+02  0.43400732680E+02  0.00000000000E+00 0.  1.
         11    1    3    3    0    0  0.44268155495E+01 -0.44763037267E+01 -0.96972808886E+01  0.11561628253E+02  0.51100000000E-03 0. -1.
        -11    1    3    3    0    0 -0.18485419856E+01 -0.59299501975E+00 -0.18675486721E+02  0.18776116614E+02  0.51100000000E-03 0.  1.
        -12    1    3    3    0    0  0.30243864580E+01 -0.13722679172E+02 -0.10345385287E+02  0.17449522453E+02  0.00000000000E+00 0.  1.
</event>
<event>
 7    1  0.4356471E-010  0.4778727E+02  0.7816164E-02  0.1312668E+00
        -11   -1    0    0    0    0  0.00000000000E+00  0.00000000000E+00  0.45593999997E+02  0.45594000000E+02  0.51100000000E-03 0.  1.
         11   -1    0    0    0    0 -0.00000000000E+00 -0.00000000000E+00 -0.45593999997E+02  0.45594000000E+02  0.51100000000E-03 0. -1.
    9900012    2    1    2    0    0  0.23193889318E+01  0.18546239889E+02 -0.39169893696E+02  0.47787272458E+02  0.20000006443E+02 0.  0.
        -12    1    1    2    0    0 -0.23193889318E+01 -0.18546239889E+02  0.39169893696E+02  0.43400727542E+02  0.00000000000E+00 0.  1.
         11    1    3    3    0    0  0.18077644458E+01  0.52691387079E+01 -0.66266000874E+01  0.86570008660E+01  0.51100000000E-03 0. -1.
        -11    1    3    3    0    0 -0.74356769263E+01  0.86923643838E+01 -0.11728365430E+02  0.16382949852E+02  0.51100000000E-03 0.  1.
        -12    1    3    3    0    0  0.79473014123E+01  0.45847367974E+01 -0.20814928178E+02  0.22747321739E+02  0.00000000000E+00 0.  1.
</event>
<event>
 7    1  0.4356471E-010  0.4778727E+02  0.7816164E-02  0.1312668E+00
        -11   -1    0    0    0    0  0.00000000000E+00  0.00000000000E+00  0.45593999997E+02  0.45594000000E+02  0.51100000000E-03 0.  1.
         11   -1    0    0    0    0 -0.00000000000E+00 -0.00000000000E+00 -0.45593999997E+02  0.45594000000E+02  0.51100000000E-03 0. -1.
    9900012    2    1    2    0    0 -0.29180933194E+02 -0.15142058026E+02 -0.28333982646E+02  0.47787270099E+02  0.19999995691E+02 0.  0.
        -12    1    1    2    0    0  0.29180933194E+02  0.15142058026E+02  0.28333982646E+02  0.43400729901E+02  0.00000000000E+00 0.  1.
         11    1    3    3    0    0 -0.15088117688E+02 -0.15870277984E+02 -0.99015789243E+01  0.24032442325E+02  0.51100000000E-03 0. -1.
        -11    1    3    3    0    0 -0.13332705448E+00 -0.20509094928E+00  0.29196891976E+00  0.38089960903E+00  0.51100000000E-03 0.  1.
        -12    1    3    3    0    0 -0.13959488451E+02  0.93331090690E+00 -0.18724372641E+02  0.23373928165E+02  0.00000000000E+00 0.  1.
</event>
<event>
 7    1  0.4356471E-010  0.4778727E+02  0.7816164E-02  0.1312668E+00
        -11   -1    0    0    0    0  0.00000000000E+00  0.00000000000E+00  0.45593999997E+02  0.45594000000E+02  0.51100000000E-03 0. -1.
         11   -1    0    0    0    0 -0.00000000000E+00 -0.00000000000E+00 -0.45593999997E+02  0.45594000000E+02  0.51100000000E-03 0.  1.
    9900012    2    1    2    0    0  0.16551755970E+01  0.13482770979E+02  0.41220121473E+02  0.47787272658E+02  0.20000007358E+02 0.  0.
        -12    1    1    2    0    0 -0.16551755970E+01 -0.13482770979E+02 -0.41220121473E+02  0.43400727342E+02  0.00000000000E+00 0.  1.
         11    1    3    3    0    0 -0.17432631633E+01  0.11046839827E+01  0.11179517142E+01  0.23471492186E+01  0.51100000000E-03 0. -1.
        -11    1    3    3    0    0  0.81027831090E+01  0.47317606165E-01  0.13525701712E+02  0.15767115784E+02  0.51100000000E-03 0.  1.
        -12    1    3    3    0    0 -0.47043443487E+01  0.12330769390E+02  0.26576468047E+02  0.29673007656E+02  0.00000000000E+00 0.  1.
</event>
<event>
 7    1  0.4356471E-010  0.4778728E+02  0.7816164E-02  0.1312668E+00
        -11   -1    0    0    0    0  0.00000000000E+00  0.00000000000E+00  0.45593999997E+02  0.45594000000E+02  0.51100000000E-03 0.  1.
         11   -1    0    0    0    0 -0.00000000000E+00 -0.00000000000E+00 -0.45593999997E+02  0.45594000000E+02  0.51100000000E-03 0. -1.
    9900012    2    1    2    0    0  0.28511422613E+02  0.29170081786E+02  0.14826593804E+02  0.47787276796E+02  0.20000026224E+02 0.  0.
        -12    1    1    2    0    0 -0.28511422613E+02 -0.29170081786E+02 -0.14826593804E+02  0.43400723204E+02  0.00000000000E+00 0.  1.
         11    1    3    3    0    0  0.14341614712E+02  0.20274284893E+02  0.35428034367E+01  0.25085453891E+02  0.51100000000E-03 0. -1.
        -11    1    3    3    0    0  0.67496660127E+01  0.71899175249E+01  0.10084575720E+01  0.99131171804E+01  0.51100000000E-03 0.  1.
        -12    1    3    3    0    0  0.74201418877E+01  0.17058793684E+01  0.10275332796E+02  0.12788705725E+02  0.00000000000E+00 0.  1.
</event>
<event>
 7    1  0.4356471E-010  0.4778727E+02  0.7816164E-02  0.1312668E+00
        -11   -1    0    0    0    0  0.00000000000E+00  0.00000000000E+00  0.45593999997E+02  0.45594000000E+02  0.51100000000E-03 0.  1.
         11   -1    0    0    0    0 -0.00000000000E+00 -0.00000000000E+00 -0.45593999997E+02  0.45594000000E+02  0.51100000000E-03 0. -1.
    9900012    2    1    2    0    0 -0.38769091164E+02 -0.19121246990E+02 -0.38676392644E+01  0.47787272476E+02  0.20000006525E+02 0.  0.
        -12    1    1    2    0    0  0.38769091164E+02  0.19121246990E+02  0.38676392644E+01  0.43400727524E+02  0.00000000000E+00 0.  1.
         11    1    3    3    0    0 -0.50657283480E+01 -0.46787128235E+01 -0.81339593849E+01  0.10663641635E+02  0.51100000000E-03 0. -1.
        -11    1    3    3    0    0 -0.71485082148E+01 -0.16621492615E+01  0.17577259581E+01  0.75467549761E+01  0.51100000000E-03 0.  1.
         12    1    3    3    0    0 -0.26554854602E+02 -0.12780384905E+02  0.25085941624E+01  0.29576875865E+02  0.00000000000E+00 0. -1.
</event>
<event>
 7    1  0.4356471E-010  0.4778728E+02  0.7816164E-02  0.1312668E+00
        -11   -1    0    0    0    0  0.00000000000E+00  0.00000000000E+00  0.45593999997E+02  0.45594000000E+02  0.51100000000E-03 0. -1.
         11   -1    0    0    0    0 -0.00000000000E+00 -0.00000000000E+00 -0.45593999997E+02  0.45594000000E+02  0.51100000000E-03 0.  1.
    9900012    2    1    2    0    0 -0.19260088138E+02 -0.35116391581E+02  0.16718571726E+02  0.47787278885E+02  0.20000035748E+02 0.  0.
        -12    1    1    2    0    0  0.19260088138E+02  0.35116391581E+02 -0.16718571726E+02  0.43400721115E+02  0.00000000000E+00 0.  1.
         11    1    3    3    0    0 -0.41429806507E+01 -0.23335579945E+01  0.31875262143E+01  0.57245179023E+01  0.51100000000E-03 0. -1.
        -11    1    3    3    0    0 -0.27121503751E+01 -0.51244789779E+00  0.61074435646E+01  0.67021809630E+01  0.51100000000E-03 0.  1.
         12    1    3    3    0    0 -0.12404957112E+02 -0.32270385689E+02  0.74236019470E+01  0.35360580020E+02  0.00000000000E+00 0. -1.
</event>
<event>
 7    1  0.4356471E-010  0.4778726E+02  0.7816164E-02  0.1312668E+00
        -11   -1    0    0    0    0  0.00000000000E+00  0.00000000000E+00  0.45593999997E+02  0.45594000000E+02  0.51100000000E-03 0.  1.
         11   -1    0    0    0    0 -0.00000000000E+00 -0.00000000000E+00 -0.45593999997E+02  0.45594000000E+02  0.51100000000E-03 0. -1.
    9900012    2    1    2    0    0  0.32058196422E+02 -0.89257380245E+01 -0.27860855542E+02  0.47787262349E+02  0.19999960354E+02 0.  0.
        -12    1    1    2    0    0 -0.32058196422E+02  0.89257380245E+01  0.27860855542E+02  0.43400737651E+02  0.00000000000E+00 0.  1.
         11    1    3    3    0    0  0.27713322772E+02 -0.26427291396E+01 -0.20520083961E+02  0.34584478056E+02  0.51100000000E-03 0. -1.
        -11    1    3    3    0    0  0.39488260480E+00  0.18705186321E+01 -0.11792420477E+01  0.22461932893E+01  0.51100000000E-03 0.  1.
        -12    1    3    3    0    0  0.39499910450E+01 -0.81535275170E+01 -0.61615295335E+01  0.10956591003E+02  0.00000000000E+00 0.  1.
</event>
<event>
 7    1  0.4356471E-010  0.4778727E+02  0.7816164E-02  0.1312668E+00
        -11   -1    0    0    0    0  0.00000000000E+00  0.00000000000E+00  0.45593999997E+02  0.45594000000E+02  0.51100000000E-03 0. -1.
         11   -1    0    0    0    0 -0.00000000000E+00 -0.00000000000E+00 -0.45593999997E+02  0.45594000000E+02  0.51100000000E-03 0.  1.
    9900012    2    1    2    0    0 -0.23860277756E+02 -0.20178183829E+02  0.30118957611E+02  0.47787267692E+02  0.19999984717E+02 0.  0.
        -12    1    1    2    0    0  0.23860277756E+02  0.20178183829E+02 -0.30118957611E+02  0.43400732308E+02  0.00000000000E+00 0.  1.
         11    1    3    3    0    0 -0.11831273181E+02 -0.64973921555E+01  0.80421937447E+01  0.15712161226E+02  0.51100000000E-03 0. -1.
        -11    1    3    3    0    0 -0.12184176376E+02 -0.14657449984E+02  0.13297802474E+02  0.23240622731E+02  0.51100000000E-03 0.  1.
        -12    1    3    3    0    0  0.15517180142E+00  0.97665831048E+00  0.87789613923E+01  0.88344837354E+01  0.00000000000E+00 0.  1.
</event>
<event>
 7    1  0.4356471E-010  0.4778727E+02  0.7816164E-02  0.1312668E+00
        -11   -1    0    0    0    0  0.00000000000E+00  0.00000000000E+00  0.45593999997E+02  0.45594000000E+02  0.51100000000E-03 0. -1.
         11   -1    0    0    0    0 -0.00000000000E+00 -0.00000000000E+00 -0.45593999997E+02  0.45594000000E+02  0.51100000000E-03 0.  1.
    9900012    2    1    2    0    0  0.19135108399E+02 -0.12712735261E+02  0.36821967107E+02  0.47787271056E+02  0.20000000054E+02 0.  0.
        -12    1    1    2    0    0 -0.19135108399E+02  0.12712735261E+02 -0.36821967107E+02  0.43400728944E+02  0.00000000000E+00 0.  1.
         11    1    3    3    0    0  0.25378052412E+01 -0.65045560086E+00  0.93098464711E+01  0.96714419559E+01  0.51100000000E-03 0. -1.
        -11    1    3    3    0    0 -0.17343569973E+01 -0.71797114302E+01  0.84343871768E+01  0.11211384291E+02  0.51100000000E-03 0.  1.
         12    1    3    3    0    0  0.18331660155E+02 -0.48825682299E+01  0.19077733459E+02  0.26904444809E+02  0.00000000000E+00 0. -1.
</event>
<event>
 7    1  0.4356471E-010  0.4778727E+02  0.7816164E-02  0.1312668E+00
        -11   -1    0    0    0    0  0.00000000000E+00  0.00000000000E+00  0.45593999997E+02  0.45594000000E+02  0.51100000000E-03 0.  1.
         11   -1    0    0    0    0 -0.00000000000E+00 -0.00000000000E+00 -0.45593999997E+02  0.45594000000E+02  0.51100000000E-03 0. -1.
    9900012    2    1    2    0    0  0.36049220378E+02 -0.82933489232E+01 -0.22700161275E+02  0.47787271341E+02  0.20000001351E+02 0.  0.
        -12    1    1    2    0    0 -0.36049220378E+02  0.82933489232E+01  0.22700161275E+02  0.43400728659E+02  0.00000000000E+00 0.  1.
         11    1    3    3    0    0  0.41487812707E+01 -0.62686267332E+01 -0.77064865090E+01  0.10765593422E+02  0.51100000000E-03 0. -1.
        -11    1    3    3    0    0  0.73780550528E+01 -0.36890097345E+00  0.13443893212E+01  0.75086062088E+01  0.51100000000E-03 0.  1.
         12    1    3    3    0    0  0.24522384055E+02 -0.16558212165E+01 -0.16338064087E+02  0.29513071710E+02  0.00000000000E+00 0. -1.
</event>
<event>
 7    1  0.4356471E-010  0.4778727E+02  0.7816164E-02  0.1312668E+00
        -11   -1    0    0    0    0  0.00000000000E+00  0.00000000000E+00  0.45593999997E+02  0.45594000000E+02  0.51100000000E-03 0.  1.
         11   -1    0    0    0    0 -0.00000000000E+00 -0.00000000000E+00 -0.45593999997E+02  0.45594000000E+02  0.51100000000E-03 0. -1.
    9900012    2    1    2    0    0  0.10768304749E+02 -0.12478901547E+02 -0.40149022297E+02  0.47787270025E+02  0.19999995351E+02 0.  0.
        -12    1    1    2    0    0 -0.10768304749E+02  0.12478901547E+02  0.40149022297E+02  0.43400729975E+02  0.00000000000E+00 0.  1.
         11    1    3    3    0    0  0.89374217207E+01 -0.62799000674E+01 -0.21878074251E+02  0.24453318488E+02  0.51100000000E-03 0. -1.
        -11    1    3    3    0    0  0.73347321881E+01 -0.33972161971E+01 -0.81589221611E+01  0.11485094046E+02  0.51100000000E-03 0.  1.
        -12    1    3    3    0    0 -0.55038491598E+01 -0.28017852828E+01 -0.10112025884E+02  0.11848857490E+02  0.00000000000E+00 0.  1.
</event>
<event>
 7    1  0.4356471E-010  0.4778727E+02  0.7816164E-02  0.1312668E+00
        -11   -1    0    0    0    0  0.00000000000E+00  0.00000000000E+00  0.45593999997E+02  0.45594000000E+02  0.51100000000E-03 0.  1.
         11   -1    0    0    0    0 -0.00000000000E+00 -0.00000000000E+00 -0.45593999997E+02  0.45594000000E+02  0.51100000000E-03 0. -1.
    9900012    2    1    2    0    0 -0.38911833900E+02  0.18436232604E+02 -0.54403920227E+01  0.47787270105E+02  0.19999995715E+02 0.  0.
        -12    1    1    2    0    0  0.38911833900E+02 -0.18436232604E+02  0.54403920227E+01  0.43400729895E+02  0.00000000000E+00 0.  1.
         11    1    3    3    0    0 -0.19104452137E+02  0.14159751422E+02  0.54392330805E+01  0.24393931798E+02  0.51100000000E-03 0. -1.
        -11    1    3    3    0    0 -0.12017364916E+01 -0.26878411211E+00  0.22846937212E+00  0.12524432160E+01  0.51100000000E-03 0.  1.
         12    1    3    3    0    0 -0.18605645271E+02  0.45452652943E+01 -0.11108094475E+02  0.22140895091E+02  0.00000000000E+00 0. -1.
</event>
<event>
 7    1  0.4356471E-010  0.4778728E+02  0.7816164E-02  0.1312668E+00
        -11   -1    0    0    0    0  0.00000000000E+00  0.00000000000E+00  0.45593999997E+02  0.45594000000E+02  0.51100000000E-03 0. -1.
         11   -1    0    0    0    0 -0.00000000000E+00 -0.00000000000E+00 -0.45593999997E+02  0.45594000000E+02  0.51100000000E-03 0.  1.
    9900012    2    1    2    0    0 -0.25228970860E+02 -0.32102891465E+02  0.14714824576E+02  0.47787277963E+02  0.20000031545E+02 0.  0.
        -12    1    1    2    0    0  0.25228970860E+02  0.32102891465E+02 -0.14714824576E+02  0.43400722037E+02  0.00000000000E+00 0.  1.
         11    1    3    3    0    0 -0.83260008954E+01 -0.83017983711E+01  0.33155514619E+01  0.12216178980E+02  0.51100000000E-03 0. -1.
        -11    1    3    3    0    0 -0.22492722860E+01 -0.15414110743E+02  0.72175330943E+00  0.15594068229E+02  0.51100000000E-03 0.  1.
        -12    1    3    3    0    0 -0.14653697678E+02 -0.83869823502E+01  0.10677519805E+02  0.19977030755E+02  0.00000000000E+00 0.  1.
</event>
<event>
 7    1  0.4356471E-010  0.4778727E+02  0.7816164E-02  0.1312668E+00
        -11   -1    0    0    0    0  0.00000000000E+00  0.00000000000E+00  0.45593999997E+02  0.45594000000E+02  0.51100000000E-03 0.  1.
         11   -1    0    0    0    0 -0.00000000000E+00 -0.00000000000E+00 -0.45593999997E+02  0.45594000000E+02  0.51100000000E-03 0. -1.
    9900012    2    1    2    0    0 -0.29309143638E+02  0.75295441122E+01 -0.31111144334E+02  0.47787271468E+02  0.20000001932E+02 0.  0.
        -12    1    1    2    0    0  0.29309143638E+02 -0.75295441122E+01  0.31111144334E+02  0.43400728532E+02  0.00000000000E+00 0.  1.
         11    1    3    3    0    0 -0.16476537436E+01  0.34755473175E+01 -0.44894738903E+01  0.59118159721E+01  0.51100000000E-03 0. -1.
        -11    1    3    3    0    0 -0.75186141631E+01 -0.59236585294E+01 -0.55487139097E+01  0.11063793003E+02  0.51100000000E-03 0.  1.
         12    1    3    3    0    0 -0.20142875731E+02  0.99776553241E+01 -0.21072956534E+02  0.30811662493E+02  0.00000000000E+00 0. -1.
</event>
<event>
 7    1  0.4356471E-010  0.4778727E+02  0.7816164E-02  0.1312668E+00
        -11   -1    0    0    0    0  0.00000000000E+00  0.00000000000E+00  0.45593999997E+02  0.45594000000E+02  0.51100000000E-03 0.  1.
         11   -1    0    0    0    0 -0.00000000000E+00 -0.00000000000E+00 -0.45593999997E+02  0.45594000000E+02  0.51100000000E-03 0. -1.
    9900012    2    1    2    0    0 -0.13807649956E+01 -0.42667534190E+02 -0.78229517746E+01  0.47787267745E+02  0.19999984957E+02 0.  0.
        -12    1    1    2    0    0  0.13807649956E+01  0.42667534190E+02  0.78229517746E+01  0.43400732255E+02  0.00000000000E+00 0.  1.
         11    1    3    3    0    0  0.45220327821E+01 -0.91604774162E+01 -0.82274393462E+01  0.13116931251E+02  0.51100000000E-03 0. -1.
        -11    1    3    3    0    0 -0.16600542997E+00 -0.73349979525E+00  0.11686263287E+01  0.13897005108E+01  0.51100000000E-03 0.  1.
         12    1    3    3    0    0 -0.57367923477E+01 -0.32773556978E+02 -0.76413875710E+00  0.33280635984E+02  0.00000000000E+00 0. -1.
</event>
<event>
 7    1  0.4781798E-010  0.4778727E+02  0.7816164E-02  0.1312668E+00
        -11   -1    0    0    0    0  0.00000000000E+00  0.00000000000E+00  0.45593999997E+02  0.45594000000E+02  0.51100000000E-03 0. -1.
         11   -1    0    0    0    0 -0.00000000000E+00 -0.00000000000E+00 -0.45593999997E+02  0.45594000000E+02  0.51100000000E-03 0.  1.
    9900012    2    1    2    0    0  0.32020911525E+02  0.25059825982E+02  0.15175293771E+02  0.47787271963E+02  0.20000004186E+02 0.  0.
        -12    1    1    2    0    0 -0.32020911525E+02 -0.25059825982E+02 -0.15175293771E+02  0.43400728037E+02  0.00000000000E+00 0.  1.
         11    1    3    3    0    0  0.14832455365E+02  0.14806077603E+02  0.26313228438E+01  0.21122157236E+02  0.51100000000E-03 0. -1.
        -11    1    3    3    0    0  0.44366225052E+01  0.94496800648E+01  0.34976365472E+01  0.11009701824E+02  0.51100000000E-03 0.  1.
        -12    1    3    3    0    0  0.12751833655E+02  0.80406831397E+00  0.90463343804E+01  0.15655412903E+02  0.00000000000E+00 0.  1.
</event>
<event>
 7    1  0.4356471E-010  0.4778727E+02  0.7816164E-02  0.1312668E+00
        -11   -1    0    0    0    0  0.00000000000E+00  0.00000000000E+00  0.45593999997E+02  0.45594000000E+02  0.51100000000E-03 0. -1.
         11   -1    0    0    0    0 -0.00000000000E+00 -0.00000000000E+00 -0.45593999997E+02  0.45594000000E+02  0.51100000000E-03 0.  1.
    9900012    2    1    2    0    0  0.22700010051E+02 -0.24171168179E+02  0.28001559429E+02  0.47787272381E+02  0.20000006093E+02 0.  0.
        -12    1    1    2    0    0 -0.22700010051E+02  0.24171168179E+02 -0.28001559429E+02  0.43400727619E+02  0.00000000000E+00 0.  1.
         11    1    3    3    0    0  0.16265472209E+02 -0.74453641358E+01  0.12398648931E+02  0.21765236706E+02  0.51100000000E-03 0. -1.
        -11    1    3    3    0    0  0.54015713892E+01 -0.45421399981E+01  0.10765358462E+02  0.12872488194E+02  0.51100000000E-03 0.  1.
        -12    1    3    3    0    0  0.10329664528E+01 -0.12183664045E+02  0.48375520358E+01  0.13149547481E+02  0.00000000000E+00 0.  1.
</event>
<event>
 7    1  0.4356471E-010  0.4778727E+02  0.7816164E-02  0.1312668E+00
        -11   -1    0    0    0    0  0.00000000000E+00  0.00000000000E+00  0.45593999997E+02  0.45594000000E+02  0.51100000000E-03 0.  1.
         11   -1    0    0    0    0 -0.00000000000E+00 -0.00000000000E+00 -0.45593999997E+02  0.45594000000E+02  0.51100000000E-03 0. -1.
    9900012    2    1    2    0    0 -0.41571426249E+02 -0.11567373377E+02 -0.46514240515E+01  0.47787270133E+02  0.19999995846E+02 0.  0.
        -12    1    1    2    0    0  0.41571426249E+02  0.11567373377E+02  0.46514240515E+01  0.43400729867E+02  0.00000000000E+00 0.  1.
         11    1    3    3    0    0 -0.16645376814E+02  0.20714879792E+00 -0.92823962875E+01  0.19059757632E+02  0.51100000000E-03 0. -1.
        -11    1    3    3    0    0 -0.81437593245E+01 -0.55148806827E+00  0.12807953921E+01  0.82622873421E+01  0.51100000000E-03 0.  1.
         12    1    3    3    0    0 -0.16782290111E+02 -0.11223034107E+02  0.33501768440E+01  0.20465225159E+02  0.00000000000E+00 0. -1.
</event>
<event>
 7    1  0.4356471E-010  0.4778726E+02  0.7816164E-02  0.1312668E+00
        -11   -1    0    0    0    0  0.00000000000E+00  0.00000000000E+00  0.45593999997E+02  0.45594000000E+02  0.51100000000E-03 0.  1.
         11   -1    0    0    0    0 -0.00000000000E+00 -0.00000000000E+00 -0.45593999997E+02  0.45594000000E+02  0.51100000000E-03 0. -1.
    9900012    2    1    2    0    0  0.56178176043E+01 -0.53928946980E+01 -0.42696378989E+02  0.47787263064E+02  0.19999963612E+02 0.  0.
        -12    1    1    2    0    0 -0.56178176043E+01  0.53928946980E+01  0.42696378989E+02  0.43400736936E+02  0.00000000000E+00 0.  1.
         11    1    3    3    0    0  0.11079373447E+01  0.30163178343E+01 -0.16740201607E+02  0.17045822026E+02  0.51100000000E-03 0. -1.
        -11    1    3    3    0    0  0.23907359518E+01 -0.53456493482E+01 -0.26352544636E+02  0.26995336530E+02  0.51100000000E-03 0.  1.
        -12    1    3    3    0    0  0.21191443077E+01 -0.30635631841E+01  0.39636725377E+00  0.37461045073E+01  0.00000000000E+00 0.  1.
</event>
<event>
 7    1  0.4356471E-010  0.4778727E+02  0.7816164E-02  0.1312668E+00
        -11   -1    0    0    0    0  0.00000000000E+00  0.00000000000E+00  0.45593999997E+02  0.45594000000E+02  0.51100000000E-03 0.  1.
         11   -1    0    0    0    0 -0.00000000000E+00 -0.00000000000E+00 -0.45593999997E+02  0.45594000000E+02  0.51100000000E-03 0. -1.
    9900012    2    1    2    0    0  0.74567179514E+01 -0.21297706490E+01 -0.42702279443E+02  0.47787271490E+02  0.20000002031E+02 0.  0.
        -12    1    1    2    0    0 -0.74567179514E+01  0.21297706490E+01  0.42702279443E+02  0.43400728510E+02  0.00000000000E+00 0.  1.
         11    1    3    3    0    0  0.43597046477E+01 -0.85123869078E+00 -0.17330224357E+01  0.47681232102E+01  0.51100000000E-03 0.  1.
        -11    1    3    3    0    0 -0.52298796819E+00  0.37083299260E+01 -0.37736579513E+01  0.53165516878E+01  0.51100000000E-03 0. -1.
         12    1    3    3    0    0  0.36200012718E+01 -0.49868618842E+01 -0.37195599056E+02  0.37702596592E+02  0.00000000000E+00 0. -1.
</event>
<event>
 7    1  0.4356471E-010  0.4778730E+02  0.7816164E-02  0.1312668E+00
        -11   -1    0    0    0    0  0.00000000000E+00  0.00000000000E+00  0.45593999997E+02  0.45594000000E+02  0.51100000000E-03 0.  1.
         11   -1    0    0    0    0 -0.00000000000E+00 -0.00000000000E+00 -0.45593999997E+02  0.45594000000E+02  0.51100000000E-03 0. -1.
    9900012    2    1    2    0    0 -0.40002491856E+02  0.71744349931E+01 -0.15229876476E+02  0.47787297130E+02  0.20000118934E+02 0.  0.
        -12    1    1    2    0    0  0.40002491856E+02 -0.71744349931E+01  0.15229876476E+02  0.43400702870E+02  0.00000000000E+00 0.  1.
         11    1    3    3    0    0 -0.30139562362E+02  0.28750464953E+01 -0.14241863947E+02  0.33458777633E+02  0.51100000000E-03 0. -1.
        -11    1    3    3    0    0 -0.60769414615E+01 -0.24457492610E+01 -0.20332985516E+00  0.65537966299E+01  0.51100000000E-03 0.  1.
        -12    1    3    3    0    0 -0.37859880323E+01  0.67451377588E+01 -0.78468267344E+00  0.77747228674E+01  0.00000000000E+00 0.  1.
</event>
<event>
 7    1  0.4356471E-010  0.4778727E+02  0.7816164E-02  0.1312668E+00
        -11   -1    0    0    0    0  0.00000000000E+00  0.00000000000E+00  0.45593999997E+02  0.45594000000E+02  0.51100000000E-03 0.  1.
         11   -1    0    0    0    0 -0.00000000000E+00 -0.00000000000E+00 -0.45593999997E+02  0.45594000000E+02  0.51100000000E-03 0. -1.
    9900012    2    1    2    0    0  0.60805072283E+01  0.38900857387E+02 -0.18258546460E+02  0.47787265070E+02  0.19999972762E+02 0.  0.
        -12    1    1    2    0    0 -0.60805072283E+01 -0.38900857387E+02  0.18258546460E+02  0.43400734930E+02  0.00000000000E+00 0.  1.
         11    1    3    3    0    0  0.57139690902E+00  0.11724864974E+02 -0.11190882958E+02  0.16218348089E+02  0.51100000000E-03 0. -1.
        -11    1    3    3    0    0 -0.19396852605E+01  0.11942615363E+02 -0.81328712496E+01  0.14578478509E+02  0.51100000000E-03 0.  1.
        -12    1    3    3    0    0  0.74487955798E+01  0.15233377050E+02  0.10652077480E+01  0.16990438472E+02  0.00000000000E+00 0.  1.
</event>
<event>
 7    1  0.4356471E-010  0.4778727E+02  0.7816164E-02  0.1312668E+00
        -11   -1    0    0    0    0  0.00000000000E+00  0.00000000000E+00  0.45593999997E+02  0.45594000000E+02  0.51100000000E-03 0.  1.
         11   -1    0    0    0    0 -0.00000000000E+00 -0.00000000000E+00 -0.45593999997E+02  0.45594000000E+02  0.51100000000E-03 0. -1.
    9900012    2    1    2    0    0  0.11410499343E+02  0.13779782054E+02 -0.39541639853E+02  0.47787272230E+02  0.20000005405E+02 0.  0.
        -12    1    1    2    0    0 -0.11410499343E+02 -0.13779782054E+02  0.39541639853E+02  0.43400727770E+02  0.00000000000E+00 0.  1.
         11    1    3    3    0    0 -0.88321870108E+00 -0.26349646516E+01 -0.71276924133E+01  0.76503015227E+01  0.51100000000E-03 0. -1.
        -11    1    3    3    0    0 -0.45578219608E+00  0.71742524338E+01 -0.15160467548E+02  0.16778480621E+02  0.51100000000E-03 0.  1.
         12    1    3    3    0    0  0.12749500240E+02  0.92404942718E+01 -0.17253479892E+02  0.23358490087E+02  0.00000000000E+00 0. -1.
</event>
<event>
 7    1  0.4356471E-010  0.4778727E+02  0.7816164E-02  0.1312668E+00
        -11   -1    0    0    0    0  0.00000000000E+00  0.00000000000E+00  0.45593999997E+02  0.45594000000E+02  0.51100000000E-03 0. -1.
         11   -1    0    0    0    0 -0.00000000000E+00 -0.00000000000E+00 -0.45593999997E+02  0.45594000000E+02  0.51100000000E-03 0.  1.
    9900012    2    1    2    0    0 -0.24376788430E+01 -0.98376947738E+00  0.43321053774E+02  0.47787265207E+02  0.19999973383E+02 0.  0.
        -12    1    1    2    0    0  0.24376788430E+01  0.98376947738E+00 -0.43321053774E+02  0.43400734793E+02  0.00000000000E+00 0.  1.
         11    1    3    3    0    0  0.51687968133E+01 -0.62599480856E+01  0.90140003779E+01  0.12130771352E+02  0.51100000000E-03 0.  1.
        -11    1    3    3    0    0 -0.18604753045E+00  0.12138846129E+01  0.35073288219E+01  0.37161115784E+01  0.51100000000E-03 0. -1.
         12    1    3    3    0    0 -0.74204281259E+01  0.40622939952E+01  0.30799724574E+02  0.31940382276E+02  0.00000000000E+00 0. -1.
</event>
<event>
 7    1  0.4356471E-010  0.4778727E+02  0.7816164E-02  0.1312668E+00
        -11   -1    0    0    0    0  0.00000000000E+00  0.00000000000E+00  0.45593999997E+02  0.45594000000E+02  0.51100000000E-03 0. -1.
         11   -1    0    0    0    0 -0.00000000000E+00 -0.00000000000E+00 -0.45593999997E+02  0.45594000000E+02  0.51100000000E-03 0.  1.
    9900012    2    1    2    0    0  0.21503970315E+02  0.32074923110E+02 -0.19809132039E+02  0.47787272541E+02  0.20000006822E+02 0.  0.
        -12    1    1    2    0    0 -0.21503970315E+02 -0.32074923110E+02  0.19809132039E+02  0.43400727459E+02  0.00000000000E+00 0.  1.
         11    1    3    3    0    0  0.16707092441E+02  0.31863490442E+02 -0.17497642883E+02  0.40007205198E+02  0.51100000000E-03 0. -1.
        -11    1    3    3    0    0 -0.67450446244E+00  0.64266761833E+00 -0.20888565061E+01  0.22872034675E+01  0.51100000000E-03 0.  1.
         12    1    3    3    0    0  0.54713823366E+01 -0.43123495020E+00 -0.22263264927E+00  0.54928638753E+01  0.00000000000E+00 0. -1.
</event>
<event>
 7    1  0.4356471E-010  0.4778727E+02  0.7816164E-02  0.1312668E+00
        -11   -1    0    0    0    0  0.00000000000E+00  0.00000000000E+00  0.45593999997E+02  0.45594000000E+02  0.51100000000E-03 0. -1.
         11   -1    0    0    0    0 -0.00000000000E+00 -0.00000000000E+00 -0.45593999997E+02  0.45594000000E+02  0.51100000000E-03 0.  1.
    9900012    2    1    2    0    0  0.26876710712E+02  0.18643972412E+02  0.28524867744E+02  0.47787269986E+02  0.19999995173E+02 0.  0.
        -12    1    1    2    0    0 -0.26876710712E+02 -0.18643972412E+02 -0.28524867744E+02  0.43400730014E+02  0.00000000000E+00 0.  1.
         11    1    3    3    0    0  0.11164116744E+01 -0.30229244179E-01 -0.99527466355E+00  0.14959481110E+01  0.51100000000E-03 0. -1.
        -11    1    3    3    0    0 -0.59078065371E+00  0.46917837668E+01  0.64196035668E+00  0.47722080901E+01  0.51100000000E-03 0.  1.
         12    1    3    3    0    0  0.26351079691E+02  0.13982417889E+02  0.28878182051E+02  0.41519113785E+02  0.00000000000E+00 0. -1.
</event>
<event>
 7    1  0.4356471E-010  0.4778727E+02  0.7816164E-02  0.1312668E+00
        -11   -1    0    0    0    0  0.00000000000E+00  0.00000000000E+00  0.45593999997E+02  0.45594000000E+02  0.51100000000E-03 0.  1.
         11   -1    0    0    0    0 -0.00000000000E+00 -0.00000000000E+00 -0.45593999997E+02  0.45594000000E+02  0.51100000000E-03 0. -1.
    9900012    2    1    2    0    0 -0.39635940680E+02 -0.26810660480E+01 -0.17476475716E+02  0.47787272908E+02  0.20000008495E+02 0.  0.
        -12    1    1    2    0    0  0.39635940680E+02  0.26810660480E+01  0.17476475716E+02  0.43400727092E+02  0.00000000000E+00 0.  1.
         11    1    3    3    0    0 -0.24367528382E+02 -0.66538943060E+01 -0.18394137524E+02  0.31247320596E+02  0.51100000000E-03 0. -1.
        -11    1    3    3    0    0 -0.62171729460E+01 -0.70504430405E+00 -0.38268746995E+00  0.62687141323E+01  0.51100000000E-03 0.  1.
        -12    1    3    3    0    0 -0.90512393513E+01  0.46778725620E+01  0.13003492779E+01  0.10271238180E+02  0.00000000000E+00 0.  1.
</event>
<event>
 7    1  0.4356471E-010  0.4778727E+02  0.7816164E-02  0.1312668E+00
        -11   -1    0    0    0    0  0.00000000000E+00  0.00000000000E+00  0.45593999997E+02  0.45594000000E+02  0.51100000000E-03 0. -1.
         11   -1    0    0    0    0 -0.00000000000E+00 -0.00000000000E+00 -0.45593999997E+02  0.45594000000E+02  0.51100000000E-03 0.  1.
    9900012    2    1    2    0    0 -0.42175537148E+02  0.99444512203E+01 -0.24403474096E+01  0.47787270291E+02  0.19999996563E+02 0.  0.
        -12    1    1    2    0    0  0.42175537148E+02 -0.99444512203E+01  0.24403474096E+01  0.43400729709E+02  0.00000000000E+00 0.  1.
         11    1    3    3    0    0 -0.15518905137E+02  0.48326204284E+01  0.27546446207E+01  0.16485712120E+02  0.51100000000E-03 0. -1.
        -11    1    3    3    0    0 -0.71331661309E+01  0.32030350434E+01  0.49122445759E+01  0.92342644306E+01  0.51100000000E-03 0.  1.
         12    1    3    3    0    0 -0.19523465880E+02  0.19087957486E+01 -0.10107236606E+02  0.22067293740E+02  0.00000000000E+00 0. -1.
</event>
<event>
 7    1  0.4356471E-010  0.4778727E+02  0.7816164E-02  0.1312668E+00
        -11   -1    0    0    0    0  0.00000000000E+00  0.00000000000E+00  0.45593999997E+02  0.45594000000E+02  0.51100000000E-03 0.  1.
         11   -1    0    0    0    0 -0.00000000000E+00 -0.00000000000E+00 -0.45593999997E+02  0.45594000000E+02  0.51100000000E-03 0. -1.
    9900012    2    1    2    0    0 -0.21537899791E+02  0.25624079299E+02 -0.27625146120E+02  0.47787271141E+02  0.20000000439E+02 0.  0.
        -12    1    1    2    0    0  0.21537899791E+02 -0.25624079299E+02  0.27625146120E+02  0.43400728859E+02  0.00000000000E+00 0.  1.
         11    1    3    3    0    0 -0.87782471674E+01  0.69892731172E+01 -0.79760716102E+01  0.13766818101E+02  0.51100000000E-03 0. -1.
        -11    1    3    3    0    0 -0.10562842057E+02  0.79178552258E+01 -0.21379787283E+01  0.13372995812E+02  0.51100000000E-03 0.  1.
         12    1    3    3    0    0 -0.21968105671E+01  0.10716950956E+02 -0.17511095782E+02  0.20647457227E+02  0.00000000000E+00 0. -1.
</event>
<event>
 7    1  0.4356471E-010  0.4778727E+02  0.7816164E-02  0.1312668E+00
        -11   -1    0    0    0    0  0.00000000000E+00  0.00000000000E+00  0.45593999997E+02  0.45594000000E+02  0.51100000000E-03 0. -1.
         11   -1    0    0    0    0 -0.00000000000E+00 -0.00000000000E+00 -0.45593999997E+02  0.45594000000E+02  0.51100000000E-03 0.  1.
    9900012    2    1    2    0    0  0.32653529321E+02 -0.11486091424E+02  0.26180917976E+02  0.47787265682E+02  0.19999975549E+02 0.  0.
        -12    1    1    2    0    0 -0.32653529321E+02  0.11486091424E+02 -0.26180917976E+02  0.43400734318E+02  0.00000000000E+00 0.  1.
         11    1    3    3    0    0  0.42957119857E+01 -0.71502036518E-02 -0.19168396484E+01  0.47039841717E+01  0.51100000000E-03 0. -1.
        -11    1    3    3    0    0  0.49165482243E+01  0.22077760923E+01  0.61383402242E+01  0.81685949027E+01  0.51100000000E-03 0.  1.
         12    1    3    3    0    0  0.23441269111E+02 -0.13686717313E+02  0.21959417400E+02  0.34914686607E+02  0.00000000000E+00 0. -1.
</event>
<event>
 7    1  0.4356471E-010  0.4778727E+02  0.7816164E-02  0.1312668E+00
        -11   -1    0    0    0    0  0.00000000000E+00  0.00000000000E+00  0.45593999997E+02  0.45594000000E+02  0.51100000000E-03 0.  1.
         11   -1    0    0    0    0 -0.00000000000E+00 -0.00000000000E+00 -0.45593999997E+02  0.45594000000E+02  0.51100000000E-03 0. -1.
    9900012    2    1    2    0    0  0.19334510368E+02  0.34075384972E+02 -0.18672650954E+02  0.47787273672E+02  0.20000011980E+02 0.  0.
        -12    1    1    2    0    0 -0.19334510368E+02 -0.34075384972E+02  0.18672650954E+02  0.43400726328E+02  0.00000000000E+00 0.  1.
         11    1    3    3    0    0  0.96442252559E+01  0.57609990591E+01 -0.65173683589E+01  0.12987543322E+02  0.51100000000E-03 0. -1.
        -11    1    3    3    0    0  0.11861120499E+02  0.21117283596E+02 -0.12536883376E+02  0.27272683971E+02  0.51100000000E-03 0.  1.
        -12    1    3    3    0    0 -0.21708353867E+01  0.71971023170E+01  0.38160078102E+00  0.75270463791E+01  0.00000000000E+00 0.  1.
</event>
<event>
 7    1  0.4356471E-010  0.4778722E+02  0.7816164E-02  0.1312668E+00
        -11   -1    0    0    0    0  0.00000000000E+00  0.00000000000E+00  0.45593999997E+02  0.45594000000E+02  0.51100000000E-03 0.  1.
         11   -1    0    0    0    0 -0.00000000000E+00 -0.00000000000E+00 -0.45593999997E+02  0.45594000000E+02  0.51100000000E-03 0. -1.
    9900012    2    1    2    0    0 -0.40311314277E+02 -0.14192693327E+02 -0.75625879879E+01  0.47787224204E+02  0.19999786434E+02 0.  0.
        -12    1    1    2    0    0  0.40311314277E+02  0.14192693327E+02  0.75625879879E+01  0.43400775796E+02  0.00000000000E+00 0.  1.
         11    1    3    3    0    0 -0.68439178329E+01 -0.74512665746E+01 -0.47215561574E+01  0.11164841140E+02  0.51100000000E-03 0. -1.
        -11    1    3    3    0    0 -0.27698041574E+01 -0.91912063431E-01  0.36161789050E+01  0.45559865048E+01  0.51100000000E-03 0.  1.
         12    1    3    3    0    0 -0.30697592287E+02 -0.66495146891E+01 -0.64572107356E+01  0.32066396559E+02  0.00000000000E+00 0. -1.
</event>
<event>
 7    1  0.4356471E-010  0.4778727E+02  0.7816164E-02  0.1312668E+00
        -11   -1    0    0    0    0  0.00000000000E+00  0.00000000000E+00  0.45593999997E+02  0.45594000000E+02  0.51100000000E-03 0.  1.
         11   -1    0    0    0    0 -0.00000000000E+00 -0.00000000000E+00 -0.45593999997E+02  0.45594000000E+02  0.51100000000E-03 0. -1.
    9900012    2    1    2    0    0 -0.16869709534E+02  0.12681003986E+02 -0.37923982621E+02  0.47787269365E+02  0.19999992341E+02 0.  0.
        -12    1    1    2    0    0  0.16869709534E+02 -0.12681003986E+02  0.37923982621E+02  0.43400730635E+02  0.00000000000E+00 0.  1.
         11    1    3    3    0    0 -0.13053713885E+02  0.40762076091E+01 -0.17301157811E+02  0.22053230524E+02  0.51100000000E-03 0. -1.
        -11    1    3    3    0    0 -0.80250500275E+01  0.74388143919E+01 -0.15897394268E+02  0.19299340203E+02  0.51100000000E-03 0.  1.
        -12    1    3    3    0    0  0.42090543787E+01  0.11659819851E+01 -0.47254305419E+01  0.64346986377E+01  0.00000000000E+00 0.  1.
</event>
<event>
 7    1  0.4356471E-010  0.4778727E+02  0.7816164E-02  0.1312668E+00
        -11   -1    0    0    0    0  0.00000000000E+00  0.00000000000E+00  0.45593999997E+02  0.45594000000E+02  0.51100000000E-03 0. -1.
         11   -1    0    0    0    0 -0.00000000000E+00 -0.00000000000E+00 -0.45593999997E+02  0.45594000000E+02  0.51100000000E-03 0.  1.
    9900012    2    1    2    0    0 -0.42970093317E+01 -0.23962076955E+02  0.35930183043E+02  0.47787268731E+02  0.19999989452E+02 0.  0.
        -12    1    1    2    0    0  0.42970093317E+01  0.23962076955E+02 -0.35930183043E+02  0.43400731269E+02  0.00000000000E+00 0.  1.
         11    1    3    3    0    0 -0.12045190901E+01 -0.11448581557E+01  0.13424023669E+02  0.13526491717E+02  0.51100000000E-03 0. -1.
        -11    1    3    3    0    0 -0.49427641336E+01 -0.35169739250E+01  0.30370585055E+01  0.67840804459E+01  0.51100000000E-03 0.  1.
         12    1    3    3    0    0  0.18502738920E+01 -0.19300244874E+02  0.19469100869E+02  0.27476696568E+02  0.00000000000E+00 0. -1.
</event>
<event>
 7    1  0.4356471E-010  0.4778727E+02  0.7816164E-02  0.1312668E+00
        -11   -1    0    0    0    0  0.00000000000E+00  0.00000000000E+00  0.45593999997E+02  0.45594000000E+02  0.51100000000E-03 0. -1.
         11   -1    0    0    0    0 -0.00000000000E+00 -0.00000000000E+00 -0.45593999997E+02  0.45594000000E+02  0.51100000000E-03 0.  1.
    9900012    2    1    2    0    0 -0.30470595116E+02  0.17086944740E+02  0.25752714651E+02  0.47787272366E+02  0.20000006026E+02 0.  0.
        -12    1    1    2    0    0  0.30470595116E+02 -0.17086944740E+02 -0.25752714651E+02  0.43400727634E+02  0.00000000000E+00 0.  1.
         11    1    3    3    0    0 -0.15288171631E+02  0.12207042562E+02  0.17658884702E+02  0.26354815292E+02  0.51100000000E-03 0. -1.
        -11    1    3    3    0    0 -0.14373135746E+02  0.80982868657E+01  0.71654716577E+01  0.17986474520E+02  0.51100000000E-03 0.  1.
        -12    1    3    3    0    0 -0.80928773870E+00 -0.32183846874E+01  0.92835829148E+00  0.34459825533E+01  0.00000000000E+00 0.  1.
</event>
<event>
 7    1  0.4356471E-010  0.4778726E+02  0.7816164E-02  0.1312668E+00
        -11   -1    0    0    0    0  0.00000000000E+00  0.00000000000E+00  0.45593999997E+02  0.45594000000E+02  0.51100000000E-03 0.  1.
         11   -1    0    0    0    0 -0.00000000000E+00 -0.00000000000E+00 -0.45593999997E+02  0.45594000000E+02  0.51100000000E-03 0. -1.
    9900012    2    1    2    0    0  0.14562566449E+02  0.94187856918E+01 -0.39784953636E+02  0.47787258056E+02  0.19999940778E+02 0.  0.
        -12    1    1    2    0    0 -0.14562566449E+02 -0.94187856918E+01  0.39784953636E+02  0.43400741944E+02  0.00000000000E+00 0.  1.
         11    1    3    3    0    0  0.44685085391E+01  0.63339260894E+01 -0.15946887773E+02  0.17731029811E+02  0.51100000000E-03 0. -1.
        -11    1    3    3    0    0  0.48827019078E+01  0.63676458872E+01 -0.22311743715E+02  0.23710790791E+02  0.51100000000E-03 0.  1.
        -12    1    3    3    0    0  0.52113560018E+01 -0.32827862848E+01 -0.15263221482E+01  0.63454374530E+01  0.00000000000E+00 0.  1.
</event>
<event>
 7    1  0.4356471E-010  0.4778727E+02  0.7816164E-02  0.1312668E+00
        -11   -1    0    0    0    0  0.00000000000E+00  0.00000000000E+00  0.45593999997E+02  0.45594000000E+02  0.51100000000E-03 0.  1.
         11   -1    0    0    0    0 -0.00000000000E+00 -0.00000000000E+00 -0.45593999997E+02  0.45594000000E+02  0.51100000000E-03 0. -1.
    9900012    2    1    2    0    0  0.20944605171E+02 -0.16713084080E+01 -0.37975696350E+02  0.47787271080E+02  0.20000000160E+02 0.  0.
        -12    1    1    2    0    0 -0.20944605171E+02  0.16713084080E+01  0.37975696350E+02  0.43400728920E+02  0.00000000000E+00 0.  1.
         11    1    3    3    0    0  0.75637583295E+01 -0.98904412099E+01 -0.20334369195E+02  0.23843612105E+02  0.51100000000E-03 0. -1.
        -11    1    3    3    0    0  0.12017903300E+01  0.22208723131E+01 -0.19225387594E+01  0.31737563503E+01  0.51100000000E-03 0.  1.
         12    1    3    3    0    0  0.12179056512E+02  0.59982604888E+01 -0.15718788395E+02  0.20769902624E+02  0.00000000000E+00 0. -1.
</event>
<event>
 7    1  0.4356471E-010  0.4778727E+02  0.7816164E-02  0.1312668E+00
        -11   -1    0    0    0    0  0.00000000000E+00  0.00000000000E+00  0.45593999997E+02  0.45594000000E+02  0.51100000000E-03 0. -1.
         11   -1    0    0    0    0 -0.00000000000E+00 -0.00000000000E+00 -0.45593999997E+02  0.45594000000E+02  0.51100000000E-03 0.  1.
    9900012    2    1    2    0    0 -0.22478114383E+02 -0.26504193517E+02  0.25997796369E+02  0.47787270556E+02  0.19999997773E+02 0.  0.
        -12    1    1    2    0    0  0.22478114383E+02  0.26504193517E+02 -0.25997796369E+02  0.43400729444E+02  0.00000000000E+00 0.  1.
         11    1    3    3    0    0 -0.15047251944E+02 -0.25439505256E+02  0.12040273768E+02  0.31914830587E+02  0.51100000000E-03 0. -1.
        -11    1    3    3    0    0 -0.22583112178E+01 -0.47845467330E+00  0.35310535824E+01  0.42186761068E+01  0.51100000000E-03 0.  1.
         12    1    3    3    0    0 -0.51725512210E+01 -0.58623358758E+00  0.10426469019E+02  0.11653763862E+02  0.00000000000E+00 0. -1.
</event>
<event>
 7    1  0.4356471E-010  0.4778725E+02  0.7816164E-02  0.1312668E+00
        -11   -1    0    0    0    0  0.00000000000E+00  0.00000000000E+00  0.45593999997E+02  0.45594000000E+02  0.51100000000E-03 0.  1.
         11   -1    0    0    0    0 -0.00000000000E+00 -0.00000000000E+00 -0.45593999997E+02  0.45594000000E+02  0.51100000000E-03 0. -1.
    9900012    2    1    2    0    0  0.38211210053E+01  0.21193748809E+02 -0.37680890090E+02  0.47787246179E+02  0.19999886627E+02 0.  0.
        -12    1    1    2    0    0 -0.38211210053E+01 -0.21193748809E+02  0.37680890090E+02  0.43400753821E+02  0.00000000000E+00 0.  1.
         11    1    3    3    0    0 -0.39016550822E+00  0.15418976857E+02 -0.17469016598E+02  0.23303725402E+02  0.51100000000E-03 0. -1.
        -11    1    3    3    0    0  0.66192085601E+01  0.77818458557E+01 -0.12401841176E+02  0.16067878258E+02  0.51100000000E-03 0.  1.
        -12    1    3    3    0    0 -0.24079220466E+01 -0.20070739041E+01 -0.78100323159E+01  0.84156425194E+01  0.00000000000E+00 0.  1.
</event>
<event>
 7    1  0.4356471E-010  0.4778727E+02  0.7816164E-02  0.1312668E+00
        -11   -1    0    0    0    0  0.00000000000E+00  0.00000000000E+00  0.45593999997E+02  0.45594000000E+02  0.51100000000E-03 0.  1.
         11   -1    0    0    0    0 -0.00000000000E+00 -0.00000000000E+00 -0.45593999997E+02  0.45594000000E+02  0.51100000000E-03 0. -1.
    9900012    2    1    2    0    0  0.17381737924E+01  0.37494432969E+02 -0.21789206724E+02  0.47787270957E+02  0.19999999601E+02 0.  0.
        -12    1    1    2    0    0 -0.17381737924E+01 -0.37494432969E+02  0.21789206724E+02  0.43400729043E+02  0.00000000000E+00 0.  1.
         11    1    3    3    0    0 -0.12525744491E+00  0.16583721312E+02 -0.35612618277E+01  0.16962254804E+02  0.51100000000E-03 0. -1.
        -11    1    3    3    0    0  0.33462252278E+01  0.21756319335E+02 -0.13557184007E+02  0.25852115828E+02  0.51100000000E-03 0.  1.
        -12    1    3    3    0    0 -0.14827939905E+01 -0.84560767796E+00 -0.46707608888E+01  0.49729003251E+01  0.00000000000E+00 0.  1.
</event>
<event>
 7    1  0.4356471E-010  0.4778727E+02  0.7816164E-02  0.1312668E+00
        -11   -1    0    0    0    0  0.00000000000E+00  0.00000000000E+00  0.45593999997E+02  0.45594000000E+02  0.51100000000E-03 0.  1.
         11   -1    0    0    0    0 -0.00000000000E+00 -0.00000000000E+00 -0.45593999997E+02  0.45594000000E+02  0.51100000000E-03 0. -1.
    9900012    2    1    2    0    0 -0.23346856174E+02  0.22354067765E+02 -0.28962787396E+02  0.47787273133E+02  0.20000009522E+02 0.  0.
        -12    1    1    2    0    0  0.23346856174E+02 -0.22354067765E+02  0.28962787396E+02  0.43400726867E+02  0.00000000000E+00 0.  1.
         11    1    3    3    0    0 -0.10273197088E+02 -0.40707773807E+00 -0.42276713147E+01  0.11116541535E+02  0.51100000000E-03 0.  1.
        -11    1    3    3    0    0 -0.10862557317E+02  0.12697255415E+02 -0.16460757523E+02  0.23455745246E+02  0.51100000000E-03 0. -1.
        -12    1    3    3    0    0 -0.22111017690E+01  0.10063890088E+02 -0.82743585577E+01  0.13214986352E+02  0.00000000000E+00 0.  1.
</event>
<event>
 7    1  0.4356471E-010  0.4778729E+02  0.7816164E-02  0.1312668E+00
        -11   -1    0    0    0    0  0.00000000000E+00  0.00000000000E+00  0.45593999997E+02  0.45594000000E+02  0.51100000000E-03 0.  1.
         11   -1    0    0    0    0 -0.00000000000E+00 -0.00000000000E+00 -0.45593999997E+02  0.45594000000E+02  0.51100000000E-03 0. -1.
    9900012    2    1    2    0    0  0.32905216481E+02 -0.26905238946E+02 -0.87736478965E+01  0.47787285123E+02  0.20000064190E+02 0.  0.
        -12    1    1    2    0    0 -0.32905216481E+02  0.26905238946E+02  0.87736478965E+01  0.43400714877E+02  0.00000000000E+00 0.  1.
         11    1    3    3    0    0  0.70169417978E+01  0.68915445504E+00 -0.39756615337E+01  0.80943369677E+01  0.51100000000E-03 0. -1.
        -11    1    3    3    0    0  0.52121745041E+01 -0.52935856505E+01  0.34388530646E+01  0.81862398426E+01  0.51100000000E-03 0.  1.
        -12    1    3    3    0    0  0.20676100180E+02 -0.22300807750E+02 -0.82368394274E+01  0.31506708313E+02  0.00000000000E+00 0.  1.
</event>
<event>
 7    1  0.4356471E-010  0.4778727E+02  0.7816164E-02  0.1312668E+00
        -11   -1    0    0    0    0  0.00000000000E+00  0.00000000000E+00  0.45593999997E+02  0.45594000000E+02  0.51100000000E-03 0. -1.
         11   -1    0    0    0    0 -0.00000000000E+00 -0.00000000000E+00 -0.45593999997E+02  0.45594000000E+02  0.51100000000E-03 0.  1.
    9900012    2    1    2    0    0 -0.38697134258E+02  0.18733604820E+02 -0.59335797722E+01  0.47787268229E+02  0.19999987164E+02 0.  0.
        -12    1    1    2    0    0  0.38697134258E+02 -0.18733604820E+02  0.59335797722E+01  0.43400731771E+02  0.00000000000E+00 0.  1.
         11    1    3    3    0    0 -0.24956143743E+02  0.77740147815E+01 -0.71678779808E+01  0.27103927600E+02  0.51100000000E-03 0. -1.
        -11    1    3    3    0    0 -0.41220056010E+01 -0.17179652917E+01 -0.11005192216E+01  0.45992910036E+01  0.51100000000E-03 0.  1.
         12    1    3    3    0    0 -0.96189849140E+01  0.12677555330E+02  0.23348174302E+01  0.16084049626E+02  0.00000000000E+00 0. -1.
</event>
<event>
 7    1  0.4356471E-010  0.4778726E+02  0.7816164E-02  0.1312668E+00
        -11   -1    0    0    0    0  0.00000000000E+00  0.00000000000E+00  0.45593999997E+02  0.45594000000E+02  0.51100000000E-03 0.  1.
         11   -1    0    0    0    0 -0.00000000000E+00 -0.00000000000E+00 -0.45593999997E+02  0.45594000000E+02  0.51100000000E-03 0. -1.
    9900012    2    1    2    0    0  0.26992370764E+02 -0.46058233082E+01 -0.33672282724E+02  0.47787259089E+02  0.19999945489E+02 0.  0.
        -12    1    1    2    0    0 -0.26992370764E+02  0.46058233082E+01  0.33672282724E+02  0.43400740911E+02  0.00000000000E+00 0.  1.
         11    1    3    3    0    0 -0.11131791755E+01 -0.21864953325E+01 -0.47060817598E+00  0.24982798146E+01  0.51100000000E-03 0. -1.
        -11    1    3    3    0    0  0.14594447479E+02 -0.35260531089E+01 -0.88781908794E+01  0.17442855882E+02  0.51100000000E-03 0.  1.
         12    1    3    3    0    0  0.13511102460E+02  0.11067251332E+01 -0.24323483669E+02  0.27846123393E+02  0.00000000000E+00 0. -1.
</event>
<event>
 7    1  0.4356471E-010  0.4778728E+02  0.7816164E-02  0.1312668E+00
        -11   -1    0    0    0    0  0.00000000000E+00  0.00000000000E+00  0.45593999997E+02  0.45594000000E+02  0.51100000000E-03 0. -1.
         11   -1    0    0    0    0 -0.00000000000E+00 -0.00000000000E+00 -0.45593999997E+02  0.45594000000E+02  0.51100000000E-03 0.  1.
    9900012    2    1    2    0    0  0.27832896131E+01  0.24633378697E+02  0.35624049169E+02  0.47787275049E+02  0.20000018256E+02 0.  0.
        -12    1    1    2    0    0 -0.27832896131E+01 -0.24633378697E+02 -0.35624049169E+02  0.43400724951E+02  0.00000000000E+00 0.  1.
         11    1    3    3    0    0  0.99031092848E+01  0.17584383183E+02  0.28249203432E+02  0.34717425023E+02  0.51100000000E-03 0. -1.
        -11    1    3    3    0    0  0.19273762917E+00 -0.32783023858E+00  0.11539578572E+00  0.39741276717E+00  0.51100000000E-03 0.  1.
        -12    1    3    3    0    0 -0.73125573009E+01  0.73768257530E+01  0.72594499513E+01  0.12672437258E+02  0.00000000000E+00 0.  1.
</event>
<event>
 7    1  0.4356471E-010  0.4778727E+02  0.7816164E-02  0.1312668E+00
        -11   -1    0    0    0    0  0.00000000000E+00  0.00000000000E+00  0.45593999997E+02  0.45594000000E+02  0.51100000000E-03 0.  1.
         11   -1    0    0    0    0 -0.00000000000E+00 -0.00000000000E+00 -0.45593999997E+02  0.45594000000E+02  0.51100000000E-03 0. -1.
    9900012    2    1    2    0    0  0.42723483915E+02 -0.68560493912E+01  0.33647898685E+01  0.47787270721E+02  0.19999998526E+02 0.  0.
        -12    1    1    2    0    0 -0.42723483915E+02  0.68560493912E+01 -0.33647898685E+01  0.43400729279E+02  0.00000000000E+00 0.  1.
         11    1    3    3    0    0  0.20840324505E+02 -0.23440003251E+01 -0.40714602284E+01  0.21363292153E+02  0.51100000000E-03 0. -1.
        -11    1    3    3    0    0  0.19203453516E+02 -0.27432307246E+01  0.12312318888E+01  0.19437434861E+02  0.51100000000E-03 0.  1.
        -12    1    3    3    0    0  0.26797058946E+01 -0.17688183415E+01  0.62050182082E+01  0.69865437070E+01  0.00000000000E+00 0.  1.
</event>
<event>
 7    1  0.4356471E-010  0.4778727E+02  0.7816164E-02  0.1312668E+00
        -11   -1    0    0    0    0  0.00000000000E+00  0.00000000000E+00  0.45593999997E+02  0.45594000000E+02  0.51100000000E-03 0.  1.
         11   -1    0    0    0    0 -0.00000000000E+00 -0.00000000000E+00 -0.45593999997E+02  0.45594000000E+02  0.51100000000E-03 0. -1.
    9900012    2    1    2    0    0  0.56405981343E+01 -0.60198660237E+01 -0.42609485020E+02  0.47787270191E+02  0.19999996108E+02 0.  0.
        -12    1    1    2    0    0 -0.56405981343E+01  0.60198660237E+01  0.42609485020E+02  0.43400729809E+02  0.00000000000E+00 0.  1.
         11    1    3    3    0    0  0.54232021217E+01  0.37542997680E+01 -0.28905258234E+02  0.29648268783E+02  0.51100000000E-03 0. -1.
        -11    1    3    3    0    0 -0.24654506195E+01 -0.29027752056E+01 -0.78377995897E+01  0.87141065704E+01  0.51100000000E-03 0.  1.
        -12    1    3    3    0    0  0.26828466322E+01 -0.68713905861E+01 -0.58664271969E+01  0.94248948373E+01  0.00000000000E+00 0.  1.
</event>
<event>
 7    1  0.4356471E-010  0.4778727E+02  0.7816164E-02  0.1312668E+00
        -11   -1    0    0    0    0  0.00000000000E+00  0.00000000000E+00  0.45593999997E+02  0.45594000000E+02  0.51100000000E-03 0. -1.
         11   -1    0    0    0    0 -0.00000000000E+00 -0.00000000000E+00 -0.45593999997E+02  0.45594000000E+02  0.51100000000E-03 0.  1.
    9900012    2    1    2    0    0  0.35169392669E+01  0.19495103600E+02  0.38615996467E+02  0.47787272940E+02  0.20000008643E+02 0.  0.
        -12    1    1    2    0    0 -0.35169392669E+01 -0.19495103600E+02 -0.38615996467E+02  0.43400727060E+02  0.00000000000E+00 0.  1.
         11    1    3    3    0    0  0.91571276713E+00  0.98588591727E+01  0.14240775629E+02  0.17344605064E+02  0.51100000000E-03 0. -1.
        -11    1    3    3    0    0  0.53977449446E+00  0.47787965296E+01 -0.66280270735E+00  0.48546431863E+01  0.51100000000E-03 0.  1.
        -12    1    3    3    0    0  0.20614520053E+01  0.48574478979E+01  0.25038023546E+02  0.25588024690E+02  0.00000000000E+00 0.  1.
</event>
<event>
 7    1  0.4356471E-010  0.4778726E+02  0.7816164E-02  0.1312668E+00
        -11   -1    0    0    0    0  0.00000000000E+00  0.00000000000E+00  0.45593999997E+02  0.45594000000E+02  0.51100000000E-03 0. -1.
         11   -1    0    0    0    0 -0.00000000000E+00 -0.00000000000E+00 -0.45593999997E+02  0.45594000000E+02  0.51100000000E-03 0.  1.
    9900012    2    1    2    0    0 -0.19905145411E+02  0.13532836864E+02  0.36114699637E+02  0.47787262480E+02  0.19999960953E+02 0.  0.
        -12    1    1    2    0    0  0.19905145411E+02 -0.13532836864E+02 -0.36114699637E+02  0.43400737520E+02  0.00000000000E+00 0.  1.
         11    1    3    3    0    0 -0.19999372140E+01  0.32300531150E+01  0.50562848495E+01  0.63244769528E+01  0.51100000000E-03 0. -1.
        -11    1    3    3    0    0 -0.14273315223E+02  0.65075237628E+01  0.76138479412E+01  0.17436916979E+02  0.51100000000E-03 0.  1.
         12    1    3    3    0    0 -0.36318929733E+01  0.37952599858E+01  0.23444566846E+02  0.24025868549E+02  0.00000000000E+00 0. -1.
</event>
<event>
 7    1  0.4356471E-010  0.4778727E+02  0.7816164E-02  0.1312668E+00
        -11   -1    0    0    0    0  0.00000000000E+00  0.00000000000E+00  0.45593999997E+02  0.45594000000E+02  0.51100000000E-03 0. -1.
         11   -1    0    0    0    0 -0.00000000000E+00 -0.00000000000E+00 -0.45593999997E+02  0.45594000000E+02  0.51100000000E-03 0.  1.
    9900012    2    1    2    0    0  0.17876963512E+02 -0.37972091305E+02 -0.11052507904E+02  0.47787268745E+02  0.19999989515E+02 0.  0.
        -12    1    1    2    0    0 -0.17876963512E+02  0.37972091305E+02  0.11052507904E+02  0.43400731255E+02  0.00000000000E+00 0.  1.
         11    1    3    3    0    0  0.15802072194E+01 -0.22832130609E-02 -0.31098505932E+01  0.34882991618E+01  0.51100000000E-03 0. -1.
        -11    1    3    3    0    0  0.14816010077E+01  0.76055261481E+00  0.90929983816E+00  0.18974741850E+01  0.51100000000E-03 0.  1.
         12    1    3    3    0    0  0.14815155285E+02 -0.38730360707E+02 -0.88519571494E+01  0.42401495398E+02  0.00000000000E+00 0. -1.
</event>
<event>
 7    1  0.4356471E-010  0.4778727E+02  0.7816164E-02  0.1312668E+00
        -11   -1    0    0    0    0  0.00000000000E+00  0.00000000000E+00  0.45593999997E+02  0.45594000000E+02  0.51100000000E-03 0.  1.
         11   -1    0    0    0    0 -0.00000000000E+00 -0.00000000000E+00 -0.45593999997E+02  0.45594000000E+02  0.51100000000E-03 0. -1.
    9900012    2    1    2    0    0 -0.31094385570E+02  0.45638343973E+01 -0.29932153132E+02  0.47787272016E+02  0.20000004432E+02 0.  0.
        -12    1    1    2    0    0  0.31094385570E+02 -0.45638343973E+01  0.29932153132E+02  0.43400727984E+02  0.00000000000E+00 0.  1.
         11    1    3    3    0    0 -0.11131597298E+02  0.82478957380E+00 -0.13149695403E+02  0.17248397771E+02  0.51100000000E-03 0. -1.
        -11    1    3    3    0    0 -0.14623842768E+02  0.94812589367E+01 -0.95581528772E+01  0.19877357345E+02  0.51100000000E-03 0.  1.
         12    1    3    3    0    0 -0.53389455046E+01 -0.57422141131E+01 -0.72243048519E+01  0.10661516900E+02  0.00000000000E+00 0. -1.
</event>
<event>
 7    1  0.4356471E-010  0.4778727E+02  0.7816164E-02  0.1312668E+00
        -11   -1    0    0    0    0  0.00000000000E+00  0.00000000000E+00  0.45593999997E+02  0.45594000000E+02  0.51100000000E-03 0.  1.
         11   -1    0    0    0    0 -0.00000000000E+00 -0.00000000000E+00 -0.45593999997E+02  0.45594000000E+02  0.51100000000E-03 0. -1.
    9900012    2    1    2    0    0  0.28305304271E+02 -0.47616632464E+01 -0.32553950382E+02  0.47787269912E+02  0.19999994835E+02 0.  0.
        -12    1    1    2    0    0 -0.28305304271E+02  0.47616632464E+01  0.32553950382E+02  0.43400730088E+02  0.00000000000E+00 0.  1.
         11    1    3    3    0    0  0.87833170426E+01  0.89995519206E+00 -0.12734652419E+02  0.15496062407E+02  0.51100000000E-03 0. -1.
        -11    1    3    3    0    0  0.12299846865E+02  0.10692962790E+01 -0.28685811568E+01  0.12675108897E+02  0.51100000000E-03 0.  1.
        -12    1    3    3    0    0  0.72221403637E+01 -0.67309147174E+01 -0.16950716806E+02  0.19616098608E+02  0.00000000000E+00 0.  1.
</event>
<event>
 7    1  0.4356471E-010  0.4778727E+02  0.7816164E-02  0.1312668E+00
        -11   -1    0    0    0    0  0.00000000000E+00  0.00000000000E+00  0.45593999997E+02  0.45594000000E+02  0.51100000000E-03 0. -1.
         11   -1    0    0    0    0 -0.00000000000E+00 -0.00000000000E+00 -0.45593999997E+02  0.45594000000E+02  0.51100000000E-03 0.  1.
    9900012    2    1    2    0    0 -0.54529265298E+01 -0.37495888051E+02  0.21164775950E+02  0.47787265335E+02  0.19999973968E+02 0.  0.
        -12    1    1    2    0    0  0.54529265298E+01  0.37495888051E+02 -0.21164775950E+02  0.43400734665E+02  0.00000000000E+00 0.  1.
         11    1    3    3    0    0  0.66628874579E+00 -0.19414463090E+02  0.68434468895E+01  0.20596069609E+02  0.51100000000E-03 0. -1.
        -11    1    3    3    0    0  0.37328950356E+01 -0.20590958551E+01  0.32986350581E+01  0.53903037572E+01  0.51100000000E-03 0.  1.
         12    1    3    3    0    0 -0.98521103111E+01 -0.16022329106E+02  0.11022694003E+02  0.21800891969E+02  0.00000000000E+00 0. -1.
</event>
<event>
 7    1  0.4356471E-010  0.4778721E+02  0.7816164E-02  0.1312668E+00
        -11   -1    0    0    0    0  0.00000000000E+00  0.00000000000E+00  0.45593999997E+02  0.45594000000E+02  0.51100000000E-03 0.  1.
         11   -1    0    0    0    0 -0.00000000000E+00 -0.00000000000E+00 -0.45593999997E+02  0.45594000000E+02  0.51100000000E-03 0. -1.
    9900012    2    1    2    0    0 -0.27040524538E+01 -0.26350827868E+02 -0.34379508628E+02  0.47787209195E+02  0.19999718001E+02 0.  0.
        -12    1    1    2    0    0  0.27040524538E+01  0.26350827868E+02  0.34379508628E+02  0.43400790805E+02  0.00000000000E+00 0.  1.
         11    1    3    3    0    0  0.32397689696E+01 -0.12259287456E+02 -0.70824259470E+01  0.14524014234E+02  0.51100000000E-03 0. -1.
        -11    1    3    3    0    0 -0.24559025834E+01  0.90071966885E+00 -0.10160961020E+01  0.28062795603E+01  0.51100000000E-03 0.  1.
         12    1    3    3    0    0 -0.34879188399E+01 -0.14992260081E+02 -0.26280986579E+02  0.30456915401E+02  0.00000000000E+00 0. -1.
</event>
<event>
 7    1  0.4356471E-010  0.4778728E+02  0.7816164E-02  0.1312668E+00
        -11   -1    0    0    0    0  0.00000000000E+00  0.00000000000E+00  0.45593999997E+02  0.45594000000E+02  0.51100000000E-03 0.  1.
         11   -1    0    0    0    0 -0.00000000000E+00 -0.00000000000E+00 -0.45593999997E+02  0.45594000000E+02  0.51100000000E-03 0. -1.
    9900012    2    1    2    0    0  0.23939784510E+02 -0.14724629841E+02 -0.33071055060E+02  0.47787277781E+02  0.20000030716E+02 0.  0.
        -12    1    1    2    0    0 -0.23939784510E+02  0.14724629841E+02  0.33071055060E+02  0.43400722219E+02  0.00000000000E+00 0.  1.
         11    1    3    3    0    0  0.10763300862E+02 -0.95466302050E+00 -0.16391675111E+02  0.19632805203E+02  0.51100000000E-03 0. -1.
        -11    1    3    3    0    0  0.59604232843E+01  0.45508716257E+00 -0.80266160414E+01  0.10008012559E+02  0.51100000000E-03 0.  1.
        -12    1    3    3    0    0  0.72160603634E+01 -0.14225053983E+02 -0.86527639073E+01  0.18146460019E+02  0.00000000000E+00 0.  1.
</event>
<event>
 7    1  0.4356471E-010  0.4778727E+02  0.7816164E-02  0.1312668E+00
        -11   -1    0    0    0    0  0.00000000000E+00  0.00000000000E+00  0.45593999997E+02  0.45594000000E+02  0.51100000000E-03 0. -1.
         11   -1    0    0    0    0 -0.00000000000E+00 -0.00000000000E+00 -0.45593999997E+02  0.45594000000E+02  0.51100000000E-03 0.  1.
    9900012    2    1    2    0    0 -0.16734777545E+02  0.38745587979E+02  0.10116797979E+02  0.47787274561E+02  0.20000016032E+02 0.  0.
        -12    1    1    2    0    0  0.16734777545E+02 -0.38745587979E+02 -0.10116797979E+02  0.43400725439E+02  0.00000000000E+00 0.  1.
         11    1    3    3    0    0 -0.78592048590E+01  0.35304028963E+02  0.98096390504E+01  0.37474932696E+02  0.51100000000E-03 0. -1.
        -11    1    3    3    0    0 -0.30652655696E+01  0.25294183500E+01  0.16107127429E+01  0.42881471527E+01  0.51100000000E-03 0.  1.
         12    1    3    3    0    0 -0.58103071161E+01  0.91214066642E+00 -0.13035538147E+01  0.60241947118E+01  0.00000000000E+00 0. -1.
</event>
<event>
 7    1  0.4356471E-010  0.4778727E+02  0.7816164E-02  0.1312668E+00
        -11   -1    0    0    0    0  0.00000000000E+00  0.00000000000E+00  0.45593999997E+02  0.45594000000E+02  0.51100000000E-03 0. -1.
         11   -1    0    0    0    0 -0.00000000000E+00 -0.00000000000E+00 -0.45593999997E+02  0.45594000000E+02  0.51100000000E-03 0.  1.
    9900012    2    1    2    0    0  0.11367847158E+02  0.20642574114E+02  0.36445568576E+02  0.47787270929E+02  0.19999999472E+02 0.  0.
        -12    1    1    2    0    0 -0.11367847158E+02 -0.20642574114E+02 -0.36445568576E+02  0.43400729071E+02  0.00000000000E+00 0.  1.
         11    1    3    3    0    0  0.14260823188E+01  0.42959691341E+01  0.81718880328E+01  0.93417779819E+01  0.51100000000E-03 0. -1.
        -11    1    3    3    0    0 -0.20025707814E+01  0.17123887488E+01 -0.16131330151E+01  0.30894600413E+01  0.51100000000E-03 0.  1.
        -12    1    3    3    0    0  0.11944335621E+02  0.14634216231E+02  0.29886813559E+02  0.35356032905E+02  0.00000000000E+00 0.  1.
</event>
<event>
 7    1  0.4356471E-010  0.4778729E+02  0.7816164E-02  0.1312668E+00
        -11   -1    0    0    0    0  0.00000000000E+00  0.00000000000E+00  0.45593999997E+02  0.45594000000E+02  0.51100000000E-03 0.  1.
         11   -1    0    0    0    0 -0.00000000000E+00 -0.00000000000E+00 -0.45593999997E+02  0.45594000000E+02  0.51100000000E-03 0. -1.
    9900012    2    1    2    0    0 -0.14889711052E+02  0.40491253830E+02 -0.47303351281E+01  0.47787294910E+02  0.20000108811E+02 0.  0.
        -12    1    1    2    0    0  0.14889711052E+02 -0.40491253830E+02  0.47303351281E+01  0.43400705090E+02  0.00000000000E+00 0.  1.
         11    1    3    3    0    0 -0.58041157909E+01  0.27066125478E+02 -0.41294215371E-01  0.27681485039E+02  0.51100000000E-03 0. -1.
        -11    1    3    3    0    0  0.54494216159E+00  0.65648674770E+01 -0.50118418566E+01  0.82772583630E+01  0.51100000000E-03 0.  1.
         12    1    3    3    0    0 -0.96305374223E+01  0.68602608748E+01  0.32280094386E+00  0.11828551507E+02  0.00000000000E+00 0. -1.
</event>
<event>
 7    1  0.4356471E-010  0.4778727E+02  0.7816164E-02  0.1312668E+00
        -11   -1    0    0    0    0  0.00000000000E+00  0.00000000000E+00  0.45593999997E+02  0.45594000000E+02  0.51100000000E-03 0.  1.
         11   -1    0    0    0    0 -0.00000000000E+00 -0.00000000000E+00 -0.45593999997E+02  0.45594000000E+02  0.51100000000E-03 0. -1.
    9900012    2    1    2    0    0  0.33106275154E+02 -0.31593106501E+01 -0.27885777676E+02  0.47787270802E+02  0.19999998893E+02 0.  0.
        -12    1    1    2    0    0 -0.33106275154E+02  0.31593106501E+01  0.27885777676E+02  0.43400729198E+02  0.00000000000E+00 0.  1.
         11    1    3    3    0    0  0.13729065683E+02  0.16511887503E+01 -0.17243642937E+02  0.22103323072E+02  0.51100000000E-03 0.  1.
        -11    1    3    3    0    0  0.19866310358E+02 -0.16103428509E+01 -0.10280210216E+02  0.22426462353E+02  0.51100000000E-03 0. -1.
         12    1    3    3    0    0 -0.48910088680E+00 -0.32001565495E+01 -0.36192452281E+00  0.32574853766E+01  0.00000000000E+00 0. -1.
</event>
<event>
 7    1  0.4356471E-010  0.4778727E+02  0.7816164E-02  0.1312668E+00
        -11   -1    0    0    0    0  0.00000000000E+00  0.00000000000E+00  0.45593999997E+02  0.45594000000E+02  0.51100000000E-03 0.  1.
         11   -1    0    0    0    0 -0.00000000000E+00 -0.00000000000E+00 -0.45593999997E+02  0.45594000000E+02  0.51100000000E-03 0. -1.
    9900012    2    1    2    0    0 -0.42197733692E+02 -0.81593651053E+01  0.60331845482E+01  0.47787270934E+02  0.19999999498E+02 0.  0.
        -12    1    1    2    0    0  0.42197733692E+02  0.81593651053E+01 -0.60331845482E+01  0.43400729066E+02  0.00000000000E+00 0.  1.
         11    1    3    3    0    0 -0.14709774166E+02  0.21298745719E+01  0.27788864878E+01  0.15120715330E+02  0.51100000000E-03 0. -1.
        -11    1    3    3    0    0 -0.18416774294E+02 -0.76075503276E-01 -0.74863122879E+00  0.18432140729E+02  0.51100000000E-03 0.  1.
         12    1    3    3    0    0 -0.90711852315E+01 -0.10213164174E+02  0.40029292892E+01  0.14234414875E+02  0.00000000000E+00 0. -1.
</event>
<event>
 7    1  0.4356471E-010  0.4778728E+02  0.7816164E-02  0.1312668E+00
        -11   -1    0    0    0    0  0.00000000000E+00  0.00000000000E+00  0.45593999997E+02  0.45594000000E+02  0.51100000000E-03 0.  1.
         11   -1    0    0    0    0 -0.00000000000E+00 -0.00000000000E+00 -0.45593999997E+02  0.45594000000E+02  0.51100000000E-03 0. -1.
    9900012    2    1    2    0    0  0.39569743449E+02 -0.73345602833E+01 -0.16249985815E+02  0.47787280995E+02  0.20000045367E+02 0.  0.
        -12    1    1    2    0    0 -0.39569743449E+02  0.73345602833E+01  0.16249985815E+02  0.43400719005E+02  0.00000000000E+00 0.  1.
         11    1    3    3    0    0  0.30458363967E+02 -0.13736769555E+01 -0.16348506447E+02  0.34595846387E+02  0.51100000000E-03 0. -1.
        -11    1    3    3    0    0  0.86614377106E+01 -0.20506020075E+01 -0.13390840638E+01  0.90010342849E+01  0.51100000000E-03 0.  1.
        -12    1    3    3    0    0  0.44994177126E+00 -0.39102813203E+01  0.14376046957E+01  0.41904003224E+01  0.00000000000E+00 0.  1.
</event>
<event>
 7    1  0.4356471E-010  0.4778727E+02  0.7816164E-02  0.1312668E+00
        -11   -1    0    0    0    0  0.00000000000E+00  0.00000000000E+00  0.45593999997E+02  0.45594000000E+02  0.51100000000E-03 0.  1.
         11   -1    0    0    0    0 -0.00000000000E+00 -0.00000000000E+00 -0.45593999997E+02  0.45594000000E+02  0.51100000000E-03 0. -1.
    9900012    2    1    2    0    0 -0.37370952376E+00 -0.41820418646E+01 -0.43197153127E+02  0.47787272227E+02  0.20000005392E+02 0.  0.
        -12    1    1    2    0    0  0.37370952376E+00  0.41820418646E+01  0.43197153127E+02  0.43400727773E+02  0.00000000000E+00 0.  1.
         11    1    3    3    0    0  0.35149386758E+01  0.31646502934E+01 -0.30552745677E+02  0.30916663371E+02  0.51100000000E-03 0.  1.
        -11    1    3    3    0    0  0.90234679788E+00 -0.60641206468E+01 -0.79699842306E+01  0.10055269159E+02  0.51100000000E-03 0. -1.
        -12    1    3    3    0    0 -0.47909949975E+01 -0.12825715112E+01 -0.46744232194E+01  0.68153396967E+01  0.00000000000E+00 0.  1.
</event>
<event>
 7    1  0.4356471E-010  0.4778727E+02  0.7816164E-02  0.1312668E+00
        -11   -1    0    0    0    0  0.00000000000E+00  0.00000000000E+00  0.45593999997E+02  0.45594000000E+02  0.51100000000E-03 0.  1.
         11   -1    0    0    0    0 -0.00000000000E+00 -0.00000000000E+00 -0.45593999997E+02  0.45594000000E+02  0.51100000000E-03 0. -1.
    9900012    2    1    2    0    0 -0.37722011701E+02  0.80252698419E+01 -0.19906490145E+02  0.47787268754E+02  0.19999989555E+02 0.  0.
        -12    1    1    2    0    0  0.37722011701E+02 -0.80252698419E+01  0.19906490145E+02  0.43400731246E+02  0.00000000000E+00 0.  1.
         11    1    3    3    0    0 -0.80204655126E+01 -0.36000945209E+01 -0.42849039229E+01  0.97800280924E+01  0.51100000000E-03 0. -1.
        -11    1    3    3    0    0 -0.18017425815E+02  0.53359096471E+01 -0.16077200117E+02  0.24730061234E+02  0.51100000000E-03 0.  1.
        -12    1    3    3    0    0 -0.11684120373E+02  0.62894547158E+01  0.45561389477E+00  0.13277179427E+02  0.00000000000E+00 0.  1.
</event>
<event>
 7    1  0.4356471E-010  0.4778728E+02  0.7816164E-02  0.1312668E+00
        -11   -1    0    0    0    0  0.00000000000E+00  0.00000000000E+00  0.45593999997E+02  0.45594000000E+02  0.51100000000E-03 0.  1.
         11   -1    0    0    0    0 -0.00000000000E+00 -0.00000000000E+00 -0.45593999997E+02  0.45594000000E+02  0.51100000000E-03 0. -1.
    9900012    2    1    2    0    0 -0.21102124952E+02  0.29687970929E+02 -0.23599736899E+02  0.47787275616E+02  0.20000020843E+02 0.  0.
        -12    1    1    2    0    0  0.21102124952E+02 -0.29687970929E+02  0.23599736899E+02  0.43400724384E+02  0.00000000000E+00 0.  1.
         11    1    3    3    0    0 -0.31125524452E+01  0.89035673593E+01 -0.28600941789E+01  0.98560455264E+01  0.51100000000E-03 0. -1.
        -11    1    3    3    0    0 -0.10240715822E+02  0.17740411422E+02 -0.65969969748E+01  0.21520102865E+02  0.51100000000E-03 0.  1.
         12    1    3    3    0    0 -0.77488566841E+01  0.30439921483E+01 -0.14142645745E+02  0.16411127225E+02  0.00000000000E+00 0. -1.
</event>
<event>
 7    1  0.4356471E-010  0.4778728E+02  0.7816164E-02  0.1312668E+00
        -11   -1    0    0    0    0  0.00000000000E+00  0.00000000000E+00  0.45593999997E+02  0.45594000000E+02  0.51100000000E-03 0.  1.
         11   -1    0    0    0    0 -0.00000000000E+00 -0.00000000000E+00 -0.45593999997E+02  0.45594000000E+02  0.51100000000E-03 0. -1.
    9900012    2    1    2    0    0  0.91497953040E+01  0.20752913162E+02 -0.37002981818E+02  0.47787276247E+02  0.20000023722E+02 0.  0.
        -12    1    1    2    0    0 -0.91497953040E+01 -0.20752913162E+02  0.37002981818E+02  0.43400723753E+02  0.00000000000E+00 0.  1.
         11    1    3    3    0    0  0.24314879766E+01  0.16823164814E+02 -0.27425612194E+02  0.32266007076E+02  0.51100000000E-03 0. -1.
        -11    1    3    3    0    0  0.30298806138E+01  0.24717634553E+01 -0.10705956525E+02  0.11397688208E+02  0.51100000000E-03 0.  1.
        -12    1    3    3    0    0  0.36884267136E+01  0.14579848929E+01  0.11285869008E+01  0.41235809634E+01  0.00000000000E+00 0.  1.
</event>
<event>
 7    1  0.4356471E-010  0.4778727E+02  0.7816164E-02  0.1312668E+00
        -11   -1    0    0    0    0  0.00000000000E+00  0.00000000000E+00  0.45593999997E+02  0.45594000000E+02  0.51100000000E-03 0. -1.
         11   -1    0    0    0    0 -0.00000000000E+00 -0.00000000000E+00 -0.45593999997E+02  0.45594000000E+02  0.51100000000E-03 0.  1.
    9900012    2    1    2    0    0  0.86555243539E+01  0.19945412616E+02  0.37561757426E+02  0.47787271812E+02  0.20000003501E+02 0.  0.
        -12    1    1    2    0    0 -0.86555243539E+01 -0.19945412616E+02 -0.37561757426E+02  0.43400728188E+02  0.00000000000E+00 0.  1.
         11    1    3    3    0    0 -0.37636906872E+01  0.65642184236E+01  0.50615877808E+01  0.91035159266E+01  0.51100000000E-03 0. -1.
        -11    1    3    3    0    0  0.51336150567E+01  0.10724147982E+02  0.12590607015E+02  0.17317180450E+02  0.51100000000E-03 0.  1.
         12    1    3    3    0    0  0.72855999845E+01  0.26570462109E+01  0.19909562630E+02  0.21366575435E+02  0.00000000000E+00 0. -1.
</event>
<event>
 7    1  0.4356471E-010  0.4778727E+02  0.7816164E-02  0.1312668E+00
        -11   -1    0    0    0    0  0.00000000000E+00  0.00000000000E+00  0.45593999997E+02  0.45594000000E+02  0.51100000000E-03 0.  1.
         11   -1    0    0    0    0 -0.00000000000E+00 -0.00000000000E+00 -0.45593999997E+02  0.45594000000E+02  0.51100000000E-03 0. -1.
    9900012    2    1    2    0    0 -0.28754907159E+02  0.12506214763E+02 -0.30006224232E+02  0.47787267447E+02  0.19999983600E+02 0.  0.
        -12    1    1    2    0    0  0.28754907159E+02 -0.12506214763E+02  0.30006224232E+02  0.43400732553E+02  0.00000000000E+00 0.  1.
         11    1    3    3    0    0 -0.14841546599E+01  0.60077034739E+01 -0.77922581997E+01  0.99506032077E+01  0.51100000000E-03 0. -1.
        -11    1    3    3    0    0 -0.39968804773E+01 -0.34788442289E+01 -0.35179845651E+01  0.63603165314E+01  0.51100000000E-03 0.  1.
         12    1    3    3    0    0 -0.23273872022E+02  0.99773555177E+01 -0.18695981468E+02  0.31476347708E+02  0.00000000000E+00 0. -1.
</event>
<event>
 7    1  0.4356471E-010  0.4778728E+02  0.7816164E-02  0.1312668E+00
        -11   -1    0    0    0    0  0.00000000000E+00  0.00000000000E+00  0.45593999997E+02  0.45594000000E+02  0.51100000000E-03 0.  1.
         11   -1    0    0    0    0 -0.00000000000E+00 -0.00000000000E+00 -0.45593999997E+02  0.45594000000E+02  0.51100000000E-03 0. -1.
    9900012    2    1    2    0    0 -0.42716135306E+02 -0.84861683536E-01 -0.76776874208E+01  0.47787282251E+02  0.20000051095E+02 0.  0.
        -12    1    1    2    0    0  0.42716135306E+02  0.84861683536E-01  0.76776874208E+01  0.43400717749E+02  0.00000000000E+00 0.  1.
         11    1    3    3    0    0 -0.71583126094E+01 -0.71923657354E+00 -0.25754086280E+01  0.76414311830E+01  0.51100000000E-03 0. -1.
        -11    1    3    3    0    0 -0.45856405633E+01  0.66043998804E+01  0.71343883525E+00  0.80718766336E+01  0.51100000000E-03 0.  1.
        -12    1    3    3    0    0 -0.30972182133E+02 -0.59700249904E+01 -0.58157176280E+01  0.32073974434E+02  0.00000000000E+00 0.  1.
</event>
<event>
 7    1  0.4356471E-010  0.4778727E+02  0.7816164E-02  0.1312668E+00
        -11   -1    0    0    0    0  0.00000000000E+00  0.00000000000E+00  0.45593999997E+02  0.45594000000E+02  0.51100000000E-03 0.  1.
         11   -1    0    0    0    0 -0.00000000000E+00 -0.00000000000E+00 -0.45593999997E+02  0.45594000000E+02  0.51100000000E-03 0. -1.
    9900012    2    1    2    0    0 -0.41709502722E+02  0.36561034223E+01 -0.11426897291E+02  0.47787266236E+02  0.19999978075E+02 0.  0.
        -12    1    1    2    0    0  0.41709502722E+02 -0.36561034223E+01  0.11426897291E+02  0.43400733764E+02  0.00000000000E+00 0.  1.
         11    1    3    3    0    0 -0.82346125354E+01 -0.46994333349E+01  0.22224918374E+01  0.97382230158E+01  0.51100000000E-03 0. -1.
        -11    1    3    3    0    0 -0.23788742122E+01  0.21124927651E+01 -0.35418130927E+01  0.47608936603E+01  0.51100000000E-03 0.  1.
        -12    1    3    3    0    0 -0.31096015975E+02  0.62430439921E+01 -0.10107576036E+02  0.33288149560E+02  0.00000000000E+00 0.  1.
</event>
<event>
 7    1  0.4356471E-010  0.4778727E+02  0.7816164E-02  0.1312668E+00
        -11   -1    0    0    0    0  0.00000000000E+00  0.00000000000E+00  0.45593999997E+02  0.45594000000E+02  0.51100000000E-03 0.  1.
         11   -1    0    0    0    0 -0.00000000000E+00 -0.00000000000E+00 -0.45593999997E+02  0.45594000000E+02  0.51100000000E-03 0. -1.
    9900012    2    1    2    0    0  0.94199352390E+01 -0.41231183645E+02 -0.97405131059E+01  0.47787270971E+02  0.19999999664E+02 0.  0.
        -12    1    1    2    0    0 -0.94199352390E+01  0.41231183645E+02  0.97405131059E+01  0.43400729029E+02  0.00000000000E+00 0.  1.
         11    1    3    3    0    0  0.13187840576E+02 -0.31434334255E+02 -0.92600215834E+01  0.35323993391E+02  0.51100000000E-03 0. -1.
        -11    1    3    3    0    0  0.14165946495E+01 -0.47817681082E+01  0.10329252106E+01  0.50930326323E+01  0.51100000000E-03 0.  1.
        -12    1    3    3    0    0 -0.51844999862E+01 -0.50150812818E+01 -0.15134167331E+01  0.73702449470E+01  0.00000000000E+00 0.  1.
</event>
<event>
 7    1  0.4356471E-010  0.4778727E+02  0.7816164E-02  0.1312668E+00
        -11   -1    0    0    0    0  0.00000000000E+00  0.00000000000E+00  0.45593999997E+02  0.45594000000E+02  0.51100000000E-03 0.  1.
         11   -1    0    0    0    0 -0.00000000000E+00 -0.00000000000E+00 -0.45593999997E+02  0.45594000000E+02  0.51100000000E-03 0. -1.
    9900012    2    1    2    0    0 -0.30429128304E+02 -0.24887242310E+02 -0.18393376134E+02  0.47787274606E+02  0.20000016238E+02 0.  0.
        -12    1    1    2    0    0  0.30429128304E+02  0.24887242310E+02  0.18393376134E+02  0.43400725394E+02  0.00000000000E+00 0.  1.
         11    1    3    3    0    0 -0.74219703447E+01 -0.13837031135E+02 -0.89339730791E+01  0.18065573605E+02  0.51100000000E-03 0. -1.
        -11    1    3    3    0    0 -0.12892061236E+02 -0.79019363150E+01 -0.11418915825E+02  0.18948284337E+02  0.51100000000E-03 0.  1.
        -12    1    3    3    0    0 -0.10115096723E+02 -0.31482748594E+01  0.19595127705E+01  0.10773416663E+02  0.00000000000E+00 0.  1.
</event>
<event>
 7    1  0.4356471E-010  0.4778727E+02  0.7816164E-02  0.1312668E+00
        -11   -1    0    0    0    0  0.00000000000E+00  0.00000000000E+00  0.45593999997E+02  0.45594000000E+02  0.51100000000E-03 0.  1.
         11   -1    0    0    0    0 -0.00000000000E+00 -0.00000000000E+00 -0.45593999997E+02  0.45594000000E+02  0.51100000000E-03 0. -1.
    9900012    2    1    2    0    0 -0.46960450104E+01 -0.20906256651E+02 -0.37742533611E+02  0.47787271328E+02  0.20000001292E+02 0.  0.
        -12    1    1    2    0    0  0.46960450104E+01  0.20906256651E+02  0.37742533611E+02  0.43400728672E+02  0.00000000000E+00 0.  1.
         11    1    3    3    0    0  0.58163890461E+00 -0.48267541573E+01 -0.17676438510E+01  0.51730478980E+01  0.51100000000E-03 0.  1.
        -11    1    3    3    0    0 -0.81749146451E+01 -0.17527810901E+02 -0.28233937255E+02  0.34222925030E+02  0.51100000000E-03 0. -1.
         12    1    3    3    0    0  0.28972307301E+01  0.14483084074E+01 -0.77409525053E+01  0.83912983999E+01  0.00000000000E+00 0. -1.
</event>
<event>
 7    1  0.4356471E-010  0.4778727E+02  0.7816164E-02  0.1312668E+00
        -11   -1    0    0    0    0  0.00000000000E+00  0.00000000000E+00  0.45593999997E+02  0.45594000000E+02  0.51100000000E-03 0.  1.
         11   -1    0    0    0    0 -0.00000000000E+00 -0.00000000000E+00 -0.45593999997E+02  0.45594000000E+02  0.51100000000E-03 0. -1.
    9900012    2    1    2    0    0 -0.20335724249E+02 -0.22059625270E+02 -0.31360073752E+02  0.47787274505E+02  0.20000015776E+02 0.  0.
        -12    1    1    2    0    0  0.20335724249E+02  0.22059625270E+02  0.31360073752E+02  0.43400725495E+02  0.00000000000E+00 0.  1.
         11    1    3    3    0    0  0.10581911080E+01  0.15967733640E+01 -0.10439106529E+01  0.21815598340E+01  0.51100000000E-03 0. -1.
        -11    1    3    3    0    0  0.50404911950E+00 -0.57232613672E+01 -0.57312431027E+01  0.81152285214E+01  0.51100000000E-03 0.  1.
         12    1    3    3    0    0 -0.21897964477E+02 -0.17933137267E+02 -0.24584919996E+02  0.37490486149E+02  0.00000000000E+00 0. -1.
</event>
<event>
 7    1  0.4356471E-010  0.4778727E+02  0.7816164E-02  0.1312668E+00
        -11   -1    0    0    0    0  0.00000000000E+00  0.00000000000E+00  0.45593999997E+02  0.45594000000E+02  0.51100000000E-03 0.  1.
         11   -1    0    0    0    0 -0.00000000000E+00 -0.00000000000E+00 -0.45593999997E+02  0.45594000000E+02  0.51100000000E-03 0. -1.
    9900012    2    1    2    0    0  0.37232750783E+02 -0.13674204223E+02 -0.17617085194E+02  0.47787270942E+02  0.19999999534E+02 0.  0.
        -12    1    1    2    0    0 -0.37232750783E+02  0.13674204223E+02  0.17617085194E+02  0.43400729058E+02  0.00000000000E+00 0.  1.
         11    1    3    3    0    0  0.29433926523E+02 -0.15414888571E+02 -0.97766992275E+01  0.34634645490E+02  0.51100000000E-03 0. -1.
        -11    1    3    3    0    0  0.58932674181E+01 -0.17640963104E+01 -0.28950804933E+01  0.67988328393E+01  0.51100000000E-03 0.  1.
        -12    1    3    3    0    0  0.19055568421E+01  0.35047806575E+01 -0.49453054737E+01  0.63537926126E+01  0.00000000000E+00 0.  1.
</event>
<event>
 7    1  0.4356471E-010  0.4778726E+02  0.7816164E-02  0.1312668E+00
        -11   -1    0    0    0    0  0.00000000000E+00  0.00000000000E+00  0.45593999997E+02  0.45594000000E+02  0.51100000000E-03 0. -1.
         11   -1    0    0    0    0 -0.00000000000E+00 -0.00000000000E+00 -0.45593999997E+02  0.45594000000E+02  0.51100000000E-03 0.  1.
    9900012    2    1    2    0    0 -0.17020867653E+02 -0.37076974128E+02  0.14805806016E+02  0.47787264546E+02  0.19999970371E+02 0.  0.
        -12    1    1    2    0    0  0.17020867653E+02  0.37076974128E+02 -0.14805806016E+02  0.43400735454E+02  0.00000000000E+00 0.  1.
         11    1    3    3    0    0 -0.36203759907E+01 -0.22696039102E+02  0.14876889256E+02  0.27377712604E+02  0.51100000000E-03 0. -1.
        -11    1    3    3    0    0 -0.28562183544E+01 -0.58546560751E+01  0.17046910404E+01  0.67335691019E+01  0.51100000000E-03 0.  1.
        -12    1    3    3    0    0 -0.10544273308E+02 -0.85262789506E+01 -0.17757742803E+01  0.13675982840E+02  0.00000000000E+00 0.  1.
</event>
<event>
 7    1  0.4356471E-010  0.4778726E+02  0.7816164E-02  0.1312668E+00
        -11   -1    0    0    0    0  0.00000000000E+00  0.00000000000E+00  0.45593999997E+02  0.45594000000E+02  0.51100000000E-03 0.  1.
         11   -1    0    0    0    0 -0.00000000000E+00 -0.00000000000E+00 -0.45593999997E+02  0.45594000000E+02  0.51100000000E-03 0. -1.
    9900012    2    1    2    0    0 -0.43487845364E+01 -0.34568884766E+02 -0.25878643798E+02  0.47787263535E+02  0.19999965761E+02 0.  0.
        -12    1    1    2    0    0  0.43487845364E+01  0.34568884766E+02  0.25878643798E+02  0.43400736465E+02  0.00000000000E+00 0.  1.
         11    1    3    3    0    0  0.40172799181E+00 -0.18805998195E+01 -0.37885006779E+01  0.42486208007E+01  0.51100000000E-03 0. -1.
        -11    1    3    3    0    0 -0.35140336379E+00  0.19463220341E+01  0.38795359162E+00  0.20154805965E+01  0.51100000000E-03 0.  1.
         12    1    3    3    0    0 -0.43991091644E+01 -0.34634606980E+02 -0.22478096712E+02  0.41523162138E+02  0.00000000000E+00 0. -1.
</event>
<event>
 7    1  0.4356471E-010  0.4778727E+02  0.7816164E-02  0.1312668E+00
        -11   -1    0    0    0    0  0.00000000000E+00  0.00000000000E+00  0.45593999997E+02  0.45594000000E+02  0.51100000000E-03 0.  1.
         11   -1    0    0    0    0 -0.00000000000E+00 -0.00000000000E+00 -0.45593999997E+02  0.45594000000E+02  0.51100000000E-03 0. -1.
    9900012    2    1    2    0    0  0.21891449962E+02 -0.36822132537E+02 -0.69654936086E+01  0.47787272733E+02  0.20000007701E+02 0.  0.
        -12    1    1    2    0    0 -0.21891449962E+02  0.36822132537E+02  0.69654936086E+01  0.43400727267E+02  0.00000000000E+00 0.  1.
         11    1    3    3    0    0  0.55034311637E+01 -0.17849872592E+02 -0.79619463372E+01  0.20305129792E+02  0.51100000000E-03 0.  1.
        -11    1    3    3    0    0  0.25527010896E+01 -0.10460054252E+02 -0.20346126057E+01  0.10957584886E+02  0.51100000000E-03 0. -1.
        -12    1    3    3    0    0  0.13835317709E+02 -0.85122056926E+01  0.30310653343E+01  0.16524558055E+02  0.00000000000E+00 0.  1.
</event>
<event>
 7    1  0.4356471E-010  0.4778727E+02  0.7816164E-02  0.1312668E+00
        -11   -1    0    0    0    0  0.00000000000E+00  0.00000000000E+00  0.45593999997E+02  0.45594000000E+02  0.51100000000E-03 0.  1.
         11   -1    0    0    0    0 -0.00000000000E+00 -0.00000000000E+00 -0.45593999997E+02  0.45594000000E+02  0.51100000000E-03 0. -1.
    9900012    2    1    2    0    0 -0.15859788581E+02 -0.37489039359E+02 -0.15055301487E+02  0.47787273408E+02  0.20000010774E+02 0.  0.
        -12    1    1    2    0    0  0.15859788581E+02  0.37489039359E+02  0.15055301487E+02  0.43400726592E+02  0.00000000000E+00 0.  1.
         11    1    3    3    0    0 -0.10032996044E+01 -0.51947421941E+01 -0.73432215891E+01  0.90506828543E+01  0.51100000000E-03 0. -1.
        -11    1    3    3    0    0  0.22067484491E+01 -0.33334521316E+01 -0.25161259846E+01  0.47236143008E+01  0.51100000000E-03 0.  1.
         12    1    3    3    0    0 -0.17063237426E+02 -0.28960845033E+02 -0.51959539131E+01  0.34012976252E+02  0.00000000000E+00 0. -1.
</event>
<event>
 7    1  0.4356471E-010  0.4778727E+02  0.7816164E-02  0.1312668E+00
        -11   -1    0    0    0    0  0.00000000000E+00  0.00000000000E+00  0.45593999997E+02  0.45594000000E+02  0.51100000000E-03 0.  1.
         11   -1    0    0    0    0 -0.00000000000E+00 -0.00000000000E+00 -0.45593999997E+02  0.45594000000E+02  0.51100000000E-03 0. -1.
    9900012    2    1    2    0    0  0.35067461108E+02  0.16721843017E+02 -0.19346223893E+02  0.47787271419E+02  0.20000001706E+02 0.  0.
        -12    1    1    2    0    0 -0.35067461108E+02 -0.16721843017E+02  0.19346223893E+02  0.43400728581E+02  0.00000000000E+00 0.  1.
         11    1    3    3    0    0  0.12691872058E+02  0.34886614196E+01 -0.65746537696E+01  0.14713274527E+02  0.51100000000E-03 0. -1.
        -11    1    3    3    0    0  0.78882713233E+01  0.82767671026E+01 -0.13566055954E+02  0.17741690239E+02  0.51100000000E-03 0.  1.
        -12    1    3    3    0    0  0.14487317727E+02  0.49564144952E+01  0.79448583060E+00  0.15332306653E+02  0.00000000000E+00 0.  1.
</event>
<event>
 7    1  0.4356471E-010  0.4778727E+02  0.7816164E-02  0.1312668E+00
        -11   -1    0    0    0    0  0.00000000000E+00  0.00000000000E+00  0.45593999997E+02  0.45594000000E+02  0.51100000000E-03 0.  1.
         11   -1    0    0    0    0 -0.00000000000E+00 -0.00000000000E+00 -0.45593999997E+02  0.45594000000E+02  0.51100000000E-03 0. -1.
    9900012    2    1    2    0    0 -0.24686414487E+02  0.10954226510E+02 -0.33973655901E+02  0.47787269200E+02  0.19999991591E+02 0.  0.
        -12    1    1    2    0    0  0.24686414487E+02 -0.10954226510E+02  0.33973655901E+02  0.43400730800E+02  0.00000000000E+00 0.  1.
         11    1    3    3    0    0 -0.25189958232E+01  0.52025366104E+01  0.41209905214E+00  0.57949592777E+01  0.51100000000E-03 0.  1.
        -11    1    3    3    0    0 -0.81798248356E+01  0.57621389025E+00 -0.68832163677E+01  0.10706083533E+02  0.51100000000E-03 0. -1.
        -12    1    3    3    0    0 -0.13987593828E+02  0.51754760095E+01 -0.27502538586E+02  0.31286226389E+02  0.00000000000E+00 0.  1.
</event>
<event>
 7    1  0.4356471E-010  0.4778727E+02  0.7816164E-02  0.1312668E+00
        -11   -1    0    0    0    0  0.00000000000E+00  0.00000000000E+00  0.45593999997E+02  0.45594000000E+02  0.51100000000E-03 0. -1.
         11   -1    0    0    0    0 -0.00000000000E+00 -0.00000000000E+00 -0.45593999997E+02  0.45594000000E+02  0.51100000000E-03 0.  1.
    9900012    2    1    2    0    0 -0.40063146161E+02 -0.10254337292E+02 -0.13168762953E+02  0.47787269230E+02  0.19999991729E+02 0.  0.
        -12    1    1    2    0    0  0.40063146161E+02  0.10254337292E+02  0.13168762953E+02  0.43400730770E+02  0.00000000000E+00 0.  1.
         11    1    3    3    0    0 -0.11488371292E+01  0.22441693543E+01 -0.23163088810E+01  0.34236544705E+01  0.51100000000E-03 0. -1.
        -11    1    3    3    0    0 -0.30114943160E+01 -0.39331593719E+01  0.19099008322E+01  0.53091018176E+01  0.51100000000E-03 0.  1.
         12    1    3    3    0    0 -0.35902814716E+02 -0.85653472740E+01 -0.12762354904E+02  0.39054512942E+02  0.00000000000E+00 0. -1.
</event>
<event>
 7    1  0.4356471E-010  0.4778727E+02  0.7816164E-02  0.1312668E+00
        -11   -1    0    0    0    0  0.00000000000E+00  0.00000000000E+00  0.45593999997E+02  0.45594000000E+02  0.51100000000E-03 0. -1.
         11   -1    0    0    0    0 -0.00000000000E+00 -0.00000000000E+00 -0.45593999997E+02  0.45594000000E+02  0.51100000000E-03 0.  1.
    9900012    2    1    2    0    0 -0.51792795639E+01 -0.94371226192E+01  0.42044493808E+02  0.47787266369E+02  0.19999978683E+02 0.  0.
        -12    1    1    2    0    0  0.51792795639E+01  0.94371226192E+01 -0.42044493808E+02  0.43400733631E+02  0.00000000000E+00 0.  1.
         11    1    3    3    0    0 -0.41671679396E+01 -0.30854026195E+01  0.12577912381E+02  0.13604737340E+02  0.51100000000E-03 0. -1.
        -11    1    3    3    0    0  0.43404702857E+01 -0.95126907725E+00  0.24941631100E+02  0.25334355278E+02  0.51100000000E-03 0.  1.
        -12    1    3    3    0    0 -0.53525819100E+01 -0.54004509225E+01  0.45249503268E+01  0.88481737511E+01  0.00000000000E+00 0.  1.
</event>
<event>
 7    1  0.4356471E-010  0.4778727E+02  0.7816164E-02  0.1312668E+00
        -11   -1    0    0    0    0  0.00000000000E+00  0.00000000000E+00  0.45593999997E+02  0.45594000000E+02  0.51100000000E-03 0.  1.
         11   -1    0    0    0    0 -0.00000000000E+00 -0.00000000000E+00 -0.45593999997E+02  0.45594000000E+02  0.51100000000E-03 0. -1.
    9900012    2    1    2    0    0 -0.37724136613E+01 -0.43005596194E+02  0.44621462499E+01  0.47787272380E+02  0.20000006087E+02 0.  0.
        -12    1    1    2    0    0  0.37724136613E+01  0.43005596194E+02 -0.44621462499E+01  0.43400727620E+02  0.00000000000E+00 0.  1.
         11    1    3    3    0    0  0.14900635394E+01 -0.12366190176E+02  0.12575758828E+01  0.12518963463E+02  0.51100000000E-03 0. -1.
        -11    1    3    3    0    0  0.18209796105E+01 -0.47579754543E+00 -0.31214267294E+01  0.36449492637E+01  0.51100000000E-03 0.  1.
        -12    1    3    3    0    0 -0.70834568112E+01 -0.30163608473E+02  0.63259970966E+01  0.31623359653E+02  0.00000000000E+00 0.  1.
</event>
<event>
 7    1  0.4356471E-010  0.4778727E+02  0.7816164E-02  0.1312668E+00
        -11   -1    0    0    0    0  0.00000000000E+00  0.00000000000E+00  0.45593999997E+02  0.45594000000E+02  0.51100000000E-03 0.  1.
         11   -1    0    0    0    0 -0.00000000000E+00 -0.00000000000E+00 -0.45593999997E+02  0.45594000000E+02  0.51100000000E-03 0. -1.
    9900012    2    1    2    0    0 -0.13532668328E+02 -0.36758076665E+02 -0.18690478016E+02  0.47787270966E+02  0.19999999642E+02 0.  0.
        -12    1    1    2    0    0  0.13532668328E+02  0.36758076665E+02  0.18690478016E+02  0.43400729034E+02  0.00000000000E+00 0.  1.
         11    1    3    3    0    0 -0.42977084203E+01 -0.66888513429E+01  0.10703851114E+01  0.80222661699E+01  0.51100000000E-03 0. -1.
        -11    1    3    3    0    0 -0.17121251267E+01  0.89635963147E+00  0.50871057830E+00  0.19984043014E+01  0.51100000000E-03 0.  1.
         12    1    3    3    0    0 -0.75228347812E+01 -0.30965584954E+02 -0.20269573706E+02  0.37766600494E+02  0.00000000000E+00 0. -1.
</event>
<event>
 7    1  0.4356471E-010  0.4778727E+02  0.7816164E-02  0.1312668E+00
        -11   -1    0    0    0    0  0.00000000000E+00  0.00000000000E+00  0.45593999997E+02  0.45594000000E+02  0.51100000000E-03 0.  1.
         11   -1    0    0    0    0 -0.00000000000E+00 -0.00000000000E+00 -0.45593999997E+02  0.45594000000E+02  0.51100000000E-03 0. -1.
    9900012    2    1    2    0    0 -0.32795913980E+02 -0.22397591530E+02 -0.17504267213E+02  0.47787269006E+02  0.19999990706E+02 0.  0.
        -12    1    1    2    0    0  0.32795913980E+02  0.22397591530E+02  0.17504267213E+02  0.43400730994E+02  0.00000000000E+00 0.  1.
         11    1    3    3    0    0  0.56472798859E+00 -0.30747179614E+01 -0.27106858491E+01  0.41377078531E+01  0.51100000000E-03 0.  1.
        -11    1    3    3    0    0 -0.69931747355E+01  0.18311999474E+01 -0.19484873379E+01  0.74869479293E+01  0.51100000000E-03 0. -1.
         12    1    3    3    0    0 -0.26367467233E+02 -0.21154073516E+02 -0.12845094026E+02  0.36162613224E+02  0.00000000000E+00 0. -1.
</event>
<event>
 7    1  0.4356471E-010  0.4778728E+02  0.7816164E-02  0.1312668E+00
        -11   -1    0    0    0    0  0.00000000000E+00  0.00000000000E+00  0.45593999997E+02  0.45594000000E+02  0.51100000000E-03 0.  1.
         11   -1    0    0    0    0 -0.00000000000E+00 -0.00000000000E+00 -0.45593999997E+02  0.45594000000E+02  0.51100000000E-03 0. -1.
    9900012    2    1    2    0    0 -0.30647960173E+00  0.23071413087E+02 -0.36759192409E+02  0.47787282746E+02  0.20000053353E+02 0.  0.
        -12    1    1    2    0    0  0.30647960173E+00 -0.23071413087E+02  0.36759192409E+02  0.43400717254E+02  0.00000000000E+00 0.  1.
         11    1    3    3    0    0  0.66451265815E+01  0.12648720342E+02 -0.12110658004E+02  0.18730079314E+02  0.51100000000E-03 0. -1.
        -11    1    3    3    0    0 -0.42589087827E+01  0.70144409954E+01 -0.67098235201E+01  0.10600114076E+02  0.51100000000E-03 0.  1.
        -12    1    3    3    0    0 -0.26926974005E+01  0.34082517501E+01 -0.17938710885E+02  0.18457089356E+02  0.00000000000E+00 0.  1.
</event>
<event>
 7    1  0.4356471E-010  0.4778721E+02  0.7816164E-02  0.1312668E+00
        -11   -1    0    0    0    0  0.00000000000E+00  0.00000000000E+00  0.45593999997E+02  0.45594000000E+02  0.51100000000E-03 0. -1.
         11   -1    0    0    0    0 -0.00000000000E+00 -0.00000000000E+00 -0.45593999997E+02  0.45594000000E+02  0.51100000000E-03 0.  1.
    9900012    2    1    2    0    0 -0.21118530889E+02 -0.72289989214E+01  0.37220658657E+02  0.47787214256E+02  0.19999741077E+02 0.  0.
        -12    1    1    2    0    0  0.21118530889E+02  0.72289989214E+01 -0.37220658657E+02  0.43400785744E+02  0.00000000000E+00 0.  1.
         11    1    3    3    0    0  0.90319616007E+00 -0.70815848269E-02  0.47671141722E+01  0.48519265498E+01  0.51100000000E-03 0. -1.
        -11    1    3    3    0    0 -0.99806976937E+00 -0.15024810626E+00 -0.18370137292E+01  0.20960289741E+01  0.51100000000E-03 0.  1.
         12    1    3    3    0    0 -0.21023657280E+02 -0.70716692304E+01  0.34290558214E+02  0.40839258732E+02  0.00000000000E+00 0. -1.
</event>
<event>
 7    1  0.4356471E-010  0.4778727E+02  0.7816164E-02  0.1312668E+00
        -11   -1    0    0    0    0  0.00000000000E+00  0.00000000000E+00  0.45593999997E+02  0.45594000000E+02  0.51100000000E-03 0.  1.
         11   -1    0    0    0    0 -0.00000000000E+00 -0.00000000000E+00 -0.45593999997E+02  0.45594000000E+02  0.51100000000E-03 0. -1.
    9900012    2    1    2    0    0  0.21698673331E+02 -0.12367058502E+02 -0.35494318457E+02  0.47787271861E+02  0.20000003723E+02 0.  0.
        -12    1    1    2    0    0 -0.21698673331E+02  0.12367058502E+02  0.35494318457E+02  0.43400728139E+02  0.00000000000E+00 0.  1.
         11    1    3    3    0    0  0.56852214280E+01 -0.34037042686E+01 -0.21296004198E+02  0.22303065720E+02  0.51100000000E-03 0. -1.
        -11    1    3    3    0    0  0.33186422922E+01  0.68434771824E+00 -0.74226192993E+01  0.81594727762E+01  0.51100000000E-03 0.  1.
        -12    1    3    3    0    0  0.12694809610E+02 -0.96477019512E+01 -0.67756949595E+01  0.17324733365E+02  0.00000000000E+00 0.  1.
</event>
<event>
 7    1  0.4886484E-010  0.4778728E+02  0.7816164E-02  0.1312668E+00
        -11   -1    0    0    0    0  0.00000000000E+00  0.00000000000E+00  0.45593999997E+02  0.45594000000E+02  0.51100000000E-03 0. -1.
         11   -1    0    0    0    0 -0.00000000000E+00 -0.00000000000E+00 -0.45593999997E+02  0.45594000000E+02  0.51100000000E-03 0.  1.
    9900012    2    1    2    0    0  0.32882512532E+02 -0.18847862788E+02 -0.21145244223E+02  0.47787275175E+02  0.20000018831E+02 0.  0.
        -12    1    1    2    0    0 -0.32882512532E+02  0.18847862788E+02  0.21145244223E+02  0.43400724825E+02  0.00000000000E+00 0.  1.
         11    1    3    3    0    0  0.15229570177E+02 -0.50409296266E+01 -0.47413052638E+01  0.16728142609E+02  0.51100000000E-03 0. -1.
        -11    1    3    3    0    0  0.15178330856E+02 -0.57982345036E+01 -0.15786303563E+02  0.22654108488E+02  0.51100000000E-03 0.  1.
        -12    1    3    3    0    0  0.24746114983E+01 -0.80086986579E+01 -0.61763539685E+00  0.84050240775E+01  0.00000000000E+00 0.  1.
</event>
<event>
 7    1  0.4356471E-010  0.4778728E+02  0.7816164E-02  0.1312668E+00
        -11   -1    0    0    0    0  0.00000000000E+00  0.00000000000E+00  0.45593999997E+02  0.45594000000E+02  0.51100000000E-03 0.  1.
         11   -1    0    0    0    0 -0.00000000000E+00 -0.00000000000E+00 -0.45593999997E+02  0.45594000000E+02  0.51100000000E-03 0. -1.
    9900012    2    1    2    0    0 -0.26988624075E+02  0.30456403738E+02 -0.15087880837E+02  0.47787279888E+02  0.20000040320E+02 0.  0.
        -12    1    1    2    0    0  0.26988624075E+02 -0.30456403738E+02  0.15087880837E+02  0.43400720112E+02  0.00000000000E+00 0.  1.
         11    1    3    3    0    0 -0.26147811419E+02  0.27235320582E+02 -0.78512576513E+01  0.38563103819E+02  0.51100000000E-03 0. -1.
        -11    1    3    3    0    0  0.68980016531E+00  0.65344588072E+00  0.39424364571E+00  0.10287099204E+01  0.51100000000E-03 0.  1.
        -12    1    3    3    0    0 -0.15306128214E+01  0.25676372749E+01 -0.76308668313E+01  0.81954661479E+01  0.00000000000E+00 0.  1.
</event>
<event>
 7    1  0.4356471E-010  0.4778733E+02  0.7816164E-02  0.1312668E+00
        -11   -1    0    0    0    0  0.00000000000E+00  0.00000000000E+00  0.45593999997E+02  0.45594000000E+02  0.51100000000E-03 0.  1.
         11   -1    0    0    0    0 -0.00000000000E+00 -0.00000000000E+00 -0.45593999997E+02  0.45594000000E+02  0.51100000000E-03 0. -1.
    9900012    2    1    2    0    0  0.29225428148E+02  0.23883099223E+02 -0.21426390830E+02  0.47787328312E+02  0.20000261106E+02 0.  0.
        -12    1    1    2    0    0 -0.29225428148E+02 -0.23883099223E+02  0.21426390830E+02  0.43400671688E+02  0.00000000000E+00 0.  1.
         11    1    3    3    0    0 -0.11698476031E+01 -0.48944137203E-01 -0.88486455735E+00  0.14676254594E+01  0.51100000000E-03 0. -1.
        -11    1    3    3    0    0  0.14089033637E+02  0.20450279685E+02 -0.12741093309E+02  0.27911471960E+02  0.51100000000E-03 0.  1.
         12    1    3    3    0    0  0.16306242114E+02  0.34817636753E+01 -0.78004329633E+01  0.18408230893E+02  0.00000000000E+00 0. -1.
</event>
<event>
 7    1  0.4356471E-010  0.4778726E+02  0.7816164E-02  0.1312668E+00
        -11   -1    0    0    0    0  0.00000000000E+00  0.00000000000E+00  0.45593999997E+02  0.45594000000E+02  0.51100000000E-03 0.  1.
         11   -1    0    0    0    0 -0.00000000000E+00 -0.00000000000E+00 -0.45593999997E+02  0.45594000000E+02  0.51100000000E-03 0. -1.
    9900012    2    1    2    0    0 -0.17770306630E+02  0.37478768526E+02  0.12774270606E+02  0.47787264091E+02  0.19999968295E+02 0.  0.
        -12    1    1    2    0    0  0.17770306630E+02 -0.37478768526E+02 -0.12774270606E+02  0.43400735909E+02  0.00000000000E+00 0.  1.
         11    1    3    3    0    0 -0.19536217614E+01  0.20461563507E+02  0.95925102419E+01  0.22682779198E+02  0.51100000000E-03 0. -1.
        -11    1    3    3    0    0 -0.94136160229E+01  0.14919296788E+02  0.45738200795E+01  0.18224198573E+02  0.51100000000E-03 0.  1.
        -12    1    3    3    0    0 -0.64030688453E+01  0.20979082316E+01 -0.13920597150E+01  0.68802863194E+01  0.00000000000E+00 0.  1.
</event>
<event>
 7    1  0.4356471E-010  0.4778726E+02  0.7816164E-02  0.1312668E+00
        -11   -1    0    0    0    0  0.00000000000E+00  0.00000000000E+00  0.45593999997E+02  0.45594000000E+02  0.51100000000E-03 0. -1.
         11   -1    0    0    0    0 -0.00000000000E+00 -0.00000000000E+00 -0.45593999997E+02  0.45594000000E+02  0.51100000000E-03 0.  1.
    9900012    2    1    2    0    0 -0.32126842317E+02  0.28301027185E+02  0.71093162090E+01  0.47787256758E+02  0.19999934863E+02 0.  0.
        -12    1    1    2    0    0  0.32126842317E+02 -0.28301027185E+02 -0.71093162090E+01  0.43400743242E+02  0.00000000000E+00 0.  1.
         11    1    3    3    0    0 -0.21031571546E+02  0.18950483969E+02  0.51770633342E+01  0.28779329898E+02  0.51100000000E-03 0. -1.
        -11    1    3    3    0    0 -0.67966678901E+01  0.37432265623E+01  0.68898428446E+01  0.10376722709E+02  0.51100000000E-03 0.  1.
         12    1    3    3    0    0 -0.42986028804E+01  0.56073166534E+01 -0.49575899698E+01  0.86312041503E+01  0.00000000000E+00 0. -1.
</event>
<event>
 7    1  0.4356471E-010  0.4778727E+02  0.7816164E-02  0.1312668E+00
        -11   -1    0    0    0    0  0.00000000000E+00  0.00000000000E+00  0.45593999997E+02  0.45594000000E+02  0.51100000000E-03 0.  1.
         11   -1    0    0    0    0 -0.00000000000E+00 -0.00000000000E+00 -0.45593999997E+02  0.45594000000E+02  0.51100000000E-03 0. -1.
    9900012    2    1    2    0    0 -0.22085026755E+02 -0.72380972774E+01 -0.36653579918E+02  0.47787269824E+02  0.19999994437E+02 0.  0.
        -12    1    1    2    0    0  0.22085026755E+02  0.72380972774E+01  0.36653579918E+02  0.43400730176E+02  0.00000000000E+00 0.  1.
         11    1    3    3    0    0 -0.58912853903E+01  0.13771512158E+01 -0.19946398272E+02  0.20843766294E+02  0.51100000000E-03 0. -1.
        -11    1    3    3    0    0 -0.13711669658E+02 -0.18550282644E+01 -0.97198706516E+01  0.16909373153E+02  0.51100000000E-03 0.  1.
         12    1    3    3    0    0 -0.24820717062E+01 -0.67602202288E+01 -0.69873109942E+01  0.10034130377E+02  0.00000000000E+00 0. -1.
</event>
<event>
 7    1  0.4356471E-010  0.4778727E+02  0.7816164E-02  0.1312668E+00
        -11   -1    0    0    0    0  0.00000000000E+00  0.00000000000E+00  0.45593999997E+02  0.45594000000E+02  0.51100000000E-03 0. -1.
         11   -1    0    0    0    0 -0.00000000000E+00 -0.00000000000E+00 -0.45593999997E+02  0.45594000000E+02  0.51100000000E-03 0.  1.
    9900012    2    1    2    0    0  0.11748255853E+02 -0.40606559416E+02  0.98340898039E+01  0.47787268376E+02  0.19999987834E+02 0.  0.
        -12    1    1    2    0    0 -0.11748255853E+02  0.40606559416E+02 -0.98340898039E+01  0.43400731624E+02  0.00000000000E+00 0.  1.
         11    1    3    3    0    0  0.29739249706E+01 -0.19355371921E+02  0.85957181170E+01  0.21386000612E+02  0.51100000000E-03 0. -1.
        -11    1    3    3    0    0  0.10781016789E+02 -0.21339181501E+02  0.24857528611E+01  0.24036845834E+02  0.51100000000E-03 0.  1.
         12    1    3    3    0    0 -0.20066859059E+01  0.87994005819E-01 -0.12473811742E+01  0.23644219302E+01  0.00000000000E+00 0. -1.
</event>
<event>
 7    1  0.4356471E-010  0.4778728E+02  0.7816164E-02  0.1312668E+00
        -11   -1    0    0    0    0  0.00000000000E+00  0.00000000000E+00  0.45593999997E+02  0.45594000000E+02  0.51100000000E-03 0. -1.
         11   -1    0    0    0    0 -0.00000000000E+00 -0.00000000000E+00 -0.45593999997E+02  0.45594000000E+02  0.51100000000E-03 0.  1.
    9900012    2    1    2    0    0  0.28242123330E+02 -0.28840555358E+02 -0.15944497375E+02  0.47787283877E+02  0.20000058507E+02 0.  0.
        -12    1    1    2    0    0 -0.28242123330E+02  0.28840555358E+02  0.15944497375E+02  0.43400716123E+02  0.00000000000E+00 0.  1.
         11    1    3    3    0    0  0.16228864737E+02 -0.20685992524E+02 -0.72178482033E+01  0.27265063181E+02  0.51100000000E-03 0. -1.
        -11    1    3    3    0    0  0.13905623726E+02 -0.64236804684E+01 -0.52299442176E+01  0.16185869107E+02  0.51100000000E-03 0.  1.
        -12    1    3    3    0    0 -0.18923651334E+01 -0.17308823655E+01 -0.34967049536E+01  0.43363515879E+01  0.00000000000E+00 0.  1.
</event>
<event>
 7    1  0.4356471E-010  0.4778727E+02  0.7816164E-02  0.1312668E+00
        -11   -1    0    0    0    0  0.00000000000E+00  0.00000000000E+00  0.45593999997E+02  0.45594000000E+02  0.51100000000E-03 0.  1.
         11   -1    0    0    0    0 -0.00000000000E+00 -0.00000000000E+00 -0.45593999997E+02  0.45594000000E+02  0.51100000000E-03 0. -1.
    9900012    2    1    2    0    0  0.23908773670E+02 -0.35690528650E+02 -0.61789897355E+01  0.47787271805E+02  0.20000003467E+02 0.  0.
        -12    1    1    2    0    0 -0.23908773670E+02  0.35690528650E+02  0.61789897355E+01  0.43400728195E+02  0.00000000000E+00 0.  1.
         11    1    3    3    0    0  0.76074879122E+00 -0.39606847158E+01 -0.42451258045E+01  0.58554978864E+01  0.51100000000E-03 0. -1.
        -11    1    3    3    0    0  0.21765298718E+02 -0.20532882189E+02 -0.47672463475E+01  0.30299407870E+02  0.51100000000E-03 0.  1.
         12    1    3    3    0    0  0.13827261606E+01 -0.11196961746E+02  0.28333824164E+01  0.11632366049E+02  0.00000000000E+00 0. -1.
</event>
<event>
 7    1  0.4356471E-010  0.4778727E+02  0.7816164E-02  0.1312668E+00
        -11   -1    0    0    0    0  0.00000000000E+00  0.00000000000E+00  0.45593999997E+02  0.45594000000E+02  0.51100000000E-03 0. -1.
         11   -1    0    0    0    0 -0.00000000000E+00 -0.00000000000E+00 -0.45593999997E+02  0.45594000000E+02  0.51100000000E-03 0.  1.
    9900012    2    1    2    0    0  0.10769439327E+02  0.34176257871E+02  0.24487255995E+02  0.47787272683E+02  0.20000007470E+02 0.  0.
        -12    1    1    2    0    0 -0.10769439327E+02 -0.34176257871E+02 -0.24487255995E+02  0.43400727317E+02  0.00000000000E+00 0.  1.
         11    1    3    3    0    0  0.20228966557E+01  0.48644474597E+00 -0.14550620924E+01  0.25388866309E+01  0.51100000000E-03 0. -1.
        -11    1    3    3    0    0  0.85678085227E+01  0.10780940979E+02  0.12990304711E+02  0.18931033992E+02  0.51100000000E-03 0.  1.
         12    1    3    3    0    0  0.17873414858E+00  0.22908872147E+02  0.12952013377E+02  0.26317352060E+02  0.00000000000E+00 0. -1.
</event>
<event>
 7    1  0.4356471E-010  0.4778727E+02  0.7816164E-02  0.1312668E+00
        -11   -1    0    0    0    0  0.00000000000E+00  0.00000000000E+00  0.45593999997E+02  0.45594000000E+02  0.51100000000E-03 0.  1.
         11   -1    0    0    0    0 -0.00000000000E+00 -0.00000000000E+00 -0.45593999997E+02  0.45594000000E+02  0.51100000000E-03 0. -1.
    9900012    2    1    2    0    0  0.27603941292E+01  0.22493428965E+02 -0.37014173204E+02  0.47787272583E+02  0.20000007015E+02 0.  0.
        -12    1    1    2    0    0 -0.27603941292E+01 -0.22493428965E+02  0.37014173204E+02  0.43400727417E+02  0.00000000000E+00 0.  1.
         11    1    3    3    0    0  0.40246065532E+01  0.26434042013E+01 -0.56506720967E+01  0.74239571042E+01  0.51100000000E-03 0. -1.
        -11    1    3    3    0    0  0.40929101715E+01  0.22717195013E+00 -0.10279664011E+02  0.11066842965E+02  0.51100000000E-03 0.  1.
        -12    1    3    3    0    0 -0.53571225954E+01  0.19622852814E+02 -0.21083837096E+02  0.29296472514E+02  0.00000000000E+00 0.  1.
</event>
<event>
 7    1  0.4356471E-010  0.4778727E+02  0.7816164E-02  0.1312668E+00
        -11   -1    0    0    0    0  0.00000000000E+00  0.00000000000E+00  0.45593999997E+02  0.45594000000E+02  0.51100000000E-03 0. -1.
         11   -1    0    0    0    0 -0.00000000000E+00 -0.00000000000E+00 -0.45593999997E+02  0.45594000000E+02  0.51100000000E-03 0.  1.
    9900012    2    1    2    0    0 -0.33556921575E+02  0.27425462388E+02 -0.23238620915E+01  0.47787270653E+02  0.19999998217E+02 0.  0.
        -12    1    1    2    0    0  0.33556921575E+02 -0.27425462388E+02  0.23238620915E+01  0.43400729347E+02  0.00000000000E+00 0.  1.
         11    1    3    3    0    0 -0.18218149734E+02  0.11964555788E+02  0.66668015056E+01  0.22792494762E+02  0.51100000000E-03 0. -1.
        -11    1    3    3    0    0 -0.16975520393E+01  0.60331412140E+01 -0.30307472446E+00  0.62747374753E+01  0.51100000000E-03 0.  1.
        -12    1    3    3    0    0 -0.13641219802E+02  0.94277653866E+01 -0.86875888727E+01  0.18720038416E+02  0.00000000000E+00 0.  1.
</event>
<event>
 7    1  0.4356471E-010  0.4778727E+02  0.7816164E-02  0.1312668E+00
        -11   -1    0    0    0    0  0.00000000000E+00  0.00000000000E+00  0.45593999997E+02  0.45594000000E+02  0.51100000000E-03 0.  1.
         11   -1    0    0    0    0 -0.00000000000E+00 -0.00000000000E+00 -0.45593999997E+02  0.45594000000E+02  0.51100000000E-03 0. -1.
    9900012    2    1    2    0    0 -0.73854343817E+01 -0.92597392155E+01 -0.41753279761E+02  0.47787265189E+02  0.19999973302E+02 0.  0.
        -12    1    1    2    0    0  0.73854343817E+01  0.92597392155E+01  0.41753279761E+02  0.43400734811E+02  0.00000000000E+00 0.  1.
         11    1    3    3    0    0  0.21953838307E+01  0.16450805571E+01 -0.66156690157E+01  0.71619185272E+01  0.51100000000E-03 0. -1.
        -11    1    3    3    0    0 -0.55795880819E+00 -0.87336224615E+01 -0.76857598724E+01  0.11647247933E+02  0.51100000000E-03 0.  1.
         12    1    3    3    0    0 -0.90228594042E+01 -0.21711973112E+01 -0.27451850873E+02  0.28978098729E+02  0.00000000000E+00 0. -1.
</event>
<event>
 7    1  0.4356471E-010  0.4778730E+02  0.7816164E-02  0.1312668E+00
        -11   -1    0    0    0    0  0.00000000000E+00  0.00000000000E+00  0.45593999997E+02  0.45594000000E+02  0.51100000000E-03 0. -1.
         11   -1    0    0    0    0 -0.00000000000E+00 -0.00000000000E+00 -0.45593999997E+02  0.45594000000E+02  0.51100000000E-03 0.  1.
    9900012    2    1    2    0    0  0.63221802330E+01 -0.20835916400E+01  0.42887173805E+02  0.47787297310E+02  0.20000119756E+02 0.  0.
        -12    1    1    2    0    0 -0.63221802330E+01  0.20835916400E+01 -0.42887173805E+02  0.43400702690E+02  0.00000000000E+00 0.  1.
         11    1    3    3    0    0  0.34931057236E+01 -0.58477464549E+01  0.18491275362E+02  0.19705968410E+02  0.51100000000E-03 0. -1.
        -11    1    3    3    0    0  0.38468055069E+01 -0.33431123502E+01  0.40624104047E+01  0.65174758421E+01  0.51100000000E-03 0.  1.
        -12    1    3    3    0    0 -0.10177309976E+01  0.71072671652E+01  0.20333488037E+02  0.21563853058E+02  0.00000000000E+00 0.  1.
</event>
<event>
 7    1  0.4356471E-010  0.4778727E+02  0.7816164E-02  0.1312668E+00
        -11   -1    0    0    0    0  0.00000000000E+00  0.00000000000E+00  0.45593999997E+02  0.45594000000E+02  0.51100000000E-03 0. -1.
         11   -1    0    0    0    0 -0.00000000000E+00 -0.00000000000E+00 -0.45593999997E+02  0.45594000000E+02  0.51100000000E-03 0.  1.
    9900012    2    1    2    0    0  0.23333071969E+02 -0.25387511610E+02  0.26356503606E+02  0.47787271025E+02  0.19999999910E+02 0.  0.
        -12    1    1    2    0    0 -0.23333071969E+02  0.25387511610E+02 -0.26356503606E+02  0.43400728975E+02  0.00000000000E+00 0.  1.
         11    1    3    3    0    0  0.10037599075E+02 -0.10534763739E+02  0.92033914833E+01  0.17217347568E+02  0.51100000000E-03 0. -1.
        -11    1    3    3    0    0  0.15102236610E+02 -0.12198987135E+02  0.18745050997E+02  0.26986473925E+02  0.51100000000E-03 0.  1.
        -12    1    3    3    0    0 -0.18067637159E+01 -0.26537607352E+01 -0.15919388744E+01  0.35834495315E+01  0.00000000000E+00 0.  1.
</event>
<event>
 7    1  0.4356471E-010  0.4778727E+02  0.7816164E-02  0.1312668E+00
        -11   -1    0    0    0    0  0.00000000000E+00  0.00000000000E+00  0.45593999997E+02  0.45594000000E+02  0.51100000000E-03 0.  1.
         11   -1    0    0    0    0 -0.00000000000E+00 -0.00000000000E+00 -0.45593999997E+02  0.45594000000E+02  0.51100000000E-03 0. -1.
    9900012    2    1    2    0    0  0.64247371521E+01 -0.41195946556E+02  0.12051565992E+02  0.47787268405E+02  0.19999987967E+02 0.  0.
        -12    1    1    2    0    0 -0.64247371521E+01  0.41195946556E+02 -0.12051565992E+02  0.43400731595E+02  0.00000000000E+00 0.  1.
         11    1    3    3    0    0  0.30045051183E+01 -0.33460012038E+02  0.48243897032E+01  0.33939272132E+02  0.51100000000E-03 0. -1.
        -11    1    3    3    0    0  0.56345975854E+00 -0.67779372392E+01  0.92678770555E+00  0.68641718969E+01  0.51100000000E-03 0.  1.
        -12    1    3    3    0    0  0.28567722752E+01 -0.95799727870E+00  0.63003885835E+01  0.69838243764E+01  0.00000000000E+00 0.  1.
</event>
<event>
 7    1  0.4356471E-010  0.4778727E+02  0.7816164E-02  0.1312668E+00
        -11   -1    0    0    0    0  0.00000000000E+00  0.00000000000E+00  0.45593999997E+02  0.45594000000E+02  0.51100000000E-03 0.  1.
         11   -1    0    0    0    0 -0.00000000000E+00 -0.00000000000E+00 -0.45593999997E+02  0.45594000000E+02  0.51100000000E-03 0. -1.
    9900012    2    1    2    0    0 -0.72516495927E+01  0.35119811052E+02  0.24446586894E+02  0.47787272346E+02  0.20000005934E+02 0.  0.
        -12    1    1    2    0    0  0.72516495927E+01 -0.35119811052E+02 -0.24446586894E+02  0.43400727654E+02  0.00000000000E+00 0.  1.
         11    1    3    3    0    0 -0.48651818594E+01  0.11662807171E+01  0.28270671166E+01  0.57465219028E+01  0.51100000000E-03 0. -1.
        -11    1    3    3    0    0 -0.49810162296E+01  0.11481109764E+02  0.12383684810E+02  0.17606307217E+02  0.51100000000E-03 0.  1.
         12    1    3    3    0    0  0.25945484964E+01  0.22472420571E+02  0.92358349669E+01  0.24434443226E+02  0.00000000000E+00 0. -1.
</event>
<event>
 7    1  0.4356471E-010  0.4778727E+02  0.7816164E-02  0.1312668E+00
        -11   -1    0    0    0    0  0.00000000000E+00  0.00000000000E+00  0.45593999997E+02  0.45594000000E+02  0.51100000000E-03 0.  1.
         11   -1    0    0    0    0 -0.00000000000E+00 -0.00000000000E+00 -0.45593999997E+02  0.45594000000E+02  0.51100000000E-03 0. -1.
    9900012    2    1    2    0    0  0.30445030398E+02 -0.74449420052E+01 -0.30021595665E+02  0.47787271393E+02  0.20000001587E+02 0.  0.
        -12    1    1    2    0    0 -0.30445030398E+02  0.74449420052E+01  0.30021595665E+02  0.43400728607E+02  0.00000000000E+00 0.  1.
         11    1    3    3    0    0  0.16842488469E+02  0.48567814333E+01 -0.12391911494E+02  0.21466653546E+02  0.51100000000E-03 0. -1.
        -11    1    3    3    0    0 -0.23153905367E+00 -0.26164524310E+01 -0.28902601709E+01  0.39055137656E+01  0.51100000000E-03 0.  1.
         12    1    3    3    0    0  0.13834080983E+02 -0.96852710075E+01 -0.14739424000E+02  0.22415104081E+02  0.00000000000E+00 0. -1.
</event>
<event>
 7    1  0.4356471E-010  0.4778727E+02  0.7816164E-02  0.1312668E+00
        -11   -1    0    0    0    0  0.00000000000E+00  0.00000000000E+00  0.45593999997E+02  0.45594000000E+02  0.51100000000E-03 0.  1.
         11   -1    0    0    0    0 -0.00000000000E+00 -0.00000000000E+00 -0.45593999997E+02  0.45594000000E+02  0.51100000000E-03 0. -1.
    9900012    2    1    2    0    0  0.35618632423E+02 -0.23078327678E+01 -0.24690284485E+02  0.47787271714E+02  0.20000003054E+02 0.  0.
        -12    1    1    2    0    0 -0.35618632423E+02  0.23078327678E+01  0.24690284485E+02  0.43400728286E+02  0.00000000000E+00 0.  1.
         11    1    3    3    0    0  0.11698229235E+01 -0.23390783787E+01  0.12309856089E+01  0.28905188400E+01  0.51100000000E-03 0. -1.
        -11    1    3    3    0    0 -0.25620817874E-01  0.21128967077E+01 -0.12847950156E+01  0.24729915925E+01  0.51100000000E-03 0.  1.
         12    1    3    3    0    0  0.34474430317E+02 -0.20816510967E+01 -0.24636475079E+02  0.42423761282E+02  0.00000000000E+00 0. -1.
</event>
<event>
 7    1  0.4356471E-010  0.4778727E+02  0.7816164E-02  0.1312668E+00
        -11   -1    0    0    0    0  0.00000000000E+00  0.00000000000E+00  0.45593999997E+02  0.45594000000E+02  0.51100000000E-03 0. -1.
         11   -1    0    0    0    0 -0.00000000000E+00 -0.00000000000E+00 -0.45593999997E+02  0.45594000000E+02  0.51100000000E-03 0.  1.
    9900012    2    1    2    0    0  0.25822937672E+02 -0.22643999732E+02  0.26533906766E+02  0.47787273714E+02  0.20000012174E+02 0.  0.
        -12    1    1    2    0    0 -0.25822937672E+02  0.22643999732E+02 -0.26533906766E+02  0.43400726286E+02  0.00000000000E+00 0.  1.
         11    1    3    3    0    0  0.17875238934E+02 -0.91250550139E+01  0.21016164418E+02  0.29059765364E+02  0.51100000000E-03 0. -1.
        -11    1    3    3    0    0  0.73448742503E+01 -0.74061985052E+01  0.68016436430E+01  0.12452361646E+02  0.51100000000E-03 0.  1.
        -12    1    3    3    0    0  0.60282448811E+00 -0.61127462127E+01 -0.12839012950E+01  0.62751467042E+01  0.00000000000E+00 0.  1.
</event>
<event>
 7    1  0.4356471E-010  0.4778727E+02  0.7816164E-02  0.1312668E+00
        -11   -1    0    0    0    0  0.00000000000E+00  0.00000000000E+00  0.45593999997E+02  0.45594000000E+02  0.51100000000E-03 0. -1.
         11   -1    0    0    0    0 -0.00000000000E+00 -0.00000000000E+00 -0.45593999997E+02  0.45594000000E+02  0.51100000000E-03 0.  1.
    9900012    2    1    2    0    0  0.10687301684E+02 -0.37552280521E+02  0.18953399286E+02  0.47787268046E+02  0.19999986331E+02 0.  0.
        -12    1    1    2    0    0 -0.10687301684E+02  0.37552280521E+02 -0.18953399286E+02  0.43400731954E+02  0.00000000000E+00 0.  1.
         11    1    3    3    0    0  0.33614511662E+00 -0.81106348598E+01  0.26729541084E+01  0.85463486528E+01  0.51100000000E-03 0. -1.
        -11    1    3    3    0    0  0.16930429553E+01 -0.52952258460E+01 -0.37408395766E+01  0.67007232600E+01  0.51100000000E-03 0.  1.
         12    1    3    3    0    0  0.86581136123E+01 -0.24146419815E+02  0.20021284754E+02  0.32540196134E+02  0.00000000000E+00 0. -1.
</event>
<event>
 7    1  0.4356471E-010  0.4778726E+02  0.7816164E-02  0.1312668E+00
        -11   -1    0    0    0    0  0.00000000000E+00  0.00000000000E+00  0.45593999997E+02  0.45594000000E+02  0.51100000000E-03 0.  1.
         11   -1    0    0    0    0 -0.00000000000E+00 -0.00000000000E+00 -0.45593999997E+02  0.45594000000E+02  0.51100000000E-03 0. -1.
    9900012    2    1    2    0    0 -0.95063922123E+01 -0.21702953748E+02 -0.36362540179E+02  0.47787262419E+02  0.19999960675E+02 0.  0.
        -12    1    1    2    0    0  0.95063922123E+01  0.21702953748E+02  0.36362540179E+02  0.43400737581E+02  0.00000000000E+00 0.  1.
         11    1    3    3    0    0 -0.72867872932E+01 -0.81101412216E+01 -0.17230423762E+02  0.20390173196E+02  0.51100000000E-03 0. -1.
        -11    1    3    3    0    0 -0.53173426837E+01 -0.13628264001E+02 -0.99125226956E+01  0.17670931480E+02  0.51100000000E-03 0.  1.
         12    1    3    3    0    0  0.30977377646E+01  0.35451474971E-01 -0.92195937212E+01  0.97261577434E+01  0.00000000000E+00 0. -1.
</event>
<event>
 7    1  0.4356471E-010  0.4778727E+02  0.7816164E-02  0.1312668E+00
        -11   -1    0    0    0    0  0.00000000000E+00  0.00000000000E+00  0.45593999997E+02  0.45594000000E+02  0.51100000000E-03 0. -1.
         11   -1    0    0    0    0 -0.00000000000E+00 -0.00000000000E+00 -0.45593999997E+02  0.45594000000E+02  0.51100000000E-03 0.  1.
    9900012    2    1    2    0    0  0.27809942339E+01  0.40741550842E+02 -0.14697460552E+02  0.47787271427E+02  0.20000001746E+02 0.  0.
        -12    1    1    2    0    0 -0.27809942339E+01 -0.40741550842E+02  0.14697460552E+02  0.43400728573E+02  0.00000000000E+00 0.  1.
         11    1    3    3    0    0  0.44536191225E+00  0.12772330666E+02 -0.49712004875E+00  0.12789757874E+02  0.51100000000E-03 0. -1.
        -11    1    3    3    0    0  0.88024432352E+00  0.26555922567E+02 -0.69439693112E+01  0.27462894303E+02  0.51100000000E-03 0.  1.
        -12    1    3    3    0    0  0.14553879982E+01  0.14132976087E+01 -0.72563711920E+01  0.75346192493E+01  0.00000000000E+00 0.  1.
</event>
<event>
 7    1  0.4356471E-010  0.4778727E+02  0.7816164E-02  0.1312668E+00
        -11   -1    0    0    0    0  0.00000000000E+00  0.00000000000E+00  0.45593999997E+02  0.45594000000E+02  0.51100000000E-03 0. -1.
         11   -1    0    0    0    0 -0.00000000000E+00 -0.00000000000E+00 -0.45593999997E+02  0.45594000000E+02  0.51100000000E-03 0.  1.
    9900012    2    1    2    0    0 -0.35165827516E+01  0.42753036151E+02  0.65905211011E+01  0.47787269329E+02  0.19999992179E+02 0.  0.
        -12    1    1    2    0    0  0.35165827516E+01 -0.42753036151E+02 -0.65905211011E+01  0.43400730671E+02  0.00000000000E+00 0.  1.
         11    1    3    3    0    0 -0.11257287548E+02  0.26438760932E+02  0.62423875749E+01  0.29405815844E+02  0.51100000000E-03 0. -1.
        -11    1    3    3    0    0  0.22535215589E+01  0.53403323389E+01  0.16932776549E+01  0.60386006975E+01  0.51100000000E-03 0.  1.
         12    1    3    3    0    0  0.54871832371E+01  0.10973942880E+02 -0.13451441287E+01  0.12342852788E+02  0.00000000000E+00 0. -1.
</event>
<event>
 7    1  0.4356471E-010  0.4778728E+02  0.7816164E-02  0.1312668E+00
        -11   -1    0    0    0    0  0.00000000000E+00  0.00000000000E+00  0.45593999997E+02  0.45594000000E+02  0.51100000000E-03 0. -1.
         11   -1    0    0    0    0 -0.00000000000E+00 -0.00000000000E+00 -0.45593999997E+02  0.45594000000E+02  0.51100000000E-03 0.  1.
    9900012    2    1    2    0    0  0.34399409671E+02  0.22736338355E+02  0.13541137609E+02  0.47787275637E+02  0.20000020938E+02 0.  0.
        -12    1    1    2    0    0 -0.34399409671E+02 -0.22736338355E+02 -0.13541137609E+02  0.43400724363E+02  0.00000000000E+00 0.  1.
         11    1    3    3    0    0  0.11074890444E+02  0.13214007544E+02  0.80039212164E+01  0.19008575665E+02  0.51100000000E-03 0.  1.
        -11    1    3    3    0    0  0.14091021541E+02  0.10370549466E+02 -0.85459222161E+00  0.17516720938E+02  0.51100000000E-03 0. -1.
         12    1    3    3    0    0  0.92334976860E+01 -0.84821865421E+00  0.63918086141E+01  0.11261979034E+02  0.00000000000E+00 0. -1.
</event>
<event>
 7    1  0.4356471E-010  0.4778727E+02  0.7816164E-02  0.1312668E+00
        -11   -1    0    0    0    0  0.00000000000E+00  0.00000000000E+00  0.45593999997E+02  0.45594000000E+02  0.51100000000E-03 0.  1.
         11   -1    0    0    0    0 -0.00000000000E+00 -0.00000000000E+00 -0.45593999997E+02  0.45594000000E+02  0.51100000000E-03 0. -1.
    9900012    2    1    2    0    0 -0.23317912868E+02  0.17731194174E+02 -0.32023471505E+02  0.47787273801E+02  0.20000012570E+02 0.  0.
        -12    1    1    2    0    0  0.23317912868E+02 -0.17731194174E+02  0.32023471505E+02  0.43400726199E+02  0.00000000000E+00 0.  1.
         11    1    3    3    0    0 -0.10557141246E+02  0.28393931694E+01 -0.83561459884E+01  0.13760107591E+02  0.51100000000E-03 0. -1.
        -11    1    3    3    0    0 -0.15187294532E+02  0.15388376540E+02 -0.22752467780E+02  0.31386794007E+02  0.51100000000E-03 0.  1.
        -12    1    3    3    0    0  0.24265229101E+01 -0.49657553520E+00 -0.91485773673E+00  0.26403722036E+01  0.00000000000E+00 0.  1.
</event>
<event>
 7    1  0.4356471E-010  0.4778727E+02  0.7816164E-02  0.1312668E+00
        -11   -1    0    0    0    0  0.00000000000E+00  0.00000000000E+00  0.45593999997E+02  0.45594000000E+02  0.51100000000E-03 0.  1.
         11   -1    0    0    0    0 -0.00000000000E+00 -0.00000000000E+00 -0.45593999997E+02  0.45594000000E+02  0.51100000000E-03 0. -1.
    9900012    2    1    2    0    0  0.28249667953E+02 -0.31307575677E+02 -0.10267214651E+02  0.47787265779E+02  0.19999975991E+02 0.  0.
        -12    1    1    2    0    0 -0.28249667953E+02  0.31307575677E+02  0.10267214651E+02  0.43400734221E+02  0.00000000000E+00 0.  1.
         11    1    3    3    0    0  0.12374318582E+02 -0.97311622839E+01 -0.28089684496E+01  0.15990921918E+02  0.51100000000E-03 0. -1.
        -11    1    3    3    0    0  0.10778469420E+02 -0.22697369321E+02 -0.83997022907E+01  0.26493413822E+02  0.51100000000E-03 0.  1.
        -12    1    3    3    0    0  0.50968799510E+01  0.11209559269E+01  0.94145608964E+00  0.53029300386E+01  0.00000000000E+00 0.  1.
</event>
<event>
 7    1  0.4356471E-010  0.4778727E+02  0.7816164E-02  0.1312668E+00
        -11   -1    0    0    0    0  0.00000000000E+00  0.00000000000E+00  0.45593999997E+02  0.45594000000E+02  0.51100000000E-03 0.  1.
         11   -1    0    0    0    0 -0.00000000000E+00 -0.00000000000E+00 -0.45593999997E+02  0.45594000000E+02  0.51100000000E-03 0. -1.
    9900012    2    1    2    0    0 -0.13806724527E+02 -0.40607422062E+02  0.66358778917E+01  0.47787271387E+02  0.20000001564E+02 0.  0.
        -12    1    1    2    0    0  0.13806724527E+02  0.40607422062E+02 -0.66358778917E+01  0.43400728613E+02  0.00000000000E+00 0.  1.
         11    1    3    3    0    0 -0.25766448427E+01 -0.18303945631E+02  0.45164295463E+01  0.19028180691E+02  0.51100000000E-03 0. -1.
        -11    1    3    3    0    0  0.16526590589E+00 -0.82943894564E+01  0.60625354500E+01  0.10275142122E+02  0.51100000000E-03 0.  1.
        -12    1    3    3    0    0 -0.11395345591E+02 -0.14009086975E+02 -0.39430871045E+01  0.18483948574E+02  0.00000000000E+00 0.  1.
</event>
<event>
 7    1  0.4356471E-010  0.4778727E+02  0.7816164E-02  0.1312668E+00
        -11   -1    0    0    0    0  0.00000000000E+00  0.00000000000E+00  0.45593999997E+02  0.45594000000E+02  0.51100000000E-03 0. -1.
         11   -1    0    0    0    0 -0.00000000000E+00 -0.00000000000E+00 -0.45593999997E+02  0.45594000000E+02  0.51100000000E-03 0.  1.
    9900012    2    1    2    0    0  0.36572893829E+02 -0.41455213770E+01  0.22996984358E+02  0.47787271895E+02  0.20000003877E+02 0.  0.
        -12    1    1    2    0    0 -0.36572893829E+02  0.41455213770E+01 -0.22996984358E+02  0.43400728105E+02  0.00000000000E+00 0.  1.
         11    1    3    3    0    0  0.29264018860E+01  0.33537565004E+01  0.28118305423E+01  0.52647793802E+01  0.51100000000E-03 0. -1.
        -11    1    3    3    0    0  0.16838116685E+02  0.17023252715E+01  0.38823405111E+01  0.17363543789E+02  0.51100000000E-03 0.  1.
        -12    1    3    3    0    0  0.16808375258E+02 -0.92016031488E+01  0.16302813304E+02  0.25158948725E+02  0.00000000000E+00 0.  1.
</event>
<event>
 7    1  0.4356471E-010  0.4778727E+02  0.7816164E-02  0.1312668E+00
        -11   -1    0    0    0    0  0.00000000000E+00  0.00000000000E+00  0.45593999997E+02  0.45594000000E+02  0.51100000000E-03 0. -1.
         11   -1    0    0    0    0 -0.00000000000E+00 -0.00000000000E+00 -0.45593999997E+02  0.45594000000E+02  0.51100000000E-03 0.  1.
    9900012    2    1    2    0    0  0.33838993214E+02  0.26215065419E+02  0.71635630290E+01  0.47787265537E+02  0.19999974889E+02 0.  0.
        -12    1    1    2    0    0 -0.33838993214E+02 -0.26215065419E+02 -0.71635630290E+01  0.43400734463E+02  0.00000000000E+00 0.  1.
         11    1    3    3    0    0  0.12542497614E+02  0.59254367058E+01  0.53517814959E+01  0.14868308983E+02  0.51100000000E-03 0. -1.
        -11    1    3    3    0    0  0.20285401646E+02  0.10210402473E+02  0.18922609635E+01  0.22788823805E+02  0.51100000000E-03 0.  1.
        -12    1    3    3    0    0  0.10110939536E+01  0.10079226240E+02 -0.80479430325E-01  0.10130132749E+02  0.00000000000E+00 0.  1.
</event>
<event>
 7    1  0.4356471E-010  0.4778726E+02  0.7816164E-02  0.1312668E+00
        -11   -1    0    0    0    0  0.00000000000E+00  0.00000000000E+00  0.45593999997E+02  0.45594000000E+02  0.51100000000E-03 0. -1.
         11   -1    0    0    0    0 -0.00000000000E+00 -0.00000000000E+00 -0.45593999997E+02  0.45594000000E+02  0.51100000000E-03 0.  1.
    9900012    2    1    2    0    0 -0.11315291330E+02  0.28795338191E+02  0.30437102176E+02  0.47787256823E+02  0.19999935159E+02 0.  0.
        -12    1    1    2    0    0  0.11315291330E+02 -0.28795338191E+02 -0.30437102176E+02  0.43400743177E+02  0.00000000000E+00 0.  1.
         11    1    3    3    0    0 -0.17708440440E+01 -0.14118845753E+01 -0.88025156740E-01  0.22665073068E+01  0.51100000000E-03 0. -1.
        -11    1    3    3    0    0 -0.90290132552E+00  0.17615605778E+01 -0.97527744213E+00  0.22066927342E+01  0.51100000000E-03 0.  1.
         12    1    3    3    0    0 -0.86415459608E+01  0.28445662189E+02  0.31500404775E+02  0.43314056782E+02  0.00000000000E+00 0. -1.
</event>
<event>
 7    1  0.4356471E-010  0.4778727E+02  0.7816164E-02  0.1312668E+00
        -11   -1    0    0    0    0  0.00000000000E+00  0.00000000000E+00  0.45593999997E+02  0.45594000000E+02  0.51100000000E-03 0. -1.
         11   -1    0    0    0    0 -0.00000000000E+00 -0.00000000000E+00 -0.45593999997E+02  0.45594000000E+02  0.51100000000E-03 0.  1.
    9900012    2    1    2    0    0  0.13919001700E+02 -0.37592868645E+02  0.16633127941E+02  0.47787270439E+02  0.19999997241E+02 0.  0.
        -12    1    1    2    0    0 -0.13919001700E+02  0.37592868645E+02 -0.16633127941E+02  0.43400729561E+02  0.00000000000E+00 0.  1.
         11    1    3    3    0    0  0.12421320333E+02 -0.33183188639E+02  0.89568165066E+01  0.36546378333E+02  0.51100000000E-03 0. -1.
        -11    1    3    3    0    0 -0.10237301596E+01 -0.50408668661E+01  0.31800354164E+01  0.60473951179E+01  0.51100000000E-03 0.  1.
         12    1    3    3    0    0  0.25214115268E+01  0.63118685978E+00  0.44962760180E+01  0.51934969885E+01  0.00000000000E+00 0. -1.
</event>
<event>
 7    1  0.4356471E-010  0.4778727E+02  0.7816164E-02  0.1312668E+00
        -11   -1    0    0    0    0  0.00000000000E+00  0.00000000000E+00  0.45593999997E+02  0.45594000000E+02  0.51100000000E-03 0.  1.
         11   -1    0    0    0    0 -0.00000000000E+00 -0.00000000000E+00 -0.45593999997E+02  0.45594000000E+02  0.51100000000E-03 0. -1.
    9900012    2    1    2    0    0 -0.27956282052E+02 -0.30740884241E+02 -0.12532664009E+02  0.47787270314E+02  0.19999996671E+02 0.  0.
        -12    1    1    2    0    0  0.27956282052E+02  0.30740884241E+02  0.12532664009E+02  0.43400729686E+02  0.00000000000E+00 0.  1.
         11    1    3    3    0    0 -0.86499901185E+01 -0.87253186863E+01 -0.21122090536E+01  0.12466552955E+02  0.51100000000E-03 0. -1.
        -11    1    3    3    0    0 -0.16119285464E+02 -0.17551250949E+02 -0.32620462072E+00  0.23832418749E+02  0.51100000000E-03 0.  1.
        -12    1    3    3    0    0 -0.31870064699E+01 -0.44643146059E+01 -0.10094250334E+02  0.11488298610E+02  0.00000000000E+00 0.  1.
</event>
<event>
 7    1  0.4356471E-010  0.4778727E+02  0.7816164E-02  0.1312668E+00
        -11   -1    0    0    0    0  0.00000000000E+00  0.00000000000E+00  0.45593999997E+02  0.45594000000E+02  0.51100000000E-03 0.  1.
         11   -1    0    0    0    0 -0.00000000000E+00 -0.00000000000E+00 -0.45593999997E+02  0.45594000000E+02  0.51100000000E-03 0. -1.
    9900012    2    1    2    0    0 -0.11211627641E+02 -0.18367360708E+02 -0.37690354029E+02  0.47787270507E+02  0.19999997549E+02 0.  0.
        -12    1    1    2    0    0  0.11211627641E+02  0.18367360708E+02  0.37690354029E+02  0.43400729493E+02  0.00000000000E+00 0.  1.
         11    1    3    3    0    0  0.71735742409E-02 -0.57714141219E+01 -0.10978336292E+02  0.12402948860E+02  0.51100000000E-03 0. -1.
        -11    1    3    3    0    0 -0.13456066939E+01 -0.90714965181E+01 -0.33245816241E+01  0.97547706118E+01  0.51100000000E-03 0.  1.
         12    1    3    3    0    0 -0.98731945213E+01 -0.35244500679E+01 -0.23387436113E+02  0.25629551035E+02  0.00000000000E+00 0. -1.
</event>
<event>
 7    1  0.4356471E-010  0.4778728E+02  0.7816164E-02  0.1312668E+00
        -11   -1    0    0    0    0  0.00000000000E+00  0.00000000000E+00  0.45593999997E+02  0.45594000000E+02  0.51100000000E-03 0.  1.
         11   -1    0    0    0    0 -0.00000000000E+00 -0.00000000000E+00 -0.45593999997E+02  0.45594000000E+02  0.51100000000E-03 0. -1.
    9900012    2    1    2    0    0 -0.69135035099E+01 -0.18625876570E+01 -0.42806035343E+02  0.47787280820E+02  0.20000044571E+02 0.  0.
        -12    1    1    2    0    0  0.69135035099E+01  0.18625876570E+01  0.42806035343E+02  0.43400719180E+02  0.00000000000E+00 0.  1.
         11    1    3    3    0    0 -0.20908839164E+01 -0.47931206126E+01 -0.32013537209E+02  0.32437823072E+02  0.51100000000E-03 0. -1.
        -11    1    3    3    0    0  0.10593971294E+01 -0.26153461424E+01 -0.30628395148E+01  0.41645340528E+01  0.51100000000E-03 0.  1.
         12    1    3    3    0    0 -0.58820167229E+01  0.55458790981E+01 -0.77296586188E+01  0.11184923695E+02  0.00000000000E+00 0. -1.
</event>
<event>
 7    1  0.4356471E-010  0.4778727E+02  0.7816164E-02  0.1312668E+00
        -11   -1    0    0    0    0  0.00000000000E+00  0.00000000000E+00  0.45593999997E+02  0.45594000000E+02  0.51100000000E-03 0. -1.
         11   -1    0    0    0    0 -0.00000000000E+00 -0.00000000000E+00 -0.45593999997E+02  0.45594000000E+02  0.51100000000E-03 0.  1.
    9900012    2    1    2    0    0  0.19726106473E+02  0.15075362306E+02  0.35598280466E+02  0.47787269622E+02  0.19999993514E+02 0.  0.
        -12    1    1    2    0    0 -0.19726106473E+02 -0.15075362306E+02 -0.35598280466E+02  0.43400730378E+02  0.00000000000E+00 0.  1.
         11    1    3    3    0    0  0.45644616684E+01  0.24619778794E+01  0.68919333614E+01  0.86252183230E+01  0.51100000000E-03 0. -1.
        -11    1    3    3    0    0 -0.23272662376E+01 -0.65295184813E+00  0.10102822619E+02  0.10387951645E+02  0.51100000000E-03 0.  1.
         12    1    3    3    0    0  0.17488911042E+02  0.13266336275E+02  0.18603524485E+02  0.28774099654E+02  0.00000000000E+00 0. -1.
</event>
<event>
 7    1  0.4356471E-010  0.4778727E+02  0.7816164E-02  0.1312668E+00
        -11   -1    0    0    0    0  0.00000000000E+00  0.00000000000E+00  0.45593999997E+02  0.45594000000E+02  0.51100000000E-03 0.  1.
         11   -1    0    0    0    0 -0.00000000000E+00 -0.00000000000E+00 -0.45593999997E+02  0.45594000000E+02  0.51100000000E-03 0. -1.
    9900012    2    1    2    0    0 -0.21905984423E+02  0.16132857920E+02 -0.33815410548E+02  0.47787271335E+02  0.20000001323E+02 0.  0.
        -12    1    1    2    0    0  0.21905984423E+02 -0.16132857920E+02  0.33815410548E+02  0.43400728665E+02  0.00000000000E+00 0.  1.
         11    1    3    3    0    0 -0.89439925541E+01  0.16122732214E+01 -0.43623607387E+01  0.10080903691E+02  0.51100000000E-03 0. -1.
        -11    1    3    3    0    0  0.61769775245E+00  0.24990410235E+01  0.56440508524E+00  0.26353955892E+01  0.51100000000E-03 0.  1.
         12    1    3    3    0    0 -0.13579689621E+02  0.12021543675E+02 -0.30017454894E+02  0.35070972055E+02  0.00000000000E+00 0. -1.
</event>
<event>
 7    1  0.4356471E-010  0.4778727E+02  0.7816164E-02  0.1312668E+00
        -11   -1    0    0    0    0  0.00000000000E+00  0.00000000000E+00  0.45593999997E+02  0.45594000000E+02  0.51100000000E-03 0.  1.
         11   -1    0    0    0    0 -0.00000000000E+00 -0.00000000000E+00 -0.45593999997E+02  0.45594000000E+02  0.51100000000E-03 0. -1.
    9900012    2    1    2    0    0  0.69918373387E+00  0.90573725463E+01 -0.42439353313E+02  0.47787267691E+02  0.19999984711E+02 0.  0.
        -12    1    1    2    0    0 -0.69918373387E+00 -0.90573725463E+01  0.42439353313E+02  0.43400732309E+02  0.00000000000E+00 0.  1.
         11    1    3    3    0    0 -0.23401232570E+01  0.13999949584E+00 -0.12927016058E+02  0.13137865928E+02  0.51100000000E-03 0. -1.
        -11    1    3    3    0    0 -0.46466802889E+01  0.86574730820E+01 -0.20954717097E+02  0.23143976468E+02  0.51100000000E-03 0.  1.
        -12    1    3    3    0    0  0.76859872797E+01  0.25989996845E+00 -0.85576201571E+01  0.11505425295E+02  0.00000000000E+00 0.  1.
</event>
<event>
 7    1  0.4356471E-010  0.4778727E+02  0.7816164E-02  0.1312668E+00
        -11   -1    0    0    0    0  0.00000000000E+00  0.00000000000E+00  0.45593999997E+02  0.45594000000E+02  0.51100000000E-03 0.  1.
         11   -1    0    0    0    0 -0.00000000000E+00 -0.00000000000E+00 -0.45593999997E+02  0.45594000000E+02  0.51100000000E-03 0. -1.
    9900012    2    1    2    0    0  0.22487146112E+02 -0.17532677739E+02 -0.32719366851E+02  0.47787268484E+02  0.19999988327E+02 0.  0.
        -12    1    1    2    0    0 -0.22487146112E+02  0.17532677739E+02  0.32719366851E+02  0.43400731516E+02  0.00000000000E+00 0.  1.
         11    1    3    3    0    0  0.31921992748E+01 -0.21210912166E+01 -0.30547386289E+01  0.49010807493E+01  0.51100000000E-03 0. -1.
        -11    1    3    3    0    0  0.45812082875E+01  0.31703422362E+01 -0.12303435631E+02  0.13506038200E+02  0.51100000000E-03 0.  1.
        -12    1    3    3    0    0  0.14713738550E+02 -0.18581928759E+02 -0.17361192591E+02  0.29380149535E+02  0.00000000000E+00 0.  1.
</event>
<event>
 7    1  0.4356471E-010  0.4778727E+02  0.7816164E-02  0.1312668E+00
        -11   -1    0    0    0    0  0.00000000000E+00  0.00000000000E+00  0.45593999997E+02  0.45594000000E+02  0.51100000000E-03 0. -1.
         11   -1    0    0    0    0 -0.00000000000E+00 -0.00000000000E+00 -0.45593999997E+02  0.45594000000E+02  0.51100000000E-03 0.  1.
    9900012    2    1    2    0    0  0.39555244296E+02 -0.17733916160E+02  0.21246587036E+01  0.47787270648E+02  0.19999998191E+02 0.  0.
        -12    1    1    2    0    0 -0.39555244296E+02  0.17733916160E+02 -0.21246587036E+01  0.43400729352E+02  0.00000000000E+00 0.  1.
         11    1    3    3    0    0  0.42890124866E+01 -0.73592874648E+01 -0.33811677323E+01  0.91644440963E+01  0.51100000000E-03 0. -1.
        -11    1    3    3    0    0  0.23620045333E+01  0.18493071024E+01 -0.40540794169E+00  0.30271039021E+01  0.51100000000E-03 0.  1.
         12    1    3    3    0    0  0.32904227276E+02 -0.12223935798E+02  0.59112343776E+01  0.35595722649E+02  0.00000000000E+00 0. -1.
</event>
<event>
 7    1  0.4356471E-010  0.4778727E+02  0.7816164E-02  0.1312668E+00
        -11   -1    0    0    0    0  0.00000000000E+00  0.00000000000E+00  0.45593999997E+02  0.45594000000E+02  0.51100000000E-03 0.  1.
         11   -1    0    0    0    0 -0.00000000000E+00 -0.00000000000E+00 -0.45593999997E+02  0.45594000000E+02  0.51100000000E-03 0. -1.
    9900012    2    1    2    0    0  0.27726124898E+02  0.27927436864E+02 -0.18301468756E+02  0.47787268551E+02  0.19999988634E+02 0.  0.
        -12    1    1    2    0    0 -0.27726124898E+02 -0.27927436864E+02  0.18301468756E+02  0.43400731449E+02  0.00000000000E+00 0.  1.
         11    1    3    3    0    0  0.16148339099E+02  0.17471107911E+02 -0.44238316878E+01  0.24198734561E+02  0.51100000000E-03 0. -1.
        -11    1    3    3    0    0  0.39690150256E+01  0.65557176036E+00  0.10696091948E+01  0.41625615547E+01  0.51100000000E-03 0.  1.
        -12    1    3    3    0    0  0.76087707733E+01  0.98007571925E+01 -0.14947246263E+02  0.19425972435E+02  0.00000000000E+00 0.  1.
</event>
<event>
 7    1  0.4356471E-010  0.4778727E+02  0.7816164E-02  0.1312668E+00
        -11   -1    0    0    0    0  0.00000000000E+00  0.00000000000E+00  0.45593999997E+02  0.45594000000E+02  0.51100000000E-03 0.  1.
         11   -1    0    0    0    0 -0.00000000000E+00 -0.00000000000E+00 -0.45593999997E+02  0.45594000000E+02  0.51100000000E-03 0. -1.
    9900012    2    1    2    0    0 -0.38524068731E+01  0.39562128942E+02 -0.17424700939E+02  0.47787270882E+02  0.19999999261E+02 0.  0.
        -12    1    1    2    0    0  0.38524068731E+01 -0.39562128942E+02  0.17424700939E+02  0.43400729118E+02  0.00000000000E+00 0.  1.
         11    1    3    3    0    0 -0.27798590337E+00  0.56682819733E+01  0.33605884993E+01  0.65954720843E+01  0.51100000000E-03 0.  1.
        -11    1    3    3    0    0  0.58183625920E+00  0.90780882661E-01 -0.24349603379E+01  0.25051560250E+01  0.51100000000E-03 0. -1.
         12    1    3    3    0    0 -0.41562572290E+01  0.33803066086E+02 -0.18350329100E+02  0.38686642773E+02  0.00000000000E+00 0. -1.
</event>
<event>
 7    1  0.4356471E-010  0.4778727E+02  0.7816164E-02  0.1312668E+00
        -11   -1    0    0    0    0  0.00000000000E+00  0.00000000000E+00  0.45593999997E+02  0.45594000000E+02  0.51100000000E-03 0. -1.
         11   -1    0    0    0    0 -0.00000000000E+00 -0.00000000000E+00 -0.45593999997E+02  0.45594000000E+02  0.51100000000E-03 0.  1.
    9900012    2    1    2    0    0 -0.11044866179E+01 -0.36184928805E+00  0.43385163860E+02  0.47787271103E+02  0.20000000268E+02 0.  0.
        -12    1    1    2    0    0  0.11044866179E+01  0.36184928805E+00 -0.43385163860E+02  0.43400728897E+02  0.00000000000E+00 0.  1.
         11    1    3    3    0    0 -0.34709639242E+00  0.22717921151E+01  0.61624532692E+01  0.65770316919E+01  0.51100000000E-03 0. -1.
        -11    1    3    3    0    0 -0.72723875284E+01  0.39665649926E+01  0.15115593102E+02  0.17236658995E+02  0.51100000000E-03 0.  1.
         12    1    3    3    0    0  0.65149973029E+01 -0.66002063958E+01  0.22107117489E+02  0.23973580417E+02  0.00000000000E+00 0. -1.
</event>
<event>
 7    1  0.4356471E-010  0.4778728E+02  0.7816164E-02  0.1312668E+00
        -11   -1    0    0    0    0  0.00000000000E+00  0.00000000000E+00  0.45593999997E+02  0.45594000000E+02  0.51100000000E-03 0.  1.
         11   -1    0    0    0    0 -0.00000000000E+00 -0.00000000000E+00 -0.45593999997E+02  0.45594000000E+02  0.51100000000E-03 0. -1.
    9900012    2    1    2    0    0  0.33173711650E+02  0.67828711830E+01 -0.27149961028E+02  0.47787275698E+02  0.20000021217E+02 0.  0.
        -12    1    1    2    0    0 -0.33173711650E+02 -0.67828711830E+01  0.27149961028E+02  0.43400724302E+02  0.00000000000E+00 0.  1.
         11    1    3    3    0    0  0.12267987325E+02  0.84808730253E+00 -0.33371142185E+01  0.12742020901E+02  0.51100000000E-03 0.  1.
        -11    1    3    3    0    0  0.48511865009E+01  0.23670775251E+00  0.98863631634E+00  0.49565555634E+01  0.51100000000E-03 0. -1.
         12    1    3    3    0    0  0.16054537824E+02  0.56980761280E+01 -0.24801483126E+02  0.30088699233E+02  0.00000000000E+00 0. -1.
</event>
<event>
 7    1  0.4356471E-010  0.4778727E+02  0.7816164E-02  0.1312668E+00
        -11   -1    0    0    0    0  0.00000000000E+00  0.00000000000E+00  0.45593999997E+02  0.45594000000E+02  0.51100000000E-03 0. -1.
         11   -1    0    0    0    0 -0.00000000000E+00 -0.00000000000E+00 -0.45593999997E+02  0.45594000000E+02  0.51100000000E-03 0.  1.
    9900012    2    1    2    0    0  0.48886265042E+00  0.96601809457E+01  0.42309163820E+02  0.47787269295E+02  0.19999992023E+02 0.  0.
        -12    1    1    2    0    0 -0.48886265042E+00 -0.96601809457E+01 -0.42309163820E+02  0.43400730705E+02  0.00000000000E+00 0.  1.
         11    1    3    3    0    0  0.55908853594E+01  0.13775305415E+01  0.10097038768E+02  0.11623501264E+02  0.51100000000E-03 0. -1.
        -11    1    3    3    0    0 -0.25743825506E+01 -0.39717839847E+00 -0.10402924777E+00  0.26069174406E+01  0.51100000000E-03 0.  1.
         12    1    3    3    0    0 -0.25276401584E+01  0.86798288026E+01  0.32316154299E+02  0.33556850590E+02  0.00000000000E+00 0. -1.
</event>
<event>
 7    1  0.4356471E-010  0.4778727E+02  0.7816164E-02  0.1312668E+00
        -11   -1    0    0    0    0  0.00000000000E+00  0.00000000000E+00  0.45593999997E+02  0.45594000000E+02  0.51100000000E-03 0.  1.
         11   -1    0    0    0    0 -0.00000000000E+00 -0.00000000000E+00 -0.45593999997E+02  0.45594000000E+02  0.51100000000E-03 0. -1.
    9900012    2    1    2    0    0 -0.94741570725E+01  0.32969310449E+02 -0.26587375471E+02  0.47787267078E+02  0.19999981917E+02 0.  0.
        -12    1    1    2    0    0  0.94741570725E+01 -0.32969310449E+02  0.26587375471E+02  0.43400732922E+02  0.00000000000E+00 0.  1.
         11    1    3    3    0    0 -0.45881540503E+00  0.60750843034E+01 -0.12891900074E+02  0.14258970813E+02  0.51100000000E-03 0. -1.
        -11    1    3    3    0    0 -0.32072187385E+01  0.22579333160E+00 -0.22908413488E+01  0.39478081275E+01  0.51100000000E-03 0.  1.
        -12    1    3    3    0    0 -0.58081229290E+01  0.26668432814E+02 -0.11404634049E+02  0.29580488138E+02  0.00000000000E+00 0.  1.
</event>
<event>
 7    1  0.4356471E-010  0.4778726E+02  0.7816164E-02  0.1312668E+00
        -11   -1    0    0    0    0  0.00000000000E+00  0.00000000000E+00  0.45593999997E+02  0.45594000000E+02  0.51100000000E-03 0.  1.
         11   -1    0    0    0    0 -0.00000000000E+00 -0.00000000000E+00 -0.45593999997E+02  0.45594000000E+02  0.51100000000E-03 0. -1.
    9900012    2    1    2    0    0 -0.17990504533E+01 -0.33052829640E+02 -0.28069524800E+02  0.47787258621E+02  0.19999943357E+02 0.  0.
        -12    1    1    2    0    0  0.17990504533E+01  0.33052829640E+02  0.28069524800E+02  0.43400741379E+02  0.00000000000E+00 0.  1.
         11    1    3    3    0    0 -0.13022062382E+00 -0.15262802855E+02 -0.14123125725E+02  0.20795018367E+02  0.51100000000E-03 0. -1.
        -11    1    3    3    0    0 -0.76735386976E+01 -0.12375398480E+02 -0.63069068411E+01  0.15868546179E+02  0.51100000000E-03 0.  1.
         12    1    3    3    0    0  0.60047088681E+01 -0.54146283056E+01 -0.76394922332E+01  0.11123694074E+02  0.00000000000E+00 0. -1.
</event>
<event>
 7    1  0.4356471E-010  0.4778728E+02  0.7816164E-02  0.1312668E+00
        -11   -1    0    0    0    0  0.00000000000E+00  0.00000000000E+00  0.45593999997E+02  0.45594000000E+02  0.51100000000E-03 0. -1.
         11   -1    0    0    0    0 -0.00000000000E+00 -0.00000000000E+00 -0.45593999997E+02  0.45594000000E+02  0.51100000000E-03 0.  1.
    9900012    2    1    2    0    0  0.43260852598E+01  0.41448600336E+02  0.12121110692E+02  0.47787276412E+02  0.20000024475E+02 0.  0.
        -12    1    1    2    0    0 -0.43260852598E+01 -0.41448600336E+02 -0.12121110692E+02  0.43400723588E+02  0.00000000000E+00 0.  1.
         11    1    3    3    0    0 -0.24190814185E+01  0.30544301520E+02  0.13493631800E+02  0.33479611851E+02  0.51100000000E-03 0. -1.
        -11    1    3    3    0    0 -0.65909899701E+00  0.11950627167E+01  0.12137723418E+01  0.18264254552E+01  0.51100000000E-03 0.  1.
        -12    1    3    3    0    0  0.74042656753E+01  0.97092360997E+01 -0.25862934497E+01  0.12481239107E+02  0.00000000000E+00 0.  1.
</event>
<event>
 7    1  0.4356471E-010  0.4778727E+02  0.7816164E-02  0.1312668E+00
        -11   -1    0    0    0    0  0.00000000000E+00  0.00000000000E+00  0.45593999997E+02  0.45594000000E+02  0.51100000000E-03 0.  1.
         11   -1    0    0    0    0 -0.00000000000E+00 -0.00000000000E+00 -0.45593999997E+02  0.45594000000E+02  0.51100000000E-03 0. -1.
    9900012    2    1    2    0    0  0.37884713872E+02  0.85261928404E+01 -0.19382353306E+02  0.47787272712E+02  0.20000007601E+02 0.  0.
        -12    1    1    2    0    0 -0.37884713872E+02 -0.85261928404E+01  0.19382353306E+02  0.43400727288E+02  0.00000000000E+00 0.  1.
         11    1    3    3    0    0  0.27011447995E+01 -0.35661937312E+00 -0.32738782262E+01  0.42593003541E+01  0.51100000000E-03 0. -1.
        -11    1    3    3    0    0  0.37157847053E+02  0.81266189716E+01 -0.16347535994E+02  0.41400355878E+02  0.51100000000E-03 0.  1.
        -12    1    3    3    0    0 -0.19742779802E+01  0.75619324192E+00  0.23906091472E+00  0.21276164793E+01  0.00000000000E+00 0.  1.
</event>
<event>
 7    1  0.4356471E-010  0.4778727E+02  0.7816164E-02  0.1312668E+00
        -11   -1    0    0    0    0  0.00000000000E+00  0.00000000000E+00  0.45593999997E+02  0.45594000000E+02  0.51100000000E-03 0.  1.
         11   -1    0    0    0    0 -0.00000000000E+00 -0.00000000000E+00 -0.45593999997E+02  0.45594000000E+02  0.51100000000E-03 0. -1.
    9900012    2    1    2    0    0 -0.33524040065E+02 -0.80663334981E+01 -0.26357089903E+02  0.47787272051E+02  0.20000004589E+02 0.  0.
        -12    1    1    2    0    0  0.33524040065E+02  0.80663334981E+01  0.26357089903E+02  0.43400727949E+02  0.00000000000E+00 0.  1.
         11    1    3    3    0    0  0.97325624849E+00 -0.18802493993E+01 -0.22347723918E+01  0.30784368490E+01  0.51100000000E-03 0. -1.
        -11    1    3    3    0    0 -0.16989518420E+02 -0.62016024742E+00 -0.19290415472E+02  0.25712807397E+02  0.51100000000E-03 0.  1.
         12    1    3    3    0    0 -0.17507777893E+02 -0.55659238514E+01 -0.48319020393E+01  0.18996027805E+02  0.00000000000E+00 0. -1.
</event>
<event>
 7    1  0.4356471E-010  0.4778727E+02  0.7816164E-02  0.1312668E+00
        -11   -1    0    0    0    0  0.00000000000E+00  0.00000000000E+00  0.45593999997E+02  0.45594000000E+02  0.51100000000E-03 0.  1.
         11   -1    0    0    0    0 -0.00000000000E+00 -0.00000000000E+00 -0.45593999997E+02  0.45594000000E+02  0.51100000000E-03 0. -1.
    9900012    2    1    2    0    0 -0.30965288979E+01  0.40587456074E+02 -0.15056336500E+02  0.47787270161E+02  0.19999995972E+02 0.  0.
        -12    1    1    2    0    0  0.30965288979E+01 -0.40587456074E+02  0.15056336500E+02  0.43400729839E+02  0.00000000000E+00 0.  1.
         11    1    3    3    0    0 -0.63245890624E+01  0.25310149381E+02 -0.10100634753E+02  0.27975469812E+02  0.51100000000E-03 0. -1.
        -11    1    3    3    0    0  0.35635239533E+01  0.16953839405E+02 -0.37661618333E+01  0.17728940993E+02  0.51100000000E-03 0.  1.
        -12    1    3    3    0    0 -0.33546378880E+00 -0.16765327124E+01 -0.11895399141E+01  0.20828593559E+01  0.00000000000E+00 0.  1.
</event>
<event>
 7    1  0.4356471E-010  0.4778727E+02  0.7816164E-02  0.1312668E+00
        -11   -1    0    0    0    0  0.00000000000E+00  0.00000000000E+00  0.45593999997E+02  0.45594000000E+02  0.51100000000E-03 0.  1.
         11   -1    0    0    0    0 -0.00000000000E+00 -0.00000000000E+00 -0.45593999997E+02  0.45594000000E+02  0.51100000000E-03 0. -1.
    9900012    2    1    2    0    0  0.30756877005E+02  0.11525107181E+02 -0.28369168152E+02  0.47787270971E+02  0.19999999664E+02 0.  0.
        -12    1    1    2    0    0 -0.30756877005E+02 -0.11525107181E+02  0.28369168152E+02  0.43400729029E+02  0.00000000000E+00 0.  1.
         11    1    3    3    0    0  0.44425581830E+00  0.10218284562E+01 -0.30662699981E+01  0.32624390551E+01  0.51100000000E-03 0. -1.
        -11    1    3    3    0    0  0.26149618132E+02  0.10015949140E+02 -0.11800894154E+02  0.30387215548E+02  0.51100000000E-03 0.  1.
        -12    1    3    3    0    0  0.41630030548E+01  0.48732958422E+00 -0.13502004000E+02  0.14137616368E+02  0.00000000000E+00 0.  1.
</event>
<event>
 7    1  0.4356471E-010  0.4778728E+02  0.7816164E-02  0.1312668E+00
        -11   -1    0    0    0    0  0.00000000000E+00  0.00000000000E+00  0.45593999997E+02  0.45594000000E+02  0.51100000000E-03 0. -1.
         11   -1    0    0    0    0 -0.00000000000E+00 -0.00000000000E+00 -0.45593999997E+02  0.45594000000E+02  0.51100000000E-03 0.  1.
    9900012    2    1    2    0    0  0.39557874744E+02  0.16068863856E+02 -0.77838764424E+01  0.47787279126E+02  0.20000036848E+02 0.  0.
        -12    1    1    2    0    0 -0.39557874744E+02 -0.16068863856E+02  0.77838764424E+01  0.43400720874E+02  0.00000000000E+00 0.  1.
         11    1    3    3    0    0  0.22858456144E+02  0.77787233793E+01  0.38778999805E+01  0.24455176614E+02  0.51100000000E-03 0. -1.
        -11    1    3    3    0    0  0.41031268354E+01 -0.95314935541E+00 -0.75906773953E+00  0.42802251828E+01  0.51100000000E-03 0.  1.
        -12    1    3    3    0    0  0.12596291764E+02  0.92432898319E+01 -0.10902708683E+02  0.19051877329E+02  0.00000000000E+00 0.  1.
</event>
<event>
 7    1  0.4356471E-010  0.4778727E+02  0.7816164E-02  0.1312668E+00
        -11   -1    0    0    0    0  0.00000000000E+00  0.00000000000E+00  0.45593999997E+02  0.45594000000E+02  0.51100000000E-03 0. -1.
         11   -1    0    0    0    0 -0.00000000000E+00 -0.00000000000E+00 -0.45593999997E+02  0.45594000000E+02  0.51100000000E-03 0.  1.
    9900012    2    1    2    0    0 -0.17928541504E+02  0.38577265682E+02  0.86014835943E+01  0.47787267887E+02  0.19999985603E+02 0.  0.
        -12    1    1    2    0    0  0.17928541504E+02 -0.38577265682E+02 -0.86014835943E+01  0.43400732113E+02  0.00000000000E+00 0.  1.
         11    1    3    3    0    0 -0.11879690675E+01 -0.31264374245E+00  0.21397766559E+01  0.24673185877E+01  0.51100000000E-03 0. -1.
        -11    1    3    3    0    0 -0.54533715266E+00  0.15899370625E+02 -0.17979868769E+01  0.16010001122E+02  0.51100000000E-03 0.  1.
        -12    1    3    3    0    0 -0.16195235284E+02  0.22990538799E+02  0.82596938154E+01  0.29309948177E+02  0.00000000000E+00 0.  1.
</event>
<event>
 7    1  0.4356471E-010  0.4778727E+02  0.7816164E-02  0.1312668E+00
        -11   -1    0    0    0    0  0.00000000000E+00  0.00000000000E+00  0.45593999997E+02  0.45594000000E+02  0.51100000000E-03 0.  1.
         11   -1    0    0    0    0 -0.00000000000E+00 -0.00000000000E+00 -0.45593999997E+02  0.45594000000E+02  0.51100000000E-03 0. -1.
    9900012    2    1    2    0    0 -0.20532410518E+02  0.22125810794E+02 -0.31184800718E+02  0.47787272116E+02  0.20000004888E+02 0.  0.
        -12    1    1    2    0    0  0.20532410518E+02 -0.22125810794E+02  0.31184800718E+02  0.43400727884E+02  0.00000000000E+00 0.  1.
         11    1    3    3    0    0  0.13281118239E+01 -0.19147268491E+00  0.76840757342E+00  0.15462836952E+01  0.51100000000E-03 0. -1.
        -11    1    3    3    0    0 -0.51116364129E+01  0.13076855058E+01 -0.12138585854E+01  0.54140854376E+01  0.51100000000E-03 0.  1.
         12    1    3    3    0    0 -0.16748885929E+02  0.21009597974E+02 -0.30739349706E+02  0.40826902984E+02  0.00000000000E+00 0. -1.
</event>
<event>
 7    1  0.4356471E-010  0.4778727E+02  0.7816164E-02  0.1312668E+00
        -11   -1    0    0    0    0  0.00000000000E+00  0.00000000000E+00  0.45593999997E+02  0.45594000000E+02  0.51100000000E-03 0. -1.
         11   -1    0    0    0    0 -0.00000000000E+00 -0.00000000000E+00 -0.45593999997E+02  0.45594000000E+02  0.51100000000E-03 0.  1.
    9900012    2    1    2    0    0 -0.21550053852E+02  0.37006743060E+02 -0.70512015965E+01  0.47787270779E+02  0.19999998792E+02 0.  0.
        -12    1    1    2    0    0  0.21550053852E+02 -0.37006743060E+02  0.70512015965E+01  0.43400729221E+02  0.00000000000E+00 0.  1.
         11    1    3    3    0    0 -0.61960084509E+01  0.14671408271E+02 -0.39724768715E+01  0.16414058430E+02  0.51100000000E-03 0. -1.
        -11    1    3    3    0    0 -0.18117954233E+02  0.16259431387E+02 -0.38765100442E+01  0.24650693804E+02  0.51100000000E-03 0.  1.
         12    1    3    3    0    0  0.27639088323E+01  0.60759034018E+01  0.79778531929E+00  0.67225185457E+01  0.00000000000E+00 0. -1.
</event>
<event>
 7    1  0.4356471E-010  0.4778727E+02  0.7816164E-02  0.1312668E+00
        -11   -1    0    0    0    0  0.00000000000E+00  0.00000000000E+00  0.45593999997E+02  0.45594000000E+02  0.51100000000E-03 0.  1.
         11   -1    0    0    0    0 -0.00000000000E+00 -0.00000000000E+00 -0.45593999997E+02  0.45594000000E+02  0.51100000000E-03 0. -1.
    9900012    2    1    2    0    0  0.13965619531E+02  0.16460461184E+02 -0.37651532371E+02  0.47787271882E+02  0.20000003820E+02 0.  0.
        -12    1    1    2    0    0 -0.13965619531E+02 -0.16460461184E+02  0.37651532371E+02  0.43400728118E+02  0.00000000000E+00 0.  1.
         11    1    3    3    0    0  0.34534608744E+01  0.85196646114E+01 -0.63490832577E+01  0.11172373766E+02  0.51100000000E-03 0. -1.
        -11    1    3    3    0    0  0.43022401617E+01 -0.45739336495E+00 -0.83430206167E+00  0.44061932879E+01  0.51100000000E-03 0.  1.
         12    1    3    3    0    0  0.62099184946E+01  0.83981899373E+01 -0.30468147052E+02  0.32208704828E+02  0.00000000000E+00 0. -1.
</event>
<event>
 7    1  0.4356471E-010  0.4778728E+02  0.7816164E-02  0.1312668E+00
        -11   -1    0    0    0    0  0.00000000000E+00  0.00000000000E+00  0.45593999997E+02  0.45594000000E+02  0.51100000000E-03 0.  1.
         11   -1    0    0    0    0 -0.00000000000E+00 -0.00000000000E+00 -0.45593999997E+02  0.45594000000E+02  0.51100000000E-03 0. -1.
    9900012    2    1    2    0    0 -0.21843524310E+02 -0.20392860559E+02 -0.31474028801E+02  0.47787276446E+02  0.20000024626E+02 0.  0.
        -12    1    1    2    0    0  0.21843524310E+02  0.20392860559E+02  0.31474028801E+02  0.43400723554E+02  0.00000000000E+00 0.  1.
         11    1    3    3    0    0 -0.28771580933E+01 -0.13456245475E+01 -0.17367986864E+01  0.36201124367E+01  0.51100000000E-03 0. -1.
        -11    1    3    3    0    0 -0.13810157976E+02 -0.20372830527E+02 -0.15799308639E+02  0.29247065507E+02  0.51100000000E-03 0.  1.
         12    1    3    3    0    0 -0.51562082409E+01  0.13255945161E+01 -0.13937921476E+02  0.14920098502E+02  0.00000000000E+00 0. -1.
</event>
<event>
 7    1  0.4356471E-010  0.4778728E+02  0.7816164E-02  0.1312668E+00
        -11   -1    0    0    0    0  0.00000000000E+00  0.00000000000E+00  0.45593999997E+02  0.45594000000E+02  0.51100000000E-03 0.  1.
         11   -1    0    0    0    0 -0.00000000000E+00 -0.00000000000E+00 -0.45593999997E+02  0.45594000000E+02  0.51100000000E-03 0. -1.
    9900012    2    1    2    0    0  0.36315425987E+02 -0.17870465075E+02 -0.15667131266E+02  0.47787277785E+02  0.20000030735E+02 0.  0.
        -12    1    1    2    0    0 -0.36315425987E+02  0.17870465075E+02  0.15667131266E+02  0.43400722215E+02  0.00000000000E+00 0.  1.
         11    1    3    3    0    0  0.76397609543E+00  0.70398360689E+00 -0.60921117358E+00  0.12043217628E+01  0.51100000000E-03 0. -1.
        -11    1    3    3    0    0  0.16877345186E+02 -0.20066398062E+01  0.78763588104E+00  0.17014457217E+02  0.51100000000E-03 0.  1.
         12    1    3    3    0    0  0.18674104705E+02 -0.16567808876E+02 -0.15845555974E+02  0.29568498806E+02  0.00000000000E+00 0. -1.
</event>
<event>
 7    1  0.4356471E-010  0.4778727E+02  0.7816164E-02  0.1312668E+00
        -11   -1    0    0    0    0  0.00000000000E+00  0.00000000000E+00  0.45593999997E+02  0.45594000000E+02  0.51100000000E-03 0.  1.
         11   -1    0    0    0    0 -0.00000000000E+00 -0.00000000000E+00 -0.45593999997E+02  0.45594000000E+02  0.51100000000E-03 0. -1.
    9900012    2    1    2    0    0 -0.37701874806E+02  0.77285253137E+01 -0.20061450425E+02  0.47787271198E+02  0.20000000700E+02 0.  0.
        -12    1    1    2    0    0  0.37701874806E+02 -0.77285253137E+01  0.20061450425E+02  0.43400728802E+02  0.00000000000E+00 0.  1.
         11    1    3    3    0    0 -0.89421023150E+01  0.57769946539E+01 -0.15026936218E+00  0.10646945204E+02  0.51100000000E-03 0.  1.
        -11    1    3    3    0    0 -0.29347257619E+02  0.33532491048E+01 -0.19907585949E+02  0.35620468665E+02  0.51100000000E-03 0. -1.
         12    1    3    3    0    0  0.58748512858E+00 -0.14017184450E+01 -0.35951142284E-02  0.15198573289E+01  0.00000000000E+00 0. -1.
</event>
<event>
 7    1  0.4356471E-010  0.4778728E+02  0.7816164E-02  0.1312668E+00
        -11   -1    0    0    0    0  0.00000000000E+00  0.00000000000E+00  0.45593999997E+02  0.45594000000E+02  0.51100000000E-03 0. -1.
         11   -1    0    0    0    0 -0.00000000000E+00 -0.00000000000E+00 -0.45593999997E+02  0.45594000000E+02  0.51100000000E-03 0.  1.
    9900012    2    1    2    0    0 -0.52580774817E+01  0.30397791628E+02  0.30527847674E+02  0.47787278828E+02  0.20000035489E+02 0.  0.
        -12    1    1    2    0    0  0.52580774817E+01 -0.30397791628E+02 -0.30527847674E+02  0.43400721172E+02  0.00000000000E+00 0.  1.
         11    1    3    3    0    0  0.10451935390E+01  0.18402747411E+02  0.19134203523E+02  0.26568238303E+02  0.51100000000E-03 0. -1.
        -11    1    3    3    0    0  0.22187773126E+01  0.59364360225E+01  0.89273501056E+00  0.64000954268E+01  0.51100000000E-03 0.  1.
        -12    1    3    3    0    0 -0.85220483332E+01  0.60586081935E+01  0.10500909141E+02  0.14818945098E+02  0.00000000000E+00 0.  1.
</event>
<event>
 7    1  0.4356471E-010  0.4778727E+02  0.7816164E-02  0.1312668E+00
        -11   -1    0    0    0    0  0.00000000000E+00  0.00000000000E+00  0.45593999997E+02  0.45594000000E+02  0.51100000000E-03 0.  1.
         11   -1    0    0    0    0 -0.00000000000E+00 -0.00000000000E+00 -0.45593999997E+02  0.45594000000E+02  0.51100000000E-03 0. -1.
    9900012    2    1    2    0    0 -0.13762466664E+02  0.11794062483E+02 -0.39434982472E+02  0.47787271422E+02  0.20000001719E+02 0.  0.
        -12    1    1    2    0    0  0.13762466664E+02 -0.11794062483E+02  0.39434982472E+02  0.43400728578E+02  0.00000000000E+00 0.  1.
         11    1    3    3    0    0 -0.10848020222E+01  0.64442260635E+01 -0.96284687516E+01  0.11636677178E+02  0.51100000000E-03 0. -1.
        -11    1    3    3    0    0 -0.13008879990E+02  0.58356297781E+01 -0.12880558532E+02  0.19214430043E+02  0.51100000000E-03 0.  1.
         12    1    3    3    0    0  0.33121534765E+00 -0.48579335840E+00 -0.16925955189E+02  0.16936164201E+02  0.00000000000E+00 0. -1.
</event>
<event>
 7    1  0.4356471E-010  0.4778728E+02  0.7816164E-02  0.1312668E+00
        -11   -1    0    0    0    0  0.00000000000E+00  0.00000000000E+00  0.45593999997E+02  0.45594000000E+02  0.51100000000E-03 0.  1.
         11   -1    0    0    0    0 -0.00000000000E+00 -0.00000000000E+00 -0.45593999997E+02  0.45594000000E+02  0.51100000000E-03 0. -1.
    9900012    2    1    2    0    0 -0.44347249904E+01  0.70584421944E+01 -0.42592658162E+02  0.47787275107E+02  0.20000018521E+02 0.  0.
        -12    1    1    2    0    0  0.44347249904E+01 -0.70584421944E+01  0.42592658162E+02  0.43400724893E+02  0.00000000000E+00 0.  1.
         11    1    3    3    0    0  0.94549483188E-01 -0.24487602362E+01 -0.12233759137E+02  0.12476787614E+02  0.51100000000E-03 0. -1.
        -11    1    3    3    0    0  0.32492930228E+01 -0.22369833721E+01 -0.64929486434E+01  0.75973931123E+01  0.51100000000E-03 0.  1.
         12    1    3    3    0    0 -0.77785674965E+01  0.11744185803E+02 -0.23865950382E+02  0.27713094380E+02  0.00000000000E+00 0. -1.
</event>
<event>
 7    1  0.4356471E-010  0.4778727E+02  0.7816164E-02  0.1312668E+00
        -11   -1    0    0    0    0  0.00000000000E+00  0.00000000000E+00  0.45593999997E+02  0.45594000000E+02  0.51100000000E-03 0.  1.
         11   -1    0    0    0    0 -0.00000000000E+00 -0.00000000000E+00 -0.45593999997E+02  0.45594000000E+02  0.51100000000E-03 0. -1.
    9900012    2    1    2    0    0 -0.26976269683E+02  0.33938601435E+02  0.20187299738E+01  0.47787273462E+02  0.20000011023E+02 0.  0.
        -12    1    1    2    0    0  0.26976269683E+02 -0.33938601435E+02 -0.20187299738E+01  0.43400726538E+02  0.00000000000E+00 0.  1.
         11    1    3    3    0    0 -0.86132441017E+01  0.56995968753E+01  0.13507584629E+01  0.10416233829E+02  0.51100000000E-03 0. -1.
        -11    1    3    3    0    0 -0.21311182035E+02  0.24815512847E+02 -0.46265459671E+00  0.32713761740E+02  0.51100000000E-03 0.  1.
        -12    1    3    3    0    0  0.29481564544E+01  0.34234917119E+01  0.11306261076E+01  0.46572778934E+01  0.00000000000E+00 0.  1.
</event>
<event>
 7    1  0.4356471E-010  0.4778727E+02  0.7816164E-02  0.1312668E+00
        -11   -1    0    0    0    0  0.00000000000E+00  0.00000000000E+00  0.45593999997E+02  0.45594000000E+02  0.51100000000E-03 0.  1.
         11   -1    0    0    0    0 -0.00000000000E+00 -0.00000000000E+00 -0.45593999997E+02  0.45594000000E+02  0.51100000000E-03 0. -1.
    9900012    2    1    2    0    0  0.84669989167E+01  0.32982431932E+02 -0.26908960189E+02  0.47787273908E+02  0.20000013058E+02 0.  0.
        -12    1    1    2    0    0 -0.84669989167E+01 -0.32982431932E+02  0.26908960189E+02  0.43400726092E+02  0.00000000000E+00 0.  1.
         11    1    3    3    0    0  0.74122852404E+01  0.19476078116E+02 -0.22597984704E+02  0.30739689396E+02  0.51100000000E-03 0. -1.
        -11    1    3    3    0    0  0.23530150504E+01  0.95397237520E+01 -0.70164913467E+01  0.12073697038E+02  0.51100000000E-03 0.  1.
        -12    1    3    3    0    0 -0.12983013741E+01  0.39666300645E+01  0.27055158613E+01  0.49738874739E+01  0.00000000000E+00 0.  1.
</event>
<event>
 7    1  0.4356471E-010  0.4778727E+02  0.7816164E-02  0.1312668E+00
        -11   -1    0    0    0    0  0.00000000000E+00  0.00000000000E+00  0.45593999997E+02  0.45594000000E+02  0.51100000000E-03 0.  1.
         11   -1    0    0    0    0 -0.00000000000E+00 -0.00000000000E+00 -0.45593999997E+02  0.45594000000E+02  0.51100000000E-03 0. -1.
    9900012    2    1    2    0    0 -0.11967485016E+02 -0.25620626000E+01 -0.41639386157E+02  0.47787270261E+02  0.19999996428E+02 0.  0.
        -12    1    1    2    0    0  0.11967485016E+02  0.25620626000E+01  0.41639386157E+02  0.43400729739E+02  0.00000000000E+00 0.  1.
         11    1    3    3    0    0  0.22042170092E+01  0.15553255693E+01 -0.34176100779E+01  0.43540405551E+01  0.51100000000E-03 0. -1.
        -11    1    3    3    0    0  0.24641746578E+01 -0.27260630294E+01 -0.98674787861E+01  0.10529516335E+02  0.51100000000E-03 0.  1.
         12    1    3    3    0    0 -0.16635876683E+02 -0.13913251398E+01 -0.28354297293E+02  0.32903713371E+02  0.00000000000E+00 0. -1.
</event>
<event>
 7    1  0.4356471E-010  0.4778727E+02  0.7816164E-02  0.1312668E+00
        -11   -1    0    0    0    0  0.00000000000E+00  0.00000000000E+00  0.45593999997E+02  0.45594000000E+02  0.51100000000E-03 0.  1.
         11   -1    0    0    0    0 -0.00000000000E+00 -0.00000000000E+00 -0.45593999997E+02  0.45594000000E+02  0.51100000000E-03 0. -1.
    9900012    2    1    2    0    0 -0.11656529043E+02 -0.25266601138E+02 -0.33306869300E+02  0.47787270226E+02  0.19999996267E+02 0.  0.
        -12    1    1    2    0    0  0.11656529043E+02  0.25266601138E+02  0.33306869300E+02  0.43400729774E+02  0.00000000000E+00 0.  1.
         11    1    3    3    0    0  0.26369509302E+01 -0.19880381978E+01 -0.10010980956E+02  0.10541610221E+02  0.51100000000E-03 0. -1.
        -11    1    3    3    0    0 -0.58924754912E+01 -0.65268403563E+01 -0.13468914427E+02  0.16085166103E+02  0.51100000000E-03 0.  1.
        -12    1    3    3    0    0 -0.84010044816E+01 -0.16751722584E+02 -0.98269739169E+01  0.21160493902E+02  0.00000000000E+00 0.  1.
</event>
<event>
 7    1  0.4356471E-010  0.4778726E+02  0.7816164E-02  0.1312668E+00
        -11   -1    0    0    0    0  0.00000000000E+00  0.00000000000E+00  0.45593999997E+02  0.45594000000E+02  0.51100000000E-03 0.  1.
         11   -1    0    0    0    0 -0.00000000000E+00 -0.00000000000E+00 -0.45593999997E+02  0.45594000000E+02  0.51100000000E-03 0. -1.
    9900012    2    1    2    0    0  0.17995596810E+01  0.36322809071E+02 -0.23686273350E+02  0.47787257851E+02  0.19999939847E+02 0.  0.
        -12    1    1    2    0    0 -0.17995596810E+01 -0.36322809071E+02  0.23686273350E+02  0.43400742149E+02  0.00000000000E+00 0.  1.
         11    1    3    3    0    0  0.36028438245E+01  0.17931468172E+02 -0.48187641158E+01  0.18913976903E+02  0.51100000000E-03 0. -1.
        -11    1    3    3    0    0 -0.46990292815E+00 -0.33606864170E-01  0.13839894001E+01  0.14619730175E+01  0.51100000000E-03 0.  1.
         12    1    3    3    0    0 -0.13333812153E+01  0.18424947763E+02 -0.20251498634E+02  0.27411307931E+02  0.00000000000E+00 0. -1.
</event>
<event>
 7    1  0.4356471E-010  0.4778727E+02  0.7816164E-02  0.1312668E+00
        -11   -1    0    0    0    0  0.00000000000E+00  0.00000000000E+00  0.45593999997E+02  0.45594000000E+02  0.51100000000E-03 0.  1.
         11   -1    0    0    0    0 -0.00000000000E+00 -0.00000000000E+00 -0.45593999997E+02  0.45594000000E+02  0.51100000000E-03 0. -1.
    9900012    2    1    2    0    0  0.93339603094E+01 -0.28384471784E+02 -0.31477324049E+02  0.47787274398E+02  0.20000015290E+02 0.  0.
        -12    1    1    2    0    0 -0.93339603094E+01  0.28384471784E+02  0.31477324049E+02  0.43400725602E+02  0.00000000000E+00 0.  1.
         11    1    3    3    0    0  0.50639680062E+01 -0.21298813186E+02 -0.16822313316E+02  0.27609299894E+02  0.51100000000E-03 0. -1.
        -11    1    3    3    0    0 -0.33156750813E+01 -0.69611287901E+00 -0.15053768370E+01  0.37073486574E+01  0.51100000000E-03 0.  1.
        -12    1    3    3    0    0  0.75856673845E+01 -0.63895457192E+01 -0.13149633896E+02  0.16470625846E+02  0.00000000000E+00 0.  1.
</event>
<event>
 7    1  0.4356471E-010  0.4778727E+02  0.7816164E-02  0.1312668E+00
        -11   -1    0    0    0    0  0.00000000000E+00  0.00000000000E+00  0.45593999997E+02  0.45594000000E+02  0.51100000000E-03 0.  1.
         11   -1    0    0    0    0 -0.00000000000E+00 -0.00000000000E+00 -0.45593999997E+02  0.45594000000E+02  0.51100000000E-03 0. -1.
    9900012    2    1    2    0    0  0.10888005206E+02  0.41880797236E+02  0.33276636337E+01  0.47787272129E+02  0.20000004943E+02 0.  0.
        -12    1    1    2    0    0 -0.10888005206E+02 -0.41880797236E+02 -0.33276636337E+01  0.43400727871E+02  0.00000000000E+00 0.  1.
         11    1    3    3    0    0  0.21898464768E+01  0.27519283993E+01  0.19714454424E+01  0.40317657298E+01  0.51100000000E-03 0. -1.
        -11    1    3    3    0    0  0.33463387744E+01  0.28724959940E+00 -0.27386472743E+01  0.43336687321E+01  0.51100000000E-03 0.  1.
         12    1    3    3    0    0  0.53518199549E+01  0.38841619238E+02  0.40948654656E+01  0.39421837667E+02  0.00000000000E+00 0. -1.
</event>
<event>
 7    1  0.4356471E-010  0.4778727E+02  0.7816164E-02  0.1312668E+00
        -11   -1    0    0    0    0  0.00000000000E+00  0.00000000000E+00  0.45593999997E+02  0.45594000000E+02  0.51100000000E-03 0.  1.
         11   -1    0    0    0    0 -0.00000000000E+00 -0.00000000000E+00 -0.45593999997E+02  0.45594000000E+02  0.51100000000E-03 0. -1.
    9900012    2    1    2    0    0  0.39894883728E+02  0.14953287041E+02 -0.82716862380E+01  0.47787270349E+02  0.19999996830E+02 0.  0.
        -12    1    1    2    0    0 -0.39894883728E+02 -0.14953287041E+02  0.82716862380E+01  0.43400729651E+02  0.00000000000E+00 0.  1.
         11    1    3    3    0    0  0.95865846747E+01  0.96585866370E+00 -0.17173660967E+01  0.97869727319E+01  0.51100000000E-03 0. -1.
        -11    1    3    3    0    0  0.24617920695E+02  0.17911534939E+02 -0.44042036206E+01  0.30761373718E+02  0.51100000000E-03 0.  1.
        -12    1    3    3    0    0  0.56903783580E+01 -0.39241065618E+01 -0.21501165206E+01  0.72389238992E+01  0.00000000000E+00 0.  1.
</event>
<event>
 7    1  0.4356471E-010  0.4778727E+02  0.7816164E-02  0.1312668E+00
        -11   -1    0    0    0    0  0.00000000000E+00  0.00000000000E+00  0.45593999997E+02  0.45594000000E+02  0.51100000000E-03 0.  1.
         11   -1    0    0    0    0 -0.00000000000E+00 -0.00000000000E+00 -0.45593999997E+02  0.45594000000E+02  0.51100000000E-03 0. -1.
    9900012    2    1    2    0    0  0.20351762732E+02 -0.78062337133E+01 -0.37529881783E+02  0.47787267775E+02  0.19999985091E+02 0.  0.
        -12    1    1    2    0    0 -0.20351762732E+02  0.78062337133E+01  0.37529881783E+02  0.43400732225E+02  0.00000000000E+00 0.  1.
         11    1    3    3    0    0  0.57040721145E+01 -0.22746604477E+01 -0.11509692931E+02  0.13045441751E+02  0.51100000000E-03 0. -1.
        -11    1    3    3    0    0  0.17670878408E+02 -0.66809466900E+01 -0.25030392477E+02  0.31359456950E+02  0.51100000000E-03 0.  1.
        -12    1    3    3    0    0 -0.30231877910E+01  0.11493734244E+01 -0.98979637496E+00  0.33823690739E+01  0.00000000000E+00 0.  1.
</event>
<event>
 7    1  0.4356471E-010  0.4778727E+02  0.7816164E-02  0.1312668E+00
        -11   -1    0    0    0    0  0.00000000000E+00  0.00000000000E+00  0.45593999997E+02  0.45594000000E+02  0.51100000000E-03 0.  1.
         11   -1    0    0    0    0 -0.00000000000E+00 -0.00000000000E+00 -0.45593999997E+02  0.45594000000E+02  0.51100000000E-03 0. -1.
    9900012    2    1    2    0    0 -0.29043703880E+00  0.43224606094E+02  0.38951687272E+01  0.47787271146E+02  0.20000000464E+02 0.  0.
        -12    1    1    2    0    0  0.29043703880E+00 -0.43224606094E+02 -0.38951687272E+01  0.43400728854E+02  0.00000000000E+00 0.  1.
         11    1    3    3    0    0  0.63128977784E+01  0.23306224035E+02 -0.48854347862E+01  0.24635345145E+02  0.51100000000E-03 0. -1.
        -11    1    3    3    0    0 -0.25201861581E+01  0.35703214194E+01  0.56831963376E+00  0.44069854522E+01  0.51100000000E-03 0.  1.
         12    1    3    3    0    0 -0.40831486592E+01  0.16348060640E+02  0.82122838797E+01  0.18744940549E+02  0.00000000000E+00 0. -1.
</event>
<event>
 7    1  0.4356471E-010  0.4778727E+02  0.7816164E-02  0.1312668E+00
        -11   -1    0    0    0    0  0.00000000000E+00  0.00000000000E+00  0.45593999997E+02  0.45594000000E+02  0.51100000000E-03 0.  1.
         11   -1    0    0    0    0 -0.00000000000E+00 -0.00000000000E+00 -0.45593999997E+02  0.45594000000E+02  0.51100000000E-03 0. -1.
    9900012    2    1    2    0    0  0.39861633269E+02 -0.16832399527E+02  0.33680494532E+01  0.47787271460E+02  0.20000001894E+02 0.  0.
        -12    1    1    2    0    0 -0.39861633269E+02  0.16832399527E+02 -0.33680494532E+01  0.43400728540E+02  0.00000000000E+00 0.  1.
         11    1    3    3    0    0  0.13479183859E+02 -0.10546241559E+02  0.43862412951E+01  0.17667787680E+02  0.51100000000E-03 0. -1.
        -11    1    3    3    0    0 -0.42236519381E+00 -0.99904160404E+00  0.23530506488E+01  0.25910083173E+01  0.51100000000E-03 0.  1.
         12    1    3    3    0    0  0.26804814604E+02 -0.52871163634E+01 -0.33712424906E+01  0.27528475463E+02  0.00000000000E+00 0. -1.
</event>
<event>
 7    1  0.4356471E-010  0.4778727E+02  0.7816164E-02  0.1312668E+00
        -11   -1    0    0    0    0  0.00000000000E+00  0.00000000000E+00  0.45593999997E+02  0.45594000000E+02  0.51100000000E-03 0.  1.
         11   -1    0    0    0    0 -0.00000000000E+00 -0.00000000000E+00 -0.45593999997E+02  0.45594000000E+02  0.51100000000E-03 0. -1.
    9900012    2    1    2    0    0 -0.15500895700E+02 -0.36419673725E+02 -0.17803167295E+02  0.47787272270E+02  0.20000005588E+02 0.  0.
        -12    1    1    2    0    0  0.15500895700E+02  0.36419673725E+02  0.17803167295E+02  0.43400727730E+02  0.00000000000E+00 0.  1.
         11    1    3    3    0    0 -0.34527752662E+01 -0.10218081238E+02 -0.31957984120E+01  0.11249176369E+02  0.51100000000E-03 0. -1.
        -11    1    3    3    0    0 -0.14018203587E+02 -0.15505838753E+02 -0.38763648499E+01  0.21259521913E+02  0.51100000000E-03 0.  1.
         12    1    3    3    0    0  0.19700831525E+01 -0.10695753733E+02 -0.10731004033E+02  0.15278573988E+02  0.00000000000E+00 0. -1.
</event>
<event>
 7    1  0.4356471E-010  0.4778728E+02  0.7816164E-02  0.1312668E+00
        -11   -1    0    0    0    0  0.00000000000E+00  0.00000000000E+00  0.45593999997E+02  0.45594000000E+02  0.51100000000E-03 0.  1.
         11   -1    0    0    0    0 -0.00000000000E+00 -0.00000000000E+00 -0.45593999997E+02  0.45594000000E+02  0.51100000000E-03 0. -1.
    9900012    2    1    2    0    0 -0.38278676150E+02 -0.11030842575E+02  0.17224573563E+02  0.47787280304E+02  0.20000042216E+02 0.  0.
        -12    1    1    2    0    0  0.38278676150E+02  0.11030842575E+02 -0.17224573563E+02  0.43400719696E+02  0.00000000000E+00 0.  1.
         11    1    3    3    0    0 -0.25243054279E+02 -0.83445708614E+01  0.65964396852E+01  0.27392638956E+02  0.51100000000E-03 0. -1.
        -11    1    3    3    0    0 -0.13504599078E+02  0.10447603900E+01  0.73762264574E+01  0.15423178581E+02  0.51100000000E-03 0.  1.
        -12    1    3    3    0    0  0.46897720575E+00 -0.37310321037E+01  0.32519074202E+01  0.49714627674E+01  0.00000000000E+00 0.  1.
</event>
<event>
 7    1  0.4356471E-010  0.4778727E+02  0.7816164E-02  0.1312668E+00
        -11   -1    0    0    0    0  0.00000000000E+00  0.00000000000E+00  0.45593999997E+02  0.45594000000E+02  0.51100000000E-03 0. -1.
         11   -1    0    0    0    0 -0.00000000000E+00 -0.00000000000E+00 -0.45593999997E+02  0.45594000000E+02  0.51100000000E-03 0.  1.
    9900012    2    1    2    0    0  0.38065693989E+02  0.17201624072E+02  0.11778393897E+02  0.47787268528E+02  0.19999988525E+02 0.  0.
        -12    1    1    2    0    0 -0.38065693989E+02 -0.17201624072E+02 -0.11778393897E+02  0.43400731472E+02  0.00000000000E+00 0.  1.
         11    1    3    3    0    0  0.25423351816E+02  0.12812302447E+02  0.26398354835E+01  0.28591443532E+02  0.51100000000E-03 0. -1.
        -11    1    3    3    0    0  0.28120589519E+01  0.98375516936E+00 -0.22778593967E+01  0.37502124573E+01  0.51100000000E-03 0.  1.
        -12    1    3    3    0    0  0.98302832202E+01  0.34055664552E+01  0.11416417811E+02  0.15445612539E+02  0.00000000000E+00 0.  1.
</event>
<event>
 7    1  0.4356471E-010  0.4778727E+02  0.7816164E-02  0.1312668E+00
        -11   -1    0    0    0    0  0.00000000000E+00  0.00000000000E+00  0.45593999997E+02  0.45594000000E+02  0.51100000000E-03 0.  1.
         11   -1    0    0    0    0 -0.00000000000E+00 -0.00000000000E+00 -0.45593999997E+02  0.45594000000E+02  0.51100000000E-03 0. -1.
    9900012    2    1    2    0    0  0.13332079028E+02  0.26495475424E+02 -0.31683893577E+02  0.47787266580E+02  0.19999979644E+02 0.  0.
        -12    1    1    2    0    0 -0.13332079028E+02 -0.26495475424E+02  0.31683893577E+02  0.43400733420E+02  0.00000000000E+00 0.  1.
         11    1    3    3    0    0 -0.11974506869E+01  0.14215544714E+02 -0.68064369700E+01  0.15806428571E+02  0.51100000000E-03 0. -1.
        -11    1    3    3    0    0  0.66492856548E+01  0.90904936065E+01 -0.11248613159E+02  0.15917957532E+02  0.51100000000E-03 0.  1.
         12    1    3    3    0    0  0.78802440603E+01  0.31894371038E+01 -0.13628843449E+02  0.16062880478E+02  0.00000000000E+00 0. -1.
</event>
<event>
 7    1  0.4356471E-010  0.4778727E+02  0.7816164E-02  0.1312668E+00
        -11   -1    0    0    0    0  0.00000000000E+00  0.00000000000E+00  0.45593999997E+02  0.45594000000E+02  0.51100000000E-03 0.  1.
         11   -1    0    0    0    0 -0.00000000000E+00 -0.00000000000E+00 -0.45593999997E+02  0.45594000000E+02  0.51100000000E-03 0. -1.
    9900012    2    1    2    0    0 -0.44983315577E+01 -0.43162807852E+02  0.60016766858E+00  0.47787272244E+02  0.20000005471E+02 0.  0.
        -12    1    1    2    0    0  0.44983315577E+01  0.43162807852E+02 -0.60016766858E+00  0.43400727756E+02  0.00000000000E+00 0.  1.
         11    1    3    3    0    0 -0.13232775755E+01 -0.21676708828E+02 -0.31122231833E+01  0.21938931208E+02  0.51100000000E-03 0. -1.
        -11    1    3    3    0    0  0.30024894038E+01 -0.28895726630E+01 -0.30002179804E+01  0.51347717560E+01  0.51100000000E-03 0.  1.
        -12    1    3    3    0    0 -0.61775433859E+01 -0.18596526361E+02  0.67126088323E+01  0.20713569280E+02  0.00000000000E+00 0.  1.
</event>
<event>
 7    1  0.4356471E-010  0.4778727E+02  0.7816164E-02  0.1312668E+00
        -11   -1    0    0    0    0  0.00000000000E+00  0.00000000000E+00  0.45593999997E+02  0.45594000000E+02  0.51100000000E-03 0.  1.
         11   -1    0    0    0    0 -0.00000000000E+00 -0.00000000000E+00 -0.45593999997E+02  0.45594000000E+02  0.51100000000E-03 0. -1.
    9900012    2    1    2    0    0  0.83076380054E+01 -0.16029924548E+02 -0.39467044511E+02  0.47787274975E+02  0.20000017921E+02 0.  0.
        -12    1    1    2    0    0 -0.83076380054E+01  0.16029924548E+02  0.39467044511E+02  0.43400725025E+02  0.00000000000E+00 0.  1.
         11    1    3    3    0    0 -0.21921885363E+01 -0.67160012874E+01 -0.46229494071E+01  0.84428683131E+01  0.51100000000E-03 0. -1.
        -11    1    3    3    0    0 -0.12422547237E+01 -0.53677079342E+01 -0.73248262287E+01  0.91656186265E+01  0.51100000000E-03 0.  1.
        -12    1    3    3    0    0  0.11742081265E+02 -0.39462153265E+01 -0.27519268875E+02  0.30178788035E+02  0.00000000000E+00 0.  1.
</event>
<event>
 7    1  0.4356471E-010  0.4778727E+02  0.7816164E-02  0.1312668E+00
        -11   -1    0    0    0    0  0.00000000000E+00  0.00000000000E+00  0.45593999997E+02  0.45594000000E+02  0.51100000000E-03 0.  1.
         11   -1    0    0    0    0 -0.00000000000E+00 -0.00000000000E+00 -0.45593999997E+02  0.45594000000E+02  0.51100000000E-03 0. -1.
    9900012    2    1    2    0    0  0.86679985017E+01 -0.30355521224E+02 -0.29783068517E+02  0.47787273772E+02  0.20000012438E+02 0.  0.
        -12    1    1    2    0    0 -0.86679985017E+01  0.30355521224E+02  0.29783068517E+02  0.43400726228E+02  0.00000000000E+00 0.  1.
         11    1    3    3    0    0  0.19287469427E+01  0.81487665098E-01 -0.42342934261E+01  0.46535949639E+01  0.51100000000E-03 0. -1.
        -11    1    3    3    0    0  0.10661309340E+02 -0.12979987369E+02 -0.13677533675E+02  0.21661452321E+02  0.51100000000E-03 0.  1.
         12    1    3    3    0    0 -0.39220577812E+01 -0.17457021520E+02 -0.11871241416E+02  0.21472226488E+02  0.00000000000E+00 0. -1.
</event>
<event>
 7    1  0.4356471E-010  0.4778726E+02  0.7816164E-02  0.1312668E+00
        -11   -1    0    0    0    0  0.00000000000E+00  0.00000000000E+00  0.45593999997E+02  0.45594000000E+02  0.51100000000E-03 0.  1.
         11   -1    0    0    0    0 -0.00000000000E+00 -0.00000000000E+00 -0.45593999997E+02  0.45594000000E+02  0.51100000000E-03 0. -1.
    9900012    2    1    2    0    0 -0.12955892031E+02 -0.16976960779E+02 -0.37782954063E+02  0.47787263217E+02  0.19999964312E+02 0.  0.
        -12    1    1    2    0    0  0.12955892031E+02  0.16976960779E+02  0.37782954063E+02  0.43400736783E+02  0.00000000000E+00 0.  1.
         11    1    3    3    0    0 -0.43144182091E+01 -0.96845292566E+01 -0.10377421347E+02  0.14835605329E+02  0.51100000000E-03 0. -1.
        -11    1    3    3    0    0 -0.41322577590E+01 -0.10831099080E+02 -0.12840483355E+02  0.17299314279E+02  0.51100000000E-03 0.  1.
        -12    1    3    3    0    0 -0.45092160624E+01  0.35386675577E+01 -0.14565049361E+02  0.15652343609E+02  0.00000000000E+00 0.  1.
</event>
<event>
 7    1  0.4356471E-010  0.4778727E+02  0.7816164E-02  0.1312668E+00
        -11   -1    0    0    0    0  0.00000000000E+00  0.00000000000E+00  0.45593999997E+02  0.45594000000E+02  0.51100000000E-03 0.  1.
         11   -1    0    0    0    0 -0.00000000000E+00 -0.00000000000E+00 -0.45593999997E+02  0.45594000000E+02  0.51100000000E-03 0. -1.
    9900012    2    1    2    0    0  0.42815111218E+02  0.53620095246E+01  0.46624367262E+01  0.47787271769E+02  0.20000003306E+02 0.  0.
        -12    1    1    2    0    0 -0.42815111218E+02 -0.53620095246E+01 -0.46624367262E+01  0.43400728231E+02  0.00000000000E+00 0.  1.
         11    1    3    3    0    0  0.78913360846E+01 -0.57459071656E+01  0.14912646128E+01  0.98748420120E+01  0.51100000000E-03 0.  1.
        -11    1    3    3    0    0  0.18147067807E+02  0.13486636891E+01  0.33495633005E+01  0.18502825144E+02  0.51100000000E-03 0. -1.
        -12    1    3    3    0    0  0.16776707326E+02  0.97592530011E+01 -0.17839118716E+00  0.19409604614E+02  0.00000000000E+00 0.  1.
</event>
<event>
 7    1  0.4356471E-010  0.4778727E+02  0.7816164E-02  0.1312668E+00
        -11   -1    0    0    0    0  0.00000000000E+00  0.00000000000E+00  0.45593999997E+02  0.45594000000E+02  0.51100000000E-03 0.  1.
         11   -1    0    0    0    0 -0.00000000000E+00 -0.00000000000E+00 -0.45593999997E+02  0.45594000000E+02  0.51100000000E-03 0. -1.
    9900012    2    1    2    0    0 -0.59939629979E+01  0.13564377844E+02 -0.40788517740E+02  0.47787272839E+02  0.20000008182E+02 0.  0.
        -12    1    1    2    0    0  0.59939629979E+01 -0.13564377844E+02  0.40788517740E+02  0.43400727161E+02  0.00000000000E+00 0.  1.
         11    1    3    3    0    0  0.11068069984E+00  0.47149433929E+01 -0.12688398417E+02  0.13536557763E+02  0.51100000000E-03 0. -1.
        -11    1    3    3    0    0  0.11979036188E+01 -0.35546906992E+01 -0.12381440190E+02  0.12937189049E+02  0.51100000000E-03 0.  1.
        -12    1    3    3    0    0 -0.73025473166E+01  0.12404125150E+02 -0.15718679132E+02  0.21313526027E+02  0.00000000000E+00 0.  1.
</event>
<event>
 7    1  0.4356471E-010  0.4778727E+02  0.7816164E-02  0.1312668E+00
        -11   -1    0    0    0    0  0.00000000000E+00  0.00000000000E+00  0.45593999997E+02  0.45594000000E+02  0.51100000000E-03 0.  1.
         11   -1    0    0    0    0 -0.00000000000E+00 -0.00000000000E+00 -0.45593999997E+02  0.45594000000E+02  0.51100000000E-03 0. -1.
    9900012    2    1    2    0    0  0.37419851548E+02 -0.10811934563E+02 -0.19143666221E+02  0.47787272180E+02  0.20000005179E+02 0.  0.
        -12    1    1    2    0    0 -0.37419851548E+02  0.10811934563E+02  0.19143666221E+02  0.43400727820E+02  0.00000000000E+00 0.  1.
         11    1    3    3    0    0  0.97847876678E+01  0.30144123907E+01 -0.42210621847E+01  0.11074570781E+02  0.51100000000E-03 0. -1.
        -11    1    3    3    0    0  0.11912164180E+02 -0.57810154735E+01  0.52117215264E+00  0.13251091126E+02  0.51100000000E-03 0.  1.
         12    1    3    3    0    0  0.15722899700E+02 -0.80453314798E+01 -0.15443776189E+02  0.23461610273E+02  0.00000000000E+00 0. -1.
</event>
<event>
 7    1  0.4356471E-010  0.4778727E+02  0.7816164E-02  0.1312668E+00
        -11   -1    0    0    0    0  0.00000000000E+00  0.00000000000E+00  0.45593999997E+02  0.45594000000E+02  0.51100000000E-03 0. -1.
         11   -1    0    0    0    0 -0.00000000000E+00 -0.00000000000E+00 -0.45593999997E+02  0.45594000000E+02  0.51100000000E-03 0.  1.
    9900012    2    1    2    0    0 -0.43165524986E+02  0.44960801614E+01  0.38164895966E+00  0.47787274890E+02  0.20000017533E+02 0.  0.
        -12    1    1    2    0    0  0.43165524986E+02 -0.44960801614E+01 -0.38164895966E+00  0.43400725110E+02  0.00000000000E+00 0.  1.
         11    1    3    3    0    0 -0.38532824201E+02  0.43755382487E+01 -0.39989493607E+01  0.38986093317E+02  0.51100000000E-03 0. -1.
        -11    1    3    3    0    0 -0.15360437428E+01 -0.56885987772E-01 -0.15031553044E+01  0.21499168648E+01  0.51100000000E-03 0.  1.
        -12    1    3    3    0    0 -0.30966570419E+01  0.17742790050E+00  0.58837536247E+01  0.66512647076E+01  0.00000000000E+00 0.  1.
</event>
<event>
 7    1  0.4356471E-010  0.4778728E+02  0.7816164E-02  0.1312668E+00
        -11   -1    0    0    0    0  0.00000000000E+00  0.00000000000E+00  0.45593999997E+02  0.45594000000E+02  0.51100000000E-03 0.  1.
         11   -1    0    0    0    0 -0.00000000000E+00 -0.00000000000E+00 -0.45593999997E+02  0.45594000000E+02  0.51100000000E-03 0. -1.
    9900012    2    1    2    0    0  0.10185308401E+01  0.11540996147E+02 -0.41825715964E+02  0.47787279810E+02  0.20000039964E+02 0.  0.
        -12    1    1    2    0    0 -0.10185308401E+01 -0.11540996147E+02  0.41825715964E+02  0.43400720190E+02  0.00000000000E+00 0.  1.
         11    1    3    3    0    0  0.65491878884E+01  0.30566602237E+01 -0.93757465232E+01  0.11838059674E+02  0.51100000000E-03 0. -1.
        -11    1    3    3    0    0  0.30090637553E+00  0.77419875501E+01 -0.95026943941E+01  0.12260918272E+02  0.51100000000E-03 0.  1.
         12    1    3    3    0    0 -0.58315634239E+01  0.74234837298E+00 -0.22947275047E+02  0.23688301863E+02  0.00000000000E+00 0. -1.
</event>
<event>
 7    1  0.4356471E-010  0.4778725E+02  0.7816164E-02  0.1312668E+00
        -11   -1    0    0    0    0  0.00000000000E+00  0.00000000000E+00  0.45593999997E+02  0.45594000000E+02  0.51100000000E-03 0.  1.
         11   -1    0    0    0    0 -0.00000000000E+00 -0.00000000000E+00 -0.45593999997E+02  0.45594000000E+02  0.51100000000E-03 0. -1.
    9900012    2    1    2    0    0 -0.59485912423E+01 -0.26290221478E+02 -0.34015643910E+02  0.47787245240E+02  0.19999882347E+02 0.  0.
        -12    1    1    2    0    0  0.59485912423E+01  0.26290221478E+02  0.34015643910E+02  0.43400754760E+02  0.00000000000E+00 0.  1.
         11    1    3    3    0    0 -0.80391659498E+01 -0.11450944800E+02 -0.11680616219E+02  0.18226056115E+02  0.51100000000E-03 0. -1.
        -11    1    3    3    0    0 -0.12942577562E+01 -0.14752304647E+02 -0.13270686289E+02  0.19885087639E+02  0.51100000000E-03 0.  1.
         12    1    3    3    0    0  0.33848324637E+01 -0.86972030998E-01 -0.90643414012E+01  0.96761014866E+01  0.00000000000E+00 0. -1.
</event>
<event>
 7    1  0.4356471E-010  0.4778727E+02  0.7816164E-02  0.1312668E+00
        -11   -1    0    0    0    0  0.00000000000E+00  0.00000000000E+00  0.45593999997E+02  0.45594000000E+02  0.51100000000E-03 0.  1.
         11   -1    0    0    0    0 -0.00000000000E+00 -0.00000000000E+00 -0.45593999997E+02  0.45594000000E+02  0.51100000000E-03 0. -1.
    9900012    2    1    2    0    0  0.59219292338E+01 -0.42601025758E+02  0.58057490415E+01  0.47787270012E+02  0.19999995295E+02 0.  0.
        -12    1    1    2    0    0 -0.59219292338E+01  0.42601025758E+02 -0.58057490415E+01  0.43400729988E+02  0.00000000000E+00 0.  1.
         11    1    3    3    0    0 -0.13403134881E+01 -0.53749404213E+01  0.30887059584E+01  0.63424387689E+01  0.51100000000E-03 0.  1.
        -11    1    3    3    0    0 -0.22581881826E+01 -0.25934149488E+02 -0.15280822060E+01  0.26077088776E+02  0.51100000000E-03 0. -1.
         12    1    3    3    0    0  0.95204309045E+01 -0.11291935849E+02  0.42451252891E+01  0.15367742467E+02  0.00000000000E+00 0. -1.
</event>
<event>
 7    1  0.4356471E-010  0.4778731E+02  0.7816164E-02  0.1312668E+00
        -11   -1    0    0    0    0  0.00000000000E+00  0.00000000000E+00  0.45593999997E+02  0.45594000000E+02  0.51100000000E-03 0. -1.
         11   -1    0    0    0    0 -0.00000000000E+00 -0.00000000000E+00 -0.45593999997E+02  0.45594000000E+02  0.51100000000E-03 0.  1.
    9900012    2    1    2    0    0  0.58371539060E+01  0.31344707520E+02  0.29445831567E+02  0.47787308164E+02  0.20000169241E+02 0.  0.
        -12    1    1    2    0    0 -0.58371539060E+01 -0.31344707520E+02 -0.29445831567E+02  0.43400691836E+02  0.00000000000E+00 0.  1.
         11    1    3    3    0    0 -0.16120477909E+00 -0.17583844649E+00 -0.18217847346E+00  0.30015895352E+00  0.51100000000E-03 0.  1.
        -11    1    3    3    0    0 -0.44266223650E+01  0.15052854653E+01  0.72377163190E+01  0.86165774917E+01  0.51100000000E-03 0. -1.
         12    1    3    3    0    0  0.10424981050E+02  0.30015260501E+02  0.22390293721E+02  0.38870571719E+02  0.00000000000E+00 0. -1.
</event>
<event>
 7    1  0.4356471E-010  0.4778727E+02  0.7816164E-02  0.1312668E+00
        -11   -1    0    0    0    0  0.00000000000E+00  0.00000000000E+00  0.45593999997E+02  0.45594000000E+02  0.51100000000E-03 0.  1.
         11   -1    0    0    0    0 -0.00000000000E+00 -0.00000000000E+00 -0.45593999997E+02  0.45594000000E+02  0.51100000000E-03 0. -1.
    9900012    2    1    2    0    0  0.93786624893E+01 -0.40187356914E+02  0.13440252155E+02  0.47787270239E+02  0.19999996328E+02 0.  0.
        -12    1    1    2    0    0 -0.93786624893E+01  0.40187356914E+02 -0.13440252155E+02  0.43400729761E+02  0.00000000000E+00 0.  1.
         11    1    3    3    0    0  0.59238095019E+01 -0.14263487730E+02  0.54114403833E+01  0.16365276915E+02  0.51100000000E-03 0. -1.
        -11    1    3    3    0    0  0.56521618631E+01 -0.24760808923E+02  0.26988492950E+01  0.25540720038E+02  0.51100000000E-03 0.  1.
        -12    1    3    3    0    0 -0.21973088757E+01 -0.11630602605E+01  0.53299624764E+01  0.58812732860E+01  0.00000000000E+00 0.  1.
</event>
<event>
 7    1  0.4356471E-010  0.4778727E+02  0.7816164E-02  0.1312668E+00
        -11   -1    0    0    0    0  0.00000000000E+00  0.00000000000E+00  0.45593999997E+02  0.45594000000E+02  0.51100000000E-03 0.  1.
         11   -1    0    0    0    0 -0.00000000000E+00 -0.00000000000E+00 -0.45593999997E+02  0.45594000000E+02  0.51100000000E-03 0. -1.
    9900012    2    1    2    0    0 -0.93196673749E+01 -0.65740507659E+01 -0.41875400883E+02  0.47787267949E+02  0.19999985888E+02 0.  0.
        -12    1    1    2    0    0  0.93196673749E+01  0.65740507659E+01  0.41875400883E+02  0.43400732051E+02  0.00000000000E+00 0.  1.
         11    1    3    3    0    0 -0.31975982536E+01 -0.78097435270E+00 -0.34144585847E+01  0.47426873414E+01  0.51100000000E-03 0. -1.
        -11    1    3    3    0    0  0.17019500011E+01  0.47254080084E+01 -0.49115046713E+01  0.70248838460E+01  0.51100000000E-03 0.  1.
        -12    1    3    3    0    0 -0.78240191224E+01 -0.10518484422E+02 -0.33549437627E+02  0.36019696762E+02  0.00000000000E+00 0.  1.
</event>
<event>
 7    1  0.4356471E-010  0.4778727E+02  0.7816164E-02  0.1312668E+00
        -11   -1    0    0    0    0  0.00000000000E+00  0.00000000000E+00  0.45593999997E+02  0.45594000000E+02  0.51100000000E-03 0.  1.
         11   -1    0    0    0    0 -0.00000000000E+00 -0.00000000000E+00 -0.45593999997E+02  0.45594000000E+02  0.51100000000E-03 0. -1.
    9900012    2    1    2    0    0 -0.17283296756E+02 -0.34044669624E+02 -0.20636654965E+02  0.47787269537E+02  0.19999993127E+02 0.  0.
        -12    1    1    2    0    0  0.17283296756E+02  0.34044669624E+02  0.20636654965E+02  0.43400730463E+02  0.00000000000E+00 0.  1.
         11    1    3    3    0    0 -0.86862248576E+01 -0.17057442996E+02 -0.66687539787E+01  0.20270154014E+02  0.51100000000E-03 0. -1.
        -11    1    3    3    0    0  0.26533988864E+01 -0.23658846439E-01 -0.41304479511E+01  0.49093467925E+01  0.51100000000E-03 0.  1.
         12    1    3    3    0    0 -0.11250470785E+02 -0.16963567781E+02 -0.98374530355E+01  0.22607768731E+02  0.00000000000E+00 0. -1.
</event>
<event>
 7    1  0.4356471E-010  0.4778726E+02  0.7816164E-02  0.1312668E+00
        -11   -1    0    0    0    0  0.00000000000E+00  0.00000000000E+00  0.45593999997E+02  0.45594000000E+02  0.51100000000E-03 0.  1.
         11   -1    0    0    0    0 -0.00000000000E+00 -0.00000000000E+00 -0.45593999997E+02  0.45594000000E+02  0.51100000000E-03 0. -1.
    9900012    2    1    2    0    0  0.15612946558E+02 -0.71438778134E+01 -0.39860067749E+02  0.47787261626E+02  0.19999957058E+02 0.  0.
        -12    1    1    2    0    0 -0.15612946558E+02  0.71438778134E+01  0.39860067749E+02  0.43400738374E+02  0.00000000000E+00 0.  1.
         11    1    3    3    0    0  0.18933077758E+02 -0.31547416845E+01 -0.30276429331E+02  0.35847956731E+02  0.51100000000E-03 0. -1.
        -11    1    3    3    0    0  0.10479553795E+00 -0.15264797207E+01 -0.69188023772E-01  0.15316362774E+01  0.51100000000E-03 0.  1.
        -12    1    3    3    0    0 -0.34249267384E+01 -0.24626564082E+01 -0.95144503940E+01  0.10407668617E+02  0.00000000000E+00 0.  1.
</event>
<event>
 7    1  0.4356471E-010  0.4778728E+02  0.7816164E-02  0.1312668E+00
        -11   -1    0    0    0    0  0.00000000000E+00  0.00000000000E+00  0.45593999997E+02  0.45594000000E+02  0.51100000000E-03 0.  1.
         11   -1    0    0    0    0 -0.00000000000E+00 -0.00000000000E+00 -0.45593999997E+02  0.45594000000E+02  0.51100000000E-03 0. -1.
    9900012    2    1    2    0    0  0.40221909262E+02  0.15260548905E+02 -0.57390250114E+01  0.47787277130E+02  0.20000027744E+02 0.  0.
        -12    1    1    2    0    0 -0.40221909262E+02 -0.15260548905E+02  0.57390250114E+01  0.43400722870E+02  0.00000000000E+00 0.  1.
         11    1    3    3    0    0  0.17687762083E+02  0.10223521895E+02 -0.55701934626E+01  0.21175560982E+02  0.51100000000E-03 0. -1.
        -11    1    3    3    0    0  0.84221948604E+00  0.48443010146E+01 -0.13818811816E+00  0.49189106721E+01  0.51100000000E-03 0.  1.
        -12    1    3    3    0    0  0.21691927693E+02  0.19272599543E+00 -0.30643430653E-01  0.21692805475E+02  0.00000000000E+00 0.  1.
</event>
<event>
 7    1  0.4356471E-010  0.4778727E+02  0.7816164E-02  0.1312668E+00
        -11   -1    0    0    0    0  0.00000000000E+00  0.00000000000E+00  0.45593999997E+02  0.45594000000E+02  0.51100000000E-03 0.  1.
         11   -1    0    0    0    0 -0.00000000000E+00 -0.00000000000E+00 -0.45593999997E+02  0.45594000000E+02  0.51100000000E-03 0. -1.
    9900012    2    1    2    0    0 -0.30308886862E+01  0.11588857064E+01 -0.43279258250E+02  0.47787268474E+02  0.19999988280E+02 0.  0.
        -12    1    1    2    0    0  0.30308886862E+01 -0.11588857064E+01  0.43279258250E+02  0.43400731526E+02  0.00000000000E+00 0.  1.
         11    1    3    3    0    0  0.22122267791E+01 -0.64942708576E+01 -0.25578632221E+02  0.26482747740E+02  0.51100000000E-03 0. -1.
        -11    1    3    3    0    0 -0.32195142956E+01  0.24135494896E+01 -0.14027794423E+02  0.14593474915E+02  0.51100000000E-03 0.  1.
        -12    1    3    3    0    0 -0.20236011697E+01  0.52396070744E+01 -0.36728316060E+01  0.67110458197E+01  0.00000000000E+00 0.  1.
</event>
<event>
 7    1  0.4356471E-010  0.4778727E+02  0.7816164E-02  0.1312668E+00
        -11   -1    0    0    0    0  0.00000000000E+00  0.00000000000E+00  0.45593999997E+02  0.45594000000E+02  0.51100000000E-03 0.  1.
         11   -1    0    0    0    0 -0.00000000000E+00 -0.00000000000E+00 -0.45593999997E+02  0.45594000000E+02  0.51100000000E-03 0. -1.
    9900012    2    1    2    0    0 -0.38721893111E+02  0.13418495754E+02 -0.14289231669E+02  0.47787272171E+02  0.20000005137E+02 0.  0.
        -12    1    1    2    0    0  0.38721893111E+02 -0.13418495754E+02  0.14289231669E+02  0.43400727829E+02  0.00000000000E+00 0.  1.
         11    1    3    3    0    0 -0.26541734859E+02  0.15185305209E+02 -0.24182958423E+01  0.30674180325E+02  0.51100000000E-03 0. -1.
        -11    1    3    3    0    0 -0.16841885708E+01 -0.75159874277E-01 -0.18567995931E+01  0.25079563670E+01  0.51100000000E-03 0.  1.
         12    1    3    3    0    0 -0.10495969681E+02 -0.16916495801E+01 -0.10014136233E+02  0.14605135479E+02  0.00000000000E+00 0. -1.
</event>
<event>
 7    1  0.4356471E-010  0.4778727E+02  0.7816164E-02  0.1312668E+00
        -11   -1    0    0    0    0  0.00000000000E+00  0.00000000000E+00  0.45593999997E+02  0.45594000000E+02  0.51100000000E-03 0. -1.
         11   -1    0    0    0    0 -0.00000000000E+00 -0.00000000000E+00 -0.45593999997E+02  0.45594000000E+02  0.51100000000E-03 0.  1.
    9900012    2    1    2    0    0 -0.25379081753E+02 -0.34974419029E+02 -0.40392535500E+01  0.47787270211E+02  0.19999996199E+02 0.  0.
        -12    1    1    2    0    0  0.25379081753E+02  0.34974419029E+02  0.40392535500E+01  0.43400729789E+02  0.00000000000E+00 0.  1.
         11    1    3    3    0    0  0.27428046144E-01 -0.10001133563E+01  0.26929818326E+01  0.28728262104E+01  0.51100000000E-03 0. -1.
        -11    1    3    3    0    0 -0.41567365315E+01  0.20204998607E+00 -0.73607528763E+00  0.42262382658E+01  0.51100000000E-03 0.  1.
         12    1    3    3    0    0 -0.21249773267E+02 -0.34176355658E+02 -0.59961600950E+01  0.40688205734E+02  0.00000000000E+00 0. -1.
</event>
<event>
 7    1  0.4356471E-010  0.4778727E+02  0.7816164E-02  0.1312668E+00
        -11   -1    0    0    0    0  0.00000000000E+00  0.00000000000E+00  0.45593999997E+02  0.45594000000E+02  0.51100000000E-03 0.  1.
         11   -1    0    0    0    0 -0.00000000000E+00 -0.00000000000E+00 -0.45593999997E+02  0.45594000000E+02  0.51100000000E-03 0. -1.
    9900012    2    1    2    0    0 -0.17307342277E+02 -0.10912587022E+02 -0.38275247828E+02  0.47787271336E+02  0.20000001331E+02 0.  0.
        -12    1    1    2    0    0  0.17307342277E+02  0.10912587022E+02  0.38275247828E+02  0.43400728664E+02  0.00000000000E+00 0.  1.
         11    1    3    3    0    0 -0.55119690945E+01 -0.34465636755E+00 -0.27857212286E+01  0.61855342805E+01  0.51100000000E-03 0. -1.
        -11    1    3    3    0    0 -0.12695031663E+02 -0.17209114922E+01 -0.20590280504E+02  0.24250464259E+02  0.51100000000E-03 0.  1.
        -12    1    3    3    0    0  0.89965848066E+00 -0.88470191622E+01 -0.14899246096E+02  0.17351272797E+02  0.00000000000E+00 0.  1.
</event>
<event>
 7    1  0.4356471E-010  0.4778727E+02  0.7816164E-02  0.1312668E+00
        -11   -1    0    0    0    0  0.00000000000E+00  0.00000000000E+00  0.45593999997E+02  0.45594000000E+02  0.51100000000E-03 0.  1.
         11   -1    0    0    0    0 -0.00000000000E+00 -0.00000000000E+00 -0.45593999997E+02  0.45594000000E+02  0.51100000000E-03 0. -1.
    9900012    2    1    2    0    0  0.12662286592E+02 -0.41499446336E+02 -0.10421522947E+01  0.47787266949E+02  0.19999981329E+02 0.  0.
        -12    1    1    2    0    0 -0.12662286592E+02  0.41499446336E+02  0.10421522947E+01  0.43400733051E+02  0.00000000000E+00 0.  1.
         11    1    3    3    0    0  0.77413470835E+01 -0.19121090747E+02  0.57891083855E+01  0.21425646832E+02  0.51100000000E-03 0. -1.
        -11    1    3    3    0    0  0.44736704451E+00 -0.52867819076E+01  0.30488669575E+01  0.61192965442E+01  0.51100000000E-03 0.  1.
         12    1    3    3    0    0  0.44735724640E+01 -0.17091573681E+02 -0.98801276377E+01  0.20242323573E+02  0.00000000000E+00 0. -1.
</event>
<event>
 7    1  0.4356471E-010  0.4778727E+02  0.7816164E-02  0.1312668E+00
        -11   -1    0    0    0    0  0.00000000000E+00  0.00000000000E+00  0.45593999997E+02  0.45594000000E+02  0.51100000000E-03 0. -1.
         11   -1    0    0    0    0 -0.00000000000E+00 -0.00000000000E+00 -0.45593999997E+02  0.45594000000E+02  0.51100000000E-03 0.  1.
    9900012    2    1    2    0    0 -0.36864987402E+02  0.21381832687E+02 -0.82105671247E+01  0.47787268696E+02  0.19999989291E+02 0.  0.
        -12    1    1    2    0    0  0.36864987402E+02 -0.21381832687E+02  0.82105671247E+01  0.43400731304E+02  0.00000000000E+00 0.  1.
         11    1    3    3    0    0 -0.17060168138E+02  0.11860381146E+02 -0.52779987349E+01  0.21437706238E+02  0.51100000000E-03 0. -1.
        -11    1    3    3    0    0 -0.15574184890E+02  0.51728701417E+01 -0.81723816035E+01  0.18333075078E+02  0.51100000000E-03 0.  1.
        -12    1    3    3    0    0 -0.42306343748E+01  0.43485813993E+01  0.52398132137E+01  0.80164873800E+01  0.00000000000E+00 0.  1.
</event>
<event>
 7    1  0.4356471E-010  0.4778727E+02  0.7816164E-02  0.1312668E+00
        -11   -1    0    0    0    0  0.00000000000E+00  0.00000000000E+00  0.45593999997E+02  0.45594000000E+02  0.51100000000E-03 0.  1.
         11   -1    0    0    0    0 -0.00000000000E+00 -0.00000000000E+00 -0.45593999997E+02  0.45594000000E+02  0.51100000000E-03 0. -1.
    9900012    2    1    2    0    0  0.95042163766E+01 -0.11729210895E+02 -0.40690523020E+02  0.47787272117E+02  0.20000004891E+02 0.  0.
        -12    1    1    2    0    0 -0.95042163766E+01  0.11729210895E+02  0.40690523020E+02  0.43400727883E+02  0.00000000000E+00 0.  1.
         11    1    3    3    0    0  0.40341357968E+01 -0.86738671473E+01 -0.14977027598E+02  0.17771369639E+02  0.51100000000E-03 0. -1.
        -11    1    3    3    0    0 -0.29703207525E+01 -0.33387538532E+01 -0.20999060674E+01  0.49375792063E+01  0.51100000000E-03 0.  1.
        -12    1    3    3    0    0  0.84404013323E+01  0.28341010561E+00 -0.23613589355E+02  0.25078323272E+02  0.00000000000E+00 0.  1.
</event>
<event>
 7    1  0.4356471E-010  0.4778727E+02  0.7816164E-02  0.1312668E+00
        -11   -1    0    0    0    0  0.00000000000E+00  0.00000000000E+00  0.45593999997E+02  0.45594000000E+02  0.51100000000E-03 0.  1.
         11   -1    0    0    0    0 -0.00000000000E+00 -0.00000000000E+00 -0.45593999997E+02  0.45594000000E+02  0.51100000000E-03 0. -1.
    9900012    2    1    2    0    0  0.37601328662E+02  0.18056405103E+02  0.11988738046E+02  0.47787268182E+02  0.19999986950E+02 0.  0.
        -12    1    1    2    0    0 -0.37601328662E+02 -0.18056405103E+02 -0.11988738046E+02  0.43400731818E+02  0.00000000000E+00 0.  1.
         11    1    3    3    0    0  0.10741718032E+02  0.42035054919E+01  0.53814922310E+01  0.12728488661E+02  0.51100000000E-03 0. -1.
        -11    1    3    3    0    0  0.19693171598E+02  0.15928261243E+02  0.36520626094E+00  0.25331085442E+02  0.51100000000E-03 0.  1.
        -12    1    3    3    0    0  0.71664390324E+01 -0.20753616318E+01  0.62420395536E+01  0.97276940791E+01  0.00000000000E+00 0.  1.
</event>
<event>
 7    1  0.4356471E-010  0.4778727E+02  0.7816164E-02  0.1312668E+00
        -11   -1    0    0    0    0  0.00000000000E+00  0.00000000000E+00  0.45593999997E+02  0.45594000000E+02  0.51100000000E-03 0.  1.
         11   -1    0    0    0    0 -0.00000000000E+00 -0.00000000000E+00 -0.45593999997E+02  0.45594000000E+02  0.51100000000E-03 0. -1.
    9900012    2    1    2    0    0 -0.78467713852E+01 -0.31319382883E+02 -0.29002547308E+02  0.47787270562E+02  0.19999997802E+02 0.  0.
        -12    1    1    2    0    0  0.78467713852E+01  0.31319382883E+02  0.29002547308E+02  0.43400729438E+02  0.00000000000E+00 0.  1.
         11    1    3    3    0    0 -0.82453740980E+01 -0.16585325438E+02 -0.15438915949E+02  0.24112638591E+02  0.51100000000E-03 0.  1.
        -11    1    3    3    0    0 -0.19400315752E+01 -0.10527712618E+02 -0.15200000775E+02  0.18591301173E+02  0.51100000000E-03 0. -1.
        -12    1    3    3    0    0  0.23386342880E+01 -0.42063448273E+01  0.16363694155E+01  0.50833307981E+01  0.00000000000E+00 0.  1.
</event>
<event>
 7    1  0.4356471E-010  0.4778726E+02  0.7816164E-02  0.1312668E+00
        -11   -1    0    0    0    0  0.00000000000E+00  0.00000000000E+00  0.45593999997E+02  0.45594000000E+02  0.51100000000E-03 0.  1.
         11   -1    0    0    0    0 -0.00000000000E+00 -0.00000000000E+00 -0.45593999997E+02  0.45594000000E+02  0.51100000000E-03 0. -1.
    9900012    2    1    2    0    0 -0.10045305159E+02  0.29155169549E+02 -0.30540007063E+02  0.47787261544E+02  0.19999956683E+02 0.  0.
        -12    1    1    2    0    0  0.10045305159E+02 -0.29155169549E+02  0.30540007063E+02  0.43400738456E+02  0.00000000000E+00 0.  1.
         11    1    3    3    0    0 -0.33115922425E+01  0.14744353103E+02 -0.95414012260E+01  0.17871791438E+02  0.51100000000E-03 0. -1.
        -11    1    3    3    0    0 -0.10091044350E+02  0.79002189183E+01 -0.83409614564E+01  0.15290986669E+02  0.51100000000E-03 0.  1.
         12    1    3    3    0    0  0.33573314340E+01  0.65105975277E+01 -0.12657644380E+02  0.14624483436E+02  0.00000000000E+00 0. -1.
</event>
<event>
 7    1  0.4356471E-010  0.4778725E+02  0.7816164E-02  0.1312668E+00
        -11   -1    0    0    0    0  0.00000000000E+00  0.00000000000E+00  0.45593999997E+02  0.45594000000E+02  0.51100000000E-03 0.  1.
         11   -1    0    0    0    0 -0.00000000000E+00 -0.00000000000E+00 -0.45593999997E+02  0.45594000000E+02  0.51100000000E-03 0. -1.
    9900012    2    1    2    0    0  0.37225466888E+02  0.96978368350E+01 -0.20095801901E+02  0.47787254864E+02  0.19999926226E+02 0.  0.
        -12    1    1    2    0    0 -0.37225466888E+02 -0.96978368350E+01  0.20095801901E+02  0.43400745136E+02  0.00000000000E+00 0.  1.
         11    1    3    3    0    0  0.12841992224E+02  0.20395980734E+01 -0.11199558293E+02  0.17161201321E+02  0.51100000000E-03 0. -1.
        -11    1    3    3    0    0  0.21397892727E+02  0.87531598119E+01 -0.12115319622E+02  0.26101122383E+02  0.51100000000E-03 0.  1.
        -12    1    3    3    0    0  0.29855819379E+01 -0.10949210503E+01  0.32190760141E+01  0.45249311596E+01  0.00000000000E+00 0.  1.
</event>
<event>
 7    1  0.4356471E-010  0.4778728E+02  0.7816164E-02  0.1312668E+00
        -11   -1    0    0    0    0  0.00000000000E+00  0.00000000000E+00  0.45593999997E+02  0.45594000000E+02  0.51100000000E-03 0. -1.
         11   -1    0    0    0    0 -0.00000000000E+00 -0.00000000000E+00 -0.45593999997E+02  0.45594000000E+02  0.51100000000E-03 0.  1.
    9900012    2    1    2    0    0 -0.32620673265E+02 -0.16051162682E+02  0.23703894064E+02  0.47787277178E+02  0.20000027964E+02 0.  0.
        -12    1    1    2    0    0  0.32620673265E+02  0.16051162682E+02 -0.23703894064E+02  0.43400722822E+02  0.00000000000E+00 0.  1.
         11    1    3    3    0    0 -0.11939245802E+02 -0.94868762962E+01  0.18896002837E+02  0.24281790206E+02  0.51100000000E-03 0. -1.
        -11    1    3    3    0    0 -0.47589979041E+01 -0.46735759614E+01  0.31781792729E+01  0.73885855933E+01  0.51100000000E-03 0.  1.
        -12    1    3    3    0    0 -0.15922429559E+02 -0.18907104244E+01  0.16297119546E+01  0.16116901378E+02  0.00000000000E+00 0.  1.
</event>
<event>
 7    1  0.4356471E-010  0.4778727E+02  0.7816164E-02  0.1312668E+00
        -11   -1    0    0    0    0  0.00000000000E+00  0.00000000000E+00  0.45593999997E+02  0.45594000000E+02  0.51100000000E-03 0.  1.
         11   -1    0    0    0    0 -0.00000000000E+00 -0.00000000000E+00 -0.45593999997E+02  0.45594000000E+02  0.51100000000E-03 0. -1.
    9900012    2    1    2    0    0  0.48843351487E+01 -0.34147062858E+02 -0.26339028559E+02  0.47787273542E+02  0.20000011387E+02 0.  0.
        -12    1    1    2    0    0 -0.48843351487E+01  0.34147062858E+02  0.26339028559E+02  0.43400726458E+02  0.00000000000E+00 0.  1.
         11    1    3    3    0    0  0.18178155668E+01  0.63245834413E+00 -0.15800950230E+01  0.24902123473E+01  0.51100000000E-03 0.  1.
        -11    1    3    3    0    0 -0.36132230473E+01 -0.26454679939E+02 -0.21041286460E+02  0.33994723232E+02  0.51100000000E-03 0. -1.
         12    1    3    3    0    0  0.66797426293E+01 -0.83248412627E+01 -0.37176470764E+01  0.11302337963E+02  0.00000000000E+00 0. -1.
</event>
<event>
 7    1  0.4356471E-010  0.4778727E+02  0.7816164E-02  0.1312668E+00
        -11   -1    0    0    0    0  0.00000000000E+00  0.00000000000E+00  0.45593999997E+02  0.45594000000E+02  0.51100000000E-03 0.  1.
         11   -1    0    0    0    0 -0.00000000000E+00 -0.00000000000E+00 -0.45593999997E+02  0.45594000000E+02  0.51100000000E-03 0. -1.
    9900012    2    1    2    0    0 -0.46036782669E+01 -0.37207468888E+02  0.21863979774E+02  0.47787271824E+02  0.20000003553E+02 0.  0.
        -12    1    1    2    0    0  0.46036782669E+01  0.37207468888E+02 -0.21863979774E+02  0.43400728176E+02  0.00000000000E+00 0.  1.
         11    1    3    3    0    0 -0.49129730807E+01 -0.89491960366E+01  0.95389743265E+01  0.13972023678E+02  0.51100000000E-03 0. -1.
        -11    1    3    3    0    0  0.30242862854E+01 -0.28498634246E+02  0.12002811476E+02  0.31070660518E+02  0.51100000000E-03 0.  1.
         12    1    3    3    0    0 -0.27149914716E+01  0.24036139466E+00  0.32219397201E+00  0.27445876278E+01  0.00000000000E+00 0. -1.
</event>
<event>
 7    1  0.4356471E-010  0.4778727E+02  0.7816164E-02  0.1312668E+00
        -11   -1    0    0    0    0  0.00000000000E+00  0.00000000000E+00  0.45593999997E+02  0.45594000000E+02  0.51100000000E-03 0.  1.
         11   -1    0    0    0    0 -0.00000000000E+00 -0.00000000000E+00 -0.45593999997E+02  0.45594000000E+02  0.51100000000E-03 0. -1.
    9900012    2    1    2    0    0 -0.38210852570E+02 -0.20520579078E+02 -0.15684468252E+01  0.47787269070E+02  0.19999990998E+02 0.  0.
        -12    1    1    2    0    0  0.38210852570E+02  0.20520579078E+02  0.15684468252E+01  0.43400730930E+02  0.00000000000E+00 0.  1.
         11    1    3    3    0    0 -0.10929864674E+02 -0.40352954659E+01 -0.38503013804E+01  0.12270711970E+02  0.51100000000E-03 0. -1.
        -11    1    3    3    0    0  0.17034716747E+01 -0.14423706178E+01 -0.14296952951E+01  0.26507126671E+01  0.51100000000E-03 0.  1.
         12    1    3    3    0    0 -0.28984459571E+02 -0.15042912994E+02  0.37115498503E+01  0.32865844432E+02  0.00000000000E+00 0. -1.
</event>
<event>
 7    1  0.4356471E-010  0.4778727E+02  0.7816164E-02  0.1312668E+00
        -11   -1    0    0    0    0  0.00000000000E+00  0.00000000000E+00  0.45593999997E+02  0.45594000000E+02  0.51100000000E-03 0.  1.
         11   -1    0    0    0    0 -0.00000000000E+00 -0.00000000000E+00 -0.45593999997E+02  0.45594000000E+02  0.51100000000E-03 0. -1.
    9900012    2    1    2    0    0  0.31045371011E+01 -0.29439889346E+02 -0.31737648061E+02  0.47787267981E+02  0.19999986033E+02 0.  0.
        -12    1    1    2    0    0 -0.31045371011E+01  0.29439889346E+02  0.31737648061E+02  0.43400732019E+02  0.00000000000E+00 0.  1.
         11    1    3    3    0    0  0.62890637021E+01 -0.18709960431E+02 -0.18797557704E+02  0.27257349788E+02  0.51100000000E-03 0. -1.
        -11    1    3    3    0    0  0.31208298935E+00 -0.10330288339E+02 -0.42876528221E+01  0.11189111669E+02  0.51100000000E-03 0.  1.
         12    1    3    3    0    0 -0.34966095904E+01 -0.39964057629E+00 -0.86524375352E+01  0.93408065240E+01  0.00000000000E+00 0. -1.
</event>
<event>
 7    1  0.4356471E-010  0.4778727E+02  0.7816164E-02  0.1312668E+00
        -11   -1    0    0    0    0  0.00000000000E+00  0.00000000000E+00  0.45593999997E+02  0.45594000000E+02  0.51100000000E-03 0.  1.
         11   -1    0    0    0    0 -0.00000000000E+00 -0.00000000000E+00 -0.45593999997E+02  0.45594000000E+02  0.51100000000E-03 0. -1.
    9900012    2    1    2    0    0 -0.15917678776E+02 -0.33136477386E+02 -0.23069998248E+02  0.47787269012E+02  0.19999990734E+02 0.  0.
        -12    1    1    2    0    0  0.15917678776E+02  0.33136477386E+02  0.23069998248E+02  0.43400730988E+02  0.00000000000E+00 0.  1.
         11    1    3    3    0    0 -0.84465031667E+01 -0.11686811036E+02 -0.42405678500E+01  0.15030215697E+02  0.51100000000E-03 0. -1.
        -11    1    3    3    0    0 -0.60644970827E+01 -0.15256068064E+02 -0.44075999543E+01  0.16998608039E+02  0.51100000000E-03 0.  1.
        -12    1    3    3    0    0 -0.14066785263E+01 -0.61935982857E+01 -0.14421830443E+02  0.15758445277E+02  0.00000000000E+00 0.  1.
</event>
<event>
 7    1  0.4356471E-010  0.4778727E+02  0.7816164E-02  0.1312668E+00
        -11   -1    0    0    0    0  0.00000000000E+00  0.00000000000E+00  0.45593999997E+02  0.45594000000E+02  0.51100000000E-03 0.  1.
         11   -1    0    0    0    0 -0.00000000000E+00 -0.00000000000E+00 -0.45593999997E+02  0.45594000000E+02  0.51100000000E-03 0. -1.
    9900012    2    1    2    0    0 -0.26566099659E+02 -0.17967159576E+02 -0.29241191278E+02  0.47787265655E+02  0.19999975427E+02 0.  0.
        -12    1    1    2    0    0  0.26566099659E+02  0.17967159576E+02  0.29241191278E+02  0.43400734345E+02  0.00000000000E+00 0.  1.
         11    1    3    3    0    0 -0.14309503784E+02 -0.81195189247E+01 -0.21461947839E+02  0.27042627302E+02  0.51100000000E-03 0.  1.
        -11    1    3    3    0    0 -0.46185867658E+00 -0.58206220239E+01 -0.56038338125E+01  0.80929542098E+01  0.51100000000E-03 0. -1.
        -12    1    3    3    0    0 -0.11794737199E+02 -0.40270186272E+01 -0.21754096266E+01  0.12651684143E+02  0.00000000000E+00 0.  1.
</event>
<event>
 7    1  0.4356471E-010  0.4778727E+02  0.7816164E-02  0.1312668E+00
        -11   -1    0    0    0    0  0.00000000000E+00  0.00000000000E+00  0.45593999997E+02  0.45594000000E+02  0.51100000000E-03 0. -1.
         11   -1    0    0    0    0 -0.00000000000E+00 -0.00000000000E+00 -0.45593999997E+02  0.45594000000E+02  0.51100000000E-03 0.  1.
    9900012    2    1    2    0    0 -0.31718854135E+02 -0.10357837528E+02  0.27753427643E+02  0.47787271298E+02  0.20000001158E+02 0.  0.
        -12    1    1    2    0    0  0.31718854135E+02  0.10357837528E+02 -0.27753427643E+02  0.43400728702E+02  0.00000000000E+00 0.  1.
         11    1    3    3    0    0  0.45154429079E+00  0.11722310117E+01  0.38346440474E+01  0.40351596032E+01  0.51100000000E-03 0. -1.
        -11    1    3    3    0    0 -0.69299115034E+01 -0.79612328176E+01  0.10728701325E+02  0.15050246968E+02  0.51100000000E-03 0.  1.
         12    1    3    3    0    0 -0.25240486923E+02 -0.35688357217E+01  0.13190082270E+02  0.28701864727E+02  0.00000000000E+00 0. -1.
</event>
<event>
 7    1  0.4356471E-010  0.4778727E+02  0.7816164E-02  0.1312668E+00
        -11   -1    0    0    0    0  0.00000000000E+00  0.00000000000E+00  0.45593999997E+02  0.45594000000E+02  0.51100000000E-03 0. -1.
         11   -1    0    0    0    0 -0.00000000000E+00 -0.00000000000E+00 -0.45593999997E+02  0.45594000000E+02  0.51100000000E-03 0.  1.
    9900012    2    1    2    0    0  0.15983433238E+02  0.25416476722E+01  0.40270249276E+02  0.47787273189E+02  0.20000009779E+02 0.  0.
        -12    1    1    2    0    0 -0.15983433238E+02 -0.25416476722E+01 -0.40270249276E+02  0.43400726811E+02  0.00000000000E+00 0.  1.
         11    1    3    3    0    0  0.48212782576E+01  0.85654951143E+00  0.32150548045E+02  0.32521318253E+02  0.51100000000E-03 0. -1.
        -11    1    3    3    0    0  0.38817936735E+01  0.15130564273E+01  0.66337008009E+01  0.78334952897E+01  0.51100000000E-03 0.  1.
        -12    1    3    3    0    0  0.72803613068E+01  0.17204173341E+00  0.14860004302E+01  0.74324596463E+01  0.00000000000E+00 0.  1.
</event>
<event>
 7    1  0.4356471E-010  0.4778727E+02  0.7816164E-02  0.1312668E+00
        -11   -1    0    0    0    0  0.00000000000E+00  0.00000000000E+00  0.45593999997E+02  0.45594000000E+02  0.51100000000E-03 0.  1.
         11   -1    0    0    0    0 -0.00000000000E+00 -0.00000000000E+00 -0.45593999997E+02  0.45594000000E+02  0.51100000000E-03 0. -1.
    9900012    2    1    2    0    0 -0.19006927417E+02  0.28582581765E+02 -0.26559290887E+02  0.47787271866E+02  0.20000003744E+02 0.  0.
        -12    1    1    2    0    0  0.19006927417E+02 -0.28582581765E+02  0.26559290887E+02  0.43400728134E+02  0.00000000000E+00 0.  1.
         11    1    3    3    0    0  0.19701621889E+01  0.73349780471E+00 -0.94827197008E+00  0.23062476169E+01  0.51100000000E-03 0. -1.
        -11    1    3    3    0    0 -0.13032035811E+02  0.66420693681E+01 -0.12948221399E+02  0.19534776183E+02  0.51100000000E-03 0.  1.
         12    1    3    3    0    0 -0.79450537955E+01  0.21207014592E+02 -0.12662797518E+02  0.25946248066E+02  0.00000000000E+00 0. -1.
</event>
<event>
 7    1  0.4356471E-010  0.4778727E+02  0.7816164E-02  0.1312668E+00
        -11   -1    0    0    0    0  0.00000000000E+00  0.00000000000E+00  0.45593999997E+02  0.45594000000E+02  0.51100000000E-03 0. -1.
         11   -1    0    0    0    0 -0.00000000000E+00 -0.00000000000E+00 -0.45593999997E+02  0.45594000000E+02  0.51100000000E-03 0.  1.
    9900012    2    1    2    0    0 -0.88557173580E+01  0.33710839837E+02  0.25860761918E+02  0.47787268907E+02  0.19999990253E+02 0.  0.
        -12    1    1    2    0    0  0.88557173580E+01 -0.33710839837E+02 -0.25860761918E+02  0.43400731093E+02  0.00000000000E+00 0.  1.
         11    1    3    3    0    0  0.21479998406E+01  0.73214690711E+01  0.48280126420E+01  0.90292590508E+01  0.51100000000E-03 0. -1.
        -11    1    3    3    0    0 -0.70558692337E+01  0.14513224980E+02  0.24038714400E+01  0.16315562759E+02  0.51100000000E-03 0.  1.
         12    1    3    3    0    0 -0.39478479649E+01  0.11876145786E+02  0.18628877836E+02  0.22442447097E+02  0.00000000000E+00 0. -1.
</event>
<event>
 7    1  0.4356471E-010  0.4778729E+02  0.7816164E-02  0.1312668E+00
        -11   -1    0    0    0    0  0.00000000000E+00  0.00000000000E+00  0.45593999997E+02  0.45594000000E+02  0.51100000000E-03 0.  1.
         11   -1    0    0    0    0 -0.00000000000E+00 -0.00000000000E+00 -0.45593999997E+02  0.45594000000E+02  0.51100000000E-03 0. -1.
    9900012    2    1    2    0    0 -0.31491296729E+02 -0.26133366463E+02 -0.14455698333E+02  0.47787287718E+02  0.20000076019E+02 0.  0.
        -12    1    1    2    0    0  0.31491296729E+02  0.26133366463E+02  0.14455698333E+02  0.43400712282E+02  0.00000000000E+00 0.  1.
         11    1    3    3    0    0 -0.15261705356E+02 -0.17346004786E+02 -0.90636379278E+01  0.24818401745E+02  0.51100000000E-03 0. -1.
        -11    1    3    3    0    0 -0.66440481211E+01 -0.10388201952E+02 -0.48003468485E+01  0.13232590274E+02  0.51100000000E-03 0.  1.
        -12    1    3    3    0    0 -0.95855432512E+01  0.16008402747E+01 -0.59171355632E+00  0.97362956990E+01  0.00000000000E+00 0.  1.
</event>
<event>
 7    1  0.4356471E-010  0.4778727E+02  0.7816164E-02  0.1312668E+00
        -11   -1    0    0    0    0  0.00000000000E+00  0.00000000000E+00  0.45593999997E+02  0.45594000000E+02  0.51100000000E-03 0.  1.
         11   -1    0    0    0    0 -0.00000000000E+00 -0.00000000000E+00 -0.45593999997E+02  0.45594000000E+02  0.51100000000E-03 0. -1.
    9900012    2    1    2    0    0  0.40771814141E+01  0.39635733455E+02 -0.17204903227E+02  0.47787268787E+02  0.19999989707E+02 0.  0.
        -12    1    1    2    0    0 -0.40771814141E+01 -0.39635733455E+02  0.17204903227E+02  0.43400731213E+02  0.00000000000E+00 0.  1.
         11    1    3    3    0    0 -0.94524235168E+00  0.35084291896E+01 -0.59725924580E+01  0.69910242034E+01  0.51100000000E-03 0. -1.
        -11    1    3    3    0    0  0.23743130364E+01  0.61665864895E+01  0.33066848009E+01  0.73890673269E+01  0.51100000000E-03 0.  1.
         12    1    3    3    0    0  0.26481107293E+01  0.29960717776E+02 -0.14538995570E+02  0.33407177257E+02  0.00000000000E+00 0. -1.
</event>
<event>
 7    1  0.4356471E-010  0.4778727E+02  0.7816164E-02  0.1312668E+00
        -11   -1    0    0    0    0  0.00000000000E+00  0.00000000000E+00  0.45593999997E+02  0.45594000000E+02  0.51100000000E-03 0.  1.
         11   -1    0    0    0    0 -0.00000000000E+00 -0.00000000000E+00 -0.45593999997E+02  0.45594000000E+02  0.51100000000E-03 0. -1.
    9900012    2    1    2    0    0 -0.18814579063E+02 -0.34640650727E+02 -0.18156548611E+02  0.47787270449E+02  0.19999997285E+02 0.  0.
        -12    1    1    2    0    0  0.18814579063E+02  0.34640650727E+02  0.18156548611E+02  0.43400729551E+02  0.00000000000E+00 0.  1.
         11    1    3    3    0    0 -0.13052666257E+02 -0.18297844898E+02 -0.15584162774E+02  0.27350490928E+02  0.51100000000E-03 0. -1.
        -11    1    3    3    0    0 -0.62083889452E+01 -0.79172553612E+01 -0.55487734098E+01  0.11489817769E+02  0.51100000000E-03 0.  1.
        -12    1    3    3    0    0  0.44647613930E+00 -0.84255504671E+01  0.29763875727E+01  0.89469617525E+01  0.00000000000E+00 0.  1.
</event>
<event>
 7    1  0.4356471E-010  0.4778727E+02  0.7816164E-02  0.1312668E+00
        -11   -1    0    0    0    0  0.00000000000E+00  0.00000000000E+00  0.45593999997E+02  0.45594000000E+02  0.51100000000E-03 0.  1.
         11   -1    0    0    0    0 -0.00000000000E+00 -0.00000000000E+00 -0.45593999997E+02  0.45594000000E+02  0.51100000000E-03 0. -1.
    9900012    2    1    2    0    0  0.68588615172E+01 -0.42789795899E+02 -0.23690711387E+01  0.47787272905E+02  0.20000008481E+02 0.  0.
        -12    1    1    2    0    0 -0.68588615172E+01  0.42789795899E+02  0.23690711387E+01  0.43400727095E+02  0.00000000000E+00 0.  1.
         11    1    3    3    0    0  0.24587259865E+01 -0.11622870909E+01 -0.35176963292E+01  0.44463954485E+01  0.51100000000E-03 0. -1.
        -11    1    3    3    0    0 -0.37864441641E+01 -0.12922580527E+02  0.79367857938E+00  0.13489261390E+02  0.51100000000E-03 0.  1.
         12    1    3    3    0    0  0.81865796948E+01 -0.28704928280E+02  0.35494661118E+00  0.29851616066E+02  0.00000000000E+00 0. -1.
</event>
<event>
 7    1  0.4356471E-010  0.4778727E+02  0.7816164E-02  0.1312668E+00
        -11   -1    0    0    0    0  0.00000000000E+00  0.00000000000E+00  0.45593999997E+02  0.45594000000E+02  0.51100000000E-03 0. -1.
         11   -1    0    0    0    0 -0.00000000000E+00 -0.00000000000E+00 -0.45593999997E+02  0.45594000000E+02  0.51100000000E-03 0.  1.
    9900012    2    1    2    0    0  0.19470482690E+02  0.28488431133E+02  0.26323620584E+02  0.47787269531E+02  0.19999993101E+02 0.  0.
        -12    1    1    2    0    0 -0.19470482690E+02 -0.28488431133E+02 -0.26323620584E+02  0.43400730469E+02  0.00000000000E+00 0.  1.
         11    1    3    3    0    0  0.16216767093E+02  0.26512737420E+02  0.17648991289E+02  0.35740672549E+02  0.51100000000E-03 0. -1.
        -11    1    3    3    0    0  0.54955415301E+01  0.23500705874E+01  0.71037502372E+01  0.92836994872E+01  0.51100000000E-03 0.  1.
        -12    1    3    3    0    0 -0.22418259329E+01 -0.37437687457E+00  0.15708790572E+01  0.27628974954E+01  0.00000000000E+00 0.  1.
</event>
<event>
 7    1  0.4356471E-010  0.4778727E+02  0.7816164E-02  0.1312668E+00
        -11   -1    0    0    0    0  0.00000000000E+00  0.00000000000E+00  0.45593999997E+02  0.45594000000E+02  0.51100000000E-03 0.  1.
         11   -1    0    0    0    0 -0.00000000000E+00 -0.00000000000E+00 -0.45593999997E+02  0.45594000000E+02  0.51100000000E-03 0. -1.
    9900012    2    1    2    0    0  0.24100361461E+02 -0.92037412397E+01 -0.34901103973E+02  0.47787270353E+02  0.19999996848E+02 0.  0.
        -12    1    1    2    0    0 -0.24100361461E+02  0.92037412397E+01  0.34901103973E+02  0.43400729647E+02  0.00000000000E+00 0.  1.
         11    1    3    3    0    0  0.14235778154E+02  0.30951488055E+01 -0.17185397854E+02  0.22529430207E+02  0.51100000000E-03 0. -1.
        -11    1    3    3    0    0 -0.50641324973E-01  0.56736394229E+00  0.56551909109E+00  0.80266960222E+00  0.51100000000E-03 0.  1.
        -12    1    3    3    0    0  0.99152246314E+01 -0.12866253987E+02 -0.18281225210E+02  0.24455170544E+02  0.00000000000E+00 0.  1.
</event>
<event>
 7    1  0.4356471E-010  0.4778726E+02  0.7816164E-02  0.1312668E+00
        -11   -1    0    0    0    0  0.00000000000E+00  0.00000000000E+00  0.45593999997E+02  0.45594000000E+02  0.51100000000E-03 0. -1.
         11   -1    0    0    0    0 -0.00000000000E+00 -0.00000000000E+00 -0.45593999997E+02  0.45594000000E+02  0.51100000000E-03 0.  1.
    9900012    2    1    2    0    0  0.32206348789E+02  0.27484447302E+02 -0.95383569356E+01  0.47787262692E+02  0.19999961920E+02 0.  0.
        -12    1    1    2    0    0 -0.32206348789E+02 -0.27484447302E+02  0.95383569356E+01  0.43400737308E+02  0.00000000000E+00 0.  1.
         11    1    3    3    0    0 -0.10438707014E+01  0.10214576161E+01  0.11358392154E+01  0.18501817983E+01  0.51100000000E-03 0. -1.
        -11    1    3    3    0    0  0.76227340399E+01  0.68195029835E+01  0.33084083637E+01  0.10749756339E+02  0.51100000000E-03 0.  1.
         12    1    3    3    0    0  0.25627485450E+02  0.19643486703E+02 -0.13982604515E+02  0.35187324555E+02  0.00000000000E+00 0. -1.
</event>
<event>
 7    1  0.4356471E-010  0.4778727E+02  0.7816164E-02  0.1312668E+00
        -11   -1    0    0    0    0  0.00000000000E+00  0.00000000000E+00  0.45593999997E+02  0.45594000000E+02  0.51100000000E-03 0.  1.
         11   -1    0    0    0    0 -0.00000000000E+00 -0.00000000000E+00 -0.45593999997E+02  0.45594000000E+02  0.51100000000E-03 0. -1.
    9900012    2    1    2    0    0 -0.14871605298E+02  0.21002855414E+02 -0.34947658452E+02  0.47787269465E+02  0.19999992799E+02 0.  0.
        -12    1    1    2    0    0  0.14871605298E+02 -0.21002855414E+02  0.34947658452E+02  0.43400730535E+02  0.00000000000E+00 0.  1.
         11    1    3    3    0    0 -0.55224597207E+01  0.51563304688E+01 -0.10897739616E+02  0.13260695090E+02  0.51100000000E-03 0. -1.
        -11    1    3    3    0    0  0.32673434617E+01  0.21668583923E+01 -0.11320095852E+02  0.11979790438E+02  0.51100000000E-03 0.  1.
        -12    1    3    3    0    0 -0.12616489039E+02  0.13679666553E+02 -0.12729822984E+02  0.22546783937E+02  0.00000000000E+00 0.  1.
</event>
<event>
 7    1  0.4356471E-010  0.4778727E+02  0.7816164E-02  0.1312668E+00
        -11   -1    0    0    0    0  0.00000000000E+00  0.00000000000E+00  0.45593999997E+02  0.45594000000E+02  0.51100000000E-03 0.  1.
         11   -1    0    0    0    0 -0.00000000000E+00 -0.00000000000E+00 -0.45593999997E+02  0.45594000000E+02  0.51100000000E-03 0. -1.
    9900012    2    1    2    0    0  0.29635396735E+02 -0.31061634327E+02  0.63672131602E+01  0.47787271088E+02  0.20000000197E+02 0.  0.
        -12    1    1    2    0    0 -0.29635396735E+02  0.31061634327E+02 -0.63672131602E+01  0.43400728912E+02  0.00000000000E+00 0.  1.
         11    1    3    3    0    0  0.11376062127E+02 -0.99695543692E+01  0.18280928115E+01  0.15236427646E+02  0.51100000000E-03 0. -1.
        -11    1    3    3    0    0  0.63450592478E+01 -0.85025458363E+01  0.97937250418E+01  0.14438494139E+02  0.51100000000E-03 0.  1.
         12    1    3    3    0    0  0.11914275361E+02 -0.12589534121E+02 -0.52546046931E+01  0.18112349302E+02  0.00000000000E+00 0. -1.
</event>
<event>
 7    1  0.4356471E-010  0.4778726E+02  0.7816164E-02  0.1312668E+00
        -11   -1    0    0    0    0  0.00000000000E+00  0.00000000000E+00  0.45593999997E+02  0.45594000000E+02  0.51100000000E-03 0. -1.
         11   -1    0    0    0    0 -0.00000000000E+00 -0.00000000000E+00 -0.45593999997E+02  0.45594000000E+02  0.51100000000E-03 0.  1.
    9900012    2    1    2    0    0 -0.18136190394E+02 -0.39327302896E+02  0.28400135541E+01  0.47787264613E+02  0.19999970678E+02 0.  0.
        -12    1    1    2    0    0  0.18136190394E+02  0.39327302896E+02 -0.28400135541E+01  0.43400735387E+02  0.00000000000E+00 0.  1.
         11    1    3    3    0    0 -0.13166679634E+02 -0.17298735736E+02  0.70356197977E+01  0.22849675203E+02  0.51100000000E-03 0. -1.
        -11    1    3    3    0    0 -0.14567153720E+01 -0.10695149509E+02  0.28162872978E+01  0.11155255133E+02  0.51100000000E-03 0.  1.
        -12    1    3    3    0    0 -0.35127953880E+01 -0.11333417651E+02 -0.70118935414E+01  0.13782334277E+02  0.00000000000E+00 0.  1.
</event>
<event>
 7    1  0.4356471E-010  0.4778727E+02  0.7816164E-02  0.1312668E+00
        -11   -1    0    0    0    0  0.00000000000E+00  0.00000000000E+00  0.45593999997E+02  0.45594000000E+02  0.51100000000E-03 0.  1.
         11   -1    0    0    0    0 -0.00000000000E+00 -0.00000000000E+00 -0.45593999997E+02  0.45594000000E+02  0.51100000000E-03 0. -1.
    9900012    2    1    2    0    0 -0.25909732970E+02 -0.10651599566E+02 -0.33148941868E+02  0.47787272093E+02  0.20000004781E+02 0.  0.
        -12    1    1    2    0    0  0.25909732970E+02  0.10651599566E+02  0.33148941868E+02  0.43400727907E+02  0.00000000000E+00 0.  1.
         11    1    3    3    0    0 -0.50165645756E+01 -0.12351123671E+01 -0.99675829665E+01  0.11226937835E+02  0.51100000000E-03 0. -1.
        -11    1    3    3    0    0 -0.15796965482E+02 -0.24989100690E+01 -0.22940008208E+02  0.27964846626E+02  0.51100000000E-03 0.  1.
        -12    1    3    3    0    0 -0.50962029116E+01 -0.69175771301E+01 -0.24135069373E+00  0.85954876316E+01  0.00000000000E+00 0.  1.
</event>
<event>
 7    1  0.4356471E-010  0.4778727E+02  0.7816164E-02  0.1312668E+00
        -11   -1    0    0    0    0  0.00000000000E+00  0.00000000000E+00  0.45593999997E+02  0.45594000000E+02  0.51100000000E-03 0.  1.
         11   -1    0    0    0    0 -0.00000000000E+00 -0.00000000000E+00 -0.45593999997E+02  0.45594000000E+02  0.51100000000E-03 0. -1.
    9900012    2    1    2    0    0 -0.24098479295E+02 -0.17855013487E+02 -0.31370131423E+02  0.47787270093E+02  0.19999995661E+02 0.  0.
        -12    1    1    2    0    0  0.24098479295E+02  0.17855013487E+02  0.31370131423E+02  0.43400729907E+02  0.00000000000E+00 0.  1.
         11    1    3    3    0    0 -0.11292355396E+02 -0.10316324877E+02 -0.11444332917E+02  0.19102790517E+02  0.51100000000E-03 0. -1.
        -11    1    3    3    0    0 -0.13624412101E+02 -0.92165693203E+00 -0.10952005328E+02  0.17504870110E+02  0.51100000000E-03 0.  1.
        -12    1    3    3    0    0  0.81828820133E+00 -0.66170316774E+01 -0.89737931788E+01  0.11179609466E+02  0.00000000000E+00 0.  1.
</event>
<event>
 7    1  0.4356471E-010  0.4778728E+02  0.7816164E-02  0.1312668E+00
        -11   -1    0    0    0    0  0.00000000000E+00  0.00000000000E+00  0.45593999997E+02  0.45594000000E+02  0.51100000000E-03 0.  1.
         11   -1    0    0    0    0 -0.00000000000E+00 -0.00000000000E+00 -0.45593999997E+02  0.45594000000E+02  0.51100000000E-03 0. -1.
    9900012    2    1    2    0    0  0.43232756785E+02  0.18228320219E+01 -0.33509329192E+01  0.47787277342E+02  0.20000028713E+02 0.  0.
        -12    1    1    2    0    0 -0.43232756785E+02 -0.18228320219E+01  0.33509329192E+01  0.43400722658E+02  0.00000000000E+00 0.  1.
         11    1    3    3    0    0  0.66296176652E+01 -0.33630442969E+01 -0.32340707191E+01  0.81068558028E+01  0.51100000000E-03 0. -1.
        -11    1    3    3    0    0  0.11133967202E+02 -0.15021283681E+00  0.64154306393E+01  0.12850896470E+02  0.51100000000E-03 0.  1.
         12    1    3    3    0    0  0.25469171918E+02  0.53360891556E+01 -0.65322928393E+01  0.26829525069E+02  0.00000000000E+00 0. -1.
</event>
<event>
 7    1  0.4356471E-010  0.4778727E+02  0.7816164E-02  0.1312668E+00
        -11   -1    0    0    0    0  0.00000000000E+00  0.00000000000E+00  0.45593999997E+02  0.45594000000E+02  0.51100000000E-03 0. -1.
         11   -1    0    0    0    0 -0.00000000000E+00 -0.00000000000E+00 -0.45593999997E+02  0.45594000000E+02  0.51100000000E-03 0.  1.
    9900012    2    1    2    0    0 -0.35583214224E+02 -0.18921497400E+02 -0.16106988099E+02  0.47787271159E+02  0.20000000521E+02 0.  0.
        -12    1    1    2    0    0  0.35583214224E+02  0.18921497400E+02  0.16106988099E+02  0.43400728841E+02  0.00000000000E+00 0.  1.
         11    1    3    3    0    0 -0.75209083570E+01 -0.69448191606E+01  0.13490717128E+01  0.10325433184E+02  0.51100000000E-03 0. -1.
        -11    1    3    3    0    0 -0.10241103941E+02  0.78215237953E+00 -0.15648289801E+01  0.10389449566E+02  0.51100000000E-03 0.  1.
        -12    1    3    3    0    0 -0.17821201925E+02 -0.12758830619E+02 -0.15891230832E+02  0.27072388409E+02  0.00000000000E+00 0.  1.
</event>
<event>
 7    1  0.4356471E-010  0.4778727E+02  0.7816164E-02  0.1312668E+00
        -11   -1    0    0    0    0  0.00000000000E+00  0.00000000000E+00  0.45593999997E+02  0.45594000000E+02  0.51100000000E-03 0. -1.
         11   -1    0    0    0    0 -0.00000000000E+00 -0.00000000000E+00 -0.45593999997E+02  0.45594000000E+02  0.51100000000E-03 0.  1.
    9900012    2    1    2    0    0 -0.34947052445E+02  0.24600482710E+02  0.75592971195E+01  0.47787271929E+02  0.20000004032E+02 0.  0.
        -12    1    1    2    0    0  0.34947052445E+02 -0.24600482710E+02 -0.75592971195E+01  0.43400728071E+02  0.00000000000E+00 0.  1.
         11    1    3    3    0    0 -0.12304053181E+01  0.68098612358E+01  0.64116976997E+00  0.69497630343E+01  0.51100000000E-03 0. -1.
        -11    1    3    3    0    0 -0.65442473028E+01  0.10043394993E+02  0.17773188917E+01  0.12118408248E+02  0.51100000000E-03 0.  1.
        -12    1    3    3    0    0 -0.27172399825E+02  0.77472264803E+01  0.51408084578E+01  0.28719100647E+02  0.00000000000E+00 0.  1.
</event>
<event>
 7    1  0.4356471E-010  0.4778727E+02  0.7816164E-02  0.1312668E+00
        -11   -1    0    0    0    0  0.00000000000E+00  0.00000000000E+00  0.45593999997E+02  0.45594000000E+02  0.51100000000E-03 0.  1.
         11   -1    0    0    0    0 -0.00000000000E+00 -0.00000000000E+00 -0.45593999997E+02  0.45594000000E+02  0.51100000000E-03 0. -1.
    9900012    2    1    2    0    0  0.29887567154E+02 -0.31313951548E+02 -0.31293851583E+01  0.47787270935E+02  0.19999999500E+02 0.  0.
        -12    1    1    2    0    0 -0.29887567154E+02  0.31313951548E+02  0.31293851583E+01  0.43400729065E+02  0.00000000000E+00 0.  1.
         11    1    3    3    0    0  0.11704317768E+02 -0.12642332962E+02 -0.55966675655E+01  0.18114699148E+02  0.51100000000E-03 0. -1.
        -11    1    3    3    0    0  0.12054054124E+02 -0.27148405292E+01 -0.28328688881E+00  0.12359240739E+02  0.51100000000E-03 0.  1.
        -12    1    3    3    0    0  0.61291952623E+01 -0.15956778057E+02  0.27505692960E+01  0.17313331048E+02  0.00000000000E+00 0.  1.
</event>
<event>
 7    1  0.4356471E-010  0.4778727E+02  0.7816164E-02  0.1312668E+00
        -11   -1    0    0    0    0  0.00000000000E+00  0.00000000000E+00  0.45593999997E+02  0.45594000000E+02  0.51100000000E-03 0.  1.
         11   -1    0    0    0    0 -0.00000000000E+00 -0.00000000000E+00 -0.45593999997E+02  0.45594000000E+02  0.51100000000E-03 0. -1.
    9900012    2    1    2    0    0 -0.18333337649E+02  0.39286096651E+02 -0.20284478712E+01  0.47787271202E+02  0.20000000720E+02 0.  0.
        -12    1    1    2    0    0  0.18333337649E+02 -0.39286096651E+02  0.20284478712E+01  0.43400728798E+02  0.00000000000E+00 0.  1.
         11    1    3    3    0    0 -0.83255183404E+01  0.18551130684E+02 -0.10094044607E+02  0.22701287234E+02  0.51100000000E-03 0. -1.
        -11    1    3    3    0    0 -0.55111005183E+01  0.59785374773E+01  0.12722245159E+01  0.82300482848E+01  0.51100000000E-03 0.  1.
         12    1    3    3    0    0 -0.44967187902E+01  0.14756428490E+02  0.67933722199E+01  0.16855935684E+02  0.00000000000E+00 0. -1.
</event>
<event>
 7    1  0.4356471E-010  0.4778727E+02  0.7816164E-02  0.1312668E+00
        -11   -1    0    0    0    0  0.00000000000E+00  0.00000000000E+00  0.45593999997E+02  0.45594000000E+02  0.51100000000E-03 0.  1.
         11   -1    0    0    0    0 -0.00000000000E+00 -0.00000000000E+00 -0.45593999997E+02  0.45594000000E+02  0.51100000000E-03 0. -1.
    9900012    2    1    2    0    0  0.31585270514E+02  0.22662785699E+01 -0.29679255789E+02  0.47787267792E+02  0.19999985173E+02 0.  0.
        -12    1    1    2    0    0 -0.31585270514E+02 -0.22662785699E+01  0.29679255789E+02  0.43400732208E+02  0.00000000000E+00 0.  1.
         11    1    3    3    0    0  0.94582859924E+01  0.21126056708E+01 -0.17940210986E+02  0.20390523463E+02  0.51100000000E-03 0. -1.
        -11    1    3    3    0    0  0.11250389360E+02  0.54308734030E+01 -0.75785439569E+01  0.14611638356E+02  0.51100000000E-03 0.  1.
        -12    1    3    3    0    0  0.10876595161E+02 -0.52772005039E+01 -0.41605008460E+01  0.12785105973E+02  0.00000000000E+00 0.  1.
</event>
<event>
 7    1  0.4356471E-010  0.4778727E+02  0.7816164E-02  0.1312668E+00
        -11   -1    0    0    0    0  0.00000000000E+00  0.00000000000E+00  0.45593999997E+02  0.45594000000E+02  0.51100000000E-03 0. -1.
         11   -1    0    0    0    0 -0.00000000000E+00 -0.00000000000E+00 -0.45593999997E+02  0.45594000000E+02  0.51100000000E-03 0.  1.
    9900012    2    1    2    0    0  0.78528239133E+01 -0.39027039733E+02 -0.17287172806E+02  0.47787274000E+02  0.20000013475E+02 0.  0.
        -12    1    1    2    0    0 -0.78528239133E+01  0.39027039733E+02  0.17287172806E+02  0.43400726000E+02  0.00000000000E+00 0.  1.
         11    1    3    3    0    0  0.32445367631E+00 -0.19766295817E+02 -0.89185215371E+01  0.21687594316E+02  0.51100000000E-03 0. -1.
        -11    1    3    3    0    0  0.45844671405E+01 -0.20127638443E+02 -0.96335300371E+01  0.22780343928E+02  0.51100000000E-03 0.  1.
        -12    1    3    3    0    0  0.29439030965E+01  0.86689452746E+00  0.12648787684E+01  0.33193357562E+01  0.00000000000E+00 0.  1.
</event>
<event>
 7    1  0.4356471E-010  0.4778727E+02  0.7816164E-02  0.1312668E+00
        -11   -1    0    0    0    0  0.00000000000E+00  0.00000000000E+00  0.45593999997E+02  0.45594000000E+02  0.51100000000E-03 0. -1.
         11   -1    0    0    0    0 -0.00000000000E+00 -0.00000000000E+00 -0.45593999997E+02  0.45594000000E+02  0.51100000000E-03 0.  1.
    9900012    2    1    2    0    0 -0.49940058205E+01  0.37210467244E+02  0.21773019502E+02  0.47787270226E+02  0.19999996269E+02 0.  0.
        -12    1    1    2    0    0  0.49940058205E+01 -0.37210467244E+02 -0.21773019502E+02  0.43400729774E+02  0.00000000000E+00 0.  1.
         11    1    3    3    0    0  0.48275170941E+01  0.14141755285E+02  0.63904829974E+01  0.16252151766E+02  0.51100000000E-03 0. -1.
        -11    1    3    3    0    0 -0.31014417540E+01  0.12035359309E+02  0.14144544389E+01  0.12508776770E+02  0.51100000000E-03 0.  1.
         12    1    3    3    0    0 -0.67200811606E+01  0.11033352650E+02  0.13968082066E+02  0.19026341690E+02  0.00000000000E+00 0. -1.
</event>
<event>
 7    1  0.4356471E-010  0.4778727E+02  0.7816164E-02  0.1312668E+00
        -11   -1    0    0    0    0  0.00000000000E+00  0.00000000000E+00  0.45593999997E+02  0.45594000000E+02  0.51100000000E-03 0. -1.
         11   -1    0    0    0    0 -0.00000000000E+00 -0.00000000000E+00 -0.45593999997E+02  0.45594000000E+02  0.51100000000E-03 0.  1.
    9900012    2    1    2    0    0 -0.35364033562E+02 -0.17474310995E+01  0.25098901661E+02  0.47787271321E+02  0.20000001263E+02 0.  0.
        -12    1    1    2    0    0  0.35364033562E+02  0.17474310995E+01 -0.25098901661E+02  0.43400728679E+02  0.00000000000E+00 0.  1.
         11    1    3    3    0    0 -0.52033283590E+01  0.13443066677E+01  0.61737445982E+01  0.81851639601E+01  0.51100000000E-03 0. -1.
        -11    1    3    3    0    0 -0.33500830746E+01  0.54962928368E+01  0.52379486125E+01  0.82986985415E+01  0.51100000000E-03 0.  1.
         12    1    3    3    0    0 -0.26810622129E+02 -0.85880306040E+01  0.13687208450E+02  0.31303408820E+02  0.00000000000E+00 0. -1.
</event>
<event>
 7    1  0.4356471E-010  0.4778727E+02  0.7816164E-02  0.1312668E+00
        -11   -1    0    0    0    0  0.00000000000E+00  0.00000000000E+00  0.45593999997E+02  0.45594000000E+02  0.51100000000E-03 0. -1.
         11   -1    0    0    0    0 -0.00000000000E+00 -0.00000000000E+00 -0.45593999997E+02  0.45594000000E+02  0.51100000000E-03 0.  1.
    9900012    2    1    2    0    0  0.46349082087E+01 -0.17350072206E+02  0.39510961857E+02  0.47787268594E+02  0.19999988829E+02 0.  0.
        -12    1    1    2    0    0 -0.46349082087E+01  0.17350072206E+02 -0.39510961857E+02  0.43400731406E+02  0.00000000000E+00 0.  1.
         11    1    3    3    0    0  0.10565490299E+02 -0.61322004204E+01  0.21209552577E+02  0.24476081958E+02  0.51100000000E-03 0. -1.
        -11    1    3    3    0    0 -0.71807529565E+00 -0.83378686641E+01  0.12112746376E+02  0.14722578274E+02  0.51100000000E-03 0.  1.
         12    1    3    3    0    0 -0.52125067945E+01 -0.28800031218E+01  0.61886629043E+01  0.85886083627E+01  0.00000000000E+00 0. -1.
</event>
<event>
 7    1  0.4356471E-010  0.4778727E+02  0.7816164E-02  0.1312668E+00
        -11   -1    0    0    0    0  0.00000000000E+00  0.00000000000E+00  0.45593999997E+02  0.45594000000E+02  0.51100000000E-03 0.  1.
         11   -1    0    0    0    0 -0.00000000000E+00 -0.00000000000E+00 -0.45593999997E+02  0.45594000000E+02  0.51100000000E-03 0. -1.
    9900012    2    1    2    0    0  0.16393453812E+02 -0.32926201584E+02 -0.23037875088E+02  0.47787265361E+02  0.19999974087E+02 0.  0.
        -12    1    1    2    0    0 -0.16393453812E+02  0.32926201584E+02  0.23037875088E+02  0.43400734639E+02  0.00000000000E+00 0.  1.
         11    1    3    3    0    0  0.39686236386E+01 -0.27136484103E+01 -0.80618304870E+01  0.93865314330E+01  0.51100000000E-03 0. -1.
        -11    1    3    3    0    0 -0.15120585539E+01  0.30961836070E+00 -0.17530932837E+01  0.23357056583E+01  0.51100000000E-03 0.  1.
        -12    1    3    3    0    0  0.13936888728E+02 -0.30522171534E+02 -0.13222951317E+02  0.36065028270E+02  0.00000000000E+00 0.  1.
</event>
<event>
 7    1  0.4356471E-010  0.4778727E+02  0.7816164E-02  0.1312668E+00
        -11   -1    0    0    0    0  0.00000000000E+00  0.00000000000E+00  0.45593999997E+02  0.45594000000E+02  0.51100000000E-03 0.  1.
         11   -1    0    0    0    0 -0.00000000000E+00 -0.00000000000E+00 -0.45593999997E+02  0.45594000000E+02  0.51100000000E-03 0. -1.
    9900012    2    1    2    0    0 -0.36076966058E+02 -0.12657509202E+02 -0.20539312176E+02  0.47787270008E+02  0.19999995274E+02 0.  0.
        -12    1    1    2    0    0  0.36076966058E+02  0.12657509202E+02  0.20539312176E+02  0.43400729992E+02  0.00000000000E+00 0.  1.
         11    1    3    3    0    0 -0.10117780788E+02 -0.18773066069E+01 -0.14220617861E+02  0.17553339875E+02  0.51100000000E-03 0. -1.
        -11    1    3    3    0    0 -0.20826400034E+02 -0.11094888167E+02 -0.78492319753E+01  0.24868573033E+02  0.51100000000E-03 0.  1.
        -12    1    3    3    0    0 -0.51327852362E+01  0.31468557162E+00  0.15305376593E+01  0.53653571005E+01  0.00000000000E+00 0.  1.
</event>
<event>
 7    1  0.4356471E-010  0.4778726E+02  0.7816164E-02  0.1312668E+00
        -11   -1    0    0    0    0  0.00000000000E+00  0.00000000000E+00  0.45593999997E+02  0.45594000000E+02  0.51100000000E-03 0. -1.
         11   -1    0    0    0    0 -0.00000000000E+00 -0.00000000000E+00 -0.45593999997E+02  0.45594000000E+02  0.51100000000E-03 0.  1.
    9900012    2    1    2    0    0 -0.20916886564E+02 -0.37783562503E+02  0.43023400506E+01  0.47787264190E+02  0.19999968748E+02 0.  0.
        -12    1    1    2    0    0  0.20916886564E+02  0.37783562503E+02 -0.43023400506E+01  0.43400735810E+02  0.00000000000E+00 0.  1.
         11    1    3    3    0    0 -0.89736883742E+01 -0.19731795660E+02  0.10915064180E+02  0.24269517286E+02  0.51100000000E-03 0. -1.
        -11    1    3    3    0    0  0.76420684174E+00 -0.14118642958E+01 -0.77068010511E+00  0.17808203088E+01  0.51100000000E-03 0.  1.
        -12    1    3    3    0    0 -0.12707405032E+02 -0.16639902547E+02 -0.58420440242E+01  0.21736926595E+02  0.00000000000E+00 0.  1.
</event>
<event>
 7    1  0.4356471E-010  0.4778728E+02  0.7816164E-02  0.1312668E+00
        -11   -1    0    0    0    0  0.00000000000E+00  0.00000000000E+00  0.45593999997E+02  0.45594000000E+02  0.51100000000E-03 0. -1.
         11   -1    0    0    0    0 -0.00000000000E+00 -0.00000000000E+00 -0.45593999997E+02  0.45594000000E+02  0.51100000000E-03 0.  1.
    9900012    2    1    2    0    0  0.35406487691E+02 -0.13565097501E+02  0.21118510322E+02  0.47787277436E+02  0.20000029142E+02 0.  0.
        -12    1    1    2    0    0 -0.35406487691E+02  0.13565097501E+02 -0.21118510322E+02  0.43400722564E+02  0.00000000000E+00 0.  1.
         11    1    3    3    0    0  0.27682226626E+00 -0.23146985708E+01 -0.10753111272E+01  0.25672464475E+01  0.51100000000E-03 0. -1.
        -11    1    3    3    0    0  0.13348203966E+02 -0.71728151500E+01  0.20844555230E+01  0.15296038094E+02  0.51100000000E-03 0.  1.
         12    1    3    3    0    0  0.21781461459E+02 -0.40775837801E+01  0.20109365926E+02  0.29923992894E+02  0.00000000000E+00 0. -1.
</event>
<event>
 7    1  0.4356471E-010  0.4778727E+02  0.7816164E-02  0.1312668E+00
        -11   -1    0    0    0    0  0.00000000000E+00  0.00000000000E+00  0.45593999997E+02  0.45594000000E+02  0.51100000000E-03 0.  1.
         11   -1    0    0    0    0 -0.00000000000E+00 -0.00000000000E+00 -0.45593999997E+02  0.45594000000E+02  0.51100000000E-03 0. -1.
    9900012    2    1    2    0    0 -0.25684725830E+02 -0.30806227443E+02  0.16579933132E+02  0.47787274512E+02  0.20000015811E+02 0.  0.
        -12    1    1    2    0    0  0.25684725830E+02  0.30806227443E+02 -0.16579933132E+02  0.43400725488E+02  0.00000000000E+00 0.  1.
         11    1    3    3    0    0 -0.93957391377E+01 -0.12388820128E+02 -0.31831566139E+01  0.15871208662E+02  0.51100000000E-03 0. -1.
        -11    1    3    3    0    0 -0.57628332758E+00 -0.25929592803E+01  0.30723573519E+01  0.40613938817E+01  0.51100000000E-03 0.  1.
         12    1    3    3    0    0 -0.15712703365E+02 -0.15824448035E+02  0.16690732394E+02  0.27854671969E+02  0.00000000000E+00 0. -1.
</event>
<event>
 7    1  0.4356471E-010  0.4778727E+02  0.7816164E-02  0.1312668E+00
        -11   -1    0    0    0    0  0.00000000000E+00  0.00000000000E+00  0.45593999997E+02  0.45594000000E+02  0.51100000000E-03 0.  1.
         11   -1    0    0    0    0 -0.00000000000E+00 -0.00000000000E+00 -0.45593999997E+02  0.45594000000E+02  0.51100000000E-03 0. -1.
    9900012    2    1    2    0    0 -0.44210490250E+01 -0.39128288366E+02 -0.18249789055E+02  0.47787269298E+02  0.19999992037E+02 0.  0.
        -12    1    1    2    0    0  0.44210490250E+01  0.39128288366E+02  0.18249789055E+02  0.43400730702E+02  0.00000000000E+00 0.  1.
         11    1    3    3    0    0  0.25333205577E+01 -0.74417903992E+00 -0.19502320095E+01  0.32825174247E+01  0.51100000000E-03 0. -1.
        -11    1    3    3    0    0 -0.17631652184E+01 -0.53754350331E+00 -0.39471889324E+01  0.43563752518E+01  0.51100000000E-03 0.  1.
         12    1    3    3    0    0 -0.51912043642E+01 -0.37846565823E+02 -0.12352368113E+02  0.40148376621E+02  0.00000000000E+00 0. -1.
</event>
<event>
 7    1  0.4356471E-010  0.4778727E+02  0.7816164E-02  0.1312668E+00
        -11   -1    0    0    0    0  0.00000000000E+00  0.00000000000E+00  0.45593999997E+02  0.45594000000E+02  0.51100000000E-03 0.  1.
         11   -1    0    0    0    0 -0.00000000000E+00 -0.00000000000E+00 -0.45593999997E+02  0.45594000000E+02  0.51100000000E-03 0. -1.
    9900012    2    1    2    0    0 -0.13849116926E+02 -0.85262733474E+01 -0.40238387444E+02  0.47787271885E+02  0.20000003832E+02 0.  0.
        -12    1    1    2    0    0  0.13849116926E+02  0.85262733474E+01  0.40238387444E+02  0.43400728115E+02  0.00000000000E+00 0.  1.
         11    1    3    3    0    0 -0.11076116554E+02 -0.33631876264E+01 -0.29712092858E+02  0.31887299214E+02  0.51100000000E-03 0. -1.
        -11    1    3    3    0    0 -0.62353629763E+01 -0.56443617360E+01 -0.71300495871E+01  0.11026158816E+02  0.51100000000E-03 0.  1.
         12    1    3    3    0    0  0.34623626035E+01  0.48127601500E+00 -0.33962449990E+01  0.48738138551E+01  0.00000000000E+00 0. -1.
</event>
<event>
 7    1  0.4356471E-010  0.4778727E+02  0.7816164E-02  0.1312668E+00
        -11   -1    0    0    0    0  0.00000000000E+00  0.00000000000E+00  0.45593999997E+02  0.45594000000E+02  0.51100000000E-03 0.  1.
         11   -1    0    0    0    0 -0.00000000000E+00 -0.00000000000E+00 -0.45593999997E+02  0.45594000000E+02  0.51100000000E-03 0. -1.
    9900012    2    1    2    0    0 -0.19841561633E+02  0.31853130364E+02 -0.21801694653E+02  0.47787269916E+02  0.19999994857E+02 0.  0.
        -12    1    1    2    0    0  0.19841561633E+02 -0.31853130364E+02  0.21801694653E+02  0.43400730084E+02  0.00000000000E+00 0.  1.
         11    1    3    3    0    0  0.90293531360E+00  0.17045930606E+01 -0.40957007547E+01  0.45272170939E+01  0.51100000000E-03 0. -1.
        -11    1    3    3    0    0 -0.32929749050E+01 -0.92699893116E-01  0.12587458842E+01  0.35265731890E+01  0.51100000000E-03 0.  1.
        -12    1    3    3    0    0 -0.17451522042E+02  0.30241237196E+02 -0.18964739783E+02  0.39733479633E+02  0.00000000000E+00 0.  1.
</event>
<event>
 7    1  0.4356471E-010  0.4778727E+02  0.7816164E-02  0.1312668E+00
        -11   -1    0    0    0    0  0.00000000000E+00  0.00000000000E+00  0.45593999997E+02  0.45594000000E+02  0.51100000000E-03 0. -1.
         11   -1    0    0    0    0 -0.00000000000E+00 -0.00000000000E+00 -0.45593999997E+02  0.45594000000E+02  0.51100000000E-03 0.  1.
    9900012    2    1    2    0    0 -0.35088720513E+02 -0.38714610446E+01  0.25247120358E+02  0.47787267239E+02  0.19999982647E+02 0.  0.
        -12    1    1    2    0    0  0.35088720513E+02  0.38714610446E+01 -0.25247120358E+02  0.43400732761E+02  0.00000000000E+00 0.  1.
         11    1    3    3    0    0 -0.17553478948E+01  0.33595358351E+01  0.31309123857E+01  0.49163339886E+01  0.51100000000E-03 0. -1.
        -11    1    3    3    0    0 -0.80337311490E+01 -0.28622583316E+01  0.13155576231E+02  0.15678091247E+02  0.51100000000E-03 0.  1.
        -12    1    3    3    0    0 -0.25299641469E+02 -0.43687385481E+01  0.89606317415E+01  0.27192842003E+02  0.00000000000E+00 0.  1.
</event>
<event>
 7    1  0.4356471E-010  0.4778727E+02  0.7816164E-02  0.1312668E+00
        -11   -1    0    0    0    0  0.00000000000E+00  0.00000000000E+00  0.45593999997E+02  0.45594000000E+02  0.51100000000E-03 0. -1.
         11   -1    0    0    0    0 -0.00000000000E+00 -0.00000000000E+00 -0.45593999997E+02  0.45594000000E+02  0.51100000000E-03 0.  1.
    9900012    2    1    2    0    0 -0.29640883199E+02 -0.29009996823E+02 -0.12785207950E+02  0.47787269421E+02  0.19999992598E+02 0.  0.
        -12    1    1    2    0    0  0.29640883199E+02  0.29009996823E+02  0.12785207950E+02  0.43400730579E+02  0.00000000000E+00 0.  1.
         11    1    3    3    0    0 -0.13134767910E+02 -0.66913396515E+01 -0.73548606225E+01  0.16473922709E+02  0.51100000000E-03 0. -1.
        -11    1    3    3    0    0 -0.86171170055E+01 -0.62979434685E+01 -0.79092022842E+01  0.13284362177E+02  0.51100000000E-03 0.  1.
        -12    1    3    3    0    0 -0.78889982836E+01 -0.16020713703E+02  0.24788549571E+01  0.18028984535E+02  0.00000000000E+00 0.  1.
</event>
<event>
 7    1  0.4356471E-010  0.4778726E+02  0.7816164E-02  0.1312668E+00
        -11   -1    0    0    0    0  0.00000000000E+00  0.00000000000E+00  0.45593999997E+02  0.45594000000E+02  0.51100000000E-03 0.  1.
         11   -1    0    0    0    0 -0.00000000000E+00 -0.00000000000E+00 -0.45593999997E+02  0.45594000000E+02  0.51100000000E-03 0. -1.
    9900012    2    1    2    0    0 -0.21311475901E+02 -0.10577873740E+02 -0.36298119073E+02  0.47787264221E+02  0.19999968888E+02 0.  0.
        -12    1    1    2    0    0  0.21311475901E+02  0.10577873740E+02  0.36298119073E+02  0.43400735779E+02  0.00000000000E+00 0.  1.
         11    1    3    3    0    0 -0.25834053562E+01 -0.27513576063E+01 -0.12599234824E+02  0.13152363678E+02  0.51100000000E-03 0. -1.
        -11    1    3    3    0    0  0.21243848939E+01 -0.59948520306E+00  0.59060280310E-01  0.22081399557E+01  0.51100000000E-03 0.  1.
         12    1    3    3    0    0 -0.20852455439E+02 -0.72270309307E+01 -0.23757944530E+02  0.32426760587E+02  0.00000000000E+00 0. -1.
</event>
<event>
 7    1  0.4356471E-010  0.4778727E+02  0.7816164E-02  0.1312668E+00
        -11   -1    0    0    0    0  0.00000000000E+00  0.00000000000E+00  0.45593999997E+02  0.45594000000E+02  0.51100000000E-03 0.  1.
         11   -1    0    0    0    0 -0.00000000000E+00 -0.00000000000E+00 -0.45593999997E+02  0.45594000000E+02  0.51100000000E-03 0. -1.
    9900012    2    1    2    0    0  0.11784139044E+02  0.11158151951E+02 -0.40252365737E+02  0.47787271488E+02  0.20000002021E+02 0.  0.
        -12    1    1    2    0    0 -0.11784139044E+02 -0.11158151951E+02  0.40252365737E+02  0.43400728512E+02  0.00000000000E+00 0.  1.
         11    1    3    3    0    0  0.42667304837E+01  0.49399481792E+01 -0.33865915866E+02  0.34489249553E+02  0.51100000000E-03 0. -1.
        -11    1    3    3    0    0 -0.82966601020E+00  0.60855954740E+00 -0.21532953957E+01  0.23864977966E+01  0.51100000000E-03 0.  1.
         12    1    3    3    0    0  0.83470745702E+01  0.56096442246E+01 -0.42331544757E+01  0.10911524138E+02  0.00000000000E+00 0. -1.
</event>
<event>
 7    1  0.4356471E-010  0.4778727E+02  0.7816164E-02  0.1312668E+00
        -11   -1    0    0    0    0  0.00000000000E+00  0.00000000000E+00  0.45593999997E+02  0.45594000000E+02  0.51100000000E-03 0.  1.
         11   -1    0    0    0    0 -0.00000000000E+00 -0.00000000000E+00 -0.45593999997E+02  0.45594000000E+02  0.51100000000E-03 0. -1.
    9900012    2    1    2    0    0 -0.11545385818E+02 -0.85309166279E+01 -0.40957912864E+02  0.47787273066E+02  0.20000009219E+02 0.  0.
        -12    1    1    2    0    0  0.11545385818E+02  0.85309166279E+01  0.40957912864E+02  0.43400726934E+02  0.00000000000E+00 0.  1.
         11    1    3    3    0    0 -0.28016546743E+01 -0.53261390598E+01 -0.10189318272E+02  0.11833817360E+02  0.51100000000E-03 0. -1.
        -11    1    3    3    0    0 -0.26559465727E+00 -0.51591891885E+01 -0.24967483313E+02  0.25496333008E+02  0.51100000000E-03 0.  1.
         12    1    3    3    0    0 -0.84781364863E+01  0.19544116204E+01 -0.58011112791E+01  0.10457122699E+02  0.00000000000E+00 0. -1.
</event>
<event>
 7    1  0.4356471E-010  0.4778727E+02  0.7816164E-02  0.1312668E+00
        -11   -1    0    0    0    0  0.00000000000E+00  0.00000000000E+00  0.45593999997E+02  0.45594000000E+02  0.51100000000E-03 0.  1.
         11   -1    0    0    0    0 -0.00000000000E+00 -0.00000000000E+00 -0.45593999997E+02  0.45594000000E+02  0.51100000000E-03 0. -1.
    9900012    2    1    2    0    0  0.18967712656E+02  0.18236969238E+02 -0.34514664488E+02  0.47787271491E+02  0.20000002035E+02 0.  0.
        -12    1    1    2    0    0 -0.18967712656E+02 -0.18236969238E+02  0.34514664488E+02  0.43400728509E+02  0.00000000000E+00 0.  1.
         11    1    3    3    0    0  0.19636275449E+01  0.77296998352E+01 -0.19680726241E+01  0.82144630252E+01  0.51100000000E-03 0. -1.
        -11    1    3    3    0    0  0.90177771866E+01  0.29340627234E+01 -0.70951430857E+01  0.11843567246E+02  0.51100000000E-03 0.  1.
         12    1    3    3    0    0  0.79863079246E+01  0.75732066794E+01 -0.25451448778E+02  0.27729241219E+02  0.00000000000E+00 0. -1.
</event>
<event>
 7    1  0.4356471E-010  0.4778721E+02  0.7816164E-02  0.1312668E+00
        -11   -1    0    0    0    0  0.00000000000E+00  0.00000000000E+00  0.45593999997E+02  0.45594000000E+02  0.51100000000E-03 0. -1.
         11   -1    0    0    0    0 -0.00000000000E+00 -0.00000000000E+00 -0.45593999997E+02  0.45594000000E+02  0.51100000000E-03 0.  1.
    9900012    2    1    2    0    0  0.12449423331E+01  0.32801230002E+02  0.28392916972E+02  0.47787213081E+02  0.19999735720E+02 0.  0.
        -12    1    1    2    0    0 -0.12449423331E+01 -0.32801230002E+02 -0.28392916972E+02  0.43400786919E+02  0.00000000000E+00 0.  1.
         11    1    3    3    0    0 -0.29962071027E+01  0.35078859047E+01  0.38725317400E+01  0.60232070246E+01  0.51100000000E-03 0. -1.
        -11    1    3    3    0    0 -0.23504784170E+00  0.35298703198E+01  0.12487396782E+02  0.12978840881E+02  0.51100000000E-03 0.  1.
         12    1    3    3    0    0  0.44761972775E+01  0.25763473777E+02  0.12032988449E+02  0.28785165175E+02  0.00000000000E+00 0. -1.
</event>
<event>
 7    1  0.4356471E-010  0.4778727E+02  0.7816164E-02  0.1312668E+00
        -11   -1    0    0    0    0  0.00000000000E+00  0.00000000000E+00  0.45593999997E+02  0.45594000000E+02  0.51100000000E-03 0.  1.
         11   -1    0    0    0    0 -0.00000000000E+00 -0.00000000000E+00 -0.45593999997E+02  0.45594000000E+02  0.51100000000E-03 0. -1.
    9900012    2    1    2    0    0 -0.35862950584E+02  0.13340765194E+02 -0.20481599183E+02  0.47787272522E+02  0.20000006736E+02 0.  0.
        -12    1    1    2    0    0  0.35862950584E+02 -0.13340765194E+02  0.20481599183E+02  0.43400727478E+02  0.00000000000E+00 0.  1.
         11    1    3    3    0    0 -0.16886705749E+02  0.58030224158E+01 -0.47594854611E+01  0.18479410227E+02  0.51100000000E-03 0. -1.
        -11    1    3    3    0    0 -0.55231327972E+01  0.87566077151E+01 -0.30667645516E+01  0.10797602495E+02  0.51100000000E-03 0.  1.
         12    1    3    3    0    0 -0.13453112038E+02 -0.12188649367E+01 -0.12655349170E+02  0.18510259799E+02  0.00000000000E+00 0. -1.
</event>
<event>
 7    1  0.4356471E-010  0.4778727E+02  0.7816164E-02  0.1312668E+00
        -11   -1    0    0    0    0  0.00000000000E+00  0.00000000000E+00  0.45593999997E+02  0.45594000000E+02  0.51100000000E-03 0. -1.
         11   -1    0    0    0    0 -0.00000000000E+00 -0.00000000000E+00 -0.45593999997E+02  0.45594000000E+02  0.51100000000E-03 0.  1.
    9900012    2    1    2    0    0 -0.32015543642E+02 -0.26056968527E+02  0.13403836113E+02  0.47787268830E+02  0.19999989905E+02 0.  0.
        -12    1    1    2    0    0  0.32015543642E+02  0.26056968527E+02 -0.13403836113E+02  0.43400731170E+02  0.00000000000E+00 0.  1.
         11    1    3    3    0    0 -0.26137765488E+01 -0.73372564785E+01  0.62276297349E+01  0.99724887994E+01  0.51100000000E-03 0. -1.
        -11    1    3    3    0    0 -0.20247759761E+01  0.65646553953E-01 -0.25127778312E+01  0.32277050537E+01  0.51100000000E-03 0.  1.
         12    1    3    3    0    0 -0.27376991117E+02 -0.18785358602E+02  0.96889842098E+01  0.34587074977E+02  0.00000000000E+00 0. -1.
</event>
<event>
 7    1  0.4356471E-010  0.4778725E+02  0.7816164E-02  0.1312668E+00
        -11   -1    0    0    0    0  0.00000000000E+00  0.00000000000E+00  0.45593999997E+02  0.45594000000E+02  0.51100000000E-03 0. -1.
         11   -1    0    0    0    0 -0.00000000000E+00 -0.00000000000E+00 -0.45593999997E+02  0.45594000000E+02  0.51100000000E-03 0.  1.
    9900012    2    1    2    0    0 -0.26984275410E+02 -0.31145615715E+02 -0.13617061541E+02  0.47787252740E+02  0.19999916544E+02 0.  0.
        -12    1    1    2    0    0  0.26984275410E+02  0.31145615715E+02  0.13617061541E+02  0.43400747260E+02  0.00000000000E+00 0.  1.
         11    1    3    3    0    0 -0.85756921542E+01 -0.84061937785E+01 -0.78253642072E+01  0.14333279981E+02  0.51100000000E-03 0.  1.
        -11    1    3    3    0    0 -0.81014321667E+01 -0.14640400086E+02 -0.10233103074E+02  0.19613539115E+02  0.51100000000E-03 0. -1.
        -12    1    3    3    0    0 -0.10307151090E+02 -0.80990218502E+01  0.44414057408E+01  0.13840433644E+02  0.00000000000E+00 0.  1.
</event>
<event>
 7    1  0.4356471E-010  0.4778727E+02  0.7816164E-02  0.1312668E+00
        -11   -1    0    0    0    0  0.00000000000E+00  0.00000000000E+00  0.45593999997E+02  0.45594000000E+02  0.51100000000E-03 0.  1.
         11   -1    0    0    0    0 -0.00000000000E+00 -0.00000000000E+00 -0.45593999997E+02  0.45594000000E+02  0.51100000000E-03 0. -1.
    9900012    2    1    2    0    0  0.18730920324E+01 -0.28124313709E+01 -0.43268982411E+02  0.47787273245E+02  0.20000010033E+02 0.  0.
        -12    1    1    2    0    0 -0.18730920324E+01  0.28124313709E+01  0.43268982411E+02  0.43400726755E+02  0.00000000000E+00 0.  1.
         11    1    3    3    0    0  0.71748299117E+01 -0.46698968970E+01 -0.17771370436E+02  0.19725813765E+02  0.51100000000E-03 0. -1.
        -11    1    3    3    0    0  0.16997254013E+01  0.38083708959E+01 -0.12397353847E+02  0.13080028211E+02  0.51100000000E-03 0.  1.
        -12    1    3    3    0    0 -0.70014632805E+01 -0.19509053698E+01 -0.13100258128E+02  0.14981431269E+02  0.00000000000E+00 0.  1.
</event>
<event>
 7    1  0.4356471E-010  0.4778728E+02  0.7816164E-02  0.1312668E+00
        -11   -1    0    0    0    0  0.00000000000E+00  0.00000000000E+00  0.45593999997E+02  0.45594000000E+02  0.51100000000E-03 0. -1.
         11   -1    0    0    0    0 -0.00000000000E+00 -0.00000000000E+00 -0.45593999997E+02  0.45594000000E+02  0.51100000000E-03 0.  1.
    9900012    2    1    2    0    0 -0.59713595572E+01 -0.40752948498E+02  0.13680739424E+02  0.47787279068E+02  0.20000036583E+02 0.  0.
        -12    1    1    2    0    0  0.59713595572E+01  0.40752948498E+02 -0.13680739424E+02  0.43400720932E+02  0.00000000000E+00 0.  1.
         11    1    3    3    0    0  0.21578263255E+01 -0.11832581237E+02  0.74758013824E+01  0.14161701867E+02  0.51100000000E-03 0. -1.
        -11    1    3    3    0    0  0.28693701969E+01 -0.10035940549E+01  0.43895379829E+00  0.30713461303E+01  0.51100000000E-03 0.  1.
         12    1    3    3    0    0 -0.10998556080E+02 -0.27916773206E+02  0.57659842432E+01  0.30554231071E+02  0.00000000000E+00 0. -1.
</event>
<event>
 7    1  0.4356471E-010  0.4778728E+02  0.7816164E-02  0.1312668E+00
        -11   -1    0    0    0    0  0.00000000000E+00  0.00000000000E+00  0.45593999997E+02  0.45594000000E+02  0.51100000000E-03 0. -1.
         11   -1    0    0    0    0 -0.00000000000E+00 -0.00000000000E+00 -0.45593999997E+02  0.45594000000E+02  0.51100000000E-03 0.  1.
    9900012    2    1    2    0    0 -0.35030457235E+02  0.25276035845E+02 -0.41966661083E+01  0.47787275023E+02  0.20000018139E+02 0.  0.
        -12    1    1    2    0    0  0.35030457235E+02 -0.25276035845E+02  0.41966661083E+01  0.43400724977E+02  0.00000000000E+00 0.  1.
         11    1    3    3    0    0 -0.19317201148E+02  0.89085005510E+01 -0.68018534613E+01  0.22333402182E+02  0.51100000000E-03 0.  1.
        -11    1    3    3    0    0 -0.89845049003E+01  0.11946816304E+02 -0.34968213884E+01  0.15351726554E+02  0.51100000000E-03 0. -1.
         12    1    3    3    0    0 -0.67287511865E+01  0.44207189902E+01  0.61020087413E+01  0.10102146287E+02  0.00000000000E+00 0. -1.
</event>
<event>
 7    1  0.4356471E-010  0.4778727E+02  0.7816164E-02  0.1312668E+00
        -11   -1    0    0    0    0  0.00000000000E+00  0.00000000000E+00  0.45593999997E+02  0.45594000000E+02  0.51100000000E-03 0.  1.
         11   -1    0    0    0    0 -0.00000000000E+00 -0.00000000000E+00 -0.45593999997E+02  0.45594000000E+02  0.51100000000E-03 0. -1.
    9900012    2    1    2    0    0 -0.66033070452E+01 -0.42894928068E+02  0.21170512305E+00  0.47787270318E+02  0.19999996688E+02 0.  0.
        -12    1    1    2    0    0  0.66033070452E+01  0.42894928068E+02 -0.21170512305E+00  0.43400729682E+02  0.00000000000E+00 0.  1.
         11    1    3    3    0    0 -0.63471018941E+01 -0.53201624292E+01 -0.40554801038E+01  0.92215372829E+01  0.51100000000E-03 0. -1.
        -11    1    3    3    0    0 -0.25224594192E+01 -0.13654992335E+02 -0.11571413070E+01  0.13934152054E+02  0.51100000000E-03 0.  1.
        -12    1    3    3    0    0  0.22662542681E+01 -0.23919773303E+02  0.54243265338E+01  0.24631580981E+02  0.00000000000E+00 0.  1.
</event>
<event>
 7    1  0.5002562E-010  0.4778730E+02  0.7816164E-02  0.1312668E+00
        -11   -1    0    0    0    0  0.00000000000E+00  0.00000000000E+00  0.45593999997E+02  0.45594000000E+02  0.51100000000E-03 0.  1.
         11   -1    0    0    0    0 -0.00000000000E+00 -0.00000000000E+00 -0.45593999997E+02  0.45594000000E+02  0.51100000000E-03 0. -1.
    9900012    2    1    2    0    0  0.35696611131E+02  0.10933551826E+02 -0.22132108686E+02  0.47787299123E+02  0.20000128021E+02 0.  0.
        -12    1    1    2    0    0 -0.35696611131E+02 -0.10933551826E+02  0.22132108686E+02  0.43400700877E+02  0.00000000000E+00 0.  1.
         11    1    3    3    0    0  0.38803468433E+01 -0.12414179222E+00 -0.57239575309E+01  0.69163713670E+01  0.51100000000E-03 0.  1.
        -11    1    3    3    0    0  0.58694557418E+00  0.35945264267E+01  0.16875884445E+01  0.40141101578E+01  0.51100000000E-03 0. -1.
         12    1    3    3    0    0  0.31229318713E+02  0.74631671911E+01 -0.18095739600E+02  0.36856817598E+02  0.00000000000E+00 0. -1.
</event>
<event>
 7    1  0.4356471E-010  0.4778727E+02  0.7816164E-02  0.1312668E+00
        -11   -1    0    0    0    0  0.00000000000E+00  0.00000000000E+00  0.45593999997E+02  0.45594000000E+02  0.51100000000E-03 0. -1.
         11   -1    0    0    0    0 -0.00000000000E+00 -0.00000000000E+00 -0.45593999997E+02  0.45594000000E+02  0.51100000000E-03 0.  1.
    9900012    2    1    2    0    0 -0.96222425667E+01  0.68522478644E+01  0.41762213517E+02  0.47787270390E+02  0.19999997017E+02 0.  0.
        -12    1    1    2    0    0  0.96222425667E+01 -0.68522478644E+01 -0.41762213517E+02  0.43400729610E+02  0.00000000000E+00 0.  1.
         11    1    3    3    0    0 -0.33277427470E+01  0.48794446646E+01  0.22466334323E+02  0.23229701466E+02  0.51100000000E-03 0. -1.
        -11    1    3    3    0    0  0.10433966360E+01  0.64627208116E+01  0.74494047909E+01  0.99171099030E+01  0.51100000000E-03 0.  1.
         12    1    3    3    0    0 -0.73378964558E+01 -0.44899176118E+01  0.11846474403E+02  0.14640459021E+02  0.00000000000E+00 0. -1.
</event>
<event>
 7    1  0.4356471E-010  0.4778727E+02  0.7816164E-02  0.1312668E+00
        -11   -1    0    0    0    0  0.00000000000E+00  0.00000000000E+00  0.45593999997E+02  0.45594000000E+02  0.51100000000E-03 0.  1.
         11   -1    0    0    0    0 -0.00000000000E+00 -0.00000000000E+00 -0.45593999997E+02  0.45594000000E+02  0.51100000000E-03 0. -1.
    9900012    2    1    2    0    0 -0.43002628649E+02 -0.55972235693E+01 -0.17516304467E+01  0.47787271992E+02  0.20000004321E+02 0.  0.
        -12    1    1    2    0    0  0.43002628649E+02  0.55972235693E+01  0.17516304467E+01  0.43400728008E+02  0.00000000000E+00 0.  1.
         11    1    3    3    0    0 -0.11072928353E+02 -0.39266001344E+01  0.13897128480E+01  0.11830436720E+02  0.51100000000E-03 0. -1.
        -11    1    3    3    0    0 -0.19022246640E+02 -0.57860991821E+01  0.45239721050E+01  0.20390957183E+02  0.51100000000E-03 0.  1.
        -12    1    3    3    0    0 -0.12907453656E+02  0.41154757472E+01 -0.76653153996E+01  0.15565878089E+02  0.00000000000E+00 0.  1.
</event>
<event>
 7    1  0.4356471E-010  0.4778727E+02  0.7816164E-02  0.1312668E+00
        -11   -1    0    0    0    0  0.00000000000E+00  0.00000000000E+00  0.45593999997E+02  0.45594000000E+02  0.51100000000E-03 0.  1.
         11   -1    0    0    0    0 -0.00000000000E+00 -0.00000000000E+00 -0.45593999997E+02  0.45594000000E+02  0.51100000000E-03 0. -1.
    9900012    2    1    2    0    0 -0.13679955102E+02  0.28603481851E+02 -0.29636508678E+02  0.47787274290E+02  0.20000014797E+02 0.  0.
        -12    1    1    2    0    0  0.13679955102E+02 -0.28603481851E+02  0.29636508678E+02  0.43400725710E+02  0.00000000000E+00 0.  1.
         11    1    3    3    0    0  0.10608066730E+01  0.63868589353E+01 -0.45059342163E+01  0.78880112373E+01  0.51100000000E-03 0. -1.
        -11    1    3    3    0    0 -0.61421234531E+01  0.20053008385E+02 -0.12332548523E+02  0.24329828999E+02  0.51100000000E-03 0.  1.
        -12    1    3    3    0    0 -0.85986383221E+01  0.21636145306E+01 -0.12798025938E+02  0.15569434053E+02  0.00000000000E+00 0.  1.
</event>
<event>
 7    1  0.4356471E-010  0.4778727E+02  0.7816164E-02  0.1312668E+00
        -11   -1    0    0    0    0  0.00000000000E+00  0.00000000000E+00  0.45593999997E+02  0.45594000000E+02  0.51100000000E-03 0.  1.
         11   -1    0    0    0    0 -0.00000000000E+00 -0.00000000000E+00 -0.45593999997E+02  0.45594000000E+02  0.51100000000E-03 0. -1.
    9900012    2    1    2    0    0 -0.34947270128E+02  0.24483095060E+02 -0.79302952189E+01  0.47787271719E+02  0.20000003074E+02 0.  0.
        -12    1    1    2    0    0  0.34947270128E+02 -0.24483095060E+02  0.79302952189E+01  0.43400728281E+02  0.00000000000E+00 0.  1.
         11    1    3    3    0    0 -0.10754847711E+02  0.52394301195E+00 -0.15481150277E+01  0.10878323675E+02  0.51100000000E-03 0.  1.
        -11    1    3    3    0    0 -0.16850990910E+02  0.14615961462E+02  0.19570665570E+01  0.22392238251E+02  0.51100000000E-03 0. -1.
         12    1    3    3    0    0 -0.73414315060E+01  0.93431905861E+01 -0.83392467482E+01  0.14516709793E+02  0.00000000000E+00 0. -1.
</event>
<event>
 7    1  0.4356471E-010  0.4778727E+02  0.7816164E-02  0.1312668E+00
        -11   -1    0    0    0    0  0.00000000000E+00  0.00000000000E+00  0.45593999997E+02  0.45594000000E+02  0.51100000000E-03 0. -1.
         11   -1    0    0    0    0 -0.00000000000E+00 -0.00000000000E+00 -0.45593999997E+02  0.45594000000E+02  0.51100000000E-03 0.  1.
    9900012    2    1    2    0    0  0.75333456817E+01 -0.22817571715E+02  0.36141806867E+02  0.47787273281E+02  0.20000010196E+02 0.  0.
        -12    1    1    2    0    0 -0.75333456817E+01  0.22817571715E+02 -0.36141806867E+02  0.43400726719E+02  0.00000000000E+00 0.  1.
         11    1    3    3    0    0 -0.54191403801E+01 -0.89815039476E+01  0.17320402897E+02  0.20249218562E+02  0.51100000000E-03 0. -1.
        -11    1    3    3    0    0  0.21480932526E+01 -0.43640752501E+00  0.23352370255E+00  0.22043796702E+01  0.51100000000E-03 0.  1.
         12    1    3    3    0    0  0.10804392809E+02 -0.13399660243E+02  0.18587880268E+02  0.25333675048E+02  0.00000000000E+00 0. -1.
</event>
<event>
 7    1  0.4356471E-010  0.4778727E+02  0.7816164E-02  0.1312668E+00
        -11   -1    0    0    0    0  0.00000000000E+00  0.00000000000E+00  0.45593999997E+02  0.45594000000E+02  0.51100000000E-03 0. -1.
         11   -1    0    0    0    0 -0.00000000000E+00 -0.00000000000E+00 -0.45593999997E+02  0.45594000000E+02  0.51100000000E-03 0.  1.
    9900012    2    1    2    0    0 -0.25082660218E+02  0.32290196051E+02 -0.14554282405E+02  0.47787265664E+02  0.19999975467E+02 0.  0.
        -12    1    1    2    0    0  0.25082660218E+02 -0.32290196051E+02  0.14554282405E+02  0.43400734336E+02  0.00000000000E+00 0.  1.
         11    1    3    3    0    0 -0.17157888949E+02  0.18128531362E+02 -0.52816064877E+01  0.25513372374E+02  0.51100000000E-03 0. -1.
        -11    1    3    3    0    0 -0.56059977277E+00 -0.22144313026E+01 -0.80789322227E+00  0.24229465159E+01  0.51100000000E-03 0.  1.
         12    1    3    3    0    0 -0.73641714954E+01  0.16376095992E+02 -0.84647826948E+01  0.19850946774E+02  0.00000000000E+00 0. -1.
</event>
<event>
 7    1  0.4356471E-010  0.4778728E+02  0.7816164E-02  0.1312668E+00
        -11   -1    0    0    0    0  0.00000000000E+00  0.00000000000E+00  0.45593999997E+02  0.45594000000E+02  0.51100000000E-03 0.  1.
         11   -1    0    0    0    0 -0.00000000000E+00 -0.00000000000E+00 -0.45593999997E+02  0.45594000000E+02  0.51100000000E-03 0. -1.
    9900012    2    1    2    0    0  0.13724409342E+02 -0.16563706855E+01 -0.41140239107E+02  0.47787282847E+02  0.20000053813E+02 0.  0.
        -12    1    1    2    0    0 -0.13724409342E+02  0.16563706855E+01  0.41140239107E+02  0.43400717153E+02  0.00000000000E+00 0.  1.
         11    1    3    3    0    0  0.85960341111E+01 -0.53379230584E+00 -0.97608131731E+01  0.13017304280E+02  0.51100000000E-03 0. -1.
        -11    1    3    3    0    0 -0.12845314753E+00 -0.20637543822E+01  0.75013674966E+00  0.21996108214E+01  0.51100000000E-03 0.  1.
        -12    1    3    3    0    0  0.52568283787E+01  0.94117600255E+00 -0.32129562683E+02  0.32570367745E+02  0.00000000000E+00 0.  1.
</event>
<event>
 7    1  0.4356471E-010  0.4778727E+02  0.7816164E-02  0.1312668E+00
        -11   -1    0    0    0    0  0.00000000000E+00  0.00000000000E+00  0.45593999997E+02  0.45594000000E+02  0.51100000000E-03 0.  1.
         11   -1    0    0    0    0 -0.00000000000E+00 -0.00000000000E+00 -0.45593999997E+02  0.45594000000E+02  0.51100000000E-03 0. -1.
    9900012    2    1    2    0    0  0.32171070087E+02  0.14023685543E+02 -0.25533935799E+02  0.47787269774E+02  0.19999994206E+02 0.  0.
        -12    1    1    2    0    0 -0.32171070087E+02 -0.14023685543E+02  0.25533935799E+02  0.43400730226E+02  0.00000000000E+00 0.  1.
         11    1    3    3    0    0  0.59091251540E+01  0.44945902406E+01 -0.35307880146E+01  0.82210440810E+01  0.51100000000E-03 0. -1.
        -11    1    3    3    0    0  0.99984571383E+01 -0.47420772762E+01 -0.55233233702E+01  0.12367843116E+02  0.51100000000E-03 0.  1.
        -12    1    3    3    0    0  0.16263487795E+02  0.14271172579E+02 -0.16479824414E+02  0.27198382576E+02  0.00000000000E+00 0.  1.
</event>
<event>
 7    1  0.4356471E-010  0.4778727E+02  0.7816164E-02  0.1312668E+00
        -11   -1    0    0    0    0  0.00000000000E+00  0.00000000000E+00  0.45593999997E+02  0.45594000000E+02  0.51100000000E-03 0. -1.
         11   -1    0    0    0    0 -0.00000000000E+00 -0.00000000000E+00 -0.45593999997E+02  0.45594000000E+02  0.51100000000E-03 0.  1.
    9900012    2    1    2    0    0  0.16882299925E+02 -0.26294971015E+02  0.30119521556E+02  0.47787272699E+02  0.20000007546E+02 0.  0.
        -12    1    1    2    0    0 -0.16882299925E+02  0.26294971015E+02 -0.30119521556E+02  0.43400727301E+02  0.00000000000E+00 0.  1.
         11    1    3    3    0    0  0.79362900673E+01 -0.10179230947E+02  0.60899302651E+01  0.14271954792E+02  0.51100000000E-03 0. -1.
        -11    1    3    3    0    0  0.12291192925E+02 -0.15290160551E+02  0.18292539053E+02  0.26823113512E+02  0.51100000000E-03 0.  1.
        -12    1    3    3    0    0 -0.33451830671E+01 -0.82557951759E+00  0.57370522375E+01  0.66922043953E+01  0.00000000000E+00 0.  1.
</event>
<event>
 7    1  0.4356471E-010  0.4778727E+02  0.7816164E-02  0.1312668E+00
        -11   -1    0    0    0    0  0.00000000000E+00  0.00000000000E+00  0.45593999997E+02  0.45594000000E+02  0.51100000000E-03 0. -1.
         11   -1    0    0    0    0 -0.00000000000E+00 -0.00000000000E+00 -0.45593999997E+02  0.45594000000E+02  0.51100000000E-03 0.  1.
    9900012    2    1    2    0    0  0.20510553015E+02 -0.35991432380E+02  0.12944392758E+02  0.47787270817E+02  0.19999998964E+02 0.  0.
        -12    1    1    2    0    0 -0.20510553015E+02  0.35991432380E+02 -0.12944392758E+02  0.43400729183E+02  0.00000000000E+00 0.  1.
         11    1    3    3    0    0  0.74521168830E+01 -0.19173337604E+02  0.67093777994E+01  0.21637159509E+02  0.51100000000E-03 0. -1.
        -11    1    3    3    0    0  0.51500207467E+00  0.20045538594E+01  0.24653336017E+01  0.32189025057E+01  0.51100000000E-03 0.  1.
        -12    1    3    3    0    0  0.12543434058E+02 -0.18822648635E+02  0.37696813564E+01  0.22931208802E+02  0.00000000000E+00 0.  1.
</event>
<event>
 7    1  0.4356471E-010  0.4778727E+02  0.7816164E-02  0.1312668E+00
        -11   -1    0    0    0    0  0.00000000000E+00  0.00000000000E+00  0.45593999997E+02  0.45594000000E+02  0.51100000000E-03 0. -1.
         11   -1    0    0    0    0 -0.00000000000E+00 -0.00000000000E+00 -0.45593999997E+02  0.45594000000E+02  0.51100000000E-03 0.  1.
    9900012    2    1    2    0    0  0.27905460040E+02 -0.20193652164E+02 -0.26403129237E+02  0.47787268194E+02  0.19999987004E+02 0.  0.
        -12    1    1    2    0    0 -0.27905460040E+02  0.20193652164E+02  0.26403129237E+02  0.43400731806E+02  0.00000000000E+00 0.  1.
         11    1    3    3    0    0  0.14242846175E+01 -0.10942747473E+02 -0.47042331353E+01  0.11995920914E+02  0.51100000000E-03 0.  1.
        -11    1    3    3    0    0  0.16905322849E+02 -0.76078043534E+01 -0.12126872650E+02  0.22152419015E+02  0.51100000000E-03 0. -1.
        -12    1    3    3    0    0  0.95758525740E+01 -0.16431003375E+01 -0.95720234520E+01  0.13638928264E+02  0.00000000000E+00 0.  1.
</event>
<event>
 7    1  0.4356471E-010  0.4778727E+02  0.7816164E-02  0.1312668E+00
        -11   -1    0    0    0    0  0.00000000000E+00  0.00000000000E+00  0.45593999997E+02  0.45594000000E+02  0.51100000000E-03 0. -1.
         11   -1    0    0    0    0 -0.00000000000E+00 -0.00000000000E+00 -0.45593999997E+02  0.45594000000E+02  0.51100000000E-03 0.  1.
    9900012    2    1    2    0    0  0.23720513748E+02  0.87429124304E+01  0.35277784313E+02  0.47787270095E+02  0.19999995673E+02 0.  0.
        -12    1    1    2    0    0 -0.23720513748E+02 -0.87429124304E+01 -0.35277784313E+02  0.43400729905E+02  0.00000000000E+00 0.  1.
         11    1    3    3    0    0 -0.42813521409E+00  0.71623814077E+01  0.62144117446E+01  0.94922031576E+01  0.51100000000E-03 0. -1.
        -11    1    3    3    0    0  0.18339827365E+01 -0.10310042940E+01  0.47250594570E+01  0.51722963628E+01  0.51100000000E-03 0.  1.
         12    1    3    3    0    0  0.22314666225E+02  0.26115353167E+01  0.24338313111E+02  0.33122770575E+02  0.00000000000E+00 0. -1.
</event>
<event>
 7    1  0.4356471E-010  0.4778728E+02  0.7816164E-02  0.1312668E+00
        -11   -1    0    0    0    0  0.00000000000E+00  0.00000000000E+00  0.45593999997E+02  0.45594000000E+02  0.51100000000E-03 0.  1.
         11   -1    0    0    0    0 -0.00000000000E+00 -0.00000000000E+00 -0.45593999997E+02  0.45594000000E+02  0.51100000000E-03 0. -1.
    9900012    2    1    2    0    0  0.42505253023E+02 -0.18249960533E+01 -0.85787554311E+01  0.47787283533E+02  0.20000056940E+02 0.  0.
        -12    1    1    2    0    0 -0.42505253023E+02  0.18249960533E+01  0.85787554311E+01  0.43400716467E+02  0.00000000000E+00 0.  1.
         11    1    3    3    0    0  0.21695117748E+02 -0.89404145386E+01 -0.14691504639E+01  0.23511009114E+02  0.51100000000E-03 0. -1.
        -11    1    3    3    0    0  0.12709947650E+01  0.18045399330E+01  0.10521451414E+01  0.24451588337E+01  0.51100000000E-03 0.  1.
        -12    1    3    3    0    0  0.19539140510E+02  0.53108785523E+01 -0.81617501085E+01  0.21831115585E+02  0.00000000000E+00 0.  1.
</event>
<event>
 7    1  0.4356471E-010  0.4778727E+02  0.7816164E-02  0.1312668E+00
        -11   -1    0    0    0    0  0.00000000000E+00  0.00000000000E+00  0.45593999997E+02  0.45594000000E+02  0.51100000000E-03 0.  1.
         11   -1    0    0    0    0 -0.00000000000E+00 -0.00000000000E+00 -0.45593999997E+02  0.45594000000E+02  0.51100000000E-03 0. -1.
    9900012    2    1    2    0    0 -0.83615152682E+01  0.41084507938E+02 -0.11214791246E+02  0.47787271057E+02  0.20000000055E+02 0.  0.
        -12    1    1    2    0    0  0.83615152682E+01 -0.41084507938E+02  0.11214791246E+02  0.43400728943E+02  0.00000000000E+00 0.  1.
         11    1    3    3    0    0 -0.40222752251E+01  0.56036570610E+01  0.14301360832E+01  0.70444985572E+01  0.51100000000E-03 0. -1.
        -11    1    3    3    0    0  0.37696856102E+01  0.62500687660E+01  0.12018947465E+01  0.73971913875E+01  0.51100000000E-03 0.  1.
         12    1    3    3    0    0 -0.81089256533E+01  0.29230782111E+02 -0.13846822076E+02  0.33345581112E+02  0.00000000000E+00 0. -1.
</event>
<event>
 7    1  0.4356471E-010  0.4778726E+02  0.7816164E-02  0.1312668E+00
        -11   -1    0    0    0    0  0.00000000000E+00  0.00000000000E+00  0.45593999997E+02  0.45594000000E+02  0.51100000000E-03 0. -1.
         11   -1    0    0    0    0 -0.00000000000E+00 -0.00000000000E+00 -0.45593999997E+02  0.45594000000E+02  0.51100000000E-03 0.  1.
    9900012    2    1    2    0    0  0.16390089259E+01  0.28951511741E+02  0.32291600349E+02  0.47787264575E+02  0.19999970501E+02 0.  0.
        -12    1    1    2    0    0 -0.16390089259E+01 -0.28951511741E+02 -0.32291600349E+02  0.43400735425E+02  0.00000000000E+00 0.  1.
         11    1    3    3    0    0 -0.15922193665E+01  0.50005983910E+00  0.74311080558E+00  0.18268651521E+01  0.51100000000E-03 0. -1.
        -11    1    3    3    0    0 -0.38606910042E+01  0.22162416004E+01  0.17805586981E+00  0.44551505042E+01  0.51100000000E-03 0.  1.
         12    1    3    3    0    0  0.70919192966E+01  0.26235210302E+02  0.31370433674E+02  0.41505248918E+02  0.00000000000E+00 0. -1.
</event>
<event>
 7    1  0.4356471E-010  0.4778728E+02  0.7816164E-02  0.1312668E+00
        -11   -1    0    0    0    0  0.00000000000E+00  0.00000000000E+00  0.45593999997E+02  0.45594000000E+02  0.51100000000E-03 0. -1.
         11   -1    0    0    0    0 -0.00000000000E+00 -0.00000000000E+00 -0.45593999997E+02  0.45594000000E+02  0.51100000000E-03 0.  1.
    9900012    2    1    2    0    0 -0.23018478196E+02 -0.49704172471E+01  0.36456372720E+02  0.47787279984E+02  0.20000040758E+02 0.  0.
        -12    1    1    2    0    0  0.23018478196E+02  0.49704172471E+01 -0.36456372720E+02  0.43400720016E+02  0.00000000000E+00 0.  1.
         11    1    3    3    0    0 -0.11093012740E+02 -0.13673231778E+01  0.12675668311E+02  0.16899617502E+02  0.51100000000E-03 0. -1.
        -11    1    3    3    0    0 -0.14889675672E+02 -0.39154426404E+01  0.14533847602E+02  0.21172289887E+02  0.51100000000E-03 0.  1.
         12    1    3    3    0    0  0.29642102167E+01  0.31234857114E+00  0.92468568072E+01  0.97153725945E+01  0.00000000000E+00 0. -1.
</event>
<event>
 7    1  0.4356471E-010  0.4778727E+02  0.7816164E-02  0.1312668E+00
        -11   -1    0    0    0    0  0.00000000000E+00  0.00000000000E+00  0.45593999997E+02  0.45594000000E+02  0.51100000000E-03 0.  1.
         11   -1    0    0    0    0 -0.00000000000E+00 -0.00000000000E+00 -0.45593999997E+02  0.45594000000E+02  0.51100000000E-03 0. -1.
    9900012    2    1    2    0    0  0.23155307872E+02  0.29774533723E+02 -0.21469328018E+02  0.47787272050E+02  0.20000004584E+02 0.  0.
        -12    1    1    2    0    0 -0.23155307872E+02 -0.29774533723E+02  0.21469328018E+02  0.43400727950E+02  0.00000000000E+00 0.  1.
         11    1    3    3    0    0  0.88050233374E+00  0.79950489754E+01 -0.12137109581E+02  0.14560409394E+02  0.51100000000E-03 0. -1.
        -11    1    3    3    0    0  0.35049559493E+00 -0.12982038228E+00 -0.10933984751E+01  0.11555176243E+01  0.51100000000E-03 0.  1.
        -12    1    3    3    0    0  0.21924309944E+02  0.21909305129E+02 -0.82388199623E+01  0.32071345031E+02  0.00000000000E+00 0.  1.
</event>
<event>
 7    1  0.4356471E-010  0.4778727E+02  0.7816164E-02  0.1312668E+00
        -11   -1    0    0    0    0  0.00000000000E+00  0.00000000000E+00  0.45593999997E+02  0.45594000000E+02  0.51100000000E-03 0. -1.
         11   -1    0    0    0    0 -0.00000000000E+00 -0.00000000000E+00 -0.45593999997E+02  0.45594000000E+02  0.51100000000E-03 0.  1.
    9900012    2    1    2    0    0  0.39237755124E+02  0.17215742960E+02 -0.69021822000E+01  0.47787270145E+02  0.19999995897E+02 0.  0.
        -12    1    1    2    0    0 -0.39237755124E+02 -0.17215742960E+02  0.69021822000E+01  0.43400729855E+02  0.00000000000E+00 0.  1.
         11    1    3    3    0    0  0.16009556917E+02  0.50193042044E+01  0.38487847908E+01  0.17213729172E+02  0.51100000000E-03 0. -1.
        -11    1    3    3    0    0  0.15540692816E+02  0.19355880770E+01 -0.44089517923E+01  0.16269557172E+02  0.51100000000E-03 0.  1.
         12    1    3    3    0    0  0.76875053910E+01  0.10260850679E+02 -0.63420151985E+01  0.14303983801E+02  0.00000000000E+00 0. -1.
</event>
<event>
 7    1  0.4356471E-010  0.4778727E+02  0.7816164E-02  0.1312668E+00
        -11   -1    0    0    0    0  0.00000000000E+00  0.00000000000E+00  0.45593999997E+02  0.45594000000E+02  0.51100000000E-03 0.  1.
         11   -1    0    0    0    0 -0.00000000000E+00 -0.00000000000E+00 -0.45593999997E+02  0.45594000000E+02  0.51100000000E-03 0. -1.
    9900012    2    1    2    0    0 -0.39489775384E+02  0.15209647121E+02  0.96357555916E+01  0.47787268309E+02  0.19999987530E+02 0.  0.
        -12    1    1    2    0    0  0.39489775384E+02 -0.15209647121E+02 -0.96357555916E+01  0.43400731691E+02  0.00000000000E+00 0.  1.
         11    1    3    3    0    0 -0.91737638918E+01  0.94405043516E+01  0.23553618143E+01  0.13372688432E+02  0.51100000000E-03 0. -1.
        -11    1    3    3    0    0 -0.23425628878E+02  0.99977481222E+01  0.44933638315E+01  0.25863205034E+02  0.51100000000E-03 0.  1.
        -12    1    3    3    0    0 -0.68903826146E+01 -0.42286053525E+01  0.27870299458E+01  0.85513748439E+01  0.00000000000E+00 0.  1.
</event>
<event>
 7    1  0.4356471E-010  0.4778727E+02  0.7816164E-02  0.1312668E+00
        -11   -1    0    0    0    0  0.00000000000E+00  0.00000000000E+00  0.45593999997E+02  0.45594000000E+02  0.51100000000E-03 0. -1.
         11   -1    0    0    0    0 -0.00000000000E+00 -0.00000000000E+00 -0.45593999997E+02  0.45594000000E+02  0.51100000000E-03 0.  1.
    9900012    2    1    2    0    0 -0.30474411913E+02  0.21783286136E+02  0.21918526636E+02  0.47787272516E+02  0.20000006708E+02 0.  0.
        -12    1    1    2    0    0  0.30474411913E+02 -0.21783286136E+02 -0.21918526636E+02  0.43400727484E+02  0.00000000000E+00 0.  1.
         11    1    3    3    0    0 -0.89137465484E+01  0.30252371315E+01 -0.47743171739E+00  0.94252256491E+01  0.51100000000E-03 0. -1.
        -11    1    3    3    0    0  0.74230973355E+00  0.50475848816E+00 -0.92440913230E+00  0.12885407936E+01  0.51100000000E-03 0.  1.
         12    1    3    3    0    0 -0.22302975098E+02  0.18253290516E+02  0.23320367485E+02  0.37073506073E+02  0.00000000000E+00 0. -1.
</event>
<event>
 7    1  0.4356471E-010  0.4778727E+02  0.7816164E-02  0.1312668E+00
        -11   -1    0    0    0    0  0.00000000000E+00  0.00000000000E+00  0.45593999997E+02  0.45594000000E+02  0.51100000000E-03 0.  1.
         11   -1    0    0    0    0 -0.00000000000E+00 -0.00000000000E+00 -0.45593999997E+02  0.45594000000E+02  0.51100000000E-03 0. -1.
    9900012    2    1    2    0    0 -0.37008599171E+02 -0.45652999988E+01 -0.22206865574E+02  0.47787271258E+02  0.20000000975E+02 0.  0.
        -12    1    1    2    0    0  0.37008599171E+02  0.45652999988E+01  0.22206865574E+02  0.43400728742E+02  0.00000000000E+00 0.  1.
         11    1    3    3    0    0 -0.27245057883E+02 -0.63530138638E+01 -0.23138003750E+02  0.36304561449E+02  0.51100000000E-03 0. -1.
        -11    1    3    3    0    0 -0.84603552763E+01  0.75277655778E-01 -0.10898201778E+01  0.85305912109E+01  0.51100000000E-03 0.  1.
         12    1    3    3    0    0 -0.13031860118E+01  0.17124362092E+01  0.20209583536E+01  0.29521185984E+01  0.00000000000E+00 0. -1.
</event>
<event>
 7    1  0.4356471E-010  0.4778727E+02  0.7816164E-02  0.1312668E+00
        -11   -1    0    0    0    0  0.00000000000E+00  0.00000000000E+00  0.45593999997E+02  0.45594000000E+02  0.51100000000E-03 0.  1.
         11   -1    0    0    0    0 -0.00000000000E+00 -0.00000000000E+00 -0.45593999997E+02  0.45594000000E+02  0.51100000000E-03 0. -1.
    9900012    2    1    2    0    0  0.15044030040E+02 -0.26846103216E+02 -0.30603713675E+02  0.47787269725E+02  0.19999993982E+02 0.  0.
        -12    1    1    2    0    0 -0.15044030040E+02  0.26846103216E+02  0.30603713675E+02  0.43400730275E+02  0.00000000000E+00 0.  1.
         11    1    3    3    0    0  0.75410336474E+01 -0.26435795476E+02 -0.20590143621E+02  0.34346360586E+02  0.51100000000E-03 0. -1.
        -11    1    3    3    0    0  0.27334319150E+01 -0.61112303307E+00 -0.75834650508E+01  0.80841860340E+01  0.51100000000E-03 0.  1.
         12    1    3    3    0    0  0.47695644778E+01  0.20081529293E+00 -0.24301050027E+01  0.53567231041E+01  0.00000000000E+00 0. -1.
</event>
<event>
 7    1  0.4356471E-010  0.4778726E+02  0.7816164E-02  0.1312668E+00
        -11   -1    0    0    0    0  0.00000000000E+00  0.00000000000E+00  0.45593999997E+02  0.45594000000E+02  0.51100000000E-03 0.  1.
         11   -1    0    0    0    0 -0.00000000000E+00 -0.00000000000E+00 -0.45593999997E+02  0.45594000000E+02  0.51100000000E-03 0. -1.
    9900012    2    1    2    0    0  0.29586960317E+02 -0.26353304360E+02 -0.17712697896E+02  0.47787256478E+02  0.19999933584E+02 0.  0.
        -12    1    1    2    0    0 -0.29586960317E+02  0.26353304360E+02  0.17712697896E+02  0.43400743522E+02  0.00000000000E+00 0.  1.
         11    1    3    3    0    0  0.21681544612E+02 -0.20905617053E+02 -0.12298139265E+02  0.32532728609E+02  0.51100000000E-03 0. -1.
        -11    1    3    3    0    0  0.95281805682E+01 -0.36098080700E+01 -0.10429095266E+01  0.10242294654E+02  0.51100000000E-03 0.  1.
        -12    1    3    3    0    0 -0.16227648632E+01 -0.18378792379E+01 -0.43716491052E+01  0.50122332142E+01  0.00000000000E+00 0.  1.
</event>
<event>
 7    1  0.4356471E-010  0.4778727E+02  0.7816164E-02  0.1312668E+00
        -11   -1    0    0    0    0  0.00000000000E+00  0.00000000000E+00  0.45593999997E+02  0.45594000000E+02  0.51100000000E-03 0. -1.
         11   -1    0    0    0    0 -0.00000000000E+00 -0.00000000000E+00 -0.45593999997E+02  0.45594000000E+02  0.51100000000E-03 0.  1.
    9900012    2    1    2    0    0 -0.45926831504E+01  0.42072986388E+02  0.96121918890E+01  0.47787272413E+02  0.20000006242E+02 0.  0.
        -12    1    1    2    0    0  0.45926831504E+01 -0.42072986388E+02 -0.96121918890E+01  0.43400727587E+02  0.00000000000E+00 0.  1.
         11    1    3    3    0    0 -0.71828308877E+01  0.18358985202E+02 -0.79678820316E+00  0.19730186743E+02  0.51100000000E-03 0. -1.
        -11    1    3    3    0    0  0.85448225078E+00 -0.54071754354E+00 -0.79215915987E+00  0.12845356260E+01  0.51100000000E-03 0.  1.
         12    1    3    3    0    0  0.17356654865E+01  0.24254718729E+02  0.11201139252E+02  0.26772550044E+02  0.00000000000E+00 0. -1.
</event>
<event>
 7    1  0.4356471E-010  0.4778728E+02  0.7816164E-02  0.1312668E+00
        -11   -1    0    0    0    0  0.00000000000E+00  0.00000000000E+00  0.45593999997E+02  0.45594000000E+02  0.51100000000E-03 0.  1.
         11   -1    0    0    0    0 -0.00000000000E+00 -0.00000000000E+00 -0.45593999997E+02  0.45594000000E+02  0.51100000000E-03 0. -1.
    9900012    2    1    2    0    0  0.26716924203E+02  0.32339270624E+00 -0.34201229571E+02  0.47787277358E+02  0.20000028787E+02 0.  0.
        -12    1    1    2    0    0 -0.26716924203E+02 -0.32339270624E+00  0.34201229571E+02  0.43400722642E+02  0.00000000000E+00 0.  1.
         11    1    3    3    0    0 -0.20324255230E+01  0.12981245362E+01 -0.22917813161E+01  0.33268818254E+01  0.51100000000E-03 0. -1.
        -11    1    3    3    0    0  0.56975752380E+00 -0.16356220749E+01 -0.57480966521E+01  0.60033739340E+01  0.51100000000E-03 0.  1.
         12    1    3    3    0    0  0.28179592202E+02  0.66089024490E+00 -0.26161351602E+02  0.38457021599E+02  0.00000000000E+00 0. -1.
</event>
<event>
 7    1  0.4356471E-010  0.4778728E+02  0.7816164E-02  0.1312668E+00
        -11   -1    0    0    0    0  0.00000000000E+00  0.00000000000E+00  0.45593999997E+02  0.45594000000E+02  0.51100000000E-03 0.  1.
         11   -1    0    0    0    0 -0.00000000000E+00 -0.00000000000E+00 -0.45593999997E+02  0.45594000000E+02  0.51100000000E-03 0. -1.
    9900012    2    1    2    0    0 -0.12620654266E+02  0.35649363313E+02 -0.21294697992E+02  0.47787283631E+02  0.20000057387E+02 0.  0.
        -12    1    1    2    0    0  0.12620654266E+02 -0.35649363313E+02  0.21294697992E+02  0.43400716369E+02  0.00000000000E+00 0.  1.
         11    1    3    3    0    0 -0.33077101638E+01  0.16158234320E-01 -0.44872228503E+01  0.55746189812E+01  0.51100000000E-03 0. -1.
        -11    1    3    3    0    0 -0.61980907771E+01  0.54331728334E+01 -0.22569169154E+01  0.85457223535E+01  0.51100000000E-03 0.  1.
         12    1    3    3    0    0 -0.31148533255E+01  0.30200032246E+02 -0.14550558227E+02  0.33666942296E+02  0.00000000000E+00 0. -1.
</event>
<event>
 7    1  0.4356471E-010  0.4778727E+02  0.7816164E-02  0.1312668E+00
        -11   -1    0    0    0    0  0.00000000000E+00  0.00000000000E+00  0.45593999997E+02  0.45594000000E+02  0.51100000000E-03 0.  1.
         11   -1    0    0    0    0 -0.00000000000E+00 -0.00000000000E+00 -0.45593999997E+02  0.45594000000E+02  0.51100000000E-03 0. -1.
    9900012    2    1    2    0    0  0.13164946884E+02  0.14515327114E+01 -0.41330382796E+02  0.47787270563E+02  0.19999997803E+02 0.  0.
        -12    1    1    2    0    0 -0.13164946884E+02 -0.14515327114E+01  0.41330382796E+02  0.43400729437E+02  0.00000000000E+00 0.  1.
         11    1    3    3    0    0  0.11367536998E+02 -0.28737756078E+01 -0.22726966945E+02  0.25573316375E+02  0.51100000000E-03 0. -1.
        -11    1    3    3    0    0  0.44935582802E+01 -0.22311772621E+01 -0.85310953803E+01  0.98969594645E+01  0.51100000000E-03 0.  1.
        -12    1    3    3    0    0 -0.26961483945E+01  0.65564855814E+01 -0.10072320470E+02  0.12316994723E+02  0.00000000000E+00 0.  1.
</event>
<event>
 7    1  0.4356471E-010  0.4778730E+02  0.7816164E-02  0.1312668E+00
        -11   -1    0    0    0    0  0.00000000000E+00  0.00000000000E+00  0.45593999997E+02  0.45594000000E+02  0.51100000000E-03 0.  1.
         11   -1    0    0    0    0 -0.00000000000E+00 -0.00000000000E+00 -0.45593999997E+02  0.45594000000E+02  0.51100000000E-03 0. -1.
    9900012    2    1    2    0    0  0.14734441938E+02 -0.40153929070E+02 -0.73606404242E+01  0.47787299241E+02  0.20000128557E+02 0.  0.
        -12    1    1    2    0    0 -0.14734441938E+02  0.40153929070E+02  0.73606404242E+01  0.43400700759E+02  0.00000000000E+00 0.  1.
         11    1    3    3    0    0  0.73684467382E+01 -0.16793133336E+02 -0.38208045040E+01  0.18732375233E+02  0.51100000000E-03 0. -1.
        -11    1    3    3    0    0  0.19889931054E+01 -0.16978775345E+02  0.42756400779E+01  0.17621464301E+02  0.51100000000E-03 0.  1.
        -12    1    3    3    0    0  0.53770020942E+01 -0.63820203893E+01 -0.78154759981E+01  0.11433459706E+02  0.00000000000E+00 0.  1.
</event>
<event>
 7    1  0.4356471E-010  0.4778727E+02  0.7816164E-02  0.1312668E+00
        -11   -1    0    0    0    0  0.00000000000E+00  0.00000000000E+00  0.45593999997E+02  0.45594000000E+02  0.51100000000E-03 0.  1.
         11   -1    0    0    0    0 -0.00000000000E+00 -0.00000000000E+00 -0.45593999997E+02  0.45594000000E+02  0.51100000000E-03 0. -1.
    9900012    2    1    2    0    0  0.48237252796E+01  0.28479200966E+02 -0.32392743996E+02  0.47787273315E+02  0.20000010351E+02 0.  0.
        -12    1    1    2    0    0 -0.48237252796E+01 -0.28479200966E+02  0.32392743996E+02  0.43400726685E+02  0.00000000000E+00 0.  1.
         11    1    3    3    0    0 -0.15748040019E+01  0.11546594592E+02 -0.12424182254E+02  0.17034205566E+02  0.51100000000E-03 0. -1.
        -11    1    3    3    0    0 -0.15673416692E+01  0.68118000447E+01  0.16031609368E-02  0.69897913122E+01  0.51100000000E-03 0.  1.
        -12    1    3    3    0    0  0.79658709506E+01  0.10120806329E+02 -0.19970164903E+02  0.23763276437E+02  0.00000000000E+00 0.  1.
</event>
<event>
 7    1  0.4356471E-010  0.4778728E+02  0.7816164E-02  0.1312668E+00
        -11   -1    0    0    0    0  0.00000000000E+00  0.00000000000E+00  0.45593999997E+02  0.45594000000E+02  0.51100000000E-03 0. -1.
         11   -1    0    0    0    0 -0.00000000000E+00 -0.00000000000E+00 -0.45593999997E+02  0.45594000000E+02  0.51100000000E-03 0.  1.
    9900012    2    1    2    0    0 -0.42328383831E+02 -0.94946387244E+01 -0.13351654939E+01  0.47787275247E+02  0.20000019160E+02 0.  0.
        -12    1    1    2    0    0  0.42328383831E+02  0.94946387244E+01  0.13351654939E+01  0.43400724753E+02  0.00000000000E+00 0.  1.
         11    1    3    3    0    0 -0.19292462732E+02 -0.88644804183E+01  0.72540240033E+01  0.22436554901E+02  0.51100000000E-03 0. -1.
        -11    1    3    3    0    0 -0.66065028516E+01  0.20653764697E+01 -0.79430107143E+00  0.69672501278E+01  0.51100000000E-03 0.  1.
         12    1    3    3    0    0 -0.16429418247E+02 -0.26955347759E+01 -0.77948884258E+01  0.18383470218E+02  0.00000000000E+00 0. -1.
</event>
<event>
 7    1  0.4356471E-010  0.4778726E+02  0.7816164E-02  0.1312668E+00
        -11   -1    0    0    0    0  0.00000000000E+00  0.00000000000E+00  0.45593999997E+02  0.45594000000E+02  0.51100000000E-03 0.  1.
         11   -1    0    0    0    0 -0.00000000000E+00 -0.00000000000E+00 -0.45593999997E+02  0.45594000000E+02  0.51100000000E-03 0. -1.
    9900012    2    1    2    0    0 -0.19880701232E+02  0.29452963108E+02 -0.24917956505E+02  0.47787264134E+02  0.19999968491E+02 0.  0.
        -12    1    1    2    0    0  0.19880701232E+02 -0.29452963108E+02  0.24917956505E+02  0.43400735866E+02  0.00000000000E+00 0.  1.
         11    1    3    3    0    0 -0.13224193122E+02  0.15616271289E+02 -0.10177493422E+02  0.22854509081E+02  0.51100000000E-03 0. -1.
        -11    1    3    3    0    0 -0.97471845377E+01  0.99269631576E+01 -0.66250645173E+01  0.15409207769E+02  0.51100000000E-03 0.  1.
        -12    1    3    3    0    0  0.30906764274E+01  0.39097286613E+01 -0.81153985657E+01  0.95235472837E+01  0.00000000000E+00 0.  1.
</event>
<event>
 7    1  0.4356471E-010  0.4778726E+02  0.7816164E-02  0.1312668E+00
        -11   -1    0    0    0    0  0.00000000000E+00  0.00000000000E+00  0.45593999997E+02  0.45594000000E+02  0.51100000000E-03 0. -1.
         11   -1    0    0    0    0 -0.00000000000E+00 -0.00000000000E+00 -0.45593999997E+02  0.45594000000E+02  0.51100000000E-03 0.  1.
    9900012    2    1    2    0    0  0.15699980290E+02 -0.68409170851E+01  0.39879025569E+02  0.47787260283E+02  0.19999950935E+02 0.  0.
        -12    1    1    2    0    0 -0.15699980290E+02  0.68409170851E+01 -0.39879025569E+02  0.43400739717E+02  0.00000000000E+00 0.  1.
         11    1    3    3    0    0  0.93023624503E+01  0.34507300781E+01  0.17065942748E+02  0.19740513857E+02  0.51100000000E-03 0. -1.
        -11    1    3    3    0    0  0.58489606864E+01 -0.14710938801E+01  0.39318264778E+01  0.71995637387E+01  0.51100000000E-03 0.  1.
        -12    1    3    3    0    0  0.54865715324E+00 -0.88205532832E+01  0.18881256343E+02  0.20847182687E+02  0.00000000000E+00 0.  1.
</event>
<event>
 7    1  0.4356471E-010  0.4778727E+02  0.7816164E-02  0.1312668E+00
        -11   -1    0    0    0    0  0.00000000000E+00  0.00000000000E+00  0.45593999997E+02  0.45594000000E+02  0.51100000000E-03 0. -1.
         11   -1    0    0    0    0 -0.00000000000E+00 -0.00000000000E+00 -0.45593999997E+02  0.45594000000E+02  0.51100000000E-03 0.  1.
    9900012    2    1    2    0    0  0.21170664281E+02  0.32913665875E+02 -0.18764768582E+02  0.47787274576E+02  0.20000016101E+02 0.  0.
        -12    1    1    2    0    0 -0.21170664281E+02 -0.32913665875E+02  0.18764768582E+02  0.43400725424E+02  0.00000000000E+00 0.  1.
         11    1    3    3    0    0  0.50827896961E+01  0.11344968205E+02 -0.36905549636E+01  0.12967777407E+02  0.51100000000E-03 0. -1.
        -11    1    3    3    0    0  0.77574967230E+01  0.46955866804E+01  0.21389172928E+01  0.93167728923E+01  0.51100000000E-03 0.  1.
        -12    1    3    3    0    0  0.83303778620E+01  0.16873110989E+02 -0.17213130911E+02  0.25502724277E+02  0.00000000000E+00 0.  1.
</event>
<event>
 7    1  0.4356471E-010  0.4778727E+02  0.7816164E-02  0.1312668E+00
        -11   -1    0    0    0    0  0.00000000000E+00  0.00000000000E+00  0.45593999997E+02  0.45594000000E+02  0.51100000000E-03 0. -1.
         11   -1    0    0    0    0 -0.00000000000E+00 -0.00000000000E+00 -0.45593999997E+02  0.45594000000E+02  0.51100000000E-03 0.  1.
    9900012    2    1    2    0    0 -0.24193124217E+02 -0.29650711943E+02  0.20473190263E+02  0.47787268466E+02  0.19999988245E+02 0.  0.
        -12    1    1    2    0    0  0.24193124217E+02  0.29650711943E+02 -0.20473190263E+02  0.43400731534E+02  0.00000000000E+00 0.  1.
         11    1    3    3    0    0 -0.13588857479E+02 -0.63798007057E+01  0.86591613457E+01  0.17330319677E+02  0.51100000000E-03 0. -1.
        -11    1    3    3    0    0 -0.92273561636E+01 -0.15512021772E+02  0.13322989427E+02  0.22433657053E+02  0.51100000000E-03 0.  1.
         12    1    3    3    0    0 -0.13769105746E+01 -0.77588894661E+01 -0.15089605099E+01  0.80232917371E+01  0.00000000000E+00 0. -1.
</event>
<event>
 7    1  0.4356471E-010  0.4778726E+02  0.7816164E-02  0.1312668E+00
        -11   -1    0    0    0    0  0.00000000000E+00  0.00000000000E+00  0.45593999997E+02  0.45594000000E+02  0.51100000000E-03 0.  1.
         11   -1    0    0    0    0 -0.00000000000E+00 -0.00000000000E+00 -0.45593999997E+02  0.45594000000E+02  0.51100000000E-03 0. -1.
    9900012    2    1    2    0    0 -0.23488291973E+02 -0.59996751391E+00 -0.36490604996E+02  0.47787261829E+02  0.19999957981E+02 0.  0.
        -12    1    1    2    0    0  0.23488291973E+02  0.59996751391E+00  0.36490604996E+02  0.43400738171E+02  0.00000000000E+00 0.  1.
         11    1    3    3    0    0 -0.19677980469E+01  0.44697582439E+01 -0.89977922713E+01  0.10237735782E+02  0.51100000000E-03 0.  1.
        -11    1    3    3    0    0 -0.36273228215E+00  0.27592984954E+01 -0.48160421979E+01  0.55623345466E+01  0.51100000000E-03 0. -1.
         12    1    3    3    0    0 -0.21157761644E+02 -0.78290242533E+01 -0.22676770527E+02  0.31987191500E+02  0.00000000000E+00 0. -1.
</event>
<event>
 7    1  0.4356471E-010  0.4778727E+02  0.7816164E-02  0.1312668E+00
        -11   -1    0    0    0    0  0.00000000000E+00  0.00000000000E+00  0.45593999997E+02  0.45594000000E+02  0.51100000000E-03 0.  1.
         11   -1    0    0    0    0 -0.00000000000E+00 -0.00000000000E+00 -0.45593999997E+02  0.45594000000E+02  0.51100000000E-03 0. -1.
    9900012    2    1    2    0    0 -0.16543403208E+02 -0.38987794637E+02 -0.94810712553E+01  0.47787273825E+02  0.20000012679E+02 0.  0.
        -12    1    1    2    0    0  0.16543403208E+02  0.38987794637E+02  0.94810712553E+01  0.43400726175E+02  0.00000000000E+00 0.  1.
         11    1    3    3    0    0 -0.31669165150E+01 -0.12569362025E+02 -0.79707400354E+01  0.15216797262E+02  0.51100000000E-03 0. -1.
        -11    1    3    3    0    0  0.26970470204E+01 -0.25562555288E+01  0.39318323374E+00  0.37367229326E+01  0.51100000000E-03 0.  1.
        -12    1    3    3    0    0 -0.16073533713E+02 -0.23862177083E+02 -0.19035144537E+01  0.28833753631E+02  0.00000000000E+00 0.  1.
</event>
<event>
 7    1  0.4356471E-010  0.4778727E+02  0.7816164E-02  0.1312668E+00
        -11   -1    0    0    0    0  0.00000000000E+00  0.00000000000E+00  0.45593999997E+02  0.45594000000E+02  0.51100000000E-03 0.  1.
         11   -1    0    0    0    0 -0.00000000000E+00 -0.00000000000E+00 -0.45593999997E+02  0.45594000000E+02  0.51100000000E-03 0. -1.
    9900012    2    1    2    0    0  0.64304357844E+01 -0.18242294048E+02 -0.38852173144E+02  0.47787272420E+02  0.20000006270E+02 0.  0.
        -12    1    1    2    0    0 -0.64304357844E+01  0.18242294048E+02  0.38852173144E+02  0.43400727580E+02  0.00000000000E+00 0.  1.
         11    1    3    3    0    0  0.32933581235E+01  0.22796713917E+00 -0.52101221153E+01  0.61679453194E+01  0.51100000000E-03 0. -1.
        -11    1    3    3    0    0  0.36529082124E+01 -0.81900374913E+00 -0.13762554748E+00  0.37461242107E+01  0.51100000000E-03 0.  1.
         12    1    3    3    0    0 -0.51583055143E+00 -0.17651257438E+02 -0.33504425481E+02  0.37873202890E+02  0.00000000000E+00 0. -1.
</event>
<event>
 7    1  0.4781549E-010  0.4778727E+02  0.7816164E-02  0.1312668E+00
        -11   -1    0    0    0    0  0.00000000000E+00  0.00000000000E+00  0.45593999997E+02  0.45594000000E+02  0.51100000000E-03 0. -1.
         11   -1    0    0    0    0 -0.00000000000E+00 -0.00000000000E+00 -0.45593999997E+02  0.45594000000E+02  0.51100000000E-03 0.  1.
    9900012    2    1    2    0    0 -0.39852688412E+02  0.75341339266E+01  0.15447432631E+02  0.47787272787E+02  0.20000007946E+02 0.  0.
        -12    1    1    2    0    0  0.39852688412E+02 -0.75341339266E+01 -0.15447432631E+02  0.43400727213E+02  0.00000000000E+00 0.  1.
         11    1    3    3    0    0 -0.30052684521E+02  0.76981526259E+01  0.13306707522E+02  0.33756390004E+02  0.51100000000E-03 0. -1.
        -11    1    3    3    0    0 -0.48771685642E+01 -0.17610993139E+01  0.57335785847E+01  0.77305994363E+01  0.51100000000E-03 0.  1.
        -12    1    3    3    0    0 -0.49228353271E+01  0.15970806147E+01 -0.35928534762E+01  0.63002833467E+01  0.00000000000E+00 0.  1.
</event>
<event>
 7    1  0.4356471E-010  0.4778727E+02  0.7816164E-02  0.1312668E+00
        -11   -1    0    0    0    0  0.00000000000E+00  0.00000000000E+00  0.45593999997E+02  0.45594000000E+02  0.51100000000E-03 0.  1.
         11   -1    0    0    0    0 -0.00000000000E+00 -0.00000000000E+00 -0.45593999997E+02  0.45594000000E+02  0.51100000000E-03 0. -1.
    9900012    2    1    2    0    0  0.27182293792E+01  0.34836117397E+02 -0.25742556684E+02  0.47787273383E+02  0.20000010661E+02 0.  0.
        -12    1    1    2    0    0 -0.27182293792E+01 -0.34836117397E+02  0.25742556684E+02  0.43400726617E+02  0.00000000000E+00 0.  1.
         11    1    3    3    0    0 -0.10106461083E+00  0.41268605511E+01  0.89906963506E+00  0.42248690552E+01  0.51100000000E-03 0. -1.
        -11    1    3    3    0    0  0.18069734473E+00  0.10309062283E+02 -0.53354195307E+00  0.10324441096E+02  0.51100000000E-03 0.  1.
         12    1    3    3    0    0  0.26385966453E+01  0.20400194564E+02 -0.26108084366E+02  0.33237963231E+02  0.00000000000E+00 0. -1.
</event>
<event>
 7    1  0.4356471E-010  0.4778727E+02  0.7816164E-02  0.1312668E+00
        -11   -1    0    0    0    0  0.00000000000E+00  0.00000000000E+00  0.45593999997E+02  0.45594000000E+02  0.51100000000E-03 0.  1.
         11   -1    0    0    0    0 -0.00000000000E+00 -0.00000000000E+00 -0.45593999997E+02  0.45594000000E+02  0.51100000000E-03 0. -1.
    9900012    2    1    2    0    0 -0.43030474996E+02  0.55875209265E+01 -0.88384460391E+00  0.47787270170E+02  0.19999996011E+02 0.  0.
        -12    1    1    2    0    0  0.43030474996E+02 -0.55875209265E+01  0.88384460391E+00  0.43400729830E+02  0.00000000000E+00 0.  1.
         11    1    3    3    0    0 -0.16881861574E+02 -0.65227358307E+01 -0.16681776795E+01  0.18174876889E+02  0.51100000000E-03 0. -1.
        -11    1    3    3    0    0 -0.86008767104E+00  0.20825441484E+01 -0.72360510877E+00  0.23665049222E+01  0.51100000000E-03 0.  1.
         12    1    3    3    0    0 -0.25288525752E+02  0.10027712609E+02  0.15079381844E+01  0.27245888358E+02  0.00000000000E+00 0. -1.
</event>
<event>
 7    1  0.4356471E-010  0.4778727E+02  0.7816164E-02  0.1312668E+00
        -11   -1    0    0    0    0  0.00000000000E+00  0.00000000000E+00  0.45593999997E+02  0.45594000000E+02  0.51100000000E-03 0. -1.
         11   -1    0    0    0    0 -0.00000000000E+00 -0.00000000000E+00 -0.45593999997E+02  0.45594000000E+02  0.51100000000E-03 0.  1.
    9900012    2    1    2    0    0  0.36161979505E+02  0.15047647471E+02 -0.18694995307E+02  0.47787270678E+02  0.19999998330E+02 0.  0.
        -12    1    1    2    0    0 -0.36161979505E+02 -0.15047647471E+02  0.18694995307E+02  0.43400729322E+02  0.00000000000E+00 0.  1.
         11    1    3    3    0    0  0.10041528031E+02 -0.26457832778E+01 -0.71508251944E+01  0.12608201916E+02  0.51100000000E-03 0. -1.
        -11    1    3    3    0    0  0.36369463812E+01  0.70933975454E+00  0.16611472861E+01  0.40607822442E+01  0.51100000000E-03 0.  1.
         12    1    3    3    0    0  0.22483505093E+02  0.16984090995E+02 -0.13205317399E+02  0.31118286518E+02  0.00000000000E+00 0. -1.
</event>
<event>
 7    1  0.4356471E-010  0.4778727E+02  0.7816164E-02  0.1312668E+00
        -11   -1    0    0    0    0  0.00000000000E+00  0.00000000000E+00  0.45593999997E+02  0.45594000000E+02  0.51100000000E-03 0.  1.
         11   -1    0    0    0    0 -0.00000000000E+00 -0.00000000000E+00 -0.45593999997E+02  0.45594000000E+02  0.51100000000E-03 0. -1.
    9900012    2    1    2    0    0  0.22166800037E+02  0.74472288006E+01 -0.36562207653E+02  0.47787271099E+02  0.20000000247E+02 0.  0.
        -12    1    1    2    0    0 -0.22166800037E+02 -0.74472288006E+01  0.36562207653E+02  0.43400728901E+02  0.00000000000E+00 0.  1.
         11    1    3    3    0    0  0.35962078812E+01 -0.24886246426E+01 -0.16389860164E+02  0.16963298034E+02  0.51100000000E-03 0. -1.
        -11    1    3    3    0    0  0.71046044887E+01  0.75339702168E+01 -0.14473311158E+02  0.17796427965E+02  0.51100000000E-03 0.  1.
        -12    1    3    3    0    0  0.11465987667E+02  0.24018832264E+01 -0.56990363313E+01  0.13027545100E+02  0.00000000000E+00 0.  1.
</event>
<event>
 7    1  0.4356471E-010  0.4778728E+02  0.7816164E-02  0.1312668E+00
        -11   -1    0    0    0    0  0.00000000000E+00  0.00000000000E+00  0.45593999997E+02  0.45594000000E+02  0.51100000000E-03 0.  1.
         11   -1    0    0    0    0 -0.00000000000E+00 -0.00000000000E+00 -0.45593999997E+02  0.45594000000E+02  0.51100000000E-03 0. -1.
    9900012    2    1    2    0    0 -0.39155168156E+02 -0.11991098495E+02 -0.14377382425E+02  0.47787276944E+02  0.20000026897E+02 0.  0.
        -12    1    1    2    0    0  0.39155168156E+02  0.11991098495E+02  0.14377382425E+02  0.43400723056E+02  0.00000000000E+00 0.  1.
         11    1    3    3    0    0 -0.89585615748E+00 -0.94568492623E+00 -0.46446070741E+01  0.48238214486E+01  0.51100000000E-03 0.  1.
        -11    1    3    3    0    0 -0.26261275083E+02 -0.39464075698E+01 -0.11264962924E+01  0.26580024376E+02  0.51100000000E-03 0. -1.
         12    1    3    3    0    0 -0.11998036915E+02 -0.70990059987E+01 -0.86062790587E+01  0.16383431119E+02  0.00000000000E+00 0. -1.
</event>
<event>
 7    1  0.4356471E-010  0.4778727E+02  0.7816164E-02  0.1312668E+00
        -11   -1    0    0    0    0  0.00000000000E+00  0.00000000000E+00  0.45593999997E+02  0.45594000000E+02  0.51100000000E-03 0.  1.
         11   -1    0    0    0    0 -0.00000000000E+00 -0.00000000000E+00 -0.45593999997E+02  0.45594000000E+02  0.51100000000E-03 0. -1.
    9900012    2    1    2    0    0 -0.39075879270E+02 -0.15249764037E+02 -0.11141987836E+02  0.47787268015E+02  0.19999986188E+02 0.  0.
        -12    1    1    2    0    0  0.39075879270E+02  0.15249764037E+02  0.11141987836E+02  0.43400731985E+02  0.00000000000E+00 0.  1.
         11    1    3    3    0    0 -0.54277392033E+01 -0.17950357228E+01  0.21405592176E+01  0.61044655893E+01  0.51100000000E-03 0. -1.
        -11    1    3    3    0    0 -0.11110250868E+01 -0.34817042636E+01 -0.57734453410E+01  0.68329578287E+01  0.51100000000E-03 0.  1.
         12    1    3    3    0    0 -0.32537114979E+02 -0.99730240508E+01 -0.75091017130E+01  0.34849844597E+02  0.00000000000E+00 0. -1.
</event>
<event>
 7    1  0.4356471E-010  0.4778727E+02  0.7816164E-02  0.1312668E+00
        -11   -1    0    0    0    0  0.00000000000E+00  0.00000000000E+00  0.45593999997E+02  0.45594000000E+02  0.51100000000E-03 0. -1.
         11   -1    0    0    0    0 -0.00000000000E+00 -0.00000000000E+00 -0.45593999997E+02  0.45594000000E+02  0.51100000000E-03 0.  1.
    9900012    2    1    2    0    0 -0.99424171645E+01 -0.42125863201E+02  0.31911495850E+01  0.47787269071E+02  0.19999991001E+02 0.  0.
        -12    1    1    2    0    0  0.99424171645E+01  0.42125863201E+02 -0.31911495850E+01  0.43400730929E+02  0.00000000000E+00 0.  1.
         11    1    3    3    0    0 -0.55447265755E+01 -0.79362362878E+01  0.39860029676E+01  0.10469768819E+02  0.51100000000E-03 0. -1.
        -11    1    3    3    0    0 -0.82572920726E+01 -0.29633703130E+02  0.17819678695E+01  0.30814195484E+02  0.51100000000E-03 0.  1.
        -12    1    3    3    0    0  0.38596014836E+01 -0.45559237835E+01 -0.25768212522E+01  0.65033047675E+01  0.00000000000E+00 0.  1.
</event>
<event>
 7    1  0.4356471E-010  0.4778726E+02  0.7816164E-02  0.1312668E+00
        -11   -1    0    0    0    0  0.00000000000E+00  0.00000000000E+00  0.45593999997E+02  0.45594000000E+02  0.51100000000E-03 0.  1.
         11   -1    0    0    0    0 -0.00000000000E+00 -0.00000000000E+00 -0.45593999997E+02  0.45594000000E+02  0.51100000000E-03 0. -1.
    9900012    2    1    2    0    0 -0.39995455248E+02  0.11747882473E+02 -0.12082006803E+02  0.47787261855E+02  0.19999958102E+02 0.  0.
        -12    1    1    2    0    0  0.39995455248E+02 -0.11747882473E+02  0.12082006803E+02  0.43400738145E+02  0.00000000000E+00 0.  1.
         11    1    3    3    0    0 -0.51527594466E+01  0.40391899353E+01 -0.91704268076E+01  0.11267773220E+02  0.51100000000E-03 0. -1.
        -11    1    3    3    0    0 -0.23420116662E+01  0.45129111090E+00  0.16601962496E+01  0.29060168891E+01  0.51100000000E-03 0.  1.
         12    1    3    3    0    0 -0.32500684136E+02  0.72574014272E+01 -0.45717762452E+01  0.33613471746E+02  0.00000000000E+00 0. -1.
</event>
<event>
 7    1  0.4356471E-010  0.4778727E+02  0.7816164E-02  0.1312668E+00
        -11   -1    0    0    0    0  0.00000000000E+00  0.00000000000E+00  0.45593999997E+02  0.45594000000E+02  0.51100000000E-03 0.  1.
         11   -1    0    0    0    0 -0.00000000000E+00 -0.00000000000E+00 -0.45593999997E+02  0.45594000000E+02  0.51100000000E-03 0. -1.
    9900012    2    1    2    0    0 -0.24917279030E+02  0.11590915559E+02 -0.33591715836E+02  0.47787268548E+02  0.19999988617E+02 0.  0.
        -12    1    1    2    0    0  0.24917279030E+02 -0.11590915559E+02  0.33591715836E+02  0.43400731452E+02  0.00000000000E+00 0.  1.
         11    1    3    3    0    0 -0.16947439738E+01  0.16968999778E+01  0.41732630447E+00  0.24342941846E+01  0.51100000000E-03 0. -1.
        -11    1    3    3    0    0 -0.16307148414E+02  0.13939810611E+02 -0.20658029587E+02  0.29782471287E+02  0.51100000000E-03 0.  1.
         12    1    3    3    0    0 -0.69153866416E+01 -0.40457950302E+01 -0.13351012554E+02  0.15570503076E+02  0.00000000000E+00 0. -1.
</event>
<event>
 7    1  0.4356471E-010  0.4778727E+02  0.7816164E-02  0.1312668E+00
        -11   -1    0    0    0    0  0.00000000000E+00  0.00000000000E+00  0.45593999997E+02  0.45594000000E+02  0.51100000000E-03 0. -1.
         11   -1    0    0    0    0 -0.00000000000E+00 -0.00000000000E+00 -0.45593999997E+02  0.45594000000E+02  0.51100000000E-03 0.  1.
    9900012    2    1    2    0    0  0.21113175117E+02 -0.33065060046E+02  0.18562291059E+02  0.47787274098E+02  0.20000013924E+02 0.  0.
        -12    1    1    2    0    0 -0.21113175117E+02  0.33065060046E+02 -0.18562291059E+02  0.43400725902E+02  0.00000000000E+00 0.  1.
         11    1    3    3    0    0  0.63531180649E+01 -0.12064766654E+02 -0.37647033151E+00  0.13640470437E+02  0.51100000000E-03 0.  1.
        -11    1    3    3    0    0  0.81664832038E+01 -0.56729594894E+01  0.15782996516E+01  0.10068016058E+02  0.51100000000E-03 0. -1.
        -12    1    3    3    0    0  0.65935738488E+01 -0.15327333903E+02  0.17360461739E+02  0.24078787604E+02  0.00000000000E+00 0.  1.
</event>
<event>
 7    1  0.4356471E-010  0.4778727E+02  0.7816164E-02  0.1312668E+00
        -11   -1    0    0    0    0  0.00000000000E+00  0.00000000000E+00  0.45593999997E+02  0.45594000000E+02  0.51100000000E-03 0. -1.
         11   -1    0    0    0    0 -0.00000000000E+00 -0.00000000000E+00 -0.45593999997E+02  0.45594000000E+02  0.51100000000E-03 0.  1.
    9900012    2    1    2    0    0  0.40562110631E+02 -0.14703470588E+02  0.47059914698E+01  0.47787271644E+02  0.20000002732E+02 0.  0.
        -12    1    1    2    0    0 -0.40562110631E+02  0.14703470588E+02 -0.47059914698E+01  0.43400728356E+02  0.00000000000E+00 0.  1.
         11    1    3    3    0    0  0.19698628582E+02 -0.10304577234E+02 -0.20221931880E+01  0.22322848061E+02  0.51100000000E-03 0. -1.
        -11    1    3    3    0    0  0.13185775308E+02 -0.66441498522E+01 -0.37019637874E+00  0.14769781426E+02  0.51100000000E-03 0.  1.
        -12    1    3    3    0    0  0.76777067398E+01  0.22452564981E+01  0.70983810366E+01  0.10694642157E+02  0.00000000000E+00 0.  1.
</event>
<event>
 7    1  0.4356471E-010  0.4778727E+02  0.7816164E-02  0.1312668E+00
        -11   -1    0    0    0    0  0.00000000000E+00  0.00000000000E+00  0.45593999997E+02  0.45594000000E+02  0.51100000000E-03 0. -1.
         11   -1    0    0    0    0 -0.00000000000E+00 -0.00000000000E+00 -0.45593999997E+02  0.45594000000E+02  0.51100000000E-03 0.  1.
    9900012    2    1    2    0    0  0.24117432840E+02  0.35820612330E+02  0.43423911908E+01  0.47787271945E+02  0.20000004106E+02 0.  0.
        -12    1    1    2    0    0 -0.24117432840E+02 -0.35820612330E+02 -0.43423911908E+01  0.43400728055E+02  0.00000000000E+00 0.  1.
         11    1    3    3    0    0  0.19411128995E+02  0.17585038239E+02  0.24546193689E+01  0.26306855670E+02  0.51100000000E-03 0. -1.
        -11    1    3    3    0    0  0.24972021276E+01 -0.33073980264E+00  0.11486452993E+01  0.27685363585E+01  0.51100000000E-03 0.  1.
         12    1    3    3    0    0  0.22091017168E+01  0.18566313894E+02  0.73912652265E+00  0.18711879916E+02  0.00000000000E+00 0. -1.
</event>
<event>
 7    1  0.4356471E-010  0.4778727E+02  0.7816164E-02  0.1312668E+00
        -11   -1    0    0    0    0  0.00000000000E+00  0.00000000000E+00  0.45593999997E+02  0.45594000000E+02  0.51100000000E-03 0.  1.
         11   -1    0    0    0    0 -0.00000000000E+00 -0.00000000000E+00 -0.45593999997E+02  0.45594000000E+02  0.51100000000E-03 0. -1.
    9900012    2    1    2    0    0  0.27895081561E+01 -0.43066341381E+02 -0.45969532426E+01  0.47787273107E+02  0.20000009406E+02 0.  0.
        -12    1    1    2    0    0 -0.27895081561E+01  0.43066341381E+02  0.45969532426E+01  0.43400726893E+02  0.00000000000E+00 0.  1.
         11    1    3    3    0    0 -0.60002777761E+00 -0.27247307286E+02 -0.47584901865E+01  0.27666207127E+02  0.51100000000E-03 0. -1.
        -11    1    3    3    0    0  0.11919115442E+01 -0.14812908470E+02  0.41749121126E+01  0.15436087648E+02  0.51100000000E-03 0.  1.
        -12    1    3    3    0    0  0.21976243895E+01 -0.10061256250E+01 -0.40133751688E+01  0.46849783325E+01  0.00000000000E+00 0.  1.
</event>
<event>
 7    1  0.4356471E-010  0.4778726E+02  0.7816164E-02  0.1312668E+00
        -11   -1    0    0    0    0  0.00000000000E+00  0.00000000000E+00  0.45593999997E+02  0.45594000000E+02  0.51100000000E-03 0. -1.
         11   -1    0    0    0    0 -0.00000000000E+00 -0.00000000000E+00 -0.45593999997E+02  0.45594000000E+02  0.51100000000E-03 0.  1.
    9900012    2    1    2    0    0  0.15750662275E+02  0.36185972157E+02  0.18058698954E+02  0.47787256332E+02  0.19999932919E+02 0.  0.
        -12    1    1    2    0    0 -0.15750662275E+02 -0.36185972157E+02 -0.18058698954E+02  0.43400743668E+02  0.00000000000E+00 0.  1.
         11    1    3    3    0    0  0.55551661414E+01  0.11344907054E+02  0.13196498023E+02  0.18267850100E+02  0.51100000000E-03 0. -1.
        -11    1    3    3    0    0  0.34226965305E+01  0.93204712961E-01  0.11397473059E+00  0.34258618126E+01  0.51100000000E-03 0.  1.
        -12    1    3    3    0    0  0.67727996029E+01  0.24747860390E+02  0.47482262007E+01  0.26093544420E+02  0.00000000000E+00 0.  1.
</event>
<event>
 7    1  0.4356471E-010  0.4778727E+02  0.7816164E-02  0.1312668E+00
        -11   -1    0    0    0    0  0.00000000000E+00  0.00000000000E+00  0.45593999997E+02  0.45594000000E+02  0.51100000000E-03 0.  1.
         11   -1    0    0    0    0 -0.00000000000E+00 -0.00000000000E+00 -0.45593999997E+02  0.45594000000E+02  0.51100000000E-03 0. -1.
    9900012    2    1    2    0    0 -0.42919074995E+02 -0.13038738499E+01 -0.63147561775E+01  0.47787271538E+02  0.20000002249E+02 0.  0.
        -12    1    1    2    0    0  0.42919074995E+02  0.13038738499E+01  0.63147561775E+01  0.43400728462E+02  0.00000000000E+00 0.  1.
         11    1    3    3    0    0 -0.19698381648E+02 -0.10924262829E+01  0.60080881999E+01  0.20623209226E+02  0.51100000000E-03 0. -1.
        -11    1    3    3    0    0  0.19819821626E+00 -0.39961921077E+00  0.32073197069E+00  0.54940632021E+00  0.51100000000E-03 0.  1.
         12    1    3    3    0    0 -0.23418891564E+02  0.18817164379E+00 -0.12643576348E+02  0.26614655991E+02  0.00000000000E+00 0. -1.
</event>
<event>
 7    1  0.4356471E-010  0.4778727E+02  0.7816164E-02  0.1312668E+00
        -11   -1    0    0    0    0  0.00000000000E+00  0.00000000000E+00  0.45593999997E+02  0.45594000000E+02  0.51100000000E-03 0. -1.
         11   -1    0    0    0    0 -0.00000000000E+00 -0.00000000000E+00 -0.45593999997E+02  0.45594000000E+02  0.51100000000E-03 0.  1.
    9900012    2    1    2    0    0  0.34523166872E+02  0.20061361798E+01  0.26224977143E+02  0.47787273515E+02  0.20000011265E+02 0.  0.
        -12    1    1    2    0    0 -0.34523166872E+02 -0.20061361798E+01 -0.26224977143E+02  0.43400726485E+02  0.00000000000E+00 0.  1.
         11    1    3    3    0    0  0.33806093922E+01  0.11785769457E+01  0.58071596422E+01  0.68220720350E+01  0.51100000000E-03 0. -1.
        -11    1    3    3    0    0  0.29930502107E+02 -0.37487343080E+01  0.14741345414E+02  0.33573728274E+02  0.51100000000E-03 0.  1.
        -12    1    3    3    0    0  0.12120553724E+01  0.45762935421E+01  0.56764720871E+01  0.73914732066E+01  0.00000000000E+00 0.  1.
</event>
<event>
 7    1  0.4356471E-010  0.4778727E+02  0.7816164E-02  0.1312668E+00
        -11   -1    0    0    0    0  0.00000000000E+00  0.00000000000E+00  0.45593999997E+02  0.45594000000E+02  0.51100000000E-03 0.  1.
         11   -1    0    0    0    0 -0.00000000000E+00 -0.00000000000E+00 -0.45593999997E+02  0.45594000000E+02  0.51100000000E-03 0. -1.
    9900012    2    1    2    0    0 -0.28024745294E+01 -0.11046967737E+02 -0.41877604002E+02  0.47787273317E+02  0.20000010360E+02 0.  0.
        -12    1    1    2    0    0  0.28024745294E+01  0.11046967737E+02  0.41877604002E+02  0.43400726683E+02  0.00000000000E+00 0.  1.
         11    1    3    3    0    0 -0.11006734348E+01 -0.90719236267E+01 -0.28039528465E+02  0.29491124718E+02  0.51100000000E-03 0. -1.
        -11    1    3    3    0    0 -0.48721243154E+01 -0.33528286728E+01 -0.13601002111E+02  0.14831261381E+02  0.51100000000E-03 0.  1.
        -12    1    3    3    0    0  0.31703232208E+01  0.13777845624E+01 -0.23707342570E+00  0.34648872181E+01  0.00000000000E+00 0.  1.
</event>
<event>
 7    1  0.4356471E-010  0.4778727E+02  0.7816164E-02  0.1312668E+00
        -11   -1    0    0    0    0  0.00000000000E+00  0.00000000000E+00  0.45593999997E+02  0.45594000000E+02  0.51100000000E-03 0. -1.
         11   -1    0    0    0    0 -0.00000000000E+00 -0.00000000000E+00 -0.45593999997E+02  0.45594000000E+02  0.51100000000E-03 0.  1.
    9900012    2    1    2    0    0 -0.15820889278E+02  0.76374724421E-01  0.40414313358E+02  0.47787273106E+02  0.20000009401E+02 0.  0.
        -12    1    1    2    0    0  0.15820889278E+02 -0.76374724421E-01 -0.40414313358E+02  0.43400726894E+02  0.00000000000E+00 0.  1.
         11    1    3    3    0    0  0.15610877737E+01 -0.21452325444E+01  0.47490258179E+00  0.26952829963E+01  0.51100000000E-03 0. -1.
        -11    1    3    3    0    0 -0.67433316820E+01 -0.47091878641E+01  0.15039116874E+02  0.17141295433E+02  0.51100000000E-03 0.  1.
         12    1    3    3    0    0 -0.10638645370E+02  0.69307951330E+01  0.24900293903E+02  0.27950694677E+02  0.00000000000E+00 0. -1.
</event>
<event>
 7    1  0.4356471E-010  0.4778728E+02  0.7816164E-02  0.1312668E+00
        -11   -1    0    0    0    0  0.00000000000E+00  0.00000000000E+00  0.45593999997E+02  0.45594000000E+02  0.51100000000E-03 0.  1.
         11   -1    0    0    0    0 -0.00000000000E+00 -0.00000000000E+00 -0.45593999997E+02  0.45594000000E+02  0.51100000000E-03 0. -1.
    9900012    2    1    2    0    0 -0.21930564224E+02 -0.15457813453E+02 -0.34113470172E+02  0.47787280063E+02  0.20000041118E+02 0.  0.
        -12    1    1    2    0    0  0.21930564224E+02  0.15457813453E+02  0.34113470172E+02  0.43400719937E+02  0.00000000000E+00 0.  1.
         11    1    3    3    0    0 -0.12176389827E+02 -0.43301475105E+01 -0.21614099926E+02  0.25183009402E+02  0.51100000000E-03 0. -1.
        -11    1    3    3    0    0 -0.41338482238E+00  0.13604482108E+01 -0.51901261174E+01  0.53813674584E+01  0.51100000000E-03 0.  1.
         12    1    3    3    0    0 -0.93407895748E+01 -0.12488114153E+02 -0.73092441279E+01  0.17222903202E+02  0.00000000000E+00 0. -1.
</event>
<event>
 7    1  0.4356471E-010  0.4778727E+02  0.7816164E-02  0.1312668E+00
        -11   -1    0    0    0    0  0.00000000000E+00  0.00000000000E+00  0.45593999997E+02  0.45594000000E+02  0.51100000000E-03 0. -1.
         11   -1    0    0    0    0 -0.00000000000E+00 -0.00000000000E+00 -0.45593999997E+02  0.45594000000E+02  0.51100000000E-03 0.  1.
    9900012    2    1    2    0    0  0.13442303804E+02  0.38784869126E+02  0.14094743917E+02  0.47787269468E+02  0.19999992811E+02 0.  0.
        -12    1    1    2    0    0 -0.13442303804E+02 -0.38784869126E+02 -0.14094743917E+02  0.43400730532E+02  0.00000000000E+00 0.  1.
         11    1    3    3    0    0 -0.12004519130E+01  0.14974219634E+01 -0.13632584261E+01  0.23541094132E+01  0.51100000000E-03 0. -1.
        -11    1    3    3    0    0  0.82509116603E+01  0.97245596844E+01 -0.83945334826E+00  0.12780817128E+02  0.51100000000E-03 0.  1.
        -12    1    3    3    0    0  0.63918440567E+01  0.27562887478E+02  0.16297455691E+02  0.32652342926E+02  0.00000000000E+00 0.  1.
</event>
<event>
 7    1  0.4356471E-010  0.4778727E+02  0.7816164E-02  0.1312668E+00
        -11   -1    0    0    0    0  0.00000000000E+00  0.00000000000E+00  0.45593999997E+02  0.45594000000E+02  0.51100000000E-03 0. -1.
         11   -1    0    0    0    0 -0.00000000000E+00 -0.00000000000E+00 -0.45593999997E+02  0.45594000000E+02  0.51100000000E-03 0.  1.
    9900012    2    1    2    0    0 -0.22900515439E+01  0.41295657037E+02  0.13154774807E+02  0.47787265831E+02  0.19999976230E+02 0.  0.
        -12    1    1    2    0    0  0.22900515439E+01 -0.41295657037E+02 -0.13154774807E+02  0.43400734169E+02  0.00000000000E+00 0.  1.
         11    1    3    3    0    0  0.28253010356E+01  0.95905868233E+01  0.14122740856E+01  0.10097336278E+02  0.51100000000E-03 0. -1.
        -11    1    3    3    0    0  0.30098546698E+01  0.24508724908E+02  0.10242697232E+02  0.26732932286E+02  0.51100000000E-03 0.  1.
        -12    1    3    3    0    0 -0.81252072492E+01  0.71963453053E+01  0.14998034889E+01  0.10956997267E+02  0.00000000000E+00 0.  1.
</event>
<event>
 7    1  0.4356471E-010  0.4778727E+02  0.7816164E-02  0.1312668E+00
        -11   -1    0    0    0    0  0.00000000000E+00  0.00000000000E+00  0.45593999997E+02  0.45594000000E+02  0.51100000000E-03 0.  1.
         11   -1    0    0    0    0 -0.00000000000E+00 -0.00000000000E+00 -0.45593999997E+02  0.45594000000E+02  0.51100000000E-03 0. -1.
    9900012    2    1    2    0    0 -0.13902088342E+02  0.41000115671E+02  0.30570347750E+01  0.47787274120E+02  0.20000014021E+02 0.  0.
        -12    1    1    2    0    0  0.13902088342E+02 -0.41000115671E+02 -0.30570347750E+01  0.43400725880E+02  0.00000000000E+00 0.  1.
         11    1    3    3    0    0 -0.55454370076E+01  0.20511906869E+02 -0.33214489375E+01  0.21506329726E+02  0.51100000000E-03 0. -1.
        -11    1    3    3    0    0 -0.84379274919E+01  0.76595112217E+01 -0.10707157633E+01  0.11446098244E+02  0.51100000000E-03 0.  1.
        -12    1    3    3    0    0  0.81276157246E-01  0.12828697581E+02  0.74491994758E+01  0.14834846149E+02  0.00000000000E+00 0.  1.
</event>
<event>
 7    1  0.4356471E-010  0.4778726E+02  0.7816164E-02  0.1312668E+00
        -11   -1    0    0    0    0  0.00000000000E+00  0.00000000000E+00  0.45593999997E+02  0.45594000000E+02  0.51100000000E-03 0.  1.
         11   -1    0    0    0    0 -0.00000000000E+00 -0.00000000000E+00 -0.45593999997E+02  0.45594000000E+02  0.51100000000E-03 0. -1.
    9900012    2    1    2    0    0 -0.19877720186E+02 -0.29136072353E+02 -0.25290105399E+02  0.47787263796E+02  0.19999966951E+02 0.  0.
        -12    1    1    2    0    0  0.19877720186E+02  0.29136072353E+02  0.25290105399E+02  0.43400736204E+02  0.00000000000E+00 0.  1.
         11    1    3    3    0    0  0.21556997401E+01 -0.46161942221E+01 -0.30345945350E+01  0.59300130454E+01  0.51100000000E-03 0. -1.
        -11    1    3    3    0    0 -0.11018302378E+02 -0.17740117442E+02 -0.19626127077E+02  0.28658325465E+02  0.51100000000E-03 0.  1.
        -12    1    3    3    0    0 -0.11015117548E+02 -0.67797606887E+01 -0.26293837877E+01  0.13198925286E+02  0.00000000000E+00 0.  1.
</event>
<event>
 7    1  0.4356471E-010  0.4778727E+02  0.7816164E-02  0.1312668E+00
        -11   -1    0    0    0    0  0.00000000000E+00  0.00000000000E+00  0.45593999997E+02  0.45594000000E+02  0.51100000000E-03 0. -1.
         11   -1    0    0    0    0 -0.00000000000E+00 -0.00000000000E+00 -0.45593999997E+02  0.45594000000E+02  0.51100000000E-03 0.  1.
    9900012    2    1    2    0    0 -0.27069669576E+02 -0.12881944201E+02  0.31383309006E+02  0.47787267500E+02  0.19999983840E+02 0.  0.
        -12    1    1    2    0    0  0.27069669576E+02  0.12881944201E+02 -0.31383309006E+02  0.43400732500E+02  0.00000000000E+00 0.  1.
         11    1    3    3    0    0 -0.81732974115E+01 -0.89234856054E+01  0.22722078730E+02  0.25743431162E+02  0.51100000000E-03 0. -1.
        -11    1    3    3    0    0 -0.10653702115E+02 -0.36577487249E+01  0.79048513106E+01  0.13761074412E+02  0.51100000000E-03 0.  1.
        -12    1    3    3    0    0 -0.82426700499E+01 -0.30070987091E+00  0.75637896593E+00  0.82827619257E+01  0.00000000000E+00 0.  1.
</event>
<event>
 7    1  0.4356471E-010  0.4778727E+02  0.7816164E-02  0.1312668E+00
        -11   -1    0    0    0    0  0.00000000000E+00  0.00000000000E+00  0.45593999997E+02  0.45594000000E+02  0.51100000000E-03 0.  1.
         11   -1    0    0    0    0 -0.00000000000E+00 -0.00000000000E+00 -0.45593999997E+02  0.45594000000E+02  0.51100000000E-03 0. -1.
    9900012    2    1    2    0    0  0.88754096024E+01  0.34341507780E+02 -0.25010217485E+02  0.47787273844E+02  0.20000012766E+02 0.  0.
        -12    1    1    2    0    0 -0.88754096024E+01 -0.34341507780E+02  0.25010217485E+02  0.43400726156E+02  0.00000000000E+00 0.  1.
         11    1    3    3    0    0  0.73377571802E+01  0.22749538750E+02 -0.11151459881E+02  0.26376869630E+02  0.51100000000E-03 0. -1.
        -11    1    3    3    0    0 -0.16763162705E+01  0.12742797614E+02 -0.10216990662E+02  0.16418764439E+02  0.51100000000E-03 0.  1.
        -12    1    3    3    0    0  0.32139686927E+01 -0.11508285835E+01 -0.36417669410E+01  0.49916397746E+01  0.00000000000E+00 0.  1.
</event>
<event>
 7    1  0.6714010E-010  0.4778727E+02  0.7816164E-02  0.1312668E+00
        -11   -1    0    0    0    0  0.00000000000E+00  0.00000000000E+00  0.45593999997E+02  0.45594000000E+02  0.51100000000E-03 0.  1.
         11   -1    0    0    0    0 -0.00000000000E+00 -0.00000000000E+00 -0.45593999997E+02  0.45594000000E+02  0.51100000000E-03 0. -1.
    9900012    2    1    2    0    0  0.28717825659E+02  0.32540551748E+02  0.14945496698E+00  0.47787270105E+02  0.19999995717E+02 0.  0.
        -12    1    1    2    0    0 -0.28717825659E+02 -0.32540551748E+02 -0.14945496698E+00  0.43400729895E+02  0.00000000000E+00 0.  1.
         11    1    3    3    0    0  0.16412096797E+02  0.14341734915E+02 -0.59024598555E+01  0.22580551682E+02  0.51100000000E-03 0. -1.
        -11    1    3    3    0    0 -0.12558883990E+01  0.57582013281E+00 -0.11865541312E+01  0.18211906719E+01  0.51100000000E-03 0.  1.
         12    1    3    3    0    0  0.13561617260E+02  0.17622996700E+02  0.72384689537E+01  0.23385527751E+02  0.00000000000E+00 0. -1.
</event>
<event>
 7    1  0.4356471E-010  0.4778727E+02  0.7816164E-02  0.1312668E+00
        -11   -1    0    0    0    0  0.00000000000E+00  0.00000000000E+00  0.45593999997E+02  0.45594000000E+02  0.51100000000E-03 0.  1.
         11   -1    0    0    0    0 -0.00000000000E+00 -0.00000000000E+00 -0.45593999997E+02  0.45594000000E+02  0.51100000000E-03 0. -1.
    9900012    2    1    2    0    0  0.12726640223E+01  0.52159841772E+01 -0.43067355813E+02  0.47787270727E+02  0.19999998554E+02 0.  0.
        -12    1    1    2    0    0 -0.12726640223E+01 -0.52159841772E+01  0.43067355813E+02  0.43400729273E+02  0.00000000000E+00 0.  1.
         11    1    3    3    0    0  0.41977442822E+01 -0.30020269240E+01 -0.16566354710E+02  0.17351580082E+02  0.51100000000E-03 0. -1.
        -11    1    3    3    0    0 -0.91829881015E+00  0.45561795660E+01 -0.25783213421E+02  0.26198781260E+02  0.51100000000E-03 0.  1.
        -12    1    3    3    0    0 -0.20067814498E+01  0.36618315352E+01 -0.71778768237E+00  0.42369093850E+01  0.00000000000E+00 0.  1.
</event>
<event>
 7    1  0.4356471E-010  0.4778727E+02  0.7816164E-02  0.1312668E+00
        -11   -1    0    0    0    0  0.00000000000E+00  0.00000000000E+00  0.45593999997E+02  0.45594000000E+02  0.51100000000E-03 0.  1.
         11   -1    0    0    0    0 -0.00000000000E+00 -0.00000000000E+00 -0.45593999997E+02  0.45594000000E+02  0.51100000000E-03 0. -1.
    9900012    2    1    2    0    0  0.30474744631E+02  0.29950775136E+02 -0.76068495278E+01  0.47787272457E+02  0.20000006440E+02 0.  0.
        -12    1    1    2    0    0 -0.30474744631E+02 -0.29950775136E+02  0.76068495278E+01  0.43400727543E+02  0.00000000000E+00 0.  1.
         11    1    3    3    0    0  0.40370365234E+01  0.90749237057E+01  0.35275233291E+01  0.10540176718E+02  0.51100000000E-03 0. -1.
        -11    1    3    3    0    0  0.15672506858E+02  0.71099720040E+01 -0.14578136022E+01  0.17271490784E+02  0.51100000000E-03 0.  1.
         12    1    3    3    0    0  0.10765201249E+02  0.13765879426E+02 -0.96765592548E+01  0.19975604955E+02  0.00000000000E+00 0. -1.
</event>
<event>
 7    1  0.4356471E-010  0.4778727E+02  0.7816164E-02  0.1312668E+00
        -11   -1    0    0    0    0  0.00000000000E+00  0.00000000000E+00  0.45593999997E+02  0.45594000000E+02  0.51100000000E-03 0. -1.
         11   -1    0    0    0    0 -0.00000000000E+00 -0.00000000000E+00 -0.45593999997E+02  0.45594000000E+02  0.51100000000E-03 0.  1.
    9900012    2    1    2    0    0  0.88340233061E+01 -0.40185866217E+02 -0.13808674784E+02  0.47787270620E+02  0.19999998066E+02 0.  0.
        -12    1    1    2    0    0 -0.88340233061E+01  0.40185866217E+02  0.13808674784E+02  0.43400729380E+02  0.00000000000E+00 0.  1.
         11    1    3    3    0    0 -0.37047713453E+01 -0.56243050507E+01 -0.56681766554E+00  0.67586552325E+01  0.51100000000E-03 0. -1.
        -11    1    3    3    0    0 -0.15160034752E+01  0.62232708300E-02 -0.57887290688E+00  0.16227752060E+01  0.51100000000E-03 0.  1.
        -12    1    3    3    0    0  0.14054798127E+02 -0.34567784437E+02 -0.12662984211E+02  0.39405840182E+02  0.00000000000E+00 0.  1.
</event>
<event>
 7    1  0.4356471E-010  0.4778727E+02  0.7816164E-02  0.1312668E+00
        -11   -1    0    0    0    0  0.00000000000E+00  0.00000000000E+00  0.45593999997E+02  0.45594000000E+02  0.51100000000E-03 0. -1.
         11   -1    0    0    0    0 -0.00000000000E+00 -0.00000000000E+00 -0.45593999997E+02  0.45594000000E+02  0.51100000000E-03 0.  1.
    9900012    2    1    2    0    0 -0.25921598010E+02 -0.10289262697E+02  0.33253949543E+02  0.47787270392E+02  0.19999997027E+02 0.  0.
        -12    1    1    2    0    0  0.25921598010E+02  0.10289262697E+02 -0.33253949543E+02  0.43400729608E+02  0.00000000000E+00 0.  1.
         11    1    3    3    0    0 -0.19763908099E+01 -0.33176052392E+01 -0.56082118966E-01  0.38620940721E+01  0.51100000000E-03 0. -1.
        -11    1    3    3    0    0 -0.19932665887E+01 -0.20746079244E+01 -0.87285834505E+00  0.30064915908E+01  0.51100000000E-03 0.  1.
         12    1    3    3    0    0 -0.21951940611E+02 -0.48970495329E+01  0.34182890007E+02  0.40918684730E+02  0.00000000000E+00 0. -1.
</event>
<event>
 7    1  0.4356471E-010  0.4778727E+02  0.7816164E-02  0.1312668E+00
        -11   -1    0    0    0    0  0.00000000000E+00  0.00000000000E+00  0.45593999997E+02  0.45594000000E+02  0.51100000000E-03 0.  1.
         11   -1    0    0    0    0 -0.00000000000E+00 -0.00000000000E+00 -0.45593999997E+02  0.45594000000E+02  0.51100000000E-03 0. -1.
    9900012    2    1    2    0    0  0.41913502397E+02 -0.94720667129E+01 -0.60960461442E+01  0.47787268329E+02  0.19999987619E+02 0.  0.
        -12    1    1    2    0    0 -0.41913502397E+02  0.94720667129E+01  0.60960461442E+01  0.43400731671E+02  0.00000000000E+00 0.  1.
         11    1    3    3    0    0  0.14420685929E+00 -0.60376870252E+00 -0.15141979884E+01  0.16364987240E+01  0.51100000000E-03 0. -1.
        -11    1    3    3    0    0  0.11279757279E+02  0.78371080206E+00  0.55604389934E+01  0.12600222575E+02  0.51100000000E-03 0.  1.
         12    1    3    3    0    0  0.30489538259E+02 -0.96520088125E+01 -0.10142287149E+02  0.33550547030E+02  0.00000000000E+00 0. -1.
</event>
<event>
 7    1  0.4356471E-010  0.4778728E+02  0.7816164E-02  0.1312668E+00
        -11   -1    0    0    0    0  0.00000000000E+00  0.00000000000E+00  0.45593999997E+02  0.45594000000E+02  0.51100000000E-03 0. -1.
         11   -1    0    0    0    0 -0.00000000000E+00 -0.00000000000E+00 -0.45593999997E+02  0.45594000000E+02  0.51100000000E-03 0.  1.
    9900012    2    1    2    0    0 -0.34495755584E+01 -0.37764704736E+02  0.21108057510E+02  0.47787278955E+02  0.20000036069E+02 0.  0.
        -12    1    1    2    0    0  0.34495755584E+01  0.37764704736E+02 -0.21108057510E+02  0.43400721045E+02  0.00000000000E+00 0.  1.
         11    1    3    3    0    0 -0.46860171342E+01 -0.13962746078E+02  0.11206479079E+02  0.18506815184E+02  0.51100000000E-03 0. -1.
        -11    1    3    3    0    0 -0.47390045314E+01 -0.15794127876E+02  0.21391834108E+01  0.16627950722E+02  0.51100000000E-03 0.  1.
        -12    1    3    3    0    0  0.59754461072E+01 -0.80078307822E+01  0.77623950204E+01  0.12652513050E+02  0.00000000000E+00 0.  1.
</event>
<event>
 7    1  0.4356471E-010  0.4778727E+02  0.7816164E-02  0.1312668E+00
        -11   -1    0    0    0    0  0.00000000000E+00  0.00000000000E+00  0.45593999997E+02  0.45594000000E+02  0.51100000000E-03 0.  1.
         11   -1    0    0    0    0 -0.00000000000E+00 -0.00000000000E+00 -0.45593999997E+02  0.45594000000E+02  0.51100000000E-03 0. -1.
    9900012    2    1    2    0    0 -0.23350819809E+02 -0.41600515814E+01 -0.36346340106E+02  0.47787271273E+02  0.20000001044E+02 0.  0.
        -12    1    1    2    0    0  0.23350819809E+02  0.41600515814E+01  0.36346340106E+02  0.43400728727E+02  0.00000000000E+00 0.  1.
         11    1    3    3    0    0 -0.75279471011E+01 -0.58388496104E+01 -0.15603704791E+02  0.18282170435E+02  0.51100000000E-03 0. -1.
        -11    1    3    3    0    0 -0.89607734781E+01 -0.37158588524E+01 -0.37473155736E+01  0.10399300102E+02  0.51100000000E-03 0.  1.
        -12    1    3    3    0    0 -0.68620992298E+01  0.53946568813E+01 -0.16995319741E+02  0.19105800737E+02  0.00000000000E+00 0.  1.
</event>
<event>
 7    1  0.4356471E-010  0.4778727E+02  0.7816164E-02  0.1312668E+00
        -11   -1    0    0    0    0  0.00000000000E+00  0.00000000000E+00  0.45593999997E+02  0.45594000000E+02  0.51100000000E-03 0.  1.
         11   -1    0    0    0    0 -0.00000000000E+00 -0.00000000000E+00 -0.45593999997E+02  0.45594000000E+02  0.51100000000E-03 0. -1.
    9900012    2    1    2    0    0 -0.28295499345E+02  0.25292280302E+02  0.21054422136E+02  0.47787269390E+02  0.19999992455E+02 0.  0.
        -12    1    1    2    0    0  0.28295499345E+02 -0.25292280302E+02 -0.21054422136E+02  0.43400730610E+02  0.00000000000E+00 0.  1.
         11    1    3    3    0    0 -0.14188645622E+02  0.20295126157E+01  0.46132340755E+01  0.15057174866E+02  0.51100000000E-03 0. -1.
        -11    1    3    3    0    0 -0.98991159920E+00  0.10648721150E+01 -0.85097735882E+00  0.16846484268E+01  0.51100000000E-03 0.  1.
        -12    1    3    3    0    0 -0.13116942123E+02  0.22197895572E+02  0.17292165419E+02  0.31045446097E+02  0.00000000000E+00 0.  1.
</event>
<event>
 7    1  0.4356471E-010  0.4778727E+02  0.7816164E-02  0.1312668E+00
        -11   -1    0    0    0    0  0.00000000000E+00  0.00000000000E+00  0.45593999997E+02  0.45594000000E+02  0.51100000000E-03 0. -1.
         11   -1    0    0    0    0 -0.00000000000E+00 -0.00000000000E+00 -0.45593999997E+02  0.45594000000E+02  0.51100000000E-03 0.  1.
    9900012    2    1    2    0    0  0.10540699243E+02  0.13029246898E+02  0.40034432040E+02  0.47787270006E+02  0.19999995266E+02 0.  0.
        -12    1    1    2    0    0 -0.10540699243E+02 -0.13029246898E+02 -0.40034432040E+02  0.43400729994E+02  0.00000000000E+00 0.  1.
         11    1    3    3    0    0  0.26407802365E+01  0.84566519622E+01  0.19428326804E+02  0.21352952146E+02  0.51100000000E-03 0. -1.
        -11    1    3    3    0    0  0.11892175281E+01  0.71032689827E+01  0.16879749183E+02  0.18352018998E+02  0.51100000000E-03 0.  1.
        -12    1    3    3    0    0  0.67107014783E+01 -0.25306740471E+01  0.37263560521E+01  0.80822988617E+01  0.00000000000E+00 0.  1.
</event>
<event>
 7    1  0.4356471E-010  0.4778727E+02  0.7816164E-02  0.1312668E+00
        -11   -1    0    0    0    0  0.00000000000E+00  0.00000000000E+00  0.45593999997E+02  0.45594000000E+02  0.51100000000E-03 0. -1.
         11   -1    0    0    0    0 -0.00000000000E+00 -0.00000000000E+00 -0.45593999997E+02  0.45594000000E+02  0.51100000000E-03 0.  1.
    9900012    2    1    2    0    0 -0.41390258791E+01  0.36124781864E+01  0.43051617339E+02  0.47787270866E+02  0.19999999184E+02 0.  0.
        -12    1    1    2    0    0  0.41390258791E+01 -0.36124781864E+01 -0.43051617339E+02  0.43400729134E+02  0.00000000000E+00 0.  1.
         11    1    3    3    0    0 -0.11044641000E+02 -0.13401790997E+01  0.23116029323E+02  0.25654063747E+02  0.51100000000E-03 0. -1.
        -11    1    3    3    0    0  0.43350051911E+01  0.27940454002E+01  0.16671924243E+02  0.17451418794E+02  0.51100000000E-03 0.  1.
         12    1    3    3    0    0  0.25706099298E+01  0.21586118859E+01  0.32636637736E+01  0.46817883242E+01  0.00000000000E+00 0. -1.
</event>
<event>
 7    1  0.4356471E-010  0.4778727E+02  0.7816164E-02  0.1312668E+00
        -11   -1    0    0    0    0  0.00000000000E+00  0.00000000000E+00  0.45593999997E+02  0.45594000000E+02  0.51100000000E-03 0. -1.
         11   -1    0    0    0    0 -0.00000000000E+00 -0.00000000000E+00 -0.45593999997E+02  0.45594000000E+02  0.51100000000E-03 0.  1.
    9900012    2    1    2    0    0 -0.38599828341E+02  0.51273225720E+01 -0.19167342557E+02  0.47787271833E+02  0.20000003596E+02 0.  0.
        -12    1    1    2    0    0  0.38599828341E+02 -0.51273225720E+01  0.19167342557E+02  0.43400728167E+02  0.00000000000E+00 0.  1.
         11    1    3    3    0    0 -0.28589870703E+00  0.19121430502E+01  0.54461345521E+00  0.20086396371E+01  0.51100000000E-03 0. -1.
        -11    1    3    3    0    0 -0.72881794206E+01 -0.52230515351E+01 -0.62044288143E+01  0.10903795843E+02  0.51100000000E-03 0.  1.
         12    1    3    3    0    0 -0.31025750213E+02  0.84382310569E+01 -0.13507527198E+02  0.34874836353E+02  0.00000000000E+00 0. -1.
</event>
<event>
 7    1  0.4356471E-010  0.4778727E+02  0.7816164E-02  0.1312668E+00
        -11   -1    0    0    0    0  0.00000000000E+00  0.00000000000E+00  0.45593999997E+02  0.45594000000E+02  0.51100000000E-03 0. -1.
         11   -1    0    0    0    0 -0.00000000000E+00 -0.00000000000E+00 -0.45593999997E+02  0.45594000000E+02  0.51100000000E-03 0.  1.
    9900012    2    1    2    0    0 -0.26879133804E+02  0.33819449276E+02  0.41689428331E+01  0.47787273419E+02  0.20000010829E+02 0.  0.
        -12    1    1    2    0    0  0.26879133804E+02 -0.33819449276E+02 -0.41689428331E+01  0.43400726581E+02  0.00000000000E+00 0.  1.
         11    1    3    3    0    0 -0.21589512162E+02  0.27761260992E+02  0.12034023732E+01  0.35188674667E+02  0.51100000000E-03 0. -1.
        -11    1    3    3    0    0 -0.77187035627E+01  0.30795694814E+01  0.13070272985E+01  0.84125176672E+01  0.51100000000E-03 0.  1.
        -12    1    3    3    0    0  0.24290819209E+01  0.29786188018E+01  0.16585131613E+01  0.41860810852E+01  0.00000000000E+00 0.  1.
</event>
<event>
 7    1  0.4356471E-010  0.4778727E+02  0.7816164E-02  0.1312668E+00
        -11   -1    0    0    0    0  0.00000000000E+00  0.00000000000E+00  0.45593999997E+02  0.45594000000E+02  0.51100000000E-03 0.  1.
         11   -1    0    0    0    0 -0.00000000000E+00 -0.00000000000E+00 -0.45593999997E+02  0.45594000000E+02  0.51100000000E-03 0. -1.
    9900012    2    1    2    0    0  0.27240877381E+02 -0.32493288675E+02 -0.92598072502E+01  0.47787271438E+02  0.20000001794E+02 0.  0.
        -12    1    1    2    0    0 -0.27240877381E+02  0.32493288675E+02  0.92598072502E+01  0.43400728562E+02  0.00000000000E+00 0.  1.
         11    1    3    3    0    0  0.19066187656E+02 -0.17187086405E+02 -0.96888463724E+01  0.27437004120E+02  0.51100000000E-03 0. -1.
        -11    1    3    3    0    0  0.35782432899E+01 -0.11907039826E+02 -0.40626358091E+01  0.13080001240E+02  0.51100000000E-03 0.  1.
        -12    1    3    3    0    0  0.45964464354E+01 -0.33991624451E+01  0.44916749314E+01  0.72702660784E+01  0.00000000000E+00 0.  1.
</event>
<event>
 7    1  0.4356471E-010  0.4778728E+02  0.7816164E-02  0.1312668E+00
        -11   -1    0    0    0    0  0.00000000000E+00  0.00000000000E+00  0.45593999997E+02  0.45594000000E+02  0.51100000000E-03 0.  1.
         11   -1    0    0    0    0 -0.00000000000E+00 -0.00000000000E+00 -0.45593999997E+02  0.45594000000E+02  0.51100000000E-03 0. -1.
    9900012    2    1    2    0    0  0.22140577855E+02 -0.36248968718E+02 -0.89123277656E+01  0.47787279879E+02  0.20000040280E+02 0.  0.
        -12    1    1    2    0    0 -0.22140577855E+02  0.36248968718E+02  0.89123277656E+01  0.43400720121E+02  0.00000000000E+00 0.  1.
         11    1    3    3    0    0  0.76363641048E+01 -0.52592434790E+01 -0.44447684153E+01  0.10282493143E+02  0.51100000000E-03 0. -1.
        -11    1    3    3    0    0 -0.27992755926E+01 -0.20239131710E+01 -0.94226760884E+00  0.35805079074E+01  0.51100000000E-03 0.  1.
         12    1    3    3    0    0  0.17303489342E+02 -0.28965812068E+02 -0.35252917414E+01  0.33924278828E+02  0.00000000000E+00 0. -1.
</event>
<event>
 7    1  0.4356471E-010  0.4778727E+02  0.7816164E-02  0.1312668E+00
        -11   -1    0    0    0    0  0.00000000000E+00  0.00000000000E+00  0.45593999997E+02  0.45594000000E+02  0.51100000000E-03 0. -1.
         11   -1    0    0    0    0 -0.00000000000E+00 -0.00000000000E+00 -0.45593999997E+02  0.45594000000E+02  0.51100000000E-03 0.  1.
    9900012    2    1    2    0    0  0.14203714982E+02  0.32250970221E+02  0.25332835624E+02  0.47787272353E+02  0.20000005968E+02 0.  0.
        -12    1    1    2    0    0 -0.14203714982E+02 -0.32250970221E+02 -0.25332835624E+02  0.43400727647E+02  0.00000000000E+00 0.  1.
         11    1    3    3    0    0  0.81727733452E+01  0.14446932548E+02  0.49235037098E+01  0.17313260041E+02  0.51100000000E-03 0. -1.
        -11    1    3    3    0    0  0.23647444644E+01  0.13511979842E+02  0.59504955610E+01  0.14952391559E+02  0.51100000000E-03 0.  1.
        -12    1    3    3    0    0  0.36661971722E+01  0.42920578308E+01  0.14458836353E+02  0.15521620754E+02  0.00000000000E+00 0.  1.
</event>
<event>
 7    1  0.4356471E-010  0.4778728E+02  0.7816164E-02  0.1312668E+00
        -11   -1    0    0    0    0  0.00000000000E+00  0.00000000000E+00  0.45593999997E+02  0.45594000000E+02  0.51100000000E-03 0.  1.
         11   -1    0    0    0    0 -0.00000000000E+00 -0.00000000000E+00 -0.45593999997E+02  0.45594000000E+02  0.51100000000E-03 0. -1.
    9900012    2    1    2    0    0 -0.31641565561E+02  0.56496889254E+01 -0.29163593602E+02  0.47787275952E+02  0.20000022376E+02 0.  0.
        -12    1    1    2    0    0  0.31641565561E+02 -0.56496889254E+01  0.29163593602E+02  0.43400724048E+02  0.00000000000E+00 0.  1.
         11    1    3    3    0    0 -0.17626114382E+02  0.31624379258E+01 -0.27532500419E+02  0.32843865507E+02  0.51100000000E-03 0. -1.
        -11    1    3    3    0    0 -0.77194484584E+01  0.16597588642E+01 -0.30014315517E+01  0.84470868120E+01  0.51100000000E-03 0.  1.
        -12    1    3    3    0    0 -0.62960027212E+01  0.82749213544E+00  0.13703383694E+01  0.64963236331E+01  0.00000000000E+00 0.  1.
</event>
<event>
 7    1  0.4356471E-010  0.4778727E+02  0.7816164E-02  0.1312668E+00
        -11   -1    0    0    0    0  0.00000000000E+00  0.00000000000E+00  0.45593999997E+02  0.45594000000E+02  0.51100000000E-03 0. -1.
         11   -1    0    0    0    0 -0.00000000000E+00 -0.00000000000E+00 -0.45593999997E+02  0.45594000000E+02  0.51100000000E-03 0.  1.
    9900012    2    1    2    0    0  0.35384986090E+01  0.93290232569E+01  0.42238270845E+02  0.47787272226E+02  0.20000005385E+02 0.  0.
        -12    1    1    2    0    0 -0.35384986090E+01 -0.93290232569E+01 -0.42238270845E+02  0.43400727774E+02  0.00000000000E+00 0.  1.
         11    1    3    3    0    0  0.61295682466E+01  0.48270629041E+01  0.99061483251E+01  0.12609675574E+02  0.51100000000E-03 0. -1.
        -11    1    3    3    0    0  0.37893738436E+01 -0.23740090065E+01  0.11004838147E+02  0.11878625164E+02  0.51100000000E-03 0.  1.
         12    1    3    3    0    0 -0.63804434812E+01  0.68759693594E+01  0.21327284374E+02  0.23298971488E+02  0.00000000000E+00 0. -1.
</event>
<event>
 7    1  0.4356471E-010  0.4778727E+02  0.7816164E-02  0.1312668E+00
        -11   -1    0    0    0    0  0.00000000000E+00  0.00000000000E+00  0.45593999997E+02  0.45594000000E+02  0.51100000000E-03 0. -1.
         11   -1    0    0    0    0 -0.00000000000E+00 -0.00000000000E+00 -0.45593999997E+02  0.45594000000E+02  0.51100000000E-03 0.  1.
    9900012    2    1    2    0    0  0.13015826989E+02 -0.27609165884E+02  0.30853612474E+02  0.47787271945E+02  0.20000004105E+02 0.  0.
        -12    1    1    2    0    0 -0.13015826989E+02  0.27609165884E+02 -0.30853612474E+02  0.43400728055E+02  0.00000000000E+00 0.  1.
         11    1    3    3    0    0  0.55346136935E+01 -0.14511903592E+02  0.18824366636E+02  0.24404591251E+02  0.51100000000E-03 0. -1.
        -11    1    3    3    0    0  0.26282297227E+01  0.11023565442E+01  0.69972887671E+01  0.75554504682E+01  0.51100000000E-03 0.  1.
         12    1    3    3    0    0  0.48529835728E+01 -0.14199618837E+02  0.50319570706E+01  0.15827230226E+02  0.00000000000E+00 0. -1.
</event>
<event>
 7    1  0.4356471E-010  0.4778727E+02  0.7816164E-02  0.1312668E+00
        -11   -1    0    0    0    0  0.00000000000E+00  0.00000000000E+00  0.45593999997E+02  0.45594000000E+02  0.51100000000E-03 0. -1.
         11   -1    0    0    0    0 -0.00000000000E+00 -0.00000000000E+00 -0.45593999997E+02  0.45594000000E+02  0.51100000000E-03 0.  1.
    9900012    2    1    2    0    0 -0.10212043302E+02  0.41875125661E+02 -0.50804917701E+01  0.47787269889E+02  0.19999994730E+02 0.  0.
        -12    1    1    2    0    0  0.10212043302E+02 -0.41875125661E+02  0.50804917701E+01  0.43400730111E+02  0.00000000000E+00 0.  1.
         11    1    3    3    0    0 -0.10439477679E+01  0.61104431398E+01 -0.65301618067E+01  0.90039078066E+01  0.51100000000E-03 0. -1.
        -11    1    3    3    0    0 -0.90525707603E+01  0.16501995694E+02 -0.28766333715E+01  0.19040481062E+02  0.51100000000E-03 0.  1.
        -12    1    3    3    0    0 -0.11552477396E+00  0.19262686828E+02  0.43263034082E+01  0.19742881020E+02  0.00000000000E+00 0.  1.
</event>
<event>
 7    1  0.4356471E-010  0.4778727E+02  0.7816164E-02  0.1312668E+00
        -11   -1    0    0    0    0  0.00000000000E+00  0.00000000000E+00  0.45593999997E+02  0.45594000000E+02  0.51100000000E-03 0.  1.
         11   -1    0    0    0    0 -0.00000000000E+00 -0.00000000000E+00 -0.45593999997E+02  0.45594000000E+02  0.51100000000E-03 0. -1.
    9900012    2    1    2    0    0  0.70040371104E+01 -0.37470538017E+02 -0.20749108285E+02  0.47787271322E+02  0.20000001266E+02 0.  0.
        -12    1    1    2    0    0 -0.70040371104E+01  0.37470538017E+02  0.20749108285E+02  0.43400728678E+02  0.00000000000E+00 0.  1.
         11    1    3    3    0    0  0.39451788520E+01 -0.23158675539E+02 -0.52847987154E+01  0.24079405861E+02  0.51100000000E-03 0. -1.
        -11    1    3    3    0    0  0.22535067574E+01 -0.67330886845E+01 -0.75358999643E+00  0.71400752155E+01  0.51100000000E-03 0.  1.
        -12    1    3    3    0    0  0.80535150105E+00 -0.75787737936E+01 -0.14710719573E+02  0.16567790245E+02  0.00000000000E+00 0.  1.
</event>
<event>
 7    1  0.4356471E-010  0.4778727E+02  0.7816164E-02  0.1312668E+00
        -11   -1    0    0    0    0  0.00000000000E+00  0.00000000000E+00  0.45593999997E+02  0.45594000000E+02  0.51100000000E-03 0.  1.
         11   -1    0    0    0    0 -0.00000000000E+00 -0.00000000000E+00 -0.45593999997E+02  0.45594000000E+02  0.51100000000E-03 0. -1.
    9900012    2    1    2    0    0 -0.51450419190E+01  0.18799834741E+02 -0.38777802664E+02  0.47787271641E+02  0.20000002719E+02 0.  0.
        -12    1    1    2    0    0  0.51450419190E+01 -0.18799834741E+02  0.38777802664E+02  0.43400728359E+02  0.00000000000E+00 0.  1.
         11    1    3    3    0    0  0.14932550373E+01 -0.10236763615E+01 -0.50396923355E+01  0.53550184871E+01  0.51100000000E-03 0. -1.
        -11    1    3    3    0    0  0.45056511799E+01  0.25536377424E+01 -0.69874304837E+01  0.86974791348E+01  0.51100000000E-03 0.  1.
         12    1    3    3    0    0 -0.11143948136E+02  0.17269873360E+02 -0.26750679845E+02  0.33734774019E+02  0.00000000000E+00 0. -1.
</event>
<event>
 7    1  0.4356471E-010  0.4778731E+02  0.7816164E-02  0.1312668E+00
        -11   -1    0    0    0    0  0.00000000000E+00  0.00000000000E+00  0.45593999997E+02  0.45594000000E+02  0.51100000000E-03 0.  1.
         11   -1    0    0    0    0 -0.00000000000E+00 -0.00000000000E+00 -0.45593999997E+02  0.45594000000E+02  0.51100000000E-03 0. -1.
    9900012    2    1    2    0    0  0.40829554648E+02 -0.12363372742E+02 -0.79821071402E+01  0.47787313914E+02  0.20000195458E+02 0.  0.
        -12    1    1    2    0    0 -0.40829554648E+02  0.12363372742E+02  0.79821071402E+01  0.43400686086E+02  0.00000000000E+00 0.  1.
         11    1    3    3    0    0  0.22052246494E+01 -0.30093547894E+01 -0.48066203220E+01  0.60846389526E+01  0.51100000000E-03 0. -1.
        -11    1    3    3    0    0  0.36346207172E+01 -0.54380504680E+00 -0.42324656740E+01  0.56053508034E+01  0.51100000000E-03 0.  1.
         12    1    3    3    0    0  0.34989709282E+02 -0.88102129057E+01  0.10569788557E+01  0.36097324158E+02  0.00000000000E+00 0. -1.
</event>
<event>
 7    1  0.4356471E-010  0.4778728E+02  0.7816164E-02  0.1312668E+00
        -11   -1    0    0    0    0  0.00000000000E+00  0.00000000000E+00  0.45593999997E+02  0.45594000000E+02  0.51100000000E-03 0.  1.
         11   -1    0    0    0    0 -0.00000000000E+00 -0.00000000000E+00 -0.45593999997E+02  0.45594000000E+02  0.51100000000E-03 0. -1.
    9900012    2    1    2    0    0 -0.31328190310E+02  0.12622631247E+02 -0.27255022017E+02  0.47787279351E+02  0.20000037872E+02 0.  0.
        -12    1    1    2    0    0  0.31328190310E+02 -0.12622631247E+02  0.27255022017E+02  0.43400720649E+02  0.00000000000E+00 0.  1.
         11    1    3    3    0    0 -0.55192389398E+00  0.64308792856E+00 -0.69452149303E+01  0.69967272891E+01  0.51100000000E-03 0. -1.
        -11    1    3    3    0    0 -0.31035743938E+01 -0.25845253395E+01 -0.15640332870E+01  0.43310674934E+01  0.51100000000E-03 0.  1.
         12    1    3    3    0    0 -0.27672692023E+02  0.14564068658E+02 -0.18745773800E+02  0.36459484568E+02  0.00000000000E+00 0. -1.
</event>
<event>
 7    1  0.4356471E-010  0.4778727E+02  0.7816164E-02  0.1312668E+00
        -11   -1    0    0    0    0  0.00000000000E+00  0.00000000000E+00  0.45593999997E+02  0.45594000000E+02  0.51100000000E-03 0.  1.
         11   -1    0    0    0    0 -0.00000000000E+00 -0.00000000000E+00 -0.45593999997E+02  0.45594000000E+02  0.51100000000E-03 0. -1.
    9900012    2    1    2    0    0  0.34752335730E+02 -0.19082583834E+02 -0.17656533676E+02  0.47787273901E+02  0.20000013025E+02 0.  0.
        -12    1    1    2    0    0 -0.34752335730E+02  0.19082583834E+02  0.17656533676E+02  0.43400726099E+02  0.00000000000E+00 0.  1.
         11    1    3    3    0    0  0.15665899768E+02 -0.84712195124E+01 -0.15103965233E+00  0.17810243929E+02  0.51100000000E-03 0.  1.
        -11    1    3    3    0    0  0.58252676392E+00 -0.21949935872E+01  0.10055131425E+01  0.24836246132E+01  0.51100000000E-03 0. -1.
         12    1    3    3    0    0  0.18503909198E+02 -0.84163707341E+01 -0.18511007166E+02  0.27493405359E+02  0.00000000000E+00 0. -1.
</event>
<event>
 7    1  0.4356471E-010  0.4778727E+02  0.7816164E-02  0.1312668E+00
        -11   -1    0    0    0    0  0.00000000000E+00  0.00000000000E+00  0.45593999997E+02  0.45594000000E+02  0.51100000000E-03 0.  1.
         11   -1    0    0    0    0 -0.00000000000E+00 -0.00000000000E+00 -0.45593999997E+02  0.45594000000E+02  0.51100000000E-03 0. -1.
    9900012    2    1    2    0    0 -0.11121160714E+02  0.40849429559E+02 -0.95534079866E+01  0.47787265961E+02  0.19999976823E+02 0.  0.
        -12    1    1    2    0    0  0.11121160714E+02 -0.40849429559E+02  0.95534079866E+01  0.43400734039E+02  0.00000000000E+00 0.  1.
         11    1    3    3    0    0 -0.85347025371E+01  0.31472098197E+02 -0.79339104041E+01  0.33560110949E+02  0.51100000000E-03 0. -1.
        -11    1    3    3    0    0 -0.54547315129E+01  0.97601655313E+01 -0.18127371281E+01  0.11327000628E+02  0.51100000000E-03 0.  1.
        -12    1    3    3    0    0  0.28682733358E+01 -0.38283416898E+00  0.19323954561E+00  0.29001543841E+01  0.00000000000E+00 0.  1.
</event>
<event>
 7    1  0.4356471E-010  0.4778727E+02  0.7816164E-02  0.1312668E+00
        -11   -1    0    0    0    0  0.00000000000E+00  0.00000000000E+00  0.45593999997E+02  0.45594000000E+02  0.51100000000E-03 0. -1.
         11   -1    0    0    0    0 -0.00000000000E+00 -0.00000000000E+00 -0.45593999997E+02  0.45594000000E+02  0.51100000000E-03 0.  1.
    9900012    2    1    2    0    0 -0.33861908191E+02  0.16899419556E+02  0.21246269524E+02  0.47787272168E+02  0.20000005124E+02 0.  0.
        -12    1    1    2    0    0  0.33861908191E+02 -0.16899419556E+02 -0.21246269524E+02  0.43400727832E+02  0.00000000000E+00 0.  1.
         11    1    3    3    0    0 -0.19561267289E+02 -0.62913597447E+00  0.12956414067E+02  0.23471422108E+02  0.51100000000E-03 0.  1.
        -11    1    3    3    0    0 -0.57266771308E+01  0.49605751440E+01  0.18767642515E+01  0.78054071666E+01  0.51100000000E-03 0. -1.
        -12    1    3    3    0    0 -0.85739637712E+01  0.12567980387E+02  0.64130912052E+01  0.16510442894E+02  0.00000000000E+00 0.  1.
</event>
<event>
 7    1  0.4356471E-010  0.4778727E+02  0.7816164E-02  0.1312668E+00
        -11   -1    0    0    0    0  0.00000000000E+00  0.00000000000E+00  0.45593999997E+02  0.45594000000E+02  0.51100000000E-03 0. -1.
         11   -1    0    0    0    0 -0.00000000000E+00 -0.00000000000E+00 -0.45593999997E+02  0.45594000000E+02  0.51100000000E-03 0.  1.
    9900012    2    1    2    0    0  0.73066968370E+01  0.16240886253E+02  0.39578641556E+02  0.47787273366E+02  0.20000010584E+02 0.  0.
        -12    1    1    2    0    0 -0.73066968370E+01 -0.16240886253E+02 -0.39578641556E+02  0.43400726634E+02  0.00000000000E+00 0.  1.
         11    1    3    3    0    0  0.82237239228E+01  0.41640027223E+01  0.10417853699E+02  0.13910436003E+02  0.51100000000E-03 0. -1.
        -11    1    3    3    0    0 -0.29634904853E-01  0.85712707278E+00 -0.12126207197E+01  0.14852590068E+01  0.51100000000E-03 0.  1.
         12    1    3    3    0    0 -0.88739218094E+00  0.11219756458E+02  0.30373408577E+02  0.32391578356E+02  0.00000000000E+00 0. -1.
</event>
<event>
 7    1  0.4356471E-010  0.4778727E+02  0.7816164E-02  0.1312668E+00
        -11   -1    0    0    0    0  0.00000000000E+00  0.00000000000E+00  0.45593999997E+02  0.45594000000E+02  0.51100000000E-03 0. -1.
         11   -1    0    0    0    0 -0.00000000000E+00 -0.00000000000E+00 -0.45593999997E+02  0.45594000000E+02  0.51100000000E-03 0.  1.
    9900012    2    1    2    0    0 -0.25817634321E+02 -0.32867456521E+02  0.11696294448E+02  0.47787271390E+02  0.20000001575E+02 0.  0.
        -12    1    1    2    0    0  0.25817634321E+02  0.32867456521E+02 -0.11696294448E+02  0.43400728610E+02  0.00000000000E+00 0.  1.
         11    1    3    3    0    0 -0.15440424856E+02 -0.24324806176E+02  0.12890284696E+02  0.31563623921E+02  0.51100000000E-03 0. -1.
        -11    1    3    3    0    0 -0.99711127115E+01 -0.67302785688E+01  0.23175714276E+01  0.12251158145E+02  0.51100000000E-03 0.  1.
        -12    1    3    3    0    0 -0.40609675326E+00 -0.18123717758E+01 -0.35115616749E+01  0.39724893232E+01  0.00000000000E+00 0.  1.
</event>
<event>
 7    1  0.4356471E-010  0.4778727E+02  0.7816164E-02  0.1312668E+00
        -11   -1    0    0    0    0  0.00000000000E+00  0.00000000000E+00  0.45593999997E+02  0.45594000000E+02  0.51100000000E-03 0. -1.
         11   -1    0    0    0    0 -0.00000000000E+00 -0.00000000000E+00 -0.45593999997E+02  0.45594000000E+02  0.51100000000E-03 0.  1.
    9900012    2    1    2    0    0 -0.84437342526E+01  0.13971668774E+02  0.40213419181E+02  0.47787271220E+02  0.20000000799E+02 0.  0.
        -12    1    1    2    0    0  0.84437342526E+01 -0.13971668774E+02 -0.40213419181E+02  0.43400728780E+02  0.00000000000E+00 0.  1.
         11    1    3    3    0    0 -0.83231287460E+01  0.11957868938E+02  0.32334148790E+02  0.35464944381E+02  0.51100000000E-03 0. -1.
        -11    1    3    3    0    0 -0.17825258927E+01 -0.15889457498E+01  0.80041662234E+01  0.83527734523E+01  0.51100000000E-03 0.  1.
        -12    1    3    3    0    0  0.16619203861E+01  0.36027455851E+01 -0.12489583302E+00  0.39695533867E+01  0.00000000000E+00 0.  1.
</event>
<event>
 7    1  0.4356471E-010  0.4778727E+02  0.7816164E-02  0.1312668E+00
        -11   -1    0    0    0    0  0.00000000000E+00  0.00000000000E+00  0.45593999997E+02  0.45594000000E+02  0.51100000000E-03 0. -1.
         11   -1    0    0    0    0 -0.00000000000E+00 -0.00000000000E+00 -0.45593999997E+02  0.45594000000E+02  0.51100000000E-03 0.  1.
    9900012    2    1    2    0    0 -0.38614199485E+02 -0.36908771871E+01  0.19466497591E+02  0.47787268385E+02  0.19999987874E+02 0.  0.
        -12    1    1    2    0    0  0.38614199485E+02  0.36908771871E+01 -0.19466497591E+02  0.43400731615E+02  0.00000000000E+00 0.  1.
         11    1    3    3    0    0 -0.50622230866E+01  0.12847169832E-01  0.65505056166E+01  0.82786104947E+01  0.51100000000E-03 0. -1.
        -11    1    3    3    0    0  0.79865381879E+00 -0.28677623876E+01  0.10548065398E+01  0.31582473196E+01  0.51100000000E-03 0.  1.
        -12    1    3    3    0    0 -0.34350630217E+02 -0.83596196928E+00  0.11861185434E+02  0.36350410571E+02  0.00000000000E+00 0.  1.
</event>
<event>
 7    1  0.4356471E-010  0.4778727E+02  0.7816164E-02  0.1312668E+00
        -11   -1    0    0    0    0  0.00000000000E+00  0.00000000000E+00  0.45593999997E+02  0.45594000000E+02  0.51100000000E-03 0.  1.
         11   -1    0    0    0    0 -0.00000000000E+00 -0.00000000000E+00 -0.45593999997E+02  0.45594000000E+02  0.51100000000E-03 0. -1.
    9900012    2    1    2    0    0  0.34101484983E+02 -0.23623506546E+01 -0.26741938801E+02  0.47787271095E+02  0.20000000230E+02 0.  0.
        -12    1    1    2    0    0 -0.34101484983E+02  0.23623506546E+01  0.26741938801E+02  0.43400728905E+02  0.00000000000E+00 0.  1.
         11    1    3    3    0    0  0.14777713579E+02 -0.77029984223E+00 -0.63528178258E+01  0.16103803124E+02  0.51100000000E-03 0.  1.
        -11    1    3    3    0    0  0.21747198693E+02 -0.10861839241E+01 -0.18205934820E+02  0.28382679744E+02  0.51100000000E-03 0. -1.
        -12    1    3    3    0    0 -0.24234272887E+01 -0.50586688829E+00 -0.21831861552E+01  0.33007882272E+01  0.00000000000E+00 0.  1.
</event>
<event>
 7    1  0.4356471E-010  0.4778727E+02  0.7816164E-02  0.1312668E+00
        -11   -1    0    0    0    0  0.00000000000E+00  0.00000000000E+00  0.45593999997E+02  0.45594000000E+02  0.51100000000E-03 0. -1.
         11   -1    0    0    0    0 -0.00000000000E+00 -0.00000000000E+00 -0.45593999997E+02  0.45594000000E+02  0.51100000000E-03 0.  1.
    9900012    2    1    2    0    0  0.35664081777E+02  0.16523466517E+02  0.18403035510E+02  0.47787269698E+02  0.19999993861E+02 0.  0.
        -12    1    1    2    0    0 -0.35664081777E+02 -0.16523466517E+02 -0.18403035510E+02  0.43400730302E+02  0.00000000000E+00 0.  1.
         11    1    3    3    0    0  0.42397890679E+01 -0.20683610098E+01  0.10002171873E+01  0.48222778114E+01  0.51100000000E-03 0. -1.
        -11    1    3    3    0    0  0.25479206544E+01 -0.98456131809E+00  0.54346987882E+01  0.60825333398E+01  0.51100000000E-03 0.  1.
         12    1    3    3    0    0  0.28876372055E+02  0.19576388845E+02  0.11968119535E+02  0.36882458547E+02  0.00000000000E+00 0. -1.
</event>
<event>
 7    1  0.4356471E-010  0.4778727E+02  0.7816164E-02  0.1312668E+00
        -11   -1    0    0    0    0  0.00000000000E+00  0.00000000000E+00  0.45593999997E+02  0.45594000000E+02  0.51100000000E-03 0.  1.
         11   -1    0    0    0    0 -0.00000000000E+00 -0.00000000000E+00 -0.45593999997E+02  0.45594000000E+02  0.51100000000E-03 0. -1.
    9900012    2    1    2    0    0  0.31115714791E+02 -0.72936129787E+00 -0.30247372957E+02  0.47787271370E+02  0.20000001483E+02 0.  0.
        -12    1    1    2    0    0 -0.31115714791E+02  0.72936129787E+00  0.30247372957E+02  0.43400728630E+02  0.00000000000E+00 0.  1.
         11    1    3    3    0    0  0.10754660447E+02 -0.31928633613E+00 -0.19166032451E+02  0.21979569269E+02  0.51100000000E-03 0. -1.
        -11    1    3    3    0    0 -0.10782338009E+01 -0.90635544611E+00  0.42434495570E+00  0.14711006854E+01  0.51100000000E-03 0.  1.
         12    1    3    3    0    0  0.21439288145E+02  0.49628048437E+00 -0.11505685462E+02  0.24336601415E+02  0.00000000000E+00 0. -1.
</event>
<event>
 7    1  0.4356471E-010  0.4778728E+02  0.7816164E-02  0.1312668E+00
        -11   -1    0    0    0    0  0.00000000000E+00  0.00000000000E+00  0.45593999997E+02  0.45594000000E+02  0.51100000000E-03 0.  1.
         11   -1    0    0    0    0 -0.00000000000E+00 -0.00000000000E+00 -0.45593999997E+02  0.45594000000E+02  0.51100000000E-03 0. -1.
    9900012    2    1    2    0    0 -0.27252140794E+02  0.33751530247E+02  0.13332176974E+01  0.47787280636E+02  0.20000043732E+02 0.  0.
        -12    1    1    2    0    0  0.27252140794E+02 -0.33751530247E+02 -0.13332176974E+01  0.43400719364E+02  0.00000000000E+00 0.  1.
         11    1    3    3    0    0 -0.48504800933E+01  0.11199020042E+02 -0.69364148923E+00  0.12224006946E+02  0.51100000000E-03 0.  1.
        -11    1    3    3    0    0 -0.20445530734E+02  0.23565187519E+02 -0.16885118661E+01  0.31244021226E+02  0.51100000000E-03 0. -1.
        -12    1    3    3    0    0 -0.19561299666E+01 -0.10126773137E+01  0.37153710527E+01  0.43192524639E+01  0.00000000000E+00 0.  1.
</event>
<event>
 7    1  0.4356471E-010  0.4778727E+02  0.7816164E-02  0.1312668E+00
        -11   -1    0    0    0    0  0.00000000000E+00  0.00000000000E+00  0.45593999997E+02  0.45594000000E+02  0.51100000000E-03 0. -1.
         11   -1    0    0    0    0 -0.00000000000E+00 -0.00000000000E+00 -0.45593999997E+02  0.45594000000E+02  0.51100000000E-03 0.  1.
    9900012    2    1    2    0    0  0.39304486068E+02  0.10041183564E+02 -0.15425799247E+02  0.47787271033E+02  0.19999999950E+02 0.  0.
        -12    1    1    2    0    0 -0.39304486068E+02 -0.10041183564E+02  0.15425799247E+02  0.43400728967E+02  0.00000000000E+00 0.  1.
         11    1    3    3    0    0  0.10795245636E+02  0.15696295592E+01 -0.18014097524E+01  0.11056497757E+02  0.51100000000E-03 0. -1.
        -11    1    3    3    0    0  0.17051156009E+00 -0.33412499732E+01 -0.20235938252E+01  0.39099818166E+01  0.51100000000E-03 0.  1.
        -12    1    3    3    0    0  0.28338728872E+02  0.11812803978E+02 -0.11600795669E+02  0.32820791460E+02  0.00000000000E+00 0.  1.
</event>
<event>
 7    1  0.4356471E-010  0.4778724E+02  0.7816164E-02  0.1312668E+00
        -11   -1    0    0    0    0  0.00000000000E+00  0.00000000000E+00  0.45593999997E+02  0.45594000000E+02  0.51100000000E-03 0. -1.
         11   -1    0    0    0    0 -0.00000000000E+00 -0.00000000000E+00 -0.45593999997E+02  0.45594000000E+02  0.51100000000E-03 0.  1.
    9900012    2    1    2    0    0  0.27834100292E+02 -0.18106839788E+02  0.27946937548E+02  0.47787238435E+02  0.19999851319E+02 0.  0.
        -12    1    1    2    0    0 -0.27834100292E+02  0.18106839788E+02 -0.27946937548E+02  0.43400761565E+02  0.00000000000E+00 0.  1.
         11    1    3    3    0    0  0.38497155970E+01 -0.70673974516E+01  0.88113489880E+01  0.11933494382E+02  0.51100000000E-03 0. -1.
        -11    1    3    3    0    0  0.17448262072E+02 -0.14123738918E+02  0.11088254792E+02  0.25037396928E+02  0.51100000000E-03 0.  1.
        -12    1    3    3    0    0  0.65361226228E+01  0.30842965817E+01  0.80473337681E+01  0.10816347125E+02  0.00000000000E+00 0.  1.
</event>
<event>
 7    1  0.4356471E-010  0.4778727E+02  0.7816164E-02  0.1312668E+00
        -11   -1    0    0    0    0  0.00000000000E+00  0.00000000000E+00  0.45593999997E+02  0.45594000000E+02  0.51100000000E-03 0.  1.
         11   -1    0    0    0    0 -0.00000000000E+00 -0.00000000000E+00 -0.45593999997E+02  0.45594000000E+02  0.51100000000E-03 0. -1.
    9900012    2    1    2    0    0 -0.18520202127E+02 -0.29629716395E+02 -0.25743058462E+02  0.47787273745E+02  0.20000012314E+02 0.  0.
        -12    1    1    2    0    0  0.18520202127E+02  0.29629716395E+02  0.25743058462E+02  0.43400726255E+02  0.00000000000E+00 0.  1.
         11    1    3    3    0    0 -0.37393411574E+01  0.24728744237E+01 -0.30229753855E+01  0.54070473134E+01  0.51100000000E-03 0. -1.
        -11    1    3    3    0    0 -0.91076052528E+00 -0.73108330110E+01 -0.46296116286E+01  0.87012107285E+01  0.51100000000E-03 0.  1.
         12    1    3    3    0    0 -0.13870100444E+02 -0.24791757808E+02 -0.18090471448E+02  0.33679015703E+02  0.00000000000E+00 0. -1.
</event>
<event>
 7    1  0.4356471E-010  0.4778727E+02  0.7816164E-02  0.1312668E+00
        -11   -1    0    0    0    0  0.00000000000E+00  0.00000000000E+00  0.45593999997E+02  0.45594000000E+02  0.51100000000E-03 0.  1.
         11   -1    0    0    0    0 -0.00000000000E+00 -0.00000000000E+00 -0.45593999997E+02  0.45594000000E+02  0.51100000000E-03 0. -1.
    9900012    2    1    2    0    0  0.18027460103E+02  0.45111075339E+01 -0.39220964315E+02  0.47787269007E+02  0.19999990711E+02 0.  0.
        -12    1    1    2    0    0 -0.18027460103E+02 -0.45111075339E+01  0.39220964315E+02  0.43400730993E+02  0.00000000000E+00 0.  1.
         11    1    3    3    0    0  0.27093036827E+01  0.64545030334E+01 -0.71700124997E+01  0.10020479797E+02  0.51100000000E-03 0. -1.
        -11    1    3    3    0    0  0.52314978177E+01  0.14517533209E+01 -0.23486900506E+02  0.24106236802E+02  0.51100000000E-03 0.  1.
         12    1    3    3    0    0  0.10086658602E+02 -0.33951488204E+01 -0.85640513089E+01  0.13660552408E+02  0.00000000000E+00 0. -1.
</event>
<event>
 7    1  0.4356471E-010  0.4778727E+02  0.7816164E-02  0.1312668E+00
        -11   -1    0    0    0    0  0.00000000000E+00  0.00000000000E+00  0.45593999997E+02  0.45594000000E+02  0.51100000000E-03 0.  1.
         11   -1    0    0    0    0 -0.00000000000E+00 -0.00000000000E+00 -0.45593999997E+02  0.45594000000E+02  0.51100000000E-03 0. -1.
    9900012    2    1    2    0    0 -0.28228859281E+02 -0.32912631490E+02 -0.18744304387E+01  0.47787270773E+02  0.19999998764E+02 0.  0.
        -12    1    1    2    0    0  0.28228859281E+02  0.32912631490E+02  0.18744304387E+01  0.43400729227E+02  0.00000000000E+00 0.  1.
         11    1    3    3    0    0 -0.11461346051E+01 -0.15139215394E+01  0.23085014491E+01  0.29891072517E+01  0.51100000000E-03 0. -1.
        -11    1    3    3    0    0 -0.13838977529E+02 -0.24546592102E+02  0.28287076260E+01  0.28320559139E+02  0.51100000000E-03 0.  1.
         12    1    3    3    0    0 -0.13243747147E+02 -0.68521178493E+01 -0.70116395138E+01  0.16477604383E+02  0.00000000000E+00 0. -1.
</event>
<event>
 7    1  0.4356471E-010  0.4778726E+02  0.7816164E-02  0.1312668E+00
        -11   -1    0    0    0    0  0.00000000000E+00  0.00000000000E+00  0.45593999997E+02  0.45594000000E+02  0.51100000000E-03 0.  1.
         11   -1    0    0    0    0 -0.00000000000E+00 -0.00000000000E+00 -0.45593999997E+02  0.45594000000E+02  0.51100000000E-03 0. -1.
    9900012    2    1    2    0    0  0.17868357790E+02 -0.20462600958E+02 -0.33847120412E+02  0.47787264888E+02  0.19999971933E+02 0.  0.
        -12    1    1    2    0    0 -0.17868357790E+02  0.20462600958E+02  0.33847120412E+02  0.43400735112E+02  0.00000000000E+00 0.  1.
         11    1    3    3    0    0  0.16106060794E+02 -0.11887107341E+02 -0.24924258972E+02  0.31967596106E+02  0.51100000000E-03 0. -1.
        -11    1    3    3    0    0  0.57764162037E+01 -0.44511781223E+01 -0.46049353641E+01  0.86246971427E+01  0.51100000000E-03 0.  1.
        -12    1    3    3    0    0 -0.40141192072E+01 -0.41243154938E+01 -0.43179260752E+01  0.71949716395E+01  0.00000000000E+00 0.  1.
</event>
<event>
 7    1  0.4356471E-010  0.4778726E+02  0.7816164E-02  0.1312668E+00
        -11   -1    0    0    0    0  0.00000000000E+00  0.00000000000E+00  0.45593999997E+02  0.45594000000E+02  0.51100000000E-03 0.  1.
         11   -1    0    0    0    0 -0.00000000000E+00 -0.00000000000E+00 -0.45593999997E+02  0.45594000000E+02  0.51100000000E-03 0. -1.
    9900012    2    1    2    0    0 -0.42847765807E+02  0.68836123950E+01 -0.55561630709E+00  0.47787264249E+02  0.19999969016E+02 0.  0.
        -12    1    1    2    0    0  0.42847765807E+02 -0.68836123950E+01  0.55561630709E+00  0.43400735751E+02  0.00000000000E+00 0.  1.
         11    1    3    3    0    0 -0.91690894134E+01  0.10432345699E+01  0.93938362810E+00  0.92759355809E+01  0.51100000000E-03 0. -1.
        -11    1    3    3    0    0 -0.26210820235E+02  0.93898893079E+01 -0.68345990597E+01  0.28668604138E+02  0.51100000000E-03 0.  1.
        -12    1    3    3    0    0 -0.74678561583E+01 -0.35495114828E+01  0.53395991245E+01  0.98427245302E+01  0.00000000000E+00 0.  1.
</event>
<event>
 7    1  0.4356471E-010  0.4778727E+02  0.7816164E-02  0.1312668E+00
        -11   -1    0    0    0    0  0.00000000000E+00  0.00000000000E+00  0.45593999997E+02  0.45594000000E+02  0.51100000000E-03 0.  1.
         11   -1    0    0    0    0 -0.00000000000E+00 -0.00000000000E+00 -0.45593999997E+02  0.45594000000E+02  0.51100000000E-03 0. -1.
    9900012    2    1    2    0    0  0.24644230183E+02  0.19874936296E+02  0.29686227532E+02  0.47787270984E+02  0.19999999723E+02 0.  0.
        -12    1    1    2    0    0 -0.24644230183E+02 -0.19874936296E+02 -0.29686227532E+02  0.43400729016E+02  0.00000000000E+00 0.  1.
         11    1    3    3    0    0 -0.96927821789E-01  0.22753672612E+01  0.38700938116E+01  0.44904696356E+01  0.51100000000E-03 0. -1.
        -11    1    3    3    0    0  0.33342175864E+01  0.16575119799E+01 -0.24210410762E+01  0.44413728768E+01  0.51100000000E-03 0.  1.
         12    1    3    3    0    0  0.21406940418E+02  0.15942057055E+02  0.28237174797E+02  0.38855428471E+02  0.00000000000E+00 0. -1.
</event>
<event>
 7    1  0.4356471E-010  0.4778728E+02  0.7816164E-02  0.1312668E+00
        -11   -1    0    0    0    0  0.00000000000E+00  0.00000000000E+00  0.45593999997E+02  0.45594000000E+02  0.51100000000E-03 0.  1.
         11   -1    0    0    0    0 -0.00000000000E+00 -0.00000000000E+00 -0.45593999997E+02  0.45594000000E+02  0.51100000000E-03 0. -1.
    9900012    2    1    2    0    0  0.13085925158E+01 -0.24684959773E+02 -0.35673004728E+02  0.47787275125E+02  0.20000018605E+02 0.  0.
        -12    1    1    2    0    0 -0.13085925158E+01  0.24684959773E+02  0.35673004728E+02  0.43400724875E+02  0.00000000000E+00 0.  1.
         11    1    3    3    0    0 -0.27903234996E+01 -0.24312718185E+02 -0.20903075910E+02  0.32184355727E+02  0.51100000000E-03 0. -1.
        -11    1    3    3    0    0  0.28938599944E+00  0.70315817111E+00 -0.50650800306E+01  0.51218367455E+01  0.51100000000E-03 0.  1.
         12    1    3    3    0    0  0.38095300159E+01 -0.10753997586E+01 -0.97048487875E+01  0.10481082653E+02  0.00000000000E+00 0. -1.
</event>
<event>
 7    1  0.4356471E-010  0.4778728E+02  0.7816164E-02  0.1312668E+00
        -11   -1    0    0    0    0  0.00000000000E+00  0.00000000000E+00  0.45593999997E+02  0.45594000000E+02  0.51100000000E-03 0.  1.
         11   -1    0    0    0    0 -0.00000000000E+00 -0.00000000000E+00 -0.45593999997E+02  0.45594000000E+02  0.51100000000E-03 0. -1.
    9900012    2    1    2    0    0 -0.30278269233E+02 -0.59272239018E+01 -0.30524033436E+02  0.47787283553E+02  0.20000057031E+02 0.  0.
        -12    1    1    2    0    0  0.30278269233E+02  0.59272239018E+01  0.30524033436E+02  0.43400716447E+02  0.00000000000E+00 0.  1.
         11    1    3    3    0    0 -0.27431020636E+02 -0.69946693409E+01 -0.20552877558E+02  0.34982953970E+02  0.51100000000E-03 0. -1.
        -11    1    3    3    0    0 -0.52902222905E+01  0.75216729889E+00 -0.81311286997E+01  0.97297205367E+01  0.51100000000E-03 0.  1.
         12    1    3    3    0    0  0.24429736930E+01  0.31527814019E+00 -0.18400271783E+01  0.30746090462E+01  0.00000000000E+00 0. -1.
</event>
<event>
 7    1  0.4356471E-010  0.4778727E+02  0.7816164E-02  0.1312668E+00
        -11   -1    0    0    0    0  0.00000000000E+00  0.00000000000E+00  0.45593999997E+02  0.45594000000E+02  0.51100000000E-03 0.  1.
         11   -1    0    0    0    0 -0.00000000000E+00 -0.00000000000E+00 -0.45593999997E+02  0.45594000000E+02  0.51100000000E-03 0. -1.
    9900012    2    1    2    0    0 -0.31796854112E+02  0.53378305152E+01 -0.29053242955E+02  0.47787270833E+02  0.19999999037E+02 0.  0.
        -12    1    1    2    0    0  0.31796854112E+02 -0.53378305152E+01  0.29053242955E+02  0.43400729167E+02  0.00000000000E+00 0.  1.
         11    1    3    3    0    0 -0.89462045901E+01  0.59670380116E+01 -0.12974200466E+02  0.16851409353E+02  0.51100000000E-03 0. -1.
        -11    1    3    3    0    0 -0.33546425464E+01  0.21311601464E+01  0.17781898841E+01  0.43540130579E+01  0.51100000000E-03 0.  1.
        -12    1    3    3    0    0 -0.19496006976E+02 -0.27603676428E+01 -0.17857232373E+02  0.26581848422E+02  0.00000000000E+00 0.  1.
</event>
<event>
 7    1  0.4356471E-010  0.4778727E+02  0.7816164E-02  0.1312668E+00
        -11   -1    0    0    0    0  0.00000000000E+00  0.00000000000E+00  0.45593999997E+02  0.45594000000E+02  0.51100000000E-03 0. -1.
         11   -1    0    0    0    0 -0.00000000000E+00 -0.00000000000E+00 -0.45593999997E+02  0.45594000000E+02  0.51100000000E-03 0.  1.
    9900012    2    1    2    0    0 -0.61867414789E+01 -0.19674879397E+02  0.38186999888E+02  0.47787267173E+02  0.19999982349E+02 0.  0.
        -12    1    1    2    0    0  0.61867414789E+01  0.19674879397E+02 -0.38186999888E+02  0.43400732827E+02  0.00000000000E+00 0.  1.
         11    1    3    3    0    0 -0.77103217811E+00 -0.57988614072E+01  0.18242995314E+02  0.19157979082E+02  0.51100000000E-03 0. -1.
        -11    1    3    3    0    0  0.15246463337E+01 -0.13501971307E+02  0.13348668292E+02  0.19047695951E+02  0.51100000000E-03 0.  1.
         12    1    3    3    0    0 -0.69403556345E+01 -0.37404668350E+00  0.65953362829E+01  0.95815921400E+01  0.00000000000E+00 0. -1.
</event>
<event>
 7    1  0.4356471E-010  0.4778726E+02  0.7816164E-02  0.1312668E+00
        -11   -1    0    0    0    0  0.00000000000E+00  0.00000000000E+00  0.45593999997E+02  0.45594000000E+02  0.51100000000E-03 0.  1.
         11   -1    0    0    0    0 -0.00000000000E+00 -0.00000000000E+00 -0.45593999997E+02  0.45594000000E+02  0.51100000000E-03 0. -1.
    9900012    2    1    2    0    0 -0.34428158908E+02 -0.25244114977E+02 -0.78141113104E+01  0.47787264956E+02  0.19999972240E+02 0.  0.
        -12    1    1    2    0    0  0.34428158908E+02  0.25244114977E+02  0.78141113104E+01  0.43400735044E+02  0.00000000000E+00 0.  1.
         11    1    3    3    0    0 -0.29899137698E+02 -0.27470442581E+02 -0.74545398193E+01  0.41281397928E+02  0.51100000000E-03 0. -1.
        -11    1    3    3    0    0  0.50248256861E+00 -0.22779915274E+00  0.61211960185E+00  0.82405816168E+00  0.51100000000E-03 0.  1.
        -12    1    3    3    0    0 -0.50315037789E+01  0.24541267569E+01 -0.97169109296E+00  0.56818088665E+01  0.00000000000E+00 0.  1.
</event>
<event>
 7    1  0.4356471E-010  0.4778727E+02  0.7816164E-02  0.1312668E+00
        -11   -1    0    0    0    0  0.00000000000E+00  0.00000000000E+00  0.45593999997E+02  0.45594000000E+02  0.51100000000E-03 0.  1.
         11   -1    0    0    0    0 -0.00000000000E+00 -0.00000000000E+00 -0.45593999997E+02  0.45594000000E+02  0.51100000000E-03 0. -1.
    9900012    2    1    2    0    0 -0.69497157875E+01  0.29137119990E+02 -0.31406254557E+02  0.47787272631E+02  0.20000007234E+02 0.  0.
        -12    1    1    2    0    0  0.69497157875E+01 -0.29137119990E+02  0.31406254557E+02  0.43400727369E+02  0.00000000000E+00 0.  1.
         11    1    3    3    0    0  0.18092004289E+01 -0.14199708937E+01 -0.63422826562E+01  0.67464118673E+01  0.51100000000E-03 0. -1.
        -11    1    3    3    0    0 -0.41311352346E+01  0.52894652380E+01 -0.39373470154E+01  0.77812224369E+01  0.51100000000E-03 0.  1.
         12    1    3    3    0    0 -0.46277809819E+01  0.25267625646E+02 -0.21126624886E+02  0.33259638327E+02  0.00000000000E+00 0. -1.
</event>
<event>
 7    1  0.4356471E-010  0.4778727E+02  0.7816164E-02  0.1312668E+00
        -11   -1    0    0    0    0  0.00000000000E+00  0.00000000000E+00  0.45593999997E+02  0.45594000000E+02  0.51100000000E-03 0.  1.
         11   -1    0    0    0    0 -0.00000000000E+00 -0.00000000000E+00 -0.45593999997E+02  0.45594000000E+02  0.51100000000E-03 0. -1.
    9900012    2    1    2    0    0  0.17111744750E+02  0.39556476719E+02 -0.51084689959E+01  0.47787272883E+02  0.20000008381E+02 0.  0.
        -12    1    1    2    0    0 -0.17111744750E+02 -0.39556476719E+02  0.51084689959E+01  0.43400727117E+02  0.00000000000E+00 0.  1.
         11    1    3    3    0    0  0.33319534849E+01  0.96269193455E+01 -0.24452230148E+01  0.10476574152E+02  0.51100000000E-03 0. -1.
        -11    1    3    3    0    0  0.11181741099E+02  0.19976174328E+02  0.62160421712E+01  0.23721679015E+02  0.51100000000E-03 0.  1.
        -12    1    3    3    0    0  0.25980501657E+01  0.99533830462E+01 -0.88792881523E+01  0.13589019715E+02  0.00000000000E+00 0.  1.
</event>
<event>
 7    1  0.4356471E-010  0.4778727E+02  0.7816164E-02  0.1312668E+00
        -11   -1    0    0    0    0  0.00000000000E+00  0.00000000000E+00  0.45593999997E+02  0.45594000000E+02  0.51100000000E-03 0. -1.
         11   -1    0    0    0    0 -0.00000000000E+00 -0.00000000000E+00 -0.45593999997E+02  0.45594000000E+02  0.51100000000E-03 0.  1.
    9900012    2    1    2    0    0 -0.30224038182E+01  0.17138498018E+02  0.39758774044E+02  0.47787272441E+02  0.20000006369E+02 0.  0.
        -12    1    1    2    0    0  0.30224038182E+01 -0.17138498018E+02 -0.39758774044E+02  0.43400727559E+02  0.00000000000E+00 0.  1.
         11    1    3    3    0    0 -0.54999504958E+01  0.66128202714E+00  0.41281183021E+01  0.69085534197E+01  0.51100000000E-03 0. -1.
        -11    1    3    3    0    0 -0.36179991147E+01  0.11313624238E+02  0.18626582643E+02  0.22091572878E+02  0.51100000000E-03 0.  1.
        -12    1    3    3    0    0  0.60955457923E+01  0.51635917530E+01  0.17004073098E+02  0.18787146144E+02  0.00000000000E+00 0.  1.
</event>
<event>
 7    1  0.4356471E-010  0.4778727E+02  0.7816164E-02  0.1312668E+00
        -11   -1    0    0    0    0  0.00000000000E+00  0.00000000000E+00  0.45593999997E+02  0.45594000000E+02  0.51100000000E-03 0.  1.
         11   -1    0    0    0    0 -0.00000000000E+00 -0.00000000000E+00 -0.45593999997E+02  0.45594000000E+02  0.51100000000E-03 0. -1.
    9900012    2    1    2    0    0  0.21729391398E+02 -0.11009587988E+02 -0.35919996649E+02  0.47787266855E+02  0.19999980901E+02 0.  0.
        -12    1    1    2    0    0 -0.21729391398E+02  0.11009587988E+02  0.35919996649E+02  0.43400733145E+02  0.00000000000E+00 0.  1.
         11    1    3    3    0    0  0.63070168006E+01 -0.46025390600E+01 -0.14659000256E+02  0.16608675910E+02  0.51100000000E-03 0. -1.
        -11    1    3    3    0    0  0.13825807370E+01  0.41664326537E+01 -0.81290400564E+01  0.92386136976E+01  0.51100000000E-03 0.  1.
         12    1    3    3    0    0  0.14039793860E+02 -0.10573481582E+02 -0.13131956337E+02  0.21939977248E+02  0.00000000000E+00 0. -1.
</event>
<event>
 7    1  0.4356471E-010  0.4778727E+02  0.7816164E-02  0.1312668E+00
        -11   -1    0    0    0    0  0.00000000000E+00  0.00000000000E+00  0.45593999997E+02  0.45594000000E+02  0.51100000000E-03 0. -1.
         11   -1    0    0    0    0 -0.00000000000E+00 -0.00000000000E+00 -0.45593999997E+02  0.45594000000E+02  0.51100000000E-03 0.  1.
    9900012    2    1    2    0    0  0.42786480526E+02 -0.58202300269E+01  0.43663919750E+01  0.47787269911E+02  0.19999994834E+02 0.  0.
        -12    1    1    2    0    0 -0.42786480526E+02  0.58202300269E+01 -0.43663919750E+01  0.43400730089E+02  0.00000000000E+00 0.  1.
         11    1    3    3    0    0  0.70233728601E+01  0.11282897236E+01  0.79948794976E+00  0.71582110387E+01  0.51100000000E-03 0. -1.
        -11    1    3    3    0    0  0.13446554657E+02 -0.99390964538E+01  0.64647400193E+01  0.17927306943E+02  0.51100000000E-03 0.  1.
        -12    1    3    3    0    0  0.22316553009E+02  0.29905767034E+01 -0.28978359940E+01  0.22701751930E+02  0.00000000000E+00 0.  1.
</event>
<event>
 7    1  0.4356471E-010  0.4778727E+02  0.7816164E-02  0.1312668E+00
        -11   -1    0    0    0    0  0.00000000000E+00  0.00000000000E+00  0.45593999997E+02  0.45594000000E+02  0.51100000000E-03 0.  1.
         11   -1    0    0    0    0 -0.00000000000E+00 -0.00000000000E+00 -0.45593999997E+02  0.45594000000E+02  0.51100000000E-03 0. -1.
    9900012    2    1    2    0    0 -0.18332826805E+02 -0.33796859783E+01 -0.39193221931E+02  0.47787268885E+02  0.19999990154E+02 0.  0.
        -12    1    1    2    0    0  0.18332826805E+02  0.33796859783E+01  0.39193221931E+02  0.43400731115E+02  0.00000000000E+00 0.  1.
         11    1    3    3    0    0 -0.84009618696E+01  0.30162986935E+00 -0.11381258818E+02  0.14149211761E+02  0.51100000000E-03 0. -1.
        -11    1    3    3    0    0  0.25294841004E+01 -0.17645494885E+00 -0.15722950393E+02  0.15926097936E+02  0.51100000000E-03 0.  1.
         12    1    3    3    0    0 -0.12461349036E+02 -0.35048608988E+01 -0.12089012721E+02  0.17711959188E+02  0.00000000000E+00 0. -1.
</event>
<event>
 7    1  0.4356471E-010  0.4778727E+02  0.7816164E-02  0.1312668E+00
        -11   -1    0    0    0    0  0.00000000000E+00  0.00000000000E+00  0.45593999997E+02  0.45594000000E+02  0.51100000000E-03 0. -1.
         11   -1    0    0    0    0 -0.00000000000E+00 -0.00000000000E+00 -0.45593999997E+02  0.45594000000E+02  0.51100000000E-03 0.  1.
    9900012    2    1    2    0    0  0.38171467150E+02 -0.20237806789E+02 -0.41223133358E+01  0.47787271950E+02  0.20000004130E+02 0.  0.
        -12    1    1    2    0    0 -0.38171467150E+02  0.20237806789E+02  0.41223133358E+01  0.43400728050E+02  0.00000000000E+00 0.  1.
         11    1    3    3    0    0  0.25223232406E+02 -0.78462745338E+01 -0.22148809775E+01  0.26508134131E+02  0.51100000000E-03 0. -1.
        -11    1    3    3    0    0  0.12791680751E+02 -0.11197732924E+02 -0.51962323536E+01  0.17776871210E+02  0.51100000000E-03 0.  1.
         12    1    3    3    0    0  0.15655399258E+00 -0.11937993312E+01  0.32887999953E+01  0.35022666096E+01  0.00000000000E+00 0. -1.
</event>
<event>
 7    1  0.4356471E-010  0.4778727E+02  0.7816164E-02  0.1312668E+00
        -11   -1    0    0    0    0  0.00000000000E+00  0.00000000000E+00  0.45593999997E+02  0.45594000000E+02  0.51100000000E-03 0.  1.
         11   -1    0    0    0    0 -0.00000000000E+00 -0.00000000000E+00 -0.45593999997E+02  0.45594000000E+02  0.51100000000E-03 0. -1.
    9900012    2    1    2    0    0  0.28688286929E+02 -0.30072718939E+02 -0.12499478752E+02  0.47787271892E+02  0.20000003863E+02 0.  0.
        -12    1    1    2    0    0 -0.28688286929E+02  0.30072718939E+02  0.12499478752E+02  0.43400728108E+02  0.00000000000E+00 0.  1.
         11    1    3    3    0    0  0.16134821839E+02 -0.18250164807E+02 -0.12847775703E+02  0.27540267465E+02  0.51100000000E-03 0. -1.
        -11    1    3    3    0    0  0.38319441249E+01 -0.10284232035E+02 -0.18310844343E+01  0.11126638971E+02  0.51100000000E-03 0.  1.
         12    1    3    3    0    0  0.87215209652E+01 -0.15383220969E+01  0.21793813862E+01  0.91203654558E+01  0.00000000000E+00 0. -1.
</event>
<event>
 7    1  0.4356471E-010  0.4778727E+02  0.7816164E-02  0.1312668E+00
        -11   -1    0    0    0    0  0.00000000000E+00  0.00000000000E+00  0.45593999997E+02  0.45594000000E+02  0.51100000000E-03 0. -1.
         11   -1    0    0    0    0 -0.00000000000E+00 -0.00000000000E+00 -0.45593999997E+02  0.45594000000E+02  0.51100000000E-03 0.  1.
    9900012    2    1    2    0    0  0.31004907495E+02 -0.21543146905E+02  0.21405885126E+02  0.47787269760E+02  0.19999994144E+02 0.  0.
        -12    1    1    2    0    0 -0.31004907495E+02  0.21543146905E+02 -0.21405885126E+02  0.43400730240E+02  0.00000000000E+00 0.  1.
         11    1    3    3    0    0  0.93696488478E+01 -0.10126463413E+02  0.54087649930E+00  0.13806814565E+02  0.51100000000E-03 0. -1.
        -11    1    3    3    0    0  0.10801118161E+02 -0.19561886471E+01  0.36950073267E+01  0.11582051068E+02  0.51100000000E-03 0.  1.
         12    1    3    3    0    0  0.10834140487E+02 -0.94604948443E+01  0.17170001300E+02  0.22398404126E+02  0.00000000000E+00 0. -1.
</event>
<event>
 7    1  0.4356471E-010  0.4778728E+02  0.7816164E-02  0.1312668E+00
        -11   -1    0    0    0    0  0.00000000000E+00  0.00000000000E+00  0.45593999997E+02  0.45594000000E+02  0.51100000000E-03 0.  1.
         11   -1    0    0    0    0 -0.00000000000E+00 -0.00000000000E+00 -0.45593999997E+02  0.45594000000E+02  0.51100000000E-03 0. -1.
    9900012    2    1    2    0    0 -0.25642742468E+02  0.24439793146E+02 -0.25075269729E+02  0.47787275556E+02  0.20000020571E+02 0.  0.
        -12    1    1    2    0    0  0.25642742468E+02 -0.24439793146E+02  0.25075269729E+02  0.43400724444E+02  0.00000000000E+00 0.  1.
         11    1    3    3    0    0 -0.60776372260E+01 -0.19814588685E+01 -0.19509581543E+01  0.66835687682E+01  0.51100000000E-03 0. -1.
        -11    1    3    3    0    0 -0.15337958973E+02  0.15538587997E+02 -0.11706880087E+02  0.24774013482E+02  0.51100000000E-03 0.  1.
        -12    1    3    3    0    0 -0.42271462690E+01  0.10882664018E+02 -0.11417431487E+02  0.16329693306E+02  0.00000000000E+00 0.  1.
</event>
<event>
 7    1  0.4356471E-010  0.4778727E+02  0.7816164E-02  0.1312668E+00
        -11   -1    0    0    0    0  0.00000000000E+00  0.00000000000E+00  0.45593999997E+02  0.45594000000E+02  0.51100000000E-03 0. -1.
         11   -1    0    0    0    0 -0.00000000000E+00 -0.00000000000E+00 -0.45593999997E+02  0.45594000000E+02  0.51100000000E-03 0.  1.
    9900012    2    1    2    0    0  0.43047023709E+02 -0.51457500031E+01 -0.20244179880E+01  0.47787271187E+02  0.20000000649E+02 0.  0.
        -12    1    1    2    0    0 -0.43047023709E+02  0.51457500031E+01  0.20244179880E+01  0.43400728813E+02  0.00000000000E+00 0.  1.
         11    1    3    3    0    0  0.15430828352E+02  0.10744078595E+01 -0.16120617394E+00  0.15469027234E+02  0.51100000000E-03 0. -1.
        -11    1    3    3    0    0  0.20931212071E+01  0.18610417140E+01  0.40277956727E+01  0.49058914472E+01  0.51100000000E-03 0.  1.
         12    1    3    3    0    0  0.25523074151E+02 -0.80811995765E+01 -0.58910074868E+01  0.27412352506E+02  0.00000000000E+00 0. -1.
</event>
<event>
 7    1  0.4356471E-010  0.4778727E+02  0.7816164E-02  0.1312668E+00
        -11   -1    0    0    0    0  0.00000000000E+00  0.00000000000E+00  0.45593999997E+02  0.45594000000E+02  0.51100000000E-03 0.  1.
         11   -1    0    0    0    0 -0.00000000000E+00 -0.00000000000E+00 -0.45593999997E+02  0.45594000000E+02  0.51100000000E-03 0. -1.
    9900012    2    1    2    0    0 -0.22097739430E+02  0.15956448444E+02 -0.33774326643E+02  0.47787268727E+02  0.19999989432E+02 0.  0.
        -12    1    1    2    0    0  0.22097739430E+02 -0.15956448444E+02  0.33774326643E+02  0.43400731273E+02  0.00000000000E+00 0.  1.
         11    1    3    3    0    0 -0.48023152711E+01  0.54251600928E+01 -0.91219848601E+01  0.11649257575E+02  0.51100000000E-03 0. -1.
        -11    1    3    3    0    0 -0.14674308767E+02  0.28667125290E+00 -0.88977026190E+01  0.17163526163E+02  0.51100000000E-03 0.  1.
        -12    1    3    3    0    0 -0.26211153918E+01  0.10244617098E+02 -0.15754639164E+02  0.18974484988E+02  0.00000000000E+00 0.  1.
</event>
<event>
 7    1  0.4356471E-010  0.4778727E+02  0.7816164E-02  0.1312668E+00
        -11   -1    0    0    0    0  0.00000000000E+00  0.00000000000E+00  0.45593999997E+02  0.45594000000E+02  0.51100000000E-03 0. -1.
         11   -1    0    0    0    0 -0.00000000000E+00 -0.00000000000E+00 -0.45593999997E+02  0.45594000000E+02  0.51100000000E-03 0.  1.
    9900012    2    1    2    0    0 -0.10080817150E+02  0.36759519295E+02 -0.20754235201E+02  0.47787269453E+02  0.19999992746E+02 0.  0.
        -12    1    1    2    0    0  0.10080817150E+02 -0.36759519295E+02  0.20754235201E+02  0.43400730547E+02  0.00000000000E+00 0.  1.
         11    1    3    3    0    0 -0.56268172048E+01  0.94232142878E+01  0.25116949137E+01  0.11259069720E+02  0.51100000000E-03 0. -1.
        -11    1    3    3    0    0 -0.36155248506E+01  0.93216931418E+01 -0.66617237961E+01  0.12014347555E+02  0.51100000000E-03 0.  1.
         12    1    3    3    0    0 -0.83847509465E+00  0.18014611865E+02 -0.16604206319E+02  0.24513852178E+02  0.00000000000E+00 0. -1.
</event>
<event>
 7    1  0.4356471E-010  0.4778726E+02  0.7816164E-02  0.1312668E+00
        -11   -1    0    0    0    0  0.00000000000E+00  0.00000000000E+00  0.45593999997E+02  0.45594000000E+02  0.51100000000E-03 0. -1.
         11   -1    0    0    0    0 -0.00000000000E+00 -0.00000000000E+00 -0.45593999997E+02  0.45594000000E+02  0.51100000000E-03 0.  1.
    9900012    2    1    2    0    0 -0.38992425802E+02  0.19054502379E+02 -0.37584292739E+00  0.47787255896E+02  0.19999930931E+02 0.  0.
        -12    1    1    2    0    0  0.38992425802E+02 -0.19054502379E+02  0.37584292739E+00  0.43400744104E+02  0.00000000000E+00 0.  1.
         11    1    3    3    0    0 -0.18458107096E+02  0.15333407047E+02  0.66038296621E-02  0.23996148297E+02  0.51100000000E-03 0.  1.
        -11    1    3    3    0    0 -0.15358263516E+02  0.50587248153E+01 -0.47877008059E+01  0.16863838064E+02  0.51100000000E-03 0. -1.
        -12    1    3    3    0    0 -0.51760551900E+01 -0.13376294828E+01  0.44052540488E+01  0.69272695341E+01  0.00000000000E+00 0.  1.
</event>
<event>
 7    1  0.4356471E-010  0.4778728E+02  0.7816164E-02  0.1312668E+00
        -11   -1    0    0    0    0  0.00000000000E+00  0.00000000000E+00  0.45593999997E+02  0.45594000000E+02  0.51100000000E-03 0.  1.
         11   -1    0    0    0    0 -0.00000000000E+00 -0.00000000000E+00 -0.45593999997E+02  0.45594000000E+02  0.51100000000E-03 0. -1.
    9900012    2    1    2    0    0  0.23679388280E+02 -0.33485475898E+02 -0.14199730787E+02  0.47787275584E+02  0.20000020698E+02 0.  0.
        -12    1    1    2    0    0 -0.23679388280E+02  0.33485475898E+02  0.14199730787E+02  0.43400724416E+02  0.00000000000E+00 0.  1.
         11    1    3    3    0    0  0.16749812456E+02 -0.22031776205E+02 -0.60895571365E+01  0.28337926643E+02  0.51100000000E-03 0. -1.
        -11    1    3    3    0    0  0.96161067719E+01 -0.10590579164E+02 -0.84387546740E+01  0.16608505568E+02  0.51100000000E-03 0.  1.
         12    1    3    3    0    0 -0.26865309480E+01 -0.86312052837E+00  0.32858102372E+00  0.28408433731E+01  0.00000000000E+00 0. -1.
</event>
<event>
 7    1  0.4356471E-010  0.4778727E+02  0.7816164E-02  0.1312668E+00
        -11   -1    0    0    0    0  0.00000000000E+00  0.00000000000E+00  0.45593999997E+02  0.45594000000E+02  0.51100000000E-03 0.  1.
         11   -1    0    0    0    0 -0.00000000000E+00 -0.00000000000E+00 -0.45593999997E+02  0.45594000000E+02  0.51100000000E-03 0. -1.
    9900012    2    1    2    0    0 -0.80831292280E+01 -0.29007192799E+02 -0.31254906483E+02  0.47787269689E+02  0.19999993822E+02 0.  0.
        -12    1    1    2    0    0  0.80831292280E+01  0.29007192799E+02  0.31254906483E+02  0.43400730311E+02  0.00000000000E+00 0.  1.
         11    1    3    3    0    0  0.44439514343E+01 -0.55271338988E+01 -0.32691901129E+01  0.78093224893E+01  0.51100000000E-03 0. -1.
        -11    1    3    3    0    0 -0.15646625974E+01 -0.40495118048E+01 -0.20235195893E+00  0.43459937273E+01  0.51100000000E-03 0.  1.
         12    1    3    3    0    0 -0.10962418065E+02 -0.19430547096E+02 -0.27783364412E+02  0.35631953473E+02  0.00000000000E+00 0. -1.
</event>
<event>
 7    1  0.4356471E-010  0.4778727E+02  0.7816164E-02  0.1312668E+00
        -11   -1    0    0    0    0  0.00000000000E+00  0.00000000000E+00  0.45593999997E+02  0.45594000000E+02  0.51100000000E-03 0.  1.
         11   -1    0    0    0    0 -0.00000000000E+00 -0.00000000000E+00 -0.45593999997E+02  0.45594000000E+02  0.51100000000E-03 0. -1.
    9900012    2    1    2    0    0  0.19634137264E+02 -0.36451179227E+02  0.13016749608E+02  0.47787267477E+02  0.19999983736E+02 0.  0.
        -12    1    1    2    0    0 -0.19634137264E+02  0.36451179227E+02 -0.13016749608E+02  0.43400732523E+02  0.00000000000E+00 0.  1.
         11    1    3    3    0    0 -0.18410082810E+01 -0.51862534340E+01  0.18187705124E+00  0.55063250626E+01  0.51100000000E-03 0. -1.
        -11    1    3    3    0    0 -0.18160919397E+01 -0.42096455340E+01  0.15722045193E+01  0.48467651859E+01  0.51100000000E-03 0.  1.
         12    1    3    3    0    0  0.23291237485E+02 -0.27055280259E+02  0.11262668037E+02  0.37434177229E+02  0.00000000000E+00 0. -1.
</event>
<event>
 7    1  0.4356471E-010  0.4778727E+02  0.7816164E-02  0.1312668E+00
        -11   -1    0    0    0    0  0.00000000000E+00  0.00000000000E+00  0.45593999997E+02  0.45594000000E+02  0.51100000000E-03 0.  1.
         11   -1    0    0    0    0 -0.00000000000E+00 -0.00000000000E+00 -0.45593999997E+02  0.45594000000E+02  0.51100000000E-03 0. -1.
    9900012    2    1    2    0    0 -0.29639390944E+02 -0.15624265884E+02 -0.27586455064E+02  0.47787266332E+02  0.19999978512E+02 0.  0.
        -12    1    1    2    0    0  0.29639390944E+02  0.15624265884E+02  0.27586455064E+02  0.43400733668E+02  0.00000000000E+00 0.  1.
         11    1    3    3    0    0 -0.11751066103E+02 -0.11961831486E+02 -0.15210125833E+02  0.22638924338E+02  0.51100000000E-03 0. -1.
        -11    1    3    3    0    0  0.80787310868E+00 -0.28779703010E+01 -0.63126985586E+00  0.30551389338E+01  0.51100000000E-03 0.  1.
        -12    1    3    3    0    0 -0.18696197950E+02 -0.78446409659E+00 -0.11745059375E+02  0.22093203060E+02  0.00000000000E+00 0.  1.
</event>
<event>
 7    1  0.4356471E-010  0.4778727E+02  0.7816164E-02  0.1312668E+00
        -11   -1    0    0    0    0  0.00000000000E+00  0.00000000000E+00  0.45593999997E+02  0.45594000000E+02  0.51100000000E-03 0.  1.
         11   -1    0    0    0    0 -0.00000000000E+00 -0.00000000000E+00 -0.45593999997E+02  0.45594000000E+02  0.51100000000E-03 0. -1.
    9900012    2    1    2    0    0 -0.22608588000E+02  0.13561799323E+02 -0.34475389057E+02  0.47787273014E+02  0.20000008982E+02 0.  0.
        -12    1    1    2    0    0  0.22608588000E+02 -0.13561799323E+02  0.34475389057E+02  0.43400726986E+02  0.00000000000E+00 0.  1.
         11    1    3    3    0    0 -0.97510301451E+01  0.24278437827E+01 -0.65649504383E+01  0.12003149122E+02  0.51100000000E-03 0. -1.
        -11    1    3    3    0    0 -0.70415206666E+01 -0.24085675134E+01 -0.71199696054E+01  0.10299426111E+02  0.51100000000E-03 0.  1.
        -12    1    3    3    0    0 -0.58160371881E+01  0.13542523053E+02 -0.20790469014E+02  0.25484697782E+02  0.00000000000E+00 0.  1.
</event>
<event>
 7    1  0.4356471E-010  0.4778727E+02  0.7816164E-02  0.1312668E+00
        -11   -1    0    0    0    0  0.00000000000E+00  0.00000000000E+00  0.45593999997E+02  0.45594000000E+02  0.51100000000E-03 0. -1.
         11   -1    0    0    0    0 -0.00000000000E+00 -0.00000000000E+00 -0.45593999997E+02  0.45594000000E+02  0.51100000000E-03 0.  1.
    9900012    2    1    2    0    0  0.16330692922E+02 -0.34007411043E+02  0.21457588821E+02  0.47787266652E+02  0.19999979973E+02 0.  0.
        -12    1    1    2    0    0 -0.16330692922E+02  0.34007411043E+02 -0.21457588821E+02  0.43400733348E+02  0.00000000000E+00 0.  1.
         11    1    3    3    0    0  0.11052868035E+02 -0.16524029696E+02  0.17652211988E+02  0.26585899224E+02  0.51100000000E-03 0. -1.
        -11    1    3    3    0    0  0.81956534117E+01 -0.14143866619E+02  0.37257614989E+01  0.16766007181E+02  0.51100000000E-03 0.  1.
        -12    1    3    3    0    0 -0.29178285256E+01 -0.33395147271E+01  0.79615334262E-01  0.44353602468E+01  0.00000000000E+00 0.  1.
</event>
<event>
 7    1  0.4356471E-010  0.4778727E+02  0.7816164E-02  0.1312668E+00
        -11   -1    0    0    0    0  0.00000000000E+00  0.00000000000E+00  0.45593999997E+02  0.45594000000E+02  0.51100000000E-03 0.  1.
         11   -1    0    0    0    0 -0.00000000000E+00 -0.00000000000E+00 -0.45593999997E+02  0.45594000000E+02  0.51100000000E-03 0. -1.
    9900012    2    1    2    0    0 -0.21752072003E+02 -0.32948063673E+02 -0.18024870281E+02  0.47787268613E+02  0.19999988916E+02 0.  0.
        -12    1    1    2    0    0  0.21752072003E+02  0.32948063673E+02  0.18024870281E+02  0.43400731387E+02  0.00000000000E+00 0.  1.
         11    1    3    3    0    0 -0.28275425311E+01 -0.13605689124E+02  0.10277767051E+01  0.13934349591E+02  0.51100000000E-03 0. -1.
        -11    1    3    3    0    0 -0.25523147435E+01  0.63855859934E-01 -0.22811917168E+01  0.34237733614E+01  0.51100000000E-03 0.  1.
         12    1    3    3    0    0 -0.16372214728E+02 -0.19406230409E+02 -0.16771455270E+02  0.30429145661E+02  0.00000000000E+00 0. -1.
</event>
<event>
 7    1  0.4356471E-010  0.4778729E+02  0.7816164E-02  0.1312668E+00
        -11   -1    0    0    0    0  0.00000000000E+00  0.00000000000E+00  0.45593999997E+02  0.45594000000E+02  0.51100000000E-03 0.  1.
         11   -1    0    0    0    0 -0.00000000000E+00 -0.00000000000E+00 -0.45593999997E+02  0.45594000000E+02  0.51100000000E-03 0. -1.
    9900012    2    1    2    0    0  0.42791543792E+02  0.72084733048E+01 -0.73709898827E+00  0.47787290070E+02  0.20000086746E+02 0.  0.
        -12    1    1    2    0    0 -0.42791543792E+02 -0.72084733048E+01  0.73709898827E+00  0.43400709930E+02  0.00000000000E+00 0.  1.
         11    1    3    3    0    0  0.16752315759E+02  0.45048227302E+01  0.40389535352E+01  0.17811419288E+02  0.51100000000E-03 0. -1.
        -11    1    3    3    0    0  0.46834610930E+01 -0.43332146129E+01  0.16498945293E+01  0.65904255485E+01  0.51100000000E-03 0.  1.
        -12    1    3    3    0    0  0.21355766940E+02  0.70368651875E+01 -0.64259470527E+01  0.23385445234E+02  0.00000000000E+00 0.  1.
</event>
<event>
 7    1  0.4356471E-010  0.4778727E+02  0.7816164E-02  0.1312668E+00
        -11   -1    0    0    0    0  0.00000000000E+00  0.00000000000E+00  0.45593999997E+02  0.45594000000E+02  0.51100000000E-03 0. -1.
         11   -1    0    0    0    0 -0.00000000000E+00 -0.00000000000E+00 -0.45593999997E+02  0.45594000000E+02  0.51100000000E-03 0.  1.
    9900012    2    1    2    0    0  0.39409545632E+02  0.17837197964E+02  0.35136140470E+01  0.47787269571E+02  0.19999993281E+02 0.  0.
        -12    1    1    2    0    0 -0.39409545632E+02 -0.17837197964E+02 -0.35136140470E+01  0.43400730429E+02  0.00000000000E+00 0.  1.
         11    1    3    3    0    0  0.89370751536E+01  0.57989909076E+01 -0.59577648695E+01  0.12206333207E+02  0.51100000000E-03 0. -1.
        -11    1    3    3    0    0  0.37165875669E+01  0.46502003033E+01  0.43065162287E+01  0.73473443020E+01  0.51100000000E-03 0.  1.
         12    1    3    3    0    0  0.26755882911E+02  0.73880067529E+01  0.51648626878E+01  0.28233592062E+02  0.00000000000E+00 0. -1.
</event>
<event>
 7    1  0.4356471E-010  0.4778727E+02  0.7816164E-02  0.1312668E+00
        -11   -1    0    0    0    0  0.00000000000E+00  0.00000000000E+00  0.45593999997E+02  0.45594000000E+02  0.51100000000E-03 0.  1.
         11   -1    0    0    0    0 -0.00000000000E+00 -0.00000000000E+00 -0.45593999997E+02  0.45594000000E+02  0.51100000000E-03 0. -1.
    9900012    2    1    2    0    0  0.27353843657E+01 -0.67004531836E+00 -0.43309259331E+02  0.47787271525E+02  0.20000002190E+02 0.  0.
        -12    1    1    2    0    0 -0.27353843657E+01  0.67004531836E+00  0.43309259331E+02  0.43400728475E+02  0.00000000000E+00 0.  1.
         11    1    3    3    0    0  0.61449671246E+01  0.24030356863E+01 -0.13012064358E+02  0.14589346133E+02  0.51100000000E-03 0. -1.
        -11    1    3    3    0    0  0.22490614809E+01 -0.28781063940E+01 -0.25548187635E+02  0.25807976784E+02  0.51100000000E-03 0.  1.
        -12    1    3    3    0    0 -0.56586442398E+01 -0.19497461060E+00 -0.47490073384E+01  0.73899486082E+01  0.00000000000E+00 0.  1.
</event>
<event>
 7    1  0.4356471E-010  0.4778727E+02  0.7816164E-02  0.1312668E+00
        -11   -1    0    0    0    0  0.00000000000E+00  0.00000000000E+00  0.45593999997E+02  0.45594000000E+02  0.51100000000E-03 0.  1.
         11   -1    0    0    0    0 -0.00000000000E+00 -0.00000000000E+00 -0.45593999997E+02  0.45594000000E+02  0.51100000000E-03 0. -1.
    9900012    2    1    2    0    0  0.35367690377E+02  0.24650614203E+02 -0.50096904891E+01  0.47787270720E+02  0.19999998523E+02 0.  0.
        -12    1    1    2    0    0 -0.35367690377E+02 -0.24650614203E+02  0.50096904891E+01  0.43400729280E+02  0.00000000000E+00 0.  1.
         11    1    3    3    0    0  0.23559575070E+01  0.52893879713E+01  0.31494129203E+00  0.57989093081E+01  0.51100000000E-03 0. -1.
        -11    1    3    3    0    0  0.57939555902E+00  0.68662777139E+01 -0.70391059162E+00  0.69265402071E+01  0.51100000000E-03 0.  1.
         12    1    3    3    0    0  0.32432337311E+02  0.12494948518E+02 -0.46207211895E+01  0.35061821205E+02  0.00000000000E+00 0. -1.
</event>
<event>
 7    1  0.4356471E-010  0.4778727E+02  0.7816164E-02  0.1312668E+00
        -11   -1    0    0    0    0  0.00000000000E+00  0.00000000000E+00  0.45593999997E+02  0.45594000000E+02  0.51100000000E-03 0.  1.
         11   -1    0    0    0    0 -0.00000000000E+00 -0.00000000000E+00 -0.45593999997E+02  0.45594000000E+02  0.51100000000E-03 0. -1.
    9900012    2    1    2    0    0 -0.32499072357E+02 -0.13067331764E+01 -0.28735454587E+02  0.47787267218E+02  0.19999982555E+02 0.  0.
        -12    1    1    2    0    0  0.32499072357E+02  0.13067331764E+01  0.28735454587E+02  0.43400732782E+02  0.00000000000E+00 0.  1.
         11    1    3    3    0    0 -0.10115433735E+02  0.68069778950E+00 -0.13708550890E+02  0.17050211638E+02  0.51100000000E-03 0. -1.
        -11    1    3    3    0    0 -0.39648663509E+01  0.55935530791E+01 -0.31325938452E+01  0.75379802128E+01  0.51100000000E-03 0.  1.
        -12    1    3    3    0    0 -0.18418772271E+02 -0.75809840450E+01 -0.11894309852E+02  0.23199075368E+02  0.00000000000E+00 0.  1.
</event>
<event>
 7    1  0.4356471E-010  0.4778727E+02  0.7816164E-02  0.1312668E+00
        -11   -1    0    0    0    0  0.00000000000E+00  0.00000000000E+00  0.45593999997E+02  0.45594000000E+02  0.51100000000E-03 0.  1.
         11   -1    0    0    0    0 -0.00000000000E+00 -0.00000000000E+00 -0.45593999997E+02  0.45594000000E+02  0.51100000000E-03 0. -1.
    9900012    2    1    2    0    0 -0.79396068398E+01  0.16936899343E+02 -0.39162830314E+02  0.47787271961E+02  0.20000004179E+02 0.  0.
        -12    1    1    2    0    0  0.79396068398E+01 -0.16936899343E+02  0.39162830314E+02  0.43400728039E+02  0.00000000000E+00 0.  1.
         11    1    3    3    0    0  0.51884603270E+01  0.83047172136E+01 -0.21707422024E+02  0.23813874522E+02  0.51100000000E-03 0. -1.
        -11    1    3    3    0    0  0.20547312179E+00  0.95321434875E+00 -0.16408079661E+01  0.19086874656E+01  0.51100000000E-03 0.  1.
         12    1    3    3    0    0 -0.13333540289E+02  0.76789677806E+01 -0.15814600324E+02  0.22064709973E+02  0.00000000000E+00 0. -1.
</event>
<event>
 7    1  0.4356471E-010  0.4778725E+02  0.7816164E-02  0.1312668E+00
        -11   -1    0    0    0    0  0.00000000000E+00  0.00000000000E+00  0.45593999997E+02  0.45594000000E+02  0.51100000000E-03 0.  1.
         11   -1    0    0    0    0 -0.00000000000E+00 -0.00000000000E+00 -0.45593999997E+02  0.45594000000E+02  0.51100000000E-03 0. -1.
    9900012    2    1    2    0    0 -0.39369728457E+02  0.13560860660E+02 -0.12237332330E+02  0.47787253887E+02  0.19999921773E+02 0.  0.
        -12    1    1    2    0    0  0.39369728457E+02 -0.13560860660E+02  0.12237332330E+02  0.43400746113E+02  0.00000000000E+00 0.  1.
         11    1    3    3    0    0 -0.28508044480E+01 -0.28448114083E+01  0.39330864385E+00  0.40465701402E+01  0.51100000000E-03 0. -1.
        -11    1    3    3    0    0 -0.43222377806E+01  0.26995713147E+01  0.24287028768E+01  0.56451769361E+01  0.51100000000E-03 0.  1.
         12    1    3    3    0    0 -0.32196686228E+02  0.13706100753E+02 -0.15059343851E+02  0.38095506811E+02  0.00000000000E+00 0. -1.
</event>
<event>
 7    1  0.4368181E-010  0.4778727E+02  0.7816164E-02  0.1312668E+00
        -11   -1    0    0    0    0  0.00000000000E+00  0.00000000000E+00  0.45593999997E+02  0.45594000000E+02  0.51100000000E-03 0.  1.
         11   -1    0    0    0    0 -0.00000000000E+00 -0.00000000000E+00 -0.45593999997E+02  0.45594000000E+02  0.51100000000E-03 0. -1.
    9900012    2    1    2    0    0 -0.11544609881E+02 -0.39030992817E+02 -0.15064093902E+02  0.47787270252E+02  0.19999996385E+02 0.  0.
        -12    1    1    2    0    0  0.11544609881E+02  0.39030992817E+02  0.15064093902E+02  0.43400729748E+02  0.00000000000E+00 0.  1.
         11    1    3    3    0    0 -0.16494336840E+01 -0.12341878810E+02  0.58785535729E+00  0.12465479462E+02  0.51100000000E-03 0. -1.
        -11    1    3    3    0    0  0.23435673573E+01 -0.13454745822E+00 -0.54218395195E+00  0.24092269872E+01  0.51100000000E-03 0.  1.
         12    1    3    3    0    0 -0.12238743554E+02 -0.26554566549E+02 -0.15109765308E+02  0.32912563802E+02  0.00000000000E+00 0. -1.
</event>
<event>
 7    1  0.4356471E-010  0.4778727E+02  0.7816164E-02  0.1312668E+00
        -11   -1    0    0    0    0  0.00000000000E+00  0.00000000000E+00  0.45593999997E+02  0.45594000000E+02  0.51100000000E-03 0. -1.
         11   -1    0    0    0    0 -0.00000000000E+00 -0.00000000000E+00 -0.45593999997E+02  0.45594000000E+02  0.51100000000E-03 0.  1.
    9900012    2    1    2    0    0  0.96765505299E+01 -0.72140452763E+01  0.41688668209E+02  0.47787272627E+02  0.20000007217E+02 0.  0.
        -12    1    1    2    0    0 -0.96765505299E+01  0.72140452763E+01 -0.41688668209E+02  0.43400727373E+02  0.00000000000E+00 0.  1.
         11    1    3    3    0    0 -0.32933269980E+01 -0.30191750460E-01  0.13402272001E+02  0.13801007547E+02  0.51100000000E-03 0. -1.
        -11    1    3    3    0    0 -0.96408659286E+00 -0.77991879945E+00 -0.52601958112E+00  0.13470089655E+01  0.51100000000E-03 0.  1.
        -12    1    3    3    0    0  0.13933964121E+02 -0.64039347264E+01  0.28812415789E+02  0.32639256114E+02  0.00000000000E+00 0.  1.
</event>
<event>
 7    1  0.4356471E-010  0.4778727E+02  0.7816164E-02  0.1312668E+00
        -11   -1    0    0    0    0  0.00000000000E+00  0.00000000000E+00  0.45593999997E+02  0.45594000000E+02  0.51100000000E-03 0. -1.
         11   -1    0    0    0    0 -0.00000000000E+00 -0.00000000000E+00 -0.45593999997E+02  0.45594000000E+02  0.51100000000E-03 0.  1.
    9900012    2    1    2    0    0 -0.39378585535E+02 -0.10068367672E+02  0.15217689906E+02  0.47787272905E+02  0.20000008485E+02 0.  0.
        -12    1    1    2    0    0  0.39378585535E+02  0.10068367672E+02 -0.15217689906E+02  0.43400727095E+02  0.00000000000E+00 0.  1.
         11    1    3    3    0    0 -0.39419785687E+02 -0.74928678928E+01  0.10584874973E+02  0.41498218652E+02  0.51100000000E-03 0. -1.
        -11    1    3    3    0    0 -0.17521203935E+00  0.77824633670E+00  0.42500276801E+00  0.90387733308E+00  0.51100000000E-03 0.  1.
         12    1    3    3    0    0  0.21641219152E+00 -0.33537461157E+01  0.42078121649E+01  0.53851769201E+01  0.00000000000E+00 0. -1.
</event>
<event>
 7    1  0.4356471E-010  0.4778727E+02  0.7816164E-02  0.1312668E+00
        -11   -1    0    0    0    0  0.00000000000E+00  0.00000000000E+00  0.45593999997E+02  0.45594000000E+02  0.51100000000E-03 0. -1.
         11   -1    0    0    0    0 -0.00000000000E+00 -0.00000000000E+00 -0.45593999997E+02  0.45594000000E+02  0.51100000000E-03 0.  1.
    9900012    2    1    2    0    0  0.32396285202E+02 -0.15506291001E+02  0.24365116126E+02  0.47787271442E+02  0.20000001813E+02 0.  0.
        -12    1    1    2    0    0 -0.32396285202E+02  0.15506291001E+02 -0.24365116126E+02  0.43400728558E+02  0.00000000000E+00 0.  1.
         11    1    3    3    0    0  0.14130894984E+02 -0.10423180945E+02  0.15953944599E+02  0.23724528291E+02  0.51100000000E-03 0. -1.
        -11    1    3    3    0    0  0.13790815727E+01 -0.19798492332E+01  0.63222825083E+01  0.67670470182E+01  0.51100000000E-03 0.  1.
        -12    1    3    3    0    0  0.16886308646E+02 -0.31032608221E+01  0.20888890185E+01  0.17295696133E+02  0.00000000000E+00 0.  1.
</event>
<event>
 7    1  0.4356471E-010  0.4778729E+02  0.7816164E-02  0.1312668E+00
        -11   -1    0    0    0    0  0.00000000000E+00  0.00000000000E+00  0.45593999997E+02  0.45594000000E+02  0.51100000000E-03 0.  1.
         11   -1    0    0    0    0 -0.00000000000E+00 -0.00000000000E+00 -0.45593999997E+02  0.45594000000E+02  0.51100000000E-03 0. -1.
    9900012    2    1    2    0    0  0.21181330825E+02 -0.12511723551E+02 -0.35755138379E+02  0.47787286616E+02  0.20000070997E+02 0.  0.
        -12    1    1    2    0    0 -0.21181330825E+02  0.12511723551E+02  0.35755138379E+02  0.43400713384E+02  0.00000000000E+00 0.  1.
         11    1    3    3    0    0 -0.28770134741E+00  0.17052516438E+01 -0.57135613657E+00  0.18212916652E+01  0.51100000000E-03 0. -1.
        -11    1    3    3    0    0  0.88020966761E+01 -0.89286281889E+00 -0.38750174137E+01  0.96586681341E+01  0.51100000000E-03 0.  1.
        -12    1    3    3    0    0  0.12666935496E+02 -0.13324112376E+02 -0.31308764829E+02  0.36307326817E+02  0.00000000000E+00 0.  1.
</event>
<event>
 7    1  0.4356471E-010  0.4778728E+02  0.7816164E-02  0.1312668E+00
        -11   -1    0    0    0    0  0.00000000000E+00  0.00000000000E+00  0.45593999997E+02  0.45594000000E+02  0.51100000000E-03 0.  1.
         11   -1    0    0    0    0 -0.00000000000E+00 -0.00000000000E+00 -0.45593999997E+02  0.45594000000E+02  0.51100000000E-03 0. -1.
    9900012    2    1    2    0    0  0.11512810195E+02 -0.41817934208E+02 -0.15292136480E+01  0.47787275186E+02  0.20000018882E+02 0.  0.
        -12    1    1    2    0    0 -0.11512810195E+02  0.41817934208E+02  0.15292136480E+01  0.43400724814E+02  0.00000000000E+00 0.  1.
         11    1    3    3    0    0  0.29549308575E+01 -0.14108095537E+00 -0.42350645651E+00  0.29884574932E+01  0.51100000000E-03 0. -1.
        -11    1    3    3    0    0  0.67851913911E+01 -0.22806374634E+02  0.60300349691E+01  0.24546504194E+02  0.51100000000E-03 0.  1.
        -12    1    3    3    0    0  0.17726879469E+01 -0.18870478619E+02 -0.71357421606E+01  0.20252313499E+02  0.00000000000E+00 0.  1.
</event>
<event>
 7    1  0.4356471E-010  0.4778728E+02  0.7816164E-02  0.1312668E+00
        -11   -1    0    0    0    0  0.00000000000E+00  0.00000000000E+00  0.45593999997E+02  0.45594000000E+02  0.51100000000E-03 0.  1.
         11   -1    0    0    0    0 -0.00000000000E+00 -0.00000000000E+00 -0.45593999997E+02  0.45594000000E+02  0.51100000000E-03 0. -1.
    9900012    2    1    2    0    0  0.42462139353E+02 -0.85234199327E+01 -0.28179664851E+01  0.47787275341E+02  0.20000019590E+02 0.  0.
        -12    1    1    2    0    0 -0.42462139353E+02  0.85234199327E+01  0.28179664851E+01  0.43400724659E+02  0.00000000000E+00 0.  1.
         11    1    3    3    0    0  0.12468396169E+02 -0.20264759771E+00 -0.41931550884E+01  0.13156158973E+02  0.51100000000E-03 0. -1.
        -11    1    3    3    0    0  0.31428741220E+02 -0.66246734409E+01  0.20481944132E+00  0.32119994149E+02  0.51100000000E-03 0.  1.
         12    1    3    3    0    0 -0.14349980357E+01 -0.16960988941E+01  0.11703691619E+01  0.25111222185E+01  0.00000000000E+00 0. -1.
</event>
<event>
 7    1  0.4356471E-010  0.4778727E+02  0.7816164E-02  0.1312668E+00
        -11   -1    0    0    0    0  0.00000000000E+00  0.00000000000E+00  0.45593999997E+02  0.45594000000E+02  0.51100000000E-03 0. -1.
         11   -1    0    0    0    0 -0.00000000000E+00 -0.00000000000E+00 -0.45593999997E+02  0.45594000000E+02  0.51100000000E-03 0.  1.
    9900012    2    1    2    0    0  0.21105396170E+02 -0.20363551924E+01  0.37868704962E+02  0.47787270680E+02  0.19999998341E+02 0.  0.
        -12    1    1    2    0    0 -0.21105396170E+02  0.20363551924E+01 -0.37868704962E+02  0.43400729320E+02  0.00000000000E+00 0.  1.
         11    1    3    3    0    0  0.57901704113E+01 -0.13484892205E+01  0.19911390339E+02  0.20779989463E+02  0.51100000000E-03 0. -1.
        -11    1    3    3    0    0  0.85374770256E+00  0.11623625552E+01  0.10561142220E+02  0.10659160244E+02  0.51100000000E-03 0.  1.
        -12    1    3    3    0    0  0.14461478056E+02 -0.18502285271E+01  0.73961724029E+01  0.16348120974E+02  0.00000000000E+00 0.  1.
</event>
<event>
 7    1  0.4356471E-010  0.4778727E+02  0.7816164E-02  0.1312668E+00
        -11   -1    0    0    0    0  0.00000000000E+00  0.00000000000E+00  0.45593999997E+02  0.45594000000E+02  0.51100000000E-03 0. -1.
         11   -1    0    0    0    0 -0.00000000000E+00 -0.00000000000E+00 -0.45593999997E+02  0.45594000000E+02  0.51100000000E-03 0.  1.
    9900012    2    1    2    0    0  0.15296507601E+02  0.40449299313E+02  0.36734701019E+01  0.47787270256E+02  0.19999996407E+02 0.  0.
        -12    1    1    2    0    0 -0.15296507601E+02 -0.40449299313E+02 -0.36734701019E+01  0.43400729744E+02  0.00000000000E+00 0.  1.
         11    1    3    3    0    0  0.41846018736E+01  0.28249625238E+01  0.65269301125E+01  0.82517951414E+01  0.51100000000E-03 0. -1.
        -11    1    3    3    0    0  0.85103291341E+00  0.78596999711E+01 -0.13151399572E+01  0.80142831260E+01  0.51100000000E-03 0.  1.
         12    1    3    3    0    0  0.10260872814E+02  0.29764636818E+02 -0.15383200533E+01  0.31521191989E+02  0.00000000000E+00 0. -1.
</event>
<event>
 7    1  0.4356471E-010  0.4778727E+02  0.7816164E-02  0.1312668E+00
        -11   -1    0    0    0    0  0.00000000000E+00  0.00000000000E+00  0.45593999997E+02  0.45594000000E+02  0.51100000000E-03 0.  1.
         11   -1    0    0    0    0 -0.00000000000E+00 -0.00000000000E+00 -0.45593999997E+02  0.45594000000E+02  0.51100000000E-03 0. -1.
    9900012    2    1    2    0    0  0.11097956572E+02  0.41957133485E+02  0.24029121986E+00  0.47787269243E+02  0.19999991788E+02 0.  0.
        -12    1    1    2    0    0 -0.11097956572E+02 -0.41957133485E+02 -0.24029121986E+00  0.43400730757E+02  0.00000000000E+00 0.  1.
         11    1    3    3    0    0  0.81329494282E+01  0.13839679140E+02  0.18808665184E+01  0.16162278435E+02  0.51100000000E-03 0. -1.
        -11    1    3    3    0    0  0.33686060071E+01  0.22716105507E+02  0.45377991248E+01  0.23408557773E+02  0.51100000000E-03 0.  1.
        -12    1    3    3    0    0 -0.40359886335E+00  0.54013488380E+01 -0.61783744233E+01  0.82164330355E+01  0.00000000000E+00 0.  1.
</event>
<event>
 7    1  0.4356471E-010  0.4778727E+02  0.7816164E-02  0.1312668E+00
        -11   -1    0    0    0    0  0.00000000000E+00  0.00000000000E+00  0.45593999997E+02  0.45594000000E+02  0.51100000000E-03 0. -1.
         11   -1    0    0    0    0 -0.00000000000E+00 -0.00000000000E+00 -0.45593999997E+02  0.45594000000E+02  0.51100000000E-03 0.  1.
    9900012    2    1    2    0    0  0.70504500963E+01  0.39593904134E+02 -0.16316774936E+02  0.47787271487E+02  0.20000002019E+02 0.  0.
        -12    1    1    2    0    0 -0.70504500963E+01 -0.39593904134E+02  0.16316774936E+02  0.43400728513E+02  0.00000000000E+00 0.  1.
         11    1    3    3    0    0  0.52745322717E+01  0.63794349637E+01  0.20232120340E+00  0.82800250767E+01  0.51100000000E-03 0. -1.
        -11    1    3    3    0    0  0.72757237725E+01  0.18991365008E+02 -0.11948545263E+02  0.23587620385E+02  0.51100000000E-03 0.  1.
         12    1    3    3    0    0 -0.54998059478E+01  0.14223104162E+02 -0.45705508767E+01  0.15919626025E+02  0.00000000000E+00 0. -1.
</event>
<event>
 7    1  0.4356471E-010  0.4778727E+02  0.7816164E-02  0.1312668E+00
        -11   -1    0    0    0    0  0.00000000000E+00  0.00000000000E+00  0.45593999997E+02  0.45594000000E+02  0.51100000000E-03 0. -1.
         11   -1    0    0    0    0 -0.00000000000E+00 -0.00000000000E+00 -0.45593999997E+02  0.45594000000E+02  0.51100000000E-03 0.  1.
    9900012    2    1    2    0    0 -0.15052849114E+02 -0.39874734624E+02  0.81878301255E+01  0.47787270859E+02  0.19999999156E+02 0.  0.
        -12    1    1    2    0    0  0.15052849114E+02  0.39874734624E+02 -0.81878301255E+01  0.43400729141E+02  0.00000000000E+00 0.  1.
         11    1    3    3    0    0 -0.10563039859E+02 -0.17406462461E+02  0.34031334651E+01  0.20643257110E+02  0.51100000000E-03 0. -1.
        -11    1    3    3    0    0  0.18548314479E+01 -0.18029561187E+02  0.64235054381E+01  0.19229323926E+02  0.51100000000E-03 0.  1.
        -12    1    3    3    0    0 -0.63446407034E+01 -0.44387109764E+01 -0.16388087777E+01  0.79146898232E+01  0.00000000000E+00 0.  1.
</event>
<event>
 7    1  0.4356471E-010  0.4778727E+02  0.7816164E-02  0.1312668E+00
        -11   -1    0    0    0    0  0.00000000000E+00  0.00000000000E+00  0.45593999997E+02  0.45594000000E+02  0.51100000000E-03 0.  1.
         11   -1    0    0    0    0 -0.00000000000E+00 -0.00000000000E+00 -0.45593999997E+02  0.45594000000E+02  0.51100000000E-03 0. -1.
    9900012    2    1    2    0    0 -0.26661854535E+02 -0.13383514534E+02 -0.31522226245E+02  0.47787266182E+02  0.19999977829E+02 0.  0.
        -12    1    1    2    0    0  0.26661854535E+02  0.13383514534E+02  0.31522226245E+02  0.43400733818E+02  0.00000000000E+00 0.  1.
         11    1    3    3    0    0 -0.17386366425E+02 -0.94928493641E+01 -0.16113619886E+02  0.25535243735E+02  0.51100000000E-03 0. -1.
        -11    1    3    3    0    0 -0.10497011750E+02  0.65224451101E-01 -0.62898556269E+01  0.12237393267E+02  0.51100000000E-03 0.  1.
        -12    1    3    3    0    0  0.12215236398E+01 -0.39558896208E+01 -0.91187507323E+01  0.10014629180E+02  0.00000000000E+00 0.  1.
</event>
<event>
 7    1  0.4356471E-010  0.4778727E+02  0.7816164E-02  0.1312668E+00
        -11   -1    0    0    0    0  0.00000000000E+00  0.00000000000E+00  0.45593999997E+02  0.45594000000E+02  0.51100000000E-03 0.  1.
         11   -1    0    0    0    0 -0.00000000000E+00 -0.00000000000E+00 -0.45593999997E+02  0.45594000000E+02  0.51100000000E-03 0. -1.
    9900012    2    1    2    0    0  0.82886114498E+01 -0.23488127758E+02 -0.35541949440E+02  0.47787269646E+02  0.19999993623E+02 0.  0.
        -12    1    1    2    0    0 -0.82886114498E+01  0.23488127758E+02  0.35541949440E+02  0.43400730354E+02  0.00000000000E+00 0.  1.
         11    1    3    3    0    0  0.30464118506E+01 -0.79267327471E+01 -0.66393776277E+01  0.10779380908E+02  0.51100000000E-03 0. -1.
        -11    1    3    3    0    0 -0.48057180207E+01 -0.13673912503E+01 -0.30609290420E+01  0.58595197233E+01  0.51100000000E-03 0.  1.
         12    1    3    3    0    0  0.10047917620E+02 -0.14194003760E+02 -0.25841642770E+02  0.31148369015E+02  0.00000000000E+00 0. -1.
</event>
<event>
 7    1  0.4356471E-010  0.4778727E+02  0.7816164E-02  0.1312668E+00
        -11   -1    0    0    0    0  0.00000000000E+00  0.00000000000E+00  0.45593999997E+02  0.45594000000E+02  0.51100000000E-03 0.  1.
         11   -1    0    0    0    0 -0.00000000000E+00 -0.00000000000E+00 -0.45593999997E+02  0.45594000000E+02  0.51100000000E-03 0. -1.
    9900012    2    1    2    0    0  0.32631351608E+01  0.24504256648E+02 -0.35672346840E+02  0.47787274499E+02  0.20000015752E+02 0.  0.
        -12    1    1    2    0    0 -0.32631351608E+01 -0.24504256648E+02  0.35672346840E+02  0.43400725501E+02  0.00000000000E+00 0.  1.
         11    1    3    3    0    0  0.44608121931E+01  0.21467848085E+00 -0.29990680343E+01  0.53795298686E+01  0.51100000000E-03 0. -1.
        -11    1    3    3    0    0 -0.38308739415E+01  0.38111042034E+01 -0.27791809806E+01  0.60765086677E+01  0.51100000000E-03 0.  1.
         12    1    3    3    0    0  0.26331969092E+01  0.20478473963E+02 -0.29894097825E+02  0.36331235963E+02  0.00000000000E+00 0. -1.
</event>
<event>
 7    1  0.4356471E-010  0.4778727E+02  0.7816164E-02  0.1312668E+00
        -11   -1    0    0    0    0  0.00000000000E+00  0.00000000000E+00  0.45593999997E+02  0.45594000000E+02  0.51100000000E-03 0.  1.
         11   -1    0    0    0    0 -0.00000000000E+00 -0.00000000000E+00 -0.45593999997E+02  0.45594000000E+02  0.51100000000E-03 0. -1.
    9900012    2    1    2    0    0 -0.16544907561E+02  0.14049261625E+02 -0.37583342008E+02  0.47787270571E+02  0.19999997843E+02 0.  0.
        -12    1    1    2    0    0  0.16544907561E+02 -0.14049261625E+02  0.37583342008E+02  0.43400729429E+02  0.00000000000E+00 0.  1.
         11    1    3    3    0    0 -0.60879239022E+01  0.32253261613E+01 -0.14586783984E+02  0.16131950085E+02  0.51100000000E-03 0. -1.
        -11    1    3    3    0    0 -0.99337212845E+01  0.93860917514E+01 -0.65810281529E+01  0.15168634373E+02  0.51100000000E-03 0.  1.
        -12    1    3    3    0    0 -0.52326237465E+00  0.14378437124E+01 -0.16415529871E+02  0.16486686113E+02  0.00000000000E+00 0.  1.
</event>
<event>
 7    1  0.4356471E-010  0.4778727E+02  0.7816164E-02  0.1312668E+00
        -11   -1    0    0    0    0  0.00000000000E+00  0.00000000000E+00  0.45593999997E+02  0.45594000000E+02  0.51100000000E-03 0.  1.
         11   -1    0    0    0    0 -0.00000000000E+00 -0.00000000000E+00 -0.45593999997E+02  0.45594000000E+02  0.51100000000E-03 0. -1.
    9900012    2    1    2    0    0  0.36624821831E+01 -0.17381115433E+02 -0.39599321235E+02  0.47787271991E+02  0.20000004316E+02 0.  0.
        -12    1    1    2    0    0 -0.36624821831E+01  0.17381115433E+02  0.39599321235E+02  0.43400728009E+02  0.00000000000E+00 0.  1.
         11    1    3    3    0    0 -0.28931606075E+00 -0.10125997700E+02 -0.10989690722E+02  0.14946331846E+02  0.51100000000E-03 0. -1.
        -11    1    3    3    0    0  0.69673401660E+01 -0.73903282478E+01 -0.10990173870E+02  0.14964782075E+02  0.51100000000E-03 0.  1.
        -12    1    3    3    0    0 -0.30155419221E+01  0.13521051503E+00 -0.17619456643E+02  0.17876158070E+02  0.00000000000E+00 0.  1.
</event>
<event>
 7    1  0.4356471E-010  0.4778726E+02  0.7816164E-02  0.1312668E+00
        -11   -1    0    0    0    0  0.00000000000E+00  0.00000000000E+00  0.45593999997E+02  0.45594000000E+02  0.51100000000E-03 0. -1.
         11   -1    0    0    0    0 -0.00000000000E+00 -0.00000000000E+00 -0.45593999997E+02  0.45594000000E+02  0.51100000000E-03 0.  1.
    9900012    2    1    2    0    0 -0.10635487712E+02 -0.59911563918E+01  0.41648724707E+02  0.47787264713E+02  0.19999971131E+02 0.  0.
        -12    1    1    2    0    0  0.10635487712E+02  0.59911563918E+01 -0.41648724707E+02  0.43400735287E+02  0.00000000000E+00 0.  1.
         11    1    3    3    0    0 -0.81202041424E+01  0.22784738488E+01  0.82300629719E+01  0.11784018634E+02  0.51100000000E-03 0. -1.
        -11    1    3    3    0    0  0.15436189221E+01  0.18916916661E+01  0.55391486190E+01  0.60533812387E+01  0.51100000000E-03 0.  1.
        -12    1    3    3    0    0 -0.40589024913E+01 -0.10161321907E+02  0.27879513116E+02  0.29949864840E+02  0.00000000000E+00 0.  1.
</event>
<event>
 7    1  0.4356471E-010  0.4778727E+02  0.7816164E-02  0.1312668E+00
        -11   -1    0    0    0    0  0.00000000000E+00  0.00000000000E+00  0.45593999997E+02  0.45594000000E+02  0.51100000000E-03 0.  1.
         11   -1    0    0    0    0 -0.00000000000E+00 -0.00000000000E+00 -0.45593999997E+02  0.45594000000E+02  0.51100000000E-03 0. -1.
    9900012    2    1    2    0    0 -0.36909269122E+02  0.19160006128E+02  0.12418667679E+02  0.47787270872E+02  0.19999999212E+02 0.  0.
        -12    1    1    2    0    0  0.36909269122E+02 -0.19160006128E+02 -0.12418667679E+02  0.43400729128E+02  0.00000000000E+00 0.  1.
         11    1    3    3    0    0 -0.16744670910E+02  0.22033457336E+01  0.91213785261E+01  0.19194746228E+02  0.51100000000E-03 0. -1.
        -11    1    3    3    0    0 -0.10034398156E+02  0.72382531303E+01  0.68081515615E+01  0.14122053062E+02  0.51100000000E-03 0.  1.
         12    1    3    3    0    0 -0.10130200056E+02  0.97184072640E+01 -0.35108624086E+01  0.14470471581E+02  0.00000000000E+00 0. -1.
</event>
<event>
 7    1  0.4356471E-010  0.4778727E+02  0.7816164E-02  0.1312668E+00
        -11   -1    0    0    0    0  0.00000000000E+00  0.00000000000E+00  0.45593999997E+02  0.45594000000E+02  0.51100000000E-03 0.  1.
         11   -1    0    0    0    0 -0.00000000000E+00 -0.00000000000E+00 -0.45593999997E+02  0.45594000000E+02  0.51100000000E-03 0. -1.
    9900012    2    1    2    0    0 -0.40697877710E+02 -0.10349084519E+02  0.10963691156E+02  0.47787270464E+02  0.19999997355E+02 0.  0.
        -12    1    1    2    0    0  0.40697877710E+02  0.10349084519E+02 -0.10963691156E+02  0.43400729536E+02  0.00000000000E+00 0.  1.
         11    1    3    3    0    0 -0.66117454775E+01  0.24009584461E+01 -0.99937800511E+00  0.71048248660E+01  0.51100000000E-03 0.  1.
        -11    1    3    3    0    0 -0.25807167706E+02 -0.28674730869E+01  0.72954885166E+01  0.26971400777E+02  0.51100000000E-03 0. -1.
        -12    1    3    3    0    0 -0.82789645264E+01 -0.98825698778E+01  0.46675806450E+01  0.13711044821E+02  0.00000000000E+00 0.  1.
</event>
<event>
 7    1  0.4356471E-010  0.4778727E+02  0.7816164E-02  0.1312668E+00
        -11   -1    0    0    0    0  0.00000000000E+00  0.00000000000E+00  0.45593999997E+02  0.45594000000E+02  0.51100000000E-03 0.  1.
         11   -1    0    0    0    0 -0.00000000000E+00 -0.00000000000E+00 -0.45593999997E+02  0.45594000000E+02  0.51100000000E-03 0. -1.
    9900012    2    1    2    0    0  0.19629863906E+02  0.93929400355E+01 -0.37550820089E+02  0.47787274558E+02  0.20000016022E+02 0.  0.
        -12    1    1    2    0    0 -0.19629863906E+02 -0.93929400355E+01  0.37550820089E+02  0.43400725442E+02  0.00000000000E+00 0.  1.
         11    1    3    3    0    0  0.76289529598E+00  0.57042248811E+01 -0.37622779075E+01  0.68756764061E+01  0.51100000000E-03 0. -1.
        -11    1    3    3    0    0  0.10936865442E+02  0.83483160261E+01 -0.18259156230E+02  0.22862768701E+02  0.51100000000E-03 0.  1.
        -12    1    3    3    0    0  0.79301031681E+01 -0.46596008717E+01 -0.15529385951E+02  0.18048829451E+02  0.00000000000E+00 0.  1.
</event>
<event>
 7    1  0.4356471E-010  0.4778727E+02  0.7816164E-02  0.1312668E+00
        -11   -1    0    0    0    0  0.00000000000E+00  0.00000000000E+00  0.45593999997E+02  0.45594000000E+02  0.51100000000E-03 0.  1.
         11   -1    0    0    0    0 -0.00000000000E+00 -0.00000000000E+00 -0.45593999997E+02  0.45594000000E+02  0.51100000000E-03 0. -1.
    9900012    2    1    2    0    0 -0.21200422711E+02 -0.37793455120E+02  0.24124833631E+01  0.47787271331E+02  0.20000001308E+02 0.  0.
        -12    1    1    2    0    0  0.21200422711E+02  0.37793455120E+02 -0.24124833631E+01  0.43400728669E+02  0.00000000000E+00 0.  1.
         11    1    3    3    0    0 -0.14971472723E+01 -0.15990246440E+02 -0.13102351767E+01  0.16113539265E+02  0.51100000000E-03 0. -1.
        -11    1    3    3    0    0 -0.98568417675E+01 -0.16172587481E+02 -0.18616167431E+01  0.19030909926E+02  0.51100000000E-03 0.  1.
        -12    1    3    3    0    0 -0.98464336710E+01 -0.56306211989E+01  0.55843352829E+01  0.12642822140E+02  0.00000000000E+00 0.  1.
</event>
<event>
 7    1  0.4356471E-010  0.4778727E+02  0.7816164E-02  0.1312668E+00
        -11   -1    0    0    0    0  0.00000000000E+00  0.00000000000E+00  0.45593999997E+02  0.45594000000E+02  0.51100000000E-03 0.  1.
         11   -1    0    0    0    0 -0.00000000000E+00 -0.00000000000E+00 -0.45593999997E+02  0.45594000000E+02  0.51100000000E-03 0. -1.
    9900012    2    1    2    0    0 -0.34854754186E+02  0.17512743261E-01 -0.25860569257E+02  0.47787271453E+02  0.20000001863E+02 0.  0.
        -12    1    1    2    0    0  0.34854754186E+02 -0.17512743261E-01  0.25860569257E+02  0.43400728547E+02  0.00000000000E+00 0.  1.
         11    1    3    3    0    0  0.22733382668E+01  0.10756376927E+01 -0.75949092455E+00  0.26271448469E+01  0.51100000000E-03 0.  1.
        -11    1    3    3    0    0 -0.79047123671E+01 -0.94267819872E+00 -0.80710749429E+01  0.11336462005E+02  0.51100000000E-03 0. -1.
        -12    1    3    3    0    0 -0.29223380086E+02 -0.11544675070E+00 -0.17030003390E+02  0.33823664601E+02  0.00000000000E+00 0.  1.
</event>
<event>
 7    1  0.4356471E-010  0.4778727E+02  0.7816164E-02  0.1312668E+00
        -11   -1    0    0    0    0  0.00000000000E+00  0.00000000000E+00  0.45593999997E+02  0.45594000000E+02  0.51100000000E-03 0.  1.
         11   -1    0    0    0    0 -0.00000000000E+00 -0.00000000000E+00 -0.45593999997E+02  0.45594000000E+02  0.51100000000E-03 0. -1.
    9900012    2    1    2    0    0 -0.17245390510E+02  0.27931157634E+01 -0.39729318562E+02  0.47787265641E+02  0.19999975364E+02 0.  0.
        -12    1    1    2    0    0  0.17245390510E+02 -0.27931157634E+01  0.39729318562E+02  0.43400734359E+02  0.00000000000E+00 0.  1.
         11    1    3    3    0    0  0.37685494305E+00 -0.17615904653E+00  0.49965873751E+00  0.65016211276E+00  0.51100000000E-03 0. -1.
        -11    1    3    3    0    0  0.23980950051E+01  0.29099505525E+01 -0.11637012825E+02  0.12232691430E+02  0.51100000000E-03 0.  1.
         12    1    3    3    0    0 -0.20020340458E+02  0.59324257439E-01 -0.28591964474E+02  0.34904412098E+02  0.00000000000E+00 0. -1.
</event>
<event>
 7    1  0.4356471E-010  0.4778727E+02  0.7816164E-02  0.1312668E+00
        -11   -1    0    0    0    0  0.00000000000E+00  0.00000000000E+00  0.45593999997E+02  0.45594000000E+02  0.51100000000E-03 0.  1.
         11   -1    0    0    0    0 -0.00000000000E+00 -0.00000000000E+00 -0.45593999997E+02  0.45594000000E+02  0.51100000000E-03 0. -1.
    9900012    2    1    2    0    0 -0.10497892743E+02  0.30409044511E+02 -0.29132581655E+02  0.47787273577E+02  0.20000011549E+02 0.  0.
        -12    1    1    2    0    0  0.10497892743E+02 -0.30409044511E+02  0.29132581655E+02  0.43400726423E+02  0.00000000000E+00 0.  1.
         11    1    3    3    0    0 -0.73873474162E+01  0.45522364173E+01 -0.90791968275E+01  0.12558963872E+02  0.51100000000E-03 0. -1.
        -11    1    3    3    0    0  0.30305585119E+01  0.13430913462E+01 -0.67596730928E+00  0.33830624178E+01  0.51100000000E-03 0.  1.
         12    1    3    3    0    0 -0.61411038385E+01  0.24513716747E+02 -0.19377417519E+02  0.31845247288E+02  0.00000000000E+00 0. -1.
</event>
<event>
 7    1  0.4356471E-010  0.4778727E+02  0.7816164E-02  0.1312668E+00
        -11   -1    0    0    0    0  0.00000000000E+00  0.00000000000E+00  0.45593999997E+02  0.45594000000E+02  0.51100000000E-03 0.  1.
         11   -1    0    0    0    0 -0.00000000000E+00 -0.00000000000E+00 -0.45593999997E+02  0.45594000000E+02  0.51100000000E-03 0. -1.
    9900012    2    1    2    0    0  0.41962080004E+02  0.11079691304E+02  0.21782938648E+00  0.47787272272E+02  0.20000005598E+02 0.  0.
        -12    1    1    2    0    0 -0.41962080004E+02 -0.11079691304E+02 -0.21782938648E+00  0.43400727728E+02  0.00000000000E+00 0.  1.
         11    1    3    3    0    0  0.26858072845E+02  0.66802789307E+01  0.45636888177E+01  0.28050124054E+02  0.51100000000E-03 0. -1.
        -11    1    3    3    0    0  0.13426819858E+02  0.19512051474E+00 -0.62684570171E+01  0.14819281938E+02  0.51100000000E-03 0.  1.
        -12    1    3    3    0    0  0.16771873005E+01  0.42042918588E+01  0.19225975859E+01  0.49178662805E+01  0.00000000000E+00 0.  1.
</event>
<event>
 7    1  0.4356471E-010  0.4778726E+02  0.7816164E-02  0.1312668E+00
        -11   -1    0    0    0    0  0.00000000000E+00  0.00000000000E+00  0.45593999997E+02  0.45594000000E+02  0.51100000000E-03 0. -1.
         11   -1    0    0    0    0 -0.00000000000E+00 -0.00000000000E+00 -0.45593999997E+02  0.45594000000E+02  0.51100000000E-03 0.  1.
    9900012    2    1    2    0    0  0.34557553015E+02  0.25659200054E+02 -0.55682134358E+01  0.47787262464E+02  0.19999960877E+02 0.  0.
        -12    1    1    2    0    0 -0.34557553015E+02 -0.25659200054E+02  0.55682134358E+01  0.43400737536E+02  0.00000000000E+00 0.  1.
         11    1    3    3    0    0  0.56502604707E+01  0.70251081321E+01  0.45293776749E+01  0.10089244275E+02  0.51100000000E-03 0. -1.
        -11    1    3    3    0    0  0.18301209063E+01  0.38327227571E+01 -0.47631161472E+01  0.63817224914E+01  0.51100000000E-03 0.  1.
        -12    1    3    3    0    0  0.27077171638E+02  0.14801369165E+02 -0.53344749634E+01  0.31316295698E+02  0.00000000000E+00 0.  1.
</event>
<event>
 7    1  0.4356471E-010  0.4778728E+02  0.7816164E-02  0.1312668E+00
        -11   -1    0    0    0    0  0.00000000000E+00  0.00000000000E+00  0.45593999997E+02  0.45594000000E+02  0.51100000000E-03 0.  1.
         11   -1    0    0    0    0 -0.00000000000E+00 -0.00000000000E+00 -0.45593999997E+02  0.45594000000E+02  0.51100000000E-03 0. -1.
    9900012    2    1    2    0    0  0.31325237815E+02  0.27450734317E+02 -0.12198745385E+02  0.47787277337E+02  0.20000028690E+02 0.  0.
        -12    1    1    2    0    0 -0.31325237815E+02 -0.27450734317E+02  0.12198745385E+02  0.43400722663E+02  0.00000000000E+00 0.  1.
         11    1    3    3    0    0  0.10570014542E+02  0.17040733024E+02 -0.52465379123E+01  0.20727709708E+02  0.51100000000E-03 0. -1.
        -11    1    3    3    0    0  0.47613978313E+00  0.51824844095E+01 -0.15938296352E+01  0.54428987603E+01  0.51100000000E-03 0.  1.
         12    1    3    3    0    0  0.20279083489E+02  0.52275168840E+01 -0.53583778378E+01  0.21616668869E+02  0.00000000000E+00 0. -1.
</event>
<event>
 7    1  0.4356471E-010  0.4778727E+02  0.7816164E-02  0.1312668E+00
        -11   -1    0    0    0    0  0.00000000000E+00  0.00000000000E+00  0.45593999997E+02  0.45594000000E+02  0.51100000000E-03 0.  1.
         11   -1    0    0    0    0 -0.00000000000E+00 -0.00000000000E+00 -0.45593999997E+02  0.45594000000E+02  0.51100000000E-03 0. -1.
    9900012    2    1    2    0    0  0.15740307721E+01  0.29988206042E+02 -0.31334535299E+02  0.47787272162E+02  0.20000005095E+02 0.  0.
        -12    1    1    2    0    0 -0.15740307721E+01 -0.29988206042E+02  0.31334535299E+02  0.43400727838E+02  0.00000000000E+00 0.  1.
         11    1    3    3    0    0 -0.62155111381E+00  0.13313244510E+02 -0.11645715733E+02  0.17698912406E+02  0.51100000000E-03 0. -1.
        -11    1    3    3    0    0  0.64839826942E+01  0.11703364863E+02 -0.55222928818E+01  0.14474339350E+02  0.51100000000E-03 0.  1.
        -12    1    3    3    0    0 -0.42884008083E+01  0.49715966689E+01 -0.14166526684E+02  0.15614020405E+02  0.00000000000E+00 0.  1.
</event>
<event>
 7    1  0.4356471E-010  0.4778727E+02  0.7816164E-02  0.1312668E+00
        -11   -1    0    0    0    0  0.00000000000E+00  0.00000000000E+00  0.45593999997E+02  0.45594000000E+02  0.51100000000E-03 0.  1.
         11   -1    0    0    0    0 -0.00000000000E+00 -0.00000000000E+00 -0.45593999997E+02  0.45594000000E+02  0.51100000000E-03 0. -1.
    9900012    2    1    2    0    0  0.10818712946E+02  0.51742460802E+01 -0.41710980226E+02  0.47787271391E+02  0.20000001582E+02 0.  0.
        -12    1    1    2    0    0 -0.10818712946E+02 -0.51742460802E+01  0.41710980226E+02  0.43400728609E+02  0.00000000000E+00 0.  1.
         11    1    3    3    0    0 -0.52988699652E+00 -0.15887658512E+01 -0.36558711966E+01  0.40212375739E+01  0.51100000000E-03 0. -1.
        -11    1    3    3    0    0 -0.26549651812E+01  0.71298798276E+01 -0.13408567641E+02  0.15416669968E+02  0.51100000000E-03 0.  1.
         12    1    3    3    0    0  0.14003565123E+02 -0.36686789620E+00 -0.24646541389E+02  0.28349363849E+02  0.00000000000E+00 0. -1.
</event>
<event>
 7    1  0.4356471E-010  0.4778727E+02  0.7816164E-02  0.1312668E+00
        -11   -1    0    0    0    0  0.00000000000E+00  0.00000000000E+00  0.45593999997E+02  0.45594000000E+02  0.51100000000E-03 0.  1.
         11   -1    0    0    0    0 -0.00000000000E+00 -0.00000000000E+00 -0.45593999997E+02  0.45594000000E+02  0.51100000000E-03 0. -1.
    9900012    2    1    2    0    0  0.26068808581E+02 -0.10701314076E+02 -0.33007919220E+02  0.47787266884E+02  0.19999981029E+02 0.  0.
        -12    1    1    2    0    0 -0.26068808581E+02  0.10701314076E+02  0.33007919220E+02  0.43400733116E+02  0.00000000000E+00 0.  1.
         11    1    3    3    0    0  0.14467424081E+02 -0.74328574313E+01 -0.17866771278E+02  0.24161441292E+02  0.51100000000E-03 0. -1.
        -11    1    3    3    0    0  0.67446973243E+01 -0.58482540155E+01 -0.15738622740E+02  0.18094122334E+02  0.51100000000E-03 0.  1.
         12    1    3    3    0    0  0.48566871754E+01  0.25797973705E+01  0.59747479804E+00  0.55317032573E+01  0.00000000000E+00 0. -1.
</event>
<event>
 7    1  0.4356471E-010  0.4778727E+02  0.7816164E-02  0.1312668E+00
        -11   -1    0    0    0    0  0.00000000000E+00  0.00000000000E+00  0.45593999997E+02  0.45594000000E+02  0.51100000000E-03 0.  1.
         11   -1    0    0    0    0 -0.00000000000E+00 -0.00000000000E+00 -0.45593999997E+02  0.45594000000E+02  0.51100000000E-03 0. -1.
    9900012    2    1    2    0    0  0.22604972697E+02 -0.24011245234E+02 -0.28215217211E+02  0.47787272234E+02  0.20000005426E+02 0.  0.
        -12    1    1    2    0    0 -0.22604972697E+02  0.24011245234E+02  0.28215217211E+02  0.43400727766E+02  0.00000000000E+00 0.  1.
         11    1    3    3    0    0  0.14419322402E+02 -0.89402746014E+01 -0.22708370942E+02  0.28346348612E+02  0.51100000000E-03 0. -1.
        -11    1    3    3    0    0  0.29772373859E+01 -0.61291319913E+00  0.20400391142E+00  0.30465099538E+01  0.51100000000E-03 0.  1.
         12    1    3    3    0    0  0.52084129087E+01 -0.14458057433E+02 -0.57108501801E+01  0.16394413669E+02  0.00000000000E+00 0. -1.
</event>
<event>
 7    1  0.4356471E-010  0.4778728E+02  0.7816164E-02  0.1312668E+00
        -11   -1    0    0    0    0  0.00000000000E+00  0.00000000000E+00  0.45593999997E+02  0.45594000000E+02  0.51100000000E-03 0.  1.
         11   -1    0    0    0    0 -0.00000000000E+00 -0.00000000000E+00 -0.45593999997E+02  0.45594000000E+02  0.51100000000E-03 0. -1.
    9900012    2    1    2    0    0  0.37419405745E+02  0.58820951542E+01 -0.21185170776E+02  0.47787280761E+02  0.20000044301E+02 0.  0.
        -12    1    1    2    0    0 -0.37419405745E+02 -0.58820951542E+01  0.21185170776E+02  0.43400719239E+02  0.00000000000E+00 0.  1.
         11    1    3    3    0    0  0.10649946574E+02  0.57646244339E+01 -0.47675717029E+01  0.13014683903E+02  0.51100000000E-03 0. -1.
        -11    1    3    3    0    0  0.68994365898E+00  0.10066109251E+01 -0.68833654434E+01  0.69907086834E+01  0.51100000000E-03 0.  1.
         12    1    3    3    0    0  0.26079515512E+02 -0.88914020486E+00 -0.95342336293E+01  0.27781888174E+02  0.00000000000E+00 0. -1.
</event>
<event>
 7    1  0.4356471E-010  0.4778727E+02  0.7816164E-02  0.1312668E+00
        -11   -1    0    0    0    0  0.00000000000E+00  0.00000000000E+00  0.45593999997E+02  0.45594000000E+02  0.51100000000E-03 0.  1.
         11   -1    0    0    0    0 -0.00000000000E+00 -0.00000000000E+00 -0.45593999997E+02  0.45594000000E+02  0.51100000000E-03 0. -1.
    9900012    2    1    2    0    0 -0.19538927968E+02 -0.30465274967E+02 -0.23952462658E+02  0.47787272444E+02  0.20000006383E+02 0.  0.
        -12    1    1    2    0    0  0.19538927968E+02  0.30465274967E+02  0.23952462658E+02  0.43400727556E+02  0.00000000000E+00 0.  1.
         11    1    3    3    0    0 -0.86570441484E+01 -0.98398527491E+01 -0.47044244936E+01  0.13924752263E+02  0.51100000000E-03 0. -1.
        -11    1    3    3    0    0 -0.69674219559E+00 -0.77682240299E+01  0.93453449605E+00  0.78551963216E+01  0.51100000000E-03 0.  1.
        -12    1    3    3    0    0 -0.10185141624E+02 -0.12857198188E+02 -0.20182572660E+02  0.26007323860E+02  0.00000000000E+00 0.  1.
</event>
<event>
 7    1  0.4356907E-010  0.4778727E+02  0.7816164E-02  0.1312668E+00
        -11   -1    0    0    0    0  0.00000000000E+00  0.00000000000E+00  0.45593999997E+02  0.45594000000E+02  0.51100000000E-03 0.  1.
         11   -1    0    0    0    0 -0.00000000000E+00 -0.00000000000E+00 -0.45593999997E+02  0.45594000000E+02  0.51100000000E-03 0. -1.
    9900012    2    1    2    0    0  0.25598036250E+02  0.34838230061E+02  0.38290374842E+01  0.47787271185E+02  0.20000000640E+02 0.  0.
        -12    1    1    2    0    0 -0.25598036250E+02 -0.34838230061E+02 -0.38290374842E+01  0.43400728815E+02  0.00000000000E+00 0.  1.
         11    1    3    3    0    0  0.14309959185E+02  0.21917019901E+02 -0.35828429816E+00  0.26177453297E+02  0.51100000000E-03 0. -1.
        -11    1    3    3    0    0  0.84139848999E+01  0.79731521630E+01 -0.34246056146E+01  0.12086944245E+02  0.51100000000E-03 0.  1.
        -12    1    3    3    0    0  0.28740921654E+01  0.49480579970E+01  0.76119273969E+01  0.95228736426E+01  0.00000000000E+00 0.  1.
</event>
<event>
 7    1  0.4356471E-010  0.4778727E+02  0.7816164E-02  0.1312668E+00
        -11   -1    0    0    0    0  0.00000000000E+00  0.00000000000E+00  0.45593999997E+02  0.45594000000E+02  0.51100000000E-03 0.  1.
         11   -1    0    0    0    0 -0.00000000000E+00 -0.00000000000E+00 -0.45593999997E+02  0.45594000000E+02  0.51100000000E-03 0. -1.
    9900012    2    1    2    0    0  0.58434406054E+01  0.13157499263E+02 -0.40943349872E+02  0.47787268627E+02  0.19999988979E+02 0.  0.
        -12    1    1    2    0    0 -0.58434406054E+01 -0.13157499263E+02  0.40943349872E+02  0.43400731373E+02  0.00000000000E+00 0.  1.
         11    1    3    3    0    0 -0.32983575284E+01  0.46458622336E+00 -0.68041933338E+01  0.75757540832E+01  0.51100000000E-03 0. -1.
        -11    1    3    3    0    0  0.63875870743E+01 -0.35801852361E+00 -0.18931058567E+02  0.19982853265E+02  0.51100000000E-03 0.  1.
        -12    1    3    3    0    0  0.27542110594E+01  0.13050931563E+02 -0.15208097971E+02  0.20228661279E+02  0.00000000000E+00 0.  1.
</event>
<event>
 7    1  0.4356471E-010  0.4778727E+02  0.7816164E-02  0.1312668E+00
        -11   -1    0    0    0    0  0.00000000000E+00  0.00000000000E+00  0.45593999997E+02  0.45594000000E+02  0.51100000000E-03 0. -1.
         11   -1    0    0    0    0 -0.00000000000E+00 -0.00000000000E+00 -0.45593999997E+02  0.45594000000E+02  0.51100000000E-03 0.  1.
    9900012    2    1    2    0    0  0.40135423686E+02 -0.34934588860E+01 -0.16142083401E+02  0.47787270214E+02  0.19999996214E+02 0.  0.
        -12    1    1    2    0    0 -0.40135423686E+02  0.34934588860E+01  0.16142083401E+02  0.43400729786E+02  0.00000000000E+00 0.  1.
         11    1    3    3    0    0  0.51716805888E+01 -0.11911687049E+01 -0.44841281200E+01  0.69478463033E+01  0.51100000000E-03 0.  1.
        -11    1    3    3    0    0  0.36490279418E+02 -0.14156914713E+00 -0.10721878826E+02  0.38033133182E+02  0.51100000000E-03 0. -1.
         12    1    3    3    0    0 -0.15265363207E+01 -0.21607210339E+01 -0.93607645414E+00  0.28062907285E+01  0.00000000000E+00 0. -1.
</event>
<event>
 7    1  0.4356471E-010  0.4778727E+02  0.7816164E-02  0.1312668E+00
        -11   -1    0    0    0    0  0.00000000000E+00  0.00000000000E+00  0.45593999997E+02  0.45594000000E+02  0.51100000000E-03 0. -1.
         11   -1    0    0    0    0 -0.00000000000E+00 -0.00000000000E+00 -0.45593999997E+02  0.45594000000E+02  0.51100000000E-03 0.  1.
    9900012    2    1    2    0    0 -0.32581656720E+02  0.48418475398E+01  0.28259784390E+02  0.47787271251E+02  0.20000000940E+02 0.  0.
        -12    1    1    2    0    0  0.32581656720E+02 -0.48418475398E+01 -0.28259784390E+02  0.43400728749E+02  0.00000000000E+00 0.  1.
         11    1    3    3    0    0 -0.29523108898E+02  0.26547811261E+01  0.19176390701E+02  0.35304330930E+02  0.51100000000E-03 0.  1.
        -11    1    3    3    0    0 -0.36532671891E+01 -0.19237928020E+00  0.66978667001E+00  0.37191377209E+01  0.51100000000E-03 0. -1.
        -12    1    3    3    0    0  0.59471936719E+00  0.23794456939E+01  0.84136070188E+01  0.87638025995E+01  0.00000000000E+00 0.  1.
</event>
<event>
 7    1  0.4356471E-010  0.4778727E+02  0.7816164E-02  0.1312668E+00
        -11   -1    0    0    0    0  0.00000000000E+00  0.00000000000E+00  0.45593999997E+02  0.45594000000E+02  0.51100000000E-03 0. -1.
         11   -1    0    0    0    0 -0.00000000000E+00 -0.00000000000E+00 -0.45593999997E+02  0.45594000000E+02  0.51100000000E-03 0.  1.
    9900012    2    1    2    0    0 -0.35357139396E+02  0.15398136220E+02  0.19909624857E+02  0.47787273424E+02  0.20000010850E+02 0.  0.
        -12    1    1    2    0    0  0.35357139396E+02 -0.15398136220E+02 -0.19909624857E+02  0.43400726576E+02  0.00000000000E+00 0.  1.
         11    1    3    3    0    0 -0.10788029434E+02  0.10527527649E+02  0.94098479583E+01  0.17769514803E+02  0.51100000000E-03 0. -1.
        -11    1    3    3    0    0 -0.48002391629E+01  0.11748557947E+01  0.84672871518E+01  0.98039550250E+01  0.51100000000E-03 0.  1.
        -12    1    3    3    0    0 -0.19768870799E+02  0.36957527766E+01  0.20324897472E+01  0.20213803596E+02  0.00000000000E+00 0.  1.
</event>
<event>
 7    1  0.4356471E-010  0.4778727E+02  0.7816164E-02  0.1312668E+00
        -11   -1    0    0    0    0  0.00000000000E+00  0.00000000000E+00  0.45593999997E+02  0.45594000000E+02  0.51100000000E-03 0.  1.
         11   -1    0    0    0    0 -0.00000000000E+00 -0.00000000000E+00 -0.45593999997E+02  0.45594000000E+02  0.51100000000E-03 0. -1.
    9900012    2    1    2    0    0 -0.23961734828E+01  0.79536634764E+01 -0.42598365051E+02  0.47787272874E+02  0.20000008340E+02 0.  0.
        -12    1    1    2    0    0  0.23961734828E+01 -0.79536634764E+01  0.42598365051E+02  0.43400727126E+02  0.00000000000E+00 0.  1.
         11    1    3    3    0    0 -0.24473189264E+01 -0.42027819710E+01 -0.16440756213E+02  0.17145005434E+02  0.51100000000E-03 0. -1.
        -11    1    3    3    0    0 -0.47486675269E+00  0.81166910488E+00  0.89764113865E+00  0.13000250165E+01  0.51100000000E-03 0.  1.
         12    1    3    3    0    0  0.52601219631E+00  0.11344776342E+02 -0.27055249977E+02  0.29342242423E+02  0.00000000000E+00 0. -1.
</event>
<event>
 7    1  0.4356471E-010  0.4778727E+02  0.7816164E-02  0.1312668E+00
        -11   -1    0    0    0    0  0.00000000000E+00  0.00000000000E+00  0.45593999997E+02  0.45594000000E+02  0.51100000000E-03 0. -1.
         11   -1    0    0    0    0 -0.00000000000E+00 -0.00000000000E+00 -0.45593999997E+02  0.45594000000E+02  0.51100000000E-03 0.  1.
    9900012    2    1    2    0    0  0.20740714521E+02 -0.34191537040E+02  0.16863709008E+02  0.47787272754E+02  0.20000007794E+02 0.  0.
        -12    1    1    2    0    0 -0.20740714521E+02  0.34191537040E+02 -0.16863709008E+02  0.43400727246E+02  0.00000000000E+00 0.  1.
         11    1    3    3    0    0  0.25595209795E+01  0.12750494546E+01 -0.91906682311E+00  0.30035949865E+01  0.51100000000E-03 0.  1.
        -11    1    3    3    0    0  0.11041287254E+02 -0.11016197841E+02  0.76298722265E+01  0.17363225206E+02  0.51100000000E-03 0. -1.
         12    1    3    3    0    0  0.71399062878E+01 -0.24450388653E+02  0.10152903604E+02  0.27420452561E+02  0.00000000000E+00 0. -1.
</event>
<event>
 7    1  0.4356471E-010  0.4778727E+02  0.7816164E-02  0.1312668E+00
        -11   -1    0    0    0    0  0.00000000000E+00  0.00000000000E+00  0.45593999997E+02  0.45594000000E+02  0.51100000000E-03 0. -1.
         11   -1    0    0    0    0 -0.00000000000E+00 -0.00000000000E+00 -0.45593999997E+02  0.45594000000E+02  0.51100000000E-03 0.  1.
    9900012    2    1    2    0    0  0.36139822135E+02  0.15907333805E+02  0.18013702074E+02  0.47787268725E+02  0.19999989426E+02 0.  0.
        -12    1    1    2    0    0 -0.36139822135E+02 -0.15907333805E+02 -0.18013702074E+02  0.43400731275E+02  0.00000000000E+00 0.  1.
         11    1    3    3    0    0  0.98939118882E+01  0.70838654455E+01  0.20615133128E+01  0.12341818322E+02  0.51100000000E-03 0. -1.
        -11    1    3    3    0    0  0.28100872480E+02  0.69596526749E+01  0.15263369093E+02  0.32727148299E+02  0.51100000000E-03 0.  1.
        -12    1    3    3    0    0 -0.18549622326E+01  0.18638156850E+01  0.68881966787E+00  0.27183021037E+01  0.00000000000E+00 0.  1.
</event>
<event>
 7    1  0.4356471E-010  0.4778726E+02  0.7816164E-02  0.1312668E+00
        -11   -1    0    0    0    0  0.00000000000E+00  0.00000000000E+00  0.45593999997E+02  0.45594000000E+02  0.51100000000E-03 0. -1.
         11   -1    0    0    0    0 -0.00000000000E+00 -0.00000000000E+00 -0.45593999997E+02  0.45594000000E+02  0.51100000000E-03 0.  1.
    9900012    2    1    2    0    0 -0.45676178694E+01 -0.68106423358E+01  0.42618964779E+02  0.47787261056E+02  0.19999954458E+02 0.  0.
        -12    1    1    2    0    0  0.45676178694E+01  0.68106423358E+01 -0.42618964779E+02  0.43400738944E+02  0.00000000000E+00 0.  1.
         11    1    3    3    0    0 -0.82455325804E+01 -0.54271420542E+01  0.14947121601E+02  0.17912540938E+02  0.51100000000E-03 0. -1.
        -11    1    3    3    0    0 -0.10044107528E-01 -0.54718099141E+01  0.10476504019E+02  0.11819388366E+02  0.51100000000E-03 0.  1.
        -12    1    3    3    0    0  0.36879588186E+01  0.40883096325E+01  0.17195339159E+02  0.18055331752E+02  0.00000000000E+00 0.  1.
</event>
<event>
 7    1  0.4356471E-010  0.4778727E+02  0.7816164E-02  0.1312668E+00
        -11   -1    0    0    0    0  0.00000000000E+00  0.00000000000E+00  0.45593999997E+02  0.45594000000E+02  0.51100000000E-03 0.  1.
         11   -1    0    0    0    0 -0.00000000000E+00 -0.00000000000E+00 -0.45593999997E+02  0.45594000000E+02  0.51100000000E-03 0. -1.
    9900012    2    1    2    0    0  0.25916150085E+02 -0.34687022237E+02 -0.29643377009E+01  0.47787266770E+02  0.19999980511E+02 0.  0.
        -12    1    1    2    0    0 -0.25916150085E+02  0.34687022237E+02  0.29643377009E+01  0.43400733230E+02  0.00000000000E+00 0.  1.
         11    1    3    3    0    0  0.15639719886E+02 -0.11596513395E+02 -0.52323487996E+01  0.20160789549E+02  0.51100000000E-03 0. -1.
        -11    1    3    3    0    0 -0.22248835899E+00 -0.39085079905E+01 -0.32337843233E+01  0.50777255826E+01  0.51100000000E-03 0.  1.
         12    1    3    3    0    0  0.10498918558E+02 -0.19182000851E+02  0.55017954220E+01  0.22548751638E+02  0.00000000000E+00 0. -1.
</event>
<event>
 7    1  0.4356471E-010  0.4778727E+02  0.7816164E-02  0.1312668E+00
        -11   -1    0    0    0    0  0.00000000000E+00  0.00000000000E+00  0.45593999997E+02  0.45594000000E+02  0.51100000000E-03 0. -1.
         11   -1    0    0    0    0 -0.00000000000E+00 -0.00000000000E+00 -0.45593999997E+02  0.45594000000E+02  0.51100000000E-03 0.  1.
    9900012    2    1    2    0    0 -0.16089097800E+02  0.27994965031E+02  0.29000794381E+02  0.47787271783E+02  0.20000003366E+02 0.  0.
        -12    1    1    2    0    0  0.16089097800E+02 -0.27994965031E+02 -0.29000794381E+02  0.43400728217E+02  0.00000000000E+00 0.  1.
         11    1    3    3    0    0 -0.11979197471E+02  0.14348485427E+02  0.11681892499E+02  0.22041933189E+02  0.51100000000E-03 0. -1.
        -11    1    3    3    0    0 -0.57750050993E+01  0.64165606598E+01  0.22068169510E+01  0.89102736162E+01  0.51100000000E-03 0.  1.
         12    1    3    3    0    0  0.16651047704E+01  0.72299189438E+01  0.15112084931E+02  0.16835064977E+02  0.00000000000E+00 0. -1.
</event>
<event>
 7    1  0.4356471E-010  0.4778727E+02  0.7816164E-02  0.1312668E+00
        -11   -1    0    0    0    0  0.00000000000E+00  0.00000000000E+00  0.45593999997E+02  0.45594000000E+02  0.51100000000E-03 0. -1.
         11   -1    0    0    0    0 -0.00000000000E+00 -0.00000000000E+00 -0.45593999997E+02  0.45594000000E+02  0.51100000000E-03 0.  1.
    9900012    2    1    2    0    0  0.44357652551E+01  0.37367608718E+02  0.21624264044E+02  0.47787274313E+02  0.20000014902E+02 0.  0.
        -12    1    1    2    0    0 -0.44357652551E+01 -0.37367608718E+02 -0.21624264044E+02  0.43400725687E+02  0.00000000000E+00 0.  1.
         11    1    3    3    0    0  0.62474586657E+01  0.18508926476E+02  0.11600550373E+02  0.22719680198E+02  0.51100000000E-03 0.  1.
        -11    1    3    3    0    0 -0.86285523200E-01  0.32771377365E+01  0.87443782560E+01  0.93386952130E+01  0.51100000000E-03 0. -1.
        -12    1    3    3    0    0 -0.17254078874E+01  0.15581544506E+02  0.12793354152E+01  0.15728898902E+02  0.00000000000E+00 0.  1.
</event>
<event>
 7    1  0.4356471E-010  0.4778727E+02  0.7816164E-02  0.1312668E+00
        -11   -1    0    0    0    0  0.00000000000E+00  0.00000000000E+00  0.45593999997E+02  0.45594000000E+02  0.51100000000E-03 0.  1.
         11   -1    0    0    0    0 -0.00000000000E+00 -0.00000000000E+00 -0.45593999997E+02  0.45594000000E+02  0.51100000000E-03 0. -1.
    9900012    2    1    2    0    0  0.55656603140E+01 -0.37766568785E+02  0.20647828563E+02  0.47787272853E+02  0.20000008247E+02 0.  0.
        -12    1    1    2    0    0 -0.55656603140E+01  0.37766568785E+02 -0.20647828563E+02  0.43400727147E+02  0.00000000000E+00 0.  1.
         11    1    3    3    0    0 -0.27691572180E+00 -0.57318974424E+01 -0.27471813605E+01  0.63622587417E+01  0.51100000000E-03 0. -1.
        -11    1    3    3    0    0  0.12612189125E+01 -0.15841355646E+01  0.53817370773E+01  0.57500654659E+01  0.51100000000E-03 0.  1.
         12    1    3    3    0    0  0.45813571234E+01 -0.30450535777E+02  0.18013272846E+02  0.35674948646E+02  0.00000000000E+00 0. -1.
</event>
<event>
 7    1  0.4356471E-010  0.4778723E+02  0.7816164E-02  0.1312668E+00
        -11   -1    0    0    0    0  0.00000000000E+00  0.00000000000E+00  0.45593999997E+02  0.45594000000E+02  0.51100000000E-03 0.  1.
         11   -1    0    0    0    0 -0.00000000000E+00 -0.00000000000E+00 -0.45593999997E+02  0.45594000000E+02  0.51100000000E-03 0. -1.
    9900012    2    1    2    0    0 -0.20628401221E+02  0.38081129755E+02  0.28148855533E+01  0.47787228566E+02  0.19999806324E+02 0.  0.
        -12    1    1    2    0    0  0.20628401221E+02 -0.38081129755E+02 -0.28148855533E+01  0.43400771434E+02  0.00000000000E+00 0.  1.
         11    1    3    3    0    0 -0.11122963476E+02  0.24437982433E+02 -0.39829607371E+01  0.27144046832E+02  0.51100000000E-03 0. -1.
        -11    1    3    3    0    0 -0.74131209990E+00  0.31324171963E+01 -0.25191157332E+01  0.40874840011E+01  0.51100000000E-03 0.  1.
        -12    1    3    3    0    0 -0.87641256451E+01  0.10510730126E+02  0.93169620236E+01  0.16555697734E+02  0.00000000000E+00 0.  1.
</event>
<event>
 7    1  0.4356471E-010  0.4778727E+02  0.7816164E-02  0.1312668E+00
        -11   -1    0    0    0    0  0.00000000000E+00  0.00000000000E+00  0.45593999997E+02  0.45594000000E+02  0.51100000000E-03 0. -1.
         11   -1    0    0    0    0 -0.00000000000E+00 -0.00000000000E+00 -0.45593999997E+02  0.45594000000E+02  0.51100000000E-03 0.  1.
    9900012    2    1    2    0    0 -0.17870810239E+02  0.17541690989E+02  0.35447798601E+02  0.47787271815E+02  0.20000003513E+02 0.  0.
        -12    1    1    2    0    0  0.17870810239E+02 -0.17541690989E+02 -0.35447798601E+02  0.43400728185E+02  0.00000000000E+00 0.  1.
         11    1    3    3    0    0  0.18350308891E+00  0.21221439403E+01  0.30385078686E+01  0.37107544537E+01  0.51100000000E-03 0.  1.
        -11    1    3    3    0    0 -0.45376622150E+01  0.76476095909E+01  0.25530393137E+02  0.27034742182E+02  0.51100000000E-03 0. -1.
         12    1    3    3    0    0 -0.13516651113E+02  0.77719374579E+01  0.68788975952E+01  0.17041775180E+02  0.00000000000E+00 0. -1.
</event>
<event>
 7    1  0.4356471E-010  0.4778727E+02  0.7816164E-02  0.1312668E+00
        -11   -1    0    0    0    0  0.00000000000E+00  0.00000000000E+00  0.45593999997E+02  0.45594000000E+02  0.51100000000E-03 0.  1.
         11   -1    0    0    0    0 -0.00000000000E+00 -0.00000000000E+00 -0.45593999997E+02  0.45594000000E+02  0.51100000000E-03 0. -1.
    9900012    2    1    2    0    0  0.22754573808E+02 -0.82847912463E+00 -0.36948155893E+02  0.47787271541E+02  0.20000002264E+02 0.  0.
        -12    1    1    2    0    0 -0.22754573808E+02  0.82847912463E+00  0.36948155893E+02  0.43400728459E+02  0.00000000000E+00 0.  1.
         11    1    3    3    0    0  0.20059370192E+02  0.25886980344E+01 -0.31528723024E+02  0.37458511260E+02  0.51100000000E-03 0. -1.
        -11    1    3    3    0    0  0.18436504456E+01  0.22092424193E+01 -0.76559098331E+00  0.29775709643E+01  0.51100000000E-03 0.  1.
         12    1    3    3    0    0  0.85155317076E+00 -0.56264195783E+01 -0.46538418861E+01  0.73511893170E+01  0.00000000000E+00 0. -1.
</event>
<event>
 7    1  0.4356471E-010  0.4778727E+02  0.7816164E-02  0.1312668E+00
        -11   -1    0    0    0    0  0.00000000000E+00  0.00000000000E+00  0.45593999997E+02  0.45594000000E+02  0.51100000000E-03 0. -1.
         11   -1    0    0    0    0 -0.00000000000E+00 -0.00000000000E+00 -0.45593999997E+02  0.45594000000E+02  0.51100000000E-03 0.  1.
    9900012    2    1    2    0    0  0.33732039674E+02 -0.25722395840E+01  0.27187431196E+02  0.47787270374E+02  0.19999996942E+02 0.  0.
        -12    1    1    2    0    0 -0.33732039674E+02  0.25722395840E+01 -0.27187431196E+02  0.43400729626E+02  0.00000000000E+00 0.  1.
         11    1    3    3    0    0  0.24966839384E+02 -0.18139283758E+01  0.13622503401E+02  0.28499228132E+02  0.51100000000E-03 0. -1.
        -11    1    3    3    0    0  0.21011565938E+01 -0.20659818291E+01 -0.10853822894E+01  0.31402539587E+01  0.51100000000E-03 0.  1.
        -12    1    3    3    0    0  0.66640436964E+01  0.13076706209E+01  0.14650310085E+02  0.16147788283E+02  0.00000000000E+00 0.  1.
</event>
<event>
 7    1  0.4356471E-010  0.4778727E+02  0.7816164E-02  0.1312668E+00
        -11   -1    0    0    0    0  0.00000000000E+00  0.00000000000E+00  0.45593999997E+02  0.45594000000E+02  0.51100000000E-03 0. -1.
         11   -1    0    0    0    0 -0.00000000000E+00 -0.00000000000E+00 -0.45593999997E+02  0.45594000000E+02  0.51100000000E-03 0.  1.
    9900012    2    1    2    0    0 -0.11448086557E+02 -0.31751810629E+02  0.27283463323E+02  0.47787268037E+02  0.19999986288E+02 0.  0.
        -12    1    1    2    0    0  0.11448086557E+02  0.31751810629E+02 -0.27283463323E+02  0.43400731963E+02  0.00000000000E+00 0.  1.
         11    1    3    3    0    0 -0.62002093023E+01 -0.91060317313E+01  0.14538019539E+02  0.18240515937E+02  0.51100000000E-03 0. -1.
        -11    1    3    3    0    0 -0.65837781237E+01 -0.15996378637E+02  0.14465780003E+02  0.22549701887E+02  0.51100000000E-03 0.  1.
        -12    1    3    3    0    0  0.13359008691E+01 -0.66494002613E+01 -0.17203362188E+01  0.69970502122E+01  0.00000000000E+00 0.  1.
</event>
<event>
 7    1  0.4356471E-010  0.4778728E+02  0.7816164E-02  0.1312668E+00
        -11   -1    0    0    0    0  0.00000000000E+00  0.00000000000E+00  0.45593999997E+02  0.45594000000E+02  0.51100000000E-03 0.  1.
         11   -1    0    0    0    0 -0.00000000000E+00 -0.00000000000E+00 -0.45593999997E+02  0.45594000000E+02  0.51100000000E-03 0. -1.
    9900012    2    1    2    0    0  0.37839383850E+02 -0.20571398237E+01 -0.21155890558E+02  0.47787279963E+02  0.20000040665E+02 0.  0.
        -12    1    1    2    0    0 -0.37839383850E+02  0.20571398237E+01  0.21155890558E+02  0.43400720037E+02  0.00000000000E+00 0.  1.
         11    1    3    3    0    0 -0.63639088417E+00 -0.46965623388E+00 -0.12906330405E+01  0.15137054673E+01  0.51100000000E-03 0. -1.
        -11    1    3    3    0    0  0.96857736308E+01  0.63818327803E+01 -0.81956975549E+01  0.14202515944E+02  0.51100000000E-03 0.  1.
        -12    1    3    3    0    0  0.28790001103E+02 -0.79693163702E+01 -0.11669559962E+02  0.32071058552E+02  0.00000000000E+00 0.  1.
</event>
<event>
 7    1  0.4356471E-010  0.4778727E+02  0.7816164E-02  0.1312668E+00
        -11   -1    0    0    0    0  0.00000000000E+00  0.00000000000E+00  0.45593999997E+02  0.45594000000E+02  0.51100000000E-03 0. -1.
         11   -1    0    0    0    0 -0.00000000000E+00 -0.00000000000E+00 -0.45593999997E+02  0.45594000000E+02  0.51100000000E-03 0.  1.
    9900012    2    1    2    0    0  0.22611755376E+02  0.34415266580E+02  0.13708423893E+02  0.47787274884E+02  0.20000017508E+02 0.  0.
        -12    1    1    2    0    0 -0.22611755376E+02 -0.34415266580E+02 -0.13708423893E+02  0.43400725116E+02  0.00000000000E+00 0.  1.
         11    1    3    3    0    0  0.32905214974E+01  0.15863447344E+02  0.19595179806E+01  0.16319197417E+02  0.51100000000E-03 0. -1.
        -11    1    3    3    0    0  0.95216535518E+01  0.71371908661E+01 -0.73000784984E+00  0.11922008704E+02  0.51100000000E-03 0.  1.
        -12    1    3    3    0    0  0.97995803266E+01  0.11414628369E+02  0.12478913762E+02  0.19546068763E+02  0.00000000000E+00 0.  1.
</event>
<event>
 7    1  0.4356471E-010  0.4778727E+02  0.7816164E-02  0.1312668E+00
        -11   -1    0    0    0    0  0.00000000000E+00  0.00000000000E+00  0.45593999997E+02  0.45594000000E+02  0.51100000000E-03 0.  1.
         11   -1    0    0    0    0 -0.00000000000E+00 -0.00000000000E+00 -0.45593999997E+02  0.45594000000E+02  0.51100000000E-03 0. -1.
    9900012    2    1    2    0    0  0.26366568176E-01  0.92164768531E+01 -0.42410841135E+02  0.47787267442E+02  0.19999983574E+02 0.  0.
        -12    1    1    2    0    0 -0.26366568176E-01 -0.92164768531E+01  0.42410841135E+02  0.43400732558E+02  0.00000000000E+00 0.  1.
         11    1    3    3    0    0 -0.48931446184E+01  0.46509763631E+01 -0.34269201721E+02  0.34927820319E+02  0.51100000000E-03 0. -1.
        -11    1    3    3    0    0 -0.14249910920E+01  0.31330242568E+01 -0.30611684464E+01  0.46062124489E+01  0.51100000000E-03 0.  1.
        -12    1    3    3    0    0  0.63445022785E+01  0.14324762332E+01 -0.50804709677E+01  0.82532346734E+01  0.00000000000E+00 0.  1.
</event>
<event>
 7    1  0.4356471E-010  0.4778727E+02  0.7816164E-02  0.1312668E+00
        -11   -1    0    0    0    0  0.00000000000E+00  0.00000000000E+00  0.45593999997E+02  0.45594000000E+02  0.51100000000E-03 0.  1.
         11   -1    0    0    0    0 -0.00000000000E+00 -0.00000000000E+00 -0.45593999997E+02  0.45594000000E+02  0.51100000000E-03 0. -1.
    9900012    2    1    2    0    0 -0.59109838902E+01  0.29325345870E+02 -0.31443717051E+02  0.47787274396E+02  0.20000015282E+02 0.  0.
        -12    1    1    2    0    0  0.59109838902E+01 -0.29325345870E+02  0.31443717051E+02  0.43400725604E+02  0.00000000000E+00 0.  1.
         11    1    3    3    0    0 -0.31897234223E+01  0.16718384307E+02 -0.58713335045E+01  0.18004201363E+02  0.51100000000E-03 0. -1.
        -11    1    3    3    0    0 -0.96437986438E+00 -0.65513060764E+00 -0.32492311564E+00  0.12102891919E+01  0.51100000000E-03 0.  1.
         12    1    3    3    0    0 -0.17568806035E+01  0.13262092171E+02 -0.25247460431E+02  0.28572783841E+02  0.00000000000E+00 0. -1.
</event>
<event>
 7    1  0.4356471E-010  0.4778727E+02  0.7816164E-02  0.1312668E+00
        -11   -1    0    0    0    0  0.00000000000E+00  0.00000000000E+00  0.45593999997E+02  0.45594000000E+02  0.51100000000E-03 0.  1.
         11   -1    0    0    0    0 -0.00000000000E+00 -0.00000000000E+00 -0.45593999997E+02  0.45594000000E+02  0.51100000000E-03 0. -1.
    9900012    2    1    2    0    0  0.71988353019E+01  0.41830453401E+02 -0.90561014446E+01  0.47787273798E+02  0.20000012557E+02 0.  0.
        -12    1    1    2    0    0 -0.71988353019E+01 -0.41830453401E+02  0.90561014446E+01  0.43400726202E+02  0.00000000000E+00 0.  1.
         11    1    3    3    0    0  0.10740843879E+01  0.43014726281E+01  0.52291508332E+00  0.44642764798E+01  0.51100000000E-03 0. -1.
        -11    1    3    3    0    0 -0.23601538294E+00  0.17107583560E+02 -0.13225946164E+02  0.21625234582E+02  0.51100000000E-03 0.  1.
        -12    1    3    3    0    0  0.63607662969E+01  0.20421397213E+02  0.36469296361E+01  0.21697762736E+02  0.00000000000E+00 0.  1.
</event>
<event>
 7    1  0.4356471E-010  0.4778727E+02  0.7816164E-02  0.1312668E+00
        -11   -1    0    0    0    0  0.00000000000E+00  0.00000000000E+00  0.45593999997E+02  0.45594000000E+02  0.51100000000E-03 0.  1.
         11   -1    0    0    0    0 -0.00000000000E+00 -0.00000000000E+00 -0.45593999997E+02  0.45594000000E+02  0.51100000000E-03 0. -1.
    9900012    2    1    2    0    0 -0.26038186382E+02  0.14026064193E+01 -0.34693936581E+02  0.47787266246E+02  0.19999978123E+02 0.  0.
        -12    1    1    2    0    0  0.26038186382E+02 -0.14026064193E+01  0.34693936581E+02  0.43400733754E+02  0.00000000000E+00 0.  1.
         11    1    3    3    0    0 -0.50284354396E+01 -0.47486730677E+01 -0.15834214147E+02  0.17278813524E+02  0.51100000000E-03 0. -1.
        -11    1    3    3    0    0 -0.50710334259E+01 -0.80697374621E+00 -0.40577767432E+00  0.51508487083E+01  0.51100000000E-03 0.  1.
         12    1    3    3    0    0 -0.15938717517E+02  0.69582532332E+01 -0.18453944760E+02  0.25357604014E+02  0.00000000000E+00 0. -1.
</event>
<event>
 7    1  0.4356471E-010  0.4778727E+02  0.7816164E-02  0.1312668E+00
        -11   -1    0    0    0    0  0.00000000000E+00  0.00000000000E+00  0.45593999997E+02  0.45594000000E+02  0.51100000000E-03 0.  1.
         11   -1    0    0    0    0 -0.00000000000E+00 -0.00000000000E+00 -0.45593999997E+02  0.45594000000E+02  0.51100000000E-03 0. -1.
    9900012    2    1    2    0    0 -0.13034453063E+02  0.26312059443E+02 -0.31959381058E+02  0.47787268711E+02  0.19999989362E+02 0.  0.
        -12    1    1    2    0    0  0.13034453063E+02 -0.26312059443E+02  0.31959381058E+02  0.43400731289E+02  0.00000000000E+00 0.  1.
         11    1    3    3    0    0  0.31957089808E+01  0.78125572758E+01 -0.90801296111E+01  0.12397473980E+02  0.51100000000E-03 0. -1.
        -11    1    3    3    0    0  0.12719194699E+01  0.36996177923E+01 -0.20412082209E+01  0.44126502478E+01  0.51100000000E-03 0.  1.
         12    1    3    3    0    0 -0.17502081514E+02  0.14799884375E+02 -0.20838043226E+02  0.30977144483E+02  0.00000000000E+00 0. -1.
</event>
<event>
 7    1  0.4356471E-010  0.4778727E+02  0.7816164E-02  0.1312668E+00
        -11   -1    0    0    0    0  0.00000000000E+00  0.00000000000E+00  0.45593999997E+02  0.45594000000E+02  0.51100000000E-03 0.  1.
         11   -1    0    0    0    0 -0.00000000000E+00 -0.00000000000E+00 -0.45593999997E+02  0.45594000000E+02  0.51100000000E-03 0. -1.
    9900012    2    1    2    0    0  0.11554424123E+02 -0.21566422220E+01 -0.41778795435E+02  0.47787267627E+02  0.19999984421E+02 0.  0.
        -12    1    1    2    0    0 -0.11554424123E+02  0.21566422220E+01  0.41778795435E+02  0.43400732373E+02  0.00000000000E+00 0.  1.
         11    1    3    3    0    0  0.43110014685E+01  0.48126408431E+01 -0.11131553558E+02  0.12870809237E+02  0.51100000000E-03 0. -1.
        -11    1    3    3    0    0 -0.97864842443E+00  0.63552689707E+00 -0.17940576626E+02  0.17978485395E+02  0.51100000000E-03 0.  1.
        -12    1    3    3    0    0  0.82220710787E+01 -0.76048099622E+01 -0.12706665252E+02  0.16937972996E+02  0.00000000000E+00 0.  1.
</event>
<event>
 7    1  0.4356471E-010  0.4778727E+02  0.7816164E-02  0.1312668E+00
        -11   -1    0    0    0    0  0.00000000000E+00  0.00000000000E+00  0.45593999997E+02  0.45594000000E+02  0.51100000000E-03 0.  1.
         11   -1    0    0    0    0 -0.00000000000E+00 -0.00000000000E+00 -0.45593999997E+02  0.45594000000E+02  0.51100000000E-03 0. -1.
    9900012    2    1    2    0    0 -0.12475245039E+02 -0.20308576446E+02 -0.36270552723E+02  0.47787274074E+02  0.20000013813E+02 0.  0.
        -12    1    1    2    0    0  0.12475245039E+02  0.20308576446E+02  0.36270552723E+02  0.43400725926E+02  0.00000000000E+00 0.  1.
         11    1    3    3    0    0 -0.24449723860E+01 -0.12928836162E+02 -0.13227684776E+02  0.18657554482E+02  0.51100000000E-03 0. -1.
        -11    1    3    3    0    0 -0.59198921272E+01 -0.92109963921E+00 -0.20022774881E+02  0.20899881855E+02  0.51100000000E-03 0.  1.
         12    1    3    3    0    0 -0.41103805262E+01 -0.64586406451E+01 -0.30200930665E+01  0.82298377373E+01  0.00000000000E+00 0. -1.
</event>
<event>
 7    1  0.4356471E-010  0.4778727E+02  0.7816164E-02  0.1312668E+00
        -11   -1    0    0    0    0  0.00000000000E+00  0.00000000000E+00  0.45593999997E+02  0.45594000000E+02  0.51100000000E-03 0.  1.
         11   -1    0    0    0    0 -0.00000000000E+00 -0.00000000000E+00 -0.45593999997E+02  0.45594000000E+02  0.51100000000E-03 0. -1.
    9900012    2    1    2    0    0  0.35526565956E+02 -0.56028504745E+01 -0.24291862705E+02  0.47787269410E+02  0.19999992547E+02 0.  0.
        -12    1    1    2    0    0 -0.35526565956E+02  0.56028504745E+01  0.24291862705E+02  0.43400730590E+02  0.00000000000E+00 0.  1.
         11    1    3    3    0    0  0.43108205114E+01 -0.23621482794E+01 -0.14265518413E+01  0.51183950993E+01  0.51100000000E-03 0. -1.
        -11    1    3    3    0    0  0.13644099109E+01 -0.57054804782E+01 -0.21388171943E+01  0.62440900973E+01  0.51100000000E-03 0.  1.
         12    1    3    3    0    0  0.29851335534E+02  0.24647782831E+01 -0.20726493670E+02  0.36424784213E+02  0.00000000000E+00 0. -1.
</event>
<event>
 7    1  0.4356471E-010  0.4778727E+02  0.7816164E-02  0.1312668E+00
        -11   -1    0    0    0    0  0.00000000000E+00  0.00000000000E+00  0.45593999997E+02  0.45594000000E+02  0.51100000000E-03 0.  1.
         11   -1    0    0    0    0 -0.00000000000E+00 -0.00000000000E+00 -0.45593999997E+02  0.45594000000E+02  0.51100000000E-03 0. -1.
    9900012    2    1    2    0    0  0.41769466785E+01 -0.91506278449E+01 -0.42218981792E+02  0.47787270777E+02  0.19999998781E+02 0.  0.
        -12    1    1    2    0    0 -0.41769466785E+01  0.91506278449E+01  0.42218981792E+02  0.43400729223E+02  0.00000000000E+00 0.  1.
         11    1    3    3    0    0 -0.87523365655E+00 -0.10853457622E+02 -0.28575090506E+02  0.30579394599E+02  0.51100000000E-03 0. -1.
        -11    1    3    3    0    0  0.14210747290E+01 -0.34771557696E+01 -0.29222912624E+01  0.47591860769E+01  0.51100000000E-03 0.  1.
        -12    1    3    3    0    0  0.36311056061E+01  0.51799855466E+01 -0.10721600023E+02  0.12448690102E+02  0.00000000000E+00 0.  1.
</event>
<event>
 7    1  0.4356471E-010  0.4778727E+02  0.7816164E-02  0.1312668E+00
        -11   -1    0    0    0    0  0.00000000000E+00  0.00000000000E+00  0.45593999997E+02  0.45594000000E+02  0.51100000000E-03 0. -1.
         11   -1    0    0    0    0 -0.00000000000E+00 -0.00000000000E+00 -0.45593999997E+02  0.45594000000E+02  0.51100000000E-03 0.  1.
    9900012    2    1    2    0    0 -0.40374813461E+02  0.12499339317E+02  0.98622800995E+01  0.47787267124E+02  0.19999982126E+02 0.  0.
        -12    1    1    2    0    0  0.40374813461E+02 -0.12499339317E+02 -0.98622800995E+01  0.43400732876E+02  0.00000000000E+00 0.  1.
         11    1    3    3    0    0 -0.28482975743E+02  0.65442463510E+01 -0.13193064382E+01  0.29254873735E+02  0.51100000000E-03 0. -1.
        -11    1    3    3    0    0 -0.10283279608E+01 -0.36487529018E+00 -0.65104790993E+00  0.12706124565E+01  0.51100000000E-03 0.  1.
        -12    1    3    3    0    0 -0.10863509757E+02  0.63199682562E+01  0.11832634448E+02  0.17261780933E+02  0.00000000000E+00 0.  1.
</event>
<event>
 7    1  0.4356471E-010  0.4778726E+02  0.7816164E-02  0.1312668E+00
        -11   -1    0    0    0    0  0.00000000000E+00  0.00000000000E+00  0.45593999997E+02  0.45594000000E+02  0.51100000000E-03 0. -1.
         11   -1    0    0    0    0 -0.00000000000E+00 -0.00000000000E+00 -0.45593999997E+02  0.45594000000E+02  0.51100000000E-03 0.  1.
    9900012    2    1    2    0    0 -0.10838497136E+02 -0.19004294532E+02  0.37483164769E+02  0.47787264154E+02  0.19999968585E+02 0.  0.
        -12    1    1    2    0    0  0.10838497136E+02  0.19004294532E+02 -0.37483164769E+02  0.43400735846E+02  0.00000000000E+00 0.  1.
         11    1    3    3    0    0 -0.51627518948E+01 -0.43206648898E+01  0.32174945641E+01  0.74615295851E+01  0.51100000000E-03 0. -1.
        -11    1    3    3    0    0 -0.28860355284E+00 -0.41698941664E+01  0.10624950804E+00  0.41812197489E+01  0.51100000000E-03 0.  1.
        -12    1    3    3    0    0 -0.53871416886E+01 -0.10513735475E+02  0.34159420697E+02  0.36144514820E+02  0.00000000000E+00 0.  1.
</event>
<event>
 7    1  0.4356471E-010  0.4778727E+02  0.7816164E-02  0.1312668E+00
        -11   -1    0    0    0    0  0.00000000000E+00  0.00000000000E+00  0.45593999997E+02  0.45594000000E+02  0.51100000000E-03 0. -1.
         11   -1    0    0    0    0 -0.00000000000E+00 -0.00000000000E+00 -0.45593999997E+02  0.45594000000E+02  0.51100000000E-03 0.  1.
    9900012    2    1    2    0    0 -0.10307664531E+02  0.16892972890E+02  0.38626453981E+02  0.47787269265E+02  0.19999991888E+02 0.  0.
        -12    1    1    2    0    0  0.10307664531E+02 -0.16892972890E+02 -0.38626453981E+02  0.43400730735E+02  0.00000000000E+00 0.  1.
         11    1    3    3    0    0 -0.15772194359E+01 -0.83221869492E+00  0.28733968498E+01  0.33818070351E+01  0.51100000000E-03 0. -1.
        -11    1    3    3    0    0  0.36037621296E+01  0.92987032874E+01  0.76128744723E+01  0.12546268063E+02  0.51100000000E-03 0.  1.
        -12    1    3    3    0    0 -0.12334207224E+02  0.84264882977E+01  0.28140182659E+02  0.31859194167E+02  0.00000000000E+00 0.  1.
</event>
<event>
 7    1  0.4356471E-010  0.4778727E+02  0.7816164E-02  0.1312668E+00
        -11   -1    0    0    0    0  0.00000000000E+00  0.00000000000E+00  0.45593999997E+02  0.45594000000E+02  0.51100000000E-03 0.  1.
         11   -1    0    0    0    0 -0.00000000000E+00 -0.00000000000E+00 -0.45593999997E+02  0.45594000000E+02  0.51100000000E-03 0. -1.
    9900012    2    1    2    0    0  0.66935747675E+01 -0.23190798246E+02 -0.36069465914E+02  0.47787269156E+02  0.19999991389E+02 0.  0.
        -12    1    1    2    0    0 -0.66935747675E+01  0.23190798246E+02  0.36069465914E+02  0.43400730844E+02  0.00000000000E+00 0.  1.
         11    1    3    3    0    0  0.85248654043E+01 -0.11142429067E+02 -0.14545773153E+02  0.20209071541E+02  0.51100000000E-03 0. -1.
        -11    1    3    3    0    0  0.23712300472E+01 -0.85360836594E+01 -0.20029076174E+02  0.21900944017E+02  0.51100000000E-03 0.  1.
        -12    1    3    3    0    0 -0.42025206840E+01 -0.35122855197E+01 -0.14946165873E+01  0.56772535979E+01  0.00000000000E+00 0.  1.
</event>
<event>
 7    1  0.4356471E-010  0.4778727E+02  0.7816164E-02  0.1312668E+00
        -11   -1    0    0    0    0  0.00000000000E+00  0.00000000000E+00  0.45593999997E+02  0.45594000000E+02  0.51100000000E-03 0. -1.
         11   -1    0    0    0    0 -0.00000000000E+00 -0.00000000000E+00 -0.45593999997E+02  0.45594000000E+02  0.51100000000E-03 0.  1.
    9900012    2    1    2    0    0  0.39096979866E+02  0.10197110342E+02  0.15845141974E+02  0.47787269382E+02  0.19999992420E+02 0.  0.
        -12    1    1    2    0    0 -0.39096979866E+02 -0.10197110342E+02 -0.15845141974E+02  0.43400730618E+02  0.00000000000E+00 0.  1.
         11    1    3    3    0    0  0.10290906092E+02  0.72150193646E+01  0.35560979895E+01  0.13061588181E+02  0.51100000000E-03 0. -1.
        -11    1    3    3    0    0 -0.14549032232E+01  0.65404872370E+00 -0.66263183402E+00  0.17273113010E+01  0.51100000000E-03 0.  1.
        -12    1    3    3    0    0  0.30260976997E+02  0.23280422536E+01  0.12951675819E+02  0.32998369900E+02  0.00000000000E+00 0.  1.
</event>
<event>
 7    1  0.4356471E-010  0.4778727E+02  0.7816164E-02  0.1312668E+00
        -11   -1    0    0    0    0  0.00000000000E+00  0.00000000000E+00  0.45593999997E+02  0.45594000000E+02  0.51100000000E-03 0. -1.
         11   -1    0    0    0    0 -0.00000000000E+00 -0.00000000000E+00 -0.45593999997E+02  0.45594000000E+02  0.51100000000E-03 0.  1.
    9900012    2    1    2    0    0  0.43602224679E+01  0.43164114447E+02 -0.12128364580E+01  0.47787270879E+02  0.19999999245E+02 0.  0.
        -12    1    1    2    0    0 -0.43602224679E+01 -0.43164114447E+02  0.12128364580E+01  0.43400729121E+02  0.00000000000E+00 0.  1.
         11    1    3    3    0    0 -0.30887438552E+01  0.29846881055E+01 -0.21889282123E+01  0.48207995882E+01  0.51100000000E-03 0. -1.
        -11    1    3    3    0    0  0.25521752146E+01  0.39211872795E+01 -0.38540623796E+01  0.60616091176E+01  0.51100000000E-03 0.  1.
         12    1    3    3    0    0  0.48967911085E+01  0.36258239062E+02  0.48301541340E+01  0.36904862173E+02  0.00000000000E+00 0. -1.
</event>
<event>
 7    1  0.4356471E-010  0.4778729E+02  0.7816164E-02  0.1312668E+00
        -11   -1    0    0    0    0  0.00000000000E+00  0.00000000000E+00  0.45593999997E+02  0.45594000000E+02  0.51100000000E-03 0.  1.
         11   -1    0    0    0    0 -0.00000000000E+00 -0.00000000000E+00 -0.45593999997E+02  0.45594000000E+02  0.51100000000E-03 0. -1.
    9900012    2    1    2    0    0  0.96977288707E+01  0.19050222527E+02 -0.37771217389E+02  0.47787288178E+02  0.20000078120E+02 0.  0.
        -12    1    1    2    0    0 -0.96977288707E+01 -0.19050222527E+02  0.37771217389E+02  0.43400711822E+02  0.00000000000E+00 0.  1.
         11    1    3    3    0    0  0.60404989263E+01  0.52830060710E+01 -0.42687218335E+01  0.90895416154E+01  0.51100000000E-03 0.  1.
        -11    1    3    3    0    0  0.41784860350E+00  0.30806556672E+01  0.27620907025E+00  0.31211101402E+01  0.51100000000E-03 0. -1.
        -12    1    3    3    0    0  0.32393813410E+01  0.10686560789E+02 -0.33778704626E+02  0.35576636423E+02  0.00000000000E+00 0.  1.
</event>
<event>
 7    1  0.4356471E-010  0.4778728E+02  0.7816164E-02  0.1312668E+00
        -11   -1    0    0    0    0  0.00000000000E+00  0.00000000000E+00  0.45593999997E+02  0.45594000000E+02  0.51100000000E-03 0.  1.
         11   -1    0    0    0    0 -0.00000000000E+00 -0.00000000000E+00 -0.45593999997E+02  0.45594000000E+02  0.51100000000E-03 0. -1.
    9900012    2    1    2    0    0  0.28574002024E+02 -0.10979109630E+02 -0.30767002905E+02  0.47787275263E+02  0.20000019235E+02 0.  0.
        -12    1    1    2    0    0 -0.28574002024E+02  0.10979109630E+02  0.30767002905E+02  0.43400724737E+02  0.00000000000E+00 0.  1.
         11    1    3    3    0    0  0.17518180213E+02 -0.82701082519E+01 -0.13343819143E+02  0.23523155359E+02  0.51100000000E-03 0. -1.
        -11    1    3    3    0    0  0.35589041539E+01 -0.69383264578E+01 -0.54316880727E+01  0.95031262431E+01  0.51100000000E-03 0.  1.
        -12    1    3    3    0    0  0.74969176567E+01  0.42293250799E+01 -0.11991495690E+02  0.14760993661E+02  0.00000000000E+00 0.  1.
</event>
<event>
 7    1  0.4356471E-010  0.4778725E+02  0.7816164E-02  0.1312668E+00
        -11   -1    0    0    0    0  0.00000000000E+00  0.00000000000E+00  0.45593999997E+02  0.45594000000E+02  0.51100000000E-03 0.  1.
         11   -1    0    0    0    0 -0.00000000000E+00 -0.00000000000E+00 -0.45593999997E+02  0.45594000000E+02  0.51100000000E-03 0. -1.
    9900012    2    1    2    0    0 -0.42229948612E+02 -0.62482660202E+00 -0.99932916233E+01  0.47787252938E+02  0.19999917446E+02 0.  0.
        -12    1    1    2    0    0  0.42229948612E+02  0.62482660202E+00  0.99932916233E+01  0.43400747062E+02  0.00000000000E+00 0.  1.
         11    1    3    3    0    0 -0.11697818115E+02 -0.11549742625E+01 -0.97921355656E-01  0.11755105404E+02  0.51100000000E-03 0. -1.
        -11    1    3    3    0    0 -0.18660337058E+02  0.42710251140E+01  0.14399656639E+01  0.19196961635E+02  0.51100000000E-03 0.  1.
        -12    1    3    3    0    0 -0.11871793439E+02 -0.37408774535E+01 -0.11335335932E+02  0.16835185899E+02  0.00000000000E+00 0.  1.
</event>
<event>
 7    1  0.4356471E-010  0.4778727E+02  0.7816164E-02  0.1312668E+00
        -11   -1    0    0    0    0  0.00000000000E+00  0.00000000000E+00  0.45593999997E+02  0.45594000000E+02  0.51100000000E-03 0.  1.
         11   -1    0    0    0    0 -0.00000000000E+00 -0.00000000000E+00 -0.45593999997E+02  0.45594000000E+02  0.51100000000E-03 0. -1.
    9900012    2    1    2    0    0 -0.17011231677E+02 -0.19577294208E+02 -0.34799005324E+02  0.47787271628E+02  0.20000002662E+02 0.  0.
        -12    1    1    2    0    0  0.17011231677E+02  0.19577294208E+02  0.34799005324E+02  0.43400728372E+02  0.00000000000E+00 0.  1.
         11    1    3    3    0    0 -0.51831645366E+01 -0.10544428907E+02 -0.94686785242E+01  0.15089932036E+02  0.51100000000E-03 0. -1.
        -11    1    3    3    0    0 -0.46711595508E+01 -0.47528277428E+01 -0.70837433178E+00  0.67015593377E+01  0.51100000000E-03 0.  1.
         12    1    3    3    0    0 -0.71569075893E+01 -0.42800375586E+01 -0.24621952468E+02  0.25995780255E+02  0.00000000000E+00 0. -1.
</event>
<event>
 7    1  0.4356471E-010  0.4778727E+02  0.7816164E-02  0.1312668E+00
        -11   -1    0    0    0    0  0.00000000000E+00  0.00000000000E+00  0.45593999997E+02  0.45594000000E+02  0.51100000000E-03 0.  1.
         11   -1    0    0    0    0 -0.00000000000E+00 -0.00000000000E+00 -0.45593999997E+02  0.45594000000E+02  0.51100000000E-03 0. -1.
    9900012    2    1    2    0    0  0.71374879882E+01  0.24084937660E+02 -0.35392029607E+02  0.47787265945E+02  0.19999976749E+02 0.  0.
        -12    1    1    2    0    0 -0.71374879882E+01 -0.24084937660E+02  0.35392029607E+02  0.43400734055E+02  0.00000000000E+00 0.  1.
         11    1    3    3    0    0  0.10046885398E+00  0.20018252460E+02 -0.17882370210E+02  0.26842497837E+02  0.51100000000E-03 0.  1.
        -11    1    3    3    0    0  0.34476313913E+01  0.56732088358E+01 -0.14645253825E+02  0.16079643048E+02  0.51100000000E-03 0. -1.
        -12    1    3    3    0    0  0.35893877429E+01 -0.16065236362E+01 -0.28644055717E+01  0.48651250592E+01  0.00000000000E+00 0.  1.
</event>
<event>
 7    1  0.4356471E-010  0.4778727E+02  0.7816164E-02  0.1312668E+00
        -11   -1    0    0    0    0  0.00000000000E+00  0.00000000000E+00  0.45593999997E+02  0.45594000000E+02  0.51100000000E-03 0.  1.
         11   -1    0    0    0    0 -0.00000000000E+00 -0.00000000000E+00 -0.45593999997E+02  0.45594000000E+02  0.51100000000E-03 0. -1.
    9900012    2    1    2    0    0 -0.67297828444E+01  0.20655340159E+02 -0.37572467595E+02  0.47787269875E+02  0.19999994667E+02 0.  0.
        -12    1    1    2    0    0  0.67297828444E+01 -0.20655340159E+02  0.37572467595E+02  0.43400730125E+02  0.00000000000E+00 0.  1.
         11    1    3    3    0    0 -0.86280572191E+00  0.13925849243E+01 -0.48986124777E+01  0.51652813043E+01  0.51100000000E-03 0. -1.
        -11    1    3    3    0    0  0.85151821887E-01 -0.36725309962E+01 -0.43212332029E+01  0.56716656641E+01  0.51100000000E-03 0.  1.
         12    1    3    3    0    0 -0.59521289444E+01  0.22935286231E+02 -0.28352621915E+02  0.36950322906E+02  0.00000000000E+00 0. -1.
</event>
<event>
 7    1  0.4356471E-010  0.4778727E+02  0.7816164E-02  0.1312668E+00
        -11   -1    0    0    0    0  0.00000000000E+00  0.00000000000E+00  0.45593999997E+02  0.45594000000E+02  0.51100000000E-03 0.  1.
         11   -1    0    0    0    0 -0.00000000000E+00 -0.00000000000E+00 -0.45593999997E+02  0.45594000000E+02  0.51100000000E-03 0. -1.
    9900012    2    1    2    0    0 -0.41224712058E+02 -0.55605407027E+01 -0.12378476039E+02  0.47787272284E+02  0.20000005653E+02 0.  0.
        -12    1    1    2    0    0  0.41224712058E+02  0.55605407027E+01  0.12378476039E+02  0.43400727716E+02  0.00000000000E+00 0.  1.
         11    1    3    3    0    0 -0.19094045288E+02  0.41475075301E+00 -0.46424488455E+01  0.19654691939E+02  0.51100000000E-03 0. -1.
        -11    1    3    3    0    0 -0.15705577417E+02 -0.79876288382E+01  0.33335994449E+00  0.17623237659E+02  0.51100000000E-03 0.  1.
         12    1    3    3    0    0 -0.64250893526E+01  0.20123373826E+01 -0.80693871375E+01  0.10509342687E+02  0.00000000000E+00 0. -1.
</event>
<event>
 7    1  0.4356471E-010  0.4778727E+02  0.7816164E-02  0.1312668E+00
        -11   -1    0    0    0    0  0.00000000000E+00  0.00000000000E+00  0.45593999997E+02  0.45594000000E+02  0.51100000000E-03 0.  1.
         11   -1    0    0    0    0 -0.00000000000E+00 -0.00000000000E+00 -0.45593999997E+02  0.45594000000E+02  0.51100000000E-03 0. -1.
    9900012    2    1    2    0    0 -0.20589984755E+02  0.18205197753E+02 -0.33589388692E+02  0.47787265788E+02  0.19999976034E+02 0.  0.
        -12    1    1    2    0    0  0.20589984755E+02 -0.18205197753E+02  0.33589388692E+02  0.43400734212E+02  0.00000000000E+00 0.  1.
         11    1    3    3    0    0 -0.10789518062E+02  0.52329091885E+01 -0.75561273125E+01  0.14173640986E+02  0.51100000000E-03 0. -1.
        -11    1    3    3    0    0 -0.18946804500E+01 -0.26943105004E+01 -0.19926712669E+01  0.38496574028E+01  0.51100000000E-03 0.  1.
         12    1    3    3    0    0 -0.79057862433E+01  0.15666599065E+02 -0.24040590112E+02  0.29763967399E+02  0.00000000000E+00 0. -1.
</event>
<event>
 7    1  0.4356471E-010  0.4778728E+02  0.7816164E-02  0.1312668E+00
        -11   -1    0    0    0    0  0.00000000000E+00  0.00000000000E+00  0.45593999997E+02  0.45594000000E+02  0.51100000000E-03 0.  1.
         11   -1    0    0    0    0 -0.00000000000E+00 -0.00000000000E+00 -0.45593999997E+02  0.45594000000E+02  0.51100000000E-03 0. -1.
    9900012    2    1    2    0    0  0.23482267700E+02  0.88302853139E+01 -0.35415138517E+02  0.47787275683E+02  0.20000021150E+02 0.  0.
        -12    1    1    2    0    0 -0.23482267700E+02 -0.88302853139E+01  0.35415138517E+02  0.43400724317E+02  0.00000000000E+00 0.  1.
         11    1    3    3    0    0  0.18978133900E+01  0.79045249916E+01 -0.98491787304E+01  0.12770651234E+02  0.51100000000E-03 0. -1.
        -11    1    3    3    0    0  0.13635007145E+01 -0.30090034551E+01 -0.40956887187E+01  0.52619295256E+01  0.51100000000E-03 0.  1.
        -12    1    3    3    0    0  0.20220953595E+02  0.39347637773E+01 -0.21470271068E+02  0.29754694924E+02  0.00000000000E+00 0.  1.
</event>
<event>
 7    1  0.4356471E-010  0.4778728E+02  0.7816164E-02  0.1312668E+00
        -11   -1    0    0    0    0  0.00000000000E+00  0.00000000000E+00  0.45593999997E+02  0.45594000000E+02  0.51100000000E-03 0. -1.
         11   -1    0    0    0    0 -0.00000000000E+00 -0.00000000000E+00 -0.45593999997E+02  0.45594000000E+02  0.51100000000E-03 0.  1.
    9900012    2    1    2    0    0 -0.12559017582E+02 -0.15879731326E+02  0.38389163953E+02  0.47787277672E+02  0.20000030216E+02 0.  0.
        -12    1    1    2    0    0  0.12559017582E+02  0.15879731326E+02 -0.38389163953E+02  0.43400722328E+02  0.00000000000E+00 0.  1.
         11    1    3    3    0    0 -0.37600692702E+01 -0.77148041460E+01  0.28614116552E+02  0.29873466325E+02  0.51100000000E-03 0. -1.
        -11    1    3    3    0    0  0.47377126494E+00 -0.23137067351E+01  0.57804899464E+01  0.62443384237E+01  0.51100000000E-03 0.  1.
        -12    1    3    3    0    0 -0.92727195768E+01 -0.58512204453E+01  0.39945574541E+01  0.11669472923E+02  0.00000000000E+00 0.  1.
</event>
<event>
 7    1  0.4356471E-010  0.4778726E+02  0.7816164E-02  0.1312668E+00
        -11   -1    0    0    0    0  0.00000000000E+00  0.00000000000E+00  0.45593999997E+02  0.45594000000E+02  0.51100000000E-03 0.  1.
         11   -1    0    0    0    0 -0.00000000000E+00 -0.00000000000E+00 -0.45593999997E+02  0.45594000000E+02  0.51100000000E-03 0. -1.
    9900012    2    1    2    0    0  0.32416505010E+02 -0.93564991351E+01 -0.27299275100E+02  0.47787259291E+02  0.19999946412E+02 0.  0.
        -12    1    1    2    0    0 -0.32416505010E+02  0.93564991351E+01  0.27299275100E+02  0.43400740709E+02  0.00000000000E+00 0.  1.
         11    1    3    3    0    0  0.21852624000E+02 -0.81855865778E+01 -0.19360794431E+02  0.30321302158E+02  0.51100000000E-03 0. -1.
        -11    1    3    3    0    0  0.34633631801E+01 -0.53462683843E+01 -0.65058390928E+01  0.91051311202E+01  0.51100000000E-03 0.  1.
        -12    1    3    3    0    0  0.71005178299E+01  0.41753558269E+01 -0.14326415760E+01  0.83608260130E+01  0.00000000000E+00 0.  1.
</event>
<event>
 7    1  0.4356471E-010  0.4778727E+02  0.7816164E-02  0.1312668E+00
        -11   -1    0    0    0    0  0.00000000000E+00  0.00000000000E+00  0.45593999997E+02  0.45594000000E+02  0.51100000000E-03 0.  1.
         11   -1    0    0    0    0 -0.00000000000E+00 -0.00000000000E+00 -0.45593999997E+02  0.45594000000E+02  0.51100000000E-03 0. -1.
    9900012    2    1    2    0    0 -0.14316980101E+02  0.62415396651E+01 -0.40493097186E+02  0.47787266638E+02  0.19999979911E+02 0.  0.
        -12    1    1    2    0    0  0.14316980101E+02 -0.62415396651E+01  0.40493097186E+02  0.43400733362E+02  0.00000000000E+00 0.  1.
         11    1    3    3    0    0 -0.89334022724E+01  0.43466310505E+01 -0.17354914961E+02  0.19997298598E+02  0.51100000000E-03 0. -1.
        -11    1    3    3    0    0 -0.99395886095E+01 -0.98017885606E+00 -0.14406774055E+02  0.17530296952E+02  0.51100000000E-03 0.  1.
         12    1    3    3    0    0  0.45560107805E+01  0.28750874706E+01 -0.87314081700E+01  0.10259671088E+02  0.00000000000E+00 0. -1.
</event>
<event>
 7    1  0.4356471E-010  0.4778727E+02  0.7816164E-02  0.1312668E+00
        -11   -1    0    0    0    0  0.00000000000E+00  0.00000000000E+00  0.45593999997E+02  0.45594000000E+02  0.51100000000E-03 0.  1.
         11   -1    0    0    0    0 -0.00000000000E+00 -0.00000000000E+00 -0.45593999997E+02  0.45594000000E+02  0.51100000000E-03 0. -1.
    9900012    2    1    2    0    0  0.25645147825E+02  0.65727188511E+01 -0.34391122643E+02  0.47787267786E+02  0.19999985143E+02 0.  0.
        -12    1    1    2    0    0 -0.25645147825E+02 -0.65727188511E+01  0.34391122643E+02  0.43400732214E+02  0.00000000000E+00 0.  1.
         11    1    3    3    0    0  0.82623789780E+01  0.64451899428E+01 -0.54587099716E+01  0.11815451519E+02  0.51100000000E-03 0. -1.
        -11    1    3    3    0    0  0.12239635060E+02  0.17143160571E+01 -0.89032027110E+01  0.15232024314E+02  0.51100000000E-03 0.  1.
         12    1    3    3    0    0  0.51431337874E+01 -0.15867871488E+01 -0.20029209961E+02  0.20739791953E+02  0.00000000000E+00 0. -1.
</event>
<event>
 7    1  0.4356471E-010  0.4778728E+02  0.7816164E-02  0.1312668E+00
        -11   -1    0    0    0    0  0.00000000000E+00  0.00000000000E+00  0.45593999997E+02  0.45594000000E+02  0.51100000000E-03 0. -1.
         11   -1    0    0    0    0 -0.00000000000E+00 -0.00000000000E+00 -0.45593999997E+02  0.45594000000E+02  0.51100000000E-03 0.  1.
    9900012    2    1    2    0    0 -0.18389923600E+02  0.35325392981E+02  0.17249627513E+02  0.47787281934E+02  0.20000049650E+02 0.  0.
        -12    1    1    2    0    0  0.18389923600E+02 -0.35325392981E+02 -0.17249627513E+02  0.43400718066E+02  0.00000000000E+00 0.  1.
         11    1    3    3    0    0 -0.10021111822E+02  0.11099594881E+02  0.11811341101E+02  0.19056008699E+02  0.51100000000E-03 0. -1.
        -11    1    3    3    0    0 -0.91730381804E+00  0.13630932035E+02  0.75472829776E+01  0.15607858118E+02  0.51100000000E-03 0.  1.
         12    1    3    3    0    0 -0.74515079591E+01  0.10594866065E+02 -0.21089965650E+01  0.13123415117E+02  0.00000000000E+00 0. -1.
</event>
<event>
 7    1  0.4356471E-010  0.4778727E+02  0.7816164E-02  0.1312668E+00
        -11   -1    0    0    0    0  0.00000000000E+00  0.00000000000E+00  0.45593999997E+02  0.45594000000E+02  0.51100000000E-03 0. -1.
         11   -1    0    0    0    0 -0.00000000000E+00 -0.00000000000E+00 -0.45593999997E+02  0.45594000000E+02  0.51100000000E-03 0.  1.
    9900012    2    1    2    0    0 -0.10262463228E+02 -0.17462318376E+02  0.38384533541E+02  0.47787272705E+02  0.20000007569E+02 0.  0.
        -12    1    1    2    0    0  0.10262463228E+02  0.17462318376E+02 -0.38384533541E+02  0.43400727295E+02  0.00000000000E+00 0.  1.
         11    1    3    3    0    0 -0.12002539038E+02 -0.98553649343E+01  0.24834139034E+02  0.29290333272E+02  0.51100000000E-03 0. -1.
        -11    1    3    3    0    0  0.52964326028E+00 -0.21444198438E+01  0.12636082337E+02  0.12827690187E+02  0.51100000000E-03 0.  1.
        -12    1    3    3    0    0  0.12104325492E+01 -0.54625335981E+01  0.91431217043E+00  0.56692492458E+01  0.00000000000E+00 0.  1.
</event>
<event>
 7    1  0.4356471E-010  0.4778727E+02  0.7816164E-02  0.1312668E+00
        -11   -1    0    0    0    0  0.00000000000E+00  0.00000000000E+00  0.45593999997E+02  0.45594000000E+02  0.51100000000E-03 0. -1.
         11   -1    0    0    0    0 -0.00000000000E+00 -0.00000000000E+00 -0.45593999997E+02  0.45594000000E+02  0.51100000000E-03 0.  1.
    9900012    2    1    2    0    0  0.29536259514E+02  0.47959071792E+01  0.31436158331E+02  0.47787269565E+02  0.19999993252E+02 0.  0.
        -12    1    1    2    0    0 -0.29536259514E+02 -0.47959071792E+01 -0.31436158331E+02  0.43400730435E+02  0.00000000000E+00 0.  1.
         11    1    3    3    0    0  0.10528097587E+02  0.16629852832E+01  0.59060799504E+01  0.12185570955E+02  0.51100000000E-03 0. -1.
        -11    1    3    3    0    0  0.15217931445E+02 -0.35597945590E+01  0.10840610179E+02  0.19020420712E+02  0.51100000000E-03 0.  1.
         12    1    3    3    0    0  0.37902304814E+01  0.66927164549E+01  0.14689468202E+02  0.16581277897E+02  0.00000000000E+00 0. -1.
</event>
<event>
 7    1  0.4356471E-010  0.4778727E+02  0.7816164E-02  0.1312668E+00
        -11   -1    0    0    0    0  0.00000000000E+00  0.00000000000E+00  0.45593999997E+02  0.45594000000E+02  0.51100000000E-03 0.  1.
         11   -1    0    0    0    0 -0.00000000000E+00 -0.00000000000E+00 -0.45593999997E+02  0.45594000000E+02  0.51100000000E-03 0. -1.
    9900012    2    1    2    0    0  0.76538363649E+01  0.34172416165E+02 -0.25637629193E+02  0.47787271109E+02  0.20000000292E+02 0.  0.
        -12    1    1    2    0    0 -0.76538363649E+01 -0.34172416165E+02  0.25637629193E+02  0.43400728891E+02  0.00000000000E+00 0.  1.
         11    1    3    3    0    0  0.84993063600E+01  0.96887691489E+01 -0.80322474072E+01  0.15186423374E+02  0.51100000000E-03 0. -1.
        -11    1    3    3    0    0  0.56181294629E+01  0.92400389517E+01 -0.58506177114E+01  0.12295178988E+02  0.51100000000E-03 0.  1.
        -12    1    3    3    0    0 -0.64635994580E+01  0.15243608065E+02 -0.11754764075E+02  0.20305668746E+02  0.00000000000E+00 0.  1.
</event>
<event>
 7    1  0.4356471E-010  0.4778727E+02  0.7816164E-02  0.1312668E+00
        -11   -1    0    0    0    0  0.00000000000E+00  0.00000000000E+00  0.45593999997E+02  0.45594000000E+02  0.51100000000E-03 0.  1.
         11   -1    0    0    0    0 -0.00000000000E+00 -0.00000000000E+00 -0.45593999997E+02  0.45594000000E+02  0.51100000000E-03 0. -1.
    9900012    2    1    2    0    0  0.76753142226E+01 -0.42561130294E+02 -0.36418389279E+01  0.47787271307E+02  0.20000001197E+02 0.  0.
        -12    1    1    2    0    0 -0.76753142226E+01  0.42561130294E+02  0.36418389279E+01  0.43400728693E+02  0.00000000000E+00 0.  1.
         11    1    3    3    0    0 -0.31226910667E+01 -0.15482267349E+02  0.94445392617E+00  0.15822256326E+02  0.51100000000E-03 0. -1.
        -11    1    3    3    0    0 -0.88116709403E+00 -0.59009876342E+00 -0.27617297046E+01  0.29583480560E+01  0.51100000000E-03 0.  1.
         12    1    3    3    0    0  0.11679172383E+02 -0.26488764181E+02 -0.18245631495E+01  0.29006666925E+02  0.00000000000E+00 0. -1.
</event>
<event>
 7    1  0.4356471E-010  0.4778726E+02  0.7816164E-02  0.1312668E+00
        -11   -1    0    0    0    0  0.00000000000E+00  0.00000000000E+00  0.45593999997E+02  0.45594000000E+02  0.51100000000E-03 0.  1.
         11   -1    0    0    0    0 -0.00000000000E+00 -0.00000000000E+00 -0.45593999997E+02  0.45594000000E+02  0.51100000000E-03 0. -1.
    9900012    2    1    2    0    0 -0.68500462829E+01  0.19669733158E+02 -0.38076269903E+02  0.47787264219E+02  0.19999968880E+02 0.  0.
        -12    1    1    2    0    0  0.68500462829E+01 -0.19669733158E+02  0.38076269903E+02  0.43400735781E+02  0.00000000000E+00 0.  1.
         11    1    3    3    0    0 -0.39137956343E+01  0.52143256117E+01 -0.39794976916E+01  0.76382844926E+01  0.51100000000E-03 0. -1.
        -11    1    3    3    0    0 -0.27527355027E+01  0.17186597421E+01  0.49836867812E+00  0.32832477301E+01  0.51100000000E-03 0.  1.
        -12    1    3    3    0    0 -0.18351514592E+00  0.12736747804E+02 -0.34595140890E+02  0.36865731996E+02  0.00000000000E+00 0.  1.
</event>
<event>
 7    1  0.4356471E-010  0.4778727E+02  0.7816164E-02  0.1312668E+00
        -11   -1    0    0    0    0  0.00000000000E+00  0.00000000000E+00  0.45593999997E+02  0.45594000000E+02  0.51100000000E-03 0.  1.
         11   -1    0    0    0    0 -0.00000000000E+00 -0.00000000000E+00 -0.45593999997E+02  0.45594000000E+02  0.51100000000E-03 0. -1.
    9900012    2    1    2    0    0  0.32437056607E+01 -0.27060534402E+02 -0.33776162603E+02  0.47787270643E+02  0.19999998170E+02 0.  0.
        -12    1    1    2    0    0 -0.32437056607E+01  0.27060534402E+02  0.33776162603E+02  0.43400729357E+02  0.00000000000E+00 0.  1.
         11    1    3    3    0    0 -0.39180336160E+00 -0.30933513352E+00  0.94301724370E+00  0.10669957273E+01  0.51100000000E-03 0. -1.
        -11    1    3    3    0    0  0.89507155824E+00 -0.60786415742E+01  0.87482080831E-01  0.61448099936E+01  0.51100000000E-03 0.  1.
         12    1    3    3    0    0  0.27404374641E+01 -0.20672557694E+02 -0.34806661928E+02  0.40575464922E+02  0.00000000000E+00 0. -1.
</event>
<event>
 7    1  0.4356471E-010  0.4778727E+02  0.7816164E-02  0.1312668E+00
        -11   -1    0    0    0    0  0.00000000000E+00  0.00000000000E+00  0.45593999997E+02  0.45594000000E+02  0.51100000000E-03 0.  1.
         11   -1    0    0    0    0 -0.00000000000E+00 -0.00000000000E+00 -0.45593999997E+02  0.45594000000E+02  0.51100000000E-03 0. -1.
    9900012    2    1    2    0    0 -0.18016384562E+02 -0.94712507954E+01 -0.38331822653E+02  0.47787270372E+02  0.19999996935E+02 0.  0.
        -12    1    1    2    0    0  0.18016384562E+02  0.94712507954E+01  0.38331822653E+02  0.43400729628E+02  0.00000000000E+00 0.  1.
         11    1    3    3    0    0 -0.14735061714E+01 -0.77521410795E+00  0.10078885760E+01  0.19462828656E+01  0.51100000000E-03 0. -1.
        -11    1    3    3    0    0 -0.70077327968E+01  0.38004552449E+00 -0.38857099756E+01  0.80219384084E+01  0.51100000000E-03 0.  1.
         12    1    3    3    0    0 -0.95351455939E+01 -0.90760822119E+01 -0.35454001253E+02  0.37819049098E+02  0.00000000000E+00 0. -1.
</event>
<event>
 7    1  0.4356471E-010  0.4778727E+02  0.7816164E-02  0.1312668E+00
        -11   -1    0    0    0    0  0.00000000000E+00  0.00000000000E+00  0.45593999997E+02  0.45594000000E+02  0.51100000000E-03 0.  1.
         11   -1    0    0    0    0 -0.00000000000E+00 -0.00000000000E+00 -0.45593999997E+02  0.45594000000E+02  0.51100000000E-03 0. -1.
    9900012    2    1    2    0    0 -0.13135924808E+02  0.23439389251E+02 -0.34083216400E+02  0.47787272711E+02  0.20000007597E+02 0.  0.
        -12    1    1    2    0    0  0.13135924808E+02 -0.23439389251E+02  0.34083216400E+02  0.43400727289E+02  0.00000000000E+00 0.  1.
         11    1    3    3    0    0 -0.46284131647E+01  0.37490381900E+01 -0.13276410397E+02  0.14551308157E+02  0.51100000000E-03 0. -1.
        -11    1    3    3    0    0 -0.62649025374E+01  0.12483790545E+02 -0.35661671257E+01  0.14415671279E+02  0.51100000000E-03 0.  1.
         12    1    3    3    0    0 -0.22426091062E+01  0.72065605160E+01 -0.17240638877E+02  0.18820293275E+02  0.00000000000E+00 0. -1.
</event>
<event>
 7    1  0.4356471E-010  0.4778726E+02  0.7816164E-02  0.1312668E+00
        -11   -1    0    0    0    0  0.00000000000E+00  0.00000000000E+00  0.45593999997E+02  0.45594000000E+02  0.51100000000E-03 0.  1.
         11   -1    0    0    0    0 -0.00000000000E+00 -0.00000000000E+00 -0.45593999997E+02  0.45594000000E+02  0.51100000000E-03 0. -1.
    9900012    2    1    2    0    0  0.33334207636E+00 -0.26426989696E+02 -0.34425676399E+02  0.47787261563E+02  0.19999956772E+02 0.  0.
        -12    1    1    2    0    0 -0.33334207636E+00  0.26426989696E+02  0.34425676399E+02  0.43400738437E+02  0.00000000000E+00 0.  1.
         11    1    3    3    0    0 -0.22563832342E+01 -0.39322968949E+01  0.61280887917E+00  0.45749053709E+01  0.51100000000E-03 0. -1.
        -11    1    3    3    0    0 -0.29322312841E+01 -0.16233099251E+01 -0.25802655653E+01  0.42297619395E+01  0.51100000000E-03 0.  1.
         12    1    3    3    0    0  0.55219565947E+01 -0.20871382876E+02 -0.32458219712E+02  0.38982594253E+02  0.00000000000E+00 0. -1.
</event>
<event>
 7    1  0.4356471E-010  0.4778727E+02  0.7816164E-02  0.1312668E+00
        -11   -1    0    0    0    0  0.00000000000E+00  0.00000000000E+00  0.45593999997E+02  0.45594000000E+02  0.51100000000E-03 0.  1.
         11   -1    0    0    0    0 -0.00000000000E+00 -0.00000000000E+00 -0.45593999997E+02  0.45594000000E+02  0.51100000000E-03 0. -1.
    9900012    2    1    2    0    0  0.11934069939E+01  0.19276076709E+02 -0.38866846828E+02  0.47787272634E+02  0.20000007247E+02 0.  0.
        -12    1    1    2    0    0 -0.11934069939E+01 -0.19276076709E+02  0.38866846828E+02  0.43400727366E+02  0.00000000000E+00 0.  1.
         11    1    3    3    0    0  0.22325606240E+00  0.11996252918E+02 -0.34933930546E+02  0.36936965644E+02  0.51100000000E-03 0. -1.
        -11    1    3    3    0    0  0.33837596839E+01  0.20987101692E+01 -0.31584772838E+01  0.50823609658E+01  0.51100000000E-03 0.  1.
        -12    1    3    3    0    0 -0.24136087524E+01  0.51811136219E+01 -0.77443899801E+00  0.57679460239E+01  0.00000000000E+00 0.  1.
</event>
<event>
 7    1  0.4356471E-010  0.4778729E+02  0.7816164E-02  0.1312668E+00
        -11   -1    0    0    0    0  0.00000000000E+00  0.00000000000E+00  0.45593999997E+02  0.45594000000E+02  0.51100000000E-03 0. -1.
         11   -1    0    0    0    0 -0.00000000000E+00 -0.00000000000E+00 -0.45593999997E+02  0.45594000000E+02  0.51100000000E-03 0.  1.
    9900012    2    1    2    0    0 -0.36401419665E+02  0.17518238334E+02  0.15864087568E+02  0.47787293757E+02  0.20000103556E+02 0.  0.
        -12    1    1    2    0    0  0.36401419665E+02 -0.17518238334E+02 -0.15864087568E+02  0.43400706243E+02  0.00000000000E+00 0.  1.
         11    1    3    3    0    0 -0.14311065920E+02  0.13308897895E+02  0.39738228784E+01  0.19943034861E+02  0.51100000000E-03 0. -1.
        -11    1    3    3    0    0 -0.66838547151E+00  0.36845712395E+01  0.15777350092E+01  0.40635024767E+01  0.51100000000E-03 0.  1.
        -12    1    3    3    0    0 -0.21421968274E+02  0.52476919950E+00  0.10312529681E+02  0.23780756419E+02  0.00000000000E+00 0.  1.
</event>
<event>
 7    1  0.4356471E-010  0.4778727E+02  0.7816164E-02  0.1312668E+00
        -11   -1    0    0    0    0  0.00000000000E+00  0.00000000000E+00  0.45593999997E+02  0.45594000000E+02  0.51100000000E-03 0. -1.
         11   -1    0    0    0    0 -0.00000000000E+00 -0.00000000000E+00 -0.45593999997E+02  0.45594000000E+02  0.51100000000E-03 0.  1.
    9900012    2    1    2    0    0 -0.35490931509E+01 -0.42995901300E+02 -0.47307144519E+01  0.47787271319E+02  0.20000001254E+02 0.  0.
        -12    1    1    2    0    0  0.35490931509E+01  0.42995901300E+02  0.47307144519E+01  0.43400728681E+02  0.00000000000E+00 0.  1.
         11    1    3    3    0    0 -0.66260006882E+01 -0.18041390491E+02 -0.54451604056E+01  0.19976121447E+02  0.51100000000E-03 0. -1.
        -11    1    3    3    0    0  0.13378751262E+01  0.83971290268E+00  0.11514068034E+01  0.19546778508E+01  0.51100000000E-03 0.  1.
        -12    1    3    3    0    0  0.17390324110E+01 -0.25794223712E+02 -0.43696084968E+00  0.25856472022E+02  0.00000000000E+00 0.  1.
</event>
<event>
 7    1  0.4356471E-010  0.4778726E+02  0.7816164E-02  0.1312668E+00
        -11   -1    0    0    0    0  0.00000000000E+00  0.00000000000E+00  0.45593999997E+02  0.45594000000E+02  0.51100000000E-03 0. -1.
         11   -1    0    0    0    0 -0.00000000000E+00 -0.00000000000E+00 -0.45593999997E+02  0.45594000000E+02  0.51100000000E-03 0.  1.
    9900012    2    1    2    0    0  0.20619900486E+02 -0.20711242690E+02  0.32085634826E+02  0.47787264614E+02  0.19999970682E+02 0.  0.
        -12    1    1    2    0    0 -0.20619900486E+02  0.20711242690E+02 -0.32085634826E+02  0.43400735386E+02  0.00000000000E+00 0.  1.
         11    1    3    3    0    0  0.96601174455E+01  0.69010247759E-01  0.89384737242E+01  0.13161266818E+02  0.51100000000E-03 0. -1.
        -11    1    3    3    0    0 -0.14987762380E+00 -0.21817071632E+01  0.77372720955E+01  0.80403786719E+01  0.51100000000E-03 0.  1.
        -12    1    3    3    0    0  0.11109660664E+02 -0.18598545775E+02  0.15409889006E+02  0.26585619124E+02  0.00000000000E+00 0.  1.
</event>
<event>
 7    1  0.4356471E-010  0.4778728E+02  0.7816164E-02  0.1312668E+00
        -11   -1    0    0    0    0  0.00000000000E+00  0.00000000000E+00  0.45593999997E+02  0.45594000000E+02  0.51100000000E-03 0.  1.
         11   -1    0    0    0    0 -0.00000000000E+00 -0.00000000000E+00 -0.45593999997E+02  0.45594000000E+02  0.51100000000E-03 0. -1.
    9900012    2    1    2    0    0  0.21761680207E+02  0.11827402670E+02 -0.35639362123E+02  0.47787282127E+02  0.20000050529E+02 0.  0.
        -12    1    1    2    0    0 -0.21761680207E+02 -0.11827402670E+02  0.35639362123E+02  0.43400717873E+02  0.00000000000E+00 0.  1.
         11    1    3    3    0    0  0.56566029557E+01 -0.32802774585E+01 -0.55408834421E+01  0.85708089923E+01  0.51100000000E-03 0. -1.
        -11    1    3    3    0    0  0.15527426376E+02  0.74005317579E+01 -0.18327725408E+02  0.25135122022E+02  0.51100000000E-03 0.  1.
        -12    1    3    3    0    0  0.57765087574E+00  0.77071483711E+01 -0.11770753273E+02  0.14081351113E+02  0.00000000000E+00 0.  1.
</event>
<event>
 7    1  0.4440468E-010  0.4778727E+02  0.7816164E-02  0.1312668E+00
        -11   -1    0    0    0    0  0.00000000000E+00  0.00000000000E+00  0.45593999997E+02  0.45594000000E+02  0.51100000000E-03 0.  1.
         11   -1    0    0    0    0 -0.00000000000E+00 -0.00000000000E+00 -0.45593999997E+02  0.45594000000E+02  0.51100000000E-03 0. -1.
    9900012    2    1    2    0    0  0.22009228620E+02  0.16510150554E+02 -0.33565344991E+02  0.47787267286E+02  0.19999982864E+02 0.  0.
        -12    1    1    2    0    0 -0.22009228620E+02 -0.16510150554E+02  0.33565344991E+02  0.43400732714E+02  0.00000000000E+00 0.  1.
         11    1    3    3    0    0  0.73888800920E+01  0.54799021249E+00 -0.25502360962E+01  0.78357862844E+01  0.51100000000E-03 0. -1.
        -11    1    3    3    0    0 -0.22319528267E+01  0.37261115229E+01 -0.48670292648E+01  0.65233039656E+01  0.51100000000E-03 0.  1.
         12    1    3    3    0    0  0.16852301354E+02  0.12236048818E+02 -0.26148079630E+02  0.33428177036E+02  0.00000000000E+00 0. -1.
</event>
<event>
 7    1  0.4356471E-010  0.4778727E+02  0.7816164E-02  0.1312668E+00
        -11   -1    0    0    0    0  0.00000000000E+00  0.00000000000E+00  0.45593999997E+02  0.45594000000E+02  0.51100000000E-03 0. -1.
         11   -1    0    0    0    0 -0.00000000000E+00 -0.00000000000E+00 -0.45593999997E+02  0.45594000000E+02  0.51100000000E-03 0.  1.
    9900012    2    1    2    0    0  0.42957209482E+02  0.99859737222E+00  0.61076989748E+01  0.47787273855E+02  0.20000012813E+02 0.  0.
        -12    1    1    2    0    0 -0.42957209482E+02 -0.99859737222E+00 -0.61076989748E+01  0.43400726145E+02  0.00000000000E+00 0.  1.
         11    1    3    3    0    0  0.16035589472E+02  0.40494789704E+01 -0.26393375678E-01  0.16539017702E+02  0.51100000000E-03 0. -1.
        -11    1    3    3    0    0  0.95748501730E+01  0.52547073022E+01 -0.41863191336E+00  0.10930002635E+02  0.51100000000E-03 0.  1.
        -12    1    3    3    0    0  0.17346769836E+02 -0.83055889003E+01  0.65527242639E+01  0.20318253518E+02  0.00000000000E+00 0.  1.
</event>
<event>
 7    1  0.4356471E-010  0.4778727E+02  0.7816164E-02  0.1312668E+00
        -11   -1    0    0    0    0  0.00000000000E+00  0.00000000000E+00  0.45593999997E+02  0.45594000000E+02  0.51100000000E-03 0. -1.
         11   -1    0    0    0    0 -0.00000000000E+00 -0.00000000000E+00 -0.45593999997E+02  0.45594000000E+02  0.51100000000E-03 0.  1.
    9900012    2    1    2    0    0 -0.37205993081E+02 -0.17023619482E+02  0.14475282260E+02  0.47787270307E+02  0.19999996636E+02 0.  0.
        -12    1    1    2    0    0  0.37205993081E+02  0.17023619482E+02 -0.14475282260E+02  0.43400729693E+02  0.00000000000E+00 0.  1.
         11    1    3    3    0    0 -0.76920245151E+01 -0.24864340885E+01  0.64070382259E+01  0.10315024707E+02  0.51100000000E-03 0. -1.
        -11    1    3    3    0    0 -0.61111678335E+01 -0.89492037151E+01  0.79006102393E+01  0.13410975425E+02  0.51100000000E-03 0.  1.
         12    1    3    3    0    0 -0.23402800732E+02 -0.55879816789E+01  0.16763379529E+00  0.24061270175E+02  0.00000000000E+00 0. -1.
</event>
<event>
 7    1  0.4356471E-010  0.4778733E+02  0.7816164E-02  0.1312667E+00
        -11   -1    0    0    0    0  0.00000000000E+00  0.00000000000E+00  0.45593999997E+02  0.45594000000E+02  0.51100000000E-03 0.  1.
         11   -1    0    0    0    0 -0.00000000000E+00 -0.00000000000E+00 -0.45593999997E+02  0.45594000000E+02  0.51100000000E-03 0. -1.
    9900012    2    1    2    0    0  0.41212466372E+01 -0.17352722969E+02 -0.39566606156E+02  0.47787331907E+02  0.20000277493E+02 0.  0.
        -12    1    1    2    0    0 -0.41212466372E+01  0.17352722969E+02  0.39566606156E+02  0.43400668093E+02  0.00000000000E+00 0.  1.
         11    1    3    3    0    0  0.22878531371E+01 -0.21783507472E+01 -0.21739015740E+02  0.21967345984E+02  0.51100000000E-03 0. -1.
        -11    1    3    3    0    0 -0.23264947393E+01  0.16207057093E+00 -0.45480072018E+01  0.51110874000E+01  0.51100000000E-03 0.  1.
         12    1    3    3    0    0  0.41598882394E+01 -0.15336442793E+02 -0.13279583213E+02  0.20708898523E+02  0.00000000000E+00 0. -1.
</event>
<event>
 7    1  0.4356471E-010  0.4778727E+02  0.7816164E-02  0.1312668E+00
        -11   -1    0    0    0    0  0.00000000000E+00  0.00000000000E+00  0.45593999997E+02  0.45594000000E+02  0.51100000000E-03 0.  1.
         11   -1    0    0    0    0 -0.00000000000E+00 -0.00000000000E+00 -0.45593999997E+02  0.45594000000E+02  0.51100000000E-03 0. -1.
    9900012    2    1    2    0    0  0.77557361747E+01  0.13559836646E+02 -0.40492007825E+02  0.47787270615E+02  0.19999998040E+02 0.  0.
        -12    1    1    2    0    0 -0.77557361747E+01 -0.13559836646E+02  0.40492007825E+02  0.43400729385E+02  0.00000000000E+00 0.  1.
         11    1    3    3    0    0  0.38443911669E+00  0.70641027453E+01 -0.83166789041E+01  0.10918630376E+02  0.51100000000E-03 0. -1.
        -11    1    3    3    0    0 -0.50790091486E+00  0.34496785526E+01  0.11785304393E+00  0.34888587040E+01  0.51100000000E-03 0.  1.
        -12    1    3    3    0    0  0.78791979729E+01  0.30460553482E+01 -0.32293181965E+02  0.33379781535E+02  0.00000000000E+00 0.  1.
</event>
<event>
 7    1  0.4356471E-010  0.4778727E+02  0.7816164E-02  0.1312668E+00
        -11   -1    0    0    0    0  0.00000000000E+00  0.00000000000E+00  0.45593999997E+02  0.45594000000E+02  0.51100000000E-03 0.  1.
         11   -1    0    0    0    0 -0.00000000000E+00 -0.00000000000E+00 -0.45593999997E+02  0.45594000000E+02  0.51100000000E-03 0. -1.
    9900012    2    1    2    0    0  0.26639239028E+02  0.18059997362E+02 -0.29117186025E+02  0.47787273246E+02  0.20000010040E+02 0.  0.
        -12    1    1    2    0    0 -0.26639239028E+02 -0.18059997362E+02  0.29117186025E+02  0.43400726754E+02  0.00000000000E+00 0.  1.
         11    1    3    3    0    0  0.17413861356E+01  0.68866765113E+01 -0.13118183076E+02  0.14917957854E+02  0.51100000000E-03 0. -1.
        -11    1    3    3    0    0 -0.82444127427E-01  0.92100811568E+00 -0.25309853871E+01  0.26946131957E+01  0.51100000000E-03 0.  1.
        -12    1    3    3    0    0  0.24980297020E+02  0.10252312735E+02 -0.13468017561E+02  0.30174702197E+02  0.00000000000E+00 0.  1.
</event>
<event>
 7    1  0.4356471E-010  0.4778728E+02  0.7816164E-02  0.1312668E+00
        -11   -1    0    0    0    0  0.00000000000E+00  0.00000000000E+00  0.45593999997E+02  0.45594000000E+02  0.51100000000E-03 0.  1.
         11   -1    0    0    0    0 -0.00000000000E+00 -0.00000000000E+00 -0.45593999997E+02  0.45594000000E+02  0.51100000000E-03 0. -1.
    9900012    2    1    2    0    0  0.15534918915E+02  0.21463081276E+00 -0.40524594086E+02  0.47787279984E+02  0.20000040758E+02 0.  0.
        -12    1    1    2    0    0 -0.15534918915E+02 -0.21463081276E+00  0.40524594086E+02  0.43400720016E+02  0.00000000000E+00 0.  1.
         11    1    3    3    0    0  0.11198655270E+02 -0.19013016661E+01 -0.19423055240E+02  0.22500664501E+02  0.51100000000E-03 0. -1.
        -11    1    3    3    0    0  0.21713052404E+01  0.25022795896E+00 -0.22138666965E+02  0.22246297574E+02  0.51100000000E-03 0.  1.
         12    1    3    3    0    0  0.21649584043E+01  0.18657045199E+01  0.10371281194E+01  0.30403179084E+01  0.00000000000E+00 0. -1.
</event>
<event>
 7    1  0.4356471E-010  0.4778727E+02  0.7816164E-02  0.1312668E+00
        -11   -1    0    0    0    0  0.00000000000E+00  0.00000000000E+00  0.45593999997E+02  0.45594000000E+02  0.51100000000E-03 0. -1.
         11   -1    0    0    0    0 -0.00000000000E+00 -0.00000000000E+00 -0.45593999997E+02  0.45594000000E+02  0.51100000000E-03 0.  1.
    9900012    2    1    2    0    0  0.22561554706E+02  0.19348030229E+02  0.31626778747E+02  0.47787272375E+02  0.20000006067E+02 0.  0.
        -12    1    1    2    0    0 -0.22561554706E+02 -0.19348030229E+02 -0.31626778747E+02  0.43400727625E+02  0.00000000000E+00 0.  1.
         11    1    3    3    0    0  0.10132819138E+02  0.54026309578E+01  0.16655048894E+02  0.20230004915E+02  0.51100000000E-03 0. -1.
        -11    1    3    3    0    0  0.27299894125E+01  0.43325755759E+01  0.12726870051E+02  0.13718501189E+02  0.51100000000E-03 0.  1.
        -12    1    3    3    0    0  0.96987461553E+01  0.96128236953E+01  0.22448598021E+01  0.13838766271E+02  0.00000000000E+00 0.  1.
</event>
<event>
 7    1  0.4356471E-010  0.4778727E+02  0.7816164E-02  0.1312668E+00
        -11   -1    0    0    0    0  0.00000000000E+00  0.00000000000E+00  0.45593999997E+02  0.45594000000E+02  0.51100000000E-03 0.  1.
         11   -1    0    0    0    0 -0.00000000000E+00 -0.00000000000E+00 -0.45593999997E+02  0.45594000000E+02  0.51100000000E-03 0. -1.
    9900012    2    1    2    0    0 -0.96107373669E+01 -0.37477774712E+02  0.19664015390E+02  0.47787269922E+02  0.19999994881E+02 0.  0.
        -12    1    1    2    0    0  0.96107373669E+01  0.37477774712E+02 -0.19664015390E+02  0.43400730078E+02  0.00000000000E+00 0.  1.
         11    1    3    3    0    0 -0.32444934275E+01 -0.53688402045E+01  0.11713694840E+01  0.63814801944E+01  0.51100000000E-03 0. -1.
        -11    1    3    3    0    0  0.53879983179E+01 -0.96065835265E+01  0.21764228771E+01  0.11227367890E+02  0.51100000000E-03 0.  1.
        -12    1    3    3    0    0 -0.11754242257E+02 -0.22502350981E+02  0.16316223029E+02  0.30178421838E+02  0.00000000000E+00 0.  1.
</event>
<event>
 7    1  0.4356471E-010  0.4778727E+02  0.7816164E-02  0.1312668E+00
        -11   -1    0    0    0    0  0.00000000000E+00  0.00000000000E+00  0.45593999997E+02  0.45594000000E+02  0.51100000000E-03 0.  1.
         11   -1    0    0    0    0 -0.00000000000E+00 -0.00000000000E+00 -0.45593999997E+02  0.45594000000E+02  0.51100000000E-03 0. -1.
    9900012    2    1    2    0    0 -0.51063667405E+01  0.20052412917E+02 -0.38150346552E+02  0.47787272044E+02  0.20000004557E+02 0.  0.
        -12    1    1    2    0    0  0.51063667405E+01 -0.20052412917E+02  0.38150346552E+02  0.43400727956E+02  0.00000000000E+00 0.  1.
         11    1    3    3    0    0 -0.77607416932E+01  0.78099159945E+01 -0.13157508958E+02  0.17156454812E+02  0.51100000000E-03 0. -1.
        -11    1    3    3    0    0 -0.10402840022E+01 -0.89503729725E-01 -0.12983247414E+02  0.13025164697E+02  0.51100000000E-03 0.  1.
         12    1    3    3    0    0  0.36946589549E+01  0.12332000653E+02 -0.12009590180E+02  0.17605652535E+02  0.00000000000E+00 0. -1.
</event>
<event>
 7    1  0.4356471E-010  0.4778728E+02  0.7816164E-02  0.1312668E+00
        -11   -1    0    0    0    0  0.00000000000E+00  0.00000000000E+00  0.45593999997E+02  0.45594000000E+02  0.51100000000E-03 0.  1.
         11   -1    0    0    0    0 -0.00000000000E+00 -0.00000000000E+00 -0.45593999997E+02  0.45594000000E+02  0.51100000000E-03 0. -1.
    9900012    2    1    2    0    0 -0.18386288113E+02  0.57343810486E+01 -0.38893238693E+02  0.47787277280E+02  0.20000028429E+02 0.  0.
        -12    1    1    2    0    0  0.18386288113E+02 -0.57343810486E+01  0.38893238693E+02  0.43400722720E+02  0.00000000000E+00 0.  1.
         11    1    3    3    0    0 -0.17292642542E+01  0.51646937675E+01 -0.20543065911E+02  0.21252810964E+02  0.51100000000E-03 0. -1.
        -11    1    3    3    0    0 -0.86941413906E+01  0.96658319872E+00 -0.15978648508E+02  0.18216464695E+02  0.51100000000E-03 0.  1.
        -12    1    3    3    0    0 -0.79628824685E+01 -0.39689591760E+00 -0.23715242744E+01  0.83180016206E+01  0.00000000000E+00 0.  1.
</event>
<event>
 7    1  0.4356471E-010  0.4778727E+02  0.7816164E-02  0.1312668E+00
        -11   -1    0    0    0    0  0.00000000000E+00  0.00000000000E+00  0.45593999997E+02  0.45594000000E+02  0.51100000000E-03 0.  1.
         11   -1    0    0    0    0 -0.00000000000E+00 -0.00000000000E+00 -0.45593999997E+02  0.45594000000E+02  0.51100000000E-03 0. -1.
    9900012    2    1    2    0    0  0.13757513182E+02 -0.41025556549E+02 -0.33552705898E+01  0.47787270745E+02  0.19999998636E+02 0.  0.
        -12    1    1    2    0    0 -0.13757513182E+02  0.41025556549E+02  0.33552705898E+01  0.43400729255E+02  0.00000000000E+00 0.  1.
         11    1    3    3    0    0  0.58431514186E+01 -0.10549385452E+02 -0.21103848279E+00  0.12061363497E+02  0.51100000000E-03 0. -1.
        -11    1    3    3    0    0  0.11592716496E+02 -0.14798260177E+02  0.17896501348E+01  0.18883390264E+02  0.51100000000E-03 0.  1.
        -12    1    3    3    0    0 -0.36783547325E+01 -0.15677910921E+02 -0.49338822418E+01  0.16842516984E+02  0.00000000000E+00 0.  1.
</event>
<event>
 7    1  0.4356471E-010  0.4778726E+02  0.7816164E-02  0.1312668E+00
        -11   -1    0    0    0    0  0.00000000000E+00  0.00000000000E+00  0.45593999997E+02  0.45594000000E+02  0.51100000000E-03 0.  1.
         11   -1    0    0    0    0 -0.00000000000E+00 -0.00000000000E+00 -0.45593999997E+02  0.45594000000E+02  0.51100000000E-03 0. -1.
    9900012    2    1    2    0    0 -0.12324729424E+02  0.39953484005E+02  0.11638061093E+02  0.47787259159E+02  0.19999945810E+02 0.  0.
        -12    1    1    2    0    0  0.12324729424E+02 -0.39953484005E+02 -0.11638061093E+02  0.43400740841E+02  0.00000000000E+00 0.  1.
         11    1    3    3    0    0 -0.43786877627E+01  0.78885283833E+01  0.31241850542E+01  0.95478960557E+01  0.51100000000E-03 0. -1.
        -11    1    3    3    0    0 -0.46268024912E+01  0.57556381781E+00 -0.17095324302E+01  0.49659919847E+01  0.51100000000E-03 0.  1.
         12    1    3    3    0    0 -0.33192391700E+01  0.31489391804E+02  0.10223408469E+02  0.33273371119E+02  0.00000000000E+00 0. -1.
</event>
<event>
 7    1  0.4356471E-010  0.4778727E+02  0.7816164E-02  0.1312668E+00
        -11   -1    0    0    0    0  0.00000000000E+00  0.00000000000E+00  0.45593999997E+02  0.45594000000E+02  0.51100000000E-03 0.  1.
         11   -1    0    0    0    0 -0.00000000000E+00 -0.00000000000E+00 -0.45593999997E+02  0.45594000000E+02  0.51100000000E-03 0. -1.
    9900012    2    1    2    0    0 -0.34152853620E+01 -0.43228018148E+02 -0.18159090495E+01  0.47787271287E+02  0.20000001106E+02 0.  0.
        -12    1    1    2    0    0  0.34152853620E+01  0.43228018148E+02  0.18159090495E+01  0.43400728713E+02  0.00000000000E+00 0.  1.
         11    1    3    3    0    0  0.38223929855E+01 -0.11240760792E+02 -0.23825795760E+01  0.12109586162E+02  0.51100000000E-03 0. -1.
        -11    1    3    3    0    0 -0.50216231468E+01 -0.15246503649E+02 -0.65701332481E+01  0.17344717458E+02  0.51100000000E-03 0.  1.
        -12    1    3    3    0    0 -0.22160552007E+01 -0.16740753708E+02  0.71368037747E+01  0.18332967667E+02  0.00000000000E+00 0.  1.
</event>
<event>
 7    1  0.4356471E-010  0.4778727E+02  0.7816164E-02  0.1312668E+00
        -11   -1    0    0    0    0  0.00000000000E+00  0.00000000000E+00  0.45593999997E+02  0.45594000000E+02  0.51100000000E-03 0. -1.
         11   -1    0    0    0    0 -0.00000000000E+00 -0.00000000000E+00 -0.45593999997E+02  0.45594000000E+02  0.51100000000E-03 0.  1.
    9900012    2    1    2    0    0 -0.27352592412E+02 -0.25415800453E+02  0.22124550919E+02  0.47787274457E+02  0.20000015558E+02 0.  0.
        -12    1    1    2    0    0  0.27352592412E+02  0.25415800453E+02 -0.22124550919E+02  0.43400725543E+02  0.00000000000E+00 0.  1.
         11    1    3    3    0    0 -0.42677935809E+01  0.17179906422E+01  0.26473314603E+01  0.53079108902E+01  0.51100000000E-03 0.  1.
        -11    1    3    3    0    0 -0.16593809774E+02 -0.98701795876E+01  0.99652066750E+01  0.21727409239E+02  0.51100000000E-03 0. -1.
        -12    1    3    3    0    0 -0.64909890577E+01 -0.17263611507E+02  0.95120127837E+01  0.20751954328E+02  0.00000000000E+00 0.  1.
</event>
<event>
 7    1  0.4356471E-010  0.4778727E+02  0.7816164E-02  0.1312668E+00
        -11   -1    0    0    0    0  0.00000000000E+00  0.00000000000E+00  0.45593999997E+02  0.45594000000E+02  0.51100000000E-03 0.  1.
         11   -1    0    0    0    0 -0.00000000000E+00 -0.00000000000E+00 -0.45593999997E+02  0.45594000000E+02  0.51100000000E-03 0. -1.
    9900012    2    1    2    0    0  0.32897556910E+01 -0.20683824213E+02 -0.38012891349E+02  0.47787274369E+02  0.20000015160E+02 0.  0.
        -12    1    1    2    0    0 -0.32897556910E+01  0.20683824213E+02  0.38012891349E+02  0.43400725631E+02  0.00000000000E+00 0.  1.
         11    1    3    3    0    0  0.18535209455E+01 -0.94804383104E+01 -0.71205151103E+01  0.12000666071E+02  0.51100000000E-03 0. -1.
        -11    1    3    3    0    0  0.21435847138E+01  0.26008150176E+01 -0.24606304963E+01  0.41729961516E+01  0.51100000000E-03 0.  1.
         12    1    3    3    0    0 -0.70734996835E+00 -0.13804200920E+02 -0.28431745742E+02  0.31613612147E+02  0.00000000000E+00 0. -1.
</event>
<event>
 7    1  0.4356471E-010  0.4778727E+02  0.7816164E-02  0.1312668E+00
        -11   -1    0    0    0    0  0.00000000000E+00  0.00000000000E+00  0.45593999997E+02  0.45594000000E+02  0.51100000000E-03 0.  1.
         11   -1    0    0    0    0 -0.00000000000E+00 -0.00000000000E+00 -0.45593999997E+02  0.45594000000E+02  0.51100000000E-03 0. -1.
    9900012    2    1    2    0    0 -0.12691464185E+02 -0.21008493168E+02 -0.35793760490E+02  0.47787270302E+02  0.19999996613E+02 0.  0.
        -12    1    1    2    0    0  0.12691464185E+02  0.21008493168E+02  0.35793760490E+02  0.43400729698E+02  0.00000000000E+00 0.  1.
         11    1    3    3    0    0 -0.47037039525E+01 -0.92340540429E+01 -0.85358749984E+01  0.13425861134E+02  0.51100000000E-03 0. -1.
        -11    1    3    3    0    0  0.17492972001E+00  0.58180620286E+00  0.17170623370E+01  0.18213737109E+01  0.51100000000E-03 0.  1.
         12    1    3    3    0    0 -0.81626899529E+01 -0.12356245328E+02 -0.28974947828E+02  0.32540035457E+02  0.00000000000E+00 0. -1.
</event>
<event>
 7    1  0.4356471E-010  0.4778727E+02  0.7816164E-02  0.1312668E+00
        -11   -1    0    0    0    0  0.00000000000E+00  0.00000000000E+00  0.45593999997E+02  0.45594000000E+02  0.51100000000E-03 0. -1.
         11   -1    0    0    0    0 -0.00000000000E+00 -0.00000000000E+00 -0.45593999997E+02  0.45594000000E+02  0.51100000000E-03 0.  1.
    9900012    2    1    2    0    0  0.42760463329E+02 -0.36953391373E+01 -0.64428725156E+01  0.47787270033E+02  0.19999995388E+02 0.  0.
        -12    1    1    2    0    0 -0.42760463329E+02  0.36953391373E+01  0.64428725156E+01  0.43400729967E+02  0.00000000000E+00 0.  1.
         11    1    3    3    0    0  0.10266530627E+02  0.28037940890E+01  0.32885584805E+01  0.11139009361E+02  0.51100000000E-03 0. -1.
        -11    1    3    3    0    0  0.30756204865E+01  0.24024380609E+01 -0.35949126190E+01  0.53060858467E+01  0.51100000000E-03 0.  1.
         12    1    3    3    0    0  0.29418312215E+02 -0.89015712872E+01 -0.61365183771E+01  0.31342174825E+02  0.00000000000E+00 0. -1.
</event>
<event>
 7    1  0.4356471E-010  0.4778728E+02  0.7816164E-02  0.1312668E+00
        -11   -1    0    0    0    0  0.00000000000E+00  0.00000000000E+00  0.45593999997E+02  0.45594000000E+02  0.51100000000E-03 0. -1.
         11   -1    0    0    0    0 -0.00000000000E+00 -0.00000000000E+00 -0.45593999997E+02  0.45594000000E+02  0.51100000000E-03 0.  1.
    9900012    2    1    2    0    0 -0.36701079292E+02  0.74167481262E+01  0.21946423273E+02  0.47787275716E+02  0.20000021298E+02 0.  0.
        -12    1    1    2    0    0  0.36701079292E+02 -0.74167481262E+01 -0.21946423273E+02  0.43400724284E+02  0.00000000000E+00 0.  1.
         11    1    3    3    0    0 -0.14666489538E+02  0.62252659136E+01  0.38922135511E+01  0.16401499250E+02  0.51100000000E-03 0.  1.
        -11    1    3    3    0    0 -0.21557580254E+02  0.47546702860E+01  0.15677177456E+02  0.27076005044E+02  0.51100000000E-03 0. -1.
         12    1    3    3    0    0 -0.47700950006E+00 -0.35631880734E+01  0.23770322658E+01  0.43097714211E+01  0.00000000000E+00 0. -1.
</event>
<event>
 7    1  0.4356471E-010  0.4778727E+02  0.7816164E-02  0.1312668E+00
        -11   -1    0    0    0    0  0.00000000000E+00  0.00000000000E+00  0.45593999997E+02  0.45594000000E+02  0.51100000000E-03 0. -1.
         11   -1    0    0    0    0 -0.00000000000E+00 -0.00000000000E+00 -0.45593999997E+02  0.45594000000E+02  0.51100000000E-03 0.  1.
    9900012    2    1    2    0    0 -0.71062655482E+01 -0.28030260217E+02  0.32364010130E+02  0.47787266716E+02  0.19999980266E+02 0.  0.
        -12    1    1    2    0    0  0.71062655482E+01  0.28030260217E+02 -0.32364010130E+02  0.43400733284E+02  0.00000000000E+00 0.  1.
         11    1    3    3    0    0 -0.55119326098E+01 -0.16818989745E+02  0.22409441550E+02  0.28555960638E+02  0.51100000000E-03 0. -1.
        -11    1    3    3    0    0 -0.21550356752E+01 -0.13615514866E+02  0.72715878259E+01  0.15585326869E+02  0.51100000000E-03 0.  1.
        -12    1    3    3    0    0  0.56070273681E+00  0.24042443941E+01  0.26829807540E+01  0.36459792089E+01  0.00000000000E+00 0.  1.
</event>
<event>
 7    1  0.4356471E-010  0.4778728E+02  0.7816164E-02  0.1312668E+00
        -11   -1    0    0    0    0  0.00000000000E+00  0.00000000000E+00  0.45593999997E+02  0.45594000000E+02  0.51100000000E-03 0.  1.
         11   -1    0    0    0    0 -0.00000000000E+00 -0.00000000000E+00 -0.45593999997E+02  0.45594000000E+02  0.51100000000E-03 0. -1.
    9900012    2    1    2    0    0 -0.15802674160E+01  0.21810836780E+02 -0.37488838752E+02  0.47787275615E+02  0.20000020839E+02 0.  0.
        -12    1    1    2    0    0  0.15802674160E+01 -0.21810836780E+02  0.37488838752E+02  0.43400724385E+02  0.00000000000E+00 0.  1.
         11    1    3    3    0    0 -0.27135536898E+01  0.18264019974E+02 -0.20581949333E+02  0.27650577532E+02  0.51100000000E-03 0. -1.
        -11    1    3    3    0    0 -0.24584001835E+01  0.50992996642E+01 -0.14442811353E+02  0.15512620300E+02  0.51100000000E-03 0.  1.
        -12    1    3    3    0    0  0.35916864573E+01 -0.15524828578E+01 -0.24640780663E+01  0.46240777835E+01  0.00000000000E+00 0.  1.
</event>
<event>
 7    1  0.4356471E-010  0.4778728E+02  0.7816164E-02  0.1312668E+00
        -11   -1    0    0    0    0  0.00000000000E+00  0.00000000000E+00  0.45593999997E+02  0.45594000000E+02  0.51100000000E-03 0.  1.
         11   -1    0    0    0    0 -0.00000000000E+00 -0.00000000000E+00 -0.45593999997E+02  0.45594000000E+02  0.51100000000E-03 0. -1.
    9900012    2    1    2    0    0  0.27348549085E+02 -0.33504605011E+02 -0.36222708282E+01  0.47787279500E+02  0.20000038552E+02 0.  0.
        -12    1    1    2    0    0 -0.27348549085E+02  0.33504605011E+02  0.36222708282E+01  0.43400720500E+02  0.00000000000E+00 0.  1.
         11    1    3    3    0    0  0.35552390797E+01 -0.86081291425E+01 -0.24611519230E+01  0.96331137903E+01  0.51100000000E-03 0. -1.
        -11    1    3    3    0    0  0.13202318462E+02 -0.16569701881E+02  0.71076207393E+01  0.22346688928E+02  0.51100000000E-03 0.  1.
        -12    1    3    3    0    0  0.10590991543E+02 -0.83267739870E+01 -0.82687396445E+01  0.15807476782E+02  0.00000000000E+00 0.  1.
</event>
<event>
 7    1  0.4356471E-010  0.4778727E+02  0.7816164E-02  0.1312668E+00
        -11   -1    0    0    0    0  0.00000000000E+00  0.00000000000E+00  0.45593999997E+02  0.45594000000E+02  0.51100000000E-03 0.  1.
         11   -1    0    0    0    0 -0.00000000000E+00 -0.00000000000E+00 -0.45593999997E+02  0.45594000000E+02  0.51100000000E-03 0. -1.
    9900012    2    1    2    0    0  0.44206808353E+01 -0.18063519293E+02 -0.39214666152E+02  0.47787272014E+02  0.20000004419E+02 0.  0.
        -12    1    1    2    0    0 -0.44206808353E+01  0.18063519293E+02  0.39214666152E+02  0.43400727986E+02  0.00000000000E+00 0.  1.
         11    1    3    3    0    0 -0.52688723371E+01 -0.18770574177E+01 -0.83811324638E+01  0.10076097553E+02  0.51100000000E-03 0. -1.
        -11    1    3    3    0    0  0.16308927321E+01  0.11770116277E+01 -0.95483384540E+00  0.22264041432E+01  0.51100000000E-03 0.  1.
         12    1    3    3    0    0  0.80586604403E+01 -0.17363473503E+02 -0.29878699843E+02  0.35484770318E+02  0.00000000000E+00 0. -1.
</event>
<event>
 7    1  0.4356471E-010  0.4778727E+02  0.7816164E-02  0.1312668E+00
        -11   -1    0    0    0    0  0.00000000000E+00  0.00000000000E+00  0.45593999997E+02  0.45594000000E+02  0.51100000000E-03 0.  1.
         11   -1    0    0    0    0 -0.00000000000E+00 -0.00000000000E+00 -0.45593999997E+02  0.45594000000E+02  0.51100000000E-03 0. -1.
    9900012    2    1    2    0    0 -0.17061590841E+02  0.11143705154E+02 -0.38318968647E+02  0.47787269536E+02  0.19999993123E+02 0.  0.
        -12    1    1    2    0    0  0.17061590841E+02 -0.11143705154E+02  0.38318968647E+02  0.43400730464E+02  0.00000000000E+00 0.  1.
         11    1    3    3    0    0 -0.12453004993E+02  0.63813821102E+01 -0.13486091501E+02  0.19433837378E+02  0.51100000000E-03 0. -1.
        -11    1    3    3    0    0 -0.14890948257E+01  0.39027907771E+01 -0.99123625487E+00  0.42932189350E+01  0.51100000000E-03 0.  1.
        -12    1    3    3    0    0 -0.31194910224E+01  0.85953226695E+00 -0.23841640892E+02  0.24060213223E+02  0.00000000000E+00 0.  1.
</event>
<event>
 7    1  0.4356471E-010  0.4778727E+02  0.7816164E-02  0.1312668E+00
        -11   -1    0    0    0    0  0.00000000000E+00  0.00000000000E+00  0.45593999997E+02  0.45594000000E+02  0.51100000000E-03 0.  1.
         11   -1    0    0    0    0 -0.00000000000E+00 -0.00000000000E+00 -0.45593999997E+02  0.45594000000E+02  0.51100000000E-03 0. -1.
    9900012    2    1    2    0    0  0.27184986994E+01  0.82240500845E+01 -0.42527615190E+02  0.47787270873E+02  0.19999999218E+02 0.  0.
        -12    1    1    2    0    0 -0.27184986994E+01 -0.82240500845E+01  0.42527615190E+02  0.43400729127E+02  0.00000000000E+00 0.  1.
         11    1    3    3    0    0 -0.32379853546E+01  0.70416542337E+00 -0.10169467070E+02  0.10695721521E+02  0.51100000000E-03 0. -1.
        -11    1    3    3    0    0 -0.12999880630E+01  0.23930839156E+00 -0.23456349167E+02  0.23493564097E+02  0.51100000000E-03 0.  1.
        -12    1    3    3    0    0  0.72564721170E+01  0.72805762696E+01 -0.89017989537E+01  0.13597985256E+02  0.00000000000E+00 0.  1.
</event>
<event>
 7    1  0.4356471E-010  0.4778727E+02  0.7816164E-02  0.1312668E+00
        -11   -1    0    0    0    0  0.00000000000E+00  0.00000000000E+00  0.45593999997E+02  0.45594000000E+02  0.51100000000E-03 0.  1.
         11   -1    0    0    0    0 -0.00000000000E+00 -0.00000000000E+00 -0.45593999997E+02  0.45594000000E+02  0.51100000000E-03 0. -1.
    9900012    2    1    2    0    0  0.12981621012E+02  0.15364095408E+01 -0.41385267036E+02  0.47787269983E+02  0.19999995161E+02 0.  0.
        -12    1    1    2    0    0 -0.12981621012E+02 -0.15364095408E+01  0.41385267036E+02  0.43400730017E+02  0.00000000000E+00 0.  1.
         11    1    3    3    0    0  0.12925694891E+02 -0.45611148943E+01 -0.37645132019E+02  0.40062867128E+02  0.51100000000E-03 0. -1.
        -11    1    3    3    0    0 -0.91782225610E+00  0.57338406584E+00 -0.22698691898E+00  0.11057532741E+01  0.51100000000E-03 0.  1.
         12    1    3    3    0    0  0.97374837801E+00  0.55241403693E+01 -0.35131480973E+01  0.66186495811E+01  0.00000000000E+00 0. -1.
</event>
<event>
 7    1  0.4356471E-010  0.4778728E+02  0.7816164E-02  0.1312668E+00
        -11   -1    0    0    0    0  0.00000000000E+00  0.00000000000E+00  0.45593999997E+02  0.45594000000E+02  0.51100000000E-03 0.  1.
         11   -1    0    0    0    0 -0.00000000000E+00 -0.00000000000E+00 -0.45593999997E+02  0.45594000000E+02  0.51100000000E-03 0. -1.
    9900012    2    1    2    0    0  0.26322385102E+02  0.28379321115E+02  0.19630808236E+02  0.47787280462E+02  0.20000042940E+02 0.  0.
        -12    1    1    2    0    0 -0.26322385102E+02 -0.28379321115E+02 -0.19630808236E+02  0.43400719538E+02  0.00000000000E+00 0.  1.
         11    1    3    3    0    0  0.69275763874E+01  0.23316598467E+01  0.91894232949E+01  0.11741952691E+02  0.51100000000E-03 0. -1.
        -11    1    3    3    0    0 -0.15902049058E+01  0.24485342969E+01  0.93245887454E+00  0.30648901545E+01  0.51100000000E-03 0.  1.
         12    1    3    3    0    0  0.20985013621E+02  0.23599126971E+02  0.95089260665E+01  0.32980437617E+02  0.00000000000E+00 0. -1.
</event>
<event>
 7    1  0.4356471E-010  0.4778727E+02  0.7816164E-02  0.1312668E+00
        -11   -1    0    0    0    0  0.00000000000E+00  0.00000000000E+00  0.45593999997E+02  0.45594000000E+02  0.51100000000E-03 0. -1.
         11   -1    0    0    0    0 -0.00000000000E+00 -0.00000000000E+00 -0.45593999997E+02  0.45594000000E+02  0.51100000000E-03 0.  1.
    9900012    2    1    2    0    0 -0.63630349560E+01 -0.19597151478E+02  0.38197999043E+02  0.47787266241E+02  0.19999978100E+02 0.  0.
        -12    1    1    2    0    0  0.63630349560E+01  0.19597151478E+02 -0.38197999043E+02  0.43400733759E+02  0.00000000000E+00 0.  1.
         11    1    3    3    0    0  0.23915534242E+01 -0.94759694795E+01  0.15894349991E+02  0.18658614291E+02  0.51100000000E-03 0. -1.
        -11    1    3    3    0    0 -0.41986609770E+01 -0.10928154513E+02  0.82204018577E+01  0.14304835617E+02  0.51100000000E-03 0.  1.
         12    1    3    3    0    0 -0.45559274032E+01  0.80697251506E+00  0.14083247194E+02  0.14823816333E+02  0.00000000000E+00 0. -1.
</event>
<event>
 7    1  0.4356471E-010  0.4778728E+02  0.7816164E-02  0.1312668E+00
        -11   -1    0    0    0    0  0.00000000000E+00  0.00000000000E+00  0.45593999997E+02  0.45594000000E+02  0.51100000000E-03 0.  1.
         11   -1    0    0    0    0 -0.00000000000E+00 -0.00000000000E+00 -0.45593999997E+02  0.45594000000E+02  0.51100000000E-03 0. -1.
    9900012    2    1    2    0    0 -0.94032300807E+00 -0.18958236689E+01 -0.43349097121E+02  0.47787279085E+02  0.20000036659E+02 0.  0.
        -12    1    1    2    0    0  0.94032300807E+00  0.18958236689E+01  0.43349097121E+02  0.43400720915E+02  0.00000000000E+00 0.  1.
         11    1    3    3    0    0 -0.47518019368E+01 -0.59153714964E+00 -0.86905484879E+01  0.99224579176E+01  0.51100000000E-03 0. -1.
        -11    1    3    3    0    0  0.19373281378E+01  0.20136530107E+01  0.19734174577E+00  0.28012466486E+01  0.51100000000E-03 0.  1.
         12    1    3    3    0    0  0.18741507910E+01 -0.33179395299E+01 -0.34855890379E+02  0.35063574519E+02  0.00000000000E+00 0. -1.
</event>
<event>
 7    1  0.4356471E-010  0.4778727E+02  0.7816164E-02  0.1312668E+00
        -11   -1    0    0    0    0  0.00000000000E+00  0.00000000000E+00  0.45593999997E+02  0.45594000000E+02  0.51100000000E-03 0.  1.
         11   -1    0    0    0    0 -0.00000000000E+00 -0.00000000000E+00 -0.45593999997E+02  0.45594000000E+02  0.51100000000E-03 0. -1.
    9900012    2    1    2    0    0  0.10075330795E+02  0.14452702675E+02 -0.39663970913E+02  0.47787268511E+02  0.19999988448E+02 0.  0.
        -12    1    1    2    0    0 -0.10075330795E+02 -0.14452702675E+02  0.39663970913E+02  0.43400731489E+02  0.00000000000E+00 0.  1.
         11    1    3    3    0    0  0.29340714798E+01  0.16535067876E+01  0.15430492134E+01  0.37045730228E+01  0.51100000000E-03 0. -1.
        -11    1    3    3    0    0  0.16014802544E+01  0.26127325100E+00 -0.79085057126E+01  0.80732561947E+01  0.51100000000E-03 0.  1.
         12    1    3    3    0    0  0.55397790604E+01  0.12537922636E+02 -0.33298514414E+02  0.36009439293E+02  0.00000000000E+00 0. -1.
</event>
<event>
 7    1  0.4356471E-010  0.4778727E+02  0.7816164E-02  0.1312668E+00
        -11   -1    0    0    0    0  0.00000000000E+00  0.00000000000E+00  0.45593999997E+02  0.45594000000E+02  0.51100000000E-03 0. -1.
         11   -1    0    0    0    0 -0.00000000000E+00 -0.00000000000E+00 -0.45593999997E+02  0.45594000000E+02  0.51100000000E-03 0.  1.
    9900012    2    1    2    0    0 -0.39612139067E+02  0.17606789402E+02  0.21220473008E+01  0.47787266374E+02  0.19999978707E+02 0.  0.
        -12    1    1    2    0    0  0.39612139067E+02 -0.17606789402E+02 -0.21220473008E+01  0.43400733626E+02  0.00000000000E+00 0.  1.
         11    1    3    3    0    0 -0.18624323868E+02  0.43706918470E+01 -0.79549282477E+01  0.20718331749E+02  0.51100000000E-03 0. -1.
        -11    1    3    3    0    0 -0.23765379759E+01  0.19823100573E+01  0.26872047002E+01  0.40986040643E+01  0.51100000000E-03 0.  1.
         12    1    3    3    0    0 -0.18611277223E+02  0.11253787497E+02  0.73897708484E+01  0.22970330561E+02  0.00000000000E+00 0. -1.
</event>
<event>
 7    1  0.4356471E-010  0.4778727E+02  0.7816164E-02  0.1312668E+00
        -11   -1    0    0    0    0  0.00000000000E+00  0.00000000000E+00  0.45593999997E+02  0.45594000000E+02  0.51100000000E-03 0.  1.
         11   -1    0    0    0    0 -0.00000000000E+00 -0.00000000000E+00 -0.45593999997E+02  0.45594000000E+02  0.51100000000E-03 0. -1.
    9900012    2    1    2    0    0 -0.33226918483E+02 -0.17507837678E+02 -0.21750189663E+02  0.47787271407E+02  0.20000001655E+02 0.  0.
        -12    1    1    2    0    0  0.33226918483E+02  0.17507837678E+02  0.21750189663E+02  0.43400728593E+02  0.00000000000E+00 0.  1.
         11    1    3    3    0    0 -0.99767293635E+01 -0.12734511232E+02 -0.65711310330E+01  0.17460889680E+02  0.51100000000E-03 0. -1.
        -11    1    3    3    0    0 -0.43471327317E+01 -0.46759098450E+01 -0.76868465596E+01  0.99924624671E+01  0.51100000000E-03 0.  1.
         12    1    3    3    0    0 -0.18903056387E+02 -0.97416600784E-01 -0.74922120702E+01  0.20333919260E+02  0.00000000000E+00 0. -1.
</event>
<event>
 7    1  0.4356471E-010  0.4778727E+02  0.7816164E-02  0.1312668E+00
        -11   -1    0    0    0    0  0.00000000000E+00  0.00000000000E+00  0.45593999997E+02  0.45594000000E+02  0.51100000000E-03 0.  1.
         11   -1    0    0    0    0 -0.00000000000E+00 -0.00000000000E+00 -0.45593999997E+02  0.45594000000E+02  0.51100000000E-03 0. -1.
    9900012    2    1    2    0    0  0.28591555541E+02 -0.16858131969E+02 -0.27963362126E+02  0.47787270937E+02  0.19999999512E+02 0.  0.
        -12    1    1    2    0    0 -0.28591555541E+02  0.16858131969E+02  0.27963362126E+02  0.43400729063E+02  0.00000000000E+00 0.  1.
         11    1    3    3    0    0 -0.12337776732E+00 -0.16076086300E+01  0.35318599059E+00  0.16505660198E+01  0.51100000000E-03 0. -1.
        -11    1    3    3    0    0  0.67805267572E+01 -0.44662315068E+01  0.75635272714E+00  0.81544366260E+01  0.51100000000E-03 0.  1.
         12    1    3    3    0    0  0.21934406551E+02 -0.10784291833E+02 -0.29072900844E+02  0.37982268292E+02  0.00000000000E+00 0. -1.
</event>
<event>
 7    1  0.4356471E-010  0.4778727E+02  0.7816164E-02  0.1312668E+00
        -11   -1    0    0    0    0  0.00000000000E+00  0.00000000000E+00  0.45593999997E+02  0.45594000000E+02  0.51100000000E-03 0.  1.
         11   -1    0    0    0    0 -0.00000000000E+00 -0.00000000000E+00 -0.45593999997E+02  0.45594000000E+02  0.51100000000E-03 0. -1.
    9900012    2    1    2    0    0 -0.17558964168E+02  0.30439465468E+02 -0.25470478408E+02  0.47787267852E+02  0.19999985446E+02 0.  0.
        -12    1    1    2    0    0  0.17558964168E+02 -0.30439465468E+02  0.25470478408E+02  0.43400732148E+02  0.00000000000E+00 0.  1.
         11    1    3    3    0    0 -0.70400605444E+01  0.13313246593E+02 -0.13386642409E+02  0.20149619911E+02  0.51100000000E-03 0. -1.
        -11    1    3    3    0    0 -0.12480715786E+02  0.18095906146E+02 -0.12669630927E+02  0.25372221698E+02  0.51100000000E-03 0.  1.
        -12    1    3    3    0    0  0.19618121628E+01 -0.96968727112E+00  0.58579492841E+00  0.22654262433E+01  0.00000000000E+00 0.  1.
</event>
<event>
 7    1  0.4356471E-010  0.4778724E+02  0.7816164E-02  0.1312668E+00
        -11   -1    0    0    0    0  0.00000000000E+00  0.00000000000E+00  0.45593999997E+02  0.45594000000E+02  0.51100000000E-03 0.  1.
         11   -1    0    0    0    0 -0.00000000000E+00 -0.00000000000E+00 -0.45593999997E+02  0.45594000000E+02  0.51100000000E-03 0. -1.
    9900012    2    1    2    0    0  0.34990433165E+02 -0.10690999601E+02 -0.23345195974E+02  0.47787238940E+02  0.19999853621E+02 0.  0.
        -12    1    1    2    0    0 -0.34990433165E+02  0.10690999601E+02  0.23345195974E+02  0.43400761060E+02  0.00000000000E+00 0.  1.
         11    1    3    3    0    0  0.12639542781E+02 -0.29830291754E+01 -0.93412072355E+01  0.15997332830E+02  0.51100000000E-03 0. -1.
        -11    1    3    3    0    0  0.42322914802E+01 -0.55074009744E+01 -0.11405672508E+02  0.13354142514E+02  0.51100000000E-03 0.  1.
        -12    1    3    3    0    0  0.18118598903E+02 -0.22005694517E+01 -0.25983162303E+01  0.18435763596E+02  0.00000000000E+00 0.  1.
</event>
<event>
 7    1  0.4356471E-010  0.4778727E+02  0.7816164E-02  0.1312668E+00
        -11   -1    0    0    0    0  0.00000000000E+00  0.00000000000E+00  0.45593999997E+02  0.45594000000E+02  0.51100000000E-03 0. -1.
         11   -1    0    0    0    0 -0.00000000000E+00 -0.00000000000E+00 -0.45593999997E+02  0.45594000000E+02  0.51100000000E-03 0.  1.
    9900012    2    1    2    0    0 -0.30779513923E+02  0.38071425400E+01  0.30360339418E+02  0.47787273955E+02  0.20000013271E+02 0.  0.
        -12    1    1    2    0    0  0.30779513923E+02 -0.38071425400E+01 -0.30360339418E+02  0.43400726045E+02  0.00000000000E+00 0.  1.
         11    1    3    3    0    0 -0.20559975061E+02  0.65161871180E+01  0.11829391582E+02  0.24598938484E+02  0.51100000000E-03 0. -1.
        -11    1    3    3    0    0 -0.57806776306E+00  0.13676965813E+01 -0.41597059336E+00  0.15420078057E+01  0.51100000000E-03 0.  1.
        -12    1    3    3    0    0 -0.96414710985E+01 -0.40767411592E+01  0.18946918430E+02  0.21646327666E+02  0.00000000000E+00 0.  1.
</event>
<event>
 7    1  0.4356471E-010  0.4778728E+02  0.7816164E-02  0.1312668E+00
        -11   -1    0    0    0    0  0.00000000000E+00  0.00000000000E+00  0.45593999997E+02  0.45594000000E+02  0.51100000000E-03 0.  1.
         11   -1    0    0    0    0 -0.00000000000E+00 -0.00000000000E+00 -0.45593999997E+02  0.45594000000E+02  0.51100000000E-03 0. -1.
    9900012    2    1    2    0    0  0.92817263629E+01 -0.22616502659E+02 -0.35860369804E+02  0.47787276973E+02  0.20000027029E+02 0.  0.
        -12    1    1    2    0    0 -0.92817263629E+01  0.22616502659E+02  0.35860369804E+02  0.43400723027E+02  0.00000000000E+00 0.  1.
         11    1    3    3    0    0  0.31550825991E+01 -0.55985981426E+01 -0.14011490388E+02  0.15414950876E+02  0.51100000000E-03 0. -1.
        -11    1    3    3    0    0 -0.38177847653E+00 -0.16378103042E+02 -0.19393163832E+02  0.25386666141E+02  0.51100000000E-03 0.  1.
        -12    1    3    3    0    0  0.65084222404E+01 -0.63980147455E+00 -0.24557155843E+01  0.69856599558E+01  0.00000000000E+00 0.  1.
</event>
<event>
 7    1  0.4356471E-010  0.4778727E+02  0.7816164E-02  0.1312668E+00
        -11   -1    0    0    0    0  0.00000000000E+00  0.00000000000E+00  0.45593999997E+02  0.45594000000E+02  0.51100000000E-03 0. -1.
         11   -1    0    0    0    0 -0.00000000000E+00 -0.00000000000E+00 -0.45593999997E+02  0.45594000000E+02  0.51100000000E-03 0.  1.
    9900012    2    1    2    0    0  0.16177958510E+02 -0.20392549249E+02  0.34728099960E+02  0.47787270360E+02  0.19999996881E+02 0.  0.
        -12    1    1    2    0    0 -0.16177958510E+02  0.20392549249E+02 -0.34728099960E+02  0.43400729640E+02  0.00000000000E+00 0.  1.
         11    1    3    3    0    0  0.79785865404E+01 -0.33169173006E+01  0.61479557505E+01  0.10604581262E+02  0.51100000000E-03 0. -1.
        -11    1    3    3    0    0  0.38721628459E+00 -0.80041806065E+01  0.23520888350E+01  0.83515966008E+01  0.51100000000E-03 0.  1.
         12    1    3    3    0    0  0.78121556850E+01 -0.90714513415E+01  0.26228055375E+02  0.28831092498E+02  0.00000000000E+00 0. -1.
</event>
<event>
 7    1  0.4356471E-010  0.4778727E+02  0.7816164E-02  0.1312668E+00
        -11   -1    0    0    0    0  0.00000000000E+00  0.00000000000E+00  0.45593999997E+02  0.45594000000E+02  0.51100000000E-03 0. -1.
         11   -1    0    0    0    0 -0.00000000000E+00 -0.00000000000E+00 -0.45593999997E+02  0.45594000000E+02  0.51100000000E-03 0.  1.
    9900012    2    1    2    0    0 -0.35557565646E+02  0.23931802318E+02 -0.68228790632E+01  0.47787270564E+02  0.19999997810E+02 0.  0.
        -12    1    1    2    0    0  0.35557565646E+02 -0.23931802318E+02  0.68228790632E+01  0.43400729436E+02  0.00000000000E+00 0.  1.
         11    1    3    3    0    0 -0.68475805709E+01  0.37878358531E+00 -0.36839909202E+01  0.77848973044E+01  0.51100000000E-03 0. -1.
        -11    1    3    3    0    0  0.15842293946E+01  0.17328929717E+01  0.75290934499E+00  0.24656791294E+01  0.51100000000E-03 0.  1.
         12    1    3    3    0    0 -0.30294214469E+02  0.21820125761E+02 -0.38917974880E+01  0.37536694130E+02  0.00000000000E+00 0. -1.
</event>
<event>
 7    1  0.4356471E-010  0.4778727E+02  0.7816164E-02  0.1312668E+00
        -11   -1    0    0    0    0  0.00000000000E+00  0.00000000000E+00  0.45593999997E+02  0.45594000000E+02  0.51100000000E-03 0. -1.
         11   -1    0    0    0    0 -0.00000000000E+00 -0.00000000000E+00 -0.45593999997E+02  0.45594000000E+02  0.51100000000E-03 0.  1.
    9900012    2    1    2    0    0 -0.10781835500E+01  0.44755281781E+01  0.43155881536E+02  0.47787274852E+02  0.20000017358E+02 0.  0.
        -12    1    1    2    0    0  0.10781835500E+01 -0.44755281781E+01 -0.43155881536E+02  0.43400725148E+02  0.00000000000E+00 0.  1.
         11    1    3    3    0    0 -0.10949814776E+01  0.14552679365E+01  0.22585015387E+02  0.22658325391E+02  0.51100000000E-03 0. -1.
        -11    1    3    3    0    0 -0.43434682843E+01 -0.31064074656E+01  0.32628490413E+01  0.62579284277E+01  0.51100000000E-03 0.  1.
        -12    1    3    3    0    0  0.43602662119E+01  0.61266677073E+01  0.17308017107E+02  0.18871021033E+02  0.00000000000E+00 0.  1.
</event>
<event>
 7    1  0.4356471E-010  0.4778727E+02  0.7816164E-02  0.1312668E+00
        -11   -1    0    0    0    0  0.00000000000E+00  0.00000000000E+00  0.45593999997E+02  0.45594000000E+02  0.51100000000E-03 0.  1.
         11   -1    0    0    0    0 -0.00000000000E+00 -0.00000000000E+00 -0.45593999997E+02  0.45594000000E+02  0.51100000000E-03 0. -1.
    9900012    2    1    2    0    0  0.41660083117E+01 -0.28506531147E+02 -0.32459906703E+02  0.47787268596E+02  0.19999988834E+02 0.  0.
        -12    1    1    2    0    0 -0.41660083117E+01  0.28506531147E+02  0.32459906703E+02  0.43400731404E+02  0.00000000000E+00 0.  1.
         11    1    3    3    0    0 -0.12228039665E+01 -0.12845574408E+02 -0.59669068690E+01  0.14216469648E+02  0.51100000000E-03 0.  1.
        -11    1    3    3    0    0 -0.89109410299E+00 -0.11775098464E+02 -0.99037634135E+01  0.15412057700E+02  0.51100000000E-03 0. -1.
        -12    1    3    3    0    0  0.62799063812E+01 -0.38858582755E+01 -0.16589236420E+02  0.18158741248E+02  0.00000000000E+00 0.  1.
</event>
<event>
 7    1  0.4356471E-010  0.4778729E+02  0.7816164E-02  0.1312668E+00
        -11   -1    0    0    0    0  0.00000000000E+00  0.00000000000E+00  0.45593999997E+02  0.45594000000E+02  0.51100000000E-03 0.  1.
         11   -1    0    0    0    0 -0.00000000000E+00 -0.00000000000E+00 -0.45593999997E+02  0.45594000000E+02  0.51100000000E-03 0. -1.
    9900012    2    1    2    0    0  0.22263864182E+02 -0.20293085968E+01 -0.37199785805E+02  0.47787287960E+02  0.20000077124E+02 0.  0.
        -12    1    1    2    0    0 -0.22263864182E+02  0.20293085968E+01  0.37199785805E+02  0.43400712040E+02  0.00000000000E+00 0.  1.
         11    1    3    3    0    0  0.43423097076E+01 -0.24292087639E+00 -0.31612519330E+01  0.53766326073E+01  0.51100000000E-03 0. -1.
        -11    1    3    3    0    0  0.14269768157E+02 -0.90209593803E+01 -0.25970171377E+02  0.30975051138E+02  0.51100000000E-03 0.  1.
        -12    1    3    3    0    0  0.36517863166E+01  0.72345716598E+01 -0.80683624943E+01  0.11435604214E+02  0.00000000000E+00 0.  1.
</event>
<event>
 7    1  0.4356471E-010  0.4778727E+02  0.7816164E-02  0.1312668E+00
        -11   -1    0    0    0    0  0.00000000000E+00  0.00000000000E+00  0.45593999997E+02  0.45594000000E+02  0.51100000000E-03 0.  1.
         11   -1    0    0    0    0 -0.00000000000E+00 -0.00000000000E+00 -0.45593999997E+02  0.45594000000E+02  0.51100000000E-03 0. -1.
    9900012    2    1    2    0    0  0.11190376714E+02 -0.41397001066E+02  0.66848438665E+01  0.47787269986E+02  0.19999995173E+02 0.  0.
        -12    1    1    2    0    0 -0.11190376714E+02  0.41397001066E+02 -0.66848438665E+01  0.43400730014E+02  0.00000000000E+00 0.  1.
         11    1    3    3    0    0  0.69752299111E+01 -0.20985325185E+02  0.25922014139E+01  0.22265606074E+02  0.51100000000E-03 0. -1.
        -11    1    3    3    0    0  0.24594198734E+01 -0.21615017762E+02  0.61024751256E+01  0.22594201511E+02  0.51100000000E-03 0.  1.
        -12    1    3    3    0    0  0.17557269299E+01  0.12033418814E+01 -0.20098326729E+01  0.29274624009E+01  0.00000000000E+00 0.  1.
</event>
<event>
 7    1  0.4356471E-010  0.4778726E+02  0.7816164E-02  0.1312668E+00
        -11   -1    0    0    0    0  0.00000000000E+00  0.00000000000E+00  0.45593999997E+02  0.45594000000E+02  0.51100000000E-03 0. -1.
         11   -1    0    0    0    0 -0.00000000000E+00 -0.00000000000E+00 -0.45593999997E+02  0.45594000000E+02  0.51100000000E-03 0.  1.
    9900012    2    1    2    0    0 -0.16904776566E+02  0.38843562401E+01  0.39783976325E+02  0.47787257306E+02  0.19999937361E+02 0.  0.
        -12    1    1    2    0    0  0.16904776566E+02 -0.38843562401E+01 -0.39783976325E+02  0.43400742694E+02  0.00000000000E+00 0.  1.
         11    1    3    3    0    0 -0.86848287775E+01 -0.36116800591E+01  0.64253247706E+01  0.11391017620E+02  0.51100000000E-03 0. -1.
        -11    1    3    3    0    0 -0.24935257853E+01  0.11683932628E+01  0.99761981449E+00  0.29288323977E+01  0.51100000000E-03 0.  1.
        -12    1    3    3    0    0 -0.57264220037E+01  0.63276430364E+01  0.32361031740E+02  0.33467407289E+02  0.00000000000E+00 0.  1.
</event>
<event>
 7    1  0.4356471E-010  0.4778727E+02  0.7816164E-02  0.1312668E+00
        -11   -1    0    0    0    0  0.00000000000E+00  0.00000000000E+00  0.45593999997E+02  0.45594000000E+02  0.51100000000E-03 0.  1.
         11   -1    0    0    0    0 -0.00000000000E+00 -0.00000000000E+00 -0.45593999997E+02  0.45594000000E+02  0.51100000000E-03 0. -1.
    9900012    2    1    2    0    0  0.32099634221E+02 -0.27597566207E+02 -0.95713657395E+01  0.47787271668E+02  0.20000002841E+02 0.  0.
        -12    1    1    2    0    0 -0.32099634221E+02  0.27597566207E+02  0.95713657395E+01  0.43400728332E+02  0.00000000000E+00 0.  1.
         11    1    3    3    0    0  0.76438376915E+01 -0.18091651826E+01 -0.35157018858E+01  0.86058987516E+01  0.51100000000E-03 0. -1.
        -11    1    3    3    0    0  0.21115337739E+02 -0.12626147387E+02 -0.78514099699E+00  0.24614904678E+02  0.51100000000E-03 0.  1.
        -12    1    3    3    0    0  0.33404587907E+01 -0.13162253638E+02 -0.52705228568E+01  0.14566468238E+02  0.00000000000E+00 0.  1.
</event>
<event>
 7    1  0.4356471E-010  0.4778727E+02  0.7816164E-02  0.1312668E+00
        -11   -1    0    0    0    0  0.00000000000E+00  0.00000000000E+00  0.45593999997E+02  0.45594000000E+02  0.51100000000E-03 0.  1.
         11   -1    0    0    0    0 -0.00000000000E+00 -0.00000000000E+00 -0.45593999997E+02  0.45594000000E+02  0.51100000000E-03 0. -1.
    9900012    2    1    2    0    0  0.29925837068E+02  0.13549611315E+02 -0.28363284772E+02  0.47787267125E+02  0.19999982131E+02 0.  0.
        -12    1    1    2    0    0 -0.29925837068E+02 -0.13549611315E+02  0.28363284772E+02  0.43400732875E+02  0.00000000000E+00 0.  1.
         11    1    3    3    0    0  0.41111057134E+01  0.41088931746E+01 -0.72922496205E+01  0.93252934590E+01  0.51100000000E-03 0. -1.
        -11    1    3    3    0    0  0.24251223868E+01  0.65146251949E+01 -0.16260598666E+00  0.69532726819E+01  0.51100000000E-03 0.  1.
         12    1    3    3    0    0  0.23389608968E+02  0.29260929457E+01 -0.20908429165E+02  0.31508700984E+02  0.00000000000E+00 0. -1.
</event>
<event>
 7    1  0.4356471E-010  0.4778727E+02  0.7816164E-02  0.1312668E+00
        -11   -1    0    0    0    0  0.00000000000E+00  0.00000000000E+00  0.45593999997E+02  0.45594000000E+02  0.51100000000E-03 0. -1.
         11   -1    0    0    0    0 -0.00000000000E+00 -0.00000000000E+00 -0.45593999997E+02  0.45594000000E+02  0.51100000000E-03 0.  1.
    9900012    2    1    2    0    0  0.43008597176E+02 -0.25325480107E+01 -0.52411836246E+01  0.47787271478E+02  0.20000001977E+02 0.  0.
        -12    1    1    2    0    0 -0.43008597176E+02  0.25325480107E+01  0.52411836246E+01  0.43400728522E+02  0.00000000000E+00 0.  1.
         11    1    3    3    0    0  0.17892464178E+02 -0.22310638371E+01  0.26167170774E+01  0.18219910228E+02  0.51100000000E-03 0. -1.
        -11    1    3    3    0    0  0.25361170071E+02 -0.30668662768E+01 -0.80506384326E+01  0.26784461831E+02  0.51100000000E-03 0.  1.
        -12    1    3    3    0    0 -0.24503707300E+00  0.27653821032E+01  0.19273773066E+00  0.27828994191E+01  0.00000000000E+00 0.  1.
</event>
<event>
 7    1  0.4356471E-010  0.4778727E+02  0.7816164E-02  0.1312668E+00
        -11   -1    0    0    0    0  0.00000000000E+00  0.00000000000E+00  0.45593999997E+02  0.45594000000E+02  0.51100000000E-03 0.  1.
         11   -1    0    0    0    0 -0.00000000000E+00 -0.00000000000E+00 -0.45593999997E+02  0.45594000000E+02  0.51100000000E-03 0. -1.
    9900012    2    1    2    0    0  0.30733439799E+01 -0.17794997569E+02 -0.39465376972E+02  0.47787270038E+02  0.19999995410E+02 0.  0.
        -12    1    1    2    0    0 -0.30733439799E+01  0.17794997569E+02  0.39465376972E+02  0.43400729962E+02  0.00000000000E+00 0.  1.
         11    1    3    3    0    0 -0.46991028322E+01 -0.12939117753E+02 -0.32559603996E+02  0.35350108180E+02  0.51100000000E-03 0. -1.
        -11    1    3    3    0    0  0.29978047452E+00 -0.13853089192E+01  0.34834875000E+00  0.14595534411E+01  0.51100000000E-03 0.  1.
        -12    1    3    3    0    0  0.74726663375E+01 -0.34705708968E+01 -0.72541217258E+01  0.10977608417E+02  0.00000000000E+00 0.  1.
</event>
<event>
 7    1  0.4356471E-010  0.4778727E+02  0.7816164E-02  0.1312668E+00
        -11   -1    0    0    0    0  0.00000000000E+00  0.00000000000E+00  0.45593999997E+02  0.45594000000E+02  0.51100000000E-03 0.  1.
         11   -1    0    0    0    0 -0.00000000000E+00 -0.00000000000E+00 -0.45593999997E+02  0.45594000000E+02  0.51100000000E-03 0. -1.
    9900012    2    1    2    0    0  0.30357218548E+02 -0.30977995751E+02 -0.15577919609E+01  0.47787266659E+02  0.19999980006E+02 0.  0.
        -12    1    1    2    0    0 -0.30357218548E+02  0.30977995751E+02  0.15577919609E+01  0.43400733341E+02  0.00000000000E+00 0.  1.
         11    1    3    3    0    0  0.65589776097E+00 -0.29193226011E+01  0.10930569175E+01  0.31855015317E+01  0.51100000000E-03 0. -1.
        -11    1    3    3    0    0  0.84496535040E+01 -0.19328899371E+02 -0.44403539797E+01  0.21557359276E+02  0.51100000000E-03 0.  1.
         12    1    3    3    0    0  0.21251667283E+02 -0.87297737785E+01  0.17895051013E+01  0.23044405852E+02  0.00000000000E+00 0. -1.
</event>
<event>
 7    1  0.4356471E-010  0.4778725E+02  0.7816164E-02  0.1312668E+00
        -11   -1    0    0    0    0  0.00000000000E+00  0.00000000000E+00  0.45593999997E+02  0.45594000000E+02  0.51100000000E-03 0.  1.
         11   -1    0    0    0    0 -0.00000000000E+00 -0.00000000000E+00 -0.45593999997E+02  0.45594000000E+02  0.51100000000E-03 0. -1.
    9900012    2    1    2    0    0  0.21850490316E+02  0.20735333764E+01 -0.37441704972E+02  0.47787254166E+02  0.19999923046E+02 0.  0.
        -12    1    1    2    0    0 -0.21850490316E+02 -0.20735333764E+01  0.37441704972E+02  0.43400745834E+02  0.00000000000E+00 0.  1.
         11    1    3    3    0    0  0.74274455916E+01 -0.50212551010E+00 -0.13504064073E+02  0.15420078625E+02  0.51100000000E-03 0. -1.
        -11    1    3    3    0    0 -0.63111568291E+00  0.12982226779E+01 -0.14460774191E+02  0.14532641866E+02  0.51100000000E-03 0.  1.
         12    1    3    3    0    0  0.15054160408E+02  0.12774362086E+01 -0.94768667077E+01  0.17834533676E+02  0.00000000000E+00 0. -1.
</event>
<event>
 7    1  0.4356471E-010  0.4778727E+02  0.7816164E-02  0.1312668E+00
        -11   -1    0    0    0    0  0.00000000000E+00  0.00000000000E+00  0.45593999997E+02  0.45594000000E+02  0.51100000000E-03 0. -1.
         11   -1    0    0    0    0 -0.00000000000E+00 -0.00000000000E+00 -0.45593999997E+02  0.45594000000E+02  0.51100000000E-03 0.  1.
    9900012    2    1    2    0    0 -0.39364437587E+02  0.13763676634E+01  0.18225530848E+02  0.47787270638E+02  0.19999998146E+02 0.  0.
        -12    1    1    2    0    0  0.39364437587E+02 -0.13763676634E+01 -0.18225530848E+02  0.43400729362E+02  0.00000000000E+00 0.  1.
         11    1    3    3    0    0 -0.15388166200E+02  0.20825698292E+00  0.91166991718E+01  0.17887236623E+02  0.51100000000E-03 0. -1.
        -11    1    3    3    0    0 -0.56591207741E+01 -0.33364532960E+01  0.88671599454E+01  0.11035583097E+02  0.51100000000E-03 0.  1.
        -12    1    3    3    0    0 -0.18317150613E+02  0.45045639765E+01  0.24167173043E+00  0.18864450918E+02  0.00000000000E+00 0.  1.
</event>
<event>
 7    1  0.4356471E-010  0.4778727E+02  0.7816164E-02  0.1312668E+00
        -11   -1    0    0    0    0  0.00000000000E+00  0.00000000000E+00  0.45593999997E+02  0.45594000000E+02  0.51100000000E-03 0. -1.
         11   -1    0    0    0    0 -0.00000000000E+00 -0.00000000000E+00 -0.45593999997E+02  0.45594000000E+02  0.51100000000E-03 0.  1.
    9900012    2    1    2    0    0  0.13127130147E+02 -0.24866831843E+02  0.33059679660E+02  0.47787270847E+02  0.19999999100E+02 0.  0.
        -12    1    1    2    0    0 -0.13127130147E+02  0.24866831843E+02 -0.33059679660E+02  0.43400729153E+02  0.00000000000E+00 0.  1.
         11    1    3    3    0    0  0.13870972538E+01 -0.85607882561E+01  0.92454487713E+01  0.12676334549E+02  0.51100000000E-03 0. -1.
        -11    1    3    3    0    0 -0.18613257796E+01 -0.10528064686E+02  0.72764903669E+01  0.12932594171E+02  0.51100000000E-03 0.  1.
         12    1    3    3    0    0  0.13601358672E+02 -0.57779789009E+01  0.16537740522E+02  0.22178342126E+02  0.00000000000E+00 0. -1.
</event>
<event>
 7    1  0.4356471E-010  0.4778726E+02  0.7816164E-02  0.1312668E+00
        -11   -1    0    0    0    0  0.00000000000E+00  0.00000000000E+00  0.45593999997E+02  0.45594000000E+02  0.51100000000E-03 0.  1.
         11   -1    0    0    0    0 -0.00000000000E+00 -0.00000000000E+00 -0.45593999997E+02  0.45594000000E+02  0.51100000000E-03 0. -1.
    9900012    2    1    2    0    0  0.13360201773E+01 -0.20244295589E+01 -0.43332912309E+02  0.47787256295E+02  0.19999932753E+02 0.  0.
        -12    1    1    2    0    0 -0.13360201773E+01  0.20244295589E+01  0.43332912309E+02  0.43400743705E+02  0.00000000000E+00 0.  1.
         11    1    3    3    0    0  0.72519351483E+00 -0.20184609217E+01 -0.27626486509E+02  0.27709616511E+02  0.51100000000E-03 0. -1.
        -11    1    3    3    0    0 -0.11945474000E+01 -0.16034643064E+01 -0.17151074302E+02  0.17267234615E+02  0.51100000000E-03 0.  1.
        -12    1    3    3    0    0  0.18053740624E+01  0.15974956693E+01  0.14446485021E+01  0.28104051689E+01  0.00000000000E+00 0.  1.
</event>
<event>
 7    1  0.4356471E-010  0.4778728E+02  0.7816164E-02  0.1312668E+00
        -11   -1    0    0    0    0  0.00000000000E+00  0.00000000000E+00  0.45593999997E+02  0.45594000000E+02  0.51100000000E-03 0. -1.
         11   -1    0    0    0    0 -0.00000000000E+00 -0.00000000000E+00 -0.45593999997E+02  0.45594000000E+02  0.51100000000E-03 0.  1.
    9900012    2    1    2    0    0 -0.42367153019E+02  0.93409078891E+01  0.11808553559E+01  0.47787278411E+02  0.20000033586E+02 0.  0.
        -12    1    1    2    0    0  0.42367153019E+02 -0.93409078891E+01 -0.11808553559E+01  0.43400721589E+02  0.00000000000E+00 0.  1.
         11    1    3    3    0    0 -0.87703699850E+01  0.34447395252E+01  0.10921634792E+01  0.94856966743E+01  0.51100000000E-03 0. -1.
        -11    1    3    3    0    0 -0.24104619887E+02  0.55450241661E+00 -0.72388644095E+01  0.25174219571E+02  0.51100000000E-03 0.  1.
        -12    1    3    3    0    0 -0.94921631467E+01  0.53416659472E+01  0.73275562861E+01  0.13127362165E+02  0.00000000000E+00 0.  1.
</event>
<event>
 7    1  0.4356471E-010  0.4778727E+02  0.7816164E-02  0.1312668E+00
        -11   -1    0    0    0    0  0.00000000000E+00  0.00000000000E+00  0.45593999997E+02  0.45594000000E+02  0.51100000000E-03 0. -1.
         11   -1    0    0    0    0 -0.00000000000E+00 -0.00000000000E+00 -0.45593999997E+02  0.45594000000E+02  0.51100000000E-03 0.  1.
    9900012    2    1    2    0    0  0.26006141260E+02 -0.30575290558E+02  0.16506222611E+02  0.47787272347E+02  0.20000005938E+02 0.  0.
        -12    1    1    2    0    0 -0.26006141260E+02  0.30575290558E+02 -0.16506222611E+02  0.43400727653E+02  0.00000000000E+00 0.  1.
         11    1    3    3    0    0  0.39821485380E+01 -0.19316530296E+02  0.68315614345E+01  0.20872376039E+02  0.51100000000E-03 0. -1.
        -11    1    3    3    0    0  0.21638903411E+01 -0.77544879707E+00  0.23651032582E+01  0.32980988354E+01  0.51100000000E-03 0.  1.
        -12    1    3    3    0    0  0.19860102381E+02 -0.10483311465E+02  0.73095579185E+01  0.23616797472E+02  0.00000000000E+00 0.  1.
</event>
<event>
 7    1  0.4356471E-010  0.4778727E+02  0.7816164E-02  0.1312668E+00
        -11   -1    0    0    0    0  0.00000000000E+00  0.00000000000E+00  0.45593999997E+02  0.45594000000E+02  0.51100000000E-03 0.  1.
         11   -1    0    0    0    0 -0.00000000000E+00 -0.00000000000E+00 -0.45593999997E+02  0.45594000000E+02  0.51100000000E-03 0. -1.
    9900012    2    1    2    0    0  0.27645842236E+01  0.12813907156E+02 -0.41373715289E+02  0.47787268907E+02  0.19999990256E+02 0.  0.
        -12    1    1    2    0    0 -0.27645842236E+01 -0.12813907156E+02  0.41373715289E+02  0.43400731093E+02  0.00000000000E+00 0.  1.
         11    1    3    3    0    0  0.67251673349E+01  0.20580750204E+01 -0.73250709242E+01  0.10154812297E+02  0.51100000000E-03 0. -1.
        -11    1    3    3    0    0 -0.28505394319E+01 -0.10080766232E+01 -0.24331077871E+01  0.38809544310E+01  0.51100000000E-03 0.  1.
         12    1    3    3    0    0 -0.11100436794E+01  0.11763908759E+02 -0.31615536578E+02  0.33751502180E+02  0.00000000000E+00 0. -1.
</event>
<event>
 7    1  0.4356471E-010  0.4778727E+02  0.7816164E-02  0.1312668E+00
        -11   -1    0    0    0    0  0.00000000000E+00  0.00000000000E+00  0.45593999997E+02  0.45594000000E+02  0.51100000000E-03 0.  1.
         11   -1    0    0    0    0 -0.00000000000E+00 -0.00000000000E+00 -0.45593999997E+02  0.45594000000E+02  0.51100000000E-03 0. -1.
    9900012    2    1    2    0    0 -0.71857002036E+00 -0.28564917702E+02 -0.32667299448E+02  0.47787270520E+02  0.19999997607E+02 0.  0.
        -12    1    1    2    0    0  0.71857002036E+00  0.28564917702E+02  0.32667299448E+02  0.43400729480E+02  0.00000000000E+00 0.  1.
         11    1    3    3    0    0  0.24744003846E+01 -0.22332141219E+01 -0.82458572376E+01  0.88940465718E+01  0.51100000000E-03 0. -1.
        -11    1    3    3    0    0  0.11879764986E+01  0.61992055990E+00 -0.55293450646E+01  0.56893977508E+01  0.51100000000E-03 0.  1.
         12    1    3    3    0    0 -0.43809469036E+01 -0.26951624140E+02 -0.18892097146E+02  0.33203826197E+02  0.00000000000E+00 0. -1.
</event>
<event>
 7    1  0.4356471E-010  0.4778727E+02  0.7816164E-02  0.1312668E+00
        -11   -1    0    0    0    0  0.00000000000E+00  0.00000000000E+00  0.45593999997E+02  0.45594000000E+02  0.51100000000E-03 0.  1.
         11   -1    0    0    0    0 -0.00000000000E+00 -0.00000000000E+00 -0.45593999997E+02  0.45594000000E+02  0.51100000000E-03 0. -1.
    9900012    2    1    2    0    0 -0.38203900951E+02 -0.64683310608E+01  0.19551107901E+02  0.47787272187E+02  0.20000005208E+02 0.  0.
        -12    1    1    2    0    0  0.38203900951E+02  0.64683310608E+01 -0.19551107901E+02  0.43400727813E+02  0.00000000000E+00 0.  1.
         11    1    3    3    0    0 -0.21196193728E+02 -0.41139500086E+00  0.70138226438E+01  0.22330283983E+02  0.51100000000E-03 0. -1.
        -11    1    3    3    0    0 -0.18721562732E+02 -0.70947379187E+01  0.10530825730E+02  0.22621461227E+02  0.51100000000E-03 0.  1.
        -12    1    3    3    0    0  0.17138555088E+01  0.10378018588E+01  0.20064595270E+01  0.28355269769E+01  0.00000000000E+00 0.  1.
</event>
<event>
 7    1  0.4356471E-010  0.4778727E+02  0.7816164E-02  0.1312668E+00
        -11   -1    0    0    0    0  0.00000000000E+00  0.00000000000E+00  0.45593999997E+02  0.45594000000E+02  0.51100000000E-03 0. -1.
         11   -1    0    0    0    0 -0.00000000000E+00 -0.00000000000E+00 -0.45593999997E+02  0.45594000000E+02  0.51100000000E-03 0.  1.
    9900012    2    1    2    0    0 -0.37698593711E+02 -0.14138293933E+02  0.16203343396E+02  0.47787266593E+02  0.19999979702E+02 0.  0.
        -12    1    1    2    0    0  0.37698593711E+02  0.14138293933E+02 -0.16203343396E+02  0.43400733407E+02  0.00000000000E+00 0.  1.
         11    1    3    3    0    0 -0.24823841637E+02 -0.79764552577E+00  0.45215246943E+01  0.25244871515E+02  0.51100000000E-03 0. -1.
        -11    1    3    3    0    0 -0.28042619822E+01 -0.14454245854E+01  0.42029410527E+01  0.52552689038E+01  0.51100000000E-03 0.  1.
         12    1    3    3    0    0 -0.10070490091E+02 -0.11895223822E+02  0.74788776489E+01  0.17287126173E+02  0.00000000000E+00 0. -1.
</event>
<event>
 7    1  0.4356471E-010  0.4778727E+02  0.7816164E-02  0.1312668E+00
        -11   -1    0    0    0    0  0.00000000000E+00  0.00000000000E+00  0.45593999997E+02  0.45594000000E+02  0.51100000000E-03 0.  1.
         11   -1    0    0    0    0 -0.00000000000E+00 -0.00000000000E+00 -0.45593999997E+02  0.45594000000E+02  0.51100000000E-03 0. -1.
    9900012    2    1    2    0    0  0.26089563591E+02  0.10439216220E+02 -0.33075374841E+02  0.47787274377E+02  0.20000015196E+02 0.  0.
        -12    1    1    2    0    0 -0.26089563591E+02 -0.10439216220E+02  0.33075374841E+02  0.43400725623E+02  0.00000000000E+00 0.  1.
         11    1    3    3    0    0  0.14856568752E+01  0.80433438569E+01 -0.10623649594E+02  0.13407627967E+02  0.51100000000E-03 0. -1.
        -11    1    3    3    0    0  0.53580338075E+01  0.21735891584E+01 -0.96965928852E+01  0.11289682456E+02  0.51100000000E-03 0.  1.
        -12    1    3    3    0    0  0.19245872909E+02  0.22228320466E+00 -0.12755132362E+02  0.23089963954E+02  0.00000000000E+00 0.  1.
</event>
<event>
 7    1  0.4356471E-010  0.4778727E+02  0.7816164E-02  0.1312668E+00
        -11   -1    0    0    0    0  0.00000000000E+00  0.00000000000E+00  0.45593999997E+02  0.45594000000E+02  0.51100000000E-03 0.  1.
         11   -1    0    0    0    0 -0.00000000000E+00 -0.00000000000E+00 -0.45593999997E+02  0.45594000000E+02  0.51100000000E-03 0. -1.
    9900012    2    1    2    0    0 -0.30277410877E+02 -0.39795248110E+01 -0.30839340840E+02  0.47787272235E+02  0.20000005426E+02 0.  0.
        -12    1    1    2    0    0  0.30277410877E+02  0.39795248110E+01  0.30839340840E+02  0.43400727765E+02  0.00000000000E+00 0.  1.
         11    1    3    3    0    0 -0.15028426891E+02 -0.15298585311E+01 -0.87368651902E+01  0.17450698999E+02  0.51100000000E-03 0. -1.
        -11    1    3    3    0    0 -0.10122543596E+02  0.20674388837E+01 -0.41607381796E+01  0.11137860425E+02  0.51100000000E-03 0.  1.
         12    1    3    3    0    0 -0.51264403903E+01 -0.45171051636E+01 -0.17941737470E+02  0.19198712810E+02  0.00000000000E+00 0. -1.
</event>
<event>
 7    1  0.4356471E-010  0.4778727E+02  0.7816164E-02  0.1312668E+00
        -11   -1    0    0    0    0  0.00000000000E+00  0.00000000000E+00  0.45593999997E+02  0.45594000000E+02  0.51100000000E-03 0.  1.
         11   -1    0    0    0    0 -0.00000000000E+00 -0.00000000000E+00 -0.45593999997E+02  0.45594000000E+02  0.51100000000E-03 0. -1.
    9900012    2    1    2    0    0 -0.25946549730E+02  0.17584297149E+02 -0.30019863417E+02  0.47787272487E+02  0.20000006577E+02 0.  0.
        -12    1    1    2    0    0  0.25946549730E+02 -0.17584297149E+02  0.30019863417E+02  0.43400727513E+02  0.00000000000E+00 0.  1.
         11    1    3    3    0    0 -0.99760940211E+01  0.10199923029E+02 -0.86272840917E+01  0.16673059490E+02  0.51100000000E-03 0. -1.
        -11    1    3    3    0    0 -0.50046035261E+01 -0.33653917872E+01 -0.19490213545E+01  0.63380283082E+01  0.51100000000E-03 0.  1.
         12    1    3    3    0    0 -0.10965852183E+02  0.10749765907E+02 -0.19443557971E+02  0.24776184688E+02  0.00000000000E+00 0. -1.
</event>
<event>
 7    1  0.4356471E-010  0.4778726E+02  0.7816164E-02  0.1312668E+00
        -11   -1    0    0    0    0  0.00000000000E+00  0.00000000000E+00  0.45593999997E+02  0.45594000000E+02  0.51100000000E-03 0.  1.
         11   -1    0    0    0    0 -0.00000000000E+00 -0.00000000000E+00 -0.45593999997E+02  0.45594000000E+02  0.51100000000E-03 0. -1.
    9900012    2    1    2    0    0 -0.43324890400E+02 -0.14050434219E+01 -0.21457596552E+01  0.47787256231E+02  0.19999932461E+02 0.  0.
        -12    1    1    2    0    0  0.43324890400E+02  0.14050434219E+01  0.21457596552E+01  0.43400743769E+02  0.00000000000E+00 0.  1.
         11    1    3    3    0    0 -0.44726004432E+01  0.21207458366E+01  0.21784721325E+01  0.54080919668E+01  0.51100000000E-03 0. -1.
        -11    1    3    3    0    0 -0.27394091254E+02 -0.77102440872E+01  0.22041850583E+01  0.28543695128E+02  0.51100000000E-03 0.  1.
         12    1    3    3    0    0 -0.11458198702E+02  0.41844548288E+01 -0.65284168459E+01  0.13835469136E+02  0.00000000000E+00 0. -1.
</event>
<event>
 7    1  0.4356471E-010  0.4778727E+02  0.7816164E-02  0.1312668E+00
        -11   -1    0    0    0    0  0.00000000000E+00  0.00000000000E+00  0.45593999997E+02  0.45594000000E+02  0.51100000000E-03 0.  1.
         11   -1    0    0    0    0 -0.00000000000E+00 -0.00000000000E+00 -0.45593999997E+02  0.45594000000E+02  0.51100000000E-03 0. -1.
    9900012    2    1    2    0    0 -0.33053662955E+02  0.60895053721E+01 -0.27458995114E+02  0.47787272782E+02  0.20000007921E+02 0.  0.
        -12    1    1    2    0    0  0.33053662955E+02 -0.60895053721E+01  0.27458995114E+02  0.43400727218E+02  0.00000000000E+00 0.  1.
         11    1    3    3    0    0 -0.11966501957E+02  0.74680793650E+01 -0.10918770840E+02  0.17837851199E+02  0.51100000000E-03 0. -1.
        -11    1    3    3    0    0 -0.20270350473E+02 -0.29971900005E+00 -0.88142430710E+01  0.22105832284E+02  0.51100000000E-03 0.  1.
        -12    1    3    3    0    0 -0.81681052408E+00 -0.10788549928E+01 -0.77259812037E+01  0.78435892987E+01  0.00000000000E+00 0.  1.
</event>
<event>
 7    1  0.4356471E-010  0.4778727E+02  0.7816164E-02  0.1312668E+00
        -11   -1    0    0    0    0  0.00000000000E+00  0.00000000000E+00  0.45593999997E+02  0.45594000000E+02  0.51100000000E-03 0. -1.
         11   -1    0    0    0    0 -0.00000000000E+00 -0.00000000000E+00 -0.45593999997E+02  0.45594000000E+02  0.51100000000E-03 0.  1.
    9900012    2    1    2    0    0  0.17342342932E+02  0.38667737704E+02  0.93633560559E+01  0.47787271502E+02  0.20000002085E+02 0.  0.
        -12    1    1    2    0    0 -0.17342342932E+02 -0.38667737704E+02 -0.93633560559E+01  0.43400728498E+02  0.00000000000E+00 0.  1.
         11    1    3    3    0    0  0.53050232493E+01  0.58070533562E+01  0.99788173337E+01  0.12705980324E+02  0.51100000000E-03 0. -1.
        -11    1    3    3    0    0  0.17352121952E+01  0.33821527536E+01 -0.63765466864E+00  0.38544159543E+01  0.51100000000E-03 0.  1.
         12    1    3    3    0    0  0.10302107488E+02  0.29478531595E+02  0.22193390870E-01  0.31226875223E+02  0.00000000000E+00 0. -1.
</event>
<event>
 7    1  0.4356471E-010  0.4778727E+02  0.7816164E-02  0.1312668E+00
        -11   -1    0    0    0    0  0.00000000000E+00  0.00000000000E+00  0.45593999997E+02  0.45594000000E+02  0.51100000000E-03 0.  1.
         11   -1    0    0    0    0 -0.00000000000E+00 -0.00000000000E+00 -0.45593999997E+02  0.45594000000E+02  0.51100000000E-03 0. -1.
    9900012    2    1    2    0    0  0.76988678766E+01 -0.83206967741E+01 -0.41894112064E+02  0.47787272045E+02  0.20000004563E+02 0.  0.
        -12    1    1    2    0    0 -0.76988678766E+01  0.83206967741E+01  0.41894112064E+02  0.43400727955E+02  0.00000000000E+00 0.  1.
         11    1    3    3    0    0  0.74309768786E+01 -0.65133491639E+01 -0.16081940665E+02  0.18875167563E+02  0.51100000000E-03 0. -1.
        -11    1    3    3    0    0  0.27462961573E+01 -0.48690144264E+01 -0.23878301730E+02  0.24523921747E+02  0.51100000000E-03 0.  1.
        -12    1    3    3    0    0 -0.24784051592E+01  0.30616668161E+01 -0.19338696681E+01  0.43881827354E+01  0.00000000000E+00 0.  1.
</event>
<event>
 7    1  0.4356471E-010  0.4778727E+02  0.7816164E-02  0.1312668E+00
        -11   -1    0    0    0    0  0.00000000000E+00  0.00000000000E+00  0.45593999997E+02  0.45594000000E+02  0.51100000000E-03 0.  1.
         11   -1    0    0    0    0 -0.00000000000E+00 -0.00000000000E+00 -0.45593999997E+02  0.45594000000E+02  0.51100000000E-03 0. -1.
    9900012    2    1    2    0    0  0.11616943098E+02 -0.29842394105E+02 -0.29293367131E+02  0.47787271772E+02  0.20000003316E+02 0.  0.
        -12    1    1    2    0    0 -0.11616943098E+02  0.29842394105E+02  0.29293367131E+02  0.43400728228E+02  0.00000000000E+00 0.  1.
         11    1    3    3    0    0 -0.84821386419E+00 -0.28287740292E+00 -0.27517568120E+01  0.28933807558E+01  0.51100000000E-03 0. -1.
        -11    1    3    3    0    0 -0.36984645522E+01 -0.38160620471E+01 -0.68748689379E+01  0.86893493867E+01  0.51100000000E-03 0.  1.
         12    1    3    3    0    0  0.16163621514E+02 -0.25743454655E+02 -0.19666741381E+02  0.36204541629E+02  0.00000000000E+00 0. -1.
</event>
<event>
 7    1  0.4356471E-010  0.4778726E+02  0.7816164E-02  0.1312668E+00
        -11   -1    0    0    0    0  0.00000000000E+00  0.00000000000E+00  0.45593999997E+02  0.45594000000E+02  0.51100000000E-03 0.  1.
         11   -1    0    0    0    0 -0.00000000000E+00 -0.00000000000E+00 -0.45593999997E+02  0.45594000000E+02  0.51100000000E-03 0. -1.
    9900012    2    1    2    0    0  0.13456438676E+02 -0.25974192337E+02 -0.32060714219E+02  0.47787264918E+02  0.19999972069E+02 0.  0.
        -12    1    1    2    0    0 -0.13456438676E+02  0.25974192337E+02  0.32060714219E+02  0.43400735082E+02  0.00000000000E+00 0.  1.
         11    1    3    3    0    0  0.66891619466E+01 -0.40034540274E+01 -0.71978698948E+01  0.10610460074E+02  0.51100000000E-03 0. -1.
        -11    1    3    3    0    0 -0.35849777223E+01 -0.92847178113E+00 -0.61326142533E+01  0.71640130485E+01  0.51100000000E-03 0.  1.
         12    1    3    3    0    0  0.10352254452E+02 -0.21042266528E+02 -0.18730230071E+02  0.30012791796E+02  0.00000000000E+00 0. -1.
</event>
<event>
 7    1  0.4356471E-010  0.4778727E+02  0.7816164E-02  0.1312668E+00
        -11   -1    0    0    0    0  0.00000000000E+00  0.00000000000E+00  0.45593999997E+02  0.45594000000E+02  0.51100000000E-03 0.  1.
         11   -1    0    0    0    0 -0.00000000000E+00 -0.00000000000E+00 -0.45593999997E+02  0.45594000000E+02  0.51100000000E-03 0. -1.
    9900012    2    1    2    0    0  0.78780903056E+01 -0.33849450754E+02 -0.25995645261E+02  0.47787271944E+02  0.20000004101E+02 0.  0.
        -12    1    1    2    0    0 -0.78780903056E+01  0.33849450754E+02  0.25995645261E+02  0.43400728056E+02  0.00000000000E+00 0.  1.
         11    1    3    3    0    0  0.28916942876E+01 -0.19036033587E+01 -0.34800944875E+01  0.49088348417E+01  0.51100000000E-03 0. -1.
        -11    1    3    3    0    0  0.68917330741E+01 -0.11050663432E+02 -0.16560086039E+02  0.21067738297E+02  0.51100000000E-03 0.  1.
         12    1    3    3    0    0 -0.19053370560E+01 -0.20895183964E+02 -0.59554647349E+01  0.21810698806E+02  0.00000000000E+00 0. -1.
</event>
<event>
 7    1  0.4356471E-010  0.4778727E+02  0.7816164E-02  0.1312668E+00
        -11   -1    0    0    0    0  0.00000000000E+00  0.00000000000E+00  0.45593999997E+02  0.45594000000E+02  0.51100000000E-03 0.  1.
         11   -1    0    0    0    0 -0.00000000000E+00 -0.00000000000E+00 -0.45593999997E+02  0.45594000000E+02  0.51100000000E-03 0. -1.
    9900012    2    1    2    0    0 -0.82710743847E+00 -0.13324438780E+02 -0.41296469939E+02  0.47787271838E+02  0.20000003619E+02 0.  0.
        -12    1    1    2    0    0  0.82710743847E+00  0.13324438780E+02  0.41296469939E+02  0.43400728162E+02  0.00000000000E+00 0.  1.
         11    1    3    3    0    0  0.75156752775E+01 -0.33158281011E+01 -0.13526182102E+02  0.15825223328E+02  0.51100000000E-03 0. -1.
        -11    1    3    3    0    0 -0.17158423613E+01 -0.14092157772E+01 -0.82550880950E-01  0.22218953677E+01  0.51100000000E-03 0.  1.
        -12    1    3    3    0    0 -0.66269403546E+01 -0.85993949019E+01 -0.27687736957E+02  0.29740153142E+02  0.00000000000E+00 0.  1.
</event>
<event>
 7    1  0.4356471E-010  0.4778727E+02  0.7816164E-02  0.1312668E+00
        -11   -1    0    0    0    0  0.00000000000E+00  0.00000000000E+00  0.45593999997E+02  0.45594000000E+02  0.51100000000E-03 0. -1.
         11   -1    0    0    0    0 -0.00000000000E+00 -0.00000000000E+00 -0.45593999997E+02  0.45594000000E+02  0.51100000000E-03 0.  1.
    9900012    2    1    2    0    0  0.33131098187E+02  0.38921746223E+01  0.27763366630E+02  0.47787271700E+02  0.20000002989E+02 0.  0.
        -12    1    1    2    0    0 -0.33131098187E+02 -0.38921746223E+01 -0.27763366630E+02  0.43400728300E+02  0.00000000000E+00 0.  1.
         11    1    3    3    0    0  0.16100755801E+02  0.70788210449E+01  0.17027865046E+02  0.24480445932E+02  0.51100000000E-03 0. -1.
        -11    1    3    3    0    0  0.55440494471E+01 -0.31429083835E+01  0.99210775416E+01  0.11791613004E+02  0.51100000000E-03 0.  1.
        -12    1    3    3    0    0  0.11486292939E+02 -0.43738039151E-01  0.81442404283E+00  0.11515212765E+02  0.00000000000E+00 0.  1.
</event>
<event>
 7    1  0.4356471E-010  0.4778728E+02  0.7816164E-02  0.1312668E+00
        -11   -1    0    0    0    0  0.00000000000E+00  0.00000000000E+00  0.45593999997E+02  0.45594000000E+02  0.51100000000E-03 0.  1.
         11   -1    0    0    0    0 -0.00000000000E+00 -0.00000000000E+00 -0.45593999997E+02  0.45594000000E+02  0.51100000000E-03 0. -1.
    9900012    2    1    2    0    0  0.13900986634E+02 -0.39189080165E+01 -0.40927101290E+02  0.47787275473E+02  0.20000020193E+02 0.  0.
        -12    1    1    2    0    0 -0.13900986634E+02  0.39189080165E+01  0.40927101290E+02  0.43400724527E+02  0.00000000000E+00 0.  1.
         11    1    3    3    0    0  0.55258676862E+01  0.41406094163E+01 -0.80795587543E+01  0.10628223273E+02  0.51100000000E-03 0. -1.
        -11    1    3    3    0    0  0.10124580795E+02 -0.14138417568E+01 -0.16289625901E+02  0.19231692516E+02  0.51100000000E-03 0.  1.
        -12    1    3    3    0    0 -0.17494618472E+01 -0.66456756761E+01 -0.16557916635E+02  0.17927359684E+02  0.00000000000E+00 0.  1.
</event>
<event>
 7    1  0.4356471E-010  0.4778727E+02  0.7816164E-02  0.1312668E+00
        -11   -1    0    0    0    0  0.00000000000E+00  0.00000000000E+00  0.45593999997E+02  0.45594000000E+02  0.51100000000E-03 0.  1.
         11   -1    0    0    0    0 -0.00000000000E+00 -0.00000000000E+00 -0.45593999997E+02  0.45594000000E+02  0.51100000000E-03 0. -1.
    9900012    2    1    2    0    0 -0.13146002681E+02  0.37555541821E+02 -0.17331687619E+02  0.47787268397E+02  0.19999987931E+02 0.  0.
        -12    1    1    2    0    0  0.13146002681E+02 -0.37555541821E+02  0.17331687619E+02  0.43400731603E+02  0.00000000000E+00 0.  1.
         11    1    3    3    0    0 -0.11958195297E+02  0.30120896743E+02 -0.16474338070E+02  0.36354788825E+02  0.51100000000E-03 0. -1.
        -11    1    3    3    0    0 -0.77277300758E+00  0.71198451686E+01 -0.40297756793E+01  0.82175705432E+01  0.51100000000E-03 0.  1.
        -12    1    3    3    0    0 -0.41503437615E+00  0.31479990884E+00  0.31724261303E+01  0.32149090295E+01  0.00000000000E+00 0.  1.
</event>
<event>
 7    1  0.4356471E-010  0.4778727E+02  0.7816164E-02  0.1312668E+00
        -11   -1    0    0    0    0  0.00000000000E+00  0.00000000000E+00  0.45593999997E+02  0.45594000000E+02  0.51100000000E-03 0. -1.
         11   -1    0    0    0    0 -0.00000000000E+00 -0.00000000000E+00 -0.45593999997E+02  0.45594000000E+02  0.51100000000E-03 0.  1.
    9900012    2    1    2    0    0  0.39401989850E+02 -0.15556493183E+02 -0.94394068611E+01  0.47787266294E+02  0.19999978343E+02 0.  0.
        -12    1    1    2    0    0 -0.39401989850E+02  0.15556493183E+02  0.94394068611E+01  0.43400733706E+02  0.00000000000E+00 0.  1.
         11    1    3    3    0    0  0.13640051890E+02 -0.34477580964E+01 -0.72984591169E+01  0.15849465518E+02  0.51100000000E-03 0.  1.
        -11    1    3    3    0    0  0.20533057808E+02 -0.15013147745E+02 -0.38289895174E+01  0.25722795905E+02  0.51100000000E-03 0. -1.
         12    1    3    3    0    0  0.52288801520E+01  0.29044126584E+01  0.16880417732E+01  0.62150048723E+01  0.00000000000E+00 0. -1.
</event>
<event>
 7    1  0.4356471E-010  0.4778727E+02  0.7816164E-02  0.1312668E+00
        -11   -1    0    0    0    0  0.00000000000E+00  0.00000000000E+00  0.45593999997E+02  0.45594000000E+02  0.51100000000E-03 0.  1.
         11   -1    0    0    0    0 -0.00000000000E+00 -0.00000000000E+00 -0.45593999997E+02  0.45594000000E+02  0.51100000000E-03 0. -1.
    9900012    2    1    2    0    0  0.42006961453E+02  0.93865676818E+01  0.55615844542E+01  0.47787266308E+02  0.19999978404E+02 0.  0.
        -12    1    1    2    0    0 -0.42006961453E+02 -0.93865676818E+01 -0.55615844542E+01  0.43400733692E+02  0.00000000000E+00 0.  1.
         11    1    3    3    0    0  0.22954730623E+02  0.94112519272E+01  0.85723258058E+01  0.26248354058E+02  0.51100000000E-03 0. -1.
        -11    1    3    3    0    0  0.55741135146E+01 -0.36007114711E+00  0.34742503332E+01  0.65780550578E+01  0.51100000000E-03 0.  1.
        -12    1    3    3    0    0  0.13478117316E+02  0.33538690177E+00 -0.64849916848E+01  0.14960857192E+02  0.00000000000E+00 0.  1.
</event>
<event>
 7    1  0.4356471E-010  0.4778728E+02  0.7816164E-02  0.1312668E+00
        -11   -1    0    0    0    0  0.00000000000E+00  0.00000000000E+00  0.45593999997E+02  0.45594000000E+02  0.51100000000E-03 0. -1.
         11   -1    0    0    0    0 -0.00000000000E+00 -0.00000000000E+00 -0.45593999997E+02  0.45594000000E+02  0.51100000000E-03 0.  1.
    9900012    2    1    2    0    0  0.40679263912E+02  0.14519660037E+02  0.42426039018E+01  0.47787277334E+02  0.20000028679E+02 0.  0.
        -12    1    1    2    0    0 -0.40679263912E+02 -0.14519660037E+02 -0.42426039018E+01  0.43400722666E+02  0.00000000000E+00 0.  1.
         11    1    3    3    0    0  0.14476333729E+02  0.57828083544E+01 -0.22905517882E+01  0.15756006425E+02  0.51100000000E-03 0. -1.
        -11    1    3    3    0    0  0.43346899026E+01 -0.19132298190E+00 -0.42429484743E+01  0.60686697926E+01  0.51100000000E-03 0.  1.
         12    1    3    3    0    0  0.21868240280E+02  0.89281746647E+01  0.10776104164E+02  0.25962601117E+02  0.00000000000E+00 0. -1.
</event>
<event>
 7    1  0.4356471E-010  0.4778727E+02  0.7816164E-02  0.1312668E+00
        -11   -1    0    0    0    0  0.00000000000E+00  0.00000000000E+00  0.45593999997E+02  0.45594000000E+02  0.51100000000E-03 0.  1.
         11   -1    0    0    0    0 -0.00000000000E+00 -0.00000000000E+00 -0.45593999997E+02  0.45594000000E+02  0.51100000000E-03 0. -1.
    9900012    2    1    2    0    0 -0.41535501128E+02 -0.12560436899E+02 -0.81292299453E+00  0.47787271057E+02  0.20000000057E+02 0.  0.
        -12    1    1    2    0    0  0.41535501128E+02  0.12560436899E+02  0.81292299453E+00  0.43400728943E+02  0.00000000000E+00 0.  1.
         11    1    3    3    0    0 -0.14482818053E+02 -0.54739447221E+01 -0.47919184975E+01  0.16207361683E+02  0.51100000000E-03 0. -1.
        -11    1    3    3    0    0 -0.12338168072E+02 -0.62716840873E+01 -0.45295022487E+01  0.14562994319E+02  0.51100000000E-03 0.  1.
        -12    1    3    3    0    0 -0.14714515003E+02 -0.81480808919E+00  0.85084977516E+01  0.17016915055E+02  0.00000000000E+00 0.  1.
</event>
<event>
 7    1  0.4356471E-010  0.4778729E+02  0.7816164E-02  0.1312668E+00
        -11   -1    0    0    0    0  0.00000000000E+00  0.00000000000E+00  0.45593999997E+02  0.45594000000E+02  0.51100000000E-03 0. -1.
         11   -1    0    0    0    0 -0.00000000000E+00 -0.00000000000E+00 -0.45593999997E+02  0.45594000000E+02  0.51100000000E-03 0.  1.
    9900012    2    1    2    0    0 -0.15389768520E+02 -0.29895299263E+02  0.27441712389E+02  0.47787291804E+02  0.20000094649E+02 0.  0.
        -12    1    1    2    0    0  0.15389768520E+02  0.29895299263E+02 -0.27441712389E+02  0.43400708196E+02  0.00000000000E+00 0.  1.
         11    1    3    3    0    0 -0.12962296464E+02 -0.12318718977E+02  0.11796910118E+02  0.21422862914E+02  0.51100000000E-03 0. -1.
        -11    1    3    3    0    0 -0.18129291433E+01  0.13480611978E+01  0.20945255255E+01  0.30807496669E+01  0.51100000000E-03 0.  1.
         12    1    3    3    0    0 -0.61454291329E+00 -0.18924641483E+02  0.13550276745E+02  0.23283679222E+02  0.00000000000E+00 0. -1.
</event>
<event>
 7    1  0.4356471E-010  0.4778727E+02  0.7816164E-02  0.1312668E+00
        -11   -1    0    0    0    0  0.00000000000E+00  0.00000000000E+00  0.45593999997E+02  0.45594000000E+02  0.51100000000E-03 0.  1.
         11   -1    0    0    0    0 -0.00000000000E+00 -0.00000000000E+00 -0.45593999997E+02  0.45594000000E+02  0.51100000000E-03 0. -1.
    9900012    2    1    2    0    0 -0.20506795676E+02  0.20968529604E+02 -0.31990865845E+02  0.47787269590E+02  0.19999993366E+02 0.  0.
        -12    1    1    2    0    0  0.20506795676E+02 -0.20968529604E+02  0.31990865845E+02  0.43400730410E+02  0.00000000000E+00 0.  1.
         11    1    3    3    0    0 -0.12938580752E+01 -0.10176425546E+00  0.13052332246E+01  0.18406680075E+01  0.51100000000E-03 0.  1.
        -11    1    3    3    0    0 -0.22460237365E+01  0.33703051464E+01  0.61869975806E+00  0.40971171642E+01  0.51100000000E-03 0. -1.
         12    1    3    3    0    0 -0.16966913864E+02  0.17699988713E+02 -0.33914798828E+02  0.41849484418E+02  0.00000000000E+00 0. -1.
</event>
<event>
 7    1  0.4356471E-010  0.4778727E+02  0.7816164E-02  0.1312668E+00
        -11   -1    0    0    0    0  0.00000000000E+00  0.00000000000E+00  0.45593999997E+02  0.45594000000E+02  0.51100000000E-03 0. -1.
         11   -1    0    0    0    0 -0.00000000000E+00 -0.00000000000E+00 -0.45593999997E+02  0.45594000000E+02  0.51100000000E-03 0.  1.
    9900012    2    1    2    0    0 -0.35078709594E+02  0.78533842585E+01  0.24319373747E+02  0.47787269009E+02  0.19999990720E+02 0.  0.
        -12    1    1    2    0    0  0.35078709594E+02 -0.78533842585E+01 -0.24319373747E+02  0.43400730991E+02  0.00000000000E+00 0.  1.
         11    1    3    3    0    0 -0.20176042657E+01  0.31976568124E+01  0.56762462243E+01  0.68202278204E+01  0.51100000000E-03 0. -1.
        -11    1    3    3    0    0 -0.42355753657E+01 -0.24114951362E-02 -0.24983187821E+01  0.49174893484E+01  0.51100000000E-03 0.  1.
         12    1    3    3    0    0 -0.28825529962E+02  0.46581389413E+01  0.21141446305E+02  0.36049551840E+02  0.00000000000E+00 0. -1.
</event>
<event>
 7    1  0.4356471E-010  0.4778727E+02  0.7816164E-02  0.1312668E+00
        -11   -1    0    0    0    0  0.00000000000E+00  0.00000000000E+00  0.45593999997E+02  0.45594000000E+02  0.51100000000E-03 0.  1.
         11   -1    0    0    0    0 -0.00000000000E+00 -0.00000000000E+00 -0.45593999997E+02  0.45594000000E+02  0.51100000000E-03 0. -1.
    9900012    2    1    2    0    0 -0.15480816212E+02 -0.24057319455E+02 -0.32637605848E+02  0.47787267224E+02  0.19999982583E+02 0.  0.
        -12    1    1    2    0    0  0.15480816212E+02  0.24057319455E+02  0.32637605848E+02  0.43400732776E+02  0.00000000000E+00 0.  1.
         11    1    3    3    0    0 -0.92783007528E+01 -0.87148919968E+01 -0.20192497088E+02  0.23869921372E+02  0.51100000000E-03 0.  1.
        -11    1    3    3    0    0 -0.51842584781E+01 -0.12787799204E+02 -0.14844773018E+02  0.20267501836E+02  0.51100000000E-03 0. -1.
        -12    1    3    3    0    0 -0.10182569813E+01 -0.25546282545E+01  0.23996642578E+01  0.36498440171E+01  0.00000000000E+00 0.  1.
</event>
<event>
 7    1  0.4356471E-010  0.4778727E+02  0.7816164E-02  0.1312668E+00
        -11   -1    0    0    0    0  0.00000000000E+00  0.00000000000E+00  0.45593999997E+02  0.45594000000E+02  0.51100000000E-03 0.  1.
         11   -1    0    0    0    0 -0.00000000000E+00 -0.00000000000E+00 -0.45593999997E+02  0.45594000000E+02  0.51100000000E-03 0. -1.
    9900012    2    1    2    0    0  0.39344285743E+01 -0.37264179545E+02 -0.21898040974E+02  0.47787274155E+02  0.20000014183E+02 0.  0.
        -12    1    1    2    0    0 -0.39344285743E+01  0.37264179545E+02  0.21898040974E+02  0.43400725845E+02  0.00000000000E+00 0.  1.
         11    1    3    3    0    0  0.20214270487E+01 -0.22607951892E+01 -0.19697821955E+01  0.36162693980E+01  0.51100000000E-03 0. -1.
        -11    1    3    3    0    0 -0.23319614426E+01 -0.33488329117E+02 -0.13197483392E+02  0.36070483769E+02  0.51100000000E-03 0.  1.
        -12    1    3    3    0    0  0.42449629683E+01 -0.15150552394E+01 -0.67307753861E+01  0.81005209881E+01  0.00000000000E+00 0.  1.
</event>
<event>
 7    1  0.4356471E-010  0.4778727E+02  0.7816164E-02  0.1312668E+00
        -11   -1    0    0    0    0  0.00000000000E+00  0.00000000000E+00  0.45593999997E+02  0.45594000000E+02  0.51100000000E-03 0. -1.
         11   -1    0    0    0    0 -0.00000000000E+00 -0.00000000000E+00 -0.45593999997E+02  0.45594000000E+02  0.51100000000E-03 0.  1.
    9900012    2    1    2    0    0  0.51479333409E+01  0.43067928992E+02 -0.15084613550E+01  0.47787272115E+02  0.20000004880E+02 0.  0.
        -12    1    1    2    0    0 -0.51479333409E+01 -0.43067928992E+02  0.15084613550E+01  0.43400727885E+02  0.00000000000E+00 0.  1.
         11    1    3    3    0    0  0.16565975331E+01  0.30867042037E+01  0.26781909482E+01  0.44096218936E+01  0.51100000000E-03 0. -1.
        -11    1    3    3    0    0 -0.26421412048E+01  0.12393736883E+01  0.21763562760E+01  0.36405335030E+01  0.51100000000E-03 0.  1.
         12    1    3    3    0    0  0.61334770126E+01  0.38741851100E+02 -0.63630085792E+01  0.39737116718E+02  0.00000000000E+00 0. -1.
</event>
<event>
 7    1  0.4356471E-010  0.4778727E+02  0.7816164E-02  0.1312668E+00
        -11   -1    0    0    0    0  0.00000000000E+00  0.00000000000E+00  0.45593999997E+02  0.45594000000E+02  0.51100000000E-03 0. -1.
         11   -1    0    0    0    0 -0.00000000000E+00 -0.00000000000E+00 -0.45593999997E+02  0.45594000000E+02  0.51100000000E-03 0.  1.
    9900012    2    1    2    0    0  0.85741667265E+01 -0.40998671125E+02  0.11367333242E+02  0.47787266895E+02  0.19999981079E+02 0.  0.
        -12    1    1    2    0    0 -0.85741667265E+01  0.40998671125E+02 -0.11367333242E+02  0.43400733105E+02  0.00000000000E+00 0.  1.
         11    1    3    3    0    0  0.25872277847E+01 -0.10479702450E+02  0.84910209597E+01  0.13733730311E+02  0.51100000000E-03 0. -1.
        -11    1    3    3    0    0  0.23419420047E+00  0.66272990994E+00 -0.18650258922E+01  0.19930829629E+01  0.51100000000E-03 0.  1.
         12    1    3    3    0    0  0.57527447414E+01 -0.31181698585E+02  0.47413381741E+01  0.32060453621E+02  0.00000000000E+00 0. -1.
</event>
<event>
 7    1  0.4356471E-010  0.4778727E+02  0.7816164E-02  0.1312668E+00
        -11   -1    0    0    0    0  0.00000000000E+00  0.00000000000E+00  0.45593999997E+02  0.45594000000E+02  0.51100000000E-03 0.  1.
         11   -1    0    0    0    0 -0.00000000000E+00 -0.00000000000E+00 -0.45593999997E+02  0.45594000000E+02  0.51100000000E-03 0. -1.
    9900012    2    1    2    0    0 -0.29212565719E+02  0.15735620292E+02 -0.27975696288E+02  0.47787270459E+02  0.19999997331E+02 0.  0.
        -12    1    1    2    0    0  0.29212565719E+02 -0.15735620292E+02  0.27975696288E+02  0.43400729541E+02  0.00000000000E+00 0.  1.
         11    1    3    3    0    0 -0.17437049327E+02  0.47158412089E+01 -0.24577977689E+02  0.30501915269E+02  0.51100000000E-03 0. -1.
        -11    1    3    3    0    0 -0.18695066132E+01  0.17364799548E+00  0.75023975349E+00  0.20218972654E+01  0.51100000000E-03 0.  1.
         12    1    3    3    0    0 -0.99060097788E+01  0.10846131088E+02 -0.41479583525E+01  0.15263457924E+02  0.00000000000E+00 0. -1.
</event>
<event>
 7    1  0.4356471E-010  0.4778727E+02  0.7816164E-02  0.1312668E+00
        -11   -1    0    0    0    0  0.00000000000E+00  0.00000000000E+00  0.45593999997E+02  0.45594000000E+02  0.51100000000E-03 0. -1.
         11   -1    0    0    0    0 -0.00000000000E+00 -0.00000000000E+00 -0.45593999997E+02  0.45594000000E+02  0.51100000000E-03 0.  1.
    9900012    2    1    2    0    0  0.22086973075E+02 -0.37196193200E+02 -0.34974196918E+01  0.47787272902E+02  0.20000008467E+02 0.  0.
        -12    1    1    2    0    0 -0.22086973075E+02  0.37196193200E+02  0.34974196918E+01  0.43400727098E+02  0.00000000000E+00 0.  1.
         11    1    3    3    0    0  0.13954745867E+02 -0.14181712938E+02 -0.56913643326E+01  0.20694142705E+02  0.51100000000E-03 0. -1.
        -11    1    3    3    0    0  0.94412959194E+01 -0.11456920073E+02  0.38688995977E+01  0.15341690603E+02  0.51100000000E-03 0.  1.
        -12    1    3    3    0    0 -0.13090687117E+01 -0.11557560189E+02 -0.16749549569E+01  0.11751439594E+02  0.00000000000E+00 0.  1.
</event>
<event>
 7    1  0.4356471E-010  0.4778727E+02  0.7816164E-02  0.1312668E+00
        -11   -1    0    0    0    0  0.00000000000E+00  0.00000000000E+00  0.45593999997E+02  0.45594000000E+02  0.51100000000E-03 0.  1.
         11   -1    0    0    0    0 -0.00000000000E+00 -0.00000000000E+00 -0.45593999997E+02  0.45594000000E+02  0.51100000000E-03 0. -1.
    9900012    2    1    2    0    0  0.13880401681E+02 -0.10175214008E+02 -0.39842469965E+02  0.47787274847E+02  0.20000017336E+02 0.  0.
        -12    1    1    2    0    0 -0.13880401681E+02  0.10175214008E+02  0.39842469965E+02  0.43400725153E+02  0.00000000000E+00 0.  1.
         11    1    3    3    0    0  0.33473791015E+01 -0.65430564282E+01 -0.21471728238E+02  0.22694749350E+02  0.51100000000E-03 0. -1.
        -11    1    3    3    0    0  0.67426533152E+01 -0.66020600637E+01 -0.17924214542E+02  0.20256555433E+02  0.51100000000E-03 0.  1.
        -12    1    3    3    0    0  0.37903692638E+01  0.29699024844E+01 -0.44652718487E+00  0.48359700629E+01  0.00000000000E+00 0.  1.
</event>
<event>
 7    1  0.4356471E-010  0.4778727E+02  0.7816164E-02  0.1312668E+00
        -11   -1    0    0    0    0  0.00000000000E+00  0.00000000000E+00  0.45593999997E+02  0.45594000000E+02  0.51100000000E-03 0. -1.
         11   -1    0    0    0    0 -0.00000000000E+00 -0.00000000000E+00 -0.45593999997E+02  0.45594000000E+02  0.51100000000E-03 0.  1.
    9900012    2    1    2    0    0 -0.16700664748E+02 -0.17144087430E+02  0.36204854632E+02  0.47787269179E+02  0.19999991496E+02 0.  0.
        -12    1    1    2    0    0  0.16700664748E+02  0.17144087430E+02 -0.36204854632E+02  0.43400730821E+02  0.00000000000E+00 0.  1.
         11    1    3    3    0    0 -0.16016025380E+01 -0.24540894500E+01 -0.55891220978E+00  0.29832983153E+01  0.51100000000E-03 0.  1.
        -11    1    3    3    0    0  0.62882302427E-01  0.24563746771E+01  0.57992484086E+01  0.62983341531E+01  0.51100000000E-03 0. -1.
         12    1    3    3    0    0 -0.15161944513E+02 -0.17146372657E+02  0.30964518434E+02  0.38505636711E+02  0.00000000000E+00 0. -1.
</event>
<event>
 7    1  0.4356471E-010  0.4778727E+02  0.7816164E-02  0.1312668E+00
        -11   -1    0    0    0    0  0.00000000000E+00  0.00000000000E+00  0.45593999997E+02  0.45594000000E+02  0.51100000000E-03 0.  1.
         11   -1    0    0    0    0 -0.00000000000E+00 -0.00000000000E+00 -0.45593999997E+02  0.45594000000E+02  0.51100000000E-03 0. -1.
    9900012    2    1    2    0    0  0.40926680516E+02 -0.13337020486E+02  0.55456498122E+01  0.47787268147E+02  0.19999986792E+02 0.  0.
        -12    1    1    2    0    0 -0.40926680516E+02  0.13337020486E+02 -0.55456498122E+01  0.43400731853E+02  0.00000000000E+00 0.  1.
         11    1    3    3    0    0  0.28867780004E+01 -0.39645121351E+01 -0.27299439247E+01  0.56127923341E+01  0.51100000000E-03 0. -1.
        -11    1    3    3    0    0  0.23820941440E+02 -0.90257783617E+01 -0.46953202493E+00  0.25477880342E+02  0.51100000000E-03 0.  1.
        -12    1    3    3    0    0  0.14218961076E+02 -0.34672998911E+00  0.87451257618E+01  0.16696595472E+02  0.00000000000E+00 0.  1.
</event>
<event>
 7    1  0.4356471E-010  0.4778727E+02  0.7816164E-02  0.1312668E+00
        -11   -1    0    0    0    0  0.00000000000E+00  0.00000000000E+00  0.45593999997E+02  0.45594000000E+02  0.51100000000E-03 0. -1.
         11   -1    0    0    0    0 -0.00000000000E+00 -0.00000000000E+00 -0.45593999997E+02  0.45594000000E+02  0.51100000000E-03 0.  1.
    9900012    2    1    2    0    0 -0.44555338450E+01 -0.11574063798E+02  0.41591013056E+02  0.47787273028E+02  0.20000009045E+02 0.  0.
        -12    1    1    2    0    0  0.44555338450E+01  0.11574063798E+02 -0.41591013056E+02  0.43400726972E+02  0.00000000000E+00 0.  1.
         11    1    3    3    0    0  0.33388660520E+01 -0.34733921623E+01  0.19177670450E+02  0.19773606747E+02  0.51100000000E-03 0. -1.
        -11    1    3    3    0    0  0.26685889052E+01  0.10845647576E+01  0.36943615621E+01  0.46846510085E+01  0.51100000000E-03 0.  1.
        -12    1    3    3    0    0 -0.10462988802E+02 -0.91852363929E+01  0.18718981044E+02  0.23329015273E+02  0.00000000000E+00 0.  1.
</event>
<event>
 7    1  0.4356471E-010  0.4778727E+02  0.7816164E-02  0.1312668E+00
        -11   -1    0    0    0    0  0.00000000000E+00  0.00000000000E+00  0.45593999997E+02  0.45594000000E+02  0.51100000000E-03 0.  1.
         11   -1    0    0    0    0 -0.00000000000E+00 -0.00000000000E+00 -0.45593999997E+02  0.45594000000E+02  0.51100000000E-03 0. -1.
    9900012    2    1    2    0    0 -0.11261448333E+02 -0.39903941654E+02  0.12824913058E+02  0.47787272206E+02  0.20000005297E+02 0.  0.
        -12    1    1    2    0    0  0.11261448333E+02  0.39903941654E+02 -0.12824913058E+02  0.43400727794E+02  0.00000000000E+00 0.  1.
         11    1    3    3    0    0  0.54573457378E-01  0.10060983806E+01 -0.10361031993E+01  0.14452412651E+01  0.51100000000E-03 0. -1.
        -11    1    3    3    0    0  0.72851403826E+00 -0.10007091379E+02 -0.82794927931E+00  0.10067676536E+02  0.51100000000E-03 0.  1.
         12    1    3    3    0    0 -0.12044535829E+02 -0.30902948656E+02  0.14688965537E+02  0.36274354405E+02  0.00000000000E+00 0. -1.
</event>
<event>
 7    1  0.4356471E-010  0.4778727E+02  0.7816164E-02  0.1312668E+00
        -11   -1    0    0    0    0  0.00000000000E+00  0.00000000000E+00  0.45593999997E+02  0.45594000000E+02  0.51100000000E-03 0.  1.
         11   -1    0    0    0    0 -0.00000000000E+00 -0.00000000000E+00 -0.45593999997E+02  0.45594000000E+02  0.51100000000E-03 0. -1.
    9900012    2    1    2    0    0 -0.20769694618E+02 -0.30264921252E+02 -0.23157663454E+02  0.47787273629E+02  0.20000011782E+02 0.  0.
        -12    1    1    2    0    0  0.20769694618E+02  0.30264921252E+02  0.23157663454E+02  0.43400726371E+02  0.00000000000E+00 0.  1.
         11    1    3    3    0    0 -0.16240681437E+02 -0.20151773705E+02 -0.16816490419E+02  0.30864997445E+02  0.51100000000E-03 0. -1.
        -11    1    3    3    0    0 -0.77641200331E+01 -0.60116249501E+01 -0.17635130870E+01  0.99765311155E+01  0.51100000000E-03 0.  1.
         12    1    3    3    0    0  0.32351068518E+01 -0.41015225964E+01 -0.45776599483E+01  0.69457450683E+01  0.00000000000E+00 0. -1.
</event>
<event>
 7    1  0.4356471E-010  0.4778727E+02  0.7816164E-02  0.1312668E+00
        -11   -1    0    0    0    0  0.00000000000E+00  0.00000000000E+00  0.45593999997E+02  0.45594000000E+02  0.51100000000E-03 0. -1.
         11   -1    0    0    0    0 -0.00000000000E+00 -0.00000000000E+00 -0.45593999997E+02  0.45594000000E+02  0.51100000000E-03 0.  1.
    9900012    2    1    2    0    0 -0.19038354856E+02  0.38596602801E+02  0.56095259026E+01  0.47787268621E+02  0.19999988948E+02 0.  0.
        -12    1    1    2    0    0  0.19038354856E+02 -0.38596602801E+02 -0.56095259026E+01  0.43400731379E+02  0.00000000000E+00 0.  1.
         11    1    3    3    0    0 -0.20556054927E+01  0.42014055500E+01 -0.23467303772E+01  0.52330169369E+01  0.51100000000E-03 0. -1.
        -11    1    3    3    0    0 -0.38905458044E+01 -0.76998271542E+00 -0.74488559753E+00  0.40353531261E+01  0.51100000000E-03 0.  1.
         12    1    3    3    0    0 -0.13092203559E+02  0.35165179967E+02  0.87011418773E+01  0.38518898558E+02  0.00000000000E+00 0. -1.
</event>
<event>
 7    1  0.4356471E-010  0.4778727E+02  0.7816164E-02  0.1312668E+00
        -11   -1    0    0    0    0  0.00000000000E+00  0.00000000000E+00  0.45593999997E+02  0.45594000000E+02  0.51100000000E-03 0.  1.
         11   -1    0    0    0    0 -0.00000000000E+00 -0.00000000000E+00 -0.45593999997E+02  0.45594000000E+02  0.51100000000E-03 0. -1.
    9900012    2    1    2    0    0 -0.28454113920E+02  0.14744173426E+02 -0.29267656827E+02  0.47787274371E+02  0.20000015166E+02 0.  0.
        -12    1    1    2    0    0  0.28454113920E+02 -0.14744173426E+02  0.29267656827E+02  0.43400725629E+02  0.00000000000E+00 0.  1.
         11    1    3    3    0    0 -0.98861514184E+00  0.52938939363E+01 -0.60859265738E+01  0.81265721821E+01  0.51100000000E-03 0. -1.
        -11    1    3    3    0    0 -0.18723666220E+02  0.12832203712E+02 -0.14894965339E+02  0.27149606287E+02  0.51100000000E-03 0.  1.
        -12    1    3    3    0    0 -0.87418325586E+01 -0.33819242221E+01 -0.82867649136E+01  0.12511095902E+02  0.00000000000E+00 0.  1.
</event>
<event>
 7    1  0.4356471E-010  0.4778727E+02  0.7816164E-02  0.1312668E+00
        -11   -1    0    0    0    0  0.00000000000E+00  0.00000000000E+00  0.45593999997E+02  0.45594000000E+02  0.51100000000E-03 0.  1.
         11   -1    0    0    0    0 -0.00000000000E+00 -0.00000000000E+00 -0.45593999997E+02  0.45594000000E+02  0.51100000000E-03 0. -1.
    9900012    2    1    2    0    0  0.13803699629E+02  0.14114200167E+02 -0.38650620324E+02  0.47787271651E+02  0.20000002766E+02 0.  0.
        -12    1    1    2    0    0 -0.13803699629E+02 -0.14114200167E+02  0.38650620324E+02  0.43400728349E+02  0.00000000000E+00 0.  1.
         11    1    3    3    0    0  0.73606136013E+01  0.48838180724E+01 -0.61718484693E+01  0.10775993010E+02  0.51100000000E-03 0. -1.
        -11    1    3    3    0    0  0.10673151629E+02  0.54887894265E+01 -0.23835582954E+02  0.26686663150E+02  0.51100000000E-03 0.  1.
         12    1    3    3    0    0 -0.42300656010E+01  0.37415926679E+01 -0.86431889006E+01  0.10324615492E+02  0.00000000000E+00 0. -1.
</event>
<event>
 7    1  0.4356471E-010  0.4778727E+02  0.7816164E-02  0.1312668E+00
        -11   -1    0    0    0    0  0.00000000000E+00  0.00000000000E+00  0.45593999997E+02  0.45594000000E+02  0.51100000000E-03 0. -1.
         11   -1    0    0    0    0 -0.00000000000E+00 -0.00000000000E+00 -0.45593999997E+02  0.45594000000E+02  0.51100000000E-03 0.  1.
    9900012    2    1    2    0    0 -0.37982720214E+02 -0.11488082266E+02  0.17577261915E+02  0.47787271833E+02  0.20000003597E+02 0.  0.
        -12    1    1    2    0    0  0.37982720214E+02  0.11488082266E+02 -0.17577261915E+02  0.43400728167E+02  0.00000000000E+00 0.  1.
         11    1    3    3    0    0 -0.10129992039E+02  0.37524968935E+01  0.45650917305E+01  0.11727661080E+02  0.51100000000E-03 0. -1.
        -11    1    3    3    0    0 -0.99713470017E+01 -0.36855207432E+01 -0.83374793263E+00  0.10663299679E+02  0.51100000000E-03 0.  1.
        -12    1    3    3    0    0 -0.17881381173E+02 -0.11555058416E+02  0.13845918117E+02  0.25396311074E+02  0.00000000000E+00 0.  1.
</event>
<event>
 7    1  0.4356471E-010  0.4778727E+02  0.7816164E-02  0.1312668E+00
        -11   -1    0    0    0    0  0.00000000000E+00  0.00000000000E+00  0.45593999997E+02  0.45594000000E+02  0.51100000000E-03 0.  1.
         11   -1    0    0    0    0 -0.00000000000E+00 -0.00000000000E+00 -0.45593999997E+02  0.45594000000E+02  0.51100000000E-03 0. -1.
    9900012    2    1    2    0    0 -0.20267060387E+02  0.27471026102E+02 -0.26799480081E+02  0.47787272536E+02  0.20000006801E+02 0.  0.
        -12    1    1    2    0    0  0.20267060387E+02 -0.27471026102E+02  0.26799480081E+02  0.43400727464E+02  0.00000000000E+00 0.  1.
         11    1    3    3    0    0 -0.72413365475E+01  0.53001648338E+01 -0.94878501720E+01  0.13059402873E+02  0.51100000000E-03 0. -1.
        -11    1    3    3    0    0 -0.93890998325E+01  0.93099854403E+01 -0.47436067681E+00  0.13230874607E+02  0.51100000000E-03 0.  1.
        -12    1    3    3    0    0 -0.36366240068E+01  0.12860875828E+02 -0.16837269232E+02  0.21496995055E+02  0.00000000000E+00 0.  1.
</event>
<event>
 7    1  0.4356471E-010  0.4778727E+02  0.7816164E-02  0.1312668E+00
        -11   -1    0    0    0    0  0.00000000000E+00  0.00000000000E+00  0.45593999997E+02  0.45594000000E+02  0.51100000000E-03 0.  1.
         11   -1    0    0    0    0 -0.00000000000E+00 -0.00000000000E+00 -0.45593999997E+02  0.45594000000E+02  0.51100000000E-03 0. -1.
    9900012    2    1    2    0    0 -0.16338287401E+00  0.31954867738E+02 -0.29368062855E+02  0.47787269799E+02  0.19999994321E+02 0.  0.
        -12    1    1    2    0    0  0.16338287401E+00 -0.31954867738E+02  0.29368062855E+02  0.43400730201E+02  0.00000000000E+00 0.  1.
         11    1    3    3    0    0 -0.28704824128E+01  0.30051359799E+02 -0.16378414478E+02  0.34344961146E+02  0.51100000000E-03 0. -1.
        -11    1    3    3    0    0  0.43560722022E+00 -0.66167939268E-01 -0.20662280166E+01  0.21126832049E+01  0.51100000000E-03 0.  1.
         12    1    3    3    0    0  0.22714923186E+01  0.19696758786E+01 -0.10923420361E+02  0.11329625448E+02  0.00000000000E+00 0. -1.
</event>
<event>
 7    1  0.4356471E-010  0.4778727E+02  0.7816164E-02  0.1312668E+00
        -11   -1    0    0    0    0  0.00000000000E+00  0.00000000000E+00  0.45593999997E+02  0.45594000000E+02  0.51100000000E-03 0.  1.
         11   -1    0    0    0    0 -0.00000000000E+00 -0.00000000000E+00 -0.45593999997E+02  0.45594000000E+02  0.51100000000E-03 0. -1.
    9900012    2    1    2    0    0  0.26548259123E+02  0.31604536169E+02  0.13415168302E+02  0.47787268330E+02  0.19999987623E+02 0.  0.
        -12    1    1    2    0    0 -0.26548259123E+02 -0.31604536169E+02 -0.13415168302E+02  0.43400731670E+02  0.00000000000E+00 0.  1.
         11    1    3    3    0    0  0.20464165199E+02  0.22966669047E+02  0.91039612146E+01  0.32080088131E+02  0.51100000000E-03 0. -1.
        -11    1    3    3    0    0  0.20662756734E+01  0.88845083008E+01 -0.85077050335E+00  0.91612113618E+01  0.51100000000E-03 0.  1.
         12    1    3    3    0    0  0.40178182502E+01 -0.24664117925E+00  0.51619775911E+01  0.65459688369E+01  0.00000000000E+00 0. -1.
</event>
<event>
 7    1  0.4356471E-010  0.4778728E+02  0.7816164E-02  0.1312668E+00
        -11   -1    0    0    0    0  0.00000000000E+00  0.00000000000E+00  0.45593999997E+02  0.45594000000E+02  0.51100000000E-03 0.  1.
         11   -1    0    0    0    0 -0.00000000000E+00 -0.00000000000E+00 -0.45593999997E+02  0.45594000000E+02  0.51100000000E-03 0. -1.
    9900012    2    1    2    0    0 -0.42144893427E+02  0.83379644043E+01 -0.61570230851E+01  0.47787278513E+02  0.20000034051E+02 0.  0.
        -12    1    1    2    0    0  0.42144893427E+02 -0.83379644043E+01  0.61570230851E+01  0.43400721487E+02  0.00000000000E+00 0.  1.
         11    1    3    3    0    0 -0.15289250620E+02  0.85809779613E+01  0.18621802927E+01  0.17631281377E+02  0.51100000000E-03 0. -1.
        -11    1    3    3    0    0 -0.75255095524E+00  0.93520044658E+00 -0.34201379938E+01  0.36246761198E+01  0.51100000000E-03 0.  1.
         12    1    3    3    0    0 -0.26103091852E+02 -0.11782140035E+01 -0.45990653839E+01  0.26531321016E+02  0.00000000000E+00 0. -1.
</event>
<event>
 7    1  0.4356471E-010  0.4778726E+02  0.7816164E-02  0.1312668E+00
        -11   -1    0    0    0    0  0.00000000000E+00  0.00000000000E+00  0.45593999997E+02  0.45594000000E+02  0.51100000000E-03 0. -1.
         11   -1    0    0    0    0 -0.00000000000E+00 -0.00000000000E+00 -0.45593999997E+02  0.45594000000E+02  0.51100000000E-03 0.  1.
    9900012    2    1    2    0    0  0.27403733483E+02  0.33138625738E+02  0.58728871632E+01  0.47787263506E+02  0.19999965628E+02 0.  0.
        -12    1    1    2    0    0 -0.27403733483E+02 -0.33138625738E+02 -0.58728871632E+01  0.43400736494E+02  0.00000000000E+00 0.  1.
         11    1    3    3    0    0  0.32110677510E+01  0.42307355246E+01 -0.18148027249E+01  0.56128057486E+01  0.51100000000E-03 0. -1.
        -11    1    3    3    0    0  0.79871164262E+01  0.16422756278E+02 -0.38850656977E+01  0.18670690622E+02  0.51100000000E-03 0.  1.
         12    1    3    3    0    0  0.16205549306E+02  0.12485133936E+02  0.11572755586E+02  0.23503767135E+02  0.00000000000E+00 0. -1.
</event>
<event>
 7    1  0.4356471E-010  0.4778728E+02  0.7816164E-02  0.1312668E+00
        -11   -1    0    0    0    0  0.00000000000E+00  0.00000000000E+00  0.45593999997E+02  0.45594000000E+02  0.51100000000E-03 0.  1.
         11   -1    0    0    0    0 -0.00000000000E+00 -0.00000000000E+00 -0.45593999997E+02  0.45594000000E+02  0.51100000000E-03 0. -1.
    9900012    2    1    2    0    0  0.34668330178E+02  0.24696291046E+02 -0.84748357746E+01  0.47787277078E+02  0.20000027510E+02 0.  0.
        -12    1    1    2    0    0 -0.34668330178E+02 -0.24696291046E+02  0.84748357746E+01  0.43400722922E+02  0.00000000000E+00 0.  1.
         11    1    3    3    0    0  0.66715932120E+01  0.95886830594E+01 -0.89002830867E+00  0.11715167496E+02  0.51100000000E-03 0. -1.
        -11    1    3    3    0    0  0.15613145760E+02  0.16577883919E+02 -0.42849788973E+01  0.23172345591E+02  0.51100000000E-03 0.  1.
         12    1    3    3    0    0  0.12383591206E+02 -0.14702759322E+01 -0.32998285686E+01  0.12899763992E+02  0.00000000000E+00 0. -1.
</event>
<event>
 7    1  0.4356471E-010  0.4778727E+02  0.7816164E-02  0.1312668E+00
        -11   -1    0    0    0    0  0.00000000000E+00  0.00000000000E+00  0.45593999997E+02  0.45594000000E+02  0.51100000000E-03 0. -1.
         11   -1    0    0    0    0 -0.00000000000E+00 -0.00000000000E+00 -0.45593999997E+02  0.45594000000E+02  0.51100000000E-03 0.  1.
    9900012    2    1    2    0    0  0.11260034727E+02  0.30906819599E+02  0.28312595901E+02  0.47787274587E+02  0.20000016150E+02 0.  0.
        -12    1    1    2    0    0 -0.11260034727E+02 -0.30906819599E+02 -0.28312595901E+02  0.43400725413E+02  0.00000000000E+00 0.  1.
         11    1    3    3    0    0  0.60090037148E+01  0.15064434649E+02  0.10873368126E+02  0.19526275928E+02  0.51100000000E-03 0. -1.
        -11    1    3    3    0    0 -0.14249641093E+01  0.81146425411E+01  0.22054446044E+00  0.82417586960E+01  0.51100000000E-03 0.  1.
        -12    1    3    3    0    0  0.66759951213E+01  0.77277424080E+01  0.17218683315E+02  0.20019239963E+02  0.00000000000E+00 0.  1.
</event>
<event>
 7    1  0.4356471E-010  0.4778727E+02  0.7816164E-02  0.1312668E+00
        -11   -1    0    0    0    0  0.00000000000E+00  0.00000000000E+00  0.45593999997E+02  0.45594000000E+02  0.51100000000E-03 0.  1.
         11   -1    0    0    0    0 -0.00000000000E+00 -0.00000000000E+00 -0.45593999997E+02  0.45594000000E+02  0.51100000000E-03 0. -1.
    9900012    2    1    2    0    0  0.36922775539E+02 -0.10129574779E+02 -0.20438290297E+02  0.47787270180E+02  0.19999996057E+02 0.  0.
        -12    1    1    2    0    0 -0.36922775539E+02  0.10129574779E+02  0.20438290297E+02  0.43400729820E+02  0.00000000000E+00 0.  1.
         11    1    3    3    0    0  0.15699650727E+02 -0.12318893858E+02 -0.44127973800E+01  0.20437880512E+02  0.51100000000E-03 0. -1.
        -11    1    3    3    0    0  0.10587619856E+02 -0.11741702861E+01 -0.53962776114E+01  0.11941364344E+02  0.51100000000E-03 0.  1.
        -12    1    3    3    0    0  0.10635504956E+02  0.33634893650E+01 -0.10629215306E+02  0.15408025324E+02  0.00000000000E+00 0.  1.
</event>
<event>
 7    1  0.4356471E-010  0.4778727E+02  0.7816164E-02  0.1312668E+00
        -11   -1    0    0    0    0  0.00000000000E+00  0.00000000000E+00  0.45593999997E+02  0.45594000000E+02  0.51100000000E-03 0.  1.
         11   -1    0    0    0    0 -0.00000000000E+00 -0.00000000000E+00 -0.45593999997E+02  0.45594000000E+02  0.51100000000E-03 0. -1.
    9900012    2    1    2    0    0 -0.91398190112E+01 -0.11081694063E+01 -0.42412958405E+02  0.47787269917E+02  0.19999994862E+02 0.  0.
        -12    1    1    2    0    0  0.91398190112E+01  0.11081694063E+01  0.42412958405E+02  0.43400730083E+02  0.00000000000E+00 0.  1.
         11    1    3    3    0    0 -0.87311322652E+01  0.42386971739E+00 -0.90678566217E+01  0.12595172097E+02  0.51100000000E-03 0. -1.
        -11    1    3    3    0    0  0.46085655928E+00 -0.61845433699E+01 -0.14679680118E+02  0.15935933424E+02  0.51100000000E-03 0.  1.
         12    1    3    3    0    0 -0.86954330528E+00  0.46525042463E+01 -0.18665421666E+02  0.19256164397E+02  0.00000000000E+00 0. -1.
</event>
<event>
 7    1  0.4356471E-010  0.4778727E+02  0.7816164E-02  0.1312668E+00
        -11   -1    0    0    0    0  0.00000000000E+00  0.00000000000E+00  0.45593999997E+02  0.45594000000E+02  0.51100000000E-03 0.  1.
         11   -1    0    0    0    0 -0.00000000000E+00 -0.00000000000E+00 -0.45593999997E+02  0.45594000000E+02  0.51100000000E-03 0. -1.
    9900012    2    1    2    0    0  0.24598048353E+02 -0.14338644486E+02 -0.32756105500E+02  0.47787272403E+02  0.20000006192E+02 0.  0.
        -12    1    1    2    0    0 -0.24598048353E+02  0.14338644486E+02  0.32756105500E+02  0.43400727597E+02  0.00000000000E+00 0.  1.
         11    1    3    3    0    0  0.14863811801E+02 -0.13914407112E+02 -0.14059354375E+02  0.24742859015E+02  0.51100000000E-03 0. -1.
        -11    1    3    3    0    0  0.47671874305E+01 -0.46744128213E+01 -0.72010960876E+01  0.98199794473E+01  0.51100000000E-03 0.  1.
        -12    1    3    3    0    0  0.49670491215E+01  0.42501754472E+01 -0.11495655038E+02  0.13224433941E+02  0.00000000000E+00 0.  1.
</event>
<event>
 7    1  0.4356471E-010  0.4778727E+02  0.7816164E-02  0.1312668E+00
        -11   -1    0    0    0    0  0.00000000000E+00  0.00000000000E+00  0.45593999997E+02  0.45594000000E+02  0.51100000000E-03 0.  1.
         11   -1    0    0    0    0 -0.00000000000E+00 -0.00000000000E+00 -0.45593999997E+02  0.45594000000E+02  0.51100000000E-03 0. -1.
    9900012    2    1    2    0    0  0.19891690322E+02 -0.35468152125E+02 -0.15164234236E+02  0.47787272368E+02  0.20000006033E+02 0.  0.
        -12    1    1    2    0    0 -0.19891690322E+02  0.35468152125E+02  0.15164234236E+02  0.43400727632E+02  0.00000000000E+00 0.  1.
         11    1    3    3    0    0 -0.21050277586E+01 -0.34645143427E+01 -0.20141442654E+01  0.45266741520E+01  0.51100000000E-03 0. -1.
        -11    1    3    3    0    0  0.30287753578E+01 -0.58271233760E+01  0.28882259607E+01  0.71743080829E+01  0.51100000000E-03 0.  1.
         12    1    3    3    0    0  0.18967942723E+02 -0.26176514407E+02 -0.16038315932E+02  0.36086290133E+02  0.00000000000E+00 0. -1.
</event>
<event>
 7    1  0.4356471E-010  0.4778727E+02  0.7816164E-02  0.1312668E+00
        -11   -1    0    0    0    0  0.00000000000E+00  0.00000000000E+00  0.45593999997E+02  0.45594000000E+02  0.51100000000E-03 0. -1.
         11   -1    0    0    0    0 -0.00000000000E+00 -0.00000000000E+00 -0.45593999997E+02  0.45594000000E+02  0.51100000000E-03 0.  1.
    9900012    2    1    2    0    0 -0.27788609897E+01 -0.43303858143E+02  0.82282254139E+00  0.47787271488E+02  0.20000002021E+02 0.  0.
        -12    1    1    2    0    0  0.27788609897E+01  0.43303858143E+02 -0.82282254139E+00  0.43400728512E+02  0.00000000000E+00 0.  1.
         11    1    3    3    0    0 -0.27561772571E+01 -0.14374110386E+02 -0.15441107910E+01  0.14717195414E+02  0.51100000000E-03 0. -1.
        -11    1    3    3    0    0 -0.65056487558E+00 -0.89239229244E+01 -0.66191068907E+01  0.11129789365E+02  0.51100000000E-03 0.  1.
        -12    1    3    3    0    0  0.62788114300E+00 -0.20005824832E+02  0.89860402231E+01  0.21940286708E+02  0.00000000000E+00 0.  1.
</event>
<event>
 7    1  0.4356471E-010  0.4778729E+02  0.7816164E-02  0.1312668E+00
        -11   -1    0    0    0    0  0.00000000000E+00  0.00000000000E+00  0.45593999997E+02  0.45594000000E+02  0.51100000000E-03 0. -1.
         11   -1    0    0    0    0 -0.00000000000E+00 -0.00000000000E+00 -0.45593999997E+02  0.45594000000E+02  0.51100000000E-03 0.  1.
    9900012    2    1    2    0    0 -0.35852418476E+02  0.23219406563E+02  0.76866872197E+01  0.47787286732E+02  0.20000071527E+02 0.  0.
        -12    1    1    2    0    0  0.35852418476E+02 -0.23219406563E+02 -0.76866872197E+01  0.43400713268E+02  0.00000000000E+00 0.  1.
         11    1    3    3    0    0 -0.79140317355E+00 -0.12213166451E+00 -0.95512552582E+00  0.12463948643E+01  0.51100000000E-03 0. -1.
        -11    1    3    3    0    0 -0.11274141717E+02  0.56252367041E+01 -0.54211597448E+01  0.13716360038E+02  0.51100000000E-03 0.  1.
         12    1    3    3    0    0 -0.23786873585E+02  0.17716301523E+02  0.14062972490E+02  0.32824531830E+02  0.00000000000E+00 0. -1.
</event>
<event>
 7    1  0.4356471E-010  0.4778727E+02  0.7816164E-02  0.1312668E+00
        -11   -1    0    0    0    0  0.00000000000E+00  0.00000000000E+00  0.45593999997E+02  0.45594000000E+02  0.51100000000E-03 0.  1.
         11   -1    0    0    0    0 -0.00000000000E+00 -0.00000000000E+00 -0.45593999997E+02  0.45594000000E+02  0.51100000000E-03 0. -1.
    9900012    2    1    2    0    0 -0.72060225640E+01  0.29676585734E+02 -0.30838233980E+02  0.47787272160E+02  0.20000005087E+02 0.  0.
        -12    1    1    2    0    0  0.72060225640E+01 -0.29676585734E+02  0.30838233980E+02  0.43400727840E+02  0.00000000000E+00 0.  1.
         11    1    3    3    0    0 -0.63099638008E+01  0.58204537922E+01 -0.74634737862E+01  0.11375269963E+02  0.51100000000E-03 0. -1.
        -11    1    3    3    0    0 -0.23949550317E+01  0.26926297262E+01 -0.11600522815E+02  0.12147353386E+02  0.51100000000E-03 0.  1.
         12    1    3    3    0    0  0.14988962685E+01  0.21163502216E+02 -0.11774237379E+02  0.24264648811E+02  0.00000000000E+00 0. -1.
</event>
<event>
 7    1  0.4356471E-010  0.4778727E+02  0.7816164E-02  0.1312668E+00
        -11   -1    0    0    0    0  0.00000000000E+00  0.00000000000E+00  0.45593999997E+02  0.45594000000E+02  0.51100000000E-03 0.  1.
         11   -1    0    0    0    0 -0.00000000000E+00 -0.00000000000E+00 -0.45593999997E+02  0.45594000000E+02  0.51100000000E-03 0. -1.
    9900012    2    1    2    0    0  0.56715907923E+01  0.37236503799E+02 -0.21561523887E+02  0.47787268790E+02  0.19999989719E+02 0.  0.
        -12    1    1    2    0    0 -0.56715907923E+01 -0.37236503799E+02  0.21561523887E+02  0.43400731210E+02  0.00000000000E+00 0.  1.
         11    1    3    3    0    0  0.22472534569E+01  0.21014333128E+02 -0.90023466433E+01  0.22971603999E+02  0.51100000000E-03 0. -1.
        -11    1    3    3    0    0  0.86544862760E+01  0.10299156225E+02 -0.70973339894E+01  0.15210026353E+02  0.51100000000E-03 0.  1.
        -12    1    3    3    0    0 -0.52301489405E+01  0.59230144455E+01 -0.54618432540E+01  0.96056384375E+01  0.00000000000E+00 0.  1.
</event>
<event>
 7    1  0.4356471E-010  0.4778727E+02  0.7816164E-02  0.1312668E+00
        -11   -1    0    0    0    0  0.00000000000E+00  0.00000000000E+00  0.45593999997E+02  0.45594000000E+02  0.51100000000E-03 0.  1.
         11   -1    0    0    0    0 -0.00000000000E+00 -0.00000000000E+00 -0.45593999997E+02  0.45594000000E+02  0.51100000000E-03 0. -1.
    9900012    2    1    2    0    0  0.76935307709E+01  0.41729247489E+02 -0.91160714216E+01  0.47787271091E+02  0.20000000211E+02 0.  0.
        -12    1    1    2    0    0 -0.76935307709E+01 -0.41729247489E+02  0.91160714216E+01  0.43400728909E+02  0.00000000000E+00 0.  1.
         11    1    3    3    0    0  0.23390116467E+01  0.28311570440E+02 -0.14432058164E+02  0.31863777230E+02  0.51100000000E-03 0. -1.
        -11    1    3    3    0    0  0.76405947450E+00 -0.31920376309E-02 -0.31575708004E-01  0.76471848163E+00  0.51100000000E-03 0.  1.
         12    1    3    3    0    0  0.45904596498E+01  0.13420869086E+02  0.53475624504E+01  0.15158775379E+02  0.00000000000E+00 0. -1.
</event>
<event>
 7    1  0.4356471E-010  0.4778727E+02  0.7816164E-02  0.1312668E+00
        -11   -1    0    0    0    0  0.00000000000E+00  0.00000000000E+00  0.45593999997E+02  0.45594000000E+02  0.51100000000E-03 0. -1.
         11   -1    0    0    0    0 -0.00000000000E+00 -0.00000000000E+00 -0.45593999997E+02  0.45594000000E+02  0.51100000000E-03 0.  1.
    9900012    2    1    2    0    0 -0.55106826909E+00  0.23184946997E+02  0.36684840383E+02  0.47787274690E+02  0.20000016623E+02 0.  0.
        -12    1    1    2    0    0  0.55106826909E+00 -0.23184946997E+02 -0.36684840383E+02  0.43400725310E+02  0.00000000000E+00 0.  1.
         11    1    3    3    0    0  0.24969426463E+01  0.12569687612E+02  0.11435026775E+02  0.17175319702E+02  0.51100000000E-03 0. -1.
        -11    1    3    3    0    0 -0.43393911891E+01  0.12304180373E+02  0.13896818483E+02  0.19061603677E+02  0.51100000000E-03 0.  1.
         12    1    3    3    0    0  0.12913802737E+01 -0.16889209880E+01  0.11352995124E+02  0.11550351311E+02  0.00000000000E+00 0. -1.
</event>
<event>
 7    1  0.4356471E-010  0.4778727E+02  0.7816164E-02  0.1312668E+00
        -11   -1    0    0    0    0  0.00000000000E+00  0.00000000000E+00  0.45593999997E+02  0.45594000000E+02  0.51100000000E-03 0.  1.
         11   -1    0    0    0    0 -0.00000000000E+00 -0.00000000000E+00 -0.45593999997E+02  0.45594000000E+02  0.51100000000E-03 0. -1.
    9900012    2    1    2    0    0  0.34583293978E+02 -0.11403028570E+02 -0.23613340220E+02  0.47787272826E+02  0.20000008123E+02 0.  0.
        -12    1    1    2    0    0 -0.34583293978E+02  0.11403028570E+02  0.23613340220E+02  0.43400727174E+02  0.00000000000E+00 0.  1.
         11    1    3    3    0    0 -0.39080326040E-01 -0.25387257228E+01 -0.32588976083E+00  0.25598554578E+01  0.51100000000E-03 0. -1.
        -11    1    3    3    0    0 -0.55769292310E+00 -0.10937272711E+01  0.11590188885E+01  0.16883677873E+01  0.51100000000E-03 0.  1.
         12    1    3    3    0    0  0.35180067227E+02 -0.77705755757E+01 -0.24446469347E+02  0.43539049581E+02  0.00000000000E+00 0. -1.
</event>
<event>
 7    1  0.4356471E-010  0.4778727E+02  0.7816164E-02  0.1312668E+00
        -11   -1    0    0    0    0  0.00000000000E+00  0.00000000000E+00  0.45593999997E+02  0.45594000000E+02  0.51100000000E-03 0.  1.
         11   -1    0    0    0    0 -0.00000000000E+00 -0.00000000000E+00 -0.45593999997E+02  0.45594000000E+02  0.51100000000E-03 0. -1.
    9900012    2    1    2    0    0  0.67992385356E+01  0.36742908880E+02 -0.22076055643E+02  0.47787271546E+02  0.20000002285E+02 0.  0.
        -12    1    1    2    0    0 -0.67992385356E+01 -0.36742908880E+02  0.22076055643E+02  0.43400728454E+02  0.00000000000E+00 0.  1.
         11    1    3    3    0    0  0.42309004671E+01  0.15751279271E+02 -0.10883762952E+02  0.19607641717E+02  0.51100000000E-03 0. -1.
        -11    1    3    3    0    0 -0.23871084072E+01  0.20085399147E+02 -0.11243601510E+02  0.23141739793E+02  0.51100000000E-03 0.  1.
        -12    1    3    3    0    0  0.49554464757E+01  0.90623046157E+00  0.51308819166E-01  0.50378900363E+01  0.00000000000E+00 0.  1.
</event>
<event>
 7    1  0.4356471E-010  0.4778727E+02  0.7816164E-02  0.1312668E+00
        -11   -1    0    0    0    0  0.00000000000E+00  0.00000000000E+00  0.45593999997E+02  0.45594000000E+02  0.51100000000E-03 0. -1.
         11   -1    0    0    0    0 -0.00000000000E+00 -0.00000000000E+00 -0.45593999997E+02  0.45594000000E+02  0.51100000000E-03 0.  1.
    9900012    2    1    2    0    0 -0.70028256641E+01 -0.39043272548E+02  0.17612693672E+02  0.47787266401E+02  0.19999978829E+02 0.  0.
        -12    1    1    2    0    0  0.70028256641E+01  0.39043272548E+02 -0.17612693672E+02  0.43400733599E+02  0.00000000000E+00 0.  1.
         11    1    3    3    0    0 -0.20169272019E+01 -0.66980337987E+01  0.19759098077E+01  0.72688287871E+01  0.51100000000E-03 0. -1.
        -11    1    3    3    0    0  0.28854975813E+01 -0.80138991351E+00 -0.19320922632E+01  0.35638887272E+01  0.51100000000E-03 0.  1.
         12    1    3    3    0    0 -0.78713960435E+01 -0.31543848836E+02  0.17568876128E+02  0.36954548887E+02  0.00000000000E+00 0. -1.
</event>
<event>
 7    1  0.4356471E-010  0.4778727E+02  0.7816164E-02  0.1312668E+00
        -11   -1    0    0    0    0  0.00000000000E+00  0.00000000000E+00  0.45593999997E+02  0.45594000000E+02  0.51100000000E-03 0.  1.
         11   -1    0    0    0    0 -0.00000000000E+00 -0.00000000000E+00 -0.45593999997E+02  0.45594000000E+02  0.51100000000E-03 0. -1.
    9900012    2    1    2    0    0 -0.34069597210E+02 -0.25666713279E+02 -0.80066041045E+01  0.47787270353E+02  0.19999996848E+02 0.  0.
        -12    1    1    2    0    0  0.34069597210E+02  0.25666713279E+02  0.80066041045E+01  0.43400729647E+02  0.00000000000E+00 0.  1.
         11    1    3    3    0    0 -0.33686007005E+02 -0.21027153476E+02 -0.10831943106E+02  0.41160894584E+02  0.51100000000E-03 0. -1.
        -11    1    3    3    0    0 -0.19045442101E+01 -0.30444052213E+01  0.90557029515E+00  0.37034780437E+01  0.51100000000E-03 0.  1.
        -12    1    3    3    0    0  0.15209540052E+01 -0.15951545822E+01  0.19197687066E+01  0.29228977255E+01  0.00000000000E+00 0.  1.
</event>
<event>
 7    1  0.4356471E-010  0.4778727E+02  0.7816164E-02  0.1312668E+00
        -11   -1    0    0    0    0  0.00000000000E+00  0.00000000000E+00  0.45593999997E+02  0.45594000000E+02  0.51100000000E-03 0.  1.
         11   -1    0    0    0    0 -0.00000000000E+00 -0.00000000000E+00 -0.45593999997E+02  0.45594000000E+02  0.51100000000E-03 0. -1.
    9900012    2    1    2    0    0 -0.25799852236E+02 -0.21564068966E+02 -0.27440512501E+02  0.47787272218E+02  0.20000005349E+02 0.  0.
        -12    1    1    2    0    0  0.25799852236E+02  0.21564068966E+02  0.27440512501E+02  0.43400727782E+02  0.00000000000E+00 0.  1.
         11    1    3    3    0    0 -0.19653924351E+02 -0.23738427488E+02 -0.25124032009E+02  0.39761874536E+02  0.51100000000E-03 0. -1.
        -11    1    3    3    0    0 -0.28584801001E+01 -0.84383658161E+00  0.35692533119E-01  0.29806447083E+01  0.51100000000E-03 0.  1.
        -12    1    3    3    0    0 -0.32874477851E+01  0.30181951036E+01 -0.23521730248E+01  0.50447529733E+01  0.00000000000E+00 0.  1.
</event>
<event>
 7    1  0.4356471E-010  0.4778730E+02  0.7816164E-02  0.1312668E+00
        -11   -1    0    0    0    0  0.00000000000E+00  0.00000000000E+00  0.45593999997E+02  0.45594000000E+02  0.51100000000E-03 0.  1.
         11   -1    0    0    0    0 -0.00000000000E+00 -0.00000000000E+00 -0.45593999997E+02  0.45594000000E+02  0.51100000000E-03 0. -1.
    9900012    2    1    2    0    0  0.33796111135E+02 -0.79511076092E+01 -0.26042719752E+02  0.47787303091E+02  0.20000146112E+02 0.  0.
        -12    1    1    2    0    0 -0.33796111135E+02  0.79511076092E+01  0.26042719752E+02  0.43400696909E+02  0.00000000000E+00 0.  1.
         11    1    3    3    0    0  0.15912381263E+02 -0.46891564034E+01 -0.52907557580E+01  0.17412184297E+02  0.51100000000E-03 0. -1.
        -11    1    3    3    0    0  0.16066657639E+02 -0.23657900320E+00 -0.96904686687E+01  0.18764291636E+02  0.51100000000E-03 0.  1.
        -12    1    3    3    0    0  0.18170722339E+01 -0.30253722026E+01 -0.11061495326E+02  0.11610827159E+02  0.00000000000E+00 0.  1.
</event>
<event>
 7    1  0.4356471E-010  0.4778727E+02  0.7816164E-02  0.1312668E+00
        -11   -1    0    0    0    0  0.00000000000E+00  0.00000000000E+00  0.45593999997E+02  0.45594000000E+02  0.51100000000E-03 0.  1.
         11   -1    0    0    0    0 -0.00000000000E+00 -0.00000000000E+00 -0.45593999997E+02  0.45594000000E+02  0.51100000000E-03 0. -1.
    9900012    2    1    2    0    0 -0.17317204947E+02 -0.25944381582E+02 -0.30176595560E+02  0.47787269102E+02  0.19999991145E+02 0.  0.
        -12    1    1    2    0    0  0.17317204947E+02  0.25944381582E+02  0.30176595560E+02  0.43400730898E+02  0.00000000000E+00 0.  1.
         11    1    3    3    0    0 -0.13332224006E+02 -0.80800031235E+01 -0.20480525066E+02  0.25738814166E+02  0.51100000000E-03 0. -1.
        -11    1    3    3    0    0 -0.14204641402E+01 -0.57162306030E+01 -0.73398458065E+01  0.94109695253E+01  0.51100000000E-03 0.  1.
        -12    1    3    3    0    0 -0.25645168004E+01 -0.12148147855E+02 -0.23562246881E+01  0.12637485411E+02  0.00000000000E+00 0.  1.
</event>
<event>
 7    1  0.4356471E-010  0.4778728E+02  0.7816164E-02  0.1312668E+00
        -11   -1    0    0    0    0  0.00000000000E+00  0.00000000000E+00  0.45593999997E+02  0.45594000000E+02  0.51100000000E-03 0. -1.
         11   -1    0    0    0    0 -0.00000000000E+00 -0.00000000000E+00 -0.45593999997E+02  0.45594000000E+02  0.51100000000E-03 0.  1.
    9900012    2    1    2    0    0 -0.74609517909E+01 -0.42734640792E+02  0.13067256190E+01  0.47787275846E+02  0.20000021894E+02 0.  0.
        -12    1    1    2    0    0  0.74609517909E+01  0.42734640792E+02 -0.13067256190E+01  0.43400724154E+02  0.00000000000E+00 0.  1.
         11    1    3    3    0    0 -0.77049906904E+01 -0.35781683686E+02  0.32322828089E+01  0.36744297808E+02  0.51100000000E-03 0. -1.
        -11    1    3    3    0    0 -0.31037571385E+01 -0.56801837431E+01 -0.32265175087E+01  0.72324415811E+01  0.51100000000E-03 0.  1.
         12    1    3    3    0    0  0.33477960379E+01 -0.12727733623E+01  0.13009603187E+01  0.38105364575E+01  0.00000000000E+00 0. -1.
</event>
<event>
 7    1  0.4356471E-010  0.4778733E+02  0.7816164E-02  0.1312667E+00
        -11   -1    0    0    0    0  0.00000000000E+00  0.00000000000E+00  0.45593999997E+02  0.45594000000E+02  0.51100000000E-03 0.  1.
         11   -1    0    0    0    0 -0.00000000000E+00 -0.00000000000E+00 -0.45593999997E+02  0.45594000000E+02  0.51100000000E-03 0. -1.
    9900012    2    1    2    0    0 -0.12142305744E+02 -0.41531656276E+02  0.33621591409E+01  0.47787329776E+02  0.20000267780E+02 0.  0.
        -12    1    1    2    0    0  0.12142305744E+02  0.41531656276E+02 -0.33621591409E+01  0.43400670224E+02  0.00000000000E+00 0.  1.
         11    1    3    3    0    0 -0.38444551158E+01 -0.19388085821E+02  0.47410200240E+01  0.20326214061E+02  0.51100000000E-03 0.  1.
        -11    1    3    3    0    0  0.18864382863E+01 -0.14670208164E+02 -0.53006483242E+00  0.14800494113E+02  0.51100000000E-03 0. -1.
        -12    1    3    3    0    0 -0.10184288914E+02 -0.74733622904E+01 -0.84879605068E+00  0.12660621602E+02  0.00000000000E+00 0.  1.
</event>
<event>
 7    1  0.4356471E-010  0.4778727E+02  0.7816164E-02  0.1312668E+00
        -11   -1    0    0    0    0  0.00000000000E+00  0.00000000000E+00  0.45593999997E+02  0.45594000000E+02  0.51100000000E-03 0. -1.
         11   -1    0    0    0    0 -0.00000000000E+00 -0.00000000000E+00 -0.45593999997E+02  0.45594000000E+02  0.51100000000E-03 0.  1.
    9900012    2    1    2    0    0  0.39509954130E+02  0.18566374427E+01  0.17864485453E+02  0.47787269379E+02  0.19999992407E+02 0.  0.
        -12    1    1    2    0    0 -0.39509954130E+02 -0.18566374427E+01 -0.17864485453E+02  0.43400730621E+02  0.00000000000E+00 0.  1.
         11    1    3    3    0    0  0.21861183424E+02  0.18313482875E+01  0.13135666243E+02  0.25569726341E+02  0.51100000000E-03 0. -1.
        -11    1    3    3    0    0  0.11278883869E+02 -0.53870967449E+01  0.58198576214E+01  0.13787848841E+02  0.51100000000E-03 0.  1.
         12    1    3    3    0    0  0.63698868376E+01  0.54123859001E+01 -0.10910384114E+01  0.84296941979E+01  0.00000000000E+00 0. -1.
</event>
<event>
 7    1  0.4356471E-010  0.4778730E+02  0.7816164E-02  0.1312668E+00
        -11   -1    0    0    0    0  0.00000000000E+00  0.00000000000E+00  0.45593999997E+02  0.45594000000E+02  0.51100000000E-03 0.  1.
         11   -1    0    0    0    0 -0.00000000000E+00 -0.00000000000E+00 -0.45593999997E+02  0.45594000000E+02  0.51100000000E-03 0. -1.
    9900012    2    1    2    0    0  0.39184722048E+02  0.13234692924E+02  0.13153747587E+02  0.47787301684E+02  0.20000139696E+02 0.  0.
        -12    1    1    2    0    0 -0.39184722048E+02 -0.13234692924E+02 -0.13153747587E+02  0.43400698316E+02  0.00000000000E+00 0.  1.
         11    1    3    3    0    0  0.29880811319E+02  0.64971870575E+01  0.34683300457E+01  0.30775081451E+02  0.51100000000E-03 0. -1.
        -11    1    3    3    0    0  0.10050104902E+02  0.56747147309E+01  0.58027801730E+01  0.12918175329E+02  0.51100000000E-03 0.  1.
        -12    1    3    3    0    0 -0.74619417338E+00  0.10627911356E+01  0.38826373687E+01  0.40940449044E+01  0.00000000000E+00 0.  1.
</event>
<event>
 7    1  0.4356471E-010  0.4778726E+02  0.7816164E-02  0.1312668E+00
        -11   -1    0    0    0    0  0.00000000000E+00  0.00000000000E+00  0.45593999997E+02  0.45594000000E+02  0.51100000000E-03 0. -1.
         11   -1    0    0    0    0 -0.00000000000E+00 -0.00000000000E+00 -0.45593999997E+02  0.45594000000E+02  0.51100000000E-03 0.  1.
    9900012    2    1    2    0    0  0.22698432219E+02 -0.21051440042E+02  0.30417799353E+02  0.47787257258E+02  0.19999937142E+02 0.  0.
        -12    1    1    2    0    0 -0.22698432219E+02  0.21051440042E+02 -0.30417799353E+02  0.43400742742E+02  0.00000000000E+00 0.  1.
         11    1    3    3    0    0 -0.51389429407E-01 -0.31172035433E+00  0.10715179322E+02  0.10719835755E+02  0.51100000000E-03 0. -1.
        -11    1    3    3    0    0  0.20506821327E+01 -0.44882024275E+01  0.18650010829E+01  0.52751765411E+01  0.51100000000E-03 0.  1.
         12    1    3    3    0    0  0.20699139516E+02 -0.16251517261E+02  0.17837618949E+02  0.31792244962E+02  0.00000000000E+00 0. -1.
</event>
<event>
 7    1  0.4356471E-010  0.4778727E+02  0.7816164E-02  0.1312668E+00
        -11   -1    0    0    0    0  0.00000000000E+00  0.00000000000E+00  0.45593999997E+02  0.45594000000E+02  0.51100000000E-03 0. -1.
         11   -1    0    0    0    0 -0.00000000000E+00 -0.00000000000E+00 -0.45593999997E+02  0.45594000000E+02  0.51100000000E-03 0.  1.
    9900012    2    1    2    0    0  0.27074173370E+02  0.18857087088E+02  0.28196147725E+02  0.47787270240E+02  0.19999996335E+02 0.  0.
        -12    1    1    2    0    0 -0.27074173370E+02 -0.18857087088E+02 -0.28196147725E+02  0.43400729760E+02  0.00000000000E+00 0.  1.
         11    1    3    3    0    0  0.49843928703E+00  0.27565422636E+01  0.23279523991E+01  0.36422972980E+01  0.51100000000E-03 0.  1.
        -11    1    3    3    0    0  0.18641082812E+02  0.17905670600E+02  0.25002807329E+02  0.35961693267E+02  0.51100000000E-03 0. -1.
        -12    1    3    3    0    0  0.79346512713E+01 -0.18051257753E+01  0.86538799658E+00  0.81832796754E+01  0.00000000000E+00 0.  1.
</event>
<event>
 7    1  0.4356471E-010  0.4778728E+02  0.7816164E-02  0.1312668E+00
        -11   -1    0    0    0    0  0.00000000000E+00  0.00000000000E+00  0.45593999997E+02  0.45594000000E+02  0.51100000000E-03 0. -1.
         11   -1    0    0    0    0 -0.00000000000E+00 -0.00000000000E+00 -0.45593999997E+02  0.45594000000E+02  0.51100000000E-03 0.  1.
    9900012    2    1    2    0    0  0.15934099317E+02  0.15976629830E+02  0.37073908362E+02  0.47787275318E+02  0.20000019483E+02 0.  0.
        -12    1    1    2    0    0 -0.15934099317E+02 -0.15976629830E+02 -0.37073908362E+02  0.43400724682E+02  0.00000000000E+00 0.  1.
         11    1    3    3    0    0  0.38917685637E+01  0.13166303125E+01  0.47917434879E+00  0.41363010348E+01  0.51100000000E-03 0. -1.
        -11    1    3    3    0    0  0.99287203401E+01  0.14742426359E+02  0.19339632070E+02  0.26266708805E+02  0.51100000000E-03 0.  1.
         12    1    3    3    0    0  0.21136104133E+01 -0.82426842206E-01  0.17255101943E+02  0.17384265478E+02  0.00000000000E+00 0. -1.
</event>
<event>
 7    1  0.4356471E-010  0.4778726E+02  0.7816164E-02  0.1312668E+00
        -11   -1    0    0    0    0  0.00000000000E+00  0.00000000000E+00  0.45593999997E+02  0.45594000000E+02  0.51100000000E-03 0.  1.
         11   -1    0    0    0    0 -0.00000000000E+00 -0.00000000000E+00 -0.45593999997E+02  0.45594000000E+02  0.51100000000E-03 0. -1.
    9900012    2    1    2    0    0  0.13366359203E+02  0.31136130541E+02 -0.27120209088E+02  0.47787263550E+02  0.19999965830E+02 0.  0.
        -12    1    1    2    0    0 -0.13366359203E+02 -0.31136130541E+02  0.27120209088E+02  0.43400736450E+02  0.00000000000E+00 0.  1.
         11    1    3    3    0    0 -0.19376485151E+01  0.13265146967E+02 -0.55399216663E+01  0.14505493379E+02  0.51100000000E-03 0. -1.
        -11    1    3    3    0    0  0.27852401145E+01  0.10268674291E+02 -0.10129916237E+02  0.14690760274E+02  0.51100000000E-03 0.  1.
        -12    1    3    3    0    0  0.12518767604E+02  0.76023092826E+01 -0.11450371184E+02  0.18591009897E+02  0.00000000000E+00 0.  1.
</event>
<event>
 7    1  0.4356471E-010  0.4778728E+02  0.7816164E-02  0.1312668E+00
        -11   -1    0    0    0    0  0.00000000000E+00  0.00000000000E+00  0.45593999997E+02  0.45594000000E+02  0.51100000000E-03 0.  1.
         11   -1    0    0    0    0 -0.00000000000E+00 -0.00000000000E+00 -0.45593999997E+02  0.45594000000E+02  0.51100000000E-03 0. -1.
    9900012    2    1    2    0    0  0.39603671754E+02 -0.15376720152E+02 -0.88728996291E+01  0.47787277807E+02  0.20000030832E+02 0.  0.
        -12    1    1    2    0    0 -0.39603671754E+02  0.15376720152E+02  0.88728996291E+01  0.43400722193E+02  0.00000000000E+00 0.  1.
         11    1    3    3    0    0  0.18356662337E+02 -0.67812723688E+01 -0.80455260532E+01  0.21158525393E+02  0.51100000000E-03 0. -1.
        -11    1    3    3    0    0  0.17835091945E+02 -0.56120023225E+00  0.15787318993E+00  0.17844617525E+02  0.51100000000E-03 0.  1.
         12    1    3    3    0    0  0.34119174724E+01 -0.80342475512E+01 -0.98524676587E+00  0.87841348887E+01  0.00000000000E+00 0. -1.
</event>
<event>
 7    1  0.4356471E-010  0.4778727E+02  0.7816164E-02  0.1312668E+00
        -11   -1    0    0    0    0  0.00000000000E+00  0.00000000000E+00  0.45593999997E+02  0.45594000000E+02  0.51100000000E-03 0.  1.
         11   -1    0    0    0    0 -0.00000000000E+00 -0.00000000000E+00 -0.45593999997E+02  0.45594000000E+02  0.51100000000E-03 0. -1.
    9900012    2    1    2    0    0 -0.18277175850E+02  0.11862857202E+02 -0.37534531835E+02  0.47787267079E+02  0.19999981920E+02 0.  0.
        -12    1    1    2    0    0  0.18277175850E+02 -0.11862857202E+02  0.37534531835E+02  0.43400732921E+02  0.00000000000E+00 0.  1.
         11    1    3    3    0    0 -0.11050372573E+02  0.96522371906E+01 -0.10600781647E+02  0.18101187491E+02  0.51100000000E-03 0. -1.
        -11    1    3    3    0    0 -0.19540954220E+01 -0.10571742954E+01 -0.18720053865E+00  0.22296077484E+01  0.51100000000E-03 0.  1.
         12    1    3    3    0    0 -0.52727078542E+01  0.32677943068E+01 -0.26746549649E+02  0.27456471840E+02  0.00000000000E+00 0. -1.
</event>
<event>
 7    1  0.4356471E-010  0.4778727E+02  0.7816164E-02  0.1312668E+00
        -11   -1    0    0    0    0  0.00000000000E+00  0.00000000000E+00  0.45593999997E+02  0.45594000000E+02  0.51100000000E-03 0. -1.
         11   -1    0    0    0    0 -0.00000000000E+00 -0.00000000000E+00 -0.45593999997E+02  0.45594000000E+02  0.51100000000E-03 0.  1.
    9900012    2    1    2    0    0  0.25664372369E+02  0.28101874530E+02  0.20862597837E+02  0.47787270171E+02  0.19999996017E+02 0.  0.
        -12    1    1    2    0    0 -0.25664372369E+02 -0.28101874530E+02 -0.20862597837E+02  0.43400729829E+02  0.00000000000E+00 0.  1.
         11    1    3    3    0    0  0.16996860250E+02  0.18415411615E+02  0.14271417605E+02  0.28839105465E+02  0.51100000000E-03 0. -1.
        -11    1    3    3    0    0  0.10664967715E+02  0.51236719909E+01  0.16751857955E+01  0.11949886976E+02  0.51100000000E-03 0.  1.
         12    1    3    3    0    0 -0.19974555965E+01  0.45627909244E+01  0.49159944363E+01  0.69982777294E+01  0.00000000000E+00 0. -1.
</event>
<event>
 7    1  0.4356471E-010  0.4778727E+02  0.7816164E-02  0.1312668E+00
        -11   -1    0    0    0    0  0.00000000000E+00  0.00000000000E+00  0.45593999997E+02  0.45594000000E+02  0.51100000000E-03 0.  1.
         11   -1    0    0    0    0 -0.00000000000E+00 -0.00000000000E+00 -0.45593999997E+02  0.45594000000E+02  0.51100000000E-03 0. -1.
    9900012    2    1    2    0    0 -0.19553372111E+02  0.16495265466E+02 -0.35059882549E+02  0.47787268347E+02  0.19999987700E+02 0.  0.
        -12    1    1    2    0    0  0.19553372111E+02 -0.16495265466E+02  0.35059882549E+02  0.43400731653E+02  0.00000000000E+00 0.  1.
         11    1    3    3    0    0 -0.10724775599E+02  0.95227563964E+01 -0.18430794990E+02  0.23353755700E+02  0.51100000000E-03 0. -1.
        -11    1    3    3    0    0 -0.64067573970E+01  0.78591157032E+01 -0.30165782639E+01  0.10578846093E+02  0.51100000000E-03 0.  1.
        -12    1    3    3    0    0 -0.24218391143E+01 -0.88660663382E+00 -0.13612509295E+02  0.13854666554E+02  0.00000000000E+00 0.  1.
</event>
<event>
 7    1  0.4356471E-010  0.4778727E+02  0.7816164E-02  0.1312668E+00
        -11   -1    0    0    0    0  0.00000000000E+00  0.00000000000E+00  0.45593999997E+02  0.45594000000E+02  0.51100000000E-03 0. -1.
         11   -1    0    0    0    0 -0.00000000000E+00 -0.00000000000E+00 -0.45593999997E+02  0.45594000000E+02  0.51100000000E-03 0.  1.
    9900012    2    1    2    0    0 -0.12643511932E+02  0.40258198633E+02  0.10150975599E+02  0.47787271241E+02  0.20000000898E+02 0.  0.
        -12    1    1    2    0    0  0.12643511932E+02 -0.40258198633E+02 -0.10150975599E+02  0.43400728759E+02  0.00000000000E+00 0.  1.
         11    1    3    3    0    0  0.53951227375E+00  0.61666509019E+01 -0.20801492672E+01  0.65303658454E+01  0.51100000000E-03 0. -1.
        -11    1    3    3    0    0 -0.13428145842E+02  0.22136310651E+02  0.28277951255E+01  0.26044726444E+02  0.51100000000E-03 0.  1.
         12    1    3    3    0    0  0.24512163654E+00  0.11955237080E+02  0.94033297408E+01  0.15212178952E+02  0.00000000000E+00 0. -1.
</event>
<event>
 7    1  0.4356471E-010  0.4778727E+02  0.7816164E-02  0.1312668E+00
        -11   -1    0    0    0    0  0.00000000000E+00  0.00000000000E+00  0.45593999997E+02  0.45594000000E+02  0.51100000000E-03 0.  1.
         11   -1    0    0    0    0 -0.00000000000E+00 -0.00000000000E+00 -0.45593999997E+02  0.45594000000E+02  0.51100000000E-03 0. -1.
    9900012    2    1    2    0    0 -0.14647633402E+02  0.40792078160E+02 -0.22531328028E+01  0.47787269450E+02  0.19999992728E+02 0.  0.
        -12    1    1    2    0    0  0.14647633402E+02 -0.40792078160E+02  0.22531328028E+01  0.43400730550E+02  0.00000000000E+00 0.  1.
         11    1    3    3    0    0  0.34760675909E+00  0.19055548508E+02  0.98566775548E-01  0.19058973610E+02  0.51100000000E-03 0.  1.
        -11    1    3    3    0    0 -0.21565720976E+01  0.41220901255E+01  0.38804297640E+01  0.60580661625E+01  0.51100000000E-03 0. -1.
         12    1    3    3    0    0 -0.12838668063E+02  0.17614439527E+02 -0.62321293424E+01  0.22670229677E+02  0.00000000000E+00 0. -1.
</event>
<event>
 7    1  0.4356471E-010  0.4778729E+02  0.7816164E-02  0.1312668E+00
        -11   -1    0    0    0    0  0.00000000000E+00  0.00000000000E+00  0.45593999997E+02  0.45594000000E+02  0.51100000000E-03 0.  1.
         11   -1    0    0    0    0 -0.00000000000E+00 -0.00000000000E+00 -0.45593999997E+02  0.45594000000E+02  0.51100000000E-03 0. -1.
    9900012    2    1    2    0    0  0.14724317750E+02 -0.42695653599E+01 -0.40602791456E+02  0.47787292683E+02  0.20000098660E+02 0.  0.
        -12    1    1    2    0    0 -0.14724317750E+02  0.42695653599E+01  0.40602791456E+02  0.43400707317E+02  0.00000000000E+00 0.  1.
         11    1    3    3    0    0  0.46408150197E+01 -0.38609958001E+01 -0.59910660149E+01  0.85051352060E+01  0.51100000000E-03 0. -1.
        -11    1    3    3    0    0  0.59216055571E+01  0.55099940293E+01 -0.68698510138E+01  0.10612271189E+02  0.51100000000E-03 0.  1.
        -12    1    3    3    0    0  0.41618971737E+01 -0.59185635891E+01 -0.27741874427E+02  0.28669886288E+02  0.00000000000E+00 0.  1.
</event>
<event>
 7    1  0.4356471E-010  0.4778729E+02  0.7816164E-02  0.1312668E+00
        -11   -1    0    0    0    0  0.00000000000E+00  0.00000000000E+00  0.45593999997E+02  0.45594000000E+02  0.51100000000E-03 0. -1.
         11   -1    0    0    0    0 -0.00000000000E+00 -0.00000000000E+00 -0.45593999997E+02  0.45594000000E+02  0.51100000000E-03 0.  1.
    9900012    2    1    2    0    0 -0.42365847595E+02 -0.92722538816E+01 -0.16678184857E+01  0.47787293174E+02  0.20000100899E+02 0.  0.
        -12    1    1    2    0    0  0.42365847595E+02  0.92722538816E+01  0.16678184857E+01  0.43400706826E+02  0.00000000000E+00 0.  1.
         11    1    3    3    0    0 -0.11162920539E+02  0.26805218059E+01 -0.36301618199E+01  0.12040517730E+02  0.51100000000E-03 0. -1.
        -11    1    3    3    0    0 -0.12459152788E+02  0.15002162380E+01 -0.39052637060E+00  0.12555223935E+02  0.51100000000E-03 0.  1.
         12    1    3    3    0    0 -0.18743774268E+02 -0.13452991925E+02  0.23528697048E+01  0.23191551509E+02  0.00000000000E+00 0. -1.
</event>
<event>
 7    1  0.4356471E-010  0.4778726E+02  0.7816164E-02  0.1312668E+00
        -11   -1    0    0    0    0  0.00000000000E+00  0.00000000000E+00  0.45593999997E+02  0.45594000000E+02  0.51100000000E-03 0.  1.
         11   -1    0    0    0    0 -0.00000000000E+00 -0.00000000000E+00 -0.45593999997E+02  0.45594000000E+02  0.51100000000E-03 0. -1.
    9900012    2    1    2    0    0  0.22470918588E+02  0.31786485933E+02 -0.19191182786E+02  0.47787258452E+02  0.19999942588E+02 0.  0.
        -12    1    1    2    0    0 -0.22470918588E+02 -0.31786485933E+02  0.19191182786E+02  0.43400741548E+02  0.00000000000E+00 0.  1.
         11    1    3    3    0    0 -0.47138947792E+00  0.82517639426E+01 -0.28324321388E+01  0.87370754997E+01  0.51100000000E-03 0. -1.
        -11    1    3    3    0    0  0.16815027566E+01  0.26260953684E+01 -0.72156421411E+01  0.78606183074E+01  0.51100000000E-03 0.  1.
        -12    1    3    3    0    0  0.21260805309E+02  0.20908626622E+02 -0.91431085064E+01  0.31189564645E+02  0.00000000000E+00 0.  1.
</event>
<event>
 7    1  0.4356471E-010  0.4778727E+02  0.7816164E-02  0.1312668E+00
        -11   -1    0    0    0    0  0.00000000000E+00  0.00000000000E+00  0.45593999997E+02  0.45594000000E+02  0.51100000000E-03 0.  1.
         11   -1    0    0    0    0 -0.00000000000E+00 -0.00000000000E+00 -0.45593999997E+02  0.45594000000E+02  0.51100000000E-03 0. -1.
    9900012    2    1    2    0    0  0.16890132371E+02  0.44124921392E+01 -0.39735082920E+02  0.47787268750E+02  0.19999989539E+02 0.  0.
        -12    1    1    2    0    0 -0.16890132371E+02 -0.44124921392E+01  0.39735082920E+02  0.43400731250E+02  0.00000000000E+00 0.  1.
         11    1    3    3    0    0  0.13993217242E+02  0.10216190438E+02 -0.30245643849E+02  0.34856558177E+02  0.51100000000E-03 0.  1.
        -11    1    3    3    0    0  0.44863204244E+01 -0.40702833997E+01 -0.83542093545E+01  0.10319258312E+02  0.51100000000E-03 0. -1.
        -12    1    3    3    0    0 -0.15894052952E+01 -0.17334148991E+01 -0.11352297166E+01  0.26114522615E+01  0.00000000000E+00 0.  1.
</event>
<event>
 7    1  0.4356471E-010  0.4778727E+02  0.7816164E-02  0.1312668E+00
        -11   -1    0    0    0    0  0.00000000000E+00  0.00000000000E+00  0.45593999997E+02  0.45594000000E+02  0.51100000000E-03 0. -1.
         11   -1    0    0    0    0 -0.00000000000E+00 -0.00000000000E+00 -0.45593999997E+02  0.45594000000E+02  0.51100000000E-03 0.  1.
    9900012    2    1    2    0    0 -0.22759446337E+02  0.36637706549E+02 -0.48279682012E+01  0.47787271715E+02  0.20000003057E+02 0.  0.
        -12    1    1    2    0    0  0.22759446337E+02 -0.36637706549E+02  0.48279682012E+01  0.43400728285E+02  0.00000000000E+00 0.  1.
         11    1    3    3    0    0 -0.32793328043E+01  0.31592409466E+01 -0.32863472921E+01  0.56155948737E+01  0.51100000000E-03 0. -1.
        -11    1    3    3    0    0 -0.30965071858E+01  0.37791228233E+01  0.56806454224E+01  0.74926536515E+01  0.51100000000E-03 0.  1.
         12    1    3    3    0    0 -0.16383606347E+02  0.29699342779E+02 -0.72222663315E+01  0.34679023190E+02  0.00000000000E+00 0. -1.
</event>
<event>
 7    1  0.4356471E-010  0.4778727E+02  0.7816164E-02  0.1312668E+00
        -11   -1    0    0    0    0  0.00000000000E+00  0.00000000000E+00  0.45593999997E+02  0.45594000000E+02  0.51100000000E-03 0.  1.
         11   -1    0    0    0    0 -0.00000000000E+00 -0.00000000000E+00 -0.45593999997E+02  0.45594000000E+02  0.51100000000E-03 0. -1.
    9900012    2    1    2    0    0  0.23547729773E+02 -0.18927082733E+02 -0.31159159028E+02  0.47787271555E+02  0.20000002327E+02 0.  0.
        -12    1    1    2    0    0 -0.23547729773E+02  0.18927082733E+02  0.31159159028E+02  0.43400728445E+02  0.00000000000E+00 0.  1.
         11    1    3    3    0    0  0.10143153340E+02 -0.16061098609E+01 -0.71126211366E+01  0.12492098633E+02  0.51100000000E-03 0. -1.
        -11    1    3    3    0    0 -0.16858200641E+01  0.17877966660E+00  0.30773946256E+00  0.17229786115E+01  0.51100000000E-03 0.  1.
         12    1    3    3    0    0  0.15090396497E+02 -0.17499752539E+02 -0.24354277354E+02  0.33572194310E+02  0.00000000000E+00 0. -1.
</event>
<event>
 7    1  0.4356471E-010  0.4778727E+02  0.7816164E-02  0.1312668E+00
        -11   -1    0    0    0    0  0.00000000000E+00  0.00000000000E+00  0.45593999997E+02  0.45594000000E+02  0.51100000000E-03 0. -1.
         11   -1    0    0    0    0 -0.00000000000E+00 -0.00000000000E+00 -0.45593999997E+02  0.45594000000E+02  0.51100000000E-03 0.  1.
    9900012    2    1    2    0    0 -0.43376449567E+02  0.14176544872E+01  0.31187734418E+00  0.47787269721E+02  0.19999993964E+02 0.  0.
        -12    1    1    2    0    0  0.43376449567E+02 -0.14176544872E+01 -0.31187734418E+00  0.43400730279E+02  0.00000000000E+00 0.  1.
         11    1    3    3    0    0 -0.14093597338E+02  0.23130418894E+01 -0.47226322527E+01  0.15042702695E+02  0.51100000000E-03 0. -1.
        -11    1    3    3    0    0 -0.22803058749E+02  0.52658875138E+01  0.40171446166E+01  0.23745452423E+02  0.51100000000E-03 0.  1.
        -12    1    3    3    0    0 -0.64797934797E+01 -0.61612749160E+01  0.10173649803E+01  0.89991146027E+01  0.00000000000E+00 0.  1.
</event>
<event>
 7    1  0.4356471E-010  0.4778725E+02  0.7816164E-02  0.1312668E+00
        -11   -1    0    0    0    0  0.00000000000E+00  0.00000000000E+00  0.45593999997E+02  0.45594000000E+02  0.51100000000E-03 0. -1.
         11   -1    0    0    0    0 -0.00000000000E+00 -0.00000000000E+00 -0.45593999997E+02  0.45594000000E+02  0.51100000000E-03 0.  1.
    9900012    2    1    2    0    0 -0.37681238230E+02 -0.55644617015E+01  0.20803504302E+02  0.47787254156E+02  0.19999922997E+02 0.  0.
        -12    1    1    2    0    0  0.37681238230E+02  0.55644617015E+01 -0.20803504302E+02  0.43400745844E+02  0.00000000000E+00 0.  1.
         11    1    3    3    0    0 -0.19874216011E+02  0.28535698390E+01  0.51269922569E+01  0.20722291687E+02  0.51100000000E-03 0. -1.
        -11    1    3    3    0    0 -0.96918759572E+01 -0.54424892314E+01  0.26421703479E+01  0.11425157024E+02  0.51100000000E-03 0.  1.
        -12    1    3    3    0    0 -0.81151462617E+01 -0.29755423092E+01  0.13034341697E+02  0.15639805445E+02  0.00000000000E+00 0.  1.
</event>
<event>
 7    1  0.4356471E-010  0.4778727E+02  0.7816164E-02  0.1312668E+00
        -11   -1    0    0    0    0  0.00000000000E+00  0.00000000000E+00  0.45593999997E+02  0.45594000000E+02  0.51100000000E-03 0. -1.
         11   -1    0    0    0    0 -0.00000000000E+00 -0.00000000000E+00 -0.45593999997E+02  0.45594000000E+02  0.51100000000E-03 0.  1.
    9900012    2    1    2    0    0 -0.39216065499E+01  0.26936506948E+02  0.33803386389E+02  0.47787270331E+02  0.19999996747E+02 0.  0.
        -12    1    1    2    0    0  0.39216065499E+01 -0.26936506948E+02 -0.33803386389E+02  0.43400729669E+02  0.00000000000E+00 0.  1.
         11    1    3    3    0    0 -0.49514203917E+01  0.13665386231E+02  0.14729282763E+02  0.20693262568E+02  0.51100000000E-03 0. -1.
        -11    1    3    3    0    0 -0.63980832967E+01  0.52262298084E+01  0.89720940111E+01  0.12196205110E+02  0.51100000000E-03 0.  1.
         12    1    3    3    0    0  0.74278971386E+01  0.80448909082E+01  0.10102009615E+02  0.14897802653E+02  0.00000000000E+00 0. -1.
</event>
<event>
 7    1  0.4356471E-010  0.4778726E+02  0.7816164E-02  0.1312668E+00
        -11   -1    0    0    0    0  0.00000000000E+00  0.00000000000E+00  0.45593999997E+02  0.45594000000E+02  0.51100000000E-03 0.  1.
         11   -1    0    0    0    0 -0.00000000000E+00 -0.00000000000E+00 -0.45593999997E+02  0.45594000000E+02  0.51100000000E-03 0. -1.
    9900012    2    1    2    0    0 -0.33368644090E+00 -0.20214879495E+02 -0.38404053704E+02  0.47787262212E+02  0.19999959728E+02 0.  0.
        -12    1    1    2    0    0  0.33368644090E+00  0.20214879495E+02  0.38404053704E+02  0.43400737788E+02  0.00000000000E+00 0.  1.
         11    1    3    3    0    0  0.57839419550E+01 -0.89835912708E+01 -0.18576004099E+02  0.21429578279E+02  0.51100000000E-03 0. -1.
        -11    1    3    3    0    0 -0.11868825845E-01  0.11720006146E+01 -0.82278106839E+01  0.83108721096E+01  0.51100000000E-03 0.  1.
         12    1    3    3    0    0 -0.61057595701E+01 -0.12403288839E+02 -0.11600238921E+02  0.18046811823E+02  0.00000000000E+00 0. -1.
</event>
<event>
 7    1  0.4356471E-010  0.4778728E+02  0.7816164E-02  0.1312668E+00
        -11   -1    0    0    0    0  0.00000000000E+00  0.00000000000E+00  0.45593999997E+02  0.45594000000E+02  0.51100000000E-03 0.  1.
         11   -1    0    0    0    0 -0.00000000000E+00 -0.00000000000E+00 -0.45593999997E+02  0.45594000000E+02  0.51100000000E-03 0. -1.
    9900012    2    1    2    0    0  0.37361953287E+02  0.24877192298E+01 -0.21943530505E+02  0.47787276142E+02  0.20000023241E+02 0.  0.
        -12    1    1    2    0    0 -0.37361953287E+02 -0.24877192298E+01  0.21943530505E+02  0.43400723858E+02  0.00000000000E+00 0.  1.
         11    1    3    3    0    0  0.77485874528E+01 -0.19575589511E-02 -0.56084740405E+00  0.77688584372E+01  0.51100000000E-03 0. -1.
        -11    1    3    3    0    0 -0.15900100871E+01  0.77542475955E+00  0.53493231301E+00  0.18481256655E+01  0.51100000000E-03 0.  1.
         12    1    3    3    0    0  0.31203375921E+02  0.17142520292E+01 -0.21917615414E+02  0.38170292039E+02  0.00000000000E+00 0. -1.
</event>
<event>
 7    1  0.4356471E-010  0.4778727E+02  0.7816164E-02  0.1312668E+00
        -11   -1    0    0    0    0  0.00000000000E+00  0.00000000000E+00  0.45593999997E+02  0.45594000000E+02  0.51100000000E-03 0.  1.
         11   -1    0    0    0    0 -0.00000000000E+00 -0.00000000000E+00 -0.45593999997E+02  0.45594000000E+02  0.51100000000E-03 0. -1.
    9900012    2    1    2    0    0 -0.23995663046E+01  0.13813201357E+02 -0.41073844997E+02  0.47787271976E+02  0.20000004248E+02 0.  0.
        -12    1    1    2    0    0  0.23995663046E+01 -0.13813201357E+02  0.41073844997E+02  0.43400728024E+02  0.00000000000E+00 0.  1.
         11    1    3    3    0    0  0.58110393962E+01  0.21599862704E+01 -0.23220562297E+02  0.24033897587E+02  0.51100000000E-03 0. -1.
        -11    1    3    3    0    0 -0.16397992812E+00  0.35654913777E+01 -0.16390363920E+01  0.39276021612E+01  0.51100000000E-03 0.  1.
         12    1    3    3    0    0 -0.80466257727E+01  0.80877237091E+01 -0.16214246307E+02  0.19825772228E+02  0.00000000000E+00 0. -1.
</event>
<event>
 7    1  0.4356471E-010  0.4778726E+02  0.7816164E-02  0.1312668E+00
        -11   -1    0    0    0    0  0.00000000000E+00  0.00000000000E+00  0.45593999997E+02  0.45594000000E+02  0.51100000000E-03 0.  1.
         11   -1    0    0    0    0 -0.00000000000E+00 -0.00000000000E+00 -0.45593999997E+02  0.45594000000E+02  0.51100000000E-03 0. -1.
    9900012    2    1    2    0    0 -0.17567401356E+01 -0.35200237444E+01 -0.43222067608E+02  0.47787264622E+02  0.19999970716E+02 0.  0.
        -12    1    1    2    0    0  0.17567401356E+01  0.35200237444E+01  0.43222067608E+02  0.43400735378E+02  0.00000000000E+00 0.  1.
         11    1    3    3    0    0 -0.87433867152E+00 -0.30530927335E+00  0.10619184640E+00  0.93217961481E+00  0.51100000000E-03 0. -1.
        -11    1    3    3    0    0  0.57853139619E+01  0.18070237703E+01 -0.33113001473E+02  0.33663126108E+02  0.51100000000E-03 0.  1.
        -12    1    3    3    0    0 -0.66677154260E+01 -0.50217382413E+01 -0.10215257982E+02  0.13191958899E+02  0.00000000000E+00 0.  1.
</event>
<event>
 7    1  0.4356471E-010  0.4778727E+02  0.7816164E-02  0.1312668E+00
        -11   -1    0    0    0    0  0.00000000000E+00  0.00000000000E+00  0.45593999997E+02  0.45594000000E+02  0.51100000000E-03 0.  1.
         11   -1    0    0    0    0 -0.00000000000E+00 -0.00000000000E+00 -0.45593999997E+02  0.45594000000E+02  0.51100000000E-03 0. -1.
    9900012    2    1    2    0    0  0.36334122820E+02  0.10065773275E+02 -0.21497327792E+02  0.47787269880E+02  0.19999994691E+02 0.  0.
        -12    1    1    2    0    0 -0.36334122820E+02 -0.10065773275E+02  0.21497327792E+02  0.43400730120E+02  0.00000000000E+00 0.  1.
         11    1    3    3    0    0  0.14235275280E+02  0.95307391892E+01 -0.17435511829E+01  0.17219698684E+02  0.51100000000E-03 0.  1.
        -11    1    3    3    0    0  0.16042979693E+02 -0.62447151717E+00 -0.96530846448E+01  0.18733638342E+02  0.51100000000E-03 0. -1.
        -12    1    3    3    0    0  0.60558678469E+01  0.11595056028E+01 -0.10100691964E+02  0.11833932853E+02  0.00000000000E+00 0.  1.
</event>
<event>
 7    1  0.4356471E-010  0.4778726E+02  0.7816164E-02  0.1312668E+00
        -11   -1    0    0    0    0  0.00000000000E+00  0.00000000000E+00  0.45593999997E+02  0.45594000000E+02  0.51100000000E-03 0.  1.
         11   -1    0    0    0    0 -0.00000000000E+00 -0.00000000000E+00 -0.45593999997E+02  0.45594000000E+02  0.51100000000E-03 0. -1.
    9900012    2    1    2    0    0 -0.37411874436E+02 -0.15142131126E+02 -0.15959068789E+02  0.47787258527E+02  0.19999942926E+02 0.  0.
        -12    1    1    2    0    0  0.37411874436E+02  0.15142131126E+02  0.15959068789E+02  0.43400741473E+02  0.00000000000E+00 0.  1.
         11    1    3    3    0    0 -0.22373186116E+01  0.20201342503E+01 -0.18208140913E+01  0.35216333107E+01  0.51100000000E-03 0.  1.
        -11    1    3    3    0    0 -0.12574631506E+02  0.69273292079E+00 -0.76723171945E+01  0.14746717866E+02  0.51100000000E-03 0. -1.
        -12    1    3    3    0    0 -0.22599924318E+02 -0.17854998297E+02 -0.64659375036E+01  0.29518907350E+02  0.00000000000E+00 0.  1.
</event>
<event>
 7    1  0.4356471E-010  0.4778727E+02  0.7816164E-02  0.1312668E+00
        -11   -1    0    0    0    0  0.00000000000E+00  0.00000000000E+00  0.45593999997E+02  0.45594000000E+02  0.51100000000E-03 0.  1.
         11   -1    0    0    0    0 -0.00000000000E+00 -0.00000000000E+00 -0.45593999997E+02  0.45594000000E+02  0.51100000000E-03 0. -1.
    9900012    2    1    2    0    0  0.32126369480E+02 -0.26390034303E+02 -0.12453336493E+02  0.47787272860E+02  0.20000008277E+02 0.  0.
        -12    1    1    2    0    0 -0.32126369480E+02  0.26390034303E+02  0.12453336493E+02  0.43400727140E+02  0.00000000000E+00 0.  1.
         11    1    3    3    0    0  0.16459217734E+02 -0.64093792128E+01 -0.67606298142E+01  0.18912749828E+02  0.51100000000E-03 0. -1.
        -11    1    3    3    0    0  0.14088559302E+02 -0.80153671190E+01 -0.39169468756E+01  0.16675613522E+02  0.51100000000E-03 0.  1.
        -12    1    3    3    0    0  0.15785924440E+01 -0.11965287971E+02 -0.17757598027E+01  0.12198909509E+02  0.00000000000E+00 0.  1.
</event>
<event>
 7    1  0.4356471E-010  0.4778727E+02  0.7816164E-02  0.1312668E+00
        -11   -1    0    0    0    0  0.00000000000E+00  0.00000000000E+00  0.45593999997E+02  0.45594000000E+02  0.51100000000E-03 0. -1.
         11   -1    0    0    0    0 -0.00000000000E+00 -0.00000000000E+00 -0.45593999997E+02  0.45594000000E+02  0.51100000000E-03 0.  1.
    9900012    2    1    2    0    0 -0.22692081285E+02 -0.36909711633E+02  0.25230366915E+01  0.47787273278E+02  0.20000010182E+02 0.  0.
        -12    1    1    2    0    0  0.22692081285E+02  0.36909711633E+02 -0.25230366915E+01  0.43400726722E+02  0.00000000000E+00 0.  1.
         11    1    3    3    0    0 -0.17076394454E+02 -0.26358608775E+02 -0.54897502008E+01  0.31882861566E+02  0.51100000000E-03 0. -1.
        -11    1    3    3    0    0 -0.13855127923E+01  0.72958240832E+00  0.28597689991E+00  0.15917660747E+01  0.51100000000E-03 0.  1.
         12    1    3    3    0    0 -0.42301740389E+01 -0.11280685266E+02  0.77268099923E+01  0.14312645637E+02  0.00000000000E+00 0. -1.
</event>
<event>
 7    1  0.4356471E-010  0.4778727E+02  0.7816164E-02  0.1312668E+00
        -11   -1    0    0    0    0  0.00000000000E+00  0.00000000000E+00  0.45593999997E+02  0.45594000000E+02  0.51100000000E-03 0.  1.
         11   -1    0    0    0    0 -0.00000000000E+00 -0.00000000000E+00 -0.45593999997E+02  0.45594000000E+02  0.51100000000E-03 0. -1.
    9900012    2    1    2    0    0  0.34907891285E+02  0.87253190124E+01 -0.24267899898E+02  0.47787273839E+02  0.20000012742E+02 0.  0.
        -12    1    1    2    0    0 -0.34907891285E+02 -0.87253190124E+01  0.24267899898E+02  0.43400726161E+02  0.00000000000E+00 0.  1.
         11    1    3    3    0    0  0.20163155617E+02  0.58211232246E+01 -0.13186134419E+02  0.24785327539E+02  0.51100000000E-03 0. -1.
        -11    1    3    3    0    0  0.72834627944E+01  0.65852592994E+01 -0.10913190277E+02  0.14680333532E+02  0.51100000000E-03 0.  1.
        -12    1    3    3    0    0  0.74612728731E+01 -0.36810635115E+01 -0.16857520166E+00  0.83216127681E+01  0.00000000000E+00 0.  1.
</event>
<event>
 7    1  0.4356471E-010  0.4778727E+02  0.7816164E-02  0.1312668E+00
        -11   -1    0    0    0    0  0.00000000000E+00  0.00000000000E+00  0.45593999997E+02  0.45594000000E+02  0.51100000000E-03 0.  1.
         11   -1    0    0    0    0 -0.00000000000E+00 -0.00000000000E+00 -0.45593999997E+02  0.45594000000E+02  0.51100000000E-03 0. -1.
    9900012    2    1    2    0    0  0.35959432773E+02 -0.13208071674E+01 -0.24265153216E+02  0.47787274229E+02  0.20000014518E+02 0.  0.
        -12    1    1    2    0    0 -0.35959432773E+02  0.13208071674E+01  0.24265153216E+02  0.43400725771E+02  0.00000000000E+00 0.  1.
         11    1    3    3    0    0  0.79103849863E+01  0.25371208826E+01 -0.60682666437E+00  0.83294304647E+01  0.51100000000E-03 0. -1.
        -11    1    3    3    0    0  0.17025464441E+02 -0.44668278172E+01 -0.59317181786E+01  0.18574290592E+02  0.51100000000E-03 0.  1.
         12    1    3    3    0    0  0.11023583345E+02  0.60889976725E+00 -0.17726608373E+02  0.20883553172E+02  0.00000000000E+00 0. -1.
</event>
<event>
 7    1  0.4356471E-010  0.4778728E+02  0.7816164E-02  0.1312668E+00
        -11   -1    0    0    0    0  0.00000000000E+00  0.00000000000E+00  0.45593999997E+02  0.45594000000E+02  0.51100000000E-03 0. -1.
         11   -1    0    0    0    0 -0.00000000000E+00 -0.00000000000E+00 -0.45593999997E+02  0.45594000000E+02  0.51100000000E-03 0.  1.
    9900012    2    1    2    0    0  0.63314570829E+00 -0.42578849216E+02  0.83823392836E+01  0.47787275514E+02  0.20000020379E+02 0.  0.
        -12    1    1    2    0    0 -0.63314570829E+00  0.42578849216E+02 -0.83823392836E+01  0.43400724486E+02  0.00000000000E+00 0.  1.
         11    1    3    3    0    0  0.62361508045E+01 -0.78855962647E+01  0.50885752939E-01  0.10053596119E+02  0.51100000000E-03 0. -1.
        -11    1    3    3    0    0 -0.65245105538E+00 -0.64581396294E+00 -0.16685433281E+01  0.19044172740E+01  0.51100000000E-03 0.  1.
         12    1    3    3    0    0 -0.49505540409E+01 -0.34047438988E+02  0.99999968588E+01  0.35829262121E+02  0.00000000000E+00 0. -1.
</event>
<event>
 7    1  0.4356471E-010  0.4778727E+02  0.7816164E-02  0.1312668E+00
        -11   -1    0    0    0    0  0.00000000000E+00  0.00000000000E+00  0.45593999997E+02  0.45594000000E+02  0.51100000000E-03 0.  1.
         11   -1    0    0    0    0 -0.00000000000E+00 -0.00000000000E+00 -0.45593999997E+02  0.45594000000E+02  0.51100000000E-03 0. -1.
    9900012    2    1    2    0    0  0.20192255351E+02 -0.12758728454E+02 -0.36236869550E+02  0.47787273707E+02  0.20000012139E+02 0.  0.
        -12    1    1    2    0    0 -0.20192255351E+02  0.12758728454E+02  0.36236869550E+02  0.43400726293E+02  0.00000000000E+00 0.  1.
         11    1    3    3    0    0  0.64690635822E+01 -0.55052281848E+01 -0.10576823457E+02  0.13565600455E+02  0.51100000000E-03 0. -1.
        -11    1    3    3    0    0  0.57251665951E+01  0.29725850414E+01 -0.12454204268E+01  0.65699974635E+01  0.51100000000E-03 0.  1.
        -12    1    3    3    0    0  0.79980251742E+01 -0.10226085311E+02 -0.24414625667E+02  0.27651675788E+02  0.00000000000E+00 0.  1.
</event>
<event>
 7    1  0.4356471E-010  0.4778727E+02  0.7816164E-02  0.1312668E+00
        -11   -1    0    0    0    0  0.00000000000E+00  0.00000000000E+00  0.45593999997E+02  0.45594000000E+02  0.51100000000E-03 0.  1.
         11   -1    0    0    0    0 -0.00000000000E+00 -0.00000000000E+00 -0.45593999997E+02  0.45594000000E+02  0.51100000000E-03 0. -1.
    9900012    2    1    2    0    0 -0.10035488809E+02 -0.41915654873E+02 -0.50980993433E+01  0.47787265260E+02  0.19999973627E+02 0.  0.
        -12    1    1    2    0    0  0.10035488809E+02  0.41915654873E+02  0.50980993433E+01  0.43400734740E+02  0.00000000000E+00 0.  1.
         11    1    3    3    0    0 -0.12274125982E+02 -0.24616871809E+02 -0.36343340473E+01  0.27746223717E+02  0.51100000000E-03 0. -1.
        -11    1    3    3    0    0 -0.74090188000E+00 -0.11393232612E+02 -0.50867762614E+01  0.12499199092E+02  0.51100000000E-03 0.  1.
        -12    1    3    3    0    0  0.29795390536E+01 -0.59055504511E+01  0.36230109654E+01  0.75418424511E+01  0.00000000000E+00 0.  1.
</event>
<event>
 7    1  0.4356471E-010  0.4778727E+02  0.7816164E-02  0.1312668E+00
        -11   -1    0    0    0    0  0.00000000000E+00  0.00000000000E+00  0.45593999997E+02  0.45594000000E+02  0.51100000000E-03 0. -1.
         11   -1    0    0    0    0 -0.00000000000E+00 -0.00000000000E+00 -0.45593999997E+02  0.45594000000E+02  0.51100000000E-03 0.  1.
    9900012    2    1    2    0    0  0.41722936131E+02 -0.42795185663E+01  0.11158203959E+02  0.47787271963E+02  0.20000004188E+02 0.  0.
        -12    1    1    2    0    0 -0.41722936131E+02  0.42795185663E+01 -0.11158203959E+02  0.43400728037E+02  0.00000000000E+00 0.  1.
         11    1    3    3    0    0  0.21997790633E+02 -0.72603977871E+01  0.56869808888E+01  0.23852838839E+02  0.51100000000E-03 0. -1.
        -11    1    3    3    0    0  0.15099854139E+02  0.42809436697E+01 -0.11688744319E+01  0.15738435164E+02  0.51100000000E-03 0.  1.
        -12    1    3    3    0    0  0.46252913587E+01 -0.13000644490E+01  0.66400975021E+01  0.81959979601E+01  0.00000000000E+00 0.  1.
</event>
<event>
 7    1  0.4356471E-010  0.4778727E+02  0.7816164E-02  0.1312668E+00
        -11   -1    0    0    0    0  0.00000000000E+00  0.00000000000E+00  0.45593999997E+02  0.45594000000E+02  0.51100000000E-03 0. -1.
         11   -1    0    0    0    0 -0.00000000000E+00 -0.00000000000E+00 -0.45593999997E+02  0.45594000000E+02  0.51100000000E-03 0.  1.
    9900012    2    1    2    0    0 -0.17648044491E+02 -0.39587678669E+02 -0.22327950760E+01  0.47787272464E+02  0.20000006474E+02 0.  0.
        -12    1    1    2    0    0  0.17648044491E+02  0.39587678669E+02  0.22327950760E+01  0.43400727536E+02  0.00000000000E+00 0.  1.
         11    1    3    3    0    0 -0.25212663013E+00 -0.84212273565E+01  0.48470569232E+01  0.97198044788E+01  0.51100000000E-03 0. -1.
        -11    1    3    3    0    0 -0.15591109759E+01  0.56332616746E+00 -0.13652185883E+01  0.21475533662E+01  0.51100000000E-03 0.  1.
         12    1    3    3    0    0 -0.15836806885E+02 -0.31729777480E+02 -0.57146334110E+01  0.35919914619E+02  0.00000000000E+00 0. -1.
</event>
<event>
 7    1  0.4356471E-010  0.4778727E+02  0.7816164E-02  0.1312668E+00
        -11   -1    0    0    0    0  0.00000000000E+00  0.00000000000E+00  0.45593999997E+02  0.45594000000E+02  0.51100000000E-03 0. -1.
         11   -1    0    0    0    0 -0.00000000000E+00 -0.00000000000E+00 -0.45593999997E+02  0.45594000000E+02  0.51100000000E-03 0.  1.
    9900012    2    1    2    0    0  0.25646422388E+02  0.34636326765E+02 -0.51194554761E+01  0.47787274920E+02  0.20000017671E+02 0.  0.
        -12    1    1    2    0    0 -0.25646422388E+02 -0.34636326765E+02  0.51194554761E+01  0.43400725080E+02  0.00000000000E+00 0.  1.
         11    1    3    3    0    0  0.51571686650E+01  0.66651875597E+01 -0.42986831307E+01  0.94604329058E+01  0.51100000000E-03 0. -1.
        -11    1    3    3    0    0 -0.17893915967E+00  0.72409607593E+01  0.45659988106E+01  0.85622355340E+01  0.51100000000E-03 0.  1.
         12    1    3    3    0    0  0.20668192883E+02  0.20730178446E+02 -0.53867711560E+01  0.29764606480E+02  0.00000000000E+00 0. -1.
</event>
<event>
 7    1  0.4356471E-010  0.4778727E+02  0.7816164E-02  0.1312668E+00
        -11   -1    0    0    0    0  0.00000000000E+00  0.00000000000E+00  0.45593999997E+02  0.45594000000E+02  0.51100000000E-03 0.  1.
         11   -1    0    0    0    0 -0.00000000000E+00 -0.00000000000E+00 -0.45593999997E+02  0.45594000000E+02  0.51100000000E-03 0. -1.
    9900012    2    1    2    0    0 -0.10697967957E+01  0.67992762415E+01 -0.42851474863E+02  0.47787268203E+02  0.19999987043E+02 0.  0.
        -12    1    1    2    0    0  0.10697967957E+01 -0.67992762415E+01  0.42851474863E+02  0.43400731797E+02  0.00000000000E+00 0.  1.
         11    1    3    3    0    0  0.15470511066E+01 -0.23048459588E+01 -0.90667223823E+01  0.94821483346E+01  0.51100000000E-03 0. -1.
        -11    1    3    3    0    0 -0.63475473964E+01 -0.17325620749E+01 -0.11675032358E+02  0.13401474177E+02  0.51100000000E-03 0.  1.
         12    1    3    3    0    0  0.37306994941E+01  0.10836684275E+02 -0.22109720123E+02  0.24903645691E+02  0.00000000000E+00 0. -1.
</event>
<event>
 7    1  0.4356471E-010  0.4778728E+02  0.7816164E-02  0.1312668E+00
        -11   -1    0    0    0    0  0.00000000000E+00  0.00000000000E+00  0.45593999997E+02  0.45594000000E+02  0.51100000000E-03 0. -1.
         11   -1    0    0    0    0 -0.00000000000E+00 -0.00000000000E+00 -0.45593999997E+02  0.45594000000E+02  0.51100000000E-03 0.  1.
    9900012    2    1    2    0    0  0.14605830462E+02  0.40372811671E+02  0.63504872410E+01  0.47787275422E+02  0.20000019957E+02 0.  0.
        -12    1    1    2    0    0 -0.14605830462E+02 -0.40372811671E+02 -0.63504872410E+01  0.43400724578E+02  0.00000000000E+00 0.  1.
         11    1    3    3    0    0  0.12850332558E+01  0.23960425264E+02  0.22740500001E+01  0.24102377330E+02  0.51100000000E-03 0. -1.
        -11    1    3    3    0    0 -0.17979137329E+00  0.63734421736E+01  0.79901184657E-02  0.63759826051E+01  0.51100000000E-03 0.  1.
        -12    1    3    3    0    0  0.13500588580E+02  0.10038944234E+02  0.40684471224E+01  0.17308915486E+02  0.00000000000E+00 0.  1.
</event>
<event>
 7    1  0.4356471E-010  0.4778727E+02  0.7816164E-02  0.1312668E+00
        -11   -1    0    0    0    0  0.00000000000E+00  0.00000000000E+00  0.45593999997E+02  0.45594000000E+02  0.51100000000E-03 0.  1.
         11   -1    0    0    0    0 -0.00000000000E+00 -0.00000000000E+00 -0.45593999997E+02  0.45594000000E+02  0.51100000000E-03 0. -1.
    9900012    2    1    2    0    0  0.30099737478E+02  0.16642545438E+02  0.26469884571E+02  0.47787270696E+02  0.19999998413E+02 0.  0.
        -12    1    1    2    0    0 -0.30099737478E+02 -0.16642545438E+02 -0.26469884571E+02  0.43400729304E+02  0.00000000000E+00 0.  1.
         11    1    3    3    0    0  0.17030296382E+00 -0.16034051078E+01  0.39381928141E+00  0.16598207514E+01  0.51100000000E-03 0. -1.
        -11    1    3    3    0    0  0.38414219332E+01 -0.24434971772E+01  0.47912898689E+01  0.66093615268E+01  0.51100000000E-03 0.  1.
         12    1    3    3    0    0  0.26088012581E+02  0.20689447723E+02  0.21284775421E+02  0.39518088418E+02  0.00000000000E+00 0. -1.
</event>
<event>
 7    1  0.4356471E-010  0.4778727E+02  0.7816164E-02  0.1312668E+00
        -11   -1    0    0    0    0  0.00000000000E+00  0.00000000000E+00  0.45593999997E+02  0.45594000000E+02  0.51100000000E-03 0.  1.
         11   -1    0    0    0    0 -0.00000000000E+00 -0.00000000000E+00 -0.45593999997E+02  0.45594000000E+02  0.51100000000E-03 0. -1.
    9900012    2    1    2    0    0 -0.27639507893E+02  0.33454892413E+02 -0.67153126312E+00  0.47787272158E+02  0.20000005079E+02 0.  0.
        -12    1    1    2    0    0  0.27639507893E+02 -0.33454892413E+02  0.67153126312E+00  0.43400727842E+02  0.00000000000E+00 0.  1.
         11    1    3    3    0    0 -0.57149458799E+01  0.13565147449E+02  0.56403277029E+00  0.14730647132E+02  0.51100000000E-03 0. -1.
        -11    1    3    3    0    0 -0.10831900010E+02  0.16827634547E+02  0.40093844499E+01  0.20410156937E+02  0.51100000000E-03 0.  1.
        -12    1    3    3    0    0 -0.11092662003E+02  0.30621104175E+01 -0.52449484833E+01  0.12646468089E+02  0.00000000000E+00 0.  1.
</event>
<event>
 7    1  0.4356471E-010  0.4778727E+02  0.7816164E-02  0.1312668E+00
        -11   -1    0    0    0    0  0.00000000000E+00  0.00000000000E+00  0.45593999997E+02  0.45594000000E+02  0.51100000000E-03 0.  1.
         11   -1    0    0    0    0 -0.00000000000E+00 -0.00000000000E+00 -0.45593999997E+02  0.45594000000E+02  0.51100000000E-03 0. -1.
    9900012    2    1    2    0    0  0.15430359092E+02  0.35884428323E+02 -0.18916525026E+02  0.47787273084E+02  0.20000009299E+02 0.  0.
        -12    1    1    2    0    0 -0.15430359092E+02 -0.35884428323E+02  0.18916525026E+02  0.43400726916E+02  0.00000000000E+00 0.  1.
         11    1    3    3    0    0  0.67482686063E+01  0.67591451347E+01 -0.56916944294E+01  0.11118478218E+02  0.51100000000E-03 0. -1.
        -11    1    3    3    0    0  0.82951960369E+01  0.12956877486E+02  0.59383125308E+00  0.15396219902E+02  0.51100000000E-03 0.  1.
         12    1    3    3    0    0  0.38689444905E+00  0.16168405702E+02 -0.13818661850E+02  0.21272574964E+02  0.00000000000E+00 0. -1.
</event>
<event>
 7    1  0.4356471E-010  0.4778727E+02  0.7816164E-02  0.1312668E+00
        -11   -1    0    0    0    0  0.00000000000E+00  0.00000000000E+00  0.45593999997E+02  0.45594000000E+02  0.51100000000E-03 0.  1.
         11   -1    0    0    0    0 -0.00000000000E+00 -0.00000000000E+00 -0.45593999997E+02  0.45594000000E+02  0.51100000000E-03 0. -1.
    9900012    2    1    2    0    0  0.12553211048E+02 -0.27439234913E+02 -0.31195012299E+02  0.47787268295E+02  0.19999987462E+02 0.  0.
        -12    1    1    2    0    0 -0.12553211048E+02  0.27439234913E+02  0.31195012299E+02  0.43400731705E+02  0.00000000000E+00 0.  1.
         11    1    3    3    0    0 -0.13970784222E+01 -0.10185798255E+02 -0.12532757163E+02  0.16210253439E+02  0.51100000000E-03 0. -1.
        -11    1    3    3    0    0  0.41782025240E+01 -0.11082768192E+02 -0.31926995736E+01  0.12266966126E+02  0.51100000000E-03 0.  1.
        -12    1    3    3    0    0  0.97720869458E+01 -0.61706684668E+01 -0.15469555563E+02  0.19310048729E+02  0.00000000000E+00 0.  1.
</event>
<event>
 7    1  0.4356471E-010  0.4778725E+02  0.7816164E-02  0.1312668E+00
        -11   -1    0    0    0    0  0.00000000000E+00  0.00000000000E+00  0.45593999997E+02  0.45594000000E+02  0.51100000000E-03 0.  1.
         11   -1    0    0    0    0 -0.00000000000E+00 -0.00000000000E+00 -0.45593999997E+02  0.45594000000E+02  0.51100000000E-03 0. -1.
    9900012    2    1    2    0    0  0.62064160727E+01  0.12016089969E+02 -0.41239779087E+02  0.47787246576E+02  0.19999888440E+02 0.  0.
        -12    1    1    2    0    0 -0.62064160727E+01 -0.12016089969E+02  0.41239779087E+02  0.43400753424E+02  0.00000000000E+00 0.  1.
         11    1    3    3    0    0 -0.12462803065E+01  0.13127347852E+01 -0.10836575547E+02  0.10986712750E+02  0.51100000000E-03 0. -1.
        -11    1    3    3    0    0  0.29802122337E+01  0.13096810072E+02 -0.28268099062E+02  0.31296861246E+02  0.51100000000E-03 0.  1.
        -12    1    3    3    0    0  0.44724841455E+01 -0.23934548884E+01 -0.21351044781E+01  0.55036725799E+01  0.00000000000E+00 0.  1.
</event>
<event>
 7    1  0.4356471E-010  0.4778727E+02  0.7816164E-02  0.1312668E+00
        -11   -1    0    0    0    0  0.00000000000E+00  0.00000000000E+00  0.45593999997E+02  0.45594000000E+02  0.51100000000E-03 0.  1.
         11   -1    0    0    0    0 -0.00000000000E+00 -0.00000000000E+00 -0.45593999997E+02  0.45594000000E+02  0.51100000000E-03 0. -1.
    9900012    2    1    2    0    0  0.32899225579E+02 -0.10970773396E+02 -0.26094185514E+02  0.47787269243E+02  0.19999991788E+02 0.  0.
        -12    1    1    2    0    0 -0.32899225579E+02  0.10970773396E+02  0.26094185514E+02  0.43400730757E+02  0.00000000000E+00 0.  1.
         11    1    3    3    0    0  0.35293720899E+01 -0.17855139928E+01 -0.60487439766E+01  0.72271592983E+01  0.51100000000E-03 0. -1.
        -11    1    3    3    0    0  0.28419385968E+02 -0.80546234375E+01 -0.11197793115E+02  0.31590014695E+02  0.51100000000E-03 0.  1.
        -12    1    3    3    0    0  0.95046752065E+00 -0.11306359655E+01 -0.88476484221E+01  0.89700952501E+01  0.00000000000E+00 0.  1.
</event>
<event>
 7    1  0.4356471E-010  0.4778727E+02  0.7816164E-02  0.1312668E+00
        -11   -1    0    0    0    0  0.00000000000E+00  0.00000000000E+00  0.45593999997E+02  0.45594000000E+02  0.51100000000E-03 0.  1.
         11   -1    0    0    0    0 -0.00000000000E+00 -0.00000000000E+00 -0.45593999997E+02  0.45594000000E+02  0.51100000000E-03 0. -1.
    9900012    2    1    2    0    0  0.24146051229E+02 -0.17380909647E+02 -0.31598982364E+02  0.47787268479E+02  0.19999988305E+02 0.  0.
        -12    1    1    2    0    0 -0.24146051229E+02  0.17380909647E+02  0.31598982364E+02  0.43400731521E+02  0.00000000000E+00 0.  1.
         11    1    3    3    0    0  0.19086228725E+01  0.23602616908E+01 -0.21450926179E+01  0.37168668417E+01  0.51100000000E-03 0. -1.
        -11    1    3    3    0    0  0.14296673975E+02 -0.45717517632E+01 -0.94391513155E+01  0.17731141496E+02  0.51100000000E-03 0.  1.
         12    1    3    3    0    0  0.79407543816E+01 -0.15169419575E+02 -0.20014738430E+02  0.26339260142E+02  0.00000000000E+00 0. -1.
</event>
<event>
 7    1  0.4356471E-010  0.4778728E+02  0.7816164E-02  0.1312668E+00
        -11   -1    0    0    0    0  0.00000000000E+00  0.00000000000E+00  0.45593999997E+02  0.45594000000E+02  0.51100000000E-03 0.  1.
         11   -1    0    0    0    0 -0.00000000000E+00 -0.00000000000E+00 -0.45593999997E+02  0.45594000000E+02  0.51100000000E-03 0. -1.
    9900012    2    1    2    0    0 -0.87748868597E+01 -0.18676288585E+02 -0.38181413289E+02  0.47787277478E+02  0.20000029332E+02 0.  0.
        -12    1    1    2    0    0  0.87748868597E+01  0.18676288585E+02  0.38181413289E+02  0.43400722522E+02  0.00000000000E+00 0.  1.
         11    1    3    3    0    0  0.48176891810E-01 -0.11275036569E+01 -0.51657921582E+00  0.12411445752E+01  0.51100000000E-03 0. -1.
        -11    1    3    3    0    0 -0.59048973073E+01  0.29766379592E+01 -0.88033265832E+01  0.11010301764E+02  0.51100000000E-03 0.  1.
         12    1    3    3    0    0 -0.29181664442E+01 -0.20525422888E+02 -0.28861507490E+02  0.35535831138E+02  0.00000000000E+00 0. -1.
</event>
<event>
 7    1  0.4356471E-010  0.4778727E+02  0.7816164E-02  0.1312668E+00
        -11   -1    0    0    0    0  0.00000000000E+00  0.00000000000E+00  0.45593999997E+02  0.45594000000E+02  0.51100000000E-03 0.  1.
         11   -1    0    0    0    0 -0.00000000000E+00 -0.00000000000E+00 -0.45593999997E+02  0.45594000000E+02  0.51100000000E-03 0. -1.
    9900012    2    1    2    0    0 -0.19542515301E+02 -0.37823857965E+02 -0.84302412844E+01  0.47787273004E+02  0.20000008936E+02 0.  0.
        -12    1    1    2    0    0  0.19542515301E+02  0.37823857965E+02  0.84302412844E+01  0.43400726996E+02  0.00000000000E+00 0.  1.
         11    1    3    3    0    0 -0.81252636901E+01 -0.41687744625E+01  0.21827615144E+00  0.91348910936E+01  0.51100000000E-03 0. -1.
        -11    1    3    3    0    0 -0.42808216009E+01 -0.10617052914E+02  0.30499318347E+01  0.11846912282E+02  0.51100000000E-03 0.  1.
        -12    1    3    3    0    0 -0.71364300102E+01 -0.23038030589E+02 -0.11698449271E+02  0.26805469629E+02  0.00000000000E+00 0.  1.
</event>
<event>
 7    1  0.4356471E-010  0.4778727E+02  0.7816164E-02  0.1312668E+00
        -11   -1    0    0    0    0  0.00000000000E+00  0.00000000000E+00  0.45593999997E+02  0.45594000000E+02  0.51100000000E-03 0.  1.
         11   -1    0    0    0    0 -0.00000000000E+00 -0.00000000000E+00 -0.45593999997E+02  0.45594000000E+02  0.51100000000E-03 0. -1.
    9900012    2    1    2    0    0  0.44924056787E+01 -0.10927251144E+02 -0.41761662476E+02  0.47787274440E+02  0.20000015482E+02 0.  0.
        -12    1    1    2    0    0 -0.44924056787E+01  0.10927251144E+02  0.41761662476E+02  0.43400725560E+02  0.00000000000E+00 0.  1.
         11    1    3    3    0    0  0.48376076964E+01 -0.26689735283E+01 -0.23956465368E+02  0.24585322879E+02  0.51100000000E-03 0. -1.
        -11    1    3    3    0    0  0.56974069605E+01 -0.52272134538E+01 -0.68555769754E+01  0.10333592913E+02  0.51100000000E-03 0.  1.
         12    1    3    3    0    0 -0.60426089781E+01 -0.30310641623E+01 -0.10949620133E+02  0.12868358648E+02  0.00000000000E+00 0. -1.
</event>
<event>
 7    1  0.4356471E-010  0.4778728E+02  0.7816164E-02  0.1312668E+00
        -11   -1    0    0    0    0  0.00000000000E+00  0.00000000000E+00  0.45593999997E+02  0.45594000000E+02  0.51100000000E-03 0. -1.
         11   -1    0    0    0    0 -0.00000000000E+00 -0.00000000000E+00 -0.45593999997E+02  0.45594000000E+02  0.51100000000E-03 0.  1.
    9900012    2    1    2    0    0  0.67804781025E+01  0.47142199917E+01  0.42607791704E+02  0.47787278032E+02  0.20000031859E+02 0.  0.
        -12    1    1    2    0    0 -0.67804781025E+01 -0.47142199917E+01 -0.42607791704E+02  0.43400721968E+02  0.00000000000E+00 0.  1.
         11    1    3    3    0    0  0.97199637028E+01  0.53064561895E+01  0.21717773790E+02  0.24378225332E+02  0.51100000000E-03 0. -1.
        -11    1    3    3    0    0  0.19975720633E+01 -0.38417709440E+01  0.60898426293E+01  0.74723277260E+01  0.51100000000E-03 0.  1.
        -12    1    3    3    0    0 -0.49370576636E+01  0.32495347462E+01  0.14800175285E+02  0.15936724974E+02  0.00000000000E+00 0.  1.
</event>
<event>
 7    1  0.4356471E-010  0.4778727E+02  0.7816164E-02  0.1312668E+00
        -11   -1    0    0    0    0  0.00000000000E+00  0.00000000000E+00  0.45593999997E+02  0.45594000000E+02  0.51100000000E-03 0.  1.
         11   -1    0    0    0    0 -0.00000000000E+00 -0.00000000000E+00 -0.45593999997E+02  0.45594000000E+02  0.51100000000E-03 0. -1.
    9900012    2    1    2    0    0 -0.28684684941E+02 -0.30710282349E+02 -0.10848534189E+02  0.47787270903E+02  0.19999999356E+02 0.  0.
        -12    1    1    2    0    0  0.28684684941E+02  0.30710282349E+02  0.10848534189E+02  0.43400729097E+02  0.00000000000E+00 0.  1.
         11    1    3    3    0    0 -0.82696047148E+01 -0.15356399050E+02 -0.39701500231E+00  0.17446001694E+02  0.51100000000E-03 0. -1.
        -11    1    3    3    0    0 -0.71863106128E+01 -0.64811150548E+01  0.22887873459E+01  0.99441671523E+01  0.51100000000E-03 0.  1.
         12    1    3    3    0    0 -0.13228769613E+02 -0.88727682441E+01 -0.12740306532E+02  0.20397102057E+02  0.00000000000E+00 0. -1.
</event>
<event>
 7    1  0.5093068E-010  0.4778729E+02  0.7816164E-02  0.1312668E+00
        -11   -1    0    0    0    0  0.00000000000E+00  0.00000000000E+00  0.45593999997E+02  0.45594000000E+02  0.51100000000E-03 0.  1.
         11   -1    0    0    0    0 -0.00000000000E+00 -0.00000000000E+00 -0.45593999997E+02  0.45594000000E+02  0.51100000000E-03 0. -1.
    9900012    2    1    2    0    0 -0.51647645298E+01 -0.99269169439E+01 -0.41933320614E+02  0.47787287444E+02  0.20000074770E+02 0.  0.
        -12    1    1    2    0    0  0.51647645298E+01  0.99269169439E+01  0.41933320614E+02  0.43400712556E+02  0.00000000000E+00 0.  1.
         11    1    3    3    0    0 -0.47922199796E+01 -0.17267765458E+01 -0.14362276344E+02  0.15238835638E+02  0.51100000000E-03 0. -1.
        -11    1    3    3    0    0  0.12640774048E+00  0.35962114304E+01 -0.14437831273E+01  0.38772703734E+01  0.51100000000E-03 0.  1.
        -12    1    3    3    0    0 -0.49895229073E+00 -0.11796351828E+02 -0.26127261143E+02  0.28671181432E+02  0.00000000000E+00 0.  1.
</event>
<event>
 7    1  0.4356471E-010  0.4778727E+02  0.7816164E-02  0.1312668E+00
        -11   -1    0    0    0    0  0.00000000000E+00  0.00000000000E+00  0.45593999997E+02  0.45594000000E+02  0.51100000000E-03 0.  1.
         11   -1    0    0    0    0 -0.00000000000E+00 -0.00000000000E+00 -0.45593999997E+02  0.45594000000E+02  0.51100000000E-03 0. -1.
    9900012    2    1    2    0    0  0.16154661402E+01  0.24765295144E+00 -0.43369943927E+02  0.47787273058E+02  0.20000009182E+02 0.  0.
        -12    1    1    2    0    0 -0.16154661402E+01 -0.24765295144E+00  0.43369943927E+02  0.43400726942E+02  0.00000000000E+00 0.  1.
         11    1    3    3    0    0 -0.40654845904E+00  0.10773665104E+01 -0.19236947888E+02  0.19271382010E+02  0.51100000000E-03 0.  1.
        -11    1    3    3    0    0  0.25157992118E+01  0.62414268707E+01 -0.17728668172E+02  0.18962867148E+02  0.51100000000E-03 0. -1.
        -12    1    3    3    0    0 -0.49378461249E+00 -0.70711404297E+01 -0.64043278667E+01  0.95530239005E+01  0.00000000000E+00 0.  1.
</event>
<event>
 7    1  0.4356471E-010  0.4778727E+02  0.7816164E-02  0.1312668E+00
        -11   -1    0    0    0    0  0.00000000000E+00  0.00000000000E+00  0.45593999997E+02  0.45594000000E+02  0.51100000000E-03 0.  1.
         11   -1    0    0    0    0 -0.00000000000E+00 -0.00000000000E+00 -0.45593999997E+02  0.45594000000E+02  0.51100000000E-03 0. -1.
    9900012    2    1    2    0    0  0.39739441139E+01 -0.23607030011E+02 -0.36201367951E+02  0.47787272595E+02  0.20000007069E+02 0.  0.
        -12    1    1    2    0    0 -0.39739441139E+01  0.23607030011E+02  0.36201367951E+02  0.43400727405E+02  0.00000000000E+00 0.  1.
         11    1    3    3    0    0 -0.51347241213E+01 -0.39031725473E+01 -0.20318838270E+01  0.67622998960E+01  0.51100000000E-03 0.  1.
        -11    1    3    3    0    0  0.42819058491E+01 -0.27785905884E+01 -0.76948925114E+01  0.92339944976E+01  0.51100000000E-03 0. -1.
         12    1    3    3    0    0  0.48267623861E+01 -0.16925266875E+02 -0.26474591613E+02  0.31790978201E+02  0.00000000000E+00 0. -1.
</event>
<event>
 7    1  0.4356471E-010  0.4778727E+02  0.7816164E-02  0.1312668E+00
        -11   -1    0    0    0    0  0.00000000000E+00  0.00000000000E+00  0.45593999997E+02  0.45594000000E+02  0.51100000000E-03 0. -1.
         11   -1    0    0    0    0 -0.00000000000E+00 -0.00000000000E+00 -0.45593999997E+02  0.45594000000E+02  0.51100000000E-03 0.  1.
    9900012    2    1    2    0    0 -0.27944442532E+01 -0.42142405029E+02 -0.99916068697E+01  0.47787269267E+02  0.19999991895E+02 0.  0.
        -12    1    1    2    0    0  0.27944442532E+01  0.42142405029E+02  0.99916068697E+01  0.43400730733E+02  0.00000000000E+00 0.  1.
         11    1    3    3    0    0 -0.87873848453E+01 -0.15255364678E+02 -0.52168507479E+00  0.17612962256E+02  0.51100000000E-03 0.  1.
        -11    1    3    3    0    0  0.42716193234E+00 -0.88346370814E+00  0.11745023725E+01  0.15305004163E+01  0.51100000000E-03 0. -1.
        -12    1    3    3    0    0  0.55657786598E+01 -0.26003576644E+02 -0.10644424167E+02  0.28643806594E+02  0.00000000000E+00 0.  1.
</event>
<event>
 7    1  0.4356471E-010  0.4778727E+02  0.7816164E-02  0.1312668E+00
        -11   -1    0    0    0    0  0.00000000000E+00  0.00000000000E+00  0.45593999997E+02  0.45594000000E+02  0.51100000000E-03 0. -1.
         11   -1    0    0    0    0 -0.00000000000E+00 -0.00000000000E+00 -0.45593999997E+02  0.45594000000E+02  0.51100000000E-03 0.  1.
    9900012    2    1    2    0    0 -0.10692529176E+01  0.12642737707E+02  0.41504713008E+02  0.47787270508E+02  0.19999997554E+02 0.  0.
        -12    1    1    2    0    0  0.10692529176E+01 -0.12642737707E+02 -0.41504713008E+02  0.43400729492E+02  0.00000000000E+00 0.  1.
         11    1    3    3    0    0  0.12452626856E+01  0.17857826246E+01  0.55675211603E+01  0.59780423944E+01  0.51100000000E-03 0.  1.
        -11    1    3    3    0    0 -0.72492015015E+01  0.89984474851E+01  0.34441382464E+02  0.36328113161E+02  0.51100000000E-03 0. -1.
        -12    1    3    3    0    0  0.49346858984E+01  0.18585075978E+01  0.14958093837E+01  0.54811149522E+01  0.00000000000E+00 0.  1.
</event>
<event>
 7    1  0.4356471E-010  0.4778727E+02  0.7816164E-02  0.1312668E+00
        -11   -1    0    0    0    0  0.00000000000E+00  0.00000000000E+00  0.45593999997E+02  0.45594000000E+02  0.51100000000E-03 0.  1.
         11   -1    0    0    0    0 -0.00000000000E+00 -0.00000000000E+00 -0.45593999997E+02  0.45594000000E+02  0.51100000000E-03 0. -1.
    9900012    2    1    2    0    0  0.42476772471E+01 -0.48231894203E+01 -0.42922225790E+02  0.47787269765E+02  0.19999994165E+02 0.  0.
        -12    1    1    2    0    0 -0.42476772471E+01  0.48231894203E+01  0.42922225790E+02  0.43400730235E+02  0.00000000000E+00 0.  1.
         11    1    3    3    0    0  0.21202281693E+01  0.15316790555E+01 -0.16637760258E+02  0.16842104229E+02  0.51100000000E-03 0. -1.
        -11    1    3    3    0    0 -0.16528657371E+01  0.42807101450E+01 -0.45920209139E+01  0.64917717786E+01  0.51100000000E-03 0.  1.
        -12    1    3    3    0    0  0.37803148149E+01 -0.10635578621E+02 -0.21692444618E+02  0.24453393757E+02  0.00000000000E+00 0.  1.
</event>
<event>
 7    1  0.4356471E-010  0.4778727E+02  0.7816164E-02  0.1312668E+00
        -11   -1    0    0    0    0  0.00000000000E+00  0.00000000000E+00  0.45593999997E+02  0.45594000000E+02  0.51100000000E-03 0. -1.
         11   -1    0    0    0    0 -0.00000000000E+00 -0.00000000000E+00 -0.45593999997E+02  0.45594000000E+02  0.51100000000E-03 0.  1.
    9900012    2    1    2    0    0 -0.31220223566E+02 -0.23595487104E+02  0.18766293485E+02  0.47787272560E+02  0.20000006910E+02 0.  0.
        -12    1    1    2    0    0  0.31220223566E+02  0.23595487104E+02 -0.18766293485E+02  0.43400727440E+02  0.00000000000E+00 0.  1.
         11    1    3    3    0    0 -0.52924912098E+01 -0.69353504798E+01 -0.43431807606E+00  0.87348830522E+01  0.51100000000E-03 0.  1.
        -11    1    3    3    0    0 -0.13203108465E+02 -0.12798756531E+01  0.36774898237E+01  0.13765321881E+02  0.51100000000E-03 0. -1.
        -12    1    3    3    0    0 -0.12724623891E+02 -0.15380260971E+02  0.15523121737E+02  0.25287067627E+02  0.00000000000E+00 0.  1.
</event>
<event>
 7    1  0.4356471E-010  0.4778728E+02  0.7816164E-02  0.1312668E+00
        -11   -1    0    0    0    0  0.00000000000E+00  0.00000000000E+00  0.45593999997E+02  0.45594000000E+02  0.51100000000E-03 0.  1.
         11   -1    0    0    0    0 -0.00000000000E+00 -0.00000000000E+00 -0.45593999997E+02  0.45594000000E+02  0.51100000000E-03 0. -1.
    9900012    2    1    2    0    0 -0.43357477480E+02  0.67454351734E+00  0.18157584049E+01  0.47787276031E+02  0.20000022737E+02 0.  0.
        -12    1    1    2    0    0  0.43357477480E+02 -0.67454351734E+00 -0.18157584049E+01  0.43400723969E+02  0.00000000000E+00 0.  1.
         11    1    3    3    0    0 -0.17199464752E+01  0.28294093844E+01  0.28934010608E+01  0.43972199515E+01  0.51100000000E-03 0.  1.
        -11    1    3    3    0    0 -0.81083969110E+01 -0.51850557354E+01  0.89837615614E+00  0.96663324702E+01  0.51100000000E-03 0. -1.
         12    1    3    3    0    0 -0.33529134094E+02  0.30301898683E+01 -0.19760188120E+01  0.33723723610E+02  0.00000000000E+00 0. -1.
</event>
<event>
 7    1  0.4356471E-010  0.4778727E+02  0.7816164E-02  0.1312668E+00
        -11   -1    0    0    0    0  0.00000000000E+00  0.00000000000E+00  0.45593999997E+02  0.45594000000E+02  0.51100000000E-03 0.  1.
         11   -1    0    0    0    0 -0.00000000000E+00 -0.00000000000E+00 -0.45593999997E+02  0.45594000000E+02  0.51100000000E-03 0. -1.
    9900012    2    1    2    0    0 -0.36854060094E+01  0.43243710638E+02  0.15079017570E+00  0.47787268844E+02  0.19999989970E+02 0.  0.
        -12    1    1    2    0    0  0.36854060094E+01 -0.43243710638E+02 -0.15079017570E+00  0.43400731156E+02  0.00000000000E+00 0.  1.
         11    1    3    3    0    0  0.32725148701E+01  0.29269745415E+02 -0.21790866449E+01  0.29532622116E+02  0.51100000000E-03 0. -1.
        -11    1    3    3    0    0 -0.77275693987E+00  0.91211628320E+01  0.43540115595E+01  0.10136576425E+02  0.51100000000E-03 0.  1.
         12    1    3    3    0    0 -0.61851639396E+01  0.48528023910E+01 -0.20241347388E+01  0.81180703031E+01  0.00000000000E+00 0. -1.
</event>
<event>
 7    1  0.4356471E-010  0.4778727E+02  0.7816164E-02  0.1312668E+00
        -11   -1    0    0    0    0  0.00000000000E+00  0.00000000000E+00  0.45593999997E+02  0.45594000000E+02  0.51100000000E-03 0.  1.
         11   -1    0    0    0    0 -0.00000000000E+00 -0.00000000000E+00 -0.45593999997E+02  0.45594000000E+02  0.51100000000E-03 0. -1.
    9900012    2    1    2    0    0 -0.37418670855E+02  0.35752790432E+00  0.21984968345E+02  0.47787267427E+02  0.19999983506E+02 0.  0.
        -12    1    1    2    0    0  0.37418670855E+02 -0.35752790432E+00 -0.21984968345E+02  0.43400732573E+02  0.00000000000E+00 0.  1.
         11    1    3    3    0    0 -0.16022555642E+02  0.43497268323E+00  0.16552353789E+01  0.16113698984E+02  0.51100000000E-03 0. -1.
        -11    1    3    3    0    0  0.23866030234E+00  0.67646847064E+00 -0.10344073457E+01  0.12587959126E+01  0.51100000000E-03 0.  1.
        -12    1    3    3    0    0 -0.21634775515E+02 -0.75391324955E+00  0.21364140312E+02  0.30414772530E+02  0.00000000000E+00 0.  1.
</event>
<event>
 7    1  0.4356471E-010  0.4778727E+02  0.7816164E-02  0.1312668E+00
        -11   -1    0    0    0    0  0.00000000000E+00  0.00000000000E+00  0.45593999997E+02  0.45594000000E+02  0.51100000000E-03 0.  1.
         11   -1    0    0    0    0 -0.00000000000E+00 -0.00000000000E+00 -0.45593999997E+02  0.45594000000E+02  0.51100000000E-03 0. -1.
    9900012    2    1    2    0    0  0.15404687186E+02  0.49812780812E+01 -0.40267925291E+02  0.47787270445E+02  0.19999997268E+02 0.  0.
        -12    1    1    2    0    0 -0.15404687186E+02 -0.49812780812E+01  0.40267925291E+02  0.43400729555E+02  0.00000000000E+00 0.  1.
         11    1    3    3    0    0  0.10087261833E+02 -0.57735712087E+00 -0.19169051202E+02  0.21668842073E+02  0.51100000000E-03 0. -1.
        -11    1    3    3    0    0  0.46752412546E+01 -0.37426693908E+01 -0.95979494126E+01  0.11313093659E+02  0.51100000000E-03 0.  1.
        -12    1    3    3    0    0  0.64218409894E+00  0.93013045928E+01 -0.11500924677E+02  0.14805334713E+02  0.00000000000E+00 0.  1.
</event>
<event>
 7    1  0.4356471E-010  0.4778728E+02  0.7816164E-02  0.1312668E+00
        -11   -1    0    0    0    0  0.00000000000E+00  0.00000000000E+00  0.45593999997E+02  0.45594000000E+02  0.51100000000E-03 0.  1.
         11   -1    0    0    0    0 -0.00000000000E+00 -0.00000000000E+00 -0.45593999997E+02  0.45594000000E+02  0.51100000000E-03 0. -1.
    9900012    2    1    2    0    0  0.29540081030E+02 -0.29369081331E+02 -0.12184556476E+02  0.47787277172E+02  0.20000027939E+02 0.  0.
        -12    1    1    2    0    0 -0.29540081030E+02  0.29369081331E+02  0.12184556476E+02  0.43400722828E+02  0.00000000000E+00 0.  1.
         11    1    3    3    0    0  0.60930034908E+00 -0.45569927401E+01 -0.11648832479E+01  0.47428243685E+01  0.51100000000E-03 0. -1.
        -11    1    3    3    0    0  0.46129299441E+01 -0.10994766289E+02 -0.91191401854E+01  0.15010753692E+02  0.51100000000E-03 0.  1.
        -12    1    3    3    0    0  0.24317850737E+02 -0.13817322302E+02 -0.19005330426E+01  0.28033699112E+02  0.00000000000E+00 0.  1.
</event>
<event>
 7    1  0.4356471E-010  0.4778727E+02  0.7816164E-02  0.1312668E+00
        -11   -1    0    0    0    0  0.00000000000E+00  0.00000000000E+00  0.45593999997E+02  0.45594000000E+02  0.51100000000E-03 0.  1.
         11   -1    0    0    0    0 -0.00000000000E+00 -0.00000000000E+00 -0.45593999997E+02  0.45594000000E+02  0.51100000000E-03 0. -1.
    9900012    2    1    2    0    0  0.13485387913E+02  0.32025331548E+02 -0.26002804049E+02  0.47787269979E+02  0.19999995144E+02 0.  0.
        -12    1    1    2    0    0 -0.13485387913E+02 -0.32025331548E+02  0.26002804049E+02  0.43400730021E+02  0.00000000000E+00 0.  1.
         11    1    3    3    0    0  0.10304031914E+02  0.15962804288E+02 -0.91383511845E+01  0.21083018215E+02  0.51100000000E-03 0. -1.
        -11    1    3    3    0    0  0.31221877300E+01  0.96863899194E+01 -0.17855743851E+01  0.10332593190E+02  0.51100000000E-03 0.  1.
        -12    1    3    3    0    0  0.59168269030E-01  0.63761373402E+01 -0.15078878479E+02  0.16371658574E+02  0.00000000000E+00 0.  1.
</event>
<event>
 7    1  0.4356471E-010  0.4778727E+02  0.7816164E-02  0.1312668E+00
        -11   -1    0    0    0    0  0.00000000000E+00  0.00000000000E+00  0.45593999997E+02  0.45594000000E+02  0.51100000000E-03 0.  1.
         11   -1    0    0    0    0 -0.00000000000E+00 -0.00000000000E+00 -0.45593999997E+02  0.45594000000E+02  0.51100000000E-03 0. -1.
    9900012    2    1    2    0    0  0.19005880860E+02 -0.11625583514E+02 -0.37245744728E+02  0.47787271899E+02  0.20000003898E+02 0.  0.
        -12    1    1    2    0    0 -0.19005880860E+02  0.11625583514E+02  0.37245744728E+02  0.43400728101E+02  0.00000000000E+00 0.  1.
         11    1    3    3    0    0  0.43310372027E+01  0.21411524439E+01 -0.35738543696E+01  0.60095634080E+01  0.51100000000E-03 0. -1.
        -11    1    3    3    0    0 -0.71808737454E+00 -0.35012054810E+01 -0.15269757863E+02  0.15682461375E+02  0.51100000000E-03 0.  1.
        -12    1    3    3    0    0  0.15392931031E+02 -0.10265530477E+02 -0.18402132495E+02  0.26095247117E+02  0.00000000000E+00 0.  1.
</event>
<event>
 7    1  0.4356471E-010  0.4778728E+02  0.7816164E-02  0.1312668E+00
        -11   -1    0    0    0    0  0.00000000000E+00  0.00000000000E+00  0.45593999997E+02  0.45594000000E+02  0.51100000000E-03 0. -1.
         11   -1    0    0    0    0 -0.00000000000E+00 -0.00000000000E+00 -0.45593999997E+02  0.45594000000E+02  0.51100000000E-03 0.  1.
    9900012    2    1    2    0    0  0.35929759605E+02 -0.71985261477E+01 -0.23256319955E+02  0.47787276252E+02  0.20000023743E+02 0.  0.
        -12    1    1    2    0    0 -0.35929759605E+02  0.71985261477E+01  0.23256319955E+02  0.43400723748E+02  0.00000000000E+00 0.  1.
         11    1    3    3    0    0  0.28861965098E+02 -0.12779029517E+01 -0.10124861060E+02  0.30613050763E+02  0.51100000000E-03 0. -1.
        -11    1    3    3    0    0  0.67696482297E+00 -0.18161962774E+01  0.74669278215E-01  0.19396974124E+01  0.51100000000E-03 0.  1.
        -12    1    3    3    0    0  0.63908296841E+01 -0.41044269186E+01 -0.13206128173E+02  0.15234528076E+02  0.00000000000E+00 0.  1.
</event>
<event>
 7    1  0.4356471E-010  0.4778727E+02  0.7816164E-02  0.1312668E+00
        -11   -1    0    0    0    0  0.00000000000E+00  0.00000000000E+00  0.45593999997E+02  0.45594000000E+02  0.51100000000E-03 0.  1.
         11   -1    0    0    0    0 -0.00000000000E+00 -0.00000000000E+00 -0.45593999997E+02  0.45594000000E+02  0.51100000000E-03 0. -1.
    9900012    2    1    2    0    0 -0.21496419086E+02 -0.21699922202E+02 -0.30832457987E+02  0.47787272787E+02  0.20000007944E+02 0.  0.
        -12    1    1    2    0    0  0.21496419086E+02  0.21699922202E+02  0.30832457987E+02  0.43400727213E+02  0.00000000000E+00 0.  1.
         11    1    3    3    0    0 -0.17607811399E+02 -0.15987685145E+02 -0.22838454855E+02  0.32973263699E+02  0.51100000000E-03 0. -1.
        -11    1    3    3    0    0 -0.66780500733E+01 -0.66096408285E+01 -0.50791712581E+01  0.10680902845E+02  0.51100000000E-03 0.  1.
        -12    1    3    3    0    0  0.27894423863E+01  0.89740377085E+00 -0.29148318742E+01  0.41331062421E+01  0.00000000000E+00 0.  1.
</event>
<event>
 7    1  0.5966353E-010  0.4778725E+02  0.7816164E-02  0.1312668E+00
        -11   -1    0    0    0    0  0.00000000000E+00  0.00000000000E+00  0.45593999997E+02  0.45594000000E+02  0.51100000000E-03 0.  1.
         11   -1    0    0    0    0 -0.00000000000E+00 -0.00000000000E+00 -0.45593999997E+02  0.45594000000E+02  0.51100000000E-03 0. -1.
    9900012    2    1    2    0    0 -0.91517834806E+00 -0.30481071304E+02 -0.30881897668E+02  0.47787252739E+02  0.19999916539E+02 0.  0.
        -12    1    1    2    0    0  0.91517834806E+00  0.30481071304E+02  0.30881897668E+02  0.43400747261E+02  0.00000000000E+00 0.  1.
         11    1    3    3    0    0 -0.25698883447E+01 -0.17677181722E+02 -0.16546040789E+02  0.24348686737E+02  0.51100000000E-03 0. -1.
        -11    1    3    3    0    0 -0.55800575884E+01 -0.29971202622E+01 -0.54560619583E+01  0.83599273268E+01  0.51100000000E-03 0.  1.
        -12    1    3    3    0    0  0.72347675850E+01 -0.98067693192E+01 -0.88797949206E+01  0.15078638676E+02  0.00000000000E+00 0.  1.
</event>
<event>
 7    1  0.4356471E-010  0.4778727E+02  0.7816164E-02  0.1312668E+00
        -11   -1    0    0    0    0  0.00000000000E+00  0.00000000000E+00  0.45593999997E+02  0.45594000000E+02  0.51100000000E-03 0.  1.
         11   -1    0    0    0    0 -0.00000000000E+00 -0.00000000000E+00 -0.45593999997E+02  0.45594000000E+02  0.51100000000E-03 0. -1.
    9900012    2    1    2    0    0 -0.30674197448E+02  0.29192834747E+02  0.95129018535E+01  0.47787270844E+02  0.19999999085E+02 0.  0.
        -12    1    1    2    0    0  0.30674197448E+02 -0.29192834747E+02 -0.95129018535E+01  0.43400729156E+02  0.00000000000E+00 0.  1.
         11    1    3    3    0    0 -0.21138881614E+02  0.20957696845E+02  0.12976673486E+02  0.32472625825E+02  0.51100000000E-03 0. -1.
        -11    1    3    3    0    0 -0.51197636225E+01  0.85884728630E+01 -0.55250627011E+00  0.10013945731E+02  0.51100000000E-03 0.  1.
        -12    1    3    3    0    0 -0.44155522115E+01 -0.35333496081E+00 -0.29112653627E+01  0.53006992878E+01  0.00000000000E+00 0.  1.
</event>
<event>
 7    1  0.4356471E-010  0.4778727E+02  0.7816164E-02  0.1312668E+00
        -11   -1    0    0    0    0  0.00000000000E+00  0.00000000000E+00  0.45593999997E+02  0.45594000000E+02  0.51100000000E-03 0. -1.
         11   -1    0    0    0    0 -0.00000000000E+00 -0.00000000000E+00 -0.45593999997E+02  0.45594000000E+02  0.51100000000E-03 0.  1.
    9900012    2    1    2    0    0 -0.20076024174E+02 -0.29280912163E+02  0.24964072171E+02  0.47787268865E+02  0.19999990062E+02 0.  0.
        -12    1    1    2    0    0  0.20076024174E+02  0.29280912163E+02 -0.24964072171E+02  0.43400731135E+02  0.00000000000E+00 0.  1.
         11    1    3    3    0    0 -0.72148422012E+00 -0.83442361159E+01  0.32711221792E+01  0.89914991192E+01  0.51100000000E-03 0. -1.
        -11    1    3    3    0    0 -0.93545786650E+01 -0.19023190153E+02  0.10472353451E+02  0.23644451626E+02  0.51100000000E-03 0.  1.
        -12    1    3    3    0    0 -0.99999612889E+01 -0.19134858933E+01  0.11220596541E+02  0.15151318120E+02  0.00000000000E+00 0.  1.
</event>
<event>
 7    1  0.4356471E-010  0.4778727E+02  0.7816164E-02  0.1312668E+00
        -11   -1    0    0    0    0  0.00000000000E+00  0.00000000000E+00  0.45593999997E+02  0.45594000000E+02  0.51100000000E-03 0. -1.
         11   -1    0    0    0    0 -0.00000000000E+00 -0.00000000000E+00 -0.45593999997E+02  0.45594000000E+02  0.51100000000E-03 0.  1.
    9900012    2    1    2    0    0  0.11456783013E+02 -0.32492720537E+02  0.26392959086E+02  0.47787273575E+02  0.20000011537E+02 0.  0.
        -12    1    1    2    0    0 -0.11456783013E+02  0.32492720537E+02 -0.26392959086E+02  0.43400726425E+02  0.00000000000E+00 0.  1.
         11    1    3    3    0    0  0.84099060699E+01 -0.19488791992E+02  0.12272220238E+02  0.24518297724E+02  0.51100000000E-03 0. -1.
        -11    1    3    3    0    0 -0.71665025890E+00 -0.10245748549E+02  0.22503023205E+01  0.10514409718E+02  0.51100000000E-03 0.  1.
         12    1    3    3    0    0  0.37635272015E+01 -0.27581799959E+01  0.11870436528E+02  0.12754566133E+02  0.00000000000E+00 0. -1.
</event>
<event>
 7    1  0.4356471E-010  0.4778727E+02  0.7816164E-02  0.1312668E+00
        -11   -1    0    0    0    0  0.00000000000E+00  0.00000000000E+00  0.45593999997E+02  0.45594000000E+02  0.51100000000E-03 0.  1.
         11   -1    0    0    0    0 -0.00000000000E+00 -0.00000000000E+00 -0.45593999997E+02  0.45594000000E+02  0.51100000000E-03 0. -1.
    9900012    2    1    2    0    0 -0.21775469124E+01  0.25389196332E+02 -0.35132185630E+02  0.47787268807E+02  0.19999989798E+02 0.  0.
        -12    1    1    2    0    0  0.21775469124E+01 -0.25389196332E+02  0.35132185630E+02  0.43400731193E+02  0.00000000000E+00 0.  1.
         11    1    3    3    0    0  0.29580061627E+01  0.10581814972E+02 -0.15558652301E+02  0.19047211614E+02  0.51100000000E-03 0.  1.
        -11    1    3    3    0    0  0.39156844145E+01  0.13492114186E+01 -0.73289426721E+01  0.84182157753E+01  0.51100000000E-03 0. -1.
        -12    1    3    3    0    0 -0.90512374896E+01  0.13458169942E+02 -0.12244590657E+02  0.20321841418E+02  0.00000000000E+00 0.  1.
</event>
<event>
 7    1  0.4356471E-010  0.4778727E+02  0.7816164E-02  0.1312668E+00
        -11   -1    0    0    0    0  0.00000000000E+00  0.00000000000E+00  0.45593999997E+02  0.45594000000E+02  0.51100000000E-03 0. -1.
         11   -1    0    0    0    0 -0.00000000000E+00 -0.00000000000E+00 -0.45593999997E+02  0.45594000000E+02  0.51100000000E-03 0.  1.
    9900012    2    1    2    0    0  0.21156919151E+02 -0.21221040886E+02  0.31395471240E+02  0.47787269377E+02  0.19999992399E+02 0.  0.
        -12    1    1    2    0    0 -0.21156919151E+02  0.21221040886E+02 -0.31395471240E+02  0.43400730623E+02  0.00000000000E+00 0.  1.
         11    1    3    3    0    0  0.64050773972E+01 -0.12645137203E+02  0.97291582756E+01  0.17192470223E+02  0.51100000000E-03 0. -1.
        -11    1    3    3    0    0 -0.10152453499E+00 -0.28809236614E+01 -0.86865388440E+00  0.30107454568E+01  0.51100000000E-03 0.  1.
        -12    1    3    3    0    0  0.14853366288E+02 -0.56949800214E+01  0.22534966848E+02  0.27584053698E+02  0.00000000000E+00 0.  1.
</event>
<event>
 7    1  0.4356471E-010  0.4778727E+02  0.7816164E-02  0.1312668E+00
        -11   -1    0    0    0    0  0.00000000000E+00  0.00000000000E+00  0.45593999997E+02  0.45594000000E+02  0.51100000000E-03 0.  1.
         11   -1    0    0    0    0 -0.00000000000E+00 -0.00000000000E+00 -0.45593999997E+02  0.45594000000E+02  0.51100000000E-03 0. -1.
    9900012    2    1    2    0    0  0.37026289987E+02  0.49831769234E+01 -0.22087218148E+02  0.47787269500E+02  0.19999992957E+02 0.  0.
        -12    1    1    2    0    0 -0.37026289987E+02 -0.49831769234E+01  0.22087218148E+02  0.43400730500E+02  0.00000000000E+00 0.  1.
         11    1    3    3    0    0  0.28800471336E+02  0.19976859180E+01 -0.15727940191E+02  0.32875918256E+02  0.51100000000E-03 0. -1.
        -11    1    3    3    0    0  0.56686309058E+01 -0.29441535317E+01 -0.89077245848E+00  0.64494102210E+01  0.51100000000E-03 0.  1.
        -12    1    3    3    0    0  0.25571877449E+01  0.59296445371E+01 -0.54685054979E+01  0.84619410232E+01  0.00000000000E+00 0.  1.
</event>
<event>
 7    1  0.4356471E-010  0.4778726E+02  0.7816164E-02  0.1312668E+00
        -11   -1    0    0    0    0  0.00000000000E+00  0.00000000000E+00  0.45593999997E+02  0.45594000000E+02  0.51100000000E-03 0.  1.
         11   -1    0    0    0    0 -0.00000000000E+00 -0.00000000000E+00 -0.45593999997E+02  0.45594000000E+02  0.51100000000E-03 0. -1.
    9900012    2    1    2    0    0  0.51806080630E+01  0.30645348055E+02 -0.30292702016E+02  0.47787264376E+02  0.19999969594E+02 0.  0.
        -12    1    1    2    0    0 -0.51806080630E+01 -0.30645348055E+02  0.30292702016E+02  0.43400735624E+02  0.00000000000E+00 0.  1.
         11    1    3    3    0    0  0.22432856491E+01  0.25947461237E+02 -0.16429798179E+02  0.30793527625E+02  0.51100000000E-03 0.  1.
        -11    1    3    3    0    0  0.11089053404E+01  0.49070506886E+01 -0.27576458688E+01  0.57370226175E+01  0.51100000000E-03 0. -1.
        -12    1    3    3    0    0  0.18284170735E+01 -0.20916387120E+00 -0.11105257968E+02  0.11256714133E+02  0.00000000000E+00 0.  1.
</event>
<event>
 7    1  0.4356471E-010  0.4778727E+02  0.7816164E-02  0.1312668E+00
        -11   -1    0    0    0    0  0.00000000000E+00  0.00000000000E+00  0.45593999997E+02  0.45594000000E+02  0.51100000000E-03 0.  1.
         11   -1    0    0    0    0 -0.00000000000E+00 -0.00000000000E+00 -0.45593999997E+02  0.45594000000E+02  0.51100000000E-03 0. -1.
    9900012    2    1    2    0    0  0.19807927269E+02  0.48386438018E+01 -0.38312615275E+02  0.47787274825E+02  0.20000017237E+02 0.  0.
        -12    1    1    2    0    0 -0.19807927269E+02 -0.48386438018E+01  0.38312615275E+02  0.43400725175E+02  0.00000000000E+00 0.  1.
         11    1    3    3    0    0 -0.44699476875E+00 -0.88211278799E+00 -0.98588331074E+01  0.99083054956E+01  0.51100000000E-03 0. -1.
        -11    1    3    3    0    0  0.13846080859E+01 -0.33213840408E+01 -0.72226223531E+01  0.80693869292E+01  0.51100000000E-03 0.  1.
         12    1    3    3    0    0  0.18870313952E+02  0.90421406306E+01 -0.21231159814E+02  0.29809582400E+02  0.00000000000E+00 0. -1.
</event>
<event>
 7    1  0.4356471E-010  0.4778727E+02  0.7816164E-02  0.1312668E+00
        -11   -1    0    0    0    0  0.00000000000E+00  0.00000000000E+00  0.45593999997E+02  0.45594000000E+02  0.51100000000E-03 0. -1.
         11   -1    0    0    0    0 -0.00000000000E+00 -0.00000000000E+00 -0.45593999997E+02  0.45594000000E+02  0.51100000000E-03 0.  1.
    9900012    2    1    2    0    0 -0.39882256937E+02 -0.17117570137E+02  0.13297379614E+00  0.47787270653E+02  0.19999998217E+02 0.  0.
        -12    1    1    2    0    0  0.39882256937E+02  0.17117570137E+02 -0.13297379614E+00  0.43400729347E+02  0.00000000000E+00 0.  1.
         11    1    3    3    0    0 -0.12962656385E+02 -0.41974261046E+01  0.67659214648E+01  0.15212709817E+02  0.51100000000E-03 0. -1.
        -11    1    3    3    0    0 -0.34337460004E+01 -0.15061404206E+01  0.29377628466E+01  0.47633519044E+01  0.51100000000E-03 0.  1.
        -12    1    3    3    0    0 -0.23485854551E+02 -0.11414003612E+02 -0.95707105152E+01  0.27811208932E+02  0.00000000000E+00 0.  1.
</event>
<event>
 7    1  0.4356471E-010  0.4778727E+02  0.7816164E-02  0.1312668E+00
        -11   -1    0    0    0    0  0.00000000000E+00  0.00000000000E+00  0.45593999997E+02  0.45594000000E+02  0.51100000000E-03 0.  1.
         11   -1    0    0    0    0 -0.00000000000E+00 -0.00000000000E+00 -0.45593999997E+02  0.45594000000E+02  0.51100000000E-03 0. -1.
    9900012    2    1    2    0    0 -0.38534913147E+02  0.94195560412E+01 -0.17605560221E+02  0.47787270536E+02  0.19999997684E+02 0.  0.
        -12    1    1    2    0    0  0.38534913147E+02 -0.94195560412E+01  0.17605560221E+02  0.43400729464E+02  0.00000000000E+00 0.  1.
         11    1    3    3    0    0 -0.13067439540E+02  0.54003701444E+01 -0.51743617713E+01  0.15056426994E+02  0.51100000000E-03 0. -1.
        -11    1    3    3    0    0  0.30519301325E+00  0.24616091591E+01 -0.54439659847E+01  0.59824266257E+01  0.51100000000E-03 0.  1.
        -12    1    3    3    0    0 -0.25772666621E+02  0.15575767377E+01 -0.69872324650E+01  0.26748416917E+02  0.00000000000E+00 0.  1.
</event>
<event>
 7    1  0.4356471E-010  0.4778727E+02  0.7816164E-02  0.1312668E+00
        -11   -1    0    0    0    0  0.00000000000E+00  0.00000000000E+00  0.45593999997E+02  0.45594000000E+02  0.51100000000E-03 0. -1.
         11   -1    0    0    0    0 -0.00000000000E+00 -0.00000000000E+00 -0.45593999997E+02  0.45594000000E+02  0.51100000000E-03 0.  1.
    9900012    2    1    2    0    0  0.21865445605E+02 -0.32939211280E+02  0.17903463121E+02  0.47787270248E+02  0.19999996369E+02 0.  0.
        -12    1    1    2    0    0 -0.21865445605E+02  0.32939211280E+02 -0.17903463121E+02  0.43400729752E+02  0.00000000000E+00 0.  1.
         11    1    3    3    0    0  0.62847188201E+01 -0.11207361193E+02  0.73904951542E+01  0.14823024470E+02  0.51100000000E-03 0. -1.
        -11    1    3    3    0    0 -0.10644951151E+01  0.13662530512E+01  0.30890294171E+01  0.35414545388E+01  0.51100000000E-03 0.  1.
         12    1    3    3    0    0  0.16645221900E+02 -0.23098103139E+02  0.74239385496E+01  0.29422791239E+02  0.00000000000E+00 0. -1.
</event>
<event>
 7    1  0.4356471E-010  0.4778727E+02  0.7816164E-02  0.1312668E+00
        -11   -1    0    0    0    0  0.00000000000E+00  0.00000000000E+00  0.45593999997E+02  0.45594000000E+02  0.51100000000E-03 0.  1.
         11   -1    0    0    0    0 -0.00000000000E+00 -0.00000000000E+00 -0.45593999997E+02  0.45594000000E+02  0.51100000000E-03 0. -1.
    9900012    2    1    2    0    0  0.23115354479E+02 -0.35624907339E+02 -0.89537616984E+01  0.47787268621E+02  0.19999988953E+02 0.  0.
        -12    1    1    2    0    0 -0.23115354479E+02  0.35624907339E+02  0.89537616984E+01  0.43400731379E+02  0.00000000000E+00 0.  1.
         11    1    3    3    0    0  0.13564932438E+02 -0.20701198128E+02 -0.46676940758E+01  0.25185995399E+02  0.51100000000E-03 0. -1.
        -11    1    3    3    0    0  0.11330572771E+02 -0.56307160629E+01 -0.33787801077E+01  0.13095915317E+02  0.51100000000E-03 0.  1.
         12    1    3    3    0    0 -0.17801507303E+01 -0.92929931485E+01 -0.90728751484E+00  0.95053579057E+01  0.00000000000E+00 0. -1.
</event>
<event>
 7    1  0.4356471E-010  0.4778728E+02  0.7816164E-02  0.1312668E+00
        -11   -1    0    0    0    0  0.00000000000E+00  0.00000000000E+00  0.45593999997E+02  0.45594000000E+02  0.51100000000E-03 0.  1.
         11   -1    0    0    0    0 -0.00000000000E+00 -0.00000000000E+00 -0.45593999997E+02  0.45594000000E+02  0.51100000000E-03 0. -1.
    9900012    2    1    2    0    0 -0.91548074335E+01 -0.14115359119E+00 -0.42423959325E+02  0.47787277099E+02  0.20000027607E+02 0.  0.
        -12    1    1    2    0    0  0.91548074335E+01  0.14115359119E+00  0.42423959325E+02  0.43400722901E+02  0.00000000000E+00 0.  1.
         11    1    3    3    0    0 -0.14176587167E+01 -0.25126664791E+01 -0.17207911103E+02  0.17448078802E+02  0.51100000000E-03 0. -1.
        -11    1    3    3    0    0  0.36704073841E+01 -0.21025582255E+01 -0.95914224857E+01  0.10482749020E+02  0.51100000000E-03 0.  1.
        -12    1    3    3    0    0 -0.11407556101E+02  0.44740711133E+01 -0.15624625736E+02  0.19856449278E+02  0.00000000000E+00 0.  1.
</event>
<event>
 7    1  0.4356471E-010  0.4778730E+02  0.7816164E-02  0.1312668E+00
        -11   -1    0    0    0    0  0.00000000000E+00  0.00000000000E+00  0.45593999997E+02  0.45594000000E+02  0.51100000000E-03 0. -1.
         11   -1    0    0    0    0 -0.00000000000E+00 -0.00000000000E+00 -0.45593999997E+02  0.45594000000E+02  0.51100000000E-03 0.  1.
    9900012    2    1    2    0    0 -0.24584474401E+02 -0.23343661548E+02  0.27097922832E+02  0.47787304869E+02  0.20000154220E+02 0.  0.
        -12    1    1    2    0    0  0.24584474401E+02  0.23343661548E+02 -0.27097922832E+02  0.43400695131E+02  0.00000000000E+00 0.  1.
         11    1    3    3    0    0 -0.35708692317E+01 -0.74311255271E+01  0.10955251589E+02  0.13710954427E+02  0.51100000000E-03 0. -1.
        -11    1    3    3    0    0  0.58842981347E+00 -0.53983176386E+01  0.57227762842E+01  0.78891223614E+01  0.51100000000E-03 0.  1.
         12    1    3    3    0    0 -0.21602034983E+02 -0.10514218383E+02  0.10419894959E+02  0.26187228081E+02  0.00000000000E+00 0. -1.
</event>
<event>
 7    1  0.4356471E-010  0.4778727E+02  0.7816164E-02  0.1312668E+00
        -11   -1    0    0    0    0  0.00000000000E+00  0.00000000000E+00  0.45593999997E+02  0.45594000000E+02  0.51100000000E-03 0.  1.
         11   -1    0    0    0    0 -0.00000000000E+00 -0.00000000000E+00 -0.45593999997E+02  0.45594000000E+02  0.51100000000E-03 0. -1.
    9900012    2    1    2    0    0  0.26671755617E+02  0.34034081934E+02 -0.37311993361E+01  0.47787272711E+02  0.20000007597E+02 0.  0.
        -12    1    1    2    0    0 -0.26671755617E+02 -0.34034081934E+02  0.37311993361E+01  0.43400727289E+02  0.00000000000E+00 0.  1.
         11    1    3    3    0    0  0.38935396053E+01  0.24442723501E+01 -0.38541718170E+01  0.59990631465E+01  0.51100000000E-03 0. -1.
        -11    1    3    3    0    0  0.20674042679E+01 -0.10224811709E+01 -0.20617421098E+01  0.30936077547E+01  0.51100000000E-03 0.  1.
        -12    1    3    3    0    0  0.20710811743E+02  0.32612290755E+02  0.21847145907E+01  0.38694601809E+02  0.00000000000E+00 0.  1.
</event>
<event>
 7    1  0.4356471E-010  0.4778727E+02  0.7816164E-02  0.1312668E+00
        -11   -1    0    0    0    0  0.00000000000E+00  0.00000000000E+00  0.45593999997E+02  0.45594000000E+02  0.51100000000E-03 0. -1.
         11   -1    0    0    0    0 -0.00000000000E+00 -0.00000000000E+00 -0.45593999997E+02  0.45594000000E+02  0.51100000000E-03 0.  1.
    9900012    2    1    2    0    0  0.40438223667E+02  0.10835306272E+02 -0.11444191287E+02  0.47787270633E+02  0.19999998123E+02 0.  0.
        -12    1    1    2    0    0 -0.40438223667E+02 -0.10835306272E+02  0.11444191287E+02  0.43400729367E+02  0.00000000000E+00 0.  1.
         11    1    3    3    0    0  0.11442903499E+02  0.80666745354E+01 -0.10055378354E+01  0.14036466263E+02  0.51100000000E-03 0. -1.
        -11    1    3    3    0    0  0.14329143836E+02  0.10512234341E+01  0.19196347245E+01  0.14495324471E+02  0.51100000000E-03 0.  1.
        -12    1    3    3    0    0  0.14666176332E+02  0.17174083026E+01 -0.12358288176E+02  0.19255479899E+02  0.00000000000E+00 0.  1.
</event>
<event>
 7    1  0.4356471E-010  0.4778727E+02  0.7816164E-02  0.1312668E+00
        -11   -1    0    0    0    0  0.00000000000E+00  0.00000000000E+00  0.45593999997E+02  0.45594000000E+02  0.51100000000E-03 0. -1.
         11   -1    0    0    0    0 -0.00000000000E+00 -0.00000000000E+00 -0.45593999997E+02  0.45594000000E+02  0.51100000000E-03 0.  1.
    9900012    2    1    2    0    0  0.16633916398E+02 -0.30560816401E+02  0.25941715334E+02  0.47787271109E+02  0.20000000294E+02 0.  0.
        -12    1    1    2    0    0 -0.16633916398E+02  0.30560816401E+02 -0.25941715334E+02  0.43400728891E+02  0.00000000000E+00 0.  1.
         11    1    3    3    0    0  0.10720343389E+02 -0.10788318320E+02  0.12681736727E+02  0.19802525628E+02  0.51100000000E-03 0.  1.
        -11    1    3    3    0    0  0.51885089542E+01 -0.19108420586E+02  0.15754600143E+02  0.25303355280E+02  0.51100000000E-03 0. -1.
         12    1    3    3    0    0  0.72506405461E+00 -0.66407749409E+00 -0.24946215366E+01  0.26813902014E+01  0.00000000000E+00 0. -1.
</event>
<event>
 7    1  0.4356471E-010  0.4778727E+02  0.7816164E-02  0.1312668E+00
        -11   -1    0    0    0    0  0.00000000000E+00  0.00000000000E+00  0.45593999997E+02  0.45594000000E+02  0.51100000000E-03 0.  1.
         11   -1    0    0    0    0 -0.00000000000E+00 -0.00000000000E+00 -0.45593999997E+02  0.45594000000E+02  0.51100000000E-03 0. -1.
    9900012    2    1    2    0    0  0.40735266849E+02 -0.14848126730E+02  0.19479331623E+01  0.47787271017E+02  0.19999999875E+02 0.  0.
        -12    1    1    2    0    0 -0.40735266849E+02  0.14848126730E+02 -0.19479331623E+01  0.43400728983E+02  0.00000000000E+00 0.  1.
         11    1    3    3    0    0  0.16636554420E+02 -0.90533504865E+01  0.26222981856E+01  0.19121049815E+02  0.51100000000E-03 0. -1.
        -11    1    3    3    0    0  0.23610571435E+02 -0.15643899438E+01  0.18179018205E+01  0.23732070425E+02  0.51100000000E-03 0.  1.
        -12    1    3    3    0    0  0.48814099497E+00 -0.42303862993E+01 -0.24922668438E+01  0.49341507773E+01  0.00000000000E+00 0.  1.
</event>
<event>
 7    1  0.4356471E-010  0.4778727E+02  0.7816164E-02  0.1312668E+00
        -11   -1    0    0    0    0  0.00000000000E+00  0.00000000000E+00  0.45593999997E+02  0.45594000000E+02  0.51100000000E-03 0.  1.
         11   -1    0    0    0    0 -0.00000000000E+00 -0.00000000000E+00 -0.45593999997E+02  0.45594000000E+02  0.51100000000E-03 0. -1.
    9900012    2    1    2    0    0  0.12049287100E+02 -0.22295361393E+02 -0.35232867095E+02  0.47787269787E+02  0.19999994269E+02 0.  0.
        -12    1    1    2    0    0 -0.12049287100E+02  0.22295361393E+02  0.35232867095E+02  0.43400730213E+02  0.00000000000E+00 0.  1.
         11    1    3    3    0    0  0.70692319926E-01  0.43501498371E+00 -0.25174337176E+01  0.25557206858E+01  0.51100000000E-03 0.  1.
        -11    1    3    3    0    0  0.22696683492E+01  0.29762439404E+01 -0.43496608803E+01  0.57383771611E+01  0.51100000000E-03 0. -1.
         12    1    3    3    0    0  0.97089264311E+01 -0.25706620317E+02 -0.28365772497E+02  0.39493171941E+02  0.00000000000E+00 0. -1.
</event>
<event>
 7    1  0.4356471E-010  0.4778727E+02  0.7816164E-02  0.1312668E+00
        -11   -1    0    0    0    0  0.00000000000E+00  0.00000000000E+00  0.45593999997E+02  0.45594000000E+02  0.51100000000E-03 0. -1.
         11   -1    0    0    0    0 -0.00000000000E+00 -0.00000000000E+00 -0.45593999997E+02  0.45594000000E+02  0.51100000000E-03 0.  1.
    9900012    2    1    2    0    0  0.43195633971E+02 -0.37739414567E+01  0.18755839547E+01  0.47787271395E+02  0.20000001600E+02 0.  0.
        -12    1    1    2    0    0 -0.43195633971E+02  0.37739414567E+01 -0.18755839547E+01  0.43400728605E+02  0.00000000000E+00 0.  1.
         11    1    3    3    0    0  0.13978625390E+02 -0.35999545507E+01  0.95297431438E+01  0.17296752447E+02  0.51100000000E-03 0. -1.
        -11    1    3    3    0    0  0.12644455005E+02  0.19734010099E+01 -0.36124537885E+01  0.13297607926E+02  0.51100000000E-03 0.  1.
        -12    1    3    3    0    0  0.16572553576E+02 -0.21473879159E+01 -0.40417054006E+01  0.17192911023E+02  0.00000000000E+00 0.  1.
</event>
<event>
 7    1  0.4356471E-010  0.4778727E+02  0.7816164E-02  0.1312668E+00
        -11   -1    0    0    0    0  0.00000000000E+00  0.00000000000E+00  0.45593999997E+02  0.45594000000E+02  0.51100000000E-03 0.  1.
         11   -1    0    0    0    0 -0.00000000000E+00 -0.00000000000E+00 -0.45593999997E+02  0.45594000000E+02  0.51100000000E-03 0. -1.
    9900012    2    1    2    0    0  0.16122309752E+02 -0.28390626635E+02 -0.28594874045E+02  0.47787269889E+02  0.19999994734E+02 0.  0.
        -12    1    1    2    0    0 -0.16122309752E+02  0.28390626635E+02  0.28594874045E+02  0.43400730111E+02  0.00000000000E+00 0.  1.
         11    1    3    3    0    0  0.46169498895E+00 -0.12302642264E+02 -0.47231301832E+01  0.13186209764E+02  0.51100000000E-03 0. -1.
        -11    1    3    3    0    0  0.70037582652E+01 -0.53941996286E+01 -0.25059725882E+01  0.91885754252E+01  0.51100000000E-03 0.  1.
         12    1    3    3    0    0  0.86568564978E+01 -0.10693784743E+02 -0.21365771274E+02  0.25412484701E+02  0.00000000000E+00 0. -1.
</event>
<event>
 7    1  0.4356471E-010  0.4778727E+02  0.7816164E-02  0.1312668E+00
        -11   -1    0    0    0    0  0.00000000000E+00  0.00000000000E+00  0.45593999997E+02  0.45594000000E+02  0.51100000000E-03 0.  1.
         11   -1    0    0    0    0 -0.00000000000E+00 -0.00000000000E+00 -0.45593999997E+02  0.45594000000E+02  0.51100000000E-03 0. -1.
    9900012    2    1    2    0    0  0.23685665470E+01 -0.40174321319E+02  0.16249216707E+02  0.47787271382E+02  0.20000001540E+02 0.  0.
        -12    1    1    2    0    0 -0.23685665470E+01  0.40174321319E+02 -0.16249216707E+02  0.43400728618E+02  0.00000000000E+00 0.  1.
         11    1    3    3    0    0  0.59706707814E+01 -0.52842459339E+01  0.52373453442E+01  0.95394942835E+01  0.51100000000E-03 0. -1.
        -11    1    3    3    0    0 -0.15439374863E+01 -0.44206161450E+00 -0.77198755832E+00  0.17818884600E+01  0.51100000000E-03 0.  1.
        -12    1    3    3    0    0 -0.20581667482E+01 -0.34448013771E+02  0.11783858921E+02  0.36465888639E+02  0.00000000000E+00 0.  1.
</event>
<event>
 7    1  0.4356471E-010  0.4778727E+02  0.7816164E-02  0.1312668E+00
        -11   -1    0    0    0    0  0.00000000000E+00  0.00000000000E+00  0.45593999997E+02  0.45594000000E+02  0.51100000000E-03 0. -1.
         11   -1    0    0    0    0 -0.00000000000E+00 -0.00000000000E+00 -0.45593999997E+02  0.45594000000E+02  0.51100000000E-03 0.  1.
    9900012    2    1    2    0    0  0.11578912921E+02  0.26330826278E+02  0.32499844621E+02  0.47787268010E+02  0.19999986164E+02 0.  0.
        -12    1    1    2    0    0 -0.11578912921E+02 -0.26330826278E+02 -0.32499844621E+02  0.43400731990E+02  0.00000000000E+00 0.  1.
         11    1    3    3    0    0  0.14980629834E+02  0.15084632592E+02  0.17038672650E+02  0.27244848625E+02  0.51100000000E-03 0. -1.
        -11    1    3    3    0    0  0.11012814294E+01  0.61533204019E+00  0.43114891063E+01  0.44922592180E+01  0.51100000000E-03 0.  1.
        -12    1    3    3    0    0 -0.45029983428E+01  0.10630861645E+02  0.11149682865E+02  0.16050160167E+02  0.00000000000E+00 0.  1.
</event>
<event>
 7    1  0.4356471E-010  0.4778727E+02  0.7816164E-02  0.1312668E+00
        -11   -1    0    0    0    0  0.00000000000E+00  0.00000000000E+00  0.45593999997E+02  0.45594000000E+02  0.51100000000E-03 0.  1.
         11   -1    0    0    0    0 -0.00000000000E+00 -0.00000000000E+00 -0.45593999997E+02  0.45594000000E+02  0.51100000000E-03 0. -1.
    9900012    2    1    2    0    0  0.19320764720E+02  0.31780656820E+02  0.22367865273E+02  0.47787268507E+02  0.19999988432E+02 0.  0.
        -12    1    1    2    0    0 -0.19320764720E+02 -0.31780656820E+02 -0.22367865273E+02  0.43400731493E+02  0.00000000000E+00 0.  1.
         11    1    3    3    0    0 -0.43186976281E+00  0.34352601991E+01  0.78849238332E-01  0.34631981738E+01  0.51100000000E-03 0. -1.
        -11    1    3    3    0    0  0.11412617371E+02  0.32486884709E+01  0.69030446019E+01  0.13727848960E+02  0.51100000000E-03 0.  1.
        -12    1    3    3    0    0  0.83400171111E+01  0.25096708150E+02  0.15385971432E+02  0.30596221373E+02  0.00000000000E+00 0.  1.
</event>
<event>
 7    1  0.4356471E-010  0.4778727E+02  0.7816164E-02  0.1312668E+00
        -11   -1    0    0    0    0  0.00000000000E+00  0.00000000000E+00  0.45593999997E+02  0.45594000000E+02  0.51100000000E-03 0.  1.
         11   -1    0    0    0    0 -0.00000000000E+00 -0.00000000000E+00 -0.45593999997E+02  0.45594000000E+02  0.51100000000E-03 0. -1.
    9900012    2    1    2    0    0  0.42950232383E+02 -0.35471334662E+01 -0.51301793327E+01  0.47787270080E+02  0.19999995604E+02 0.  0.
        -12    1    1    2    0    0 -0.42950232383E+02  0.35471334662E+01  0.51301793327E+01  0.43400729920E+02  0.00000000000E+00 0.  1.
         11    1    3    3    0    0  0.18264484976E+02  0.31230906136E+01  0.31239708120E+01  0.18791069696E+02  0.51100000000E-03 0. -1.
        -11    1    3    3    0    0  0.91057057731E+01  0.26453816301E+01 -0.43310025220E+01  0.10424466639E+02  0.51100000000E-03 0.  1.
         12    1    3    3    0    0  0.15580041633E+02 -0.93156057099E+01 -0.39231476228E+01  0.18571733745E+02  0.00000000000E+00 0. -1.
</event>
<event>
 7    1  0.4356471E-010  0.4778727E+02  0.7816164E-02  0.1312668E+00
        -11   -1    0    0    0    0  0.00000000000E+00  0.00000000000E+00  0.45593999997E+02  0.45594000000E+02  0.51100000000E-03 0. -1.
         11   -1    0    0    0    0 -0.00000000000E+00 -0.00000000000E+00 -0.45593999997E+02  0.45594000000E+02  0.51100000000E-03 0.  1.
    9900012    2    1    2    0    0  0.42925381022E+02  0.37191298086E+01 -0.52156760355E+01  0.47787267990E+02  0.19999986076E+02 0.  0.
        -12    1    1    2    0    0 -0.42925381022E+02 -0.37191298086E+01  0.52156760355E+01  0.43400732010E+02  0.00000000000E+00 0.  1.
         11    1    3    3    0    0  0.81824678551E+01  0.51051802849E+01 -0.21561485396E+01  0.98825413091E+01  0.51100000000E-03 0. -1.
        -11    1    3    3    0    0  0.23070272326E+02  0.34281003758E+01  0.36481882084E+01  0.23607172953E+02  0.51100000000E-03 0.  1.
        -12    1    3    3    0    0  0.11672640841E+02 -0.48141508521E+01 -0.67077157042E+01  0.14297553728E+02  0.00000000000E+00 0.  1.
</event>
<event>
 7    1  0.4356471E-010  0.4778727E+02  0.7816164E-02  0.1312668E+00
        -11   -1    0    0    0    0  0.00000000000E+00  0.00000000000E+00  0.45593999997E+02  0.45594000000E+02  0.51100000000E-03 0.  1.
         11   -1    0    0    0    0 -0.00000000000E+00 -0.00000000000E+00 -0.45593999997E+02  0.45594000000E+02  0.51100000000E-03 0. -1.
    9900012    2    1    2    0    0 -0.27909249108E+02  0.24949772186E+02 -0.21959192537E+02  0.47787268960E+02  0.19999990498E+02 0.  0.
        -12    1    1    2    0    0  0.27909249108E+02 -0.24949772186E+02  0.21959192537E+02  0.43400731040E+02  0.00000000000E+00 0.  1.
         11    1    3    3    0    0 -0.25160739317E+02  0.19747836885E+02 -0.22428129120E+02  0.39064828692E+02  0.51100000000E-03 0. -1.
        -11    1    3    3    0    0 -0.22245242523E+01  0.52411476246E+01 -0.21238744573E+01  0.60769218806E+01  0.51100000000E-03 0.  1.
         12    1    3    3    0    0 -0.52398553880E+00 -0.39212324123E-01  0.25928110403E+01  0.26455183881E+01  0.00000000000E+00 0. -1.
</event>
<event>
 7    1  0.4356471E-010  0.4778729E+02  0.7816164E-02  0.1312668E+00
        -11   -1    0    0    0    0  0.00000000000E+00  0.00000000000E+00  0.45593999997E+02  0.45594000000E+02  0.51100000000E-03 0.  1.
         11   -1    0    0    0    0 -0.00000000000E+00 -0.00000000000E+00 -0.45593999997E+02  0.45594000000E+02  0.51100000000E-03 0. -1.
    9900012    2    1    2    0    0  0.37275541132E+02 -0.18715203931E+02 -0.11995703064E+02  0.47787288982E+02  0.20000081783E+02 0.  0.
        -12    1    1    2    0    0 -0.37275541132E+02  0.18715203931E+02  0.11995703064E+02  0.43400711018E+02  0.00000000000E+00 0.  1.
         11    1    3    3    0    0  0.20551084165E+02 -0.62998147052E+01 -0.40412451225E+01  0.21871588604E+02  0.51100000000E-03 0. -1.
        -11    1    3    3    0    0  0.71492108206E+01  0.17241737173E+01 -0.78816456396E+00  0.73962959653E+01  0.51100000000E-03 0.  1.
        -12    1    3    3    0    0  0.95752461466E+01 -0.14139562943E+02 -0.71662933778E+01  0.18519404412E+02  0.00000000000E+00 0.  1.
</event>
<event>
 7    1  0.4356471E-010  0.4778727E+02  0.7816164E-02  0.1312668E+00
        -11   -1    0    0    0    0  0.00000000000E+00  0.00000000000E+00  0.45593999997E+02  0.45594000000E+02  0.51100000000E-03 0. -1.
         11   -1    0    0    0    0 -0.00000000000E+00 -0.00000000000E+00 -0.45593999997E+02  0.45594000000E+02  0.51100000000E-03 0.  1.
    9900012    2    1    2    0    0 -0.67526998955E+01  0.37696809376E+01  0.42706130504E+02  0.47787273821E+02  0.20000012659E+02 0.  0.
        -12    1    1    2    0    0  0.67526998955E+01 -0.37696809376E+01 -0.42706130504E+02  0.43400726179E+02  0.00000000000E+00 0.  1.
         11    1    3    3    0    0 -0.31486655539E+00  0.25004579783E+01  0.29249281872E+02  0.29357655243E+02  0.51100000000E-03 0. -1.
        -11    1    3    3    0    0  0.28472408317E+01  0.67002983513E+00  0.53113214525E+01  0.60634854800E+01  0.51100000000E-03 0.  1.
        -12    1    3    3    0    0 -0.92850741718E+01  0.59919312418E+00  0.81455271793E+01  0.12366133098E+02  0.00000000000E+00 0.  1.
</event>
<event>
 7    1  0.4356471E-010  0.4778727E+02  0.7816164E-02  0.1312668E+00
        -11   -1    0    0    0    0  0.00000000000E+00  0.00000000000E+00  0.45593999997E+02  0.45594000000E+02  0.51100000000E-03 0. -1.
         11   -1    0    0    0    0 -0.00000000000E+00 -0.00000000000E+00 -0.45593999997E+02  0.45594000000E+02  0.51100000000E-03 0.  1.
    9900012    2    1    2    0    0 -0.39700790971E+02 -0.10424772597E+02 -0.14099450893E+02  0.47787271862E+02  0.20000003727E+02 0.  0.
        -12    1    1    2    0    0  0.39700790971E+02  0.10424772597E+02  0.14099450893E+02  0.43400728138E+02  0.00000000000E+00 0.  1.
         11    1    3    3    0    0 -0.73106498288E+01 -0.48751494454E+01 -0.23743768760E+01  0.91022166995E+01  0.51100000000E-03 0. -1.
        -11    1    3    3    0    0 -0.13290591596E+01 -0.52260937715E+01  0.23940667445E+00  0.53977560315E+01  0.51100000000E-03 0.  1.
         12    1    3    3    0    0 -0.31061081983E+02 -0.32352937960E+00 -0.11964480691E+02  0.33287299131E+02  0.00000000000E+00 0. -1.
</event>
<event>
 7    1  0.4356471E-010  0.4778726E+02  0.7816164E-02  0.1312668E+00
        -11   -1    0    0    0    0  0.00000000000E+00  0.00000000000E+00  0.45593999997E+02  0.45594000000E+02  0.51100000000E-03 0.  1.
         11   -1    0    0    0    0 -0.00000000000E+00 -0.00000000000E+00 -0.45593999997E+02  0.45594000000E+02  0.51100000000E-03 0. -1.
    9900012    2    1    2    0    0  0.29841782305E+01  0.17682377198E+01 -0.43261899059E+02  0.47787263894E+02  0.19999967398E+02 0.  0.
        -12    1    1    2    0    0 -0.29841782305E+01 -0.17682377198E+01  0.43261899059E+02  0.43400736106E+02  0.00000000000E+00 0.  1.
         11    1    3    3    0    0  0.76799993041E+00  0.38434976276E+00 -0.10232192731E+02  0.10268170089E+02  0.51100000000E-03 0. -1.
        -11    1    3    3    0    0  0.18353479714E+01  0.64525056954E+00  0.18172743530E+01  0.26622052529E+01  0.51100000000E-03 0.  1.
         12    1    3    3    0    0  0.38083032869E+00  0.73863738748E+00 -0.34846980681E+02  0.34856888552E+02  0.00000000000E+00 0. -1.
</event>
<event>
 7    1  0.4356471E-010  0.4778726E+02  0.7816164E-02  0.1312668E+00
        -11   -1    0    0    0    0  0.00000000000E+00  0.00000000000E+00  0.45593999997E+02  0.45594000000E+02  0.51100000000E-03 0.  1.
         11   -1    0    0    0    0 -0.00000000000E+00 -0.00000000000E+00 -0.45593999997E+02  0.45594000000E+02  0.51100000000E-03 0. -1.
    9900012    2    1    2    0    0  0.31137441966E+01  0.16527637612E+02 -0.40009572170E+02  0.47787261836E+02  0.19999958014E+02 0.  0.
        -12    1    1    2    0    0 -0.31137441966E+01 -0.16527637612E+02  0.40009572170E+02  0.43400738164E+02  0.00000000000E+00 0.  1.
         11    1    3    3    0    0 -0.18767000965E+01  0.74384768431E+01 -0.17115843977E+02  0.18756467053E+02  0.51100000000E-03 0. -1.
        -11    1    3    3    0    0 -0.51209345911E+01  0.40669862731E+01 -0.90957978822E+01  0.11202583979E+02  0.51100000000E-03 0.  1.
        -12    1    3    3    0    0  0.10111378884E+02  0.50221744958E+01 -0.13797930311E+02  0.17828210804E+02  0.00000000000E+00 0.  1.
</event>
<event>
 7    1  0.4356471E-010  0.4778727E+02  0.7816164E-02  0.1312668E+00
        -11   -1    0    0    0    0  0.00000000000E+00  0.00000000000E+00  0.45593999997E+02  0.45594000000E+02  0.51100000000E-03 0.  1.
         11   -1    0    0    0    0 -0.00000000000E+00 -0.00000000000E+00 -0.45593999997E+02  0.45594000000E+02  0.51100000000E-03 0. -1.
    9900012    2    1    2    0    0 -0.10959991474E+02 -0.39625399104E+02 -0.13904306856E+02  0.47787269402E+02  0.19999992513E+02 0.  0.
        -12    1    1    2    0    0  0.10959991474E+02  0.39625399104E+02  0.13904306856E+02  0.43400730598E+02  0.00000000000E+00 0.  1.
         11    1    3    3    0    0 -0.12237187827E+02 -0.27912464336E+02 -0.10344726293E+02  0.32184900086E+02  0.51100000000E-03 0. -1.
        -11    1    3    3    0    0  0.13459777041E+01 -0.13204559378E+02 -0.42779377501E+01  0.13945350336E+02  0.51100000000E-03 0.  1.
        -12    1    3    3    0    0 -0.68781351202E-01  0.14916246098E+01  0.71835718747E+00  0.16570189799E+01  0.00000000000E+00 0.  1.
</event>
<event>
 7    1  0.4356471E-010  0.4778727E+02  0.7816164E-02  0.1312668E+00
        -11   -1    0    0    0    0  0.00000000000E+00  0.00000000000E+00  0.45593999997E+02  0.45594000000E+02  0.51100000000E-03 0.  1.
         11   -1    0    0    0    0 -0.00000000000E+00 -0.00000000000E+00 -0.45593999997E+02  0.45594000000E+02  0.51100000000E-03 0. -1.
    9900012    2    1    2    0    0 -0.33718824600E+02  0.18166227407E+02  0.20412058057E+02  0.47787273454E+02  0.20000010986E+02 0.  0.
        -12    1    1    2    0    0  0.33718824600E+02 -0.18166227407E+02 -0.20412058057E+02  0.43400726546E+02  0.00000000000E+00 0.  1.
         11    1    3    3    0    0 -0.15874817777E+02  0.10747437747E+02  0.79147487384E+01  0.20740311122E+02  0.51100000000E-03 0. -1.
        -11    1    3    3    0    0 -0.16784694052E+02  0.12299497589E+01  0.56407230969E+01  0.17749830652E+02  0.51100000000E-03 0.  1.
         12    1    3    3    0    0 -0.10593127704E+01  0.61888399006E+01  0.68565862216E+01  0.92971316800E+01  0.00000000000E+00 0. -1.
</event>
<event>
 7    1  0.4356471E-010  0.4778727E+02  0.7816164E-02  0.1312668E+00
        -11   -1    0    0    0    0  0.00000000000E+00  0.00000000000E+00  0.45593999997E+02  0.45594000000E+02  0.51100000000E-03 0.  1.
         11   -1    0    0    0    0 -0.00000000000E+00 -0.00000000000E+00 -0.45593999997E+02  0.45594000000E+02  0.51100000000E-03 0. -1.
    9900012    2    1    2    0    0  0.34777254115E+02  0.12376542875E+02 -0.22825140961E+02  0.47787271006E+02  0.19999999824E+02 0.  0.
        -12    1    1    2    0    0 -0.34777254115E+02 -0.12376542875E+02  0.22825140961E+02  0.43400728994E+02  0.00000000000E+00 0.  1.
         11    1    3    3    0    0  0.56194744187E+01  0.10220435485E+01 -0.91740307183E+01  0.10806752780E+02  0.51100000000E-03 0. -1.
        -11    1    3    3    0    0  0.10831603212E+02 -0.21644330901E+01 -0.76305251058E+01  0.13425100089E+02  0.51100000000E-03 0.  1.
         12    1    3    3    0    0  0.18326176485E+02  0.13518932417E+02 -0.60205851368E+01  0.23555418138E+02  0.00000000000E+00 0. -1.
</event>
<event>
 7    1  0.4356471E-010  0.4778727E+02  0.7816164E-02  0.1312668E+00
        -11   -1    0    0    0    0  0.00000000000E+00  0.00000000000E+00  0.45593999997E+02  0.45594000000E+02  0.51100000000E-03 0.  1.
         11   -1    0    0    0    0 -0.00000000000E+00 -0.00000000000E+00 -0.45593999997E+02  0.45594000000E+02  0.51100000000E-03 0. -1.
    9900012    2    1    2    0    0  0.28893815722E+02  0.28459298314E+02 -0.15454411699E+02  0.47787273180E+02  0.20000009738E+02 0.  0.
        -12    1    1    2    0    0 -0.28893815722E+02 -0.28459298314E+02  0.15454411699E+02  0.43400726820E+02  0.00000000000E+00 0.  1.
         11    1    3    3    0    0  0.15533836715E+02  0.14212631409E+02 -0.16002276246E+02  0.26445638959E+02  0.51100000000E-03 0. -1.
        -11    1    3    3    0    0  0.43515685799E+00  0.43275637995E+01 -0.21096073900E+01  0.48340059507E+01  0.51100000000E-03 0.  1.
        -12    1    3    3    0    0  0.12924822149E+02  0.99191031059E+01  0.26574719372E+01  0.16507628270E+02  0.00000000000E+00 0.  1.
</event>
<event>
 7    1  0.4356471E-010  0.4778727E+02  0.7816164E-02  0.1312668E+00
        -11   -1    0    0    0    0  0.00000000000E+00  0.00000000000E+00  0.45593999997E+02  0.45594000000E+02  0.51100000000E-03 0.  1.
         11   -1    0    0    0    0 -0.00000000000E+00 -0.00000000000E+00 -0.45593999997E+02  0.45594000000E+02  0.51100000000E-03 0. -1.
    9900012    2    1    2    0    0  0.79900663944E+00 -0.34305665745E+02 -0.26572658153E+02  0.47787271030E+02  0.19999999936E+02 0.  0.
        -12    1    1    2    0    0 -0.79900663944E+00  0.34305665745E+02  0.26572658153E+02  0.43400728970E+02  0.00000000000E+00 0.  1.
         11    1    3    3    0    0  0.58476591005E+01 -0.26745654972E+02 -0.24416283165E+02  0.36683512110E+02  0.51100000000E-03 0. -1.
        -11    1    3    3    0    0  0.13672744706E-01 -0.60124414128E+00 -0.24207905263E+01  0.24943753716E+01  0.51100000000E-03 0.  1.
         12    1    3    3    0    0 -0.50623252058E+01 -0.69587666313E+01  0.26441553872E+00  0.86093835491E+01  0.00000000000E+00 0. -1.
</event>
<event>
 7    1  0.4356471E-010  0.4778727E+02  0.7816164E-02  0.1312668E+00
        -11   -1    0    0    0    0  0.00000000000E+00  0.00000000000E+00  0.45593999997E+02  0.45594000000E+02  0.51100000000E-03 0.  1.
         11   -1    0    0    0    0 -0.00000000000E+00 -0.00000000000E+00 -0.45593999997E+02  0.45594000000E+02  0.51100000000E-03 0. -1.
    9900012    2    1    2    0    0 -0.32814120597E+02 -0.23271471964E+02 -0.16287899629E+02  0.47787267376E+02  0.19999983276E+02 0.  0.
        -12    1    1    2    0    0  0.32814120597E+02  0.23271471964E+02  0.16287899629E+02  0.43400732624E+02  0.00000000000E+00 0.  1.
         11    1    3    3    0    0 -0.62708110682E+01 -0.66950744597E+00  0.12768018938E+01  0.64344024595E+01  0.51100000000E-03 0. -1.
        -11    1    3    3    0    0  0.12461458649E+01 -0.11357345897E+01  0.63523952406E+00  0.18017497298E+01  0.51100000000E-03 0.  1.
         12    1    3    3    0    0 -0.27789455394E+02 -0.21466229929E+02 -0.18199941047E+02  0.39551115187E+02  0.00000000000E+00 0. -1.
</event>
<event>
 7    1  0.4356471E-010  0.4778728E+02  0.7816164E-02  0.1312668E+00
        -11   -1    0    0    0    0  0.00000000000E+00  0.00000000000E+00  0.45593999997E+02  0.45594000000E+02  0.51100000000E-03 0. -1.
         11   -1    0    0    0    0 -0.00000000000E+00 -0.00000000000E+00 -0.45593999997E+02  0.45594000000E+02  0.51100000000E-03 0.  1.
    9900012    2    1    2    0    0  0.35729511706E+02 -0.20466331290E+02  0.13716918984E+02  0.47787278927E+02  0.20000035940E+02 0.  0.
        -12    1    1    2    0    0 -0.35729511706E+02  0.20466331290E+02 -0.13716918984E+02  0.43400721073E+02  0.00000000000E+00 0.  1.
         11    1    3    3    0    0  0.16685472390E+02 -0.55300712226E+01  0.14214690333E+02  0.22606284483E+02  0.51100000000E-03 0. -1.
        -11    1    3    3    0    0  0.13304084088E+01  0.72509281056E+00 -0.24858471548E+00  0.15354285200E+01  0.51100000000E-03 0.  1.
         12    1    3    3    0    0  0.17713630908E+02 -0.15661352878E+02 -0.24918663390E+00  0.23645565924E+02  0.00000000000E+00 0. -1.
</event>
<event>
 7    1  0.4356471E-010  0.4778733E+02  0.7816164E-02  0.1312668E+00
        -11   -1    0    0    0    0  0.00000000000E+00  0.00000000000E+00  0.45593999997E+02  0.45594000000E+02  0.51100000000E-03 0.  1.
         11   -1    0    0    0    0 -0.00000000000E+00 -0.00000000000E+00 -0.45593999997E+02  0.45594000000E+02  0.51100000000E-03 0. -1.
    9900012    2    1    2    0    0 -0.88091375588E+01 -0.82367599016E+01 -0.41691403567E+02  0.47787328927E+02  0.20000263908E+02 0.  0.
        -12    1    1    2    0    0  0.88091375588E+01  0.82367599016E+01  0.41691403567E+02  0.43400671073E+02  0.00000000000E+00 0.  1.
         11    1    3    3    0    0 -0.27884170512E+01 -0.41202160608E+00 -0.19991656672E+01  0.34556757778E+01  0.51100000000E-03 0. -1.
        -11    1    3    3    0    0  0.30472916894E+01 -0.86481403052E+01 -0.11514977521E+02  0.14719749487E+02  0.51100000000E-03 0.  1.
         12    1    3    3    0    0 -0.90680121969E+01  0.82340200963E+00 -0.28177260379E+02  0.29611903662E+02  0.00000000000E+00 0. -1.
</event>
<event>
 7    1  0.4356471E-010  0.4778727E+02  0.7816164E-02  0.1312668E+00
        -11   -1    0    0    0    0  0.00000000000E+00  0.00000000000E+00  0.45593999997E+02  0.45594000000E+02  0.51100000000E-03 0. -1.
         11   -1    0    0    0    0 -0.00000000000E+00 -0.00000000000E+00 -0.45593999997E+02  0.45594000000E+02  0.51100000000E-03 0.  1.
    9900012    2    1    2    0    0 -0.33035192830E+02  0.20317241043E+02  0.19481002436E+02  0.47787266080E+02  0.19999977364E+02 0.  0.
        -12    1    1    2    0    0  0.33035192830E+02 -0.20317241043E+02 -0.19481002436E+02  0.43400733920E+02  0.00000000000E+00 0.  1.
         11    1    3    3    0    0 -0.16178668242E+02  0.26033864491E+01  0.34043394737E+01  0.16736679916E+02  0.51100000000E-03 0. -1.
        -11    1    3    3    0    0 -0.15322968207E+01 -0.44846483890E+00  0.41820940107E+01  0.44764902361E+01  0.51100000000E-03 0.  1.
         12    1    3    3    0    0 -0.15324227767E+02  0.18162319433E+02  0.11894568952E+02  0.26574095928E+02  0.00000000000E+00 0. -1.
</event>
<event>
 7    1  0.4356471E-010  0.4778727E+02  0.7816164E-02  0.1312668E+00
        -11   -1    0    0    0    0  0.00000000000E+00  0.00000000000E+00  0.45593999997E+02  0.45594000000E+02  0.51100000000E-03 0.  1.
         11   -1    0    0    0    0 -0.00000000000E+00 -0.00000000000E+00 -0.45593999997E+02  0.45594000000E+02  0.51100000000E-03 0. -1.
    9900012    2    1    2    0    0 -0.19756855332E+02  0.13256623953E+02  0.36298097432E+02  0.47787270877E+02  0.19999999235E+02 0.  0.
        -12    1    1    2    0    0  0.19756855332E+02 -0.13256623953E+02 -0.36298097432E+02  0.43400729123E+02  0.00000000000E+00 0.  1.
         11    1    3    3    0    0 -0.96588577068E+01  0.11443774696E+02  0.14349038422E+02  0.20740019657E+02  0.51100000000E-03 0.  1.
        -11    1    3    3    0    0 -0.77104427648E+01  0.74091627252E+00  0.22967809809E+02  0.24238815405E+02  0.51100000000E-03 0. -1.
         12    1    3    3    0    0 -0.23875548600E+01  0.10719329843E+01 -0.10187507983E+01  0.28084358140E+01  0.00000000000E+00 0. -1.
</event>
<event>
 7    1  0.4356471E-010  0.4778727E+02  0.7816164E-02  0.1312668E+00
        -11   -1    0    0    0    0  0.00000000000E+00  0.00000000000E+00  0.45593999997E+02  0.45594000000E+02  0.51100000000E-03 0.  1.
         11   -1    0    0    0    0 -0.00000000000E+00 -0.00000000000E+00 -0.45593999997E+02  0.45594000000E+02  0.51100000000E-03 0. -1.
    9900012    2    1    2    0    0 -0.26021821908E+02  0.14032388186E+02 -0.31773891523E+02  0.47787270558E+02  0.19999997781E+02 0.  0.
        -12    1    1    2    0    0  0.26021821908E+02 -0.14032388186E+02  0.31773891523E+02  0.43400729442E+02  0.00000000000E+00 0.  1.
         11    1    3    3    0    0 -0.10336320920E+02  0.83518718875E+01 -0.64507440432E+01  0.14771776913E+02  0.51100000000E-03 0. -1.
        -11    1    3    3    0    0 -0.71211648209E+01  0.40453477680E+01 -0.24680981516E+01  0.85537907221E+01  0.51100000000E-03 0.  1.
         12    1    3    3    0    0 -0.85643361667E+01  0.16351685309E+01 -0.22855049328E+02  0.24461702923E+02  0.00000000000E+00 0. -1.
</event>
<event>
 7    1  0.4356471E-010  0.4778727E+02  0.7816164E-02  0.1312668E+00
        -11   -1    0    0    0    0  0.00000000000E+00  0.00000000000E+00  0.45593999997E+02  0.45594000000E+02  0.51100000000E-03 0.  1.
         11   -1    0    0    0    0 -0.00000000000E+00 -0.00000000000E+00 -0.45593999997E+02  0.45594000000E+02  0.51100000000E-03 0. -1.
    9900012    2    1    2    0    0 -0.39457689834E+02  0.15935011172E+02 -0.85316807841E+01  0.47787269072E+02  0.19999991007E+02 0.  0.
        -12    1    1    2    0    0  0.39457689834E+02 -0.15935011172E+02  0.85316807841E+01  0.43400730928E+02  0.00000000000E+00 0.  1.
         11    1    3    3    0    0 -0.29345637440E+02  0.18916936249E+02 -0.57608888546E+01  0.35386505259E+02  0.51100000000E-03 0. -1.
        -11    1    3    3    0    0 -0.14672894993E+00  0.17988105854E+00 -0.18951017050E+01  0.19092661715E+01  0.51100000000E-03 0.  1.
         12    1    3    3    0    0 -0.99653234440E+01 -0.31618061356E+01 -0.87569022448E+00  0.10491497641E+02  0.00000000000E+00 0. -1.
</event>
<event>
 7    1  0.4356471E-010  0.4778729E+02  0.7816164E-02  0.1312668E+00
        -11   -1    0    0    0    0  0.00000000000E+00  0.00000000000E+00  0.45593999997E+02  0.45594000000E+02  0.51100000000E-03 0.  1.
         11   -1    0    0    0    0 -0.00000000000E+00 -0.00000000000E+00 -0.45593999997E+02  0.45594000000E+02  0.51100000000E-03 0. -1.
    9900012    2    1    2    0    0  0.22839663889E+02  0.77390463633E+01 -0.36084323197E+02  0.47787291875E+02  0.20000094974E+02 0.  0.
        -12    1    1    2    0    0 -0.22839663889E+02 -0.77390463633E+01  0.36084323197E+02  0.43400708125E+02  0.00000000000E+00 0.  1.
         11    1    3    3    0    0  0.46629902744E+00 -0.71493167751E+00  0.71393901446E+00  0.11127763764E+01  0.51100000000E-03 0. -1.
        -11    1    3    3    0    0 -0.11525733217E+01 -0.24383816485E+01 -0.24749892301E+01  0.36605603773E+01  0.51100000000E-03 0.  1.
         12    1    3    3    0    0  0.23525938183E+02  0.10892359689E+02 -0.34323272981E+02  0.43013955121E+02  0.00000000000E+00 0. -1.
</event>
<event>
 7    1  0.4356471E-010  0.4778727E+02  0.7816164E-02  0.1312668E+00
        -11   -1    0    0    0    0  0.00000000000E+00  0.00000000000E+00  0.45593999997E+02  0.45594000000E+02  0.51100000000E-03 0.  1.
         11   -1    0    0    0    0 -0.00000000000E+00 -0.00000000000E+00 -0.45593999997E+02  0.45594000000E+02  0.51100000000E-03 0. -1.
    9900012    2    1    2    0    0 -0.23407319613E+02  0.35094162596E+02 -0.10203940986E+02  0.47787271072E+02  0.20000000127E+02 0.  0.
        -12    1    1    2    0    0  0.23407319613E+02 -0.35094162596E+02  0.10203940986E+02  0.43400728928E+02  0.00000000000E+00 0.  1.
         11    1    3    3    0    0  0.12279664148E+00  0.88469148705E+01 -0.12298469882E+01  0.89328330118E+01  0.51100000000E-03 0.  1.
        -11    1    3    3    0    0  0.15618392572E+01  0.21201611056E+01 -0.21098466534E+01  0.33742966884E+01  0.51100000000E-03 0. -1.
         12    1    3    3    0    0 -0.25091955512E+02  0.24127086620E+02 -0.68642473448E+01  0.35480141372E+02  0.00000000000E+00 0. -1.
</event>
<event>
 7    1  0.4356471E-010  0.4778727E+02  0.7816164E-02  0.1312668E+00
        -11   -1    0    0    0    0  0.00000000000E+00  0.00000000000E+00  0.45593999997E+02  0.45594000000E+02  0.51100000000E-03 0. -1.
         11   -1    0    0    0    0 -0.00000000000E+00 -0.00000000000E+00 -0.45593999997E+02  0.45594000000E+02  0.51100000000E-03 0.  1.
    9900012    2    1    2    0    0  0.13024995978E+02 -0.70874502549E+01  0.40788976865E+02  0.47787272990E+02  0.20000008869E+02 0.  0.
        -12    1    1    2    0    0 -0.13024995978E+02  0.70874502549E+01 -0.40788976865E+02  0.43400727010E+02  0.00000000000E+00 0.  1.
         11    1    3    3    0    0  0.69584179165E+01 -0.10386322327E+02  0.18909618529E+02  0.22668677610E+02  0.51100000000E-03 0. -1.
        -11    1    3    3    0    0  0.88731221680E+00 -0.34598574272E+01  0.43341330916E+01  0.56162840298E+01  0.51100000000E-03 0.  1.
        -12    1    3    3    0    0  0.51792658443E+01  0.67587294997E+01  0.17545225244E+02  0.19502311350E+02  0.00000000000E+00 0.  1.
</event>
<event>
 7    1  0.4356471E-010  0.4778727E+02  0.7816164E-02  0.1312668E+00
        -11   -1    0    0    0    0  0.00000000000E+00  0.00000000000E+00  0.45593999997E+02  0.45594000000E+02  0.51100000000E-03 0.  1.
         11   -1    0    0    0    0 -0.00000000000E+00 -0.00000000000E+00 -0.45593999997E+02  0.45594000000E+02  0.51100000000E-03 0. -1.
    9900012    2    1    2    0    0  0.13676100344E+02  0.67898407166E+01 -0.40626168492E+02  0.47787271620E+02  0.20000002622E+02 0.  0.
        -12    1    1    2    0    0 -0.13676100344E+02 -0.67898407166E+01  0.40626168492E+02  0.43400728380E+02  0.00000000000E+00 0.  1.
         11    1    3    3    0    0  0.15173179272E+01 -0.83268892155E+00 -0.13777002652E+02  0.13885295347E+02  0.51100000000E-03 0. -1.
        -11    1    3    3    0    0  0.11326575992E+02 -0.15788489444E+01 -0.14029631283E+02  0.18100128229E+02  0.51100000000E-03 0.  1.
         12    1    3    3    0    0  0.83220642525E+00  0.92013785825E+01 -0.12819534557E+02  0.15801848044E+02  0.00000000000E+00 0. -1.
</event>
<event>
 7    1  0.4356471E-010  0.4778727E+02  0.7816164E-02  0.1312668E+00
        -11   -1    0    0    0    0  0.00000000000E+00  0.00000000000E+00  0.45593999997E+02  0.45594000000E+02  0.51100000000E-03 0.  1.
         11   -1    0    0    0    0 -0.00000000000E+00 -0.00000000000E+00 -0.45593999997E+02  0.45594000000E+02  0.51100000000E-03 0. -1.
    9900012    2    1    2    0    0  0.27173125486E+02  0.28490914170E+02 -0.18262314138E+02  0.47787273548E+02  0.20000011415E+02 0.  0.
        -12    1    1    2    0    0 -0.27173125486E+02 -0.28490914170E+02  0.18262314138E+02  0.43400726452E+02  0.00000000000E+00 0.  1.
         11    1    3    3    0    0  0.27236718486E+01  0.10948778837E+02 -0.10465779425E+02  0.15389174299E+02  0.51100000000E-03 0. -1.
        -11    1    3    3    0    0  0.11292128237E+02  0.12188479485E+02 -0.98499036427E+00  0.16644560630E+02  0.51100000000E-03 0.  1.
        -12    1    3    3    0    0  0.13157325400E+02  0.53536558472E+01 -0.68115443493E+01  0.15753538619E+02  0.00000000000E+00 0.  1.
</event>
<event>
 7    1  0.4356471E-010  0.4778727E+02  0.7816164E-02  0.1312668E+00
        -11   -1    0    0    0    0  0.00000000000E+00  0.00000000000E+00  0.45593999997E+02  0.45594000000E+02  0.51100000000E-03 0. -1.
         11   -1    0    0    0    0 -0.00000000000E+00 -0.00000000000E+00 -0.45593999997E+02  0.45594000000E+02  0.51100000000E-03 0.  1.
    9900012    2    1    2    0    0  0.12140904916E+02 -0.28954455215E+02  0.29964334081E+02  0.47787269984E+02  0.19999995166E+02 0.  0.
        -12    1    1    2    0    0 -0.12140904916E+02  0.28954455215E+02 -0.29964334081E+02  0.43400730016E+02  0.00000000000E+00 0.  1.
         11    1    3    3    0    0  0.24111697976E+01 -0.13442026311E+01  0.23514613131E+01  0.36262916422E+01  0.51100000000E-03 0. -1.
        -11    1    3    3    0    0  0.59576390044E+00 -0.50321727323E+01 -0.23183022297E+01  0.55724521103E+01  0.51100000000E-03 0.  1.
         12    1    3    3    0    0  0.91339712178E+01 -0.22578079852E+02  0.29931174998E+02  0.38588526232E+02  0.00000000000E+00 0. -1.
</event>
<event>
 7    1  0.4356471E-010  0.4778728E+02  0.7816164E-02  0.1312668E+00
        -11   -1    0    0    0    0  0.00000000000E+00  0.00000000000E+00  0.45593999997E+02  0.45594000000E+02  0.51100000000E-03 0.  1.
         11   -1    0    0    0    0 -0.00000000000E+00 -0.00000000000E+00 -0.45593999997E+02  0.45594000000E+02  0.51100000000E-03 0. -1.
    9900012    2    1    2    0    0  0.38522012261E+01  0.17583998024E+02 -0.39491599846E+02  0.47787275361E+02  0.20000019679E+02 0.  0.
        -12    1    1    2    0    0 -0.38522012261E+01 -0.17583998024E+02  0.39491599846E+02  0.43400724639E+02  0.00000000000E+00 0.  1.
         11    1    3    3    0    0  0.42524096757E+01  0.88937036028E+01 -0.75018031871E+01  0.12387816722E+02  0.51100000000E-03 0. -1.
        -11    1    3    3    0    0 -0.15301010612E+01 -0.12522147716E+01 -0.10347477350E+00  0.19798884771E+01  0.51100000000E-03 0.  1.
         12    1    3    3    0    0  0.11298926115E+01  0.99425091930E+01 -0.31886321886E+02  0.33419570161E+02  0.00000000000E+00 0. -1.
</event>
<event>
 7    1  0.4356471E-010  0.4778723E+02  0.7816164E-02  0.1312668E+00
        -11   -1    0    0    0    0  0.00000000000E+00  0.00000000000E+00  0.45593999997E+02  0.45594000000E+02  0.51100000000E-03 0.  1.
         11   -1    0    0    0    0 -0.00000000000E+00 -0.00000000000E+00 -0.45593999997E+02  0.45594000000E+02  0.51100000000E-03 0. -1.
    9900012    2    1    2    0    0  0.23159833341E+01  0.18291217495E+02 -0.39289878031E+02  0.47787228901E+02  0.19999807850E+02 0.  0.
        -12    1    1    2    0    0 -0.23159833341E+01 -0.18291217495E+02  0.39289878031E+02  0.43400771099E+02  0.00000000000E+00 0.  1.
         11    1    3    3    0    0  0.43633419395E+01  0.37930924579E+01 -0.59527377360E+01  0.82982763325E+01  0.51100000000E-03 0. -1.
        -11    1    3    3    0    0 -0.51886721552E+01  0.44159940553E+01 -0.31469013622E+01  0.75050856541E+01  0.51100000000E-03 0.  1.
        -12    1    3    3    0    0  0.31413135498E+01  0.10082130982E+02 -0.30190238933E+02  0.31983866914E+02  0.00000000000E+00 0.  1.
</event>
<event>
 7    1  0.4356471E-010  0.4778727E+02  0.7816164E-02  0.1312668E+00
        -11   -1    0    0    0    0  0.00000000000E+00  0.00000000000E+00  0.45593999997E+02  0.45594000000E+02  0.51100000000E-03 0.  1.
         11   -1    0    0    0    0 -0.00000000000E+00 -0.00000000000E+00 -0.45593999997E+02  0.45594000000E+02  0.51100000000E-03 0. -1.
    9900012    2    1    2    0    0 -0.14924788208E+02  0.12902431931E+02 -0.38657484130E+02  0.47787272678E+02  0.20000007450E+02 0.  0.
        -12    1    1    2    0    0  0.14924788208E+02 -0.12902431931E+02  0.38657484130E+02  0.43400727322E+02  0.00000000000E+00 0.  1.
         11    1    3    3    0    0  0.32045336534E+00  0.56233797105E+01 -0.48211497048E+01  0.74140794753E+01  0.51100000000E-03 0. -1.
        -11    1    3    3    0    0  0.24711968795E+01  0.24095279630E+01 -0.35638143606E+01  0.49611905909E+01  0.51100000000E-03 0.  1.
         12    1    3    3    0    0 -0.17716438453E+02  0.48695242578E+01 -0.30272520064E+02  0.35412002612E+02  0.00000000000E+00 0. -1.
</event>
<event>
 7    1  0.4356471E-010  0.4778728E+02  0.7816164E-02  0.1312668E+00
        -11   -1    0    0    0    0  0.00000000000E+00  0.00000000000E+00  0.45593999997E+02  0.45594000000E+02  0.51100000000E-03 0.  1.
         11   -1    0    0    0    0 -0.00000000000E+00 -0.00000000000E+00 -0.45593999997E+02  0.45594000000E+02  0.51100000000E-03 0. -1.
    9900012    2    1    2    0    0  0.25302837721E+02 -0.11318047371E+00 -0.35261540148E+02  0.47787278575E+02  0.20000034337E+02 0.  0.
        -12    1    1    2    0    0 -0.25302837721E+02  0.11318047371E+00  0.35261540148E+02  0.43400721425E+02  0.00000000000E+00 0.  1.
         11    1    3    3    0    0  0.11704152353E+02  0.17687932367E+00 -0.43394078992E+01  0.12483946883E+02  0.51100000000E-03 0. -1.
        -11    1    3    3    0    0  0.81945030277E+01  0.17459238241E+01 -0.77183696382E+01  0.11391723311E+02  0.51100000000E-03 0.  1.
        -12    1    3    3    0    0  0.54041823401E+01 -0.20359836215E+01 -0.23203762611E+02  0.23911608381E+02  0.00000000000E+00 0.  1.
</event>
<event>
 7    1  0.4356471E-010  0.4778727E+02  0.7816164E-02  0.1312668E+00
        -11   -1    0    0    0    0  0.00000000000E+00  0.00000000000E+00  0.45593999997E+02  0.45594000000E+02  0.51100000000E-03 0.  1.
         11   -1    0    0    0    0 -0.00000000000E+00 -0.00000000000E+00 -0.45593999997E+02  0.45594000000E+02  0.51100000000E-03 0. -1.
    9900012    2    1    2    0    0  0.22553366990E+02  0.18875677412E+01 -0.37032498438E+02  0.47787271721E+02  0.20000003086E+02 0.  0.
        -12    1    1    2    0    0 -0.22553366990E+02 -0.18875677412E+01  0.37032498438E+02  0.43400728279E+02  0.00000000000E+00 0.  1.
         11    1    3    3    0    0  0.13606664821E+02 -0.25078186633E+01 -0.17330070508E+02  0.22175703508E+02  0.51100000000E-03 0. -1.
        -11    1    3    3    0    0  0.10356002883E+02  0.80808527715E+00 -0.19056403403E+02  0.21703601278E+02  0.51100000000E-03 0.  1.
        -12    1    3    3    0    0 -0.14093007132E+01  0.35873011273E+01 -0.64602452696E+00  0.39079669353E+01  0.00000000000E+00 0.  1.
</event>
<event>
 7    1  0.4356471E-010  0.4778727E+02  0.7816164E-02  0.1312668E+00
        -11   -1    0    0    0    0  0.00000000000E+00  0.00000000000E+00  0.45593999997E+02  0.45594000000E+02  0.51100000000E-03 0.  1.
         11   -1    0    0    0    0 -0.00000000000E+00 -0.00000000000E+00 -0.45593999997E+02  0.45594000000E+02  0.51100000000E-03 0. -1.
    9900012    2    1    2    0    0 -0.31994722465E+02 -0.26266631341E+01 -0.29207215750E+02  0.47787273316E+02  0.20000010358E+02 0.  0.
        -12    1    1    2    0    0  0.31994722465E+02  0.26266631341E+01  0.29207215750E+02  0.43400726684E+02  0.00000000000E+00 0.  1.
         11    1    3    3    0    0 -0.25829150562E+02  0.20530068391E+01 -0.22699682652E+02  0.34447575366E+02  0.51100000000E-03 0. -1.
        -11    1    3    3    0    0 -0.49614466200E+01  0.16221274634E+01 -0.26586883726E+01  0.58579752641E+01  0.51100000000E-03 0.  1.
        -12    1    3    3    0    0 -0.12041252826E+01 -0.63017974366E+01 -0.38488447256E+01  0.74817226860E+01  0.00000000000E+00 0.  1.
</event>
<event>
 7    1  0.4356471E-010  0.4778727E+02  0.7816164E-02  0.1312668E+00
        -11   -1    0    0    0    0  0.00000000000E+00  0.00000000000E+00  0.45593999997E+02  0.45594000000E+02  0.51100000000E-03 0.  1.
         11   -1    0    0    0    0 -0.00000000000E+00 -0.00000000000E+00 -0.45593999997E+02  0.45594000000E+02  0.51100000000E-03 0. -1.
    9900012    2    1    2    0    0  0.11786091345E+02 -0.36938449631E+02 -0.19500314767E+02  0.47787270901E+02  0.19999999344E+02 0.  0.
        -12    1    1    2    0    0 -0.11786091345E+02  0.36938449631E+02  0.19500314767E+02  0.43400729099E+02  0.00000000000E+00 0.  1.
         11    1    3    3    0    0  0.87492010939E+01 -0.11029704575E+02 -0.11908268989E+02  0.18439353930E+02  0.51100000000E-03 0.  1.
        -11    1    3    3    0    0 -0.53016332050E+00  0.70408243754E+00 -0.16150681365E+01  0.18399050443E+01  0.51100000000E-03 0. -1.
         12    1    3    3    0    0  0.35670535720E+01 -0.26612827494E+02 -0.59769776417E+01  0.27508011926E+02  0.00000000000E+00 0. -1.
</event>
<event>
 7    1  0.4356471E-010  0.4778727E+02  0.7816164E-02  0.1312668E+00
        -11   -1    0    0    0    0  0.00000000000E+00  0.00000000000E+00  0.45593999997E+02  0.45594000000E+02  0.51100000000E-03 0.  1.
         11   -1    0    0    0    0 -0.00000000000E+00 -0.00000000000E+00 -0.45593999997E+02  0.45594000000E+02  0.51100000000E-03 0. -1.
    9900012    2    1    2    0    0 -0.41144161734E+02 -0.10236761628E+02 -0.92730641634E+01  0.47787273596E+02  0.20000011633E+02 0.  0.
        -12    1    1    2    0    0  0.41144161734E+02  0.10236761628E+02  0.92730641634E+01  0.43400726404E+02  0.00000000000E+00 0.  1.
         11    1    3    3    0    0 -0.14585123574E+02 -0.12089052301E+01  0.51695625335E+01  0.15521329150E+02  0.51100000000E-03 0.  1.
        -11    1    3    3    0    0 -0.92953921576E+01  0.15980650100E+00 -0.46927582572E+01  0.10414021020E+02  0.51100000000E-03 0. -1.
        -12    1    3    3    0    0 -0.17263646003E+02 -0.91876628986E+01 -0.97498684397E+01  0.21851923426E+02  0.00000000000E+00 0.  1.
</event>
<event>
 7    1  0.4356471E-010  0.4778727E+02  0.7816164E-02  0.1312668E+00
        -11   -1    0    0    0    0  0.00000000000E+00  0.00000000000E+00  0.45593999997E+02  0.45594000000E+02  0.51100000000E-03 0. -1.
         11   -1    0    0    0    0 -0.00000000000E+00 -0.00000000000E+00 -0.45593999997E+02  0.45594000000E+02  0.51100000000E-03 0.  1.
    9900012    2    1    2    0    0  0.96675660896E+01  0.39557691926E+02  0.15011694248E+02  0.47787265112E+02  0.19999972952E+02 0.  0.
        -12    1    1    2    0    0 -0.96675660896E+01 -0.39557691926E+02 -0.15011694248E+02  0.43400734888E+02  0.00000000000E+00 0.  1.
         11    1    3    3    0    0  0.71573917018E+01  0.17715307680E+02 -0.88957760802E+00  0.19127250998E+02  0.51100000000E-03 0. -1.
        -11    1    3    3    0    0 -0.18554959901E+01  0.16233336809E+02  0.13379566601E+02  0.21118164977E+02  0.51100000000E-03 0.  1.
        -12    1    3    3    0    0  0.43656703779E+01  0.56090474376E+01  0.25217052552E+01  0.75418491366E+01  0.00000000000E+00 0.  1.
</event>
<event>
 7    1  0.4356471E-010  0.4778727E+02  0.7816164E-02  0.1312668E+00
        -11   -1    0    0    0    0  0.00000000000E+00  0.00000000000E+00  0.45593999997E+02  0.45594000000E+02  0.51100000000E-03 0.  1.
         11   -1    0    0    0    0 -0.00000000000E+00 -0.00000000000E+00 -0.45593999997E+02  0.45594000000E+02  0.51100000000E-03 0. -1.
    9900012    2    1    2    0    0 -0.11523682437E+02 -0.14700308959E+02 -0.39175618202E+02  0.47787269569E+02  0.19999993273E+02 0.  0.
        -12    1    1    2    0    0  0.11523682437E+02  0.14700308959E+02  0.39175618202E+02  0.43400730431E+02  0.00000000000E+00 0.  1.
         11    1    3    3    0    0 -0.27576546248E+01 -0.68147340265E+01 -0.62933164900E+01  0.96773494091E+01  0.51100000000E-03 0. -1.
        -11    1    3    3    0    0  0.27175730112E+00 -0.18706008090E+01  0.12675847061E+01  0.22759109529E+01  0.51100000000E-03 0.  1.
        -12    1    3    3    0    0 -0.90377851131E+01 -0.60149741240E+01 -0.34149886418E+02  0.35834009207E+02  0.00000000000E+00 0.  1.
</event>
<event>
 7    1  0.4356471E-010  0.4778727E+02  0.7816164E-02  0.1312668E+00
        -11   -1    0    0    0    0  0.00000000000E+00  0.00000000000E+00  0.45593999997E+02  0.45594000000E+02  0.51100000000E-03 0.  1.
         11   -1    0    0    0    0 -0.00000000000E+00 -0.00000000000E+00 -0.45593999997E+02  0.45594000000E+02  0.51100000000E-03 0. -1.
    9900012    2    1    2    0    0 -0.26198694316E+02  0.15594059439E+02 -0.30888132075E+02  0.47787274468E+02  0.20000015610E+02 0.  0.
        -12    1    1    2    0    0  0.26198694316E+02 -0.15594059439E+02  0.30888132075E+02  0.43400725532E+02  0.00000000000E+00 0.  1.
         11    1    3    3    0    0 -0.76856622976E+01  0.21802131892E+01 -0.16141394841E+02  0.18010201614E+02  0.51100000000E-03 0. -1.
        -11    1    3    3    0    0 -0.26334515958E+01 -0.23016221258E+01 -0.15161089420E+01  0.38119703964E+01  0.51100000000E-03 0.  1.
        -12    1    3    3    0    0 -0.15879580422E+02  0.15715468375E+02 -0.13230628292E+02  0.25965102458E+02  0.00000000000E+00 0.  1.
</event>
<event>
 7    1  0.4640992E-010  0.4778727E+02  0.7816164E-02  0.1312668E+00
        -11   -1    0    0    0    0  0.00000000000E+00  0.00000000000E+00  0.45593999997E+02  0.45594000000E+02  0.51100000000E-03 0. -1.
         11   -1    0    0    0    0 -0.00000000000E+00 -0.00000000000E+00 -0.45593999997E+02  0.45594000000E+02  0.51100000000E-03 0.  1.
    9900012    2    1    2    0    0 -0.29998765388E+02 -0.26136033923E+02  0.17337968930E+02  0.47787270045E+02  0.19999995441E+02 0.  0.
        -12    1    1    2    0    0  0.29998765388E+02  0.26136033923E+02 -0.17337968930E+02  0.43400729955E+02  0.00000000000E+00 0.  1.
         11    1    3    3    0    0 -0.78708357951E+01 -0.67455102098E+01  0.71846186477E+00  0.10390772436E+02  0.51100000000E-03 0. -1.
        -11    1    3    3    0    0  0.15008076233E+01  0.13467434868E+01  0.14906229900E+01  0.25076081633E+01  0.51100000000E-03 0.  1.
        -12    1    3    3    0    0 -0.23628737216E+02 -0.20737267200E+02  0.15128884075E+02  0.34888889445E+02  0.00000000000E+00 0.  1.
</event>
<event>
 7    1  0.4356471E-010  0.4778727E+02  0.7816164E-02  0.1312668E+00
        -11   -1    0    0    0    0  0.00000000000E+00  0.00000000000E+00  0.45593999997E+02  0.45594000000E+02  0.51100000000E-03 0. -1.
         11   -1    0    0    0    0 -0.00000000000E+00 -0.00000000000E+00 -0.45593999997E+02  0.45594000000E+02  0.51100000000E-03 0.  1.
    9900012    2    1    2    0    0 -0.40213562336E+02 -0.11742417427E+02  0.11340555474E+02  0.47787272342E+02  0.20000005915E+02 0.  0.
        -12    1    1    2    0    0  0.40213562336E+02  0.11742417427E+02 -0.11340555474E+02  0.43400727658E+02  0.00000000000E+00 0.  1.
         11    1    3    3    0    0 -0.10158261730E+02 -0.44170183437E+01  0.78739329322E+01  0.13590406635E+02  0.51100000000E-03 0. -1.
        -11    1    3    3    0    0 -0.11975522626E+01 -0.48679358770E+01 -0.11262142923E+00  0.50143409309E+01  0.51100000000E-03 0.  1.
        -12    1    3    3    0    0 -0.28857748344E+02 -0.24574632066E+01  0.35792439715E+01  0.29182524776E+02  0.00000000000E+00 0.  1.
</event>
<event>
 7    1  0.4356471E-010  0.4778726E+02  0.7816164E-02  0.1312668E+00
        -11   -1    0    0    0    0  0.00000000000E+00  0.00000000000E+00  0.45593999997E+02  0.45594000000E+02  0.51100000000E-03 0. -1.
         11   -1    0    0    0    0 -0.00000000000E+00 -0.00000000000E+00 -0.45593999997E+02  0.45594000000E+02  0.51100000000E-03 0.  1.
    9900012    2    1    2    0    0  0.14607011640E+02 -0.40445996860E+02  0.58635205167E+01  0.47787258947E+02  0.19999944843E+02 0.  0.
        -12    1    1    2    0    0 -0.14607011640E+02  0.40445996860E+02 -0.58635205167E+01  0.43400741053E+02  0.00000000000E+00 0.  1.
         11    1    3    3    0    0  0.72171464047E+01 -0.17684961734E+02  0.49456546109E+01  0.19730802659E+02  0.51100000000E-03 0. -1.
        -11    1    3    3    0    0 -0.56159536614E+00  0.18509088969E+01  0.10306518505E+01  0.21916880704E+01  0.51100000000E-03 0.  1.
        -12    1    3    3    0    0  0.79514606017E+01 -0.24611944023E+02 -0.11278594473E+00  0.25864768218E+02  0.00000000000E+00 0.  1.
</event>
<event>
 7    1  0.4356471E-010  0.4778726E+02  0.7816164E-02  0.1312668E+00
        -11   -1    0    0    0    0  0.00000000000E+00  0.00000000000E+00  0.45593999997E+02  0.45594000000E+02  0.51100000000E-03 0.  1.
         11   -1    0    0    0    0 -0.00000000000E+00 -0.00000000000E+00 -0.45593999997E+02  0.45594000000E+02  0.51100000000E-03 0. -1.
    9900012    2    1    2    0    0 -0.42112460145E+02  0.14572009876E+01  0.10394287135E+02  0.47787263379E+02  0.19999965052E+02 0.  0.
        -12    1    1    2    0    0  0.42112460145E+02 -0.14572009876E+01 -0.10394287135E+02  0.43400736621E+02  0.00000000000E+00 0.  1.
         11    1    3    3    0    0 -0.22562122087E+02  0.82681317625E+00  0.10127754090E+02  0.24744784830E+02  0.51100000000E-03 0. -1.
        -11    1    3    3    0    0 -0.19533849726E+02  0.14467399431E+01  0.33332322316E+01  0.19868940056E+02  0.51100000000E-03 0.  1.
        -12    1    3    3    0    0 -0.16488331718E-01 -0.81635213175E+00 -0.30666991869E+01  0.31735384937E+01  0.00000000000E+00 0.  1.
</event>
<event>
 7    1  0.4356471E-010  0.4778727E+02  0.7816164E-02  0.1312668E+00
        -11   -1    0    0    0    0  0.00000000000E+00  0.00000000000E+00  0.45593999997E+02  0.45594000000E+02  0.51100000000E-03 0.  1.
         11   -1    0    0    0    0 -0.00000000000E+00 -0.00000000000E+00 -0.45593999997E+02  0.45594000000E+02  0.51100000000E-03 0. -1.
    9900012    2    1    2    0    0  0.14542767448E+01 -0.46577918299E+01 -0.43125550512E+02  0.47787273594E+02  0.20000011624E+02 0.  0.
        -12    1    1    2    0    0 -0.14542767448E+01  0.46577918299E+01  0.43125550512E+02  0.43400726406E+02  0.00000000000E+00 0.  1.
         11    1    3    3    0    0  0.27702086153E+01  0.52389359642E+01 -0.10385615719E+02  0.11957488028E+02  0.51100000000E-03 0. -1.
        -11    1    3    3    0    0 -0.28001299345E+01 -0.50822963061E+00 -0.15857304661E+01  0.32578468932E+01  0.51100000000E-03 0.  1.
         12    1    3    3    0    0  0.14841980640E+01 -0.93884981634E+01 -0.31154204327E+02  0.32571938673E+02  0.00000000000E+00 0. -1.
</event>
<event>
 7    1  0.4356471E-010  0.4778727E+02  0.7816164E-02  0.1312668E+00
        -11   -1    0    0    0    0  0.00000000000E+00  0.00000000000E+00  0.45593999997E+02  0.45594000000E+02  0.51100000000E-03 0.  1.
         11   -1    0    0    0    0 -0.00000000000E+00 -0.00000000000E+00 -0.45593999997E+02  0.45594000000E+02  0.51100000000E-03 0. -1.
    9900012    2    1    2    0    0  0.23402589330E+02 -0.16606756601E+02 -0.32560058954E+02  0.47787274300E+02  0.20000014845E+02 0.  0.
        -12    1    1    2    0    0 -0.23402589330E+02  0.16606756601E+02  0.32560058954E+02  0.43400725700E+02  0.00000000000E+00 0.  1.
         11    1    3    3    0    0  0.16983059894E+02 -0.87122582799E+01 -0.26383521212E+02  0.32564059322E+02  0.51100000000E-03 0. -1.
        -11    1    3    3    0    0  0.50381099834E+00  0.19400412209E+01 -0.24310898521E+01  0.31508385537E+01  0.51100000000E-03 0.  1.
        -12    1    3    3    0    0  0.59157184383E+01 -0.98345395425E+01 -0.37454478895E+01  0.12072376425E+02  0.00000000000E+00 0.  1.
</event>
<event>
 7    1  0.4356471E-010  0.4778727E+02  0.7816164E-02  0.1312668E+00
        -11   -1    0    0    0    0  0.00000000000E+00  0.00000000000E+00  0.45593999997E+02  0.45594000000E+02  0.51100000000E-03 0. -1.
         11   -1    0    0    0    0 -0.00000000000E+00 -0.00000000000E+00 -0.45593999997E+02  0.45594000000E+02  0.51100000000E-03 0.  1.
    9900012    2    1    2    0    0  0.40158622789E+02 -0.10430800089E+02  0.12732124904E+02  0.47787267525E+02  0.19999983952E+02 0.  0.
        -12    1    1    2    0    0 -0.40158622789E+02  0.10430800089E+02 -0.12732124904E+02  0.43400732475E+02  0.00000000000E+00 0.  1.
         11    1    3    3    0    0  0.14803234304E+02 -0.59271815439E+01 -0.37899701995E+00  0.15950262252E+02  0.51100000000E-03 0. -1.
        -11    1    3    3    0    0  0.25234790259E+01  0.28837781279E+01 -0.10495914643E+01  0.39731304016E+01  0.51100000000E-03 0.  1.
        -12    1    3    3    0    0  0.22831909459E+02 -0.73873966732E+01  0.14160713388E+02  0.27863874871E+02  0.00000000000E+00 0.  1.
</event>
<event>
 7    1  0.4356471E-010  0.4778727E+02  0.7816164E-02  0.1312668E+00
        -11   -1    0    0    0    0  0.00000000000E+00  0.00000000000E+00  0.45593999997E+02  0.45594000000E+02  0.51100000000E-03 0.  1.
         11   -1    0    0    0    0 -0.00000000000E+00 -0.00000000000E+00 -0.45593999997E+02  0.45594000000E+02  0.51100000000E-03 0. -1.
    9900012    2    1    2    0    0  0.11345277192E+02  0.68982787282E+01 -0.41319747138E+02  0.47787273422E+02  0.20000010839E+02 0.  0.
        -12    1    1    2    0    0 -0.11345277192E+02 -0.68982787282E+01  0.41319747138E+02  0.43400726578E+02  0.00000000000E+00 0.  1.
         11    1    3    3    0    0  0.30123249357E+01  0.94633698991E+01 -0.12963590014E+02  0.16330466548E+02  0.51100000000E-03 0. -1.
        -11    1    3    3    0    0 -0.91164882955E+00 -0.19025159013E+01 -0.59884833281E+00  0.21930093319E+01  0.51100000000E-03 0.  1.
         12    1    3    3    0    0  0.92446010862E+01 -0.66257526961E+00 -0.27757308792E+02  0.29263797542E+02  0.00000000000E+00 0. -1.
</event>
<event>
 7    1  0.4356471E-010  0.4778726E+02  0.7816164E-02  0.1312668E+00
        -11   -1    0    0    0    0  0.00000000000E+00  0.00000000000E+00  0.45593999997E+02  0.45594000000E+02  0.51100000000E-03 0.  1.
         11   -1    0    0    0    0 -0.00000000000E+00 -0.00000000000E+00 -0.45593999997E+02  0.45594000000E+02  0.51100000000E-03 0. -1.
    9900012    2    1    2    0    0  0.41391901413E+01 -0.71745311671E+01 -0.42603023875E+02  0.47787257658E+02  0.19999938967E+02 0.  0.
        -12    1    1    2    0    0 -0.41391901413E+01  0.71745311671E+01  0.42603023875E+02  0.43400742342E+02  0.00000000000E+00 0.  1.
         11    1    3    3    0    0  0.13512450743E+01 -0.10464012724E+00 -0.15899165270E+02  0.15956825166E+02  0.51100000000E-03 0. -1.
        -11    1    3    3    0    0 -0.49886838651E+01  0.18930228254E+01 -0.10090716237E+02  0.11414598396E+02  0.51100000000E-03 0.  1.
         12    1    3    3    0    0  0.77766289321E+01 -0.89629138653E+01 -0.16613142368E+02  0.20415834096E+02  0.00000000000E+00 0. -1.
</event>
<event>
 7    1  0.4356471E-010  0.4778727E+02  0.7816164E-02  0.1312668E+00
        -11   -1    0    0    0    0  0.00000000000E+00  0.00000000000E+00  0.45593999997E+02  0.45594000000E+02  0.51100000000E-03 0.  1.
         11   -1    0    0    0    0 -0.00000000000E+00 -0.00000000000E+00 -0.45593999997E+02  0.45594000000E+02  0.51100000000E-03 0. -1.
    9900012    2    1    2    0    0  0.42282035291E+02 -0.92100315991E+01 -0.33208525027E+01  0.47787271299E+02  0.20000001162E+02 0.  0.
        -12    1    1    2    0    0 -0.42282035291E+02  0.92100315991E+01  0.33208525027E+01  0.43400728701E+02  0.00000000000E+00 0.  1.
         11    1    3    3    0    0  0.29082001038E+02 -0.19449938614E+01  0.34283768483E+01  0.29347905437E+02  0.51100000000E-03 0. -1.
        -11    1    3    3    0    0  0.24535199324E+01 -0.88200649766E+00  0.19114504653E+01  0.32328530222E+01  0.51100000000E-03 0.  1.
        -12    1    3    3    0    0  0.10746514321E+02 -0.63830312401E+01 -0.86606798163E+01  0.15206512840E+02  0.00000000000E+00 0.  1.
</event>
<event>
 7    1  0.4356471E-010  0.4778728E+02  0.7816164E-02  0.1312668E+00
        -11   -1    0    0    0    0  0.00000000000E+00  0.00000000000E+00  0.45593999997E+02  0.45594000000E+02  0.51100000000E-03 0. -1.
         11   -1    0    0    0    0 -0.00000000000E+00 -0.00000000000E+00 -0.45593999997E+02  0.45594000000E+02  0.51100000000E-03 0.  1.
    9900012    2    1    2    0    0  0.17723016140E+02 -0.39601627258E+02  0.11084322858E+01  0.47787276450E+02  0.20000024645E+02 0.  0.
        -12    1    1    2    0    0 -0.17723016140E+02  0.39601627258E+02 -0.11084322858E+01  0.43400723550E+02  0.00000000000E+00 0.  1.
         11    1    3    3    0    0  0.46405546072E+01 -0.76425198554E+01 -0.16506099191E+01  0.90921598187E+01  0.51100000000E-03 0. -1.
        -11    1    3    3    0    0  0.10762530648E+02 -0.17030461119E+02 -0.62644459598E+01  0.21097676538E+02  0.51100000000E-03 0.  1.
         12    1    3    3    0    0  0.23199308856E+01 -0.14928646283E+02  0.90234881647E+01  0.17597440093E+02  0.00000000000E+00 0. -1.
</event>
<event>
 7    1  0.4356471E-010  0.4778725E+02  0.7816164E-02  0.1312668E+00
        -11   -1    0    0    0    0  0.00000000000E+00  0.00000000000E+00  0.45593999997E+02  0.45594000000E+02  0.51100000000E-03 0.  1.
         11   -1    0    0    0    0 -0.00000000000E+00 -0.00000000000E+00 -0.45593999997E+02  0.45594000000E+02  0.51100000000E-03 0. -1.
    9900012    2    1    2    0    0 -0.63913597579E+01  0.16449154492E+02 -0.39650984266E+02  0.47787254427E+02  0.19999924234E+02 0.  0.
        -12    1    1    2    0    0  0.63913597579E+01 -0.16449154492E+02  0.39650984266E+02  0.43400745573E+02  0.00000000000E+00 0.  1.
         11    1    3    3    0    0  0.97263190470E+00  0.22799992478E+01  0.52744566800E+00  0.25342866029E+01  0.51100000000E-03 0.  1.
        -11    1    3    3    0    0 -0.76413130740E+01  0.29756356419E+01 -0.92571804443E+01  0.12366869572E+02  0.51100000000E-03 0. -1.
         12    1    3    3    0    0  0.27732141146E+00  0.11193519602E+02 -0.30921249490E+02  0.32886098252E+02  0.00000000000E+00 0. -1.
</event>
<event>
 7    1  0.4356471E-010  0.4778726E+02  0.7816164E-02  0.1312668E+00
        -11   -1    0    0    0    0  0.00000000000E+00  0.00000000000E+00  0.45593999997E+02  0.45594000000E+02  0.51100000000E-03 0. -1.
         11   -1    0    0    0    0 -0.00000000000E+00 -0.00000000000E+00 -0.45593999997E+02  0.45594000000E+02  0.51100000000E-03 0.  1.
    9900012    2    1    2    0    0  0.39623451417E+02 -0.16127821408E+02  0.73143278430E+01  0.47787263631E+02  0.19999966198E+02 0.  0.
        -12    1    1    2    0    0 -0.39623451417E+02  0.16127821408E+02 -0.73143278430E+01  0.43400736369E+02  0.00000000000E+00 0.  1.
         11    1    3    3    0    0  0.97795667341E+01  0.21931988847E+01  0.31412342562E+01  0.10503209022E+02  0.51100000000E-03 0. -1.
        -11    1    3    3    0    0  0.14593515955E+02 -0.96051056639E+01  0.81436110972E+01  0.19275558739E+02  0.51100000000E-03 0.  1.
        -12    1    3    3    0    0  0.15250368728E+02 -0.87159146292E+01 -0.39705175105E+01  0.18008495869E+02  0.00000000000E+00 0.  1.
</event>
<event>
 7    1  0.4356471E-010  0.4778725E+02  0.7816164E-02  0.1312668E+00
        -11   -1    0    0    0    0  0.00000000000E+00  0.00000000000E+00  0.45593999997E+02  0.45594000000E+02  0.51100000000E-03 0. -1.
         11   -1    0    0    0    0 -0.00000000000E+00 -0.00000000000E+00 -0.45593999997E+02  0.45594000000E+02  0.51100000000E-03 0.  1.
    9900012    2    1    2    0    0 -0.35606505025E+02 -0.16552371069E+02  0.18488399727E+02  0.47787249862E+02  0.19999903422E+02 0.  0.
        -12    1    1    2    0    0  0.35606505025E+02  0.16552371069E+02 -0.18488399727E+02  0.43400750138E+02  0.00000000000E+00 0.  1.
         11    1    3    3    0    0 -0.70245723876E+01  0.22307964147E+01  0.17414856852E+01  0.75732319736E+01  0.51100000000E-03 0. -1.
        -11    1    3    3    0    0 -0.42491780614E+01 -0.55006597966E+01 -0.13870250556E+01  0.70877790006E+01  0.51100000000E-03 0.  1.
         12    1    3    3    0    0 -0.24332754576E+02 -0.13282507687E+02  0.18133939097E+02  0.33126238888E+02  0.00000000000E+00 0. -1.
</event>
<event>
 7    1  0.4356471E-010  0.4778727E+02  0.7816164E-02  0.1312668E+00
        -11   -1    0    0    0    0  0.00000000000E+00  0.00000000000E+00  0.45593999997E+02  0.45594000000E+02  0.51100000000E-03 0.  1.
         11   -1    0    0    0    0 -0.00000000000E+00 -0.00000000000E+00 -0.45593999997E+02  0.45594000000E+02  0.51100000000E-03 0. -1.
    9900012    2    1    2    0    0 -0.19607141712E+02 -0.19465977028E+01 -0.38670326634E+02  0.47787269468E+02  0.19999992811E+02 0.  0.
        -12    1    1    2    0    0  0.19607141712E+02  0.19465977028E+01  0.38670326634E+02  0.43400730532E+02  0.00000000000E+00 0.  1.
         11    1    3    3    0    0 -0.16850639749E+02 -0.69236176778E+01 -0.16470785158E+02  0.24559464686E+02  0.51100000000E-03 0.  1.
        -11    1    3    3    0    0 -0.25464996368E+01  0.84521053066E+00 -0.80090774127E+01  0.84465592110E+01  0.51100000000E-03 0. -1.
        -12    1    3    3    0    0 -0.21000232564E+00  0.41318094443E+01 -0.14190464064E+02  0.14781245570E+02  0.00000000000E+00 0.  1.
</event>
<event>
 7    1  0.4356471E-010  0.4778727E+02  0.7816164E-02  0.1312668E+00
        -11   -1    0    0    0    0  0.00000000000E+00  0.00000000000E+00  0.45593999997E+02  0.45594000000E+02  0.51100000000E-03 0. -1.
         11   -1    0    0    0    0 -0.00000000000E+00 -0.00000000000E+00 -0.45593999997E+02  0.45594000000E+02  0.51100000000E-03 0.  1.
    9900012    2    1    2    0    0 -0.18263176105E+02  0.66518372313E+00  0.39365427309E+02  0.47787274913E+02  0.20000017638E+02 0.  0.
        -12    1    1    2    0    0  0.18263176105E+02 -0.66518372313E+00 -0.39365427309E+02  0.43400725087E+02  0.00000000000E+00 0.  1.
         11    1    3    3    0    0  0.21664258235E+00 -0.21117583969E+01 -0.17004236519E+00  0.21296413319E+01  0.51100000000E-03 0. -1.
        -11    1    3    3    0    0 -0.58435360713E+00  0.19678763182E+01 -0.20821448047E+00  0.20633370720E+01  0.51100000000E-03 0.  1.
        -12    1    3    3    0    0 -0.17895465080E+02  0.80906580184E+00  0.39743684155E+02  0.43594296509E+02  0.00000000000E+00 0.  1.
</event>
<event>
 7    1  0.4356471E-010  0.4778727E+02  0.7816164E-02  0.1312668E+00
        -11   -1    0    0    0    0  0.00000000000E+00  0.00000000000E+00  0.45593999997E+02  0.45594000000E+02  0.51100000000E-03 0.  1.
         11   -1    0    0    0    0 -0.00000000000E+00 -0.00000000000E+00 -0.45593999997E+02  0.45594000000E+02  0.51100000000E-03 0. -1.
    9900012    2    1    2    0    0 -0.23569523240E+02 -0.26255171636E+01 -0.36348418493E+02  0.47787270823E+02  0.19999998991E+02 0.  0.
        -12    1    1    2    0    0  0.23569523240E+02  0.26255171636E+01  0.36348418493E+02  0.43400729177E+02  0.00000000000E+00 0.  1.
         11    1    3    3    0    0 -0.22802256563E+02 -0.69241938424E+01 -0.22772694290E+02  0.32961841123E+02  0.51100000000E-03 0. -1.
        -11    1    3    3    0    0 -0.10996229143E+01  0.23708113750E+01 -0.26351442410E+01  0.37113208647E+01  0.51100000000E-03 0.  1.
         12    1    3    3    0    0  0.33235623705E+00  0.19278653039E+01 -0.10940579962E+02  0.11114108836E+02  0.00000000000E+00 0. -1.
</event>
<event>
 7    1  0.4356471E-010  0.4778727E+02  0.7816164E-02  0.1312668E+00
        -11   -1    0    0    0    0  0.00000000000E+00  0.00000000000E+00  0.45593999997E+02  0.45594000000E+02  0.51100000000E-03 0.  1.
         11   -1    0    0    0    0 -0.00000000000E+00 -0.00000000000E+00 -0.45593999997E+02  0.45594000000E+02  0.51100000000E-03 0. -1.
    9900012    2    1    2    0    0  0.20243436043E+01 -0.15280394868E+02 -0.40571357762E+02  0.47787268382E+02  0.19999987861E+02 0.  0.
        -12    1    1    2    0    0 -0.20243436043E+01  0.15280394868E+02  0.40571357762E+02  0.43400731618E+02  0.00000000000E+00 0.  1.
         11    1    3    3    0    0  0.20114522596E+01 -0.18240103388E+02 -0.24053341658E+02  0.30254099837E+02  0.51100000000E-03 0. -1.
        -11    1    3    3    0    0  0.14203909392E+01  0.96085258252E+00 -0.13859717767E+01  0.22049186226E+01  0.51100000000E-03 0.  1.
         12    1    3    3    0    0 -0.14074995944E+01  0.19988559367E+01 -0.15132044327E+02  0.15328249922E+02  0.00000000000E+00 0. -1.
</event>
<event>
 7    1  0.4356471E-010  0.4778727E+02  0.7816164E-02  0.1312668E+00
        -11   -1    0    0    0    0  0.00000000000E+00  0.00000000000E+00  0.45593999997E+02  0.45594000000E+02  0.51100000000E-03 0.  1.
         11   -1    0    0    0    0 -0.00000000000E+00 -0.00000000000E+00 -0.45593999997E+02  0.45594000000E+02  0.51100000000E-03 0. -1.
    9900012    2    1    2    0    0 -0.18854613343E+02 -0.39506055942E+01 -0.38891127085E+02  0.47787268499E+02  0.19999988395E+02 0.  0.
        -12    1    1    2    0    0  0.18854613343E+02  0.39506055942E+01  0.38891127085E+02  0.43400731501E+02  0.00000000000E+00 0.  1.
         11    1    3    3    0    0 -0.98824604401E+01 -0.94275834665E+01 -0.11144918452E+02  0.17628146866E+02  0.51100000000E-03 0. -1.
        -11    1    3    3    0    0 -0.10673247783E+01  0.18587972740E+01 -0.18123995893E+01  0.28069738190E+01  0.51100000000E-03 0.  1.
         12    1    3    3    0    0 -0.79048281248E+01  0.36181805982E+01 -0.25933809044E+02  0.27352147814E+02  0.00000000000E+00 0. -1.
</event>
<event>
 7    1  0.4356471E-010  0.4778727E+02  0.7816164E-02  0.1312668E+00
        -11   -1    0    0    0    0  0.00000000000E+00  0.00000000000E+00  0.45593999997E+02  0.45594000000E+02  0.51100000000E-03 0. -1.
         11   -1    0    0    0    0 -0.00000000000E+00 -0.00000000000E+00 -0.45593999997E+02  0.45594000000E+02  0.51100000000E-03 0.  1.
    9900012    2    1    2    0    0  0.36734440819E+02  0.21233649947E+02  0.91288778559E+01  0.47787269093E+02  0.19999991102E+02 0.  0.
        -12    1    1    2    0    0 -0.36734440819E+02 -0.21233649947E+02 -0.91288778559E+01  0.43400730907E+02  0.00000000000E+00 0.  1.
         11    1    3    3    0    0  0.10679130924E+02  0.58766418658E+01  0.95841320212E+01  0.15505945433E+02  0.51100000000E-03 0. -1.
        -11    1    3    3    0    0  0.16890955268E+02  0.36203544623E+01  0.11000103450E+01  0.17309574210E+02  0.51100000000E-03 0.  1.
         12    1    3    3    0    0  0.91643546269E+01  0.11736653618E+02 -0.15552645103E+01  0.14971749450E+02  0.00000000000E+00 0. -1.
</event>
<event>
 7    1  0.4356471E-010  0.4778727E+02  0.7816164E-02  0.1312668E+00
        -11   -1    0    0    0    0  0.00000000000E+00  0.00000000000E+00  0.45593999997E+02  0.45594000000E+02  0.51100000000E-03 0.  1.
         11   -1    0    0    0    0 -0.00000000000E+00 -0.00000000000E+00 -0.45593999997E+02  0.45594000000E+02  0.51100000000E-03 0. -1.
    9900012    2    1    2    0    0  0.11752446846E+02 -0.22532210133E+02 -0.35182421204E+02  0.47787271179E+02  0.20000000615E+02 0.  0.
        -12    1    1    2    0    0 -0.11752446846E+02  0.22532210133E+02  0.35182421204E+02  0.43400728821E+02  0.00000000000E+00 0.  1.
         11    1    3    3    0    0  0.66399301494E+01 -0.88488790148E+01 -0.82923956713E+01  0.13825887257E+02  0.51100000000E-03 0. -1.
        -11    1    3    3    0    0  0.21196437365E+01 -0.60123428852E+01 -0.58976377323E+00  0.64022635144E+01  0.51100000000E-03 0.  1.
         12    1    3    3    0    0  0.29928729602E+01 -0.76709882333E+01 -0.26300261760E+02  0.27559120408E+02  0.00000000000E+00 0. -1.
</event>
<event>
 7    1  0.4356471E-010  0.4778727E+02  0.7816164E-02  0.1312668E+00
        -11   -1    0    0    0    0  0.00000000000E+00  0.00000000000E+00  0.45593999997E+02  0.45594000000E+02  0.51100000000E-03 0. -1.
         11   -1    0    0    0    0 -0.00000000000E+00 -0.00000000000E+00 -0.45593999997E+02  0.45594000000E+02  0.51100000000E-03 0.  1.
    9900012    2    1    2    0    0 -0.34058376007E+02 -0.87641637393E+01  0.25433041742E+02  0.47787272420E+02  0.20000006270E+02 0.  0.
        -12    1    1    2    0    0  0.34058376007E+02  0.87641637393E+01 -0.25433041742E+02  0.43400727580E+02  0.00000000000E+00 0.  1.
         11    1    3    3    0    0 -0.29105617335E+01 -0.35383726393E+01  0.39397205103E+00  0.45985502908E+01  0.51100000000E-03 0. -1.
        -11    1    3    3    0    0  0.12527928212E+01 -0.87519870897E+00 -0.60072214647E+00  0.16420505448E+01  0.51100000000E-03 0.  1.
         12    1    3    3    0    0 -0.32400607095E+02 -0.43505923911E+01  0.25639791837E+02  0.41546671584E+02  0.00000000000E+00 0. -1.
</event>
<event>
 7    1  0.4356471E-010  0.4778727E+02  0.7816164E-02  0.1312668E+00
        -11   -1    0    0    0    0  0.00000000000E+00  0.00000000000E+00  0.45593999997E+02  0.45594000000E+02  0.51100000000E-03 0. -1.
         11   -1    0    0    0    0 -0.00000000000E+00 -0.00000000000E+00 -0.45593999997E+02  0.45594000000E+02  0.51100000000E-03 0.  1.
    9900012    2    1    2    0    0  0.13862052497E+02 -0.59919488204E+00  0.41123080631E+02  0.47787270807E+02  0.19999998915E+02 0.  0.
        -12    1    1    2    0    0 -0.13862052497E+02  0.59919488204E+00 -0.41123080631E+02  0.43400729193E+02  0.00000000000E+00 0.  1.
         11    1    3    3    0    0  0.70984748336E+01 -0.59699670963E+01  0.14502819507E+02  0.17215127824E+02  0.51100000000E-03 0. -1.
        -11    1    3    3    0    0  0.32881653255E+00 -0.37663982686E+01  0.54467720429E+01  0.66303244399E+01  0.51100000000E-03 0.  1.
         12    1    3    3    0    0  0.64347611309E+01  0.91371704828E+01  0.21173489081E+02  0.23941818542E+02  0.00000000000E+00 0. -1.
</event>
<event>
 7    1  0.4356471E-010  0.4778728E+02  0.7816164E-02  0.1312668E+00
        -11   -1    0    0    0    0  0.00000000000E+00  0.00000000000E+00  0.45593999997E+02  0.45594000000E+02  0.51100000000E-03 0. -1.
         11   -1    0    0    0    0 -0.00000000000E+00 -0.00000000000E+00 -0.45593999997E+02  0.45594000000E+02  0.51100000000E-03 0.  1.
    9900012    2    1    2    0    0  0.82252697628E+01  0.45004534417E+01  0.42375856651E+02  0.47787281449E+02  0.20000047439E+02 0.  0.
        -12    1    1    2    0    0 -0.82252697628E+01 -0.45004534417E+01 -0.42375856651E+02  0.43400718551E+02  0.00000000000E+00 0.  1.
         11    1    3    3    0    0  0.49074206252E+01  0.86429779348E+01  0.33481523197E+02  0.34925581464E+02  0.51100000000E-03 0. -1.
        -11    1    3    3    0    0  0.24006108930E+01  0.38193460211E+00 -0.41930703780E+00  0.24667033370E+01  0.51100000000E-03 0.  1.
        -12    1    3    3    0    0  0.91723824460E+00 -0.45244590952E+01  0.93136404918E+01  0.10394996648E+02  0.00000000000E+00 0.  1.
</event>
<event>
 7    1  0.4356471E-010  0.4778727E+02  0.7816164E-02  0.1312668E+00
        -11   -1    0    0    0    0  0.00000000000E+00  0.00000000000E+00  0.45593999997E+02  0.45594000000E+02  0.51100000000E-03 0.  1.
         11   -1    0    0    0    0 -0.00000000000E+00 -0.00000000000E+00 -0.45593999997E+02  0.45594000000E+02  0.51100000000E-03 0. -1.
    9900012    2    1    2    0    0 -0.15348849447E+02 -0.17588579151E+02 -0.36587952156E+02  0.47787267992E+02  0.19999986082E+02 0.  0.
        -12    1    1    2    0    0  0.15348849447E+02  0.17588579151E+02  0.36587952156E+02  0.43400732008E+02  0.00000000000E+00 0.  1.
         11    1    3    3    0    0 -0.58872787169E+01 -0.12308869084E+02 -0.26000949348E+02  0.29363543316E+02  0.51100000000E-03 0. -1.
        -11    1    3    3    0    0 -0.92914393379E+01 -0.74758425480E+01 -0.10951350592E+02  0.16191082324E+02  0.51100000000E-03 0.  1.
        -12    1    3    3    0    0 -0.17013139214E+00  0.21961324810E+01  0.36434778409E+00  0.22326423521E+01  0.00000000000E+00 0.  1.
</event>
<event>
 7    1  0.4356471E-010  0.4778728E+02  0.7816164E-02  0.1312668E+00
        -11   -1    0    0    0    0  0.00000000000E+00  0.00000000000E+00  0.45593999997E+02  0.45594000000E+02  0.51100000000E-03 0.  1.
         11   -1    0    0    0    0 -0.00000000000E+00 -0.00000000000E+00 -0.45593999997E+02  0.45594000000E+02  0.51100000000E-03 0. -1.
    9900012    2    1    2    0    0  0.27371706883E+02  0.28187110671E+02 -0.18436357304E+02  0.47787276316E+02  0.20000024035E+02 0.  0.
        -12    1    1    2    0    0 -0.27371706883E+02 -0.28187110671E+02  0.18436357304E+02  0.43400723684E+02  0.00000000000E+00 0.  1.
         11    1    3    3    0    0 -0.17315291760E+01  0.18662067338E+01 -0.23830843584E+01  0.34871209014E+01  0.51100000000E-03 0. -1.
        -11    1    3    3    0    0 -0.11339031388E+01  0.12396452861E+00  0.12144338171E+00  0.11471060494E+01  0.51100000000E-03 0.  1.
         12    1    3    3    0    0  0.30237139197E+02  0.26196939409E+02 -0.16174716327E+02  0.43153049365E+02  0.00000000000E+00 0. -1.
</event>
<event>
 7    1  0.4356471E-010  0.4778727E+02  0.7816164E-02  0.1312668E+00
        -11   -1    0    0    0    0  0.00000000000E+00  0.00000000000E+00  0.45593999997E+02  0.45594000000E+02  0.51100000000E-03 0. -1.
         11   -1    0    0    0    0 -0.00000000000E+00 -0.00000000000E+00 -0.45593999997E+02  0.45594000000E+02  0.51100000000E-03 0.  1.
    9900012    2    1    2    0    0  0.43286947848E+02  0.16968538218E+01 -0.26427207405E+01  0.47787272589E+02  0.20000007044E+02 0.  0.
        -12    1    1    2    0    0 -0.43286947848E+02 -0.16968538218E+01  0.26427207405E+01  0.43400727411E+02  0.00000000000E+00 0.  1.
         11    1    3    3    0    0  0.49227160704E+01 -0.54506125715E+01 -0.29614370910E+01  0.79191174268E+01  0.51100000000E-03 0. -1.
        -11    1    3    3    0    0  0.91224769178E+01  0.34847442823E+01 -0.29896401310E+01  0.10212784939E+02  0.51100000000E-03 0.  1.
        -12    1    3    3    0    0  0.29241754859E+02  0.36627221110E+01  0.33083564815E+01  0.29655370224E+02  0.00000000000E+00 0.  1.
</event>
<event>
 7    1  0.4356471E-010  0.4778727E+02  0.7816164E-02  0.1312668E+00
        -11   -1    0    0    0    0  0.00000000000E+00  0.00000000000E+00  0.45593999997E+02  0.45594000000E+02  0.51100000000E-03 0.  1.
         11   -1    0    0    0    0 -0.00000000000E+00 -0.00000000000E+00 -0.45593999997E+02  0.45594000000E+02  0.51100000000E-03 0. -1.
    9900012    2    1    2    0    0  0.13211696155E+02 -0.29135629842E+02 -0.29328981838E+02  0.47787274001E+02  0.20000013480E+02 0.  0.
        -12    1    1    2    0    0 -0.13211696155E+02  0.29135629842E+02  0.29328981838E+02  0.43400725999E+02  0.00000000000E+00 0.  1.
         11    1    3    3    0    0  0.10924949333E+02 -0.20905865753E+02 -0.14738499021E+02  0.27814260631E+02  0.51100000000E-03 0. -1.
        -11    1    3    3    0    0  0.52886142823E+01 -0.32408510560E+01 -0.12185821109E+02  0.13673580108E+02  0.51100000000E-03 0.  1.
         12    1    3    3    0    0 -0.30018674596E+01 -0.49889130328E+01 -0.24046617084E+01  0.62994332622E+01  0.00000000000E+00 0. -1.
</event>
<event>
 7    1  0.4356471E-010  0.4778727E+02  0.7816164E-02  0.1312668E+00
        -11   -1    0    0    0    0  0.00000000000E+00  0.00000000000E+00  0.45593999997E+02  0.45594000000E+02  0.51100000000E-03 0.  1.
         11   -1    0    0    0    0 -0.00000000000E+00 -0.00000000000E+00 -0.45593999997E+02  0.45594000000E+02  0.51100000000E-03 0. -1.
    9900012    2    1    2    0    0  0.68420917439E+01  0.11039726906E+02 -0.41411755068E+02  0.47787271349E+02  0.20000001390E+02 0.  0.
        -12    1    1    2    0    0 -0.68420917439E+01 -0.11039726906E+02  0.41411755068E+02  0.43400728651E+02  0.00000000000E+00 0.  1.
         11    1    3    3    0    0 -0.37450744116E+00 -0.11530820085E+01 -0.18438063060E+02  0.18477879305E+02  0.51100000000E-03 0. -1.
        -11    1    3    3    0    0  0.18895838490E+01 -0.99942542643E+00  0.16795048285E+00  0.21441982024E+01  0.51100000000E-03 0.  1.
         12    1    3    3    0    0  0.53270153361E+01  0.13192234341E+02 -0.23141642491E+02  0.27165193842E+02  0.00000000000E+00 0. -1.
</event>
<event>
 7    1  0.4356471E-010  0.4778727E+02  0.7816164E-02  0.1312668E+00
        -11   -1    0    0    0    0  0.00000000000E+00  0.00000000000E+00  0.45593999997E+02  0.45594000000E+02  0.51100000000E-03 0.  1.
         11   -1    0    0    0    0 -0.00000000000E+00 -0.00000000000E+00 -0.45593999997E+02  0.45594000000E+02  0.51100000000E-03 0. -1.
    9900012    2    1    2    0    0 -0.24269637429E+02 -0.17324755428E+02 -0.31535068748E+02  0.47787274056E+02  0.20000013731E+02 0.  0.
        -12    1    1    2    0    0  0.24269637429E+02  0.17324755428E+02  0.31535068748E+02  0.43400725944E+02  0.00000000000E+00 0.  1.
         11    1    3    3    0    0 -0.60896342656E+01 -0.48128611452E+01 -0.14306056145E+02  0.16276072025E+02  0.51100000000E-03 0. -1.
        -11    1    3    3    0    0 -0.11235716527E+02 -0.14336659654E+02 -0.15964261590E+02  0.24220627248E+02  0.51100000000E-03 0.  1.
        -12    1    3    3    0    0 -0.69442866361E+01  0.18247653712E+01 -0.12647510130E+01  0.72905747832E+01  0.00000000000E+00 0.  1.
</event>
<event>
 7    1  0.4356471E-010  0.4778727E+02  0.7816164E-02  0.1312668E+00
        -11   -1    0    0    0    0  0.00000000000E+00  0.00000000000E+00  0.45593999997E+02  0.45594000000E+02  0.51100000000E-03 0.  1.
         11   -1    0    0    0    0 -0.00000000000E+00 -0.00000000000E+00 -0.45593999997E+02  0.45594000000E+02  0.51100000000E-03 0. -1.
    9900012    2    1    2    0    0  0.25840037210E+02  0.24215091265E+02 -0.25090738245E+02  0.47787270586E+02  0.19999997910E+02 0.  0.
        -12    1    1    2    0    0 -0.25840037210E+02 -0.24215091265E+02  0.25090738245E+02  0.43400729414E+02  0.00000000000E+00 0.  1.
         11    1    3    3    0    0  0.17976760015E+02  0.57866344302E+01 -0.18448750998E+02  0.26400860825E+02  0.51100000000E-03 0. -1.
        -11    1    3    3    0    0  0.17331189436E+01  0.82077425064E+01 -0.22552268442E+01  0.86865865968E+01  0.51100000000E-03 0.  1.
         12    1    3    3    0    0  0.61301582520E+01  0.10220714328E+02 -0.43867604029E+01  0.12699823164E+02  0.00000000000E+00 0. -1.
</event>
<event>
 7    1  0.4356471E-010  0.4778727E+02  0.7816164E-02  0.1312668E+00
        -11   -1    0    0    0    0  0.00000000000E+00  0.00000000000E+00  0.45593999997E+02  0.45594000000E+02  0.51100000000E-03 0.  1.
         11   -1    0    0    0    0 -0.00000000000E+00 -0.00000000000E+00 -0.45593999997E+02  0.45594000000E+02  0.51100000000E-03 0. -1.
    9900012    2    1    2    0    0  0.18375306539E+02  0.30154665688E+02 -0.25232271818E+02  0.47787270809E+02  0.19999998928E+02 0.  0.
        -12    1    1    2    0    0 -0.18375306539E+02 -0.30154665688E+02  0.25232271818E+02  0.43400729191E+02  0.00000000000E+00 0.  1.
         11    1    3    3    0    0  0.22526824643E+01  0.10509084503E+02 -0.49690248521E+01  0.11840888633E+02  0.51100000000E-03 0. -1.
        -11    1    3    3    0    0  0.14606344761E+01  0.10515048528E+02 -0.19884490051E+01  0.10800630923E+02  0.51100000000E-03 0.  1.
         12    1    3    3    0    0  0.14661989599E+02  0.91305326569E+01 -0.18274797961E+02  0.25145751254E+02  0.00000000000E+00 0. -1.
</event>
<event>
 7    1  0.4356471E-010  0.4778727E+02  0.7816164E-02  0.1312668E+00
        -11   -1    0    0    0    0  0.00000000000E+00  0.00000000000E+00  0.45593999997E+02  0.45594000000E+02  0.51100000000E-03 0.  1.
         11   -1    0    0    0    0 -0.00000000000E+00 -0.00000000000E+00 -0.45593999997E+02  0.45594000000E+02  0.51100000000E-03 0. -1.
    9900012    2    1    2    0    0  0.82569899965E+01  0.34897970597E+02 -0.24445392587E+02  0.47787268966E+02  0.19999990524E+02 0.  0.
        -12    1    1    2    0    0 -0.82569899965E+01 -0.34897970597E+02  0.24445392587E+02  0.43400731034E+02  0.00000000000E+00 0.  1.
         11    1    3    3    0    0  0.28840359088E+01  0.13389183791E+02 -0.46404066567E+01  0.14461026240E+02  0.51100000000E-03 0. -1.
        -11    1    3    3    0    0 -0.52020805074E+01  0.91937568378E+01 -0.81840453430E+01  0.13362836706E+02  0.51100000000E-03 0.  1.
         12    1    3    3    0    0  0.10575034595E+02  0.12315029968E+02 -0.11620940587E+02  0.19963406020E+02  0.00000000000E+00 0. -1.
</event>
<event>
 7    1  0.4356471E-010  0.4778727E+02  0.7816164E-02  0.1312668E+00
        -11   -1    0    0    0    0  0.00000000000E+00  0.00000000000E+00  0.45593999997E+02  0.45594000000E+02  0.51100000000E-03 0.  1.
         11   -1    0    0    0    0 -0.00000000000E+00 -0.00000000000E+00 -0.45593999997E+02  0.45594000000E+02  0.51100000000E-03 0. -1.
    9900012    2    1    2    0    0 -0.16532241947E+02  0.56311668371E+01 -0.39731579533E+02  0.47787268717E+02  0.19999989388E+02 0.  0.
        -12    1    1    2    0    0  0.16532241947E+02 -0.56311668371E+01  0.39731579533E+02  0.43400731283E+02  0.00000000000E+00 0.  1.
         11    1    3    3    0    0  0.29008090890E+01  0.59310801027E+00 -0.33443727807E+01  0.44666878154E+01  0.51100000000E-03 0. -1.
        -11    1    3    3    0    0 -0.15713468419E+02  0.89577495604E+01 -0.27302347249E+02  0.32750153167E+02  0.51100000000E-03 0.  1.
        -12    1    3    3    0    0 -0.37195826176E+01 -0.39196907335E+01 -0.90848595031E+01  0.10570427734E+02  0.00000000000E+00 0.  1.
</event>
<event>
 7    1  0.4356471E-010  0.4778727E+02  0.7816164E-02  0.1312668E+00
        -11   -1    0    0    0    0  0.00000000000E+00  0.00000000000E+00  0.45593999997E+02  0.45594000000E+02  0.51100000000E-03 0.  1.
         11   -1    0    0    0    0 -0.00000000000E+00 -0.00000000000E+00 -0.45593999997E+02  0.45594000000E+02  0.51100000000E-03 0. -1.
    9900012    2    1    2    0    0 -0.63882914596E+01 -0.26346376487E+02 -0.33892202727E+02  0.47787271579E+02  0.20000002436E+02 0.  0.
        -12    1    1    2    0    0  0.63882914596E+01  0.26346376487E+02  0.33892202727E+02  0.43400728421E+02  0.00000000000E+00 0.  1.
         11    1    3    3    0    0 -0.34040856252E+01  0.70288680569E-01 -0.66046913767E+00  0.34682789948E+01  0.51100000000E-03 0. -1.
        -11    1    3    3    0    0  0.69282187460E+00 -0.28902174732E+01  0.51560056441E+00  0.30164885870E+01  0.51100000000E-03 0.  1.
         12    1    3    3    0    0 -0.36770277090E+01 -0.23526447695E+02 -0.33747334154E+02  0.41302503997E+02  0.00000000000E+00 0. -1.
</event>
<event>
 7    1  0.4356471E-010  0.4778727E+02  0.7816164E-02  0.1312668E+00
        -11   -1    0    0    0    0  0.00000000000E+00  0.00000000000E+00  0.45593999997E+02  0.45594000000E+02  0.51100000000E-03 0.  1.
         11   -1    0    0    0    0 -0.00000000000E+00 -0.00000000000E+00 -0.45593999997E+02  0.45594000000E+02  0.51100000000E-03 0. -1.
    9900012    2    1    2    0    0 -0.77033626850E+01 -0.40101750506E+02 -0.14701393436E+02  0.47787272364E+02  0.20000006019E+02 0.  0.
        -12    1    1    2    0    0  0.77033626850E+01  0.40101750506E+02  0.14701393436E+02  0.43400727636E+02  0.00000000000E+00 0.  1.
         11    1    3    3    0    0 -0.36801532588E+01 -0.34542018209E+02 -0.14309190115E+02  0.37569235712E+02  0.51100000000E-03 0. -1.
        -11    1    3    3    0    0 -0.17913011991E+01 -0.67988125797E+01  0.13072093286E+01  0.71513221833E+01  0.51100000000E-03 0.  1.
         12    1    3    3    0    0 -0.22319082271E+01  0.12390802827E+01 -0.16994126498E+01  0.30667144691E+01  0.00000000000E+00 0. -1.
</event>
<event>
 7    1  0.4356471E-010  0.4778727E+02  0.7816164E-02  0.1312668E+00
        -11   -1    0    0    0    0  0.00000000000E+00  0.00000000000E+00  0.45593999997E+02  0.45594000000E+02  0.51100000000E-03 0.  1.
         11   -1    0    0    0    0 -0.00000000000E+00 -0.00000000000E+00 -0.45593999997E+02  0.45594000000E+02  0.51100000000E-03 0. -1.
    9900012    2    1    2    0    0 -0.56864886480E+01  0.76167130589E+01 -0.42347053980E+02  0.47787268995E+02  0.19999990657E+02 0.  0.
        -12    1    1    2    0    0  0.56864886480E+01 -0.76167130589E+01  0.42347053980E+02  0.43400731005E+02  0.00000000000E+00 0.  1.
         11    1    3    3    0    0 -0.40967013639E+01  0.18823876473E+01 -0.20909339241E+00  0.45133209090E+01  0.51100000000E-03 0.  1.
        -11    1    3    3    0    0  0.27573161115E+01  0.21181620536E+01 -0.88387243185E+01  0.94980235030E+01  0.51100000000E-03 0. -1.
        -12    1    3    3    0    0 -0.43471033956E+01  0.36161633581E+01 -0.33299236269E+02  0.33775924583E+02  0.00000000000E+00 0.  1.
</event>
<event>
 7    1  0.4356471E-010  0.4778727E+02  0.7816164E-02  0.1312668E+00
        -11   -1    0    0    0    0  0.00000000000E+00  0.00000000000E+00  0.45593999997E+02  0.45594000000E+02  0.51100000000E-03 0.  1.
         11   -1    0    0    0    0 -0.00000000000E+00 -0.00000000000E+00 -0.45593999997E+02  0.45594000000E+02  0.51100000000E-03 0. -1.
    9900012    2    1    2    0    0  0.38303431714E+01 -0.10781036739E+02 -0.41865516333E+02  0.47787265676E+02  0.19999975525E+02 0.  0.
        -12    1    1    2    0    0 -0.38303431714E+01  0.10781036739E+02  0.41865516333E+02  0.43400734324E+02  0.00000000000E+00 0.  1.
         11    1    3    3    0    0  0.15277207080E+01  0.17474631465E+01 -0.10503809720E+02  0.10757210461E+02  0.51100000000E-03 0. -1.
        -11    1    3    3    0    0  0.51413104935E+01  0.13531855759E+01 -0.63294724073E+01  0.82659788295E+01  0.51100000000E-03 0.  1.
        -12    1    3    3    0    0 -0.28386880300E+01 -0.13881685462E+02 -0.25032234206E+02  0.28764076386E+02  0.00000000000E+00 0.  1.
</event>
<event>
 7    1  0.4356471E-010  0.4778727E+02  0.7816164E-02  0.1312668E+00
        -11   -1    0    0    0    0  0.00000000000E+00  0.00000000000E+00  0.45593999997E+02  0.45594000000E+02  0.51100000000E-03 0.  1.
         11   -1    0    0    0    0 -0.00000000000E+00 -0.00000000000E+00 -0.45593999997E+02  0.45594000000E+02  0.51100000000E-03 0. -1.
    9900012    2    1    2    0    0 -0.38595459480E+02 -0.17590927058E+02  0.91963818996E+01  0.47787266743E+02  0.19999980387E+02 0.  0.
        -12    1    1    2    0    0  0.38595459480E+02  0.17590927058E+02 -0.91963818996E+01  0.43400733257E+02  0.00000000000E+00 0.  1.
         11    1    3    3    0    0 -0.14646287437E+02 -0.52947306403E+01  0.83326514524E+01  0.17662983574E+02  0.51100000000E-03 0. -1.
        -11    1    3    3    0    0 -0.43943179788E+01  0.23854552478E+01  0.25511186649E+01  0.56132552002E+01  0.51100000000E-03 0.  1.
        -12    1    3    3    0    0 -0.19554854064E+02 -0.14681651665E+02 -0.16873882176E+01  0.24511027969E+02  0.00000000000E+00 0.  1.
</event>
<event>
 7    1  0.4356471E-010  0.4778727E+02  0.7816164E-02  0.1312668E+00
        -11   -1    0    0    0    0  0.00000000000E+00  0.00000000000E+00  0.45593999997E+02  0.45594000000E+02  0.51100000000E-03 0.  1.
         11   -1    0    0    0    0 -0.00000000000E+00 -0.00000000000E+00 -0.45593999997E+02  0.45594000000E+02  0.51100000000E-03 0. -1.
    9900012    2    1    2    0    0 -0.42385675099E+02 -0.46419918673E+01 -0.80950367907E+01  0.47787272325E+02  0.20000005838E+02 0.  0.
        -12    1    1    2    0    0  0.42385675099E+02  0.46419918673E+01  0.80950367907E+01  0.43400727675E+02  0.00000000000E+00 0.  1.
         11    1    3    3    0    0 -0.81267672299E+01 -0.55274668589E+01 -0.65417355424E+00  0.98501359781E+01  0.51100000000E-03 0.  1.
        -11    1    3    3    0    0 -0.17805306104E+02 -0.64496856542E+01 -0.59990181218E+01  0.19864933656E+02  0.51100000000E-03 0. -1.
         12    1    3    3    0    0 -0.16453601765E+02  0.73351606458E+01 -0.14418451147E+01  0.18072202691E+02  0.00000000000E+00 0. -1.
</event>
<event>
 7    1  0.4356471E-010  0.4778727E+02  0.7816164E-02  0.1312668E+00
        -11   -1    0    0    0    0  0.00000000000E+00  0.00000000000E+00  0.45593999997E+02  0.45594000000E+02  0.51100000000E-03 0. -1.
         11   -1    0    0    0    0 -0.00000000000E+00 -0.00000000000E+00 -0.45593999997E+02  0.45594000000E+02  0.51100000000E-03 0.  1.
    9900012    2    1    2    0    0 -0.30819279090E+00  0.33315503588E+02 -0.27813766459E+02  0.47787269975E+02  0.19999995123E+02 0.  0.
        -12    1    1    2    0    0  0.30819279090E+00 -0.33315503588E+02  0.27813766459E+02  0.43400730025E+02  0.00000000000E+00 0.  1.
         11    1    3    3    0    0 -0.84128147897E+01  0.16691987508E+02 -0.14808053730E+02  0.23846935970E+02  0.51100000000E-03 0. -1.
        -11    1    3    3    0    0  0.15907639619E+01  0.89980861870E+01 -0.26266541456E+01  0.95076494084E+01  0.51100000000E-03 0.  1.
        -12    1    3    3    0    0  0.65138580369E+01  0.76254298929E+01 -0.10379058583E+02  0.14432684596E+02  0.00000000000E+00 0.  1.
</event>
<event>
 7    1  0.4356471E-010  0.4778727E+02  0.7816164E-02  0.1312668E+00
        -11   -1    0    0    0    0  0.00000000000E+00  0.00000000000E+00  0.45593999997E+02  0.45594000000E+02  0.51100000000E-03 0.  1.
         11   -1    0    0    0    0 -0.00000000000E+00 -0.00000000000E+00 -0.45593999997E+02  0.45594000000E+02  0.51100000000E-03 0. -1.
    9900012    2    1    2    0    0 -0.24625487859E+02 -0.94624167104E+01 -0.34462604317E+02  0.47787273294E+02  0.20000010257E+02 0.  0.
        -12    1    1    2    0    0  0.24625487859E+02  0.94624167104E+01  0.34462604317E+02  0.43400726706E+02  0.00000000000E+00 0.  1.
         11    1    3    3    0    0 -0.15716403642E+02 -0.88516988617E+01 -0.17950750464E+02  0.25447737790E+02  0.51100000000E-03 0. -1.
        -11    1    3    3    0    0  0.12159843730E+00 -0.48457759873E+01 -0.72954844551E+01  0.87590196252E+01  0.51100000000E-03 0.  1.
        -12    1    3    3    0    0 -0.90306826544E+01  0.42350581386E+01 -0.92163693986E+01  0.13580515879E+02  0.00000000000E+00 0.  1.
</event>
<event>
 7    1  0.4356471E-010  0.4778727E+02  0.7816164E-02  0.1312668E+00
        -11   -1    0    0    0    0  0.00000000000E+00  0.00000000000E+00  0.45593999997E+02  0.45594000000E+02  0.51100000000E-03 0.  1.
         11   -1    0    0    0    0 -0.00000000000E+00 -0.00000000000E+00 -0.45593999997E+02  0.45594000000E+02  0.51100000000E-03 0. -1.
    9900012    2    1    2    0    0  0.18855350097E+02 -0.52614953817E+01 -0.38735201645E+02  0.47787269506E+02  0.19999992986E+02 0.  0.
        -12    1    1    2    0    0 -0.18855350097E+02  0.52614953817E+01  0.38735201645E+02  0.43400730494E+02  0.00000000000E+00 0.  1.
         11    1    3    3    0    0  0.94426203633E+00 -0.19327003089E+00  0.14210774865E+01  0.17171038355E+01  0.51100000000E-03 0.  1.
        -11    1    3    3    0    0  0.88637710881E+01 -0.87829305665E+01 -0.26298403407E+02  0.29108629808E+02  0.51100000000E-03 0. -1.
         12    1    3    3    0    0  0.90473169725E+01  0.37147052156E+01 -0.13857875724E+02  0.16961535863E+02  0.00000000000E+00 0. -1.
</event>
<event>
 7    1  0.4356471E-010  0.4778726E+02  0.7816164E-02  0.1312668E+00
        -11   -1    0    0    0    0  0.00000000000E+00  0.00000000000E+00  0.45593999997E+02  0.45594000000E+02  0.51100000000E-03 0.  1.
         11   -1    0    0    0    0 -0.00000000000E+00 -0.00000000000E+00 -0.45593999997E+02  0.45594000000E+02  0.51100000000E-03 0. -1.
    9900012    2    1    2    0    0  0.38258310990E+02  0.92970841551E+01 -0.18261714027E+02  0.47787258845E+02  0.19999944377E+02 0.  0.
        -12    1    1    2    0    0 -0.38258310990E+02 -0.92970841551E+01  0.18261714027E+02  0.43400741155E+02  0.00000000000E+00 0.  1.
         11    1    3    3    0    0  0.11357821738E+02  0.18655087346E+01 -0.12809916554E+02  0.17221329794E+02  0.51100000000E-03 0. -1.
        -11    1    3    3    0    0  0.16029943402E+02 -0.77181697386E+00 -0.54460479686E+01  0.16947395837E+02  0.51100000000E-03 0.  1.
        -12    1    3    3    0    0  0.10870545850E+02  0.82033923944E+01 -0.57495039930E-02  0.13618533214E+02  0.00000000000E+00 0.  1.
</event>
<event>
 7    1  0.4356471E-010  0.4778727E+02  0.7816164E-02  0.1312668E+00
        -11   -1    0    0    0    0  0.00000000000E+00  0.00000000000E+00  0.45593999997E+02  0.45594000000E+02  0.51100000000E-03 0.  1.
         11   -1    0    0    0    0 -0.00000000000E+00 -0.00000000000E+00 -0.45593999997E+02  0.45594000000E+02  0.51100000000E-03 0. -1.
    9900012    2    1    2    0    0  0.19141958539E+02 -0.16757905697E+01 -0.38915298115E+02  0.47787270996E+02  0.19999999778E+02 0.  0.
        -12    1    1    2    0    0 -0.19141958539E+02  0.16757905697E+01  0.38915298115E+02  0.43400729004E+02  0.00000000000E+00 0.  1.
         11    1    3    3    0    0  0.14383598535E+02  0.45554265406E+01 -0.22633876659E+02  0.27201694628E+02  0.51100000000E-03 0. -1.
        -11    1    3    3    0    0  0.47615034183E+01 -0.95209449858E+00 -0.18113811624E+01  0.51826152388E+01  0.51100000000E-03 0.  1.
        -12    1    3    3    0    0 -0.31434144331E-02 -0.52791226117E+01 -0.14470040294E+02  0.15402961129E+02  0.00000000000E+00 0.  1.
</event>
<event>
 7    1  0.4356471E-010  0.4778725E+02  0.7816164E-02  0.1312668E+00
        -11   -1    0    0    0    0  0.00000000000E+00  0.00000000000E+00  0.45593999997E+02  0.45594000000E+02  0.51100000000E-03 0. -1.
         11   -1    0    0    0    0 -0.00000000000E+00 -0.00000000000E+00 -0.45593999997E+02  0.45594000000E+02  0.51100000000E-03 0.  1.
    9900012    2    1    2    0    0  0.32732448268E+02 -0.19658313354E+02  0.20634011594E+02  0.47787252449E+02  0.19999915214E+02 0.  0.
        -12    1    1    2    0    0 -0.32732448268E+02  0.19658313354E+02 -0.20634011594E+02  0.43400747551E+02  0.00000000000E+00 0.  1.
         11    1    3    3    0    0  0.50845546690E+01 -0.74468193271E+01  0.24417179317E+01  0.93418307088E+01  0.51100000000E-03 0. -1.
        -11    1    3    3    0    0  0.10892189685E+02 -0.13162691655E+02  0.90239825084E+01  0.19321710802E+02  0.51100000000E-03 0.  1.
         12    1    3    3    0    0  0.16755703915E+02  0.95119762899E+00  0.91683111543E+01  0.19123710938E+02  0.00000000000E+00 0. -1.
</event>
<event>
 7    1  0.4356471E-010  0.4778725E+02  0.7816164E-02  0.1312668E+00
        -11   -1    0    0    0    0  0.00000000000E+00  0.00000000000E+00  0.45593999997E+02  0.45594000000E+02  0.51100000000E-03 0. -1.
         11   -1    0    0    0    0 -0.00000000000E+00 -0.00000000000E+00 -0.45593999997E+02  0.45594000000E+02  0.51100000000E-03 0.  1.
    9900012    2    1    2    0    0 -0.16984505073E+02 -0.35311405888E+02  0.18661615039E+02  0.47787254911E+02  0.19999926443E+02 0.  0.
        -12    1    1    2    0    0  0.16984505073E+02  0.35311405888E+02 -0.18661615039E+02  0.43400745089E+02  0.00000000000E+00 0.  1.
         11    1    3    3    0    0 -0.26974531547E+00 -0.61796576349E+01 -0.18821789609E+01  0.64655648571E+01  0.51100000000E-03 0.  1.
        -11    1    3    3    0    0 -0.54875310243E+01 -0.35219238741E+01 -0.16984858688E+00  0.65227136471E+01  0.51100000000E-03 0. -1.
         12    1    3    3    0    0 -0.11227228733E+02 -0.25609824379E+02  0.20713642587E+02  0.34798976407E+02  0.00000000000E+00 0. -1.
</event>
<event>
 7    1  0.4356471E-010  0.4778727E+02  0.7816164E-02  0.1312668E+00
        -11   -1    0    0    0    0  0.00000000000E+00  0.00000000000E+00  0.45593999997E+02  0.45594000000E+02  0.51100000000E-03 0.  1.
         11   -1    0    0    0    0 -0.00000000000E+00 -0.00000000000E+00 -0.45593999997E+02  0.45594000000E+02  0.51100000000E-03 0. -1.
    9900012    2    1    2    0    0 -0.98450664845E+01  0.36280685262E+02 -0.21688936196E+02  0.47787269471E+02  0.19999992825E+02 0.  0.
        -12    1    1    2    0    0  0.98450664845E+01 -0.36280685262E+02  0.21688936196E+02  0.43400730529E+02  0.00000000000E+00 0.  1.
         11    1    3    3    0    0  0.19503604486E+01  0.74074363295E+01 -0.31391804618E+01  0.82781926221E+01  0.51100000000E-03 0.  1.
        -11    1    3    3    0    0 -0.88570954250E+00  0.17582583138E+02 -0.15624762746E+02  0.23538583694E+02  0.51100000000E-03 0. -1.
         12    1    3    3    0    0 -0.10909717391E+02  0.11290665794E+02 -0.29249929884E+01  0.15970493155E+02  0.00000000000E+00 0. -1.
</event>
<event>
 7    1  0.4356471E-010  0.4778727E+02  0.7816164E-02  0.1312668E+00
        -11   -1    0    0    0    0  0.00000000000E+00  0.00000000000E+00  0.45593999997E+02  0.45594000000E+02  0.51100000000E-03 0.  1.
         11   -1    0    0    0    0 -0.00000000000E+00 -0.00000000000E+00 -0.45593999997E+02  0.45594000000E+02  0.51100000000E-03 0. -1.
    9900012    2    1    2    0    0 -0.34536622759E+02 -0.58321529591E+01 -0.25628710524E+02  0.47787272785E+02  0.20000007934E+02 0.  0.
        -12    1    1    2    0    0  0.34536622759E+02  0.58321529591E+01  0.25628710524E+02  0.43400727215E+02  0.00000000000E+00 0.  1.
         11    1    3    3    0    0 -0.11735075747E+02  0.49278559753E+01 -0.99343451583E+01  0.16145803829E+02  0.51100000000E-03 0. -1.
        -11    1    3    3    0    0 -0.15668676320E+01 -0.13457690207E+01 -0.62227661396E+01  0.65565987465E+01  0.51100000000E-03 0.  1.
        -12    1    3    3    0    0 -0.21234679380E+02 -0.94142399136E+01 -0.94715992258E+01  0.25084870209E+02  0.00000000000E+00 0.  1.
</event>
<event>
 7    1  0.4356471E-010  0.4778728E+02  0.7816164E-02  0.1312668E+00
        -11   -1    0    0    0    0  0.00000000000E+00  0.00000000000E+00  0.45593999997E+02  0.45594000000E+02  0.51100000000E-03 0.  1.
         11   -1    0    0    0    0 -0.00000000000E+00 -0.00000000000E+00 -0.45593999997E+02  0.45594000000E+02  0.51100000000E-03 0. -1.
    9900012    2    1    2    0    0  0.32066639334E+02  0.13949059590E+02 -0.25705588964E+02  0.47787275057E+02  0.20000018294E+02 0.  0.
        -12    1    1    2    0    0 -0.32066639334E+02 -0.13949059590E+02  0.25705588964E+02  0.43400724943E+02  0.00000000000E+00 0.  1.
         11    1    3    3    0    0  0.20684821056E+02  0.54791125978E+01 -0.24570451826E+02  0.32582044137E+02  0.51100000000E-03 0. -1.
        -11    1    3    3    0    0  0.21329908020E+01  0.82112573716E+00 -0.21792543021E+01  0.31580131115E+01  0.51100000000E-03 0.  1.
        -12    1    3    3    0    0  0.92488274757E+01  0.76488212548E+01  0.10441171637E+01  0.12047217808E+02  0.00000000000E+00 0.  1.
</event>
<event>
 7    1  0.4356471E-010  0.4778730E+02  0.7816164E-02  0.1312668E+00
        -11   -1    0    0    0    0  0.00000000000E+00  0.00000000000E+00  0.45593999997E+02  0.45594000000E+02  0.51100000000E-03 0. -1.
         11   -1    0    0    0    0 -0.00000000000E+00 -0.00000000000E+00 -0.45593999997E+02  0.45594000000E+02  0.51100000000E-03 0.  1.
    9900012    2    1    2    0    0  0.12137712505E+02  0.21288765045E+02  0.35820181701E+02  0.47787297251E+02  0.20000119488E+02 0.  0.
        -12    1    1    2    0    0 -0.12137712505E+02 -0.21288765045E+02 -0.35820181701E+02  0.43400702749E+02  0.00000000000E+00 0.  1.
         11    1    3    3    0    0  0.50580746088E+01  0.48650410997E+01  0.11174424585E+02  0.13195473039E+02  0.51100000000E-03 0. -1.
        -11    1    3    3    0    0  0.55689320288E+01  0.13323167838E+02  0.60122993470E+01  0.15641852476E+02  0.51100000000E-03 0.  1.
        -12    1    3    3    0    0  0.15107058673E+01  0.31005561071E+01  0.18633457769E+02  0.18949971736E+02  0.00000000000E+00 0.  1.
</event>
<event>
 7    1  0.4356471E-010  0.4778727E+02  0.7816164E-02  0.1312668E+00
        -11   -1    0    0    0    0  0.00000000000E+00  0.00000000000E+00  0.45593999997E+02  0.45594000000E+02  0.51100000000E-03 0. -1.
         11   -1    0    0    0    0 -0.00000000000E+00 -0.00000000000E+00 -0.45593999997E+02  0.45594000000E+02  0.51100000000E-03 0.  1.
    9900012    2    1    2    0    0  0.44852065838E+01 -0.24097640397E+02  0.35816336941E+02  0.47787270252E+02  0.19999996386E+02 0.  0.
        -12    1    1    2    0    0 -0.44852065838E+01  0.24097640397E+02 -0.35816336941E+02  0.43400729748E+02  0.00000000000E+00 0.  1.
         11    1    3    3    0    0  0.25805349583E+01 -0.10647858575E+02  0.91399740135E+01  0.14267977367E+02  0.51100000000E-03 0. -1.
        -11    1    3    3    0    0  0.39532913016E+01 -0.43356441968E+01  0.69356837014E+00  0.59082450915E+01  0.51100000000E-03 0.  1.
        -12    1    3    3    0    0 -0.20486196761E+01 -0.91141376243E+01  0.25982794558E+02  0.27611047793E+02  0.00000000000E+00 0.  1.
</event>
<event>
 7    1  0.4356471E-010  0.4778727E+02  0.7816164E-02  0.1312668E+00
        -11   -1    0    0    0    0  0.00000000000E+00  0.00000000000E+00  0.45593999997E+02  0.45594000000E+02  0.51100000000E-03 0.  1.
         11   -1    0    0    0    0 -0.00000000000E+00 -0.00000000000E+00 -0.45593999997E+02  0.45594000000E+02  0.51100000000E-03 0. -1.
    9900012    2    1    2    0    0 -0.21545334506E+02  0.35424132784E+02 -0.12827818018E+02  0.47787268007E+02  0.19999986150E+02 0.  0.
        -12    1    1    2    0    0  0.21545334506E+02 -0.35424132784E+02  0.12827818018E+02  0.43400731993E+02  0.00000000000E+00 0.  1.
         11    1    3    3    0    0 -0.15841780266E+01  0.78719914446E+00 -0.12417609352E+00  0.17733365378E+01  0.51100000000E-03 0. -1.
        -11    1    3    3    0    0 -0.18751969339E+02  0.34903492587E+02 -0.70723111841E+01  0.40248077402E+02  0.51100000000E-03 0.  1.
         12    1    3    3    0    0 -0.12091871402E+01 -0.26655894729E+00 -0.56313307402E+01  0.57658540666E+01  0.00000000000E+00 0. -1.
</event>
<event>
 7    1  0.4356471E-010  0.4778725E+02  0.7816164E-02  0.1312668E+00
        -11   -1    0    0    0    0  0.00000000000E+00  0.00000000000E+00  0.45593999997E+02  0.45594000000E+02  0.51100000000E-03 0.  1.
         11   -1    0    0    0    0 -0.00000000000E+00 -0.00000000000E+00 -0.45593999997E+02  0.45594000000E+02  0.51100000000E-03 0. -1.
    9900012    2    1    2    0    0 -0.24293357607E+02  0.32368317562E+01 -0.35818717270E+02  0.47787253341E+02  0.19999919284E+02 0.  0.
        -12    1    1    2    0    0  0.24293357607E+02 -0.32368317562E+01  0.35818717270E+02  0.43400746659E+02  0.00000000000E+00 0.  1.
         11    1    3    3    0    0 -0.15630103304E+02  0.46115051663E+01 -0.10780192933E+02  0.19539157329E+02  0.51100000000E-03 0.  1.
        -11    1    3    3    0    0 -0.89774310888E+01 -0.16674627089E+01 -0.11414486643E+02  0.14617291351E+02  0.51100000000E-03 0. -1.
        -12    1    3    3    0    0  0.31417678578E+00  0.29278929885E+00 -0.13624037694E+02  0.13630804662E+02  0.00000000000E+00 0.  1.
</event>
<event>
 7    1  0.4356471E-010  0.4778727E+02  0.7816164E-02  0.1312668E+00
        -11   -1    0    0    0    0  0.00000000000E+00  0.00000000000E+00  0.45593999997E+02  0.45594000000E+02  0.51100000000E-03 0. -1.
         11   -1    0    0    0    0 -0.00000000000E+00 -0.00000000000E+00 -0.45593999997E+02  0.45594000000E+02  0.51100000000E-03 0.  1.
    9900012    2    1    2    0    0 -0.40658690025E+02  0.15085742384E+02 -0.17071991655E+01  0.47787271586E+02  0.20000002471E+02 0.  0.
        -12    1    1    2    0    0  0.40658690025E+02 -0.15085742384E+02  0.17071991655E+01  0.43400728414E+02  0.00000000000E+00 0.  1.
         11    1    3    3    0    0 -0.53313430657E+01 -0.12953169102E+01  0.43315996667E+01  0.69902661406E+01  0.51100000000E-03 0. -1.
        -11    1    3    3    0    0 -0.19595628488E+02  0.49849695582E+01 -0.68660007283E+01  0.21353700935E+02  0.51100000000E-03 0.  1.
        -12    1    3    3    0    0 -0.15731718471E+02  0.11396089736E+02  0.82720189612E+00  0.19443304511E+02  0.00000000000E+00 0.  1.
</event>
<event>
 7    1  0.5287684E-010  0.4778727E+02  0.7816164E-02  0.1312668E+00
        -11   -1    0    0    0    0  0.00000000000E+00  0.00000000000E+00  0.45593999997E+02  0.45594000000E+02  0.51100000000E-03 0. -1.
         11   -1    0    0    0    0 -0.00000000000E+00 -0.00000000000E+00 -0.45593999997E+02  0.45594000000E+02  0.51100000000E-03 0.  1.
    9900012    2    1    2    0    0  0.21821108540E+02  0.36279024998E+02 -0.95548320465E+01  0.47787271341E+02  0.20000001351E+02 0.  0.
        -12    1    1    2    0    0 -0.21821108540E+02 -0.36279024998E+02  0.95548320465E+01  0.43400728659E+02  0.00000000000E+00 0.  1.
         11    1    3    3    0    0  0.12636223417E+02  0.15622912821E+02 -0.98490537606E+01  0.22377520138E+02  0.51100000000E-03 0.  1.
        -11    1    3    3    0    0  0.10321366395E+02  0.19034243213E+02 -0.26995861778E+01  0.21820192134E+02  0.51100000000E-03 0. -1.
        -12    1    3    3    0    0 -0.11364812727E+01  0.16218689637E+01  0.29938078919E+01  0.35895590693E+01  0.00000000000E+00 0.  1.
</event>
<event>
 7    1  0.4356471E-010  0.4778727E+02  0.7816164E-02  0.1312668E+00
        -11   -1    0    0    0    0  0.00000000000E+00  0.00000000000E+00  0.45593999997E+02  0.45594000000E+02  0.51100000000E-03 0. -1.
         11   -1    0    0    0    0 -0.00000000000E+00 -0.00000000000E+00 -0.45593999997E+02  0.45594000000E+02  0.51100000000E-03 0.  1.
    9900012    2    1    2    0    0 -0.42325322467E+02  0.92401178079E+01 -0.26097009005E+01  0.47787271460E+02  0.20000001893E+02 0.  0.
        -12    1    1    2    0    0  0.42325322467E+02 -0.92401178079E+01  0.26097009005E+01  0.43400728540E+02  0.00000000000E+00 0.  1.
         11    1    3    3    0    0 -0.17099060081E+02 -0.96929185364E-01 -0.16696308501E+01  0.17180655353E+02  0.51100000000E-03 0.  1.
        -11    1    3    3    0    0 -0.25263855554E+02  0.55469810383E+01 -0.33998847982E+01  0.26088131650E+02  0.51100000000E-03 0. -1.
        -12    1    3    3    0    0  0.37593168002E-01  0.37900659550E+01  0.24598147479E+01  0.45184844565E+01  0.00000000000E+00 0.  1.
</event>
<event>
 7    1  0.4356471E-010  0.4778728E+02  0.7816164E-02  0.1312668E+00
        -11   -1    0    0    0    0  0.00000000000E+00  0.00000000000E+00  0.45593999997E+02  0.45594000000E+02  0.51100000000E-03 0.  1.
         11   -1    0    0    0    0 -0.00000000000E+00 -0.00000000000E+00 -0.45593999997E+02  0.45594000000E+02  0.51100000000E-03 0. -1.
    9900012    2    1    2    0    0 -0.57880220740E+01  0.33205882410E+02 -0.27340281517E+02  0.47787276278E+02  0.20000023862E+02 0.  0.
        -12    1    1    2    0    0  0.57880220740E+01 -0.33205882410E+02  0.27340281517E+02  0.43400723722E+02  0.00000000000E+00 0.  1.
         11    1    3    3    0    0 -0.51713072850E+01  0.24760984966E+01 -0.73204062759E+00  0.57800836103E+01  0.51100000000E-03 0.  1.
        -11    1    3    3    0    0 -0.95801907567E+00  0.29402809310E+01 -0.79580218071E+01  0.85377493431E+01  0.51100000000E-03 0. -1.
        -12    1    3    3    0    0  0.34130428665E+00  0.27789502983E+02 -0.18650219082E+02  0.33469443325E+02  0.00000000000E+00 0.  1.
</event>
<event>
 7    1  0.4356471E-010  0.4778727E+02  0.7816164E-02  0.1312668E+00
        -11   -1    0    0    0    0  0.00000000000E+00  0.00000000000E+00  0.45593999997E+02  0.45594000000E+02  0.51100000000E-03 0. -1.
         11   -1    0    0    0    0 -0.00000000000E+00 -0.00000000000E+00 -0.45593999997E+02  0.45594000000E+02  0.51100000000E-03 0.  1.
    9900012    2    1    2    0    0  0.13602517315E+02 -0.45000701029E+01  0.40967599946E+02  0.47787270127E+02  0.19999995815E+02 0.  0.
        -12    1    1    2    0    0 -0.13602517315E+02  0.45000701029E+01 -0.40967599946E+02  0.43400729873E+02  0.00000000000E+00 0.  1.
         11    1    3    3    0    0  0.49306084113E+01  0.53545630999E+01  0.28201898117E+02  0.29126093163E+02  0.51100000000E-03 0. -1.
        -11    1    3    3    0    0  0.13564458166E+01 -0.35391564393E+01  0.49347447768E+01  0.62223210965E+01  0.51100000000E-03 0.  1.
         12    1    3    3    0    0  0.73154630870E+01 -0.63154767636E+01  0.78309570522E+01  0.12438855867E+02  0.00000000000E+00 0. -1.
</event>
<event>
 7    1  0.4356471E-010  0.4778728E+02  0.7816164E-02  0.1312668E+00
        -11   -1    0    0    0    0  0.00000000000E+00  0.00000000000E+00  0.45593999997E+02  0.45594000000E+02  0.51100000000E-03 0.  1.
         11   -1    0    0    0    0 -0.00000000000E+00 -0.00000000000E+00 -0.45593999997E+02  0.45594000000E+02  0.51100000000E-03 0. -1.
    9900012    2    1    2    0    0  0.23160400736E+02  0.17080321370E+02 -0.32488169336E+02  0.47787277804E+02  0.20000030819E+02 0.  0.
        -12    1    1    2    0    0 -0.23160400736E+02 -0.17080321370E+02  0.32488169336E+02  0.43400722196E+02  0.00000000000E+00 0.  1.
         11    1    3    3    0    0  0.19792858831E+02  0.83091197189E+01 -0.18976156066E+02  0.28651234363E+02  0.51100000000E-03 0. -1.
        -11    1    3    3    0    0  0.60905500321E+01  0.87919264820E+01 -0.96154728346E+01  0.14382283861E+02  0.51100000000E-03 0.  1.
        -12    1    3    3    0    0 -0.27230081276E+01 -0.20724831280E-01 -0.38965404352E+01  0.47537595800E+01  0.00000000000E+00 0.  1.
</event>
<event>
 7    1  0.4356471E-010  0.4778727E+02  0.7816164E-02  0.1312668E+00
        -11   -1    0    0    0    0  0.00000000000E+00  0.00000000000E+00  0.45593999997E+02  0.45594000000E+02  0.51100000000E-03 0.  1.
         11   -1    0    0    0    0 -0.00000000000E+00 -0.00000000000E+00 -0.45593999997E+02  0.45594000000E+02  0.51100000000E-03 0. -1.
    9900012    2    1    2    0    0  0.32781779470E+02 -0.28220645967E+02 -0.35459495521E+01  0.47787266340E+02  0.19999978551E+02 0.  0.
        -12    1    1    2    0    0 -0.32781779470E+02  0.28220645967E+02  0.35459495521E+01  0.43400733660E+02  0.00000000000E+00 0.  1.
         11    1    3    3    0    0  0.52748881866E+01 -0.62668091103E+01  0.20293810678E+01  0.84389412597E+01  0.51100000000E-03 0.  1.
        -11    1    3    3    0    0  0.24832224172E+02 -0.13145886957E+02 -0.90356106883E+01  0.29514334856E+02  0.51100000000E-03 0. -1.
         12    1    3    3    0    0  0.26746671114E+01 -0.88079498994E+01  0.34602800684E+01  0.98339902246E+01  0.00000000000E+00 0. -1.
</event>
<event>
 7    1  0.4356471E-010  0.4778728E+02  0.7816164E-02  0.1312668E+00
        -11   -1    0    0    0    0  0.00000000000E+00  0.00000000000E+00  0.45593999997E+02  0.45594000000E+02  0.51100000000E-03 0.  1.
         11   -1    0    0    0    0 -0.00000000000E+00 -0.00000000000E+00 -0.45593999997E+02  0.45594000000E+02  0.51100000000E-03 0. -1.
    9900012    2    1    2    0    0 -0.18857046681E+02 -0.26887131328E+02 -0.28374580706E+02  0.47787275688E+02  0.20000021170E+02 0.  0.
        -12    1    1    2    0    0  0.18857046681E+02  0.26887131328E+02  0.28374580706E+02  0.43400724312E+02  0.00000000000E+00 0.  1.
         11    1    3    3    0    0 -0.56629159607E+01 -0.19576984987E+02 -0.20941065954E+02  0.29220800843E+02  0.51100000000E-03 0. -1.
        -11    1    3    3    0    0 -0.10684483066E+02 -0.81457029920E+01 -0.82888077268E+01  0.15786544569E+02  0.51100000000E-03 0.  1.
        -12    1    3    3    0    0 -0.25096476543E+01  0.83555665078E+00  0.85529297471E+00  0.27799302758E+01  0.00000000000E+00 0.  1.
</event>
<event>
 7    1  0.4356471E-010  0.4778727E+02  0.7816164E-02  0.1312668E+00
        -11   -1    0    0    0    0  0.00000000000E+00  0.00000000000E+00  0.45593999997E+02  0.45594000000E+02  0.51100000000E-03 0.  1.
         11   -1    0    0    0    0 -0.00000000000E+00 -0.00000000000E+00 -0.45593999997E+02  0.45594000000E+02  0.51100000000E-03 0. -1.
    9900012    2    1    2    0    0  0.65256921776E+01 -0.31023334196E+02 -0.29641043839E+02  0.47787269558E+02  0.19999993222E+02 0.  0.
        -12    1    1    2    0    0 -0.65256921776E+01  0.31023334196E+02  0.29641043839E+02  0.43400730442E+02  0.00000000000E+00 0.  1.
         11    1    3    3    0    0  0.12131835193E+02 -0.21788439929E+02 -0.16255350194E+02  0.29768338043E+02  0.51100000000E-03 0. -1.
        -11    1    3    3    0    0  0.34160061645E-01 -0.33457019096E+01 -0.66422402725E+01  0.74373546559E+01  0.51100000000E-03 0.  1.
         12    1    3    3    0    0 -0.56403030767E+01 -0.58891923576E+01 -0.67434533727E+01  0.10581576858E+02  0.00000000000E+00 0. -1.
</event>
<event>
 7    1  0.4356471E-010  0.4778727E+02  0.7816164E-02  0.1312668E+00
        -11   -1    0    0    0    0  0.00000000000E+00  0.00000000000E+00  0.45593999997E+02  0.45594000000E+02  0.51100000000E-03 0. -1.
         11   -1    0    0    0    0 -0.00000000000E+00 -0.00000000000E+00 -0.45593999997E+02  0.45594000000E+02  0.51100000000E-03 0.  1.
    9900012    2    1    2    0    0  0.40121750467E+01 -0.36213180850E+02  0.23582432021E+02  0.47787272864E+02  0.20000008297E+02 0.  0.
        -12    1    1    2    0    0 -0.40121750467E+01  0.36213180850E+02 -0.23582432021E+02  0.43400727136E+02  0.00000000000E+00 0.  1.
         11    1    3    3    0    0  0.14279324287E+01 -0.22640530552E+02  0.16617608260E+02  0.28120766690E+02  0.51100000000E-03 0. -1.
        -11    1    3    3    0    0 -0.35960525030E+01 -0.55890251061E+01  0.68858583477E+01  0.95699446543E+01  0.51100000000E-03 0.  1.
        -12    1    3    3    0    0  0.61802951210E+01 -0.79836251919E+01  0.78965414033E-01  0.10096561520E+02  0.00000000000E+00 0.  1.
</event>
<event>
 7    1  0.4356471E-010  0.4778728E+02  0.7816164E-02  0.1312668E+00
        -11   -1    0    0    0    0  0.00000000000E+00  0.00000000000E+00  0.45593999997E+02  0.45594000000E+02  0.51100000000E-03 0.  1.
         11   -1    0    0    0    0 -0.00000000000E+00 -0.00000000000E+00 -0.45593999997E+02  0.45594000000E+02  0.51100000000E-03 0. -1.
    9900012    2    1    2    0    0 -0.58167887631E+01 -0.14513990277E+02 -0.40486188433E+02  0.47787281122E+02  0.20000045948E+02 0.  0.
        -12    1    1    2    0    0  0.58167887631E+01  0.14513990277E+02  0.40486188433E+02  0.43400718878E+02  0.00000000000E+00 0.  1.
         11    1    3    3    0    0 -0.76470862989E+01 -0.48504303479E+01 -0.21355022855E+02  0.23195723848E+02  0.51100000000E-03 0. -1.
        -11    1    3    3    0    0  0.63517150491E+00 -0.85573561278E+01 -0.20651750843E+02  0.22363510455E+02  0.51100000000E-03 0.  1.
        -12    1    3    3    0    0  0.11951260309E+01 -0.11062038010E+01  0.15205852650E+01  0.22280468189E+01  0.00000000000E+00 0.  1.
</event>
<event>
 7    1  0.4356471E-010  0.4778727E+02  0.7816164E-02  0.1312668E+00
        -11   -1    0    0    0    0  0.00000000000E+00  0.00000000000E+00  0.45593999997E+02  0.45594000000E+02  0.51100000000E-03 0.  1.
         11   -1    0    0    0    0 -0.00000000000E+00 -0.00000000000E+00 -0.45593999997E+02  0.45594000000E+02  0.51100000000E-03 0. -1.
    9900012    2    1    2    0    0  0.11438417335E+02  0.29622303424E+02 -0.29585556436E+02  0.47787269581E+02  0.19999993327E+02 0.  0.
        -12    1    1    2    0    0 -0.11438417335E+02 -0.29622303424E+02  0.29585556436E+02  0.43400730419E+02  0.00000000000E+00 0.  1.
         11    1    3    3    0    0 -0.37154141733E+01  0.62021455381E+01 -0.89228787139E+01  0.11484279540E+02  0.51100000000E-03 0. -1.
        -11    1    3    3    0    0 -0.98242415721E+00 -0.26472170180E+00 -0.15540427230E+01  0.18574939704E+01  0.51100000000E-03 0.  1.
        -12    1    3    3    0    0  0.16136255666E+02  0.23684879587E+02 -0.19108634999E+02  0.34445496070E+02  0.00000000000E+00 0.  1.
</event>
<event>
 7    1  0.4356471E-010  0.4778727E+02  0.7816164E-02  0.1312668E+00
        -11   -1    0    0    0    0  0.00000000000E+00  0.00000000000E+00  0.45593999997E+02  0.45594000000E+02  0.51100000000E-03 0.  1.
         11   -1    0    0    0    0 -0.00000000000E+00 -0.00000000000E+00 -0.45593999997E+02  0.45594000000E+02  0.51100000000E-03 0. -1.
    9900012    2    1    2    0    0 -0.27884549575E+02  0.31565982505E+02 -0.10472053207E+02  0.47787271263E+02  0.20000000996E+02 0.  0.
        -12    1    1    2    0    0  0.27884549575E+02 -0.31565982505E+02  0.10472053207E+02  0.43400728737E+02  0.00000000000E+00 0.  1.
         11    1    3    3    0    0 -0.98784826624E+00 -0.47626290164E+00 -0.92007351361E+00  0.14315048306E+01  0.51100000000E-03 0. -1.
        -11    1    3    3    0    0 -0.15473953751E+02  0.55765446749E+01 -0.20927436424E+01  0.16580731932E+02  0.51100000000E-03 0.  1.
         12    1    3    3    0    0 -0.11422747558E+02  0.26465700732E+02 -0.74592360510E+01  0.29775034500E+02  0.00000000000E+00 0. -1.
</event>
<event>
 7    1  0.4356471E-010  0.4778727E+02  0.7816164E-02  0.1312668E+00
        -11   -1    0    0    0    0  0.00000000000E+00  0.00000000000E+00  0.45593999997E+02  0.45594000000E+02  0.51100000000E-03 0. -1.
         11   -1    0    0    0    0 -0.00000000000E+00 -0.00000000000E+00 -0.45593999997E+02  0.45594000000E+02  0.51100000000E-03 0.  1.
    9900012    2    1    2    0    0  0.86153228007E+01 -0.41557534417E+02 -0.90758405075E+01  0.47787270344E+02  0.19999996805E+02 0.  0.
        -12    1    1    2    0    0 -0.86153228007E+01  0.41557534417E+02  0.90758405075E+01  0.43400729656E+02  0.00000000000E+00 0.  1.
         11    1    3    3    0    0  0.14948219402E+01 -0.12352554352E+01 -0.30123596202E+01  0.35825492831E+01  0.51100000000E-03 0. -1.
        -11    1    3    3    0    0  0.33237408495E+01 -0.57336870768E+01 -0.66704878233E+01  0.94030754964E+01  0.51100000000E-03 0.  1.
         12    1    3    3    0    0  0.37967600110E+01 -0.34588591905E+02  0.60700693594E+00  0.34801645564E+02  0.00000000000E+00 0. -1.
</event>
<event>
 7    1  0.4356471E-010  0.4778728E+02  0.7816164E-02  0.1312668E+00
        -11   -1    0    0    0    0  0.00000000000E+00  0.00000000000E+00  0.45593999997E+02  0.45594000000E+02  0.51100000000E-03 0. -1.
         11   -1    0    0    0    0 -0.00000000000E+00 -0.00000000000E+00 -0.45593999997E+02  0.45594000000E+02  0.51100000000E-03 0.  1.
    9900012    2    1    2    0    0  0.34623790227E+02 -0.20816080929E+02 -0.15858962931E+02  0.47787276732E+02  0.20000025932E+02 0.  0.
        -12    1    1    2    0    0 -0.34623790227E+02  0.20816080929E+02  0.15858962931E+02  0.43400723268E+02  0.00000000000E+00 0.  1.
         11    1    3    3    0    0  0.10028430771E+02 -0.41845870557E+01 -0.38153185642E+01  0.11516807221E+02  0.51100000000E-03 0. -1.
        -11    1    3    3    0    0  0.10204596183E+01 -0.41180067539E+01  0.33977361566E+01  0.54354327067E+01  0.51100000000E-03 0.  1.
        -12    1    3    3    0    0  0.23574899838E+02 -0.12513487119E+02 -0.15441380524E+02  0.30835036804E+02  0.00000000000E+00 0.  1.
</event>
<event>
 7    1  0.4356471E-010  0.4778727E+02  0.7816164E-02  0.1312668E+00
        -11   -1    0    0    0    0  0.00000000000E+00  0.00000000000E+00  0.45593999997E+02  0.45594000000E+02  0.51100000000E-03 0.  1.
         11   -1    0    0    0    0 -0.00000000000E+00 -0.00000000000E+00 -0.45593999997E+02  0.45594000000E+02  0.51100000000E-03 0. -1.
    9900012    2    1    2    0    0 -0.28498188695E+02 -0.66354395542E+00 -0.32726693370E+02  0.47787268342E+02  0.19999987679E+02 0.  0.
        -12    1    1    2    0    0  0.28498188695E+02  0.66354395542E+00  0.32726693370E+02  0.43400731658E+02  0.00000000000E+00 0.  1.
         11    1    3    3    0    0 -0.75353511570E+01 -0.52746446875E+01 -0.71587802166E+01  0.11655536371E+02  0.51100000000E-03 0. -1.
        -11    1    3    3    0    0 -0.22463973741E+02  0.61613643271E+01 -0.22540887893E+02  0.32414258496E+02  0.51100000000E-03 0.  1.
        -12    1    3    3    0    0  0.15011362023E+01 -0.15502635950E+01 -0.30270252601E+01  0.37174734750E+01  0.00000000000E+00 0.  1.
</event>
<event>
 7    1  0.4356471E-010  0.4778728E+02  0.7816164E-02  0.1312668E+00
        -11   -1    0    0    0    0  0.00000000000E+00  0.00000000000E+00  0.45593999997E+02  0.45594000000E+02  0.51100000000E-03 0.  1.
         11   -1    0    0    0    0 -0.00000000000E+00 -0.00000000000E+00 -0.45593999997E+02  0.45594000000E+02  0.51100000000E-03 0. -1.
    9900012    2    1    2    0    0  0.27615572011E+02 -0.16811965776E+02 -0.28954452102E+02  0.47787282180E+02  0.20000050773E+02 0.  0.
        -12    1    1    2    0    0 -0.27615572011E+02  0.16811965776E+02  0.28954452102E+02  0.43400717820E+02  0.00000000000E+00 0.  1.
         11    1    3    3    0    0  0.73141149180E+00 -0.71123519084E+00 -0.49839595529E+01  0.50873049204E+01  0.51100000000E-03 0. -1.
        -11    1    3    3    0    0  0.13099879069E+02 -0.72214326562E+00 -0.34043747822E+01  0.13554264659E+02  0.51100000000E-03 0.  1.
        -12    1    3    3    0    0  0.13784281450E+02 -0.15378587320E+02 -0.20566117767E+02  0.29145712601E+02  0.00000000000E+00 0.  1.
</event>
<event>
 7    1  0.4356471E-010  0.4778727E+02  0.7816164E-02  0.1312668E+00
        -11   -1    0    0    0    0  0.00000000000E+00  0.00000000000E+00  0.45593999997E+02  0.45594000000E+02  0.51100000000E-03 0.  1.
         11   -1    0    0    0    0 -0.00000000000E+00 -0.00000000000E+00 -0.45593999997E+02  0.45594000000E+02  0.51100000000E-03 0. -1.
    9900012    2    1    2    0    0 -0.20889981508E+02  0.28263490571E+02  0.25463839924E+02  0.47787269933E+02  0.19999994934E+02 0.  0.
        -12    1    1    2    0    0  0.20889981508E+02 -0.28263490571E+02 -0.25463839924E+02  0.43400730067E+02  0.00000000000E+00 0.  1.
         11    1    3    3    0    0 -0.12445984546E+02  0.15258565953E+02  0.21795016255E+02  0.29372590967E+02  0.51100000000E-03 0. -1.
        -11    1    3    3    0    0 -0.67993216324E+00  0.84689829576E+01  0.40552648150E+01  0.94144119871E+01  0.51100000000E-03 0.  1.
        -12    1    3    3    0    0 -0.77640647990E+01  0.45359416599E+01 -0.38644114624E+00  0.90002669796E+01  0.00000000000E+00 0.  1.
</event>
<event>
 7    1  0.4356471E-010  0.4778727E+02  0.7816164E-02  0.1312668E+00
        -11   -1    0    0    0    0  0.00000000000E+00  0.00000000000E+00  0.45593999997E+02  0.45594000000E+02  0.51100000000E-03 0.  1.
         11   -1    0    0    0    0 -0.00000000000E+00 -0.00000000000E+00 -0.45593999997E+02  0.45594000000E+02  0.51100000000E-03 0. -1.
    9900012    2    1    2    0    0  0.19321315306E+02 -0.16154532002E+02 -0.35346016293E+02  0.47787274233E+02  0.20000014536E+02 0.  0.
        -12    1    1    2    0    0 -0.19321315306E+02  0.16154532002E+02  0.35346016293E+02  0.43400725767E+02  0.00000000000E+00 0.  1.
         11    1    3    3    0    0  0.10974699603E+02 -0.37315530851E+01 -0.89767394178E+01  0.14661185854E+02  0.51100000000E-03 0. -1.
        -11    1    3    3    0    0  0.48359508634E+01  0.21834980701E+00 -0.16030066924E+01  0.50993850716E+01  0.51100000000E-03 0.  1.
        -12    1    3    3    0    0  0.35106648401E+01 -0.12641328724E+02 -0.24766270183E+02  0.28026703307E+02  0.00000000000E+00 0.  1.
</event>
<event>
 7    1  0.4356471E-010  0.4778727E+02  0.7816164E-02  0.1312668E+00
        -11   -1    0    0    0    0  0.00000000000E+00  0.00000000000E+00  0.45593999997E+02  0.45594000000E+02  0.51100000000E-03 0. -1.
         11   -1    0    0    0    0 -0.00000000000E+00 -0.00000000000E+00 -0.45593999997E+02  0.45594000000E+02  0.51100000000E-03 0.  1.
    9900012    2    1    2    0    0 -0.11495258819E+02 -0.14882699496E+02  0.39115053999E+02  0.47787272253E+02  0.20000005512E+02 0.  0.
        -12    1    1    2    0    0  0.11495258819E+02  0.14882699496E+02 -0.39115053999E+02  0.43400727747E+02  0.00000000000E+00 0.  1.
         11    1    3    3    0    0 -0.40847355538E+01 -0.57814054110E+01  0.17745296834E+02  0.19105111176E+02  0.51100000000E-03 0. -1.
        -11    1    3    3    0    0 -0.52069119838E+01 -0.53604066602E+01  0.22892362502E+02  0.24081240689E+02  0.51100000000E-03 0.  1.
        -12    1    3    3    0    0 -0.22036112810E+01 -0.37408874251E+01 -0.15226053367E+01  0.46009203879E+01  0.00000000000E+00 0.  1.
</event>
<event>
 7    1  0.4356471E-010  0.4778727E+02  0.7816164E-02  0.1312668E+00
        -11   -1    0    0    0    0  0.00000000000E+00  0.00000000000E+00  0.45593999997E+02  0.45594000000E+02  0.51100000000E-03 0. -1.
         11   -1    0    0    0    0 -0.00000000000E+00 -0.00000000000E+00 -0.45593999997E+02  0.45594000000E+02  0.51100000000E-03 0.  1.
    9900012    2    1    2    0    0 -0.22241863368E+02  0.29343655205E+02  0.22975484860E+02  0.47787268538E+02  0.19999988572E+02 0.  0.
        -12    1    1    2    0    0  0.22241863368E+02 -0.29343655205E+02 -0.22975484860E+02  0.43400731462E+02  0.00000000000E+00 0.  1.
         11    1    3    3    0    0 -0.73828193696E+01  0.11919168321E+02  0.98995495620E+01  0.17163148811E+02  0.51100000000E-03 0. -1.
        -11    1    3    3    0    0 -0.33778435051E+01  0.15108591234E+02  0.45474675486E+01  0.16135638110E+02  0.51100000000E-03 0.  1.
        -12    1    3    3    0    0 -0.11481200493E+02  0.23158956499E+01  0.85284677498E+01  0.14488481618E+02  0.00000000000E+00 0.  1.
</event>
<event>
 7    1  0.4356471E-010  0.4778727E+02  0.7816164E-02  0.1312668E+00
        -11   -1    0    0    0    0  0.00000000000E+00  0.00000000000E+00  0.45593999997E+02  0.45594000000E+02  0.51100000000E-03 0. -1.
         11   -1    0    0    0    0 -0.00000000000E+00 -0.00000000000E+00 -0.45593999997E+02  0.45594000000E+02  0.51100000000E-03 0.  1.
    9900012    2    1    2    0    0 -0.36823280999E+01 -0.16203700003E+02  0.40093689643E+02  0.47787269785E+02  0.19999994256E+02 0.  0.
        -12    1    1    2    0    0  0.36823280999E+01  0.16203700003E+02 -0.40093689643E+02  0.43400730215E+02  0.00000000000E+00 0.  1.
         11    1    3    3    0    0 -0.72509436451E+01 -0.21131878620E+01  0.17895005360E+02  0.19423515742E+02  0.51100000000E-03 0. -1.
        -11    1    3    3    0    0  0.26321444205E+01  0.59852343833E+00  0.19468943789E+01  0.33281845713E+01  0.51100000000E-03 0.  1.
         12    1    3    3    0    0  0.93647112468E+00 -0.14689035580E+02  0.20251789904E+02  0.25035569471E+02  0.00000000000E+00 0. -1.
</event>
<event>
 7    1  0.4356471E-010  0.4778727E+02  0.7816164E-02  0.1312668E+00
        -11   -1    0    0    0    0  0.00000000000E+00  0.00000000000E+00  0.45593999997E+02  0.45594000000E+02  0.51100000000E-03 0.  1.
         11   -1    0    0    0    0 -0.00000000000E+00 -0.00000000000E+00 -0.45593999997E+02  0.45594000000E+02  0.51100000000E-03 0. -1.
    9900012    2    1    2    0    0  0.13959399722E+01 -0.43220181406E+02 -0.37000761257E+01  0.47787270829E+02  0.19999999020E+02 0.  0.
        -12    1    1    2    0    0 -0.13959399722E+01  0.43220181406E+02  0.37000761257E+01  0.43400729171E+02  0.00000000000E+00 0.  1.
         11    1    3    3    0    0 -0.15338012272E+01 -0.42929256337E+01 -0.45302556811E+01  0.64268945454E+01  0.51100000000E-03 0. -1.
        -11    1    3    3    0    0  0.10704753961E+01  0.10046478140E+00 -0.19106336661E+01  0.21923804445E+01  0.51100000000E-03 0.  1.
        -12    1    3    3    0    0  0.18592658033E+01 -0.39027720554E+02  0.27408132216E+01  0.39167995840E+02  0.00000000000E+00 0.  1.
</event>
<event>
 7    1  0.4356471E-010  0.4778727E+02  0.7816164E-02  0.1312668E+00
        -11   -1    0    0    0    0  0.00000000000E+00  0.00000000000E+00  0.45593999997E+02  0.45594000000E+02  0.51100000000E-03 0. -1.
         11   -1    0    0    0    0 -0.00000000000E+00 -0.00000000000E+00 -0.45593999997E+02  0.45594000000E+02  0.51100000000E-03 0.  1.
    9900012    2    1    2    0    0 -0.71169449881E+01 -0.38102243562E+02  0.19524128844E+02  0.47787268698E+02  0.19999989301E+02 0.  0.
        -12    1    1    2    0    0  0.71169449881E+01  0.38102243562E+02 -0.19524128844E+02  0.43400731302E+02  0.00000000000E+00 0.  1.
         11    1    3    3    0    0 -0.33515027307E+01 -0.88550364251E+01  0.94728397309E+01  0.13393242082E+02  0.51100000000E-03 0. -1.
        -11    1    3    3    0    0  0.23909320566E+01  0.37250768803E+00  0.18597599568E+01  0.30518888307E+01  0.51100000000E-03 0.  1.
        -12    1    3    3    0    0 -0.61563743140E+01 -0.29619714825E+02  0.81915291565E+01  0.31342137785E+02  0.00000000000E+00 0.  1.
</event>
<event>
 7    1  0.4754117E-010  0.4778728E+02  0.7816164E-02  0.1312668E+00
        -11   -1    0    0    0    0  0.00000000000E+00  0.00000000000E+00  0.45593999997E+02  0.45594000000E+02  0.51100000000E-03 0.  1.
         11   -1    0    0    0    0 -0.00000000000E+00 -0.00000000000E+00 -0.45593999997E+02  0.45594000000E+02  0.51100000000E-03 0. -1.
    9900012    2    1    2    0    0 -0.40815791171E+02  0.24037064726E+01 -0.14557342709E+02  0.47787276038E+02  0.20000022766E+02 0.  0.
        -12    1    1    2    0    0  0.40815791171E+02 -0.24037064726E+01  0.14557342709E+02  0.43400723962E+02  0.00000000000E+00 0.  1.
         11    1    3    3    0    0 -0.16683442503E+02  0.14020834217E+01 -0.77574384816E+01  0.18452125724E+02  0.51100000000E-03 0. -1.
        -11    1    3    3    0    0 -0.15179456465E+02  0.37477426926E-01 -0.11624668890E+02  0.19119367934E+02  0.51100000000E-03 0.  1.
        -12    1    3    3    0    0 -0.89528922025E+01  0.96414562393E+00  0.48247646625E+01  0.10215782379E+02  0.00000000000E+00 0.  1.
</event>
<event>
 7    1  0.4356471E-010  0.4778727E+02  0.7816164E-02  0.1312668E+00
        -11   -1    0    0    0    0  0.00000000000E+00  0.00000000000E+00  0.45593999997E+02  0.45594000000E+02  0.51100000000E-03 0.  1.
         11   -1    0    0    0    0 -0.00000000000E+00 -0.00000000000E+00 -0.45593999997E+02  0.45594000000E+02  0.51100000000E-03 0. -1.
    9900012    2    1    2    0    0  0.22062014427E+02  0.18134960562E+02 -0.32680484599E+02  0.47787270181E+02  0.19999996065E+02 0.  0.
        -12    1    1    2    0    0 -0.22062014427E+02 -0.18134960562E+02  0.32680484599E+02  0.43400729819E+02  0.00000000000E+00 0.  1.
         11    1    3    3    0    0  0.25019817612E+01  0.51657936696E+01 -0.68249243230E+01  0.89176751031E+01  0.51100000000E-03 0. -1.
        -11    1    3    3    0    0 -0.27119349307E+01 -0.30042738374E+00 -0.45836209195E+01  0.53342692729E+01  0.51100000000E-03 0.  1.
         12    1    3    3    0    0  0.22271967597E+02  0.13269594276E+02 -0.21271939357E+02  0.33535325805E+02  0.00000000000E+00 0. -1.
</event>
<event>
 7    1  0.4356471E-010  0.4778727E+02  0.7816164E-02  0.1312668E+00
        -11   -1    0    0    0    0  0.00000000000E+00  0.00000000000E+00  0.45593999997E+02  0.45594000000E+02  0.51100000000E-03 0. -1.
         11   -1    0    0    0    0 -0.00000000000E+00 -0.00000000000E+00 -0.45593999997E+02  0.45594000000E+02  0.51100000000E-03 0.  1.
    9900012    2    1    2    0    0 -0.93801845096E+00 -0.27894130374E+02  0.33236441609E+02  0.47787269145E+02  0.19999991338E+02 0.  0.
        -12    1    1    2    0    0  0.93801845096E+00  0.27894130374E+02 -0.33236441609E+02  0.43400730855E+02  0.00000000000E+00 0.  1.
         11    1    3    3    0    0  0.46408054581E+00 -0.21837527639E+01 -0.27566999592E+00  0.22494757377E+01  0.51100000000E-03 0. -1.
        -11    1    3    3    0    0  0.27265532791E+01 -0.52071001462E+01 -0.18159934537E+00  0.58805580773E+01  0.51100000000E-03 0.  1.
         12    1    3    3    0    0 -0.41286522759E+01 -0.20503277464E+02  0.33693710950E+02  0.39657235330E+02  0.00000000000E+00 0. -1.
</event>
<event>
 7    1  0.4356471E-010  0.4778727E+02  0.7816164E-02  0.1312668E+00
        -11   -1    0    0    0    0  0.00000000000E+00  0.00000000000E+00  0.45593999997E+02  0.45594000000E+02  0.51100000000E-03 0. -1.
         11   -1    0    0    0    0 -0.00000000000E+00 -0.00000000000E+00 -0.45593999997E+02  0.45594000000E+02  0.51100000000E-03 0.  1.
    9900012    2    1    2    0    0  0.17800262883E+02  0.20871078856E+02  0.33632907642E+02  0.47787265354E+02  0.19999974056E+02 0.  0.
        -12    1    1    2    0    0 -0.17800262883E+02 -0.20871078856E+02 -0.33632907642E+02  0.43400734646E+02  0.00000000000E+00 0.  1.
         11    1    3    3    0    0  0.18235044490E+02  0.22703236067E+02  0.30536317983E+02  0.42195029230E+02  0.51100000000E-03 0. -1.
        -11    1    3    3    0    0 -0.82713042831E+00  0.12629132375E+01  0.12988252484E+01  0.19914923745E+01  0.51100000000E-03 0.  1.
         12    1    3    3    0    0  0.39234882172E+00 -0.30950704481E+01  0.17977644102E+01  0.36007437498E+01  0.00000000000E+00 0. -1.
</event>
<event>
 7    1  0.4356471E-010  0.4778727E+02  0.7816164E-02  0.1312668E+00
        -11   -1    0    0    0    0  0.00000000000E+00  0.00000000000E+00  0.45593999997E+02  0.45594000000E+02  0.51100000000E-03 0.  1.
         11   -1    0    0    0    0 -0.00000000000E+00 -0.00000000000E+00 -0.45593999997E+02  0.45594000000E+02  0.51100000000E-03 0. -1.
    9900012    2    1    2    0    0 -0.85698197764E+01 -0.28603527504E+02 -0.31496344690E+02  0.47787270450E+02  0.19999997290E+02 0.  0.
        -12    1    1    2    0    0  0.85698197764E+01  0.28603527504E+02  0.31496344690E+02  0.43400729550E+02  0.00000000000E+00 0.  1.
         11    1    3    3    0    0  0.47804866432E+00 -0.40899481595E+00 -0.54076269294E+01  0.54441010786E+01  0.51100000000E-03 0. -1.
        -11    1    3    3    0    0  0.33723787805E+01 -0.45574230438E+01 -0.90148526600E+01  0.10649441872E+02  0.51100000000E-03 0.  1.
         12    1    3    3    0    0 -0.12420247221E+02 -0.23637109644E+02 -0.17073865100E+02  0.31693727500E+02  0.00000000000E+00 0. -1.
</event>
<event>
 7    1  0.4356471E-010  0.4778726E+02  0.7816164E-02  0.1312668E+00
        -11   -1    0    0    0    0  0.00000000000E+00  0.00000000000E+00  0.45593999997E+02  0.45594000000E+02  0.51100000000E-03 0.  1.
         11   -1    0    0    0    0 -0.00000000000E+00 -0.00000000000E+00 -0.45593999997E+02  0.45594000000E+02  0.51100000000E-03 0. -1.
    9900012    2    1    2    0    0 -0.40478389952E+02  0.58917215997E+01 -0.14505589253E+02  0.47787256273E+02  0.19999932650E+02 0.  0.
        -12    1    1    2    0    0  0.40478389952E+02 -0.58917215997E+01  0.14505589253E+02  0.43400743727E+02  0.00000000000E+00 0.  1.
         11    1    3    3    0    0 -0.23090812131E+02  0.75558231914E+00 -0.65697650630E+01  0.24019124104E+02  0.51100000000E-03 0. -1.
        -11    1    3    3    0    0 -0.17035451633E+02  0.70344788483E+01 -0.32698850406E+01  0.18718510983E+02  0.51100000000E-03 0.  1.
        -12    1    3    3    0    0 -0.35212618829E+00 -0.18983395678E+01 -0.46659391493E+01  0.50496211850E+01  0.00000000000E+00 0.  1.
</event>
<event>
 7    1  0.4356471E-010  0.4778727E+02  0.7816164E-02  0.1312668E+00
        -11   -1    0    0    0    0  0.00000000000E+00  0.00000000000E+00  0.45593999997E+02  0.45594000000E+02  0.51100000000E-03 0. -1.
         11   -1    0    0    0    0 -0.00000000000E+00 -0.00000000000E+00 -0.45593999997E+02  0.45594000000E+02  0.51100000000E-03 0.  1.
    9900012    2    1    2    0    0  0.37565963283E+02 -0.21727194437E+02 -0.59214161499E+00  0.47787271813E+02  0.20000003505E+02 0.  0.
        -12    1    1    2    0    0 -0.37565963283E+02  0.21727194437E+02  0.59214161499E+00  0.43400728187E+02  0.00000000000E+00 0.  1.
         11    1    3    3    0    0  0.14043726878E+02 -0.82413028978E+01  0.78241270912E+01  0.18065500355E+02  0.51100000000E-03 0. -1.
        -11    1    3    3    0    0  0.90237983381E+01 -0.93068022324E+01 -0.12669616047E+01  0.13025002734E+02  0.51100000000E-03 0.  1.
        -12    1    3    3    0    0  0.14498438067E+02 -0.41790893065E+01 -0.71493071015E+01  0.16696768725E+02  0.00000000000E+00 0.  1.
</event>
<event>
 7    1  0.4356471E-010  0.4778726E+02  0.7816164E-02  0.1312668E+00
        -11   -1    0    0    0    0  0.00000000000E+00  0.00000000000E+00  0.45593999997E+02  0.45594000000E+02  0.51100000000E-03 0.  1.
         11   -1    0    0    0    0 -0.00000000000E+00 -0.00000000000E+00 -0.45593999997E+02  0.45594000000E+02  0.51100000000E-03 0. -1.
    9900012    2    1    2    0    0  0.15737879331E+01 -0.11525376922E+00 -0.43372039405E+02  0.47787263900E+02  0.19999967427E+02 0.  0.
        -12    1    1    2    0    0 -0.15737879331E+01  0.11525376922E+00  0.43372039405E+02  0.43400736100E+02  0.00000000000E+00 0.  1.
         11    1    3    3    0    0  0.17899582282E+01 -0.20843710580E+01 -0.29624802290E+01  0.40404012838E+01  0.51100000000E-03 0. -1.
        -11    1    3    3    0    0 -0.39933318698E+01 -0.39434426855E+01 -0.46002577895E+01  0.72567080434E+01  0.51100000000E-03 0.  1.
         12    1    3    3    0    0  0.37771615747E+01  0.59125599743E+01 -0.35809301386E+02  0.36490154573E+02  0.00000000000E+00 0. -1.
</event>
<event>
 7    1  0.4356471E-010  0.4778727E+02  0.7816164E-02  0.1312668E+00
        -11   -1    0    0    0    0  0.00000000000E+00  0.00000000000E+00  0.45593999997E+02  0.45594000000E+02  0.51100000000E-03 0. -1.
         11   -1    0    0    0    0 -0.00000000000E+00 -0.00000000000E+00 -0.45593999997E+02  0.45594000000E+02  0.51100000000E-03 0.  1.
    9900012    2    1    2    0    0  0.32955202643E+02 -0.73443269396E+01  0.27269743954E+02  0.47787268961E+02  0.19999990500E+02 0.  0.
        -12    1    1    2    0    0 -0.32955202643E+02  0.73443269396E+01 -0.27269743954E+02  0.43400731039E+02  0.00000000000E+00 0.  1.
         11    1    3    3    0    0  0.14252540987E+02 -0.72298071414E+01  0.11193151811E+02  0.19511321933E+02  0.51100000000E-03 0. -1.
        -11    1    3    3    0    0  0.19269192185E+02 -0.23430629176E+01  0.10119659422E+02  0.21890619415E+02  0.51100000000E-03 0.  1.
        -12    1    3    3    0    0 -0.56653052828E+00  0.22285431194E+01  0.59569327210E+01  0.63853276124E+01  0.00000000000E+00 0.  1.
</event>
<event>
 7    1  0.4356471E-010  0.4778727E+02  0.7816164E-02  0.1312668E+00
        -11   -1    0    0    0    0  0.00000000000E+00  0.00000000000E+00  0.45593999997E+02  0.45594000000E+02  0.51100000000E-03 0.  1.
         11   -1    0    0    0    0 -0.00000000000E+00 -0.00000000000E+00 -0.45593999997E+02  0.45594000000E+02  0.51100000000E-03 0. -1.
    9900012    2    1    2    0    0  0.11056921961E+02 -0.25282478770E+02 -0.33498718768E+02  0.47787269417E+02  0.19999992580E+02 0.  0.
        -12    1    1    2    0    0 -0.11056921961E+02  0.25282478770E+02  0.33498718768E+02  0.43400730583E+02  0.00000000000E+00 0.  1.
         11    1    3    3    0    0  0.89583833496E+01 -0.10767742681E+02 -0.18247647683E+02  0.23003772754E+02  0.51100000000E-03 0. -1.
        -11    1    3    3    0    0 -0.51316180489E+00 -0.25279910674E+01 -0.11744178506E+02  0.12024134185E+02  0.51100000000E-03 0.  1.
        -12    1    3    3    0    0  0.26117004163E+01 -0.11986745021E+02 -0.35068925800E+01  0.12759362478E+02  0.00000000000E+00 0.  1.
</event>
<event>
 7    1  0.4356471E-010  0.4778727E+02  0.7816164E-02  0.1312668E+00
        -11   -1    0    0    0    0  0.00000000000E+00  0.00000000000E+00  0.45593999997E+02  0.45594000000E+02  0.51100000000E-03 0.  1.
         11   -1    0    0    0    0 -0.00000000000E+00 -0.00000000000E+00 -0.45593999997E+02  0.45594000000E+02  0.51100000000E-03 0. -1.
    9900012    2    1    2    0    0 -0.36989539610E+02  0.34753715136E+01 -0.22434776308E+02  0.47787269180E+02  0.19999991498E+02 0.  0.
        -12    1    1    2    0    0  0.36989539610E+02 -0.34753715136E+01  0.22434776308E+02  0.43400730820E+02  0.00000000000E+00 0.  1.
         11    1    3    3    0    0 -0.92848322881E+01  0.60636811024E+01 -0.14607141574E+01  0.11185259284E+02  0.51100000000E-03 0. -1.
        -11    1    3    3    0    0 -0.10483957863E+02  0.34180592612E+01 -0.11926215788E+02  0.16242879205E+02  0.51100000000E-03 0.  1.
        -12    1    3    3    0    0 -0.17220749460E+02 -0.60063688500E+01 -0.90478463626E+01  0.20359130691E+02  0.00000000000E+00 0.  1.
</event>
<event>
 7    1  0.4356471E-010  0.4778727E+02  0.7816164E-02  0.1312668E+00
        -11   -1    0    0    0    0  0.00000000000E+00  0.00000000000E+00  0.45593999997E+02  0.45594000000E+02  0.51100000000E-03 0. -1.
         11   -1    0    0    0    0 -0.00000000000E+00 -0.00000000000E+00 -0.45593999997E+02  0.45594000000E+02  0.51100000000E-03 0.  1.
    9900012    2    1    2    0    0  0.26411280231E+02 -0.34279614059E+02 -0.33129477369E+01  0.47787270902E+02  0.19999999352E+02 0.  0.
        -12    1    1    2    0    0 -0.26411280231E+02  0.34279614059E+02  0.33129477369E+01  0.43400729098E+02  0.00000000000E+00 0.  1.
         11    1    3    3    0    0  0.12367546425E+01 -0.56819819601E+01 -0.39876902053E+01  0.70509683360E+01  0.51100000000E-03 0. -1.
        -11    1    3    3    0    0  0.14766850269E+02 -0.23495182587E+02 -0.43746546448E+01  0.28093078777E+02  0.51100000000E-03 0.  1.
         12    1    3    3    0    0  0.10407675319E+02 -0.51024495123E+01  0.50493971132E+01  0.12643223789E+02  0.00000000000E+00 0. -1.
</event>
<event>
 7    1  0.4356471E-010  0.4778727E+02  0.7816164E-02  0.1312668E+00
        -11   -1    0    0    0    0  0.00000000000E+00  0.00000000000E+00  0.45593999997E+02  0.45594000000E+02  0.51100000000E-03 0.  1.
         11   -1    0    0    0    0 -0.00000000000E+00 -0.00000000000E+00 -0.45593999997E+02  0.45594000000E+02  0.51100000000E-03 0. -1.
    9900012    2    1    2    0    0  0.19579158136E+01  0.42800797974E+01 -0.43144764156E+02  0.47787271994E+02  0.20000004330E+02 0.  0.
        -12    1    1    2    0    0 -0.19579158136E+01 -0.42800797974E+01  0.43144764156E+02  0.43400728006E+02  0.00000000000E+00 0.  1.
         11    1    3    3    0    0  0.36099516523E+01  0.29280830696E+01 -0.49342866363E+01  0.67788351702E+01  0.51100000000E-03 0. -1.
        -11    1    3    3    0    0  0.33371107936E+01 -0.40220141455E+01 -0.59243831392E+01  0.79000773462E+01  0.51100000000E-03 0.  1.
         12    1    3    3    0    0 -0.49891466324E+01  0.53740108733E+01 -0.32286094380E+02  0.33108359478E+02  0.00000000000E+00 0. -1.
</event>
<event>
 7    1  0.4356471E-010  0.4778728E+02  0.7816164E-02  0.1312668E+00
        -11   -1    0    0    0    0  0.00000000000E+00  0.00000000000E+00  0.45593999997E+02  0.45594000000E+02  0.51100000000E-03 0.  1.
         11   -1    0    0    0    0 -0.00000000000E+00 -0.00000000000E+00 -0.45593999997E+02  0.45594000000E+02  0.51100000000E-03 0. -1.
    9900012    2    1    2    0    0  0.14486357364E+02  0.20781669008E+02 -0.35240463282E+02  0.47787279168E+02  0.20000037038E+02 0.  0.
        -12    1    1    2    0    0 -0.14486357364E+02 -0.20781669008E+02  0.35240463282E+02  0.43400720832E+02  0.00000000000E+00 0.  1.
         11    1    3    3    0    0  0.89308714640E+01  0.37890554367E+01 -0.50329294099E+01  0.10929217031E+02  0.51100000000E-03 0. -1.
        -11    1    3    3    0    0  0.32919613545E+01  0.82111681316E+01 -0.52105032749E+01  0.10266919513E+02  0.51100000000E-03 0.  1.
         12    1    3    3    0    0  0.22635245458E+01  0.87814454400E+01 -0.24997030597E+02  0.26591142624E+02  0.00000000000E+00 0. -1.
</event>
<event>
 7    1  0.4356471E-010  0.4778727E+02  0.7816164E-02  0.1312668E+00
        -11   -1    0    0    0    0  0.00000000000E+00  0.00000000000E+00  0.45593999997E+02  0.45594000000E+02  0.51100000000E-03 0.  1.
         11   -1    0    0    0    0 -0.00000000000E+00 -0.00000000000E+00 -0.45593999997E+02  0.45594000000E+02  0.51100000000E-03 0. -1.
    9900012    2    1    2    0    0  0.11168856409E+02  0.65105727089E+01 -0.41430572847E+02  0.47787271009E+02  0.19999999840E+02 0.  0.
        -12    1    1    2    0    0 -0.11168856409E+02 -0.65105727089E+01  0.41430572847E+02  0.43400728991E+02  0.00000000000E+00 0.  1.
         11    1    3    3    0    0 -0.32828229235E+01  0.36375838358E+01 -0.10057369792E+02  0.11187476476E+02  0.51100000000E-03 0. -1.
        -11    1    3    3    0    0  0.24418229603E+01  0.19679163640E+01 -0.15618578900E+00  0.31399981603E+01  0.51100000000E-03 0.  1.
        -12    1    3    3    0    0  0.12009856372E+02  0.90507250916E+00 -0.31217017266E+02  0.33459796373E+02  0.00000000000E+00 0.  1.
</event>
<event>
 7    1  0.4356471E-010  0.4778727E+02  0.7816164E-02  0.1312668E+00
        -11   -1    0    0    0    0  0.00000000000E+00  0.00000000000E+00  0.45593999997E+02  0.45594000000E+02  0.51100000000E-03 0.  1.
         11   -1    0    0    0    0 -0.00000000000E+00 -0.00000000000E+00 -0.45593999997E+02  0.45594000000E+02  0.51100000000E-03 0. -1.
    9900012    2    1    2    0    0  0.15884040769E+02 -0.28013812207E+02 -0.29095477693E+02  0.47787271346E+02  0.20000001375E+02 0.  0.
        -12    1    1    2    0    0 -0.15884040769E+02  0.28013812207E+02  0.29095477693E+02  0.43400728654E+02  0.00000000000E+00 0.  1.
         11    1    3    3    0    0  0.51871679212E+01 -0.13127279016E+02 -0.76170159209E+01  0.16039049137E+02  0.51100000000E-03 0. -1.
        -11    1    3    3    0    0  0.13348296194E+02 -0.15655235716E+02 -0.19550102194E+02  0.28380801833E+02  0.51100000000E-03 0.  1.
        -12    1    3    3    0    0 -0.26514233463E+01  0.76870252464E+00 -0.19283595775E+01  0.33674203766E+01  0.00000000000E+00 0.  1.
</event>
<event>
 7    1  0.4356471E-010  0.4778726E+02  0.7816164E-02  0.1312668E+00
        -11   -1    0    0    0    0  0.00000000000E+00  0.00000000000E+00  0.45593999997E+02  0.45594000000E+02  0.51100000000E-03 0.  1.
         11   -1    0    0    0    0 -0.00000000000E+00 -0.00000000000E+00 -0.45593999997E+02  0.45594000000E+02  0.51100000000E-03 0. -1.
    9900012    2    1    2    0    0  0.29850679660E+02 -0.12729382690E+02 -0.28818807411E+02  0.47787263596E+02  0.19999966038E+02 0.  0.
        -12    1    1    2    0    0 -0.29850679660E+02  0.12729382690E+02  0.28818807411E+02  0.43400736404E+02  0.00000000000E+00 0.  1.
         11    1    3    3    0    0  0.22659691913E+02 -0.36378937876E+01 -0.22234831679E+02  0.31954399523E+02  0.51100000000E-03 0. -1.
        -11    1    3    3    0    0  0.58683344375E+01 -0.77419199428E+00 -0.20231129701E+01  0.62553743825E+01  0.51100000000E-03 0.  1.
        -12    1    3    3    0    0  0.13226533097E+01 -0.83172969085E+01 -0.45608627620E+01  0.95774896907E+01  0.00000000000E+00 0.  1.
</event>
<event>
 7    1  0.4356471E-010  0.4778727E+02  0.7816164E-02  0.1312668E+00
        -11   -1    0    0    0    0  0.00000000000E+00  0.00000000000E+00  0.45593999997E+02  0.45594000000E+02  0.51100000000E-03 0.  1.
         11   -1    0    0    0    0 -0.00000000000E+00 -0.00000000000E+00 -0.45593999997E+02  0.45594000000E+02  0.51100000000E-03 0. -1.
    9900012    2    1    2    0    0 -0.17473928064E+02 -0.14419935382E+01 -0.39701460897E+02  0.47787268385E+02  0.19999987873E+02 0.  0.
        -12    1    1    2    0    0  0.17473928064E+02  0.14419935382E+01  0.39701460897E+02  0.43400731615E+02  0.00000000000E+00 0.  1.
         11    1    3    3    0    0 -0.50483541361E+01  0.36045755283E+01 -0.20070590812E+02  0.21007319201E+02  0.51100000000E-03 0. -1.
        -11    1    3    3    0    0  0.17658742644E-01  0.10247866183E+01  0.13177324463E+01  0.16694066328E+01  0.51100000000E-03 0.  1.
        -12    1    3    3    0    0 -0.12443232671E+02 -0.60713556848E+01 -0.20948602532E+02  0.25110542550E+02  0.00000000000E+00 0.  1.
</event>
<event>
 7    1  0.4356471E-010  0.4778727E+02  0.7816164E-02  0.1312668E+00
        -11   -1    0    0    0    0  0.00000000000E+00  0.00000000000E+00  0.45593999997E+02  0.45594000000E+02  0.51100000000E-03 0.  1.
         11   -1    0    0    0    0 -0.00000000000E+00 -0.00000000000E+00 -0.45593999997E+02  0.45594000000E+02  0.51100000000E-03 0. -1.
    9900012    2    1    2    0    0 -0.33090949299E+02  0.18879491959E+02 -0.20788878292E+02  0.47787267256E+02  0.19999982726E+02 0.  0.
        -12    1    1    2    0    0  0.33090949299E+02 -0.18879491959E+02  0.20788878292E+02  0.43400732744E+02  0.00000000000E+00 0.  1.
         11    1    3    3    0    0 -0.24008354883E+01  0.39755906834E+01 -0.39779967555E+01  0.61150462608E+01  0.51100000000E-03 0. -1.
        -11    1    3    3    0    0 -0.22325047382E+02  0.13608501688E+02 -0.41956425635E+01  0.26480228012E+02  0.51100000000E-03 0.  1.
        -12    1    3    3    0    0 -0.83650664284E+01  0.12953995872E+01 -0.12615238973E+02  0.15191992983E+02  0.00000000000E+00 0.  1.
</event>
<event>
 7    1  0.4356471E-010  0.4778729E+02  0.7816164E-02  0.1312668E+00
        -11   -1    0    0    0    0  0.00000000000E+00  0.00000000000E+00  0.45593999997E+02  0.45594000000E+02  0.51100000000E-03 0.  1.
         11   -1    0    0    0    0 -0.00000000000E+00 -0.00000000000E+00 -0.45593999997E+02  0.45594000000E+02  0.51100000000E-03 0. -1.
    9900012    2    1    2    0    0 -0.36277378203E+01  0.19393015346E+02 -0.38657114628E+02  0.47787285291E+02  0.20000064955E+02 0.  0.
        -12    1    1    2    0    0  0.36277378203E+01 -0.19393015346E+02  0.38657114628E+02  0.43400714709E+02  0.00000000000E+00 0.  1.
         11    1    3    3    0    0  0.10439542056E+01  0.10163934816E+02 -0.15540075900E+02  0.18598101262E+02  0.51100000000E-03 0. -1.
        -11    1    3    3    0    0  0.42535133837E+01  0.46399686878E+01 -0.36211956020E+01  0.72618691381E+01  0.51100000000E-03 0.  1.
         12    1    3    3    0    0 -0.89252054095E+01  0.45891118421E+01 -0.19495843127E+02  0.21927314891E+02  0.00000000000E+00 0. -1.
</event>
<event>
 7    1  0.4356471E-010  0.4778727E+02  0.7816164E-02  0.1312668E+00
        -11   -1    0    0    0    0  0.00000000000E+00  0.00000000000E+00  0.45593999997E+02  0.45594000000E+02  0.51100000000E-03 0.  1.
         11   -1    0    0    0    0 -0.00000000000E+00 -0.00000000000E+00 -0.45593999997E+02  0.45594000000E+02  0.51100000000E-03 0. -1.
    9900012    2    1    2    0    0  0.19674352870E+02  0.21931919805E+02 -0.31867442656E+02  0.47787272257E+02  0.20000005529E+02 0.  0.
        -12    1    1    2    0    0 -0.19674352870E+02 -0.21931919805E+02  0.31867442656E+02  0.43400727743E+02  0.00000000000E+00 0.  1.
         11    1    3    3    0    0  0.11704750322E+02  0.12179158730E+02 -0.19396905385E+02  0.25721061919E+02  0.51100000000E-03 0. -1.
        -11    1    3    3    0    0  0.10812215972E+02  0.64426142179E+01 -0.52658674723E+01  0.13643337300E+02  0.51100000000E-03 0.  1.
        -12    1    3    3    0    0 -0.28426134249E+01  0.33101468569E+01 -0.72046697992E+01  0.84228730379E+01  0.00000000000E+00 0.  1.
</event>
<event>
 7    1  0.4356471E-010  0.4778727E+02  0.7816164E-02  0.1312668E+00
        -11   -1    0    0    0    0  0.00000000000E+00  0.00000000000E+00  0.45593999997E+02  0.45594000000E+02  0.51100000000E-03 0. -1.
         11   -1    0    0    0    0 -0.00000000000E+00 -0.00000000000E+00 -0.45593999997E+02  0.45594000000E+02  0.51100000000E-03 0.  1.
    9900012    2    1    2    0    0  0.14459733194E+02  0.42849612668E+01  0.40696173771E+02  0.47787270321E+02  0.19999996699E+02 0.  0.
        -12    1    1    2    0    0 -0.14459733194E+02 -0.42849612668E+01 -0.40696173771E+02  0.43400729679E+02  0.00000000000E+00 0.  1.
         11    1    3    3    0    0  0.10498694134E+02  0.16213614572E+01  0.23855078849E+02  0.26113524822E+02  0.51100000000E-03 0. -1.
        -11    1    3    3    0    0  0.72430707624E+01 -0.18691681687E+01  0.64749307857E+01  0.98934621166E+01  0.51100000000E-03 0.  1.
         12    1    3    3    0    0 -0.32820317029E+01  0.45327679783E+01  0.10366164137E+02  0.11780283382E+02  0.00000000000E+00 0. -1.
</event>
<event>
 7    1  0.4356471E-010  0.4778727E+02  0.7816164E-02  0.1312668E+00
        -11   -1    0    0    0    0  0.00000000000E+00  0.00000000000E+00  0.45593999997E+02  0.45594000000E+02  0.51100000000E-03 0.  1.
         11   -1    0    0    0    0 -0.00000000000E+00 -0.00000000000E+00 -0.45593999997E+02  0.45594000000E+02  0.51100000000E-03 0. -1.
    9900012    2    1    2    0    0  0.77128597844E+01  0.40892287960E+02 -0.12327043329E+02  0.47787269385E+02  0.19999992433E+02 0.  0.
        -12    1    1    2    0    0 -0.77128597844E+01 -0.40892287960E+02  0.12327043329E+02  0.43400730615E+02  0.00000000000E+00 0.  1.
         11    1    3    3    0    0  0.78021204552E+01  0.30830759570E+02 -0.12708587711E+02  0.34247876155E+02  0.51100000000E-03 0. -1.
        -11    1    3    3    0    0  0.23353014397E+01  0.62002724472E+01 -0.35521400984E+01  0.75176266716E+01  0.51100000000E-03 0.  1.
        -12    1    3    3    0    0 -0.24245621104E+01  0.38612559431E+01  0.39336844807E+01  0.60217665580E+01  0.00000000000E+00 0.  1.
</event>
<event>
 7    1  0.4356471E-010  0.4778727E+02  0.7816164E-02  0.1312668E+00
        -11   -1    0    0    0    0  0.00000000000E+00  0.00000000000E+00  0.45593999997E+02  0.45594000000E+02  0.51100000000E-03 0.  1.
         11   -1    0    0    0    0 -0.00000000000E+00 -0.00000000000E+00 -0.45593999997E+02  0.45594000000E+02  0.51100000000E-03 0. -1.
    9900012    2    1    2    0    0 -0.23718088562E+02  0.15652506036E+02 -0.32803580673E+02  0.47787267573E+02  0.19999984170E+02 0.  0.
        -12    1    1    2    0    0  0.23718088562E+02 -0.15652506036E+02  0.32803580673E+02  0.43400732427E+02  0.00000000000E+00 0.  1.
         11    1    3    3    0    0 -0.59562639859E+00  0.16265356739E+01 -0.20192817808E+01  0.26604300924E+01  0.51100000000E-03 0. -1.
        -11    1    3    3    0    0 -0.71567208931E+01  0.27627778046E+01 -0.22735993045E+02  0.23995353199E+02  0.51100000000E-03 0.  1.
         12    1    3    3    0    0 -0.15965741271E+02  0.11263192557E+02 -0.80483058471E+01  0.21131484281E+02  0.00000000000E+00 0. -1.
</event>
<event>
 7    1  0.4356471E-010  0.4778727E+02  0.7816164E-02  0.1312668E+00
        -11   -1    0    0    0    0  0.00000000000E+00  0.00000000000E+00  0.45593999997E+02  0.45594000000E+02  0.51100000000E-03 0.  1.
         11   -1    0    0    0    0 -0.00000000000E+00 -0.00000000000E+00 -0.45593999997E+02  0.45594000000E+02  0.51100000000E-03 0. -1.
    9900012    2    1    2    0    0 -0.38305594695E+02  0.20383540928E+02  0.90317788871E+00  0.47787273555E+02  0.20000011446E+02 0.  0.
        -12    1    1    2    0    0  0.38305594695E+02 -0.20383540928E+02 -0.90317788871E+00  0.43400726445E+02  0.00000000000E+00 0.  1.
         11    1    3    3    0    0 -0.17562385857E+02  0.41495073330E+01 -0.31487270147E+01  0.18318577733E+02  0.51100000000E-03 0. -1.
        -11    1    3    3    0    0 -0.20281888613E+02  0.10387108091E+02  0.54705655821E+01  0.23434464113E+02  0.51100000000E-03 0.  1.
        -12    1    3    3    0    0 -0.46132022482E+00  0.58469255035E+01 -0.14186606787E+01  0.60342317087E+01  0.00000000000E+00 0.  1.
</event>
<event>
 7    1  0.4356471E-010  0.4778727E+02  0.7816164E-02  0.1312668E+00
        -11   -1    0    0    0    0  0.00000000000E+00  0.00000000000E+00  0.45593999997E+02  0.45594000000E+02  0.51100000000E-03 0.  1.
         11   -1    0    0    0    0 -0.00000000000E+00 -0.00000000000E+00 -0.45593999997E+02  0.45594000000E+02  0.51100000000E-03 0. -1.
    9900012    2    1    2    0    0  0.35895203508E+02 -0.32991573323E+01 -0.24171745149E+02  0.47787270311E+02  0.19999996657E+02 0.  0.
        -12    1    1    2    0    0 -0.35895203508E+02  0.32991573323E+01  0.24171745149E+02  0.43400729689E+02  0.00000000000E+00 0.  1.
         11    1    3    3    0    0  0.30524625172E+02 -0.71774903263E+01 -0.17040977350E+02  0.35688429758E+02  0.51100000000E-03 0. -1.
        -11    1    3    3    0    0  0.33150852769E+01  0.41820990874E+00  0.58908076561E+00  0.33928905568E+01  0.51100000000E-03 0.  1.
         12    1    3    3    0    0  0.20554930588E+01  0.34601230853E+01 -0.77198485651E+01  0.87059499969E+01  0.00000000000E+00 0. -1.
</event>
<event>
 7    1  0.4356471E-010  0.4778727E+02  0.7816164E-02  0.1312668E+00
        -11   -1    0    0    0    0  0.00000000000E+00  0.00000000000E+00  0.45593999997E+02  0.45594000000E+02  0.51100000000E-03 0. -1.
         11   -1    0    0    0    0 -0.00000000000E+00 -0.00000000000E+00 -0.45593999997E+02  0.45594000000E+02  0.51100000000E-03 0.  1.
    9900012    2    1    2    0    0 -0.26022519430E+02  0.32966057795E+00  0.34732445249E+02  0.47787274816E+02  0.20000017196E+02 0.  0.
        -12    1    1    2    0    0  0.26022519430E+02 -0.32966057795E+00 -0.34732445249E+02  0.43400725184E+02  0.00000000000E+00 0.  1.
         11    1    3    3    0    0 -0.96299486936E+01  0.12498998816E+01  0.20000802915E+02  0.22233539508E+02  0.51100000000E-03 0. -1.
        -11    1    3    3    0    0 -0.28310692834E+01  0.51461838647E+01  0.55993411215E+01  0.81148495311E+01  0.51100000000E-03 0.  1.
        -12    1    3    3    0    0 -0.13561501453E+02 -0.60664231683E+01  0.91323012121E+01  0.17438885777E+02  0.00000000000E+00 0.  1.
</event>
<event>
 7    1  0.4656440E-010  0.4778730E+02  0.7816164E-02  0.1312668E+00
        -11   -1    0    0    0    0  0.00000000000E+00  0.00000000000E+00  0.45593999997E+02  0.45594000000E+02  0.51100000000E-03 0.  1.
         11   -1    0    0    0    0 -0.00000000000E+00 -0.00000000000E+00 -0.45593999997E+02  0.45594000000E+02  0.51100000000E-03 0. -1.
    9900012    2    1    2    0    0 -0.41816099466E+02 -0.56255688859E+01 -0.10167951614E+02  0.47787303694E+02  0.20000148860E+02 0.  0.
        -12    1    1    2    0    0  0.41816099466E+02  0.56255688859E+01  0.10167951614E+02  0.43400696306E+02  0.00000000000E+00 0.  1.
         11    1    3    3    0    0 -0.18228029241E+02 -0.61107406320E+01 -0.31367825495E+01  0.19479260923E+02  0.51100000000E-03 0. -1.
        -11    1    3    3    0    0 -0.24869472814E+02  0.88956009721E+00 -0.85191070956E+01  0.26303178157E+02  0.51100000000E-03 0.  1.
        -12    1    3    3    0    0  0.12814025888E+01 -0.40438835110E+00  0.14879380311E+01  0.20048646133E+01  0.00000000000E+00 0.  1.
</event>
<event>
 7    1  0.4356471E-010  0.4778727E+02  0.7816164E-02  0.1312668E+00
        -11   -1    0    0    0    0  0.00000000000E+00  0.00000000000E+00  0.45593999997E+02  0.45594000000E+02  0.51100000000E-03 0.  1.
         11   -1    0    0    0    0 -0.00000000000E+00 -0.00000000000E+00 -0.45593999997E+02  0.45594000000E+02  0.51100000000E-03 0. -1.
    9900012    2    1    2    0    0 -0.22543174975E+02 -0.21847479416E+02 -0.29968588142E+02  0.47787269937E+02  0.19999994952E+02 0.  0.
        -12    1    1    2    0    0  0.22543174975E+02  0.21847479416E+02  0.29968588142E+02  0.43400730063E+02  0.00000000000E+00 0.  1.
         11    1    3    3    0    0 -0.54365005751E-01 -0.23877453199E+01  0.56109069581E+00  0.24533866994E+01  0.51100000000E-03 0. -1.
        -11    1    3    3    0    0 -0.50025504513E+01  0.15102911715E+00  0.65206154933E-01  0.50052545306E+01  0.51100000000E-03 0.  1.
         12    1    3    3    0    0 -0.17486259518E+02 -0.19610763213E+02 -0.30594884993E+02  0.40328628707E+02  0.00000000000E+00 0. -1.
</event>
<event>
 7    1  0.4356471E-010  0.4778727E+02  0.7816164E-02  0.1312668E+00
        -11   -1    0    0    0    0  0.00000000000E+00  0.00000000000E+00  0.45593999997E+02  0.45594000000E+02  0.51100000000E-03 0. -1.
         11   -1    0    0    0    0 -0.00000000000E+00 -0.00000000000E+00 -0.45593999997E+02  0.45594000000E+02  0.51100000000E-03 0.  1.
    9900012    2    1    2    0    0 -0.39428749473E+01  0.38840690679E+02 -0.18959900973E+02  0.47787270050E+02  0.19999995466E+02 0.  0.
        -12    1    1    2    0    0  0.39428749473E+01 -0.38840690679E+02  0.18959900973E+02  0.43400729950E+02  0.00000000000E+00 0.  1.
         11    1    3    3    0    0  0.31286202728E+00  0.26616418047E+01 -0.47801212850E+01  0.54801258658E+01  0.51100000000E-03 0. -1.
        -11    1    3    3    0    0  0.26296233969E+01  0.10402730828E+02  0.22646648470E+01  0.10966331885E+02  0.51100000000E-03 0.  1.
         12    1    3    3    0    0 -0.68853603715E+01  0.25776318047E+02 -0.16444444535E+02  0.31340812299E+02  0.00000000000E+00 0. -1.
</event>
<event>
 7    1  0.4356471E-010  0.4778727E+02  0.7816164E-02  0.1312668E+00
        -11   -1    0    0    0    0  0.00000000000E+00  0.00000000000E+00  0.45593999997E+02  0.45594000000E+02  0.51100000000E-03 0.  1.
         11   -1    0    0    0    0 -0.00000000000E+00 -0.00000000000E+00 -0.45593999997E+02  0.45594000000E+02  0.51100000000E-03 0. -1.
    9900012    2    1    2    0    0  0.31338086550E+02  0.21145392158E+02  0.21317123672E+02  0.47787273741E+02  0.20000012297E+02 0.  0.
        -12    1    1    2    0    0 -0.31338086550E+02 -0.21145392158E+02 -0.21317123672E+02  0.43400726259E+02  0.00000000000E+00 0.  1.
         11    1    3    3    0    0  0.24210472117E+02  0.65869566515E+01  0.13728056758E+02  0.28600603153E+02  0.51100000000E-03 0. -1.
        -11    1    3    3    0    0  0.44793611072E+01  0.36677925188E+01  0.26033854350E+00  0.57952699944E+01  0.51100000000E-03 0.  1.
         12    1    3    3    0    0  0.26482533256E+01  0.10890642987E+02  0.73287283703E+01  0.13391400594E+02  0.00000000000E+00 0. -1.
</event>
<event>
 7    1  0.4356471E-010  0.4778727E+02  0.7816164E-02  0.1312668E+00
        -11   -1    0    0    0    0  0.00000000000E+00  0.00000000000E+00  0.45593999997E+02  0.45594000000E+02  0.51100000000E-03 0. -1.
         11   -1    0    0    0    0 -0.00000000000E+00 -0.00000000000E+00 -0.45593999997E+02  0.45594000000E+02  0.51100000000E-03 0.  1.
    9900012    2    1    2    0    0  0.43120438525E+02 -0.12489683444E+01  0.47634979198E+01  0.47787273590E+02  0.20000011605E+02 0.  0.
        -12    1    1    2    0    0 -0.43120438525E+02  0.12489683444E+01 -0.47634979198E+01  0.43400726410E+02  0.00000000000E+00 0.  1.
         11    1    3    3    0    0  0.35748762597E+02 -0.59015110725E+01  0.59045134909E+01  0.36710558971E+02  0.51100000000E-03 0. -1.
        -11    1    3    3    0    0  0.23751383247E+00  0.58780034192E-01 -0.24751841055E+01  0.24872483853E+01  0.51100000000E-03 0.  1.
         12    1    3    3    0    0  0.71341620959E+01  0.45937626939E+01  0.13341685344E+01  0.85894662335E+01  0.00000000000E+00 0. -1.
</event>
<event>
 7    1  0.4356471E-010  0.4778727E+02  0.7816164E-02  0.1312668E+00
        -11   -1    0    0    0    0  0.00000000000E+00  0.00000000000E+00  0.45593999997E+02  0.45594000000E+02  0.51100000000E-03 0. -1.
         11   -1    0    0    0    0 -0.00000000000E+00 -0.00000000000E+00 -0.45593999997E+02  0.45594000000E+02  0.51100000000E-03 0.  1.
    9900012    2    1    2    0    0 -0.35479673115E+02  0.24790234931E+02 -0.32032116193E+01  0.47787268244E+02  0.19999987233E+02 0.  0.
        -12    1    1    2    0    0  0.35479673115E+02 -0.24790234931E+02  0.32032116193E+01  0.43400731756E+02  0.00000000000E+00 0.  1.
         11    1    3    3    0    0 -0.49823843107E+00  0.55685023455E+00 -0.11292323009E+01  0.13540640932E+01  0.51100000000E-03 0. -1.
        -11    1    3    3    0    0 -0.40713877308E+01  0.27013120712E+01  0.61709157272E+01  0.78710536864E+01  0.51100000000E-03 0.  1.
         12    1    3    3    0    0 -0.30910046953E+02  0.21532072625E+02 -0.82448950455E+01  0.38562150465E+02  0.00000000000E+00 0. -1.
</event>
<event>
 7    1  0.4356471E-010  0.4778727E+02  0.7816164E-02  0.1312668E+00
        -11   -1    0    0    0    0  0.00000000000E+00  0.00000000000E+00  0.45593999997E+02  0.45594000000E+02  0.51100000000E-03 0.  1.
         11   -1    0    0    0    0 -0.00000000000E+00 -0.00000000000E+00 -0.45593999997E+02  0.45594000000E+02  0.51100000000E-03 0. -1.
    9900012    2    1    2    0    0  0.30126362107E+02  0.15957758707E+02 -0.26858433574E+02  0.47787271771E+02  0.20000003313E+02 0.  0.
        -12    1    1    2    0    0 -0.30126362107E+02 -0.15957758707E+02  0.26858433574E+02  0.43400728229E+02  0.00000000000E+00 0.  1.
         11    1    3    3    0    0  0.28663631580E+02  0.13483478851E+02 -0.18909778738E+02  0.36891566916E+02  0.51100000000E-03 0. -1.
        -11    1    3    3    0    0  0.25060803993E+01 -0.15596752133E+01 -0.17649638495E+01  0.34392038890E+01  0.51100000000E-03 0.  1.
        -12    1    3    3    0    0 -0.10433498723E+01  0.40339550688E+01 -0.61836909859E+01  0.74565009665E+01  0.00000000000E+00 0.  1.
</event>
<event>
 7    1  0.4356471E-010  0.4778726E+02  0.7816164E-02  0.1312668E+00
        -11   -1    0    0    0    0  0.00000000000E+00  0.00000000000E+00  0.45593999997E+02  0.45594000000E+02  0.51100000000E-03 0. -1.
         11   -1    0    0    0    0 -0.00000000000E+00 -0.00000000000E+00 -0.45593999997E+02  0.45594000000E+02  0.51100000000E-03 0.  1.
    9900012    2    1    2    0    0 -0.20675171719E+02  0.34726501705E+02  0.15818697844E+02  0.47787264433E+02  0.19999969856E+02 0.  0.
        -12    1    1    2    0    0  0.20675171719E+02 -0.34726501705E+02 -0.15818697844E+02  0.43400735567E+02  0.00000000000E+00 0.  1.
         11    1    3    3    0    0 -0.36713965729E+01  0.10691647718E+01  0.22537744285E+01  0.44386670906E+01  0.51100000000E-03 0.  1.
        -11    1    3    3    0    0 -0.76606175773E+01  0.14902900790E+02  0.14803679251E+02  0.22359124161E+02  0.51100000000E-03 0. -1.
         12    1    3    3    0    0 -0.93431575684E+01  0.18754436144E+02 -0.12387558358E+01  0.20989473181E+02  0.00000000000E+00 0. -1.
</event>
<event>
 7    1  0.4356471E-010  0.4778727E+02  0.7816164E-02  0.1312668E+00
        -11   -1    0    0    0    0  0.00000000000E+00  0.00000000000E+00  0.45593999997E+02  0.45594000000E+02  0.51100000000E-03 0.  1.
         11   -1    0    0    0    0 -0.00000000000E+00 -0.00000000000E+00 -0.45593999997E+02  0.45594000000E+02  0.51100000000E-03 0. -1.
    9900012    2    1    2    0    0 -0.90073093550E+00  0.39302235232E+02  0.18388758566E+02  0.47787268992E+02  0.19999990642E+02 0.  0.
        -12    1    1    2    0    0  0.90073093550E+00 -0.39302235232E+02 -0.18388758566E+02  0.43400731008E+02  0.00000000000E+00 0.  1.
         11    1    3    3    0    0  0.39151451956E+01  0.10035604440E+02  0.69884582787E+01  0.12840571162E+02  0.51100000000E-03 0. -1.
        -11    1    3    3    0    0 -0.37123815065E+01  0.20252773529E+02  0.14684265449E+02  0.25290003245E+02  0.51100000000E-03 0.  1.
        -12    1    3    3    0    0 -0.11034946246E+01  0.90138572626E+01 -0.32839651620E+01  0.96566945857E+01  0.00000000000E+00 0.  1.
</event>
<event>
 7    1  0.4356471E-010  0.4778727E+02  0.7816164E-02  0.1312668E+00
        -11   -1    0    0    0    0  0.00000000000E+00  0.00000000000E+00  0.45593999997E+02  0.45594000000E+02  0.51100000000E-03 0. -1.
         11   -1    0    0    0    0 -0.00000000000E+00 -0.00000000000E+00 -0.45593999997E+02  0.45594000000E+02  0.51100000000E-03 0.  1.
    9900012    2    1    2    0    0  0.17913036277E+02 -0.38493033856E+02 -0.90018113993E+01  0.47787272672E+02  0.20000007422E+02 0.  0.
        -12    1    1    2    0    0 -0.17913036277E+02  0.38493033856E+02  0.90018113993E+01  0.43400727328E+02  0.00000000000E+00 0.  1.
         11    1    3    3    0    0  0.35931373554E+01 -0.43466242367E+00 -0.10446310634E+01  0.37670707183E+01  0.51100000000E-03 0. -1.
        -11    1    3    3    0    0 -0.23039949522E+01 -0.32398707246E+01  0.15758764731E+01  0.42765104901E+01  0.51100000000E-03 0.  1.
         12    1    3    3    0    0  0.16623893873E+02 -0.34818500708E+02 -0.95330568090E+01  0.39743691464E+02  0.00000000000E+00 0. -1.
</event>
<event>
 7    1  0.4356471E-010  0.4778727E+02  0.7816164E-02  0.1312668E+00
        -11   -1    0    0    0    0  0.00000000000E+00  0.00000000000E+00  0.45593999997E+02  0.45594000000E+02  0.51100000000E-03 0. -1.
         11   -1    0    0    0    0 -0.00000000000E+00 -0.00000000000E+00 -0.45593999997E+02  0.45594000000E+02  0.51100000000E-03 0.  1.
    9900012    2    1    2    0    0 -0.54819026663E+01 -0.40806333513E+02  0.13726439366E+02  0.47787271328E+02  0.20000001292E+02 0.  0.
        -12    1    1    2    0    0  0.54819026663E+01  0.40806333513E+02 -0.13726439366E+02  0.43400728672E+02  0.00000000000E+00 0.  1.
         11    1    3    3    0    0 -0.89345862382E+00 -0.82959305050E+01 -0.10467524438E+01  0.84093056905E+01  0.51100000000E-03 0. -1.
        -11    1    3    3    0    0  0.40124073966E+01 -0.23345626816E+02  0.11792057739E+02  0.26460731859E+02  0.51100000000E-03 0.  1.
         12    1    3    3    0    0 -0.86008514392E+01 -0.91647761918E+01  0.29811340712E+01  0.12917233778E+02  0.00000000000E+00 0. -1.
</event>
<event>
 7    1  0.4356471E-010  0.4778727E+02  0.7816164E-02  0.1312668E+00
        -11   -1    0    0    0    0  0.00000000000E+00  0.00000000000E+00  0.45593999997E+02  0.45594000000E+02  0.51100000000E-03 0. -1.
         11   -1    0    0    0    0 -0.00000000000E+00 -0.00000000000E+00 -0.45593999997E+02  0.45594000000E+02  0.51100000000E-03 0.  1.
    9900012    2    1    2    0    0 -0.37947148003E+02 -0.20821792350E+02 -0.31765666150E+01  0.47787266668E+02  0.19999980048E+02 0.  0.
        -12    1    1    2    0    0  0.37947148003E+02  0.20821792350E+02  0.31765666150E+01  0.43400733332E+02  0.00000000000E+00 0.  1.
         11    1    3    3    0    0 -0.13846647830E+02 -0.99325490718E+01 -0.57537232973E+01  0.17985842189E+02  0.51100000000E-03 0. -1.
        -11    1    3    3    0    0 -0.35205606563E+01 -0.80029778483E+01  0.22044241222E+01  0.90167337627E+01  0.51100000000E-03 0.  1.
        -12    1    3    3    0    0 -0.20579939516E+02 -0.28862654302E+01  0.37273256012E+00  0.20784690717E+02  0.00000000000E+00 0.  1.
</event>
<event>
 7    1  0.4356471E-010  0.4778727E+02  0.7816164E-02  0.1312668E+00
        -11   -1    0    0    0    0  0.00000000000E+00  0.00000000000E+00  0.45593999997E+02  0.45594000000E+02  0.51100000000E-03 0. -1.
         11   -1    0    0    0    0 -0.00000000000E+00 -0.00000000000E+00 -0.45593999997E+02  0.45594000000E+02  0.51100000000E-03 0.  1.
    9900012    2    1    2    0    0  0.23180531246E+02 -0.28391247081E+02  0.23242702893E+02  0.47787272156E+02  0.20000005066E+02 0.  0.
        -12    1    1    2    0    0 -0.23180531246E+02  0.28391247081E+02 -0.23242702893E+02  0.43400727844E+02  0.00000000000E+00 0.  1.
         11    1    3    3    0    0  0.15917744729E+02 -0.20991905421E+02  0.18548687810E+02  0.32219380971E+02  0.51100000000E-03 0. -1.
        -11    1    3    3    0    0  0.10151006300E+01 -0.82952353196E+01  0.38458616284E+01  0.91995657627E+01  0.51100000000E-03 0.  1.
        -12    1    3    3    0    0  0.62476858873E+01  0.89589365951E+00  0.84815345501E+00  0.63683254218E+01  0.00000000000E+00 0.  1.
</event>
<event>
 7    1  0.4356471E-010  0.4778727E+02  0.7816164E-02  0.1312668E+00
        -11   -1    0    0    0    0  0.00000000000E+00  0.00000000000E+00  0.45593999997E+02  0.45594000000E+02  0.51100000000E-03 0. -1.
         11   -1    0    0    0    0 -0.00000000000E+00 -0.00000000000E+00 -0.45593999997E+02  0.45594000000E+02  0.51100000000E-03 0.  1.
    9900012    2    1    2    0    0  0.24592731126E+01 -0.31386934922E+02  0.29873661942E+02  0.47787269754E+02  0.19999994117E+02 0.  0.
        -12    1    1    2    0    0 -0.24592731126E+01  0.31386934922E+02 -0.29873661942E+02  0.43400730246E+02  0.00000000000E+00 0.  1.
         11    1    3    3    0    0 -0.19468241899E+01 -0.14560760339E+02  0.22723628669E+02  0.27058624619E+02  0.51100000000E-03 0. -1.
        -11    1    3    3    0    0 -0.11971972859E+01 -0.14044794682E+00 -0.76690596465E+00  0.14286889049E+01  0.51100000000E-03 0.  1.
        -12    1    3    3    0    0  0.56032945885E+01 -0.16685726636E+02  0.79169392377E+01  0.19299956231E+02  0.00000000000E+00 0.  1.
</event>
<event>
 7    1  0.4356471E-010  0.4778727E+02  0.7816164E-02  0.1312668E+00
        -11   -1    0    0    0    0  0.00000000000E+00  0.00000000000E+00  0.45593999997E+02  0.45594000000E+02  0.51100000000E-03 0.  1.
         11   -1    0    0    0    0 -0.00000000000E+00 -0.00000000000E+00 -0.45593999997E+02  0.45594000000E+02  0.51100000000E-03 0. -1.
    9900012    2    1    2    0    0  0.24071371173E+02  0.33002568253E+02 -0.14663657822E+02  0.47787270949E+02  0.19999999563E+02 0.  0.
        -12    1    1    2    0    0 -0.24071371173E+02 -0.33002568253E+02  0.14663657822E+02  0.43400729051E+02  0.00000000000E+00 0.  1.
         11    1    3    3    0    0 -0.39193594046E+00  0.54001513099E+00  0.15076621787E+01  0.16487193907E+01  0.51100000000E-03 0. -1.
        -11    1    3    3    0    0  0.12297133959E+02  0.12451182258E+02  0.30712638511E+00  0.17502736075E+02  0.51100000000E-03 0.  1.
         12    1    3    3    0    0  0.12166173155E+02  0.20011370864E+02 -0.16478446386E+02  0.28635815483E+02  0.00000000000E+00 0. -1.
</event>
<event>
 7    1  0.4356471E-010  0.4778727E+02  0.7816164E-02  0.1312668E+00
        -11   -1    0    0    0    0  0.00000000000E+00  0.00000000000E+00  0.45593999997E+02  0.45594000000E+02  0.51100000000E-03 0. -1.
         11   -1    0    0    0    0 -0.00000000000E+00 -0.00000000000E+00 -0.45593999997E+02  0.45594000000E+02  0.51100000000E-03 0.  1.
    9900012    2    1    2    0    0  0.22737788638E+02  0.13035241284E+02  0.34593330760E+02  0.47787273272E+02  0.20000010157E+02 0.  0.
        -12    1    1    2    0    0 -0.22737788638E+02 -0.13035241284E+02 -0.34593330760E+02  0.43400726728E+02  0.00000000000E+00 0.  1.
         11    1    3    3    0    0  0.73750082254E-02  0.32199172028E+00 -0.60849744008E+00  0.68847836159E+00  0.51100000000E-03 0. -1.
        -11    1    3    3    0    0  0.30095214125E+01 -0.36732278001E+01  0.20092603936E+01  0.51562534067E+01  0.51100000000E-03 0.  1.
         12    1    3    3    0    0  0.19720892217E+02  0.16386477364E+02  0.33192567806E+02  0.41942541504E+02  0.00000000000E+00 0. -1.
</event>
<event>
 7    1  0.4356471E-010  0.4778727E+02  0.7816164E-02  0.1312668E+00
        -11   -1    0    0    0    0  0.00000000000E+00  0.00000000000E+00  0.45593999997E+02  0.45594000000E+02  0.51100000000E-03 0.  1.
         11   -1    0    0    0    0 -0.00000000000E+00 -0.00000000000E+00 -0.45593999997E+02  0.45594000000E+02  0.51100000000E-03 0. -1.
    9900012    2    1    2    0    0 -0.23215105598E+02 -0.29560963724E+02 -0.21698662842E+02  0.47787266442E+02  0.19999979016E+02 0.  0.
        -12    1    1    2    0    0  0.23215105598E+02  0.29560963724E+02  0.21698662842E+02  0.43400733558E+02  0.00000000000E+00 0.  1.
         11    1    3    3    0    0 -0.83472239943E+01 -0.15244890157E+02 -0.50983238107E+01  0.18112860908E+02  0.51100000000E-03 0. -1.
        -11    1    3    3    0    0 -0.71307102629E+01 -0.14982228625E+02 -0.13173156979E+02  0.21185992271E+02  0.51100000000E-03 0.  1.
        -12    1    3    3    0    0 -0.77371713407E+01  0.66615505820E+00 -0.34271820520E+01  0.84884132637E+01  0.00000000000E+00 0.  1.
</event>
<event>
 7    1  0.4356471E-010  0.4778726E+02  0.7816164E-02  0.1312668E+00
        -11   -1    0    0    0    0  0.00000000000E+00  0.00000000000E+00  0.45593999997E+02  0.45594000000E+02  0.51100000000E-03 0. -1.
         11   -1    0    0    0    0 -0.00000000000E+00 -0.00000000000E+00 -0.45593999997E+02  0.45594000000E+02  0.51100000000E-03 0.  1.
    9900012    2    1    2    0    0 -0.30119875849E+02  0.13548252168E+02  0.28157806719E+02  0.47787261099E+02  0.19999954655E+02 0.  0.
        -12    1    1    2    0    0  0.30119875849E+02 -0.13548252168E+02 -0.28157806719E+02  0.43400738901E+02  0.00000000000E+00 0.  1.
         11    1    3    3    0    0  0.32995273908E+00  0.18105584666E+01  0.33283051911E+01  0.38032363163E+01  0.51100000000E-03 0. -1.
        -11    1    3    3    0    0 -0.71407816684E+01  0.32642875180E+01 -0.12997435439E+01  0.79583710253E+01  0.51100000000E-03 0.  1.
         12    1    3    3    0    0 -0.23309046919E+02  0.84734061832E+01  0.26129245072E+02  0.36025653757E+02  0.00000000000E+00 0. -1.
</event>
<event>
 7    1  0.4356471E-010  0.4778726E+02  0.7816164E-02  0.1312668E+00
        -11   -1    0    0    0    0  0.00000000000E+00  0.00000000000E+00  0.45593999997E+02  0.45594000000E+02  0.51100000000E-03 0.  1.
         11   -1    0    0    0    0 -0.00000000000E+00 -0.00000000000E+00 -0.45593999997E+02  0.45594000000E+02  0.51100000000E-03 0. -1.
    9900012    2    1    2    0    0  0.42306668090E+02 -0.96505836632E+01  0.79768848343E+00  0.47787259951E+02  0.19999949419E+02 0.  0.
        -12    1    1    2    0    0 -0.42306668090E+02  0.96505836632E+01 -0.79768848343E+00  0.43400740049E+02  0.00000000000E+00 0.  1.
         11    1    3    3    0    0  0.51358005277E+01 -0.13794654224E+01 -0.18606152889E+01  0.56339383584E+01  0.51100000000E-03 0. -1.
        -11    1    3    3    0    0  0.87482908237E+01 -0.10370050763E+02  0.10582744920E+01  0.13608471271E+02  0.51100000000E-03 0.  1.
         12    1    3    3    0    0  0.28422576738E+02  0.20989325222E+01  0.16000292804E+01  0.28544850322E+02  0.00000000000E+00 0. -1.
</event>
<event>
 7    1  0.4356471E-010  0.4778727E+02  0.7816164E-02  0.1312668E+00
        -11   -1    0    0    0    0  0.00000000000E+00  0.00000000000E+00  0.45593999997E+02  0.45594000000E+02  0.51100000000E-03 0.  1.
         11   -1    0    0    0    0 -0.00000000000E+00 -0.00000000000E+00 -0.45593999997E+02  0.45594000000E+02  0.51100000000E-03 0. -1.
    9900012    2    1    2    0    0 -0.42505191175E+01 -0.29187129235E+02 -0.31838158791E+02  0.47787265202E+02  0.19999973364E+02 0.  0.
        -12    1    1    2    0    0  0.42505191175E+01  0.29187129235E+02  0.31838158791E+02  0.43400734798E+02  0.00000000000E+00 0.  1.
         11    1    3    3    0    0  0.16725999141E+01 -0.14740205002E+02 -0.55741557315E+01  0.15847474447E+02  0.51100000000E-03 0. -1.
        -11    1    3    3    0    0  0.24210380115E+01 -0.21214868661E+01 -0.36460025809E+01  0.48636885856E+01  0.51100000000E-03 0.  1.
        -12    1    3    3    0    0 -0.83441570431E+01 -0.12325437367E+02 -0.22618000479E+02  0.27076102170E+02  0.00000000000E+00 0.  1.
</event>
<event>
 7    1  0.4356471E-010  0.4778727E+02  0.7816164E-02  0.1312668E+00
        -11   -1    0    0    0    0  0.00000000000E+00  0.00000000000E+00  0.45593999997E+02  0.45594000000E+02  0.51100000000E-03 0.  1.
         11   -1    0    0    0    0 -0.00000000000E+00 -0.00000000000E+00 -0.45593999997E+02  0.45594000000E+02  0.51100000000E-03 0. -1.
    9900012    2    1    2    0    0  0.28188711014E+02 -0.94075306926E+01 -0.31630971034E+02  0.47787269696E+02  0.19999993853E+02 0.  0.
        -12    1    1    2    0    0 -0.28188711014E+02  0.94075306926E+01  0.31630971034E+02  0.43400730304E+02  0.00000000000E+00 0.  1.
         11    1    3    3    0    0  0.20796838371E+01 -0.56021129376E+01 -0.76372519185E+01  0.96972352428E+01  0.51100000000E-03 0. -1.
        -11    1    3    3    0    0  0.52480983290E+00  0.28356114359E+01 -0.40790780192E+01  0.49954975052E+01  0.51100000000E-03 0.  1.
        -12    1    3    3    0    0  0.25584217344E+02 -0.66410291909E+01 -0.19914641096E+02  0.33094536948E+02  0.00000000000E+00 0.  1.
</event>
<event>
 7    1  0.4356471E-010  0.4778734E+02  0.7816164E-02  0.1312667E+00
        -11   -1    0    0    0    0  0.00000000000E+00  0.00000000000E+00  0.45593999997E+02  0.45594000000E+02  0.51100000000E-03 0. -1.
         11   -1    0    0    0    0 -0.00000000000E+00 -0.00000000000E+00 -0.45593999997E+02  0.45594000000E+02  0.51100000000E-03 0.  1.
    9900012    2    1    2    0    0 -0.12471019491E+02  0.30646023513E+01  0.41457201921E+02  0.47787335191E+02  0.20000292467E+02 0.  0.
        -12    1    1    2    0    0  0.12471019491E+02 -0.30646023513E+01 -0.41457201921E+02  0.43400664809E+02  0.00000000000E+00 0.  1.
         11    1    3    3    0    0 -0.83931680343E+00  0.46333068145E+01  0.30332534193E+01  0.56011258958E+01  0.51100000000E-03 0.  1.
        -11    1    3    3    0    0  0.24078766198E+01 -0.14534894279E+01  0.31617391822E+01  0.42316777111E+01  0.51100000000E-03 0. -1.
         12    1    3    3    0    0 -0.14039579307E+02 -0.11521503534E+00  0.35262209320E+02  0.37954531584E+02  0.00000000000E+00 0. -1.
</event>
<event>
 7    1  0.4356471E-010  0.4778729E+02  0.7816164E-02  0.1312668E+00
        -11   -1    0    0    0    0  0.00000000000E+00  0.00000000000E+00  0.45593999997E+02  0.45594000000E+02  0.51100000000E-03 0. -1.
         11   -1    0    0    0    0 -0.00000000000E+00 -0.00000000000E+00 -0.45593999997E+02  0.45594000000E+02  0.51100000000E-03 0.  1.
    9900012    2    1    2    0    0 -0.19002803469E+02  0.38476854190E+02  0.64843658420E+01  0.47787287467E+02  0.20000074876E+02 0.  0.
        -12    1    1    2    0    0  0.19002803469E+02 -0.38476854190E+02 -0.64843658420E+01  0.43400712533E+02  0.00000000000E+00 0.  1.
         11    1    3    3    0    0 -0.84051036095E+01  0.12563994317E+02  0.10505925965E+02  0.18408536077E+02  0.51100000000E-03 0.  1.
        -11    1    3    3    0    0 -0.29492745758E+01  0.11825667884E+01 -0.91720313389E+00  0.33072566551E+01  0.51100000000E-03 0. -1.
         12    1    3    3    0    0 -0.76484252837E+01  0.24730293085E+02 -0.31043569889E+01  0.26071494734E+02  0.00000000000E+00 0. -1.
</event>
<event>
 7    1  0.4356471E-010  0.4778727E+02  0.7816164E-02  0.1312668E+00
        -11   -1    0    0    0    0  0.00000000000E+00  0.00000000000E+00  0.45593999997E+02  0.45594000000E+02  0.51100000000E-03 0.  1.
         11   -1    0    0    0    0 -0.00000000000E+00 -0.00000000000E+00 -0.45593999997E+02  0.45594000000E+02  0.51100000000E-03 0. -1.
    9900012    2    1    2    0    0 -0.74301619499E+01  0.35106342645E+02 -0.24412309546E+02  0.47787268925E+02  0.19999990337E+02 0.  0.
        -12    1    1    2    0    0  0.74301619499E+01 -0.35106342645E+02  0.24412309546E+02  0.43400731075E+02  0.00000000000E+00 0.  1.
         11    1    3    3    0    0  0.15924291559E+01  0.90206909720E+01 -0.31067188493E+01  0.96726624307E+01  0.51100000000E-03 0. -1.
        -11    1    3    3    0    0 -0.55490556434E+01  0.92951978878E+01 -0.76065166254E-01  0.10825825995E+02  0.51100000000E-03 0.  1.
        -12    1    3    3    0    0 -0.34735354624E+01  0.16790453785E+02 -0.21229525530E+02  0.27288780499E+02  0.00000000000E+00 0.  1.
</event>
<event>
 7    1  0.4356471E-010  0.4778727E+02  0.7816164E-02  0.1312668E+00
        -11   -1    0    0    0    0  0.00000000000E+00  0.00000000000E+00  0.45593999997E+02  0.45594000000E+02  0.51100000000E-03 0.  1.
         11   -1    0    0    0    0 -0.00000000000E+00 -0.00000000000E+00 -0.45593999997E+02  0.45594000000E+02  0.51100000000E-03 0. -1.
    9900012    2    1    2    0    0  0.15693789055E+02  0.64601634143E+01 -0.39944891726E+02  0.47787273033E+02  0.20000009065E+02 0.  0.
        -12    1    1    2    0    0 -0.15693789055E+02 -0.64601634143E+01  0.39944891726E+02  0.43400726967E+02  0.00000000000E+00 0.  1.
         11    1    3    3    0    0  0.66736670973E+01 -0.26673417514E+01 -0.27235622695E+02  0.28167919489E+02  0.51100000000E-03 0. -1.
        -11    1    3    3    0    0  0.63689468743E+01  0.45790559222E+01 -0.11958132477E+02  0.14301334554E+02  0.51100000000E-03 0.  1.
        -12    1    3    3    0    0  0.26511750837E+01  0.45484492435E+01 -0.75113655479E+00  0.53180189891E+01  0.00000000000E+00 0.  1.
</event>
<event>
 7    1  0.4356471E-010  0.4778727E+02  0.7816164E-02  0.1312668E+00
        -11   -1    0    0    0    0  0.00000000000E+00  0.00000000000E+00  0.45593999997E+02  0.45594000000E+02  0.51100000000E-03 0.  1.
         11   -1    0    0    0    0 -0.00000000000E+00 -0.00000000000E+00 -0.45593999997E+02  0.45594000000E+02  0.51100000000E-03 0. -1.
    9900012    2    1    2    0    0 -0.12158993771E+02 -0.39640147287E+02 -0.12823448748E+02  0.47787271386E+02  0.20000001556E+02 0.  0.
        -12    1    1    2    0    0  0.12158993771E+02  0.39640147287E+02  0.12823448748E+02  0.43400728614E+02  0.00000000000E+00 0.  1.
         11    1    3    3    0    0 -0.67471518127E+01 -0.15753951574E+02 -0.77983814908E+00  0.17155733607E+02  0.51100000000E-03 0.  1.
        -11    1    3    3    0    0 -0.67324432024E+01 -0.25220927135E+02 -0.12056683613E+02  0.28753861950E+02  0.51100000000E-03 0. -1.
        -12    1    3    3    0    0  0.13206012445E+01  0.13347314222E+01  0.13073013581E-01  0.18776758293E+01  0.00000000000E+00 0.  1.
</event>
<event>
 7    1  0.4356471E-010  0.4778727E+02  0.7816164E-02  0.1312668E+00
        -11   -1    0    0    0    0  0.00000000000E+00  0.00000000000E+00  0.45593999997E+02  0.45594000000E+02  0.51100000000E-03 0.  1.
         11   -1    0    0    0    0 -0.00000000000E+00 -0.00000000000E+00 -0.45593999997E+02  0.45594000000E+02  0.51100000000E-03 0. -1.
    9900012    2    1    2    0    0 -0.26503425553E+02 -0.32457945434E+01 -0.34214861635E+02  0.47787268382E+02  0.19999987863E+02 0.  0.
        -12    1    1    2    0    0  0.26503425553E+02  0.32457945434E+01  0.34214861635E+02  0.43400731618E+02  0.00000000000E+00 0.  1.
         11    1    3    3    0    0 -0.21846221475E+02 -0.46758932241E+01 -0.21559727630E+02  0.31047435094E+02  0.51100000000E-03 0. -1.
        -11    1    3    3    0    0 -0.63259218690E+01  0.30931450704E+01 -0.12539144595E+02  0.14381063290E+02  0.51100000000E-03 0.  1.
         12    1    3    3    0    0  0.16687177915E+01 -0.16630463898E+01 -0.11598941012E+00  0.23587699984E+01  0.00000000000E+00 0. -1.
</event>
<event>
 7    1  0.4356471E-010  0.4778727E+02  0.7816164E-02  0.1312668E+00
        -11   -1    0    0    0    0  0.00000000000E+00  0.00000000000E+00  0.45593999997E+02  0.45594000000E+02  0.51100000000E-03 0. -1.
         11   -1    0    0    0    0 -0.00000000000E+00 -0.00000000000E+00 -0.45593999997E+02  0.45594000000E+02  0.51100000000E-03 0.  1.
    9900012    2    1    2    0    0 -0.20755997266E+02 -0.21393250807E+02  0.31545851077E+02  0.47787270481E+02  0.19999997431E+02 0.  0.
        -12    1    1    2    0    0  0.20755997266E+02  0.21393250807E+02 -0.31545851077E+02  0.43400729519E+02  0.00000000000E+00 0.  1.
         11    1    3    3    0    0 -0.11709110306E+01  0.20360197793E+01  0.57902634231E+00  0.24190247930E+01  0.51100000000E-03 0. -1.
        -11    1    3    3    0    0 -0.86171392932E+01 -0.49757409038E+01  0.35894000945E+01  0.10578132181E+02  0.51100000000E-03 0.  1.
         12    1    3    3    0    0 -0.10967946942E+02 -0.18453529683E+02  0.27377424640E+02  0.34790113507E+02  0.00000000000E+00 0. -1.
</event>
<event>
 7    1  0.4356471E-010  0.4778729E+02  0.7816164E-02  0.1312668E+00
        -11   -1    0    0    0    0  0.00000000000E+00  0.00000000000E+00  0.45593999997E+02  0.45594000000E+02  0.51100000000E-03 0.  1.
         11   -1    0    0    0    0 -0.00000000000E+00 -0.00000000000E+00 -0.45593999997E+02  0.45594000000E+02  0.51100000000E-03 0. -1.
    9900012    2    1    2    0    0 -0.59091998199E+01 -0.40596550504E+02  0.14164157717E+02  0.47787286652E+02  0.20000071160E+02 0.  0.
        -12    1    1    2    0    0  0.59091998199E+01  0.40596550504E+02 -0.14164157717E+02  0.43400713348E+02  0.00000000000E+00 0.  1.
         11    1    3    3    0    0 -0.35423999778E+01 -0.12654948086E+01 -0.51165665392E+00  0.37962965514E+01  0.51100000000E-03 0. -1.
        -11    1    3    3    0    0 -0.17654756072E+01 -0.11221189278E+01  0.36694679175E+01  0.42238667198E+01  0.51100000000E-03 0.  1.
         12    1    3    3    0    0 -0.60132423481E+00 -0.38208936767E+02  0.11006346453E+02  0.39767123381E+02  0.00000000000E+00 0. -1.
</event>
<event>
 7    1  0.4356471E-010  0.4778727E+02  0.7816164E-02  0.1312668E+00
        -11   -1    0    0    0    0  0.00000000000E+00  0.00000000000E+00  0.45593999997E+02  0.45594000000E+02  0.51100000000E-03 0.  1.
         11   -1    0    0    0    0 -0.00000000000E+00 -0.00000000000E+00 -0.45593999997E+02  0.45594000000E+02  0.51100000000E-03 0. -1.
    9900012    2    1    2    0    0  0.39921094325E+02  0.11658723656E+02 -0.12409825134E+02  0.47787269946E+02  0.19999994991E+02 0.  0.
        -12    1    1    2    0    0 -0.39921094325E+02 -0.11658723656E+02  0.12409825134E+02  0.43400730054E+02  0.00000000000E+00 0.  1.
         11    1    3    3    0    0  0.10149861862E+02  0.31975693988E+01 -0.45246311206E+01  0.11563582183E+02  0.51100000000E-03 0. -1.
        -11    1    3    3    0    0  0.24624429719E+02  0.78700374364E+01 -0.13006444016E+02  0.28939032714E+02  0.51100000000E-03 0.  1.
        -12    1    3    3    0    0  0.51468027447E+01  0.59111682106E+00  0.51212500026E+01  0.72846550486E+01  0.00000000000E+00 0.  1.
</event>
<event>
 7    1  0.4356471E-010  0.4778727E+02  0.7816164E-02  0.1312668E+00
        -11   -1    0    0    0    0  0.00000000000E+00  0.00000000000E+00  0.45593999997E+02  0.45594000000E+02  0.51100000000E-03 0.  1.
         11   -1    0    0    0    0 -0.00000000000E+00 -0.00000000000E+00 -0.45593999997E+02  0.45594000000E+02  0.51100000000E-03 0. -1.
    9900012    2    1    2    0    0  0.16567896720E+02 -0.38004655832E+02  0.12836440056E+02  0.47787271205E+02  0.20000000732E+02 0.  0.
        -12    1    1    2    0    0 -0.16567896720E+02  0.38004655832E+02 -0.12836440056E+02  0.43400728795E+02  0.00000000000E+00 0.  1.
         11    1    3    3    0    0  0.39317104869E+01 -0.50854810963E+01  0.18431892737E+01  0.66871378252E+01  0.51100000000E-03 0. -1.
        -11    1    3    3    0    0  0.14147366654E+01  0.12322008882E+01 -0.21240293228E+01  0.28339547785E+01  0.51100000000E-03 0.  1.
         12    1    3    3    0    0  0.11221449567E+02 -0.34151375624E+02  0.13117280105E+02  0.38266178601E+02  0.00000000000E+00 0. -1.
</event>
<event>
 7    1  0.4356471E-010  0.4778727E+02  0.7816164E-02  0.1312668E+00
        -11   -1    0    0    0    0  0.00000000000E+00  0.00000000000E+00  0.45593999997E+02  0.45594000000E+02  0.51100000000E-03 0. -1.
         11   -1    0    0    0    0 -0.00000000000E+00 -0.00000000000E+00 -0.45593999997E+02  0.45594000000E+02  0.51100000000E-03 0.  1.
    9900012    2    1    2    0    0  0.17497466674E+02 -0.38539916621E+02  0.95987931140E+01  0.47787270254E+02  0.19999996398E+02 0.  0.
        -12    1    1    2    0    0 -0.17497466674E+02  0.38539916621E+02 -0.95987931140E+01  0.43400729746E+02  0.00000000000E+00 0.  1.
         11    1    3    3    0    0  0.11550234135E+02 -0.27677660751E+02  0.43012389030E+01  0.30297878962E+02  0.51100000000E-03 0. -1.
        -11    1    3    3    0    0  0.33794794223E+01 -0.50914588892E+01 -0.32026648923E+01  0.68993403641E+01  0.51100000000E-03 0.  1.
         12    1    3    3    0    0  0.25677531167E+01 -0.57707969814E+01  0.85002191033E+01  0.10590050929E+02  0.00000000000E+00 0. -1.
</event>
<event>
 7    1  0.4356471E-010  0.4778727E+02  0.7816164E-02  0.1312668E+00
        -11   -1    0    0    0    0  0.00000000000E+00  0.00000000000E+00  0.45593999997E+02  0.45594000000E+02  0.51100000000E-03 0. -1.
         11   -1    0    0    0    0 -0.00000000000E+00 -0.00000000000E+00 -0.45593999997E+02  0.45594000000E+02  0.51100000000E-03 0.  1.
    9900012    2    1    2    0    0  0.21575274132E+02  0.11046753189E+02  0.36001392101E+02  0.47787269095E+02  0.19999991113E+02 0.  0.
        -12    1    1    2    0    0 -0.21575274132E+02 -0.11046753189E+02 -0.36001392101E+02  0.43400730905E+02  0.00000000000E+00 0.  1.
         11    1    3    3    0    0  0.47896651694E+01 -0.53402319728E+01  0.51282503448E+01  0.88180452379E+01  0.51100000000E-03 0.  1.
        -11    1    3    3    0    0  0.26151147575E+01  0.95533819433E+00  0.28993809107E+01  0.40196898123E+01  0.51100000000E-03 0. -1.
        -12    1    3    3    0    0  0.14170494205E+02  0.15431646968E+02  0.27973760845E+02  0.34949534045E+02  0.00000000000E+00 0.  1.
</event>
<event>
 7    1  0.4356471E-010  0.4778727E+02  0.7816164E-02  0.1312668E+00
        -11   -1    0    0    0    0  0.00000000000E+00  0.00000000000E+00  0.45593999997E+02  0.45594000000E+02  0.51100000000E-03 0. -1.
         11   -1    0    0    0    0 -0.00000000000E+00 -0.00000000000E+00 -0.45593999997E+02  0.45594000000E+02  0.51100000000E-03 0.  1.
    9900012    2    1    2    0    0 -0.35491262005E+00 -0.31963653461E+02  0.29356810088E+02  0.47787269544E+02  0.19999993159E+02 0.  0.
        -12    1    1    2    0    0  0.35491262005E+00  0.31963653461E+02 -0.29356810088E+02  0.43400730456E+02  0.00000000000E+00 0.  1.
         11    1    3    3    0    0 -0.16842438030E+01 -0.21400836948E+02  0.16703659514E+02  0.27200087145E+02  0.51100000000E-03 0. -1.
        -11    1    3    3    0    0  0.60186880198E+01 -0.97568594178E+01  0.93743591694E+01  0.14808765015E+02  0.51100000000E-03 0.  1.
        -12    1    3    3    0    0 -0.46893568368E+01 -0.80595709505E+00  0.32787914051E+01  0.57784173837E+01  0.00000000000E+00 0.  1.
</event>
<event>
 7    1  0.4356471E-010  0.4778727E+02  0.7816164E-02  0.1312668E+00
        -11   -1    0    0    0    0  0.00000000000E+00  0.00000000000E+00  0.45593999997E+02  0.45594000000E+02  0.51100000000E-03 0.  1.
         11   -1    0    0    0    0 -0.00000000000E+00 -0.00000000000E+00 -0.45593999997E+02  0.45594000000E+02  0.51100000000E-03 0. -1.
    9900012    2    1    2    0    0 -0.30604968075E+02 -0.22615504331E+02 -0.20868595762E+02  0.47787269637E+02  0.19999993582E+02 0.  0.
        -12    1    1    2    0    0  0.30604968075E+02  0.22615504331E+02  0.20868595762E+02  0.43400730363E+02  0.00000000000E+00 0.  1.
         11    1    3    3    0    0 -0.79249286543E+01 -0.76452443964E+01 -0.53979521464E+01  0.12263447464E+02  0.51100000000E-03 0. -1.
        -11    1    3    3    0    0 -0.18791178326E+01 -0.26619340672E+01 -0.10305579115E+02  0.10808419772E+02  0.51100000000E-03 0.  1.
        -12    1    3    3    0    0 -0.20800921588E+02 -0.12308325867E+02 -0.51650645004E+01  0.24715402401E+02  0.00000000000E+00 0.  1.
</event>
<event>
 7    1  0.4356471E-010  0.4778727E+02  0.7816164E-02  0.1312668E+00
        -11   -1    0    0    0    0  0.00000000000E+00  0.00000000000E+00  0.45593999997E+02  0.45594000000E+02  0.51100000000E-03 0.  1.
         11   -1    0    0    0    0 -0.00000000000E+00 -0.00000000000E+00 -0.45593999997E+02  0.45594000000E+02  0.51100000000E-03 0. -1.
    9900012    2    1    2    0    0  0.77957620808E+01  0.41395514348E+02  0.10452773605E+02  0.47787274308E+02  0.20000014881E+02 0.  0.
        -12    1    1    2    0    0 -0.77957620808E+01 -0.41395514348E+02 -0.10452773605E+02  0.43400725692E+02  0.00000000000E+00 0.  1.
         11    1    3    3    0    0  0.43170407361E+01  0.11677797616E+02 -0.34898153572E+01  0.12930066101E+02  0.51100000000E-03 0. -1.
        -11    1    3    3    0    0  0.22972072016E+01  0.11210930960E+01  0.36201210028E+01  0.44316235166E+01  0.51100000000E-03 0.  1.
        -12    1    3    3    0    0  0.11815141432E+01  0.28596623636E+02  0.10322467959E+02  0.30425584691E+02  0.00000000000E+00 0.  1.
</event>
<event>
 7    1  0.4356471E-010  0.4778727E+02  0.7816164E-02  0.1312668E+00
        -11   -1    0    0    0    0  0.00000000000E+00  0.00000000000E+00  0.45593999997E+02  0.45594000000E+02  0.51100000000E-03 0.  1.
         11   -1    0    0    0    0 -0.00000000000E+00 -0.00000000000E+00 -0.45593999997E+02  0.45594000000E+02  0.51100000000E-03 0. -1.
    9900012    2    1    2    0    0 -0.27859619918E+02 -0.36795606401E+01 -0.33074550617E+02  0.47787268590E+02  0.19999988808E+02 0.  0.
        -12    1    1    2    0    0  0.27859619918E+02  0.36795606401E+01  0.33074550617E+02  0.43400731410E+02  0.00000000000E+00 0.  1.
         11    1    3    3    0    0  0.25872203420E+01  0.60958362094E-01 -0.53573414231E+01  0.59496665793E+01  0.51100000000E-03 0. -1.
        -11    1    3    3    0    0 -0.73606482814E+01 -0.32524576533E+01 -0.51756093363E+01  0.95678919398E+01  0.51100000000E-03 0.  1.
         12    1    3    3    0    0 -0.23086191978E+02 -0.48806134896E+00 -0.22541599857E+02  0.32269710071E+02  0.00000000000E+00 0. -1.
</event>
<event>
 7    1  0.4479990E-010  0.4778727E+02  0.7816164E-02  0.1312668E+00
        -11   -1    0    0    0    0  0.00000000000E+00  0.00000000000E+00  0.45593999997E+02  0.45594000000E+02  0.51100000000E-03 0. -1.
         11   -1    0    0    0    0 -0.00000000000E+00 -0.00000000000E+00 -0.45593999997E+02  0.45594000000E+02  0.51100000000E-03 0.  1.
    9900012    2    1    2    0    0 -0.20482149052E+02  0.28407099898E+02  0.25634772455E+02  0.47787270591E+02  0.19999997931E+02 0.  0.
        -12    1    1    2    0    0  0.20482149052E+02 -0.28407099898E+02 -0.25634772455E+02  0.43400729409E+02  0.00000000000E+00 0.  1.
         11    1    3    3    0    0 -0.36485522463E+01 -0.54305707704E+00  0.83062387926E+00  0.37811084053E+01  0.51100000000E-03 0. -1.
        -11    1    3    3    0    0  0.97075101417E+00  0.15020759611E+01 -0.12505056618E+01  0.21822819240E+01  0.51100000000E-03 0.  1.
         12    1    3    3    0    0 -0.17804347820E+02  0.27448081014E+02  0.26054654238E+02  0.41823880261E+02  0.00000000000E+00 0. -1.
</event>
<event>
 7    1  0.4356471E-010  0.4778727E+02  0.7816164E-02  0.1312668E+00
        -11   -1    0    0    0    0  0.00000000000E+00  0.00000000000E+00  0.45593999997E+02  0.45594000000E+02  0.51100000000E-03 0.  1.
         11   -1    0    0    0    0 -0.00000000000E+00 -0.00000000000E+00 -0.45593999997E+02  0.45594000000E+02  0.51100000000E-03 0. -1.
    9900012    2    1    2    0    0  0.32743654681E+01 -0.40701817754E+02 -0.14705913645E+02  0.47787270354E+02  0.19999996852E+02 0.  0.
        -12    1    1    2    0    0 -0.32743654681E+01  0.40701817754E+02  0.14705913645E+02  0.43400729646E+02  0.00000000000E+00 0.  1.
         11    1    3    3    0    0  0.46406697119E+01 -0.14061178537E+02 -0.14286716569E+01  0.14875942329E+02  0.51100000000E-03 0. -1.
        -11    1    3    3    0    0  0.42768436131E+01 -0.11636687947E+02 -0.49279209605E+00  0.12407527633E+02  0.51100000000E-03 0.  1.
         12    1    3    3    0    0 -0.56431478569E+01 -0.15003951270E+02 -0.12784449892E+02  0.20503800391E+02  0.00000000000E+00 0. -1.
</event>
<event>
 7    1  0.4356471E-010  0.4778725E+02  0.7816164E-02  0.1312668E+00
        -11   -1    0    0    0    0  0.00000000000E+00  0.00000000000E+00  0.45593999997E+02  0.45594000000E+02  0.51100000000E-03 0.  1.
         11   -1    0    0    0    0 -0.00000000000E+00 -0.00000000000E+00 -0.45593999997E+02  0.45594000000E+02  0.51100000000E-03 0. -1.
    9900012    2    1    2    0    0  0.13518179369E+02  0.20239122689E+02 -0.35934130283E+02  0.47787251390E+02  0.19999910387E+02 0.  0.
        -12    1    1    2    0    0 -0.13518179369E+02 -0.20239122689E+02  0.35934130283E+02  0.43400748610E+02  0.00000000000E+00 0.  1.
         11    1    3    3    0    0 -0.28507391476E+00  0.63963517069E+01 -0.20644948316E+02  0.21615005749E+02  0.51100000000E-03 0. -1.
        -11    1    3    3    0    0  0.63438715170E+01  0.21760975269E+01 -0.82689775854E+01  0.10646882024E+02  0.51100000000E-03 0.  1.
         12    1    3    3    0    0  0.74593817670E+01  0.11666673456E+02 -0.70202043819E+01  0.15525363617E+02  0.00000000000E+00 0. -1.
</event>
<event>
 7    1  0.4356471E-010  0.4778727E+02  0.7816164E-02  0.1312668E+00
        -11   -1    0    0    0    0  0.00000000000E+00  0.00000000000E+00  0.45593999997E+02  0.45594000000E+02  0.51100000000E-03 0. -1.
         11   -1    0    0    0    0 -0.00000000000E+00 -0.00000000000E+00 -0.45593999997E+02  0.45594000000E+02  0.51100000000E-03 0.  1.
    9900012    2    1    2    0    0 -0.18882999157E+02  0.38319412667E+02  0.76601743703E+01  0.47787270563E+02  0.19999997804E+02 0.  0.
        -12    1    1    2    0    0  0.18882999157E+02 -0.38319412667E+02 -0.76601743703E+01  0.43400729437E+02  0.00000000000E+00 0.  1.
         11    1    3    3    0    0 -0.47544092390E+01  0.91754471054E+01 -0.15516793115E+01  0.10449925633E+02  0.51100000000E-03 0. -1.
        -11    1    3    3    0    0 -0.11731573919E+02  0.72782914380E+01  0.62045948856E+01  0.15136061272E+02  0.51100000000E-03 0.  1.
         12    1    3    3    0    0 -0.23970159996E+01  0.21865674123E+02  0.30072587962E+01  0.22201283657E+02  0.00000000000E+00 0. -1.
</event>
<event>
 7    1  0.4356471E-010  0.4778727E+02  0.7816164E-02  0.1312668E+00
        -11   -1    0    0    0    0  0.00000000000E+00  0.00000000000E+00  0.45593999997E+02  0.45594000000E+02  0.51100000000E-03 0.  1.
         11   -1    0    0    0    0 -0.00000000000E+00 -0.00000000000E+00 -0.45593999997E+02  0.45594000000E+02  0.51100000000E-03 0. -1.
    9900012    2    1    2    0    0 -0.85485347718E+01  0.42519970845E+02  0.16119452499E+01  0.47787265733E+02  0.19999975785E+02 0.  0.
        -12    1    1    2    0    0  0.85485347718E+01 -0.42519970845E+02 -0.16119452499E+01  0.43400734267E+02  0.00000000000E+00 0.  1.
         11    1    3    3    0    0 -0.98517554853E+01  0.31967921794E+02  0.89677129540E+01  0.34632715543E+02  0.51100000000E-03 0. -1.
        -11    1    3    3    0    0  0.11351505823E+01  0.29831702571E+01 -0.12477542580E+01  0.34270632584E+01  0.51100000000E-03 0.  1.
         12    1    3    3    0    0  0.16807013124E+00  0.75688787938E+01 -0.61080134461E+01  0.97274869325E+01  0.00000000000E+00 0. -1.
</event>
<event>
 7    1  0.4356471E-010  0.4778727E+02  0.7816164E-02  0.1312668E+00
        -11   -1    0    0    0    0  0.00000000000E+00  0.00000000000E+00  0.45593999997E+02  0.45594000000E+02  0.51100000000E-03 0. -1.
         11   -1    0    0    0    0 -0.00000000000E+00 -0.00000000000E+00 -0.45593999997E+02  0.45594000000E+02  0.51100000000E-03 0.  1.
    9900012    2    1    2    0    0 -0.18801329784E+02 -0.19238700477E+01  0.39069584271E+02  0.47787266219E+02  0.19999977999E+02 0.  0.
        -12    1    1    2    0    0  0.18801329784E+02  0.19238700477E+01 -0.39069584271E+02  0.43400733781E+02  0.00000000000E+00 0.  1.
         11    1    3    3    0    0 -0.25290036029E+01 -0.36979571147E+01  0.16952525268E+02  0.17534504819E+02  0.51100000000E-03 0. -1.
        -11    1    3    3    0    0 -0.13182150322E+02 -0.97873411963E+00  0.22501092178E+02  0.26096477867E+02  0.51100000000E-03 0.  1.
        -12    1    3    3    0    0 -0.30901758587E+01  0.27528211866E+01 -0.38403317461E+00  0.41562835325E+01  0.00000000000E+00 0.  1.
</event>
<event>
 7    1  0.4356471E-010  0.4778730E+02  0.7816164E-02  0.1312668E+00
        -11   -1    0    0    0    0  0.00000000000E+00  0.00000000000E+00  0.45593999997E+02  0.45594000000E+02  0.51100000000E-03 0. -1.
         11   -1    0    0    0    0 -0.00000000000E+00 -0.00000000000E+00 -0.45593999997E+02  0.45594000000E+02  0.51100000000E-03 0.  1.
    9900012    2    1    2    0    0  0.25049678618E+02 -0.28718314603E+00  0.35440827740E+02  0.47787295583E+02  0.20000111881E+02 0.  0.
        -12    1    1    2    0    0 -0.25049678618E+02  0.28718314603E+00 -0.35440827740E+02  0.43400704417E+02  0.00000000000E+00 0.  1.
         11    1    3    3    0    0  0.13661431392E+02 -0.54370749479E+01  0.10380731252E+02  0.17998779771E+02  0.51100000000E-03 0. -1.
        -11    1    3    3    0    0  0.10327736936E+01 -0.24908692264E+01  0.78407800997E+01  0.82914946686E+01  0.51100000000E-03 0.  1.
         12    1    3    3    0    0  0.10355473532E+02  0.76407610282E+01  0.17219316388E+02  0.21497021143E+02  0.00000000000E+00 0. -1.
</event>
<event>
 7    1  0.4356471E-010  0.4778727E+02  0.7816164E-02  0.1312668E+00
        -11   -1    0    0    0    0  0.00000000000E+00  0.00000000000E+00  0.45593999997E+02  0.45594000000E+02  0.51100000000E-03 0.  1.
         11   -1    0    0    0    0 -0.00000000000E+00 -0.00000000000E+00 -0.45593999997E+02  0.45594000000E+02  0.51100000000E-03 0. -1.
    9900012    2    1    2    0    0  0.10348743348E+02 -0.24818671583E+02 -0.34066997043E+02  0.47787271486E+02  0.20000002015E+02 0.  0.
        -12    1    1    2    0    0 -0.10348743348E+02  0.24818671583E+02  0.34066997043E+02  0.43400728514E+02  0.00000000000E+00 0.  1.
         11    1    3    3    0    0  0.13899072006E+02 -0.13136784702E+02 -0.20125996526E+02  0.27763556173E+02  0.51100000000E-03 0. -1.
        -11    1    3    3    0    0 -0.88699898043E-01 -0.94892445191E+00  0.94907662056E+00  0.13450174646E+01  0.51100000000E-03 0.  1.
        -12    1    3    3    0    0 -0.34616287602E+01 -0.10732962429E+02 -0.14890077137E+02  0.18678697849E+02  0.00000000000E+00 0.  1.
</event>
<event>
 7    1  0.4356471E-010  0.4778727E+02  0.7816164E-02  0.1312668E+00
        -11   -1    0    0    0    0  0.00000000000E+00  0.00000000000E+00  0.45593999997E+02  0.45594000000E+02  0.51100000000E-03 0.  1.
         11   -1    0    0    0    0 -0.00000000000E+00 -0.00000000000E+00 -0.45593999997E+02  0.45594000000E+02  0.51100000000E-03 0. -1.
    9900012    2    1    2    0    0  0.16295500344E+02  0.21238394568E+02 -0.34161531790E+02  0.47787274320E+02  0.20000014936E+02 0.  0.
        -12    1    1    2    0    0 -0.16295500344E+02 -0.21238394568E+02  0.34161531790E+02  0.43400725680E+02  0.00000000000E+00 0.  1.
         11    1    3    3    0    0  0.27241599393E+01 -0.99477776225E+00 -0.65352549884E+01  0.71498383335E+01  0.51100000000E-03 0. -1.
        -11    1    3    3    0    0 -0.30286595820E+01  0.35684392237E+01 -0.29925387537E+01  0.55553420966E+01  0.51100000000E-03 0.  1.
         12    1    3    3    0    0  0.16599999986E+02  0.18664733107E+02 -0.24633738048E+02  0.35082093890E+02  0.00000000000E+00 0. -1.
</event>
<event>
 7    1  0.4356471E-010  0.4778727E+02  0.7816164E-02  0.1312668E+00
        -11   -1    0    0    0    0  0.00000000000E+00  0.00000000000E+00  0.45593999997E+02  0.45594000000E+02  0.51100000000E-03 0.  1.
         11   -1    0    0    0    0 -0.00000000000E+00 -0.00000000000E+00 -0.45593999997E+02  0.45594000000E+02  0.51100000000E-03 0. -1.
    9900012    2    1    2    0    0 -0.86242700380E+01  0.83332411046E+01 -0.41710938605E+02  0.47787270279E+02  0.19999996512E+02 0.  0.
        -12    1    1    2    0    0  0.86242700380E+01 -0.83332411046E+01  0.41710938605E+02  0.43400729721E+02  0.00000000000E+00 0.  1.
         11    1    3    3    0    0 -0.37330779210E+01  0.40614522229E+01 -0.82613698097E+01  0.99338560648E+01  0.51100000000E-03 0. -1.
        -11    1    3    3    0    0  0.51748776584E+01  0.45928979770E+01 -0.85817714270E+01  0.11023650561E+02  0.51100000000E-03 0.  1.
        -12    1    3    3    0    0 -0.10066069775E+02 -0.32110909528E+00 -0.24867797368E+02  0.26829763654E+02  0.00000000000E+00 0.  1.
</event>
<event>
 7    1  0.4356471E-010  0.4778727E+02  0.7816164E-02  0.1312668E+00
        -11   -1    0    0    0    0  0.00000000000E+00  0.00000000000E+00  0.45593999997E+02  0.45594000000E+02  0.51100000000E-03 0.  1.
         11   -1    0    0    0    0 -0.00000000000E+00 -0.00000000000E+00 -0.45593999997E+02  0.45594000000E+02  0.51100000000E-03 0. -1.
    9900012    2    1    2    0    0 -0.60486135494E+01 -0.39974655270E+02 -0.15781772923E+02  0.47787272513E+02  0.20000006697E+02 0.  0.
        -12    1    1    2    0    0  0.60486135494E+01  0.39974655270E+02  0.15781772923E+02  0.43400727487E+02  0.00000000000E+00 0.  1.
         11    1    3    3    0    0 -0.26805505264E+01 -0.98809861393E+01 -0.12995119801E+02  0.16543650659E+02  0.51100000000E-03 0. -1.
        -11    1    3    3    0    0 -0.21204641665E+01 -0.16112784611E+02 -0.50666917515E+01  0.17023206565E+02  0.51100000000E-03 0.  1.
        -12    1    3    3    0    0 -0.12475988565E+01 -0.13980884519E+02  0.22800386300E+01  0.14220415289E+02  0.00000000000E+00 0.  1.
</event>
<event>
 7    1  0.4356471E-010  0.4778728E+02  0.7816164E-02  0.1312668E+00
        -11   -1    0    0    0    0  0.00000000000E+00  0.00000000000E+00  0.45593999997E+02  0.45594000000E+02  0.51100000000E-03 0.  1.
         11   -1    0    0    0    0 -0.00000000000E+00 -0.00000000000E+00 -0.45593999997E+02  0.45594000000E+02  0.51100000000E-03 0. -1.
    9900012    2    1    2    0    0 -0.28444389227E+01 -0.14517527113E+01 -0.43283072232E+02  0.47787276958E+02  0.20000026962E+02 0.  0.
        -12    1    1    2    0    0  0.28444389227E+01  0.14517527113E+01  0.43283072232E+02  0.43400723042E+02  0.00000000000E+00 0.  1.
         11    1    3    3    0    0 -0.40702717657E+01 -0.46048510705E+01 -0.38871080741E+02  0.39353941147E+02  0.51100000000E-03 0. -1.
        -11    1    3    3    0    0 -0.95036936548E+00 -0.15977933134E+01 -0.56045872951E+00  0.19417156465E+01  0.51100000000E-03 0.  1.
         12    1    3    3    0    0  0.21762022085E+01  0.47508916727E+01 -0.38515327620E+01  0.64916201641E+01  0.00000000000E+00 0. -1.
</event>
<event>
 7    1  0.4637725E-010  0.4778727E+02  0.7816164E-02  0.1312668E+00
        -11   -1    0    0    0    0  0.00000000000E+00  0.00000000000E+00  0.45593999997E+02  0.45594000000E+02  0.51100000000E-03 0.  1.
         11   -1    0    0    0    0 -0.00000000000E+00 -0.00000000000E+00 -0.45593999997E+02  0.45594000000E+02  0.51100000000E-03 0. -1.
    9900012    2    1    2    0    0  0.20760652054E+02  0.38109087953E+02 -0.56204624540E+00  0.47787272422E+02  0.20000006281E+02 0.  0.
        -12    1    1    2    0    0 -0.20760652054E+02 -0.38109087953E+02  0.56204624540E+00  0.43400727578E+02  0.00000000000E+00 0.  1.
         11    1    3    3    0    0  0.14534884384E+02  0.27864686815E+02 -0.12342941945E+01  0.31451981142E+02  0.51100000000E-03 0. -1.
        -11    1    3    3    0    0 -0.13030120672E+00  0.99203040628E+01  0.93811732567E+00  0.99654139643E+01  0.51100000000E-03 0.  1.
        -12    1    3    3    0    0  0.63560688775E+01  0.32409707487E+00 -0.26586937658E+00  0.63698773155E+01  0.00000000000E+00 0.  1.
</event>
<event>
 7    1  0.4356471E-010  0.4778727E+02  0.7816164E-02  0.1312668E+00
        -11   -1    0    0    0    0  0.00000000000E+00  0.00000000000E+00  0.45593999997E+02  0.45594000000E+02  0.51100000000E-03 0.  1.
         11   -1    0    0    0    0 -0.00000000000E+00 -0.00000000000E+00 -0.45593999997E+02  0.45594000000E+02  0.51100000000E-03 0. -1.
    9900012    2    1    2    0    0  0.58409565955E+01  0.27301824729E+02 -0.33228254209E+02  0.47787270913E+02  0.19999999400E+02 0.  0.
        -12    1    1    2    0    0 -0.58409565955E+01 -0.27301824729E+02  0.33228254209E+02  0.43400729087E+02  0.00000000000E+00 0.  1.
         11    1    3    3    0    0  0.55423916602E+01  0.11882724485E+02 -0.19860736243E+02  0.23798447236E+02  0.51100000000E-03 0. -1.
        -11    1    3    3    0    0  0.50158509283E+01  0.19424187461E+01 -0.54711982893E+01  0.76724026290E+01  0.51100000000E-03 0.  1.
        -12    1    3    3    0    0 -0.47172859929E+01  0.13476681499E+02 -0.78963196774E+01  0.16316421047E+02  0.00000000000E+00 0.  1.
</event>
<event>
 7    1  0.4356471E-010  0.4778727E+02  0.7816164E-02  0.1312668E+00
        -11   -1    0    0    0    0  0.00000000000E+00  0.00000000000E+00  0.45593999997E+02  0.45594000000E+02  0.51100000000E-03 0.  1.
         11   -1    0    0    0    0 -0.00000000000E+00 -0.00000000000E+00 -0.45593999997E+02  0.45594000000E+02  0.51100000000E-03 0. -1.
    9900012    2    1    2    0    0  0.10699290692E+02 -0.17370600691E+02 -0.38306797694E+02  0.47787270291E+02  0.19999996564E+02 0.  0.
        -12    1    1    2    0    0 -0.10699290692E+02  0.17370600691E+02  0.38306797694E+02  0.43400729709E+02  0.00000000000E+00 0.  1.
         11    1    3    3    0    0  0.91272155507E+01 -0.51733013058E+01 -0.19479432407E+02  0.22125040051E+02  0.51100000000E-03 0. -1.
        -11    1    3    3    0    0  0.65899125347E+01 -0.99086453480E+01 -0.13466972405E+02  0.17971297835E+02  0.51100000000E-03 0.  1.
        -12    1    3    3    0    0 -0.50178373930E+01 -0.22886540370E+01 -0.53603928830E+01  0.76909324054E+01  0.00000000000E+00 0.  1.
</event>
<event>
 7    1  0.4356471E-010  0.4778727E+02  0.7816164E-02  0.1312668E+00
        -11   -1    0    0    0    0  0.00000000000E+00  0.00000000000E+00  0.45593999997E+02  0.45594000000E+02  0.51100000000E-03 0.  1.
         11   -1    0    0    0    0 -0.00000000000E+00 -0.00000000000E+00 -0.45593999997E+02  0.45594000000E+02  0.51100000000E-03 0. -1.
    9900012    2    1    2    0    0 -0.83836808902E+01  0.84845164192E+01 -0.41729492507E+02  0.47787266492E+02  0.19999979245E+02 0.  0.
        -12    1    1    2    0    0  0.83836808902E+01 -0.84845164192E+01  0.41729492507E+02  0.43400733508E+02  0.00000000000E+00 0.  1.
         11    1    3    3    0    0  0.69154308302E+00  0.18871352666E+01 -0.87710061192E+01  0.89983365104E+01  0.51100000000E-03 0. -1.
        -11    1    3    3    0    0 -0.13811742192E+02  0.23122787211E+01 -0.21201013772E+02  0.25408538732E+02  0.51100000000E-03 0.  1.
        -12    1    3    3    0    0  0.47365182193E+01  0.42851024315E+01 -0.11757472616E+02  0.13380391250E+02  0.00000000000E+00 0.  1.
</event>
<event>
 7    1  0.4356471E-010  0.4778727E+02  0.7816164E-02  0.1312668E+00
        -11   -1    0    0    0    0  0.00000000000E+00  0.00000000000E+00  0.45593999997E+02  0.45594000000E+02  0.51100000000E-03 0.  1.
         11   -1    0    0    0    0 -0.00000000000E+00 -0.00000000000E+00 -0.45593999997E+02  0.45594000000E+02  0.51100000000E-03 0. -1.
    9900012    2    1    2    0    0  0.82671789568E+01  0.41893494021E+02  0.77596441677E+01  0.47787272278E+02  0.20000005625E+02 0.  0.
        -12    1    1    2    0    0 -0.82671789568E+01 -0.41893494021E+02 -0.77596441677E+01  0.43400727722E+02  0.00000000000E+00 0.  1.
         11    1    3    3    0    0 -0.92082770569E+00  0.14141318597E+02 -0.49014134965E+01  0.14994954813E+02  0.51100000000E-03 0. -1.
        -11    1    3    3    0    0 -0.71124020244E+00  0.48337895415E+01  0.41684555778E+01  0.64224143530E+01  0.51100000000E-03 0.  1.
         12    1    3    3    0    0  0.98992468650E+01  0.22918385883E+02  0.84926020864E+01  0.26369903112E+02  0.00000000000E+00 0. -1.
</event>
<event>
 7    1  0.4356471E-010  0.4778730E+02  0.7816164E-02  0.1312668E+00
        -11   -1    0    0    0    0  0.00000000000E+00  0.00000000000E+00  0.45593999997E+02  0.45594000000E+02  0.51100000000E-03 0. -1.
         11   -1    0    0    0    0 -0.00000000000E+00 -0.00000000000E+00 -0.45593999997E+02  0.45594000000E+02  0.51100000000E-03 0.  1.
    9900012    2    1    2    0    0  0.24508181470E+02  0.24905734169E+02  0.25742454966E+02  0.47787302527E+02  0.20000143542E+02 0.  0.
        -12    1    1    2    0    0 -0.24508181470E+02 -0.24905734169E+02 -0.25742454966E+02  0.43400697473E+02  0.00000000000E+00 0.  1.
         11    1    3    3    0    0  0.15623811653E+02  0.11235895176E+02  0.10326091101E+02  0.21839802853E+02  0.51100000000E-03 0. -1.
        -11    1    3    3    0    0  0.94149195998E+01  0.11285445006E+02  0.54320707451E+01  0.15668738714E+02  0.51100000000E-03 0.  1.
         12    1    3    3    0    0 -0.53054978274E+00  0.23843939859E+01  0.99842931201E+01  0.10278760959E+02  0.00000000000E+00 0. -1.
</event>
<event>
 7    1  0.4356471E-010  0.4778728E+02  0.7816164E-02  0.1312668E+00
        -11   -1    0    0    0    0  0.00000000000E+00  0.00000000000E+00  0.45593999997E+02  0.45594000000E+02  0.51100000000E-03 0.  1.
         11   -1    0    0    0    0 -0.00000000000E+00 -0.00000000000E+00 -0.45593999997E+02  0.45594000000E+02  0.51100000000E-03 0. -1.
    9900012    2    1    2    0    0 -0.79559419731E+01 -0.15690399052E+02 -0.39675397182E+02  0.47787276772E+02  0.20000026116E+02 0.  0.
        -12    1    1    2    0    0  0.79559419731E+01  0.15690399052E+02  0.39675397182E+02  0.43400723228E+02  0.00000000000E+00 0.  1.
         11    1    3    3    0    0 -0.22319248962E+01  0.24313237863E+01 -0.10650502545E+01  0.34680190891E+01  0.51100000000E-03 0.  1.
        -11    1    3    3    0    0 -0.33621907899E+01 -0.82909369002E+00 -0.12050171580E+02  0.12537876958E+02  0.51100000000E-03 0. -1.
        -12    1    3    3    0    0 -0.23618262870E+01 -0.17292629149E+02 -0.26560175348E+02  0.31781380725E+02  0.00000000000E+00 0.  1.
</event>
<event>
 7    1  0.4356471E-010  0.4778727E+02  0.7816164E-02  0.1312668E+00
        -11   -1    0    0    0    0  0.00000000000E+00  0.00000000000E+00  0.45593999997E+02  0.45594000000E+02  0.51100000000E-03 0.  1.
         11   -1    0    0    0    0 -0.00000000000E+00 -0.00000000000E+00 -0.45593999997E+02  0.45594000000E+02  0.51100000000E-03 0. -1.
    9900012    2    1    2    0    0  0.33248186060E+02 -0.49031853171E+00 -0.27891588873E+02  0.47787273988E+02  0.20000013419E+02 0.  0.
        -12    1    1    2    0    0 -0.33248186060E+02  0.49031853171E+00  0.27891588873E+02  0.43400726012E+02  0.00000000000E+00 0.  1.
         11    1    3    3    0    0  0.13932223913E+02 -0.42217168762E+00 -0.53667264686E+01  0.14936092037E+02  0.51100000000E-03 0. -1.
        -11    1    3    3    0    0  0.70238801190E+01 -0.57915929688E+01 -0.41242799543E+01  0.99943547288E+01  0.51100000000E-03 0.  1.
         12    1    3    3    0    0  0.12292082028E+02  0.57234461247E+01 -0.18400582450E+02  0.22856827221E+02  0.00000000000E+00 0. -1.
</event>
<event>
 7    1  0.4356471E-010  0.4778727E+02  0.7816164E-02  0.1312668E+00
        -11   -1    0    0    0    0  0.00000000000E+00  0.00000000000E+00  0.45593999997E+02  0.45594000000E+02  0.51100000000E-03 0.  1.
         11   -1    0    0    0    0 -0.00000000000E+00 -0.00000000000E+00 -0.45593999997E+02  0.45594000000E+02  0.51100000000E-03 0. -1.
    9900012    2    1    2    0    0 -0.26636377137E+02 -0.34138270226E+01 -0.34095046526E+02  0.47787274205E+02  0.20000014408E+02 0.  0.
        -12    1    1    2    0    0  0.26636377137E+02  0.34138270226E+01  0.34095046526E+02  0.43400725795E+02  0.00000000000E+00 0.  1.
         11    1    3    3    0    0 -0.85426162025E+01  0.50379257507E+01 -0.36001265892E+01  0.10550729793E+02  0.51100000000E-03 0. -1.
        -11    1    3    3    0    0 -0.37384128902E+01 -0.44153592584E+01 -0.47535270832E+01  0.74877999646E+01  0.51100000000E-03 0.  1.
         12    1    3    3    0    0 -0.14355348044E+02 -0.40363935150E+01 -0.25741392854E+02  0.29748744447E+02  0.00000000000E+00 0. -1.
</event>
<event>
 7    1  0.4356471E-010  0.4778728E+02  0.7816164E-02  0.1312668E+00
        -11   -1    0    0    0    0  0.00000000000E+00  0.00000000000E+00  0.45593999997E+02  0.45594000000E+02  0.51100000000E-03 0.  1.
         11   -1    0    0    0    0 -0.00000000000E+00 -0.00000000000E+00 -0.45593999997E+02  0.45594000000E+02  0.51100000000E-03 0. -1.
    9900012    2    1    2    0    0  0.68042031847E+01  0.25973998474E+02 -0.34098050287E+02  0.47787276376E+02  0.20000024308E+02 0.  0.
        -12    1    1    2    0    0 -0.68042031847E+01 -0.25973998474E+02  0.34098050287E+02  0.43400723624E+02  0.00000000000E+00 0.  1.
         11    1    3    3    0    0  0.40144281316E+01  0.20173314324E+02 -0.23515052022E+02  0.31241573518E+02  0.51100000000E-03 0. -1.
        -11    1    3    3    0    0  0.31687104498E+01  0.54682340977E+01 -0.12798332372E+02  0.14273738888E+02  0.51100000000E-03 0.  1.
        -12    1    3    3    0    0 -0.37893539670E+00  0.33245005246E+00  0.22153341073E+01  0.22719639696E+01  0.00000000000E+00 0.  1.
</event>
<event>
 7    1  0.4356471E-010  0.4778733E+02  0.7816164E-02  0.1312667E+00
        -11   -1    0    0    0    0  0.00000000000E+00  0.00000000000E+00  0.45593999997E+02  0.45594000000E+02  0.51100000000E-03 0.  1.
         11   -1    0    0    0    0 -0.00000000000E+00 -0.00000000000E+00 -0.45593999997E+02  0.45594000000E+02  0.51100000000E-03 0. -1.
    9900012    2    1    2    0    0 -0.39406506297E+02  0.47754246594E+01 -0.17548235912E+02  0.47787331770E+02  0.20000276869E+02 0.  0.
        -12    1    1    2    0    0  0.39406506297E+02 -0.47754246594E+01  0.17548235912E+02  0.43400668230E+02  0.00000000000E+00 0.  1.
         11    1    3    3    0    0 -0.11271725988E+01 -0.56336418814E+00  0.45239561211E+00  0.13388649398E+01  0.51100000000E-03 0. -1.
        -11    1    3    3    0    0 -0.68772414592E+01  0.82592427871E+01 -0.78795434156E+01  0.13326617958E+02  0.51100000000E-03 0.  1.
         12    1    3    3    0    0 -0.31402092239E+02 -0.29204539395E+01 -0.10121088108E+02  0.33121848872E+02  0.00000000000E+00 0. -1.
</event>
<event>
 7    1  0.4356471E-010  0.4778727E+02  0.7816164E-02  0.1312668E+00
        -11   -1    0    0    0    0  0.00000000000E+00  0.00000000000E+00  0.45593999997E+02  0.45594000000E+02  0.51100000000E-03 0. -1.
         11   -1    0    0    0    0 -0.00000000000E+00 -0.00000000000E+00 -0.45593999997E+02  0.45594000000E+02  0.51100000000E-03 0.  1.
    9900012    2    1    2    0    0 -0.66785290356E+01 -0.11090425663E+02  0.41424903764E+02  0.47787274853E+02  0.20000017364E+02 0.  0.
        -12    1    1    2    0    0  0.66785290356E+01  0.11090425663E+02 -0.41424903764E+02  0.43400725147E+02  0.00000000000E+00 0.  1.
         11    1    3    3    0    0  0.43666946551E+01 -0.86322933765E+01  0.24989006307E+02  0.26796174123E+02  0.51100000000E-03 0. -1.
        -11    1    3    3    0    0 -0.36337287297E+01  0.18523761287E+01  0.30423456675E+01  0.50883346220E+01  0.51100000000E-03 0.  1.
        -12    1    3    3    0    0 -0.74114949610E+01 -0.43105084156E+01  0.13393551789E+02  0.15902766108E+02  0.00000000000E+00 0.  1.
</event>
<event>
 7    1  0.4356471E-010  0.4778727E+02  0.7816164E-02  0.1312668E+00
        -11   -1    0    0    0    0  0.00000000000E+00  0.00000000000E+00  0.45593999997E+02  0.45594000000E+02  0.51100000000E-03 0.  1.
         11   -1    0    0    0    0 -0.00000000000E+00 -0.00000000000E+00 -0.45593999997E+02  0.45594000000E+02  0.51100000000E-03 0. -1.
    9900012    2    1    2    0    0 -0.15433923965E+01 -0.21219533961E+02 -0.37828198328E+02  0.47787271085E+02  0.20000000183E+02 0.  0.
        -12    1    1    2    0    0  0.15433923965E+01  0.21219533961E+02  0.37828198328E+02  0.43400728915E+02  0.00000000000E+00 0.  1.
         11    1    3    3    0    0  0.31929566910E+01 -0.39689270859E+01 -0.36098698866E+01  0.62432776250E+01  0.51100000000E-03 0.  1.
        -11    1    3    3    0    0 -0.98514113531E-01 -0.81689528279E+01 -0.28921157645E+02  0.30052867669E+02  0.51100000000E-03 0. -1.
        -12    1    3    3    0    0 -0.46378349739E+01 -0.90816540473E+01 -0.52971707965E+01  0.11491125790E+02  0.00000000000E+00 0.  1.
</event>
<event>
 7    1  0.4356471E-010  0.4778728E+02  0.7816164E-02  0.1312668E+00
        -11   -1    0    0    0    0  0.00000000000E+00  0.00000000000E+00  0.45593999997E+02  0.45594000000E+02  0.51100000000E-03 0.  1.
         11   -1    0    0    0    0 -0.00000000000E+00 -0.00000000000E+00 -0.45593999997E+02  0.45594000000E+02  0.51100000000E-03 0. -1.
    9900012    2    1    2    0    0 -0.71204046434E+01 -0.18129432695E+02 -0.38784612110E+02  0.47787278478E+02  0.20000033892E+02 0.  0.
        -12    1    1    2    0    0  0.71204046434E+01  0.18129432695E+02  0.38784612110E+02  0.43400721522E+02  0.00000000000E+00 0.  1.
         11    1    3    3    0    0 -0.10406991436E+01  0.41569731255E+01 -0.47565795886E+01  0.64022285119E+01  0.51100000000E-03 0.  1.
        -11    1    3    3    0    0 -0.26773882387E+01 -0.90706913909E+01 -0.18008548859E+02  0.20340936123E+02  0.51100000000E-03 0. -1.
        -12    1    3    3    0    0 -0.34023172611E+01 -0.13215714430E+02 -0.16019483663E+02  0.21044113843E+02  0.00000000000E+00 0.  1.
</event>
<event>
 7    1  0.4356471E-010  0.4778726E+02  0.7816164E-02  0.1312668E+00
        -11   -1    0    0    0    0  0.00000000000E+00  0.00000000000E+00  0.45593999997E+02  0.45594000000E+02  0.51100000000E-03 0. -1.
         11   -1    0    0    0    0 -0.00000000000E+00 -0.00000000000E+00 -0.45593999997E+02  0.45594000000E+02  0.51100000000E-03 0.  1.
    9900012    2    1    2    0    0 -0.25719096617E+02  0.12471305509E+02  0.32659133778E+02  0.47787257944E+02  0.19999940268E+02 0.  0.
        -12    1    1    2    0    0  0.25719096617E+02 -0.12471305509E+02 -0.32659133778E+02  0.43400742056E+02  0.00000000000E+00 0.  1.
         11    1    3    3    0    0 -0.12373533149E+02  0.85506845289E+01  0.84857038338E+01  0.17269212440E+02  0.51100000000E-03 0.  1.
        -11    1    3    3    0    0 -0.13306070387E+01 -0.38551715262E+01  0.35004401108E+01  0.53745645236E+01  0.51100000000E-03 0. -1.
         12    1    3    3    0    0 -0.12014956430E+02  0.77757925059E+01  0.20672989834E+02  0.25143480980E+02  0.00000000000E+00 0. -1.
</event>
<event>
 7    1  0.4356471E-010  0.4778727E+02  0.7816164E-02  0.1312668E+00
        -11   -1    0    0    0    0  0.00000000000E+00  0.00000000000E+00  0.45593999997E+02  0.45594000000E+02  0.51100000000E-03 0.  1.
         11   -1    0    0    0    0 -0.00000000000E+00 -0.00000000000E+00 -0.45593999997E+02  0.45594000000E+02  0.51100000000E-03 0. -1.
    9900012    2    1    2    0    0  0.14849443218E+02  0.38159136327E+02 -0.14387415361E+02  0.47787269939E+02  0.19999994959E+02 0.  0.
        -12    1    1    2    0    0 -0.14849443218E+02 -0.38159136327E+02  0.14387415361E+02  0.43400730061E+02  0.00000000000E+00 0.  1.
         11    1    3    3    0    0  0.11939104418E+02  0.28308139657E+02 -0.14189315565E+02  0.33841242022E+02  0.51100000000E-03 0. -1.
        -11    1    3    3    0    0  0.20774345454E+01  0.47355999221E+01 -0.47697712308E+01  0.70350805800E+01  0.51100000000E-03 0.  1.
        -12    1    3    3    0    0  0.83290425377E+00  0.51153967483E+01  0.45716714346E+01  0.69109473370E+01  0.00000000000E+00 0.  1.
</event>
<event>
 7    1  0.4468232E-010  0.4778727E+02  0.7816164E-02  0.1312668E+00
        -11   -1    0    0    0    0  0.00000000000E+00  0.00000000000E+00  0.45593999997E+02  0.45594000000E+02  0.51100000000E-03 0.  1.
         11   -1    0    0    0    0 -0.00000000000E+00 -0.00000000000E+00 -0.45593999997E+02  0.45594000000E+02  0.51100000000E-03 0. -1.
    9900012    2    1    2    0    0 -0.32231196817E+02 -0.17953863181E+02 -0.22856773216E+02  0.47787270361E+02  0.19999996883E+02 0.  0.
        -12    1    1    2    0    0  0.32231196817E+02  0.17953863181E+02  0.22856773216E+02  0.43400729639E+02  0.00000000000E+00 0.  1.
         11    1    3    3    0    0 -0.25487544533E+02 -0.94657592348E+01 -0.16509919876E+02  0.31808693447E+02  0.51100000000E-03 0. -1.
        -11    1    3    3    0    0 -0.80557338435E+01 -0.56130936023E+01 -0.77619355617E+01  0.12515962267E+02  0.51100000000E-03 0.  1.
        -12    1    3    3    0    0  0.13120815603E+01 -0.28750103440E+01  0.14150822213E+01  0.34626146467E+01  0.00000000000E+00 0.  1.
</event>
<event>
 7    1  0.4356471E-010  0.4778725E+02  0.7816164E-02  0.1312668E+00
        -11   -1    0    0    0    0  0.00000000000E+00  0.00000000000E+00  0.45593999997E+02  0.45594000000E+02  0.51100000000E-03 0. -1.
         11   -1    0    0    0    0 -0.00000000000E+00 -0.00000000000E+00 -0.45593999997E+02  0.45594000000E+02  0.51100000000E-03 0.  1.
    9900012    2    1    2    0    0 -0.33386531123E+01 -0.39494269615E+02  0.17682790204E+02  0.47787251084E+02  0.19999908993E+02 0.  0.
        -12    1    1    2    0    0  0.33386531123E+01  0.39494269615E+02 -0.17682790204E+02  0.43400748916E+02  0.00000000000E+00 0.  1.
         11    1    3    3    0    0  0.47626968589E+01 -0.93215541435E+00  0.15477520336E+01  0.50938916071E+01  0.51100000000E-03 0. -1.
        -11    1    3    3    0    0 -0.19929766338E+01 -0.70452659176E+01  0.42161715399E+01  0.84488952194E+01  0.51100000000E-03 0.  1.
         12    1    3    3    0    0 -0.61083733374E+01 -0.31516848283E+02  0.11918866631E+02  0.34244464258E+02  0.00000000000E+00 0. -1.
</event>
<event>
 7    1  0.4356471E-010  0.4778727E+02  0.7816164E-02  0.1312668E+00
        -11   -1    0    0    0    0  0.00000000000E+00  0.00000000000E+00  0.45593999997E+02  0.45594000000E+02  0.51100000000E-03 0.  1.
         11   -1    0    0    0    0 -0.00000000000E+00 -0.00000000000E+00 -0.45593999997E+02  0.45594000000E+02  0.51100000000E-03 0. -1.
    9900012    2    1    2    0    0 -0.23104346510E+02 -0.66512834274E+01 -0.36132713871E+02  0.47787269469E+02  0.19999992818E+02 0.  0.
        -12    1    1    2    0    0  0.23104346510E+02  0.66512834274E+01  0.36132713871E+02  0.43400730531E+02  0.00000000000E+00 0.  1.
         11    1    3    3    0    0 -0.12855419213E+02 -0.66601440693E+01 -0.14570255768E+02  0.20540488688E+02  0.51100000000E-03 0. -1.
        -11    1    3    3    0    0 -0.75840535454E+01 -0.22344383263E+01 -0.31549771182E+01  0.85126061633E+01  0.51100000000E-03 0.  1.
         12    1    3    3    0    0 -0.26648737519E+01  0.22432989683E+01 -0.18407480986E+02  0.18734174618E+02  0.00000000000E+00 0. -1.
</event>
<event>
 7    1  0.4356471E-010  0.4778727E+02  0.7816164E-02  0.1312668E+00
        -11   -1    0    0    0    0  0.00000000000E+00  0.00000000000E+00  0.45593999997E+02  0.45594000000E+02  0.51100000000E-03 0.  1.
         11   -1    0    0    0    0 -0.00000000000E+00 -0.00000000000E+00 -0.45593999997E+02  0.45594000000E+02  0.51100000000E-03 0. -1.
    9900012    2    1    2    0    0 -0.25688826767E+02 -0.12564672531E+02 -0.32647150576E+02  0.47787271236E+02  0.20000000875E+02 0.  0.
        -12    1    1    2    0    0  0.25688826767E+02  0.12564672531E+02  0.32647150576E+02  0.43400728764E+02  0.00000000000E+00 0.  1.
         11    1    3    3    0    0 -0.14953040278E+02 -0.39178830789E+01 -0.16063660144E+02  0.22293146904E+02  0.51100000000E-03 0. -1.
        -11    1    3    3    0    0 -0.68817070528E+01 -0.44845828585E+01 -0.17878950534E+02  0.19675524080E+02  0.51100000000E-03 0.  1.
        -12    1    3    3    0    0 -0.38540794360E+01 -0.41622065935E+01  0.12954601016E+01  0.58186002528E+01  0.00000000000E+00 0.  1.
</event>
<event>
 7    1  0.4356471E-010  0.4778727E+02  0.7816164E-02  0.1312668E+00
        -11   -1    0    0    0    0  0.00000000000E+00  0.00000000000E+00  0.45593999997E+02  0.45594000000E+02  0.51100000000E-03 0.  1.
         11   -1    0    0    0    0 -0.00000000000E+00 -0.00000000000E+00 -0.45593999997E+02  0.45594000000E+02  0.51100000000E-03 0. -1.
    9900012    2    1    2    0    0 -0.84625565308E+01 -0.33796448432E+02 -0.25880660101E+02  0.47787270088E+02  0.19999995638E+02 0.  0.
        -12    1    1    2    0    0  0.84625565308E+01  0.33796448432E+02  0.25880660101E+02  0.43400729912E+02  0.00000000000E+00 0.  1.
         11    1    3    3    0    0 -0.17431065343E+01 -0.17178745406E+02 -0.10575018306E+02  0.20247931414E+02  0.51100000000E-03 0. -1.
        -11    1    3    3    0    0  0.19701513482E+01 -0.12790611229E+02 -0.11490689767E+02  0.17306564752E+02  0.51100000000E-03 0.  1.
        -12    1    3    3    0    0 -0.86896013447E+01 -0.38270917974E+01 -0.38149520285E+01  0.10232773922E+02  0.00000000000E+00 0.  1.
</event>
<event>
 7    1  0.4356471E-010  0.4778727E+02  0.7816164E-02  0.1312668E+00
        -11   -1    0    0    0    0  0.00000000000E+00  0.00000000000E+00  0.45593999997E+02  0.45594000000E+02  0.51100000000E-03 0. -1.
         11   -1    0    0    0    0 -0.00000000000E+00 -0.00000000000E+00 -0.45593999997E+02  0.45594000000E+02  0.51100000000E-03 0.  1.
    9900012    2    1    2    0    0  0.20608413080E+02  0.37835561993E+02 -0.52332432546E+01  0.47787271020E+02  0.19999999890E+02 0.  0.
        -12    1    1    2    0    0 -0.20608413080E+02 -0.37835561993E+02  0.52332432546E+01  0.43400728980E+02  0.00000000000E+00 0.  1.
         11    1    3    3    0    0  0.33450770454E+01  0.16778101135E+01 -0.17391066554E+01  0.41266305185E+01  0.51100000000E-03 0. -1.
        -11    1    3    3    0    0 -0.62768624218E-01  0.13591601510E+02 -0.64735783773E+01  0.15054660035E+02  0.51100000000E-03 0.  1.
         12    1    3    3    0    0  0.17326104659E+02  0.22566150370E+02  0.29794417782E+01  0.28605980467E+02  0.00000000000E+00 0. -1.
</event>
<event>
 7    1  0.4356471E-010  0.4778727E+02  0.7816164E-02  0.1312668E+00
        -11   -1    0    0    0    0  0.00000000000E+00  0.00000000000E+00  0.45593999997E+02  0.45594000000E+02  0.51100000000E-03 0. -1.
         11   -1    0    0    0    0 -0.00000000000E+00 -0.00000000000E+00 -0.45593999997E+02  0.45594000000E+02  0.51100000000E-03 0.  1.
    9900012    2    1    2    0    0 -0.37036915726E+02 -0.18812985116E+02  0.12568284137E+02  0.47787270725E+02  0.19999998543E+02 0.  0.
        -12    1    1    2    0    0  0.37036915726E+02  0.18812985116E+02 -0.12568284137E+02  0.43400729275E+02  0.00000000000E+00 0.  1.
         11    1    3    3    0    0 -0.25523812162E+01 -0.13201998929E+01  0.75797446760E+01  0.81061771042E+01  0.51100000000E-03 0. -1.
        -11    1    3    3    0    0 -0.19057334222E+01 -0.33337082523E+01  0.32643526385E+00  0.38538280748E+01  0.51100000000E-03 0.  1.
         12    1    3    3    0    0 -0.32578801087E+02 -0.14159076970E+02  0.46621041976E+01  0.35827265546E+02  0.00000000000E+00 0. -1.
</event>
<event>
 7    1  0.4356471E-010  0.4778727E+02  0.7816164E-02  0.1312668E+00
        -11   -1    0    0    0    0  0.00000000000E+00  0.00000000000E+00  0.45593999997E+02  0.45594000000E+02  0.51100000000E-03 0.  1.
         11   -1    0    0    0    0 -0.00000000000E+00 -0.00000000000E+00 -0.45593999997E+02  0.45594000000E+02  0.51100000000E-03 0. -1.
    9900012    2    1    2    0    0 -0.37062733784E+02  0.12072058836E+02 -0.19085139790E+02  0.47787269581E+02  0.19999993327E+02 0.  0.
        -12    1    1    2    0    0  0.37062733784E+02 -0.12072058836E+02  0.19085139790E+02  0.43400730419E+02  0.00000000000E+00 0.  1.
         11    1    3    3    0    0 -0.13145694117E+01  0.43488871675E+01 -0.13711608520E+01  0.47456290075E+01  0.51100000000E-03 0. -1.
        -11    1    3    3    0    0  0.95423394637E+00  0.15111376134E+01  0.67162967555E-01  0.17884659450E+01  0.51100000000E-03 0.  1.
         12    1    3    3    0    0 -0.36702398319E+02  0.62120340552E+01 -0.17781141906E+02  0.41253174628E+02  0.00000000000E+00 0. -1.
</event>
<event>
 7    1  0.4356471E-010  0.4778727E+02  0.7816164E-02  0.1312668E+00
        -11   -1    0    0    0    0  0.00000000000E+00  0.00000000000E+00  0.45593999997E+02  0.45594000000E+02  0.51100000000E-03 0. -1.
         11   -1    0    0    0    0 -0.00000000000E+00 -0.00000000000E+00 -0.45593999997E+02  0.45594000000E+02  0.51100000000E-03 0.  1.
    9900012    2    1    2    0    0  0.35905609573E+02 -0.23949369073E+02  0.45648889047E+01  0.47787270875E+02  0.19999999229E+02 0.  0.
        -12    1    1    2    0    0 -0.35905609573E+02  0.23949369073E+02 -0.45648889047E+01  0.43400729125E+02  0.00000000000E+00 0.  1.
         11    1    3    3    0    0  0.29863970914E+02 -0.18994242556E+02  0.94851249710E+01  0.36641583003E+02  0.51100000000E-03 0. -1.
        -11    1    3    3    0    0  0.56512538312E+01 -0.45989632597E+01 -0.11953390469E+01  0.73834929828E+01  0.51100000000E-03 0.  1.
         12    1    3    3    0    0  0.39038482835E+00 -0.35616325752E+00 -0.37248970194E+01  0.37621948893E+01  0.00000000000E+00 0. -1.
</event>
<event>
 7    1  0.4356471E-010  0.4778727E+02  0.7816164E-02  0.1312668E+00
        -11   -1    0    0    0    0  0.00000000000E+00  0.00000000000E+00  0.45593999997E+02  0.45594000000E+02  0.51100000000E-03 0.  1.
         11   -1    0    0    0    0 -0.00000000000E+00 -0.00000000000E+00 -0.45593999997E+02  0.45594000000E+02  0.51100000000E-03 0. -1.
    9900012    2    1    2    0    0  0.16206232193E+02 -0.62415118194E+01 -0.39774673261E+02  0.47787273454E+02  0.20000010988E+02 0.  0.
        -12    1    1    2    0    0 -0.16206232193E+02  0.62415118194E+01  0.39774673261E+02  0.43400726546E+02  0.00000000000E+00 0.  1.
         11    1    3    3    0    0  0.58920511515E+01 -0.28002394283E+01 -0.24989835755E+01  0.69858805315E+01  0.51100000000E-03 0. -1.
        -11    1    3    3    0    0  0.21308479228E+01  0.39216957744E+01 -0.50109288353E+01  0.67104112147E+01  0.51100000000E-03 0.  1.
         12    1    3    3    0    0  0.81833331191E+01 -0.73629681654E+01 -0.32264760850E+02  0.34090981708E+02  0.00000000000E+00 0. -1.
</event>
<event>
 7    1  0.4356471E-010  0.4778727E+02  0.7816164E-02  0.1312668E+00
        -11   -1    0    0    0    0  0.00000000000E+00  0.00000000000E+00  0.45593999997E+02  0.45594000000E+02  0.51100000000E-03 0. -1.
         11   -1    0    0    0    0 -0.00000000000E+00 -0.00000000000E+00 -0.45593999997E+02  0.45594000000E+02  0.51100000000E-03 0.  1.
    9900012    2    1    2    0    0 -0.16919483989E+01 -0.22653739634E+02  0.36980652696E+02  0.47787270944E+02  0.19999999541E+02 0.  0.
        -12    1    1    2    0    0  0.16919483989E+01  0.22653739634E+02 -0.36980652696E+02  0.43400729056E+02  0.00000000000E+00 0.  1.
         11    1    3    3    0    0 -0.17351251054E+01 -0.36192042641E+01  0.18721178647E+02  0.19146587917E+02  0.51100000000E-03 0. -1.
        -11    1    3    3    0    0 -0.21149160624E+01 -0.78467505902E+01  0.14536294845E+02  0.16653775333E+02  0.51100000000E-03 0.  1.
        -12    1    3    3    0    0  0.21580927689E+01 -0.11187784780E+02  0.37231792038E+01  0.11986907694E+02  0.00000000000E+00 0.  1.
</event>
<event>
 7    1  0.4356471E-010  0.4778727E+02  0.7816164E-02  0.1312668E+00
        -11   -1    0    0    0    0  0.00000000000E+00  0.00000000000E+00  0.45593999997E+02  0.45594000000E+02  0.51100000000E-03 0. -1.
         11   -1    0    0    0    0 -0.00000000000E+00 -0.00000000000E+00 -0.45593999997E+02  0.45594000000E+02  0.51100000000E-03 0.  1.
    9900012    2    1    2    0    0  0.12602652507E+02 -0.33305279463E+02  0.24810372257E+02  0.47787273487E+02  0.20000011135E+02 0.  0.
        -12    1    1    2    0    0 -0.12602652507E+02  0.33305279463E+02 -0.24810372257E+02  0.43400726513E+02  0.00000000000E+00 0.  1.
         11    1    3    3    0    0  0.43766959083E+01 -0.22237344560E+02  0.47579806412E+01  0.23158008123E+02  0.51100000000E-03 0.  1.
        -11    1    3    3    0    0  0.23230892334E+01 -0.55235755707E+01  0.64922731287E+01  0.88349443298E+01  0.51100000000E-03 0. -1.
        -12    1    3    3    0    0  0.59028673657E+01 -0.55443593319E+01  0.13560118488E+02  0.15794321034E+02  0.00000000000E+00 0.  1.
</event>
<event>
 7    1  0.4356471E-010  0.4778725E+02  0.7816164E-02  0.1312668E+00
        -11   -1    0    0    0    0  0.00000000000E+00  0.00000000000E+00  0.45593999997E+02  0.45594000000E+02  0.51100000000E-03 0.  1.
         11   -1    0    0    0    0 -0.00000000000E+00 -0.00000000000E+00 -0.45593999997E+02  0.45594000000E+02  0.51100000000E-03 0. -1.
    9900012    2    1    2    0    0  0.16959386472E+02 -0.13839923945E+02 -0.37476132175E+02  0.47787253842E+02  0.19999921566E+02 0.  0.
        -12    1    1    2    0    0 -0.16959386472E+02  0.13839923945E+02  0.37476132175E+02  0.43400746158E+02  0.00000000000E+00 0.  1.
         11    1    3    3    0    0  0.44466773048E+01  0.35480650285E+01 -0.88583332814E+01  0.10527667039E+02  0.51100000000E-03 0. -1.
        -11    1    3    3    0    0 -0.11437653438E+01 -0.33976103453E+00 -0.47823725604E+01  0.49289678726E+01  0.51100000000E-03 0.  1.
         12    1    3    3    0    0  0.13656474511E+02 -0.17048227939E+02 -0.23835426333E+02  0.32330618930E+02  0.00000000000E+00 0. -1.
</event>
<event>
 7    1  0.4356471E-010  0.4778727E+02  0.7816164E-02  0.1312668E+00
        -11   -1    0    0    0    0  0.00000000000E+00  0.00000000000E+00  0.45593999997E+02  0.45594000000E+02  0.51100000000E-03 0. -1.
         11   -1    0    0    0    0 -0.00000000000E+00 -0.00000000000E+00 -0.45593999997E+02  0.45594000000E+02  0.51100000000E-03 0.  1.
    9900012    2    1    2    0    0  0.22659643640E+02  0.33229186476E+02  0.16309051299E+02  0.47787269153E+02  0.19999991377E+02 0.  0.
        -12    1    1    2    0    0 -0.22659643640E+02 -0.33229186476E+02 -0.16309051299E+02  0.43400730847E+02  0.00000000000E+00 0.  1.
         11    1    3    3    0    0  0.10341780371E+02  0.12658133221E+02  0.10114926566E+02  0.19222187638E+02  0.51100000000E-03 0. -1.
        -11    1    3    3    0    0 -0.10854424049E+01 -0.88605559118E+00  0.26782300923E+01  0.30226141688E+01  0.51100000000E-03 0.  1.
         12    1    3    3    0    0  0.13403305675E+02  0.21457108846E+02  0.35158946405E+01  0.25542467346E+02  0.00000000000E+00 0. -1.
</event>
<event>
 7    1  0.4356471E-010  0.4778727E+02  0.7816164E-02  0.1312668E+00
        -11   -1    0    0    0    0  0.00000000000E+00  0.00000000000E+00  0.45593999997E+02  0.45594000000E+02  0.51100000000E-03 0. -1.
         11   -1    0    0    0    0 -0.00000000000E+00 -0.00000000000E+00 -0.45593999997E+02  0.45594000000E+02  0.51100000000E-03 0.  1.
    9900012    2    1    2    0    0  0.39778391249E+02 -0.14039636179E+02  0.10207419557E+02  0.47787271798E+02  0.20000003437E+02 0.  0.
        -12    1    1    2    0    0 -0.39778391249E+02  0.14039636179E+02 -0.10207419557E+02  0.43400728202E+02  0.00000000000E+00 0.  1.
         11    1    3    3    0    0  0.29564573044E+02 -0.14128633454E+02  0.11699267123E+02  0.34793032551E+02  0.51100000000E-03 0.  1.
        -11    1    3    3    0    0 -0.10603128157E+00 -0.55426336504E+00  0.20020100890E+01  0.20800228768E+01  0.51100000000E-03 0. -1.
        -12    1    3    3    0    0  0.10319849486E+02  0.64326064004E+00 -0.34938576555E+01  0.10914216371E+02  0.00000000000E+00 0.  1.
</event>
<event>
 7    1  0.4356471E-010  0.4778727E+02  0.7816164E-02  0.1312668E+00
        -11   -1    0    0    0    0  0.00000000000E+00  0.00000000000E+00  0.45593999997E+02  0.45594000000E+02  0.51100000000E-03 0.  1.
         11   -1    0    0    0    0 -0.00000000000E+00 -0.00000000000E+00 -0.45593999997E+02  0.45594000000E+02  0.51100000000E-03 0. -1.
    9900012    2    1    2    0    0 -0.12772837427E+02 -0.17045728382E+02 -0.37814294283E+02  0.47787273231E+02  0.20000009969E+02 0.  0.
        -12    1    1    2    0    0  0.12772837427E+02  0.17045728382E+02  0.37814294283E+02  0.43400726769E+02  0.00000000000E+00 0.  1.
         11    1    3    3    0    0 -0.10851952088E+02 -0.14616698441E+02 -0.22108526851E+02  0.28639128778E+02  0.51100000000E-03 0. -1.
        -11    1    3    3    0    0 -0.17224627139E+01 -0.59060417622E+01 -0.51190655367E+01  0.80033142714E+01  0.51100000000E-03 0.  1.
        -12    1    3    3    0    0 -0.19842262503E+00  0.34770118211E+01 -0.10586701895E+02  0.11144830181E+02  0.00000000000E+00 0.  1.
</event>
<event>
 7    1  0.4356471E-010  0.4778727E+02  0.7816164E-02  0.1312668E+00
        -11   -1    0    0    0    0  0.00000000000E+00  0.00000000000E+00  0.45593999997E+02  0.45594000000E+02  0.51100000000E-03 0.  1.
         11   -1    0    0    0    0 -0.00000000000E+00 -0.00000000000E+00 -0.45593999997E+02  0.45594000000E+02  0.51100000000E-03 0. -1.
    9900012    2    1    2    0    0 -0.37518821843E+02  0.21729510990E+02  0.19467085456E+01  0.47787270577E+02  0.19999997867E+02 0.  0.
        -12    1    1    2    0    0  0.37518821843E+02 -0.21729510990E+02 -0.19467085456E+01  0.43400729423E+02  0.00000000000E+00 0.  1.
         11    1    3    3    0    0 -0.24024739868E+02  0.17351266364E+02  0.37456070029E+00  0.29637727074E+02  0.51100000000E-03 0. -1.
        -11    1    3    3    0    0 -0.71906703201E+01  0.75363445426E+01  0.32323187303E+01  0.10906425324E+02  0.51100000000E-03 0.  1.
        -12    1    3    3    0    0 -0.63034116551E+01 -0.31580999168E+01 -0.16601708849E+01  0.72431181783E+01  0.00000000000E+00 0.  1.
</event>
<event>
 7    1  0.4356471E-010  0.4778727E+02  0.7816164E-02  0.1312668E+00
        -11   -1    0    0    0    0  0.00000000000E+00  0.00000000000E+00  0.45593999997E+02  0.45594000000E+02  0.51100000000E-03 0. -1.
         11   -1    0    0    0    0 -0.00000000000E+00 -0.00000000000E+00 -0.45593999997E+02  0.45594000000E+02  0.51100000000E-03 0.  1.
    9900012    2    1    2    0    0 -0.38616726077E+02 -0.16111177002E+02  0.11523974993E+02  0.47787267783E+02  0.19999985131E+02 0.  0.
        -12    1    1    2    0    0  0.38616726077E+02  0.16111177002E+02 -0.11523974993E+02  0.43400732217E+02  0.00000000000E+00 0.  1.
         11    1    3    3    0    0 -0.24383448791E+02 -0.96699468690E+01  0.59540542533E+01  0.26898163686E+02  0.51100000000E-03 0. -1.
        -11    1    3    3    0    0 -0.12088552761E+02  0.83748466512E+00  0.13129439508E+01  0.12188449881E+02  0.51100000000E-03 0.  1.
        -12    1    3    3    0    0 -0.21447245249E+01 -0.72787147979E+01  0.42569767887E+01  0.87006542154E+01  0.00000000000E+00 0.  1.
</event>
<event>
 7    1  0.4356471E-010  0.4778728E+02  0.7816164E-02  0.1312668E+00
        -11   -1    0    0    0    0  0.00000000000E+00  0.00000000000E+00  0.45593999997E+02  0.45594000000E+02  0.51100000000E-03 0.  1.
         11   -1    0    0    0    0 -0.00000000000E+00 -0.00000000000E+00 -0.45593999997E+02  0.45594000000E+02  0.51100000000E-03 0. -1.
    9900012    2    1    2    0    0  0.16599235033E+02 -0.26893462609E+02 -0.29746085539E+02  0.47787279503E+02  0.20000038567E+02 0.  0.
        -12    1    1    2    0    0 -0.16599235033E+02  0.26893462609E+02  0.29746085539E+02  0.43400720497E+02  0.00000000000E+00 0.  1.
         11    1    3    3    0    0  0.40872790458E+01 -0.11532468141E+02 -0.15936973263E+02  0.20092057845E+02  0.51100000000E-03 0. -1.
        -11    1    3    3    0    0  0.11584876941E+02 -0.14916017933E+02 -0.16333393298E+02  0.24969515446E+02  0.51100000000E-03 0.  1.
        -12    1    3    3    0    0  0.92707904598E+00 -0.44497653500E+00  0.25242810223E+01  0.27257062119E+01  0.00000000000E+00 0.  1.
</event>
<event>
 7    1  0.4356471E-010  0.4778731E+02  0.7816164E-02  0.1312668E+00
        -11   -1    0    0    0    0  0.00000000000E+00  0.00000000000E+00  0.45593999997E+02  0.45594000000E+02  0.51100000000E-03 0.  1.
         11   -1    0    0    0    0 -0.00000000000E+00 -0.00000000000E+00 -0.45593999997E+02  0.45594000000E+02  0.51100000000E-03 0. -1.
    9900012    2    1    2    0    0 -0.21070029756E+02 -0.13364445389E+02 -0.35511484687E+02  0.47787307619E+02  0.20000166755E+02 0.  0.
        -12    1    1    2    0    0  0.21070029756E+02  0.13364445389E+02  0.35511484687E+02  0.43400692381E+02  0.00000000000E+00 0.  1.
         11    1    3    3    0    0 -0.28649437294E+01 -0.96124613198E+01 -0.89744610851E+01  0.13459133227E+02  0.51100000000E-03 0. -1.
        -11    1    3    3    0    0  0.31042527351E+00  0.21396455861E+01 -0.14790896181E+01  0.26195712329E+01  0.51100000000E-03 0.  1.
        -12    1    3    3    0    0 -0.18515511300E+02 -0.58916296555E+01 -0.25057933984E+02  0.31708603159E+02  0.00000000000E+00 0.  1.
</event>
<event>
 7    1  0.4356471E-010  0.4778727E+02  0.7816164E-02  0.1312668E+00
        -11   -1    0    0    0    0  0.00000000000E+00  0.00000000000E+00  0.45593999997E+02  0.45594000000E+02  0.51100000000E-03 0. -1.
         11   -1    0    0    0    0 -0.00000000000E+00 -0.00000000000E+00 -0.45593999997E+02  0.45594000000E+02  0.51100000000E-03 0.  1.
    9900012    2    1    2    0    0 -0.16885877036E+01  0.42121720406E+02  0.10321474102E+02  0.47787268600E+02  0.19999988854E+02 0.  0.
        -12    1    1    2    0    0  0.16885877036E+01 -0.42121720406E+02 -0.10321474102E+02  0.43400731400E+02  0.00000000000E+00 0.  1.
         11    1    3    3    0    0  0.40600218268E+00  0.11194232074E+02  0.59171003175E+01  0.12668375820E+02  0.51100000000E-03 0. -1.
        -11    1    3    3    0    0 -0.10843961647E+01  0.29927202325E+02 -0.56295378404E+00  0.29952133000E+02  0.51100000000E-03 0.  1.
         12    1    3    3    0    0 -0.10101937215E+01  0.10002860082E+01  0.49673275682E+01  0.51667597798E+01  0.00000000000E+00 0. -1.
</event>
<event>
 7    1  0.4356471E-010  0.4778727E+02  0.7816164E-02  0.1312668E+00
        -11   -1    0    0    0    0  0.00000000000E+00  0.00000000000E+00  0.45593999997E+02  0.45594000000E+02  0.51100000000E-03 0. -1.
         11   -1    0    0    0    0 -0.00000000000E+00 -0.00000000000E+00 -0.45593999997E+02  0.45594000000E+02  0.51100000000E-03 0.  1.
    9900012    2    1    2    0    0 -0.30739824498E+02  0.30578990427E+02 -0.19004716226E+01  0.47787271226E+02  0.20000000829E+02 0.  0.
        -12    1    1    2    0    0  0.30739824498E+02 -0.30578990427E+02  0.19004716226E+01  0.43400728774E+02  0.00000000000E+00 0.  1.
         11    1    3    3    0    0 -0.15656997335E+02  0.14289241691E+02 -0.21897152886E+01  0.21310064452E+02  0.51100000000E-03 0. -1.
        -11    1    3    3    0    0 -0.10033952195E+02  0.11611241048E+02 -0.66302860701E+01  0.16717111263E+02  0.51100000000E-03 0.  1.
        -12    1    3    3    0    0 -0.50488749680E+01  0.46785076875E+01  0.69195297360E+01  0.97600955114E+01  0.00000000000E+00 0.  1.
</event>
<event>
 7    1  0.4356471E-010  0.4778728E+02  0.7816164E-02  0.1312668E+00
        -11   -1    0    0    0    0  0.00000000000E+00  0.00000000000E+00  0.45593999997E+02  0.45594000000E+02  0.51100000000E-03 0. -1.
         11   -1    0    0    0    0 -0.00000000000E+00 -0.00000000000E+00 -0.45593999997E+02  0.45594000000E+02  0.51100000000E-03 0.  1.
    9900012    2    1    2    0    0  0.25714544857E+02  0.19143615157E+01  0.34910173293E+02  0.47787276543E+02  0.20000025071E+02 0.  0.
        -12    1    1    2    0    0 -0.25714544857E+02 -0.19143615157E+01 -0.34910173293E+02  0.43400723457E+02  0.00000000000E+00 0.  1.
         11    1    3    3    0    0  0.87417843612E+01  0.68550802963E+00  0.24624151542E+01  0.91078100403E+01  0.51100000000E-03 0.  1.
        -11    1    3    3    0    0  0.72707149244E+01  0.59186173189E+01  0.96022935120E+01  0.13420036044E+02  0.51100000000E-03 0. -1.
        -12    1    3    3    0    0  0.97020455711E+01 -0.46897638329E+01  0.22845464627E+02  0.25259430459E+02  0.00000000000E+00 0.  1.
</event>
<event>
 7    1  0.4356471E-010  0.4778727E+02  0.7816164E-02  0.1312668E+00
        -11   -1    0    0    0    0  0.00000000000E+00  0.00000000000E+00  0.45593999997E+02  0.45594000000E+02  0.51100000000E-03 0.  1.
         11   -1    0    0    0    0 -0.00000000000E+00 -0.00000000000E+00 -0.45593999997E+02  0.45594000000E+02  0.51100000000E-03 0. -1.
    9900012    2    1    2    0    0 -0.11534241621E+02  0.87234521555E+01 -0.40920479675E+02  0.47787274152E+02  0.20000014169E+02 0.  0.
        -12    1    1    2    0    0  0.11534241621E+02 -0.87234521555E+01  0.40920479675E+02  0.43400725848E+02  0.00000000000E+00 0.  1.
         11    1    3    3    0    0  0.85511625797E+00 -0.16422641380E+01 -0.17965059525E+02  0.18060222017E+02  0.51100000000E-03 0. -1.
        -11    1    3    3    0    0 -0.15626254683E+01  0.56787349023E+01 -0.31634210733E+01  0.66855861069E+01  0.51100000000E-03 0.  1.
         12    1    3    3    0    0 -0.10826732411E+02  0.46869813912E+01 -0.19791999077E+02  0.23041466028E+02  0.00000000000E+00 0. -1.
</event>
<event>
 7    1  0.4356471E-010  0.4778727E+02  0.7816164E-02  0.1312668E+00
        -11   -1    0    0    0    0  0.00000000000E+00  0.00000000000E+00  0.45593999997E+02  0.45594000000E+02  0.51100000000E-03 0.  1.
         11   -1    0    0    0    0 -0.00000000000E+00 -0.00000000000E+00 -0.45593999997E+02  0.45594000000E+02  0.51100000000E-03 0. -1.
    9900012    2    1    2    0    0 -0.39183296337E+02  0.88404531714E+01 -0.16435902093E+02  0.47787271876E+02  0.20000003789E+02 0.  0.
        -12    1    1    2    0    0  0.39183296337E+02 -0.88404531714E+01  0.16435902093E+02  0.43400728124E+02  0.00000000000E+00 0.  1.
         11    1    3    3    0    0 -0.10487741492E+02  0.57492971807E+00 -0.23947072617E+00  0.10506217791E+02  0.51100000000E-03 0. -1.
        -11    1    3    3    0    0 -0.80854409310E+01 -0.46096627869E+00  0.21072103107E+01  0.83682244540E+01  0.51100000000E-03 0.  1.
         12    1    3    3    0    0 -0.20610113915E+02  0.87264897320E+01 -0.18303641677E+02  0.28912829631E+02  0.00000000000E+00 0. -1.
</event>
<event>
 7    1  0.4356471E-010  0.4778727E+02  0.7816164E-02  0.1312668E+00
        -11   -1    0    0    0    0  0.00000000000E+00  0.00000000000E+00  0.45593999997E+02  0.45594000000E+02  0.51100000000E-03 0.  1.
         11   -1    0    0    0    0 -0.00000000000E+00 -0.00000000000E+00 -0.45593999997E+02  0.45594000000E+02  0.51100000000E-03 0. -1.
    9900012    2    1    2    0    0 -0.21636262085E+02 -0.26111076578E+01 -0.37532353091E+02  0.47787271334E+02  0.20000001321E+02 0.  0.
        -12    1    1    2    0    0  0.21636262085E+02  0.26111076578E+01  0.37532353091E+02  0.43400728666E+02  0.00000000000E+00 0.  1.
         11    1    3    3    0    0 -0.45254827790E+01  0.46259558777E+01 -0.92370881862E+01  0.11278442294E+02  0.51100000000E-03 0. -1.
        -11    1    3    3    0    0 -0.24694079291E+01  0.59783665290E+00 -0.15062627574E+02  0.15275409450E+02  0.51100000000E-03 0.  1.
        -12    1    3    3    0    0 -0.14641371377E+02 -0.78349001884E+01 -0.13232637331E+02  0.21233419590E+02  0.00000000000E+00 0.  1.
</event>
<event>
 7    1  0.4356471E-010  0.4778727E+02  0.7816164E-02  0.1312668E+00
        -11   -1    0    0    0    0  0.00000000000E+00  0.00000000000E+00  0.45593999997E+02  0.45594000000E+02  0.51100000000E-03 0.  1.
         11   -1    0    0    0    0 -0.00000000000E+00 -0.00000000000E+00 -0.45593999997E+02  0.45594000000E+02  0.51100000000E-03 0. -1.
    9900012    2    1    2    0    0  0.26618202932E+02 -0.14744850222E+02 -0.30946466542E+02  0.47787272738E+02  0.20000007724E+02 0.  0.
        -12    1    1    2    0    0 -0.26618202932E+02  0.14744850222E+02  0.30946466542E+02  0.43400727262E+02  0.00000000000E+00 0.  1.
         11    1    3    3    0    0 -0.24109497872E+00  0.19703705947E+01 -0.46458699950E+01  0.50521871839E+01  0.51100000000E-03 0. -1.
        -11    1    3    3    0    0  0.85199945735E+01 -0.16905797546E+01 -0.22695656300E+01  0.89777110585E+01  0.51100000000E-03 0.  1.
        -12    1    3    3    0    0  0.18339303338E+02 -0.15024641062E+02 -0.24031030916E+02  0.33757374496E+02  0.00000000000E+00 0.  1.
</event>
<event>
 7    1  0.4356471E-010  0.4778727E+02  0.7816164E-02  0.1312668E+00
        -11   -1    0    0    0    0  0.00000000000E+00  0.00000000000E+00  0.45593999997E+02  0.45594000000E+02  0.51100000000E-03 0.  1.
         11   -1    0    0    0    0 -0.00000000000E+00 -0.00000000000E+00 -0.45593999997E+02  0.45594000000E+02  0.51100000000E-03 0. -1.
    9900012    2    1    2    0    0  0.79021693012E+01  0.21290054927E+02 -0.36985303126E+02  0.47787269985E+02  0.19999995172E+02 0.  0.
        -12    1    1    2    0    0 -0.79021693012E+01 -0.21290054927E+02  0.36985303126E+02  0.43400730015E+02  0.00000000000E+00 0.  1.
         11    1    3    3    0    0  0.32136487631E+01  0.61660854972E+00 -0.82635357841E+01  0.88878438551E+01  0.51100000000E-03 0. -1.
        -11    1    3    3    0    0 -0.22972571813E+01 -0.13992689741E+01 -0.54246030463E+01  0.60548875043E+01  0.51100000000E-03 0.  1.
        -12    1    3    3    0    0  0.69857777194E+01  0.22072715351E+02 -0.23297164296E+02  0.32844538626E+02  0.00000000000E+00 0.  1.
</event>
<event>
 7    1  0.4356471E-010  0.4778727E+02  0.7816164E-02  0.1312668E+00
        -11   -1    0    0    0    0  0.00000000000E+00  0.00000000000E+00  0.45593999997E+02  0.45594000000E+02  0.51100000000E-03 0.  1.
         11   -1    0    0    0    0 -0.00000000000E+00 -0.00000000000E+00 -0.45593999997E+02  0.45594000000E+02  0.51100000000E-03 0. -1.
    9900012    2    1    2    0    0  0.24331357218E+02  0.15648522190E+02 -0.32353234157E+02  0.47787274762E+02  0.20000016950E+02 0.  0.
        -12    1    1    2    0    0 -0.24331357218E+02 -0.15648522190E+02  0.32353234157E+02  0.43400725238E+02  0.00000000000E+00 0.  1.
         11    1    3    3    0    0  0.10929148109E+02  0.13346313443E+02 -0.26262723481E+02  0.31421346339E+02  0.51100000000E-03 0. -1.
        -11    1    3    3    0    0  0.46974068205E+01  0.41334638926E+01 -0.30873774217E+01  0.69773242861E+01  0.51100000000E-03 0.  1.
        -12    1    3    3    0    0  0.87048022886E+01 -0.18312551454E+01 -0.30031332545E+01  0.93886041367E+01  0.00000000000E+00 0.  1.
</event>
<event>
 7    1  0.4356471E-010  0.4778727E+02  0.7816164E-02  0.1312668E+00
        -11   -1    0    0    0    0  0.00000000000E+00  0.00000000000E+00  0.45593999997E+02  0.45594000000E+02  0.51100000000E-03 0. -1.
         11   -1    0    0    0    0 -0.00000000000E+00 -0.00000000000E+00 -0.45593999997E+02  0.45594000000E+02  0.51100000000E-03 0.  1.
    9900012    2    1    2    0    0  0.37304986415E+02  0.38427694836E+01  0.21844775983E+02  0.47787272743E+02  0.20000007743E+02 0.  0.
        -12    1    1    2    0    0 -0.37304986415E+02 -0.38427694836E+01 -0.21844775983E+02  0.43400727257E+02  0.00000000000E+00 0.  1.
         11    1    3    3    0    0  0.17492599611E+02  0.40189147153E+01 -0.22207642725E+00  0.17949708489E+02  0.51100000000E-03 0.  1.
        -11    1    3    3    0    0  0.57838407432E+01  0.45286174478E+00  0.44671108541E+01  0.73220883050E+01  0.51100000000E-03 0. -1.
        -12    1    3    3    0    0  0.14028546061E+02 -0.62900697651E+00  0.17599741556E+02  0.22515475949E+02  0.00000000000E+00 0.  1.
</event>
<event>
 7    1  0.4356471E-010  0.4778727E+02  0.7816164E-02  0.1312668E+00
        -11   -1    0    0    0    0  0.00000000000E+00  0.00000000000E+00  0.45593999997E+02  0.45594000000E+02  0.51100000000E-03 0. -1.
         11   -1    0    0    0    0 -0.00000000000E+00 -0.00000000000E+00 -0.45593999997E+02  0.45594000000E+02  0.51100000000E-03 0.  1.
    9900012    2    1    2    0    0 -0.14723730518E+02 -0.11385583037E+02  0.39207191404E+02  0.47787267296E+02  0.19999982907E+02 0.  0.
        -12    1    1    2    0    0  0.14723730518E+02  0.11385583037E+02 -0.39207191404E+02  0.43400732704E+02  0.00000000000E+00 0.  1.
         11    1    3    3    0    0 -0.78139279165E+01 -0.12441968354E+02  0.26615472504E+02  0.30401372056E+02  0.51100000000E-03 0.  1.
        -11    1    3    3    0    0  0.23406740123E+01 -0.10215016237E+00  0.43574457117E+01  0.49473753526E+01  0.51100000000E-03 0. -1.
        -12    1    3    3    0    0 -0.92504766136E+01  0.11585354792E+01  0.82342731888E+01  0.12438519887E+02  0.00000000000E+00 0.  1.
</event>
<event>
 7    1  0.4356471E-010  0.4778727E+02  0.7816164E-02  0.1312668E+00
        -11   -1    0    0    0    0  0.00000000000E+00  0.00000000000E+00  0.45593999997E+02  0.45594000000E+02  0.51100000000E-03 0. -1.
         11   -1    0    0    0    0 -0.00000000000E+00 -0.00000000000E+00 -0.45593999997E+02  0.45594000000E+02  0.51100000000E-03 0.  1.
    9900012    2    1    2    0    0 -0.40522982163E+01 -0.90156917281E+01  0.42260141457E+02  0.47787269889E+02  0.19999994734E+02 0.  0.
        -12    1    1    2    0    0  0.40522982163E+01  0.90156917281E+01 -0.42260141457E+02  0.43400730111E+02  0.00000000000E+00 0.  1.
         11    1    3    3    0    0  0.17697004459E+01  0.41018274674E-01  0.15645962795E+02  0.15745782743E+02  0.51100000000E-03 0. -1.
        -11    1    3    3    0    0  0.42502048060E+01 -0.74589961507E+00  0.10137537520E+02  0.11017725462E+02  0.51100000000E-03 0.  1.
         12    1    3    3    0    0 -0.10072203468E+02 -0.83108103877E+01  0.16476641142E+02  0.21023761684E+02  0.00000000000E+00 0. -1.
</event>
<event>
 7    1  0.4356471E-010  0.4778727E+02  0.7816164E-02  0.1312668E+00
        -11   -1    0    0    0    0  0.00000000000E+00  0.00000000000E+00  0.45593999997E+02  0.45594000000E+02  0.51100000000E-03 0.  1.
         11   -1    0    0    0    0 -0.00000000000E+00 -0.00000000000E+00 -0.45593999997E+02  0.45594000000E+02  0.51100000000E-03 0. -1.
    9900012    2    1    2    0    0  0.26817953061E+02 -0.32540229620E+02 -0.10273948859E+02  0.47787272180E+02  0.20000005178E+02 0.  0.
        -12    1    1    2    0    0 -0.26817953061E+02  0.32540229620E+02  0.10273948859E+02  0.43400727820E+02  0.00000000000E+00 0.  1.
         11    1    3    3    0    0  0.18262466547E+02 -0.86459885425E+01 -0.62060493809E+01  0.21137309465E+02  0.51100000000E-03 0. -1.
        -11    1    3    3    0    0  0.20651952641E+01 -0.16620096435E+01  0.11815024739E+01  0.29022845985E+01  0.51100000000E-03 0.  1.
        -12    1    3    3    0    0  0.64902912507E+01 -0.22232231434E+02 -0.52494019519E+01  0.23747678117E+02  0.00000000000E+00 0.  1.
</event>
<event>
 7    1  0.4356471E-010  0.4778727E+02  0.7816164E-02  0.1312668E+00
        -11   -1    0    0    0    0  0.00000000000E+00  0.00000000000E+00  0.45593999997E+02  0.45594000000E+02  0.51100000000E-03 0. -1.
         11   -1    0    0    0    0 -0.00000000000E+00 -0.00000000000E+00 -0.45593999997E+02  0.45594000000E+02  0.51100000000E-03 0.  1.
    9900012    2    1    2    0    0 -0.90822738016E+01 -0.18965766563E+02  0.37966239513E+02  0.47787270266E+02  0.19999996449E+02 0.  0.
        -12    1    1    2    0    0  0.90822738016E+01  0.18965766563E+02 -0.37966239513E+02  0.43400729734E+02  0.00000000000E+00 0.  1.
         11    1    3    3    0    0 -0.97913796941E+01 -0.13546714090E+02  0.15602146223E+02  0.22865072621E+02  0.51100000000E-03 0. -1.
        -11    1    3    3    0    0 -0.68530754728E+00  0.14226942204E+01  0.92646101168E-01  0.15818624594E+01  0.51100000000E-03 0.  1.
        -12    1    3    3    0    0  0.13944134399E+01 -0.68417466936E+01  0.22271447189E+02  0.23340335185E+02  0.00000000000E+00 0.  1.
</event>
<event>
 7    1  0.4356471E-010  0.4778727E+02  0.7816164E-02  0.1312668E+00
        -11   -1    0    0    0    0  0.00000000000E+00  0.00000000000E+00  0.45593999997E+02  0.45594000000E+02  0.51100000000E-03 0.  1.
         11   -1    0    0    0    0 -0.00000000000E+00 -0.00000000000E+00 -0.45593999997E+02  0.45594000000E+02  0.51100000000E-03 0. -1.
    9900012    2    1    2    0    0  0.43236944575E+01  0.23640855169E+02 -0.36139162862E+02  0.47787268909E+02  0.19999990264E+02 0.  0.
        -12    1    1    2    0    0 -0.43236944575E+01 -0.23640855169E+02  0.36139162862E+02  0.43400731091E+02  0.00000000000E+00 0.  1.
         11    1    3    3    0    0  0.99452529158E+00  0.99411731904E+01 -0.11732691620E+02  0.15410128418E+02  0.51100000000E-03 0. -1.
        -11    1    3    3    0    0 -0.58106128215E+00  0.12520384799E+02 -0.67129239068E+01  0.14218333776E+02  0.51100000000E-03 0.  1.
        -12    1    3    3    0    0  0.39102304481E+01  0.11792971790E+01 -0.17693547335E+02  0.18158806714E+02  0.00000000000E+00 0.  1.
</event>
<event>
 7    1  0.4356471E-010  0.4778727E+02  0.7816164E-02  0.1312668E+00
        -11   -1    0    0    0    0  0.00000000000E+00  0.00000000000E+00  0.45593999997E+02  0.45594000000E+02  0.51100000000E-03 0.  1.
         11   -1    0    0    0    0 -0.00000000000E+00 -0.00000000000E+00 -0.45593999997E+02  0.45594000000E+02  0.51100000000E-03 0. -1.
    9900012    2    1    2    0    0  0.50421096240E+01 -0.29463466437E+02 -0.31465925511E+02  0.47787271986E+02  0.20000004292E+02 0.  0.
        -12    1    1    2    0    0 -0.50421096240E+01  0.29463466437E+02  0.31465925511E+02  0.43400728014E+02  0.00000000000E+00 0.  1.
         11    1    3    3    0    0  0.11250020218E+01 -0.20859891643E+02 -0.10772609636E+02  0.23504251265E+02  0.51100000000E-03 0. -1.
        -11    1    3    3    0    0  0.49468499522E+01 -0.98741736303E+01 -0.18522036710E+02  0.21564704345E+02  0.51100000000E-03 0.  1.
        -12    1    3    3    0    0 -0.10297423500E+01  0.12705988361E+01 -0.21712791648E+01  0.27183163762E+01  0.00000000000E+00 0.  1.
</event>
<event>
 7    1  0.4356471E-010  0.4778727E+02  0.7816164E-02  0.1312668E+00
        -11   -1    0    0    0    0  0.00000000000E+00  0.00000000000E+00  0.45593999997E+02  0.45594000000E+02  0.51100000000E-03 0.  1.
         11   -1    0    0    0    0 -0.00000000000E+00 -0.00000000000E+00 -0.45593999997E+02  0.45594000000E+02  0.51100000000E-03 0. -1.
    9900012    2    1    2    0    0 -0.38363681411E+02 -0.15657560340E+02 -0.12910927137E+02  0.47787270896E+02  0.19999999322E+02 0.  0.
        -12    1    1    2    0    0  0.38363681411E+02  0.15657560340E+02  0.12910927137E+02  0.43400729104E+02  0.00000000000E+00 0.  1.
         11    1    3    3    0    0 -0.21675473681E+02 -0.75629435272E+01 -0.83978473746E+01  0.24444797297E+02  0.51100000000E-03 0. -1.
        -11    1    3    3    0    0 -0.15379891659E+02 -0.78661090615E+01 -0.84188882724E+01  0.19217034610E+02  0.51100000000E-03 0.  1.
        -12    1    3    3    0    0 -0.13083160717E+01 -0.22850775155E+00  0.39058085099E+01  0.41254389890E+01  0.00000000000E+00 0.  1.
</event>
<event>
 7    1  0.4356471E-010  0.4778728E+02  0.7816164E-02  0.1312668E+00
        -11   -1    0    0    0    0  0.00000000000E+00  0.00000000000E+00  0.45593999997E+02  0.45594000000E+02  0.51100000000E-03 0.  1.
         11   -1    0    0    0    0 -0.00000000000E+00 -0.00000000000E+00 -0.45593999997E+02  0.45594000000E+02  0.51100000000E-03 0. -1.
    9900012    2    1    2    0    0 -0.13005823762E+02  0.24138444982E+02 -0.33642327626E+02  0.47787283578E+02  0.20000057145E+02 0.  0.
        -12    1    1    2    0    0  0.13005823762E+02 -0.24138444982E+02  0.33642327626E+02  0.43400716422E+02  0.00000000000E+00 0.  1.
         11    1    3    3    0    0 -0.90466271854E+01  0.19296720804E+02 -0.33237898279E+02  0.39483702707E+02  0.51100000000E-03 0. -1.
        -11    1    3    3    0    0  0.52449686433E+00  0.32359960627E+01 -0.11682523257E+01  0.34801697137E+01  0.51100000000E-03 0.  1.
         12    1    3    3    0    0 -0.44836934405E+01  0.16057281153E+01  0.76382297839E+00  0.48234111572E+01  0.00000000000E+00 0. -1.
</event>
<event>
 7    1  0.4356471E-010  0.4778726E+02  0.7816164E-02  0.1312668E+00
        -11   -1    0    0    0    0  0.00000000000E+00  0.00000000000E+00  0.45593999997E+02  0.45594000000E+02  0.51100000000E-03 0. -1.
         11   -1    0    0    0    0 -0.00000000000E+00 -0.00000000000E+00 -0.45593999997E+02  0.45594000000E+02  0.51100000000E-03 0.  1.
    9900012    2    1    2    0    0  0.14927609978E+02 -0.40079757540E+02  0.73758728899E+01  0.47787262622E+02  0.19999961597E+02 0.  0.
        -12    1    1    2    0    0 -0.14927609978E+02  0.40079757540E+02 -0.73758728899E+01  0.43400737378E+02  0.00000000000E+00 0.  1.
         11    1    3    3    0    0  0.12286144736E+01 -0.17698650031E+02  0.29887587670E+01  0.17991230799E+02  0.51100000000E-03 0. -1.
        -11    1    3    3    0    0 -0.11053774794E+01 -0.12463219496E+01 -0.25771672693E+01  0.30687080619E+01  0.51100000000E-03 0.  1.
        -12    1    3    3    0    0  0.14804372984E+02 -0.21134785559E+02  0.69642813922E+01  0.26727323761E+02  0.00000000000E+00 0.  1.
</event>
<event>
 7    1  0.4356471E-010  0.4778727E+02  0.7816164E-02  0.1312668E+00
        -11   -1    0    0    0    0  0.00000000000E+00  0.00000000000E+00  0.45593999997E+02  0.45594000000E+02  0.51100000000E-03 0. -1.
         11   -1    0    0    0    0 -0.00000000000E+00 -0.00000000000E+00 -0.45593999997E+02  0.45594000000E+02  0.51100000000E-03 0.  1.
    9900012    2    1    2    0    0 -0.30922826197E+02  0.24513651129E+02  0.18068845356E+02  0.47787269082E+02  0.19999991053E+02 0.  0.
        -12    1    1    2    0    0  0.30922826197E+02 -0.24513651129E+02 -0.18068845356E+02  0.43400730918E+02  0.00000000000E+00 0.  1.
         11    1    3    3    0    0 -0.10667234903E+01 -0.11914366244E+01  0.10130026667E+01  0.18930385359E+01  0.51100000000E-03 0. -1.
        -11    1    3    3    0    0 -0.30729050457E+02  0.20851613955E+02  0.17276795437E+02  0.40957929725E+02  0.51100000000E-03 0.  1.
        -12    1    3    3    0    0  0.87294774937E+00  0.48534737980E+01 -0.22095274789E+00  0.49363008213E+01  0.00000000000E+00 0.  1.
</event>
<event>
 7    1  0.4356471E-010  0.4778727E+02  0.7816164E-02  0.1312668E+00
        -11   -1    0    0    0    0  0.00000000000E+00  0.00000000000E+00  0.45593999997E+02  0.45594000000E+02  0.51100000000E-03 0. -1.
         11   -1    0    0    0    0 -0.00000000000E+00 -0.00000000000E+00 -0.45593999997E+02  0.45594000000E+02  0.51100000000E-03 0.  1.
    9900012    2    1    2    0    0  0.64200913854E+00 -0.38667300479E+02  0.19699001935E+02  0.47787274439E+02  0.20000015475E+02 0.  0.
        -12    1    1    2    0    0 -0.64200913854E+00  0.38667300479E+02 -0.19699001935E+02  0.43400725561E+02  0.00000000000E+00 0.  1.
         11    1    3    3    0    0  0.16047345353E+01 -0.60851887164E+01  0.84262307858E+00  0.63493864708E+01  0.51100000000E-03 0. -1.
        -11    1    3    3    0    0  0.15257601436E+01  0.41947799219E+00 -0.18223243635E+01  0.24134564734E+01  0.51100000000E-03 0.  1.
         12    1    3    3    0    0 -0.24884855404E+01 -0.33001589754E+02  0.20678703220E+02  0.39024431494E+02  0.00000000000E+00 0. -1.
</event>
<event>
 7    1  0.4356471E-010  0.4778727E+02  0.7816164E-02  0.1312668E+00
        -11   -1    0    0    0    0  0.00000000000E+00  0.00000000000E+00  0.45593999997E+02  0.45594000000E+02  0.51100000000E-03 0. -1.
         11   -1    0    0    0    0 -0.00000000000E+00 -0.00000000000E+00 -0.45593999997E+02  0.45594000000E+02  0.51100000000E-03 0.  1.
    9900012    2    1    2    0    0 -0.14546988729E+02  0.40890197586E+02  0.11146273284E-01  0.47787271159E+02  0.20000000523E+02 0.  0.
        -12    1    1    2    0    0  0.14546988729E+02 -0.40890197586E+02 -0.11146273284E-01  0.43400728841E+02  0.00000000000E+00 0.  1.
         11    1    3    3    0    0 -0.96289010716E+01  0.29068441380E+02  0.72472702229E+01  0.31467649198E+02  0.51100000000E-03 0. -1.
        -11    1    3    3    0    0 -0.49304501650E+01  0.45369027412E+01 -0.10897677503E+01  0.67882559854E+01  0.51100000000E-03 0.  1.
        -12    1    3    3    0    0  0.12362507970E-01  0.72848534651E+01 -0.61463561994E+01  0.95313659760E+01  0.00000000000E+00 0.  1.
</event>
<event>
 7    1  0.4356471E-010  0.4778727E+02  0.7816164E-02  0.1312668E+00
        -11   -1    0    0    0    0  0.00000000000E+00  0.00000000000E+00  0.45593999997E+02  0.45594000000E+02  0.51100000000E-03 0.  1.
         11   -1    0    0    0    0 -0.00000000000E+00 -0.00000000000E+00 -0.45593999997E+02  0.45594000000E+02  0.51100000000E-03 0. -1.
    9900012    2    1    2    0    0  0.29053050956E+02  0.12769394142E+02 -0.29605507664E+02  0.47787270967E+02  0.19999999645E+02 0.  0.
        -12    1    1    2    0    0 -0.29053050956E+02 -0.12769394142E+02  0.29605507664E+02  0.43400729033E+02  0.00000000000E+00 0.  1.
         11    1    3    3    0    0  0.74960466853E+01  0.16057247732E+01 -0.33774866247E+01  0.83771405692E+01  0.51100000000E-03 0. -1.
        -11    1    3    3    0    0  0.20653568991E+01 -0.29533335766E+01 -0.93342906614E+01  0.10005841331E+02  0.51100000000E-03 0.  1.
        -12    1    3    3    0    0  0.19491647372E+02  0.14117002945E+02 -0.16893730377E+02  0.29404289066E+02  0.00000000000E+00 0.  1.
</event>
<event>
 7    1  0.4356471E-010  0.4778727E+02  0.7816164E-02  0.1312668E+00
        -11   -1    0    0    0    0  0.00000000000E+00  0.00000000000E+00  0.45593999997E+02  0.45594000000E+02  0.51100000000E-03 0.  1.
         11   -1    0    0    0    0 -0.00000000000E+00 -0.00000000000E+00 -0.45593999997E+02  0.45594000000E+02  0.51100000000E-03 0. -1.
    9900012    2    1    2    0    0  0.22508235337E+02 -0.24741227333E+02 -0.27656366035E+02  0.47787267631E+02  0.19999984436E+02 0.  0.
        -12    1    1    2    0    0 -0.22508235337E+02  0.24741227333E+02  0.27656366035E+02  0.43400732369E+02  0.00000000000E+00 0.  1.
         11    1    3    3    0    0  0.11625898418E+02 -0.17794810950E+02 -0.10973966165E+02  0.23921637578E+02  0.51100000000E-03 0.  1.
        -11    1    3    3    0    0  0.10310908079E+02 -0.92437849448E+01 -0.10918538800E+02  0.17634536436E+02  0.51100000000E-03 0. -1.
        -12    1    3    3    0    0  0.57142884034E+00  0.22973685621E+01 -0.57638610697E+01  0.62310936167E+01  0.00000000000E+00 0.  1.
</event>
<event>
 7    1  0.4356471E-010  0.4778727E+02  0.7816164E-02  0.1312668E+00
        -11   -1    0    0    0    0  0.00000000000E+00  0.00000000000E+00  0.45593999997E+02  0.45594000000E+02  0.51100000000E-03 0.  1.
         11   -1    0    0    0    0 -0.00000000000E+00 -0.00000000000E+00 -0.45593999997E+02  0.45594000000E+02  0.51100000000E-03 0. -1.
    9900012    2    1    2    0    0  0.25333031547E+02  0.11033892606E+02 -0.33468103896E+02  0.47787271299E+02  0.20000001161E+02 0.  0.
        -12    1    1    2    0    0 -0.25333031547E+02 -0.11033892606E+02  0.33468103896E+02  0.43400728701E+02  0.00000000000E+00 0.  1.
         11    1    3    3    0    0  0.20811259440E+01  0.72330526044E+01 -0.97645225252E+01  0.12328586114E+02  0.51100000000E-03 0. -1.
        -11    1    3    3    0    0  0.99231512218E+01  0.74899641931E+01 -0.96175043942E+01  0.15718297771E+02  0.51100000000E-03 0.  1.
        -12    1    3    3    0    0  0.13328754381E+02 -0.36891241915E+01 -0.14086076976E+02  0.19740387414E+02  0.00000000000E+00 0.  1.
</event>
<event>
 7    1  0.4356471E-010  0.4778727E+02  0.7816164E-02  0.1312668E+00
        -11   -1    0    0    0    0  0.00000000000E+00  0.00000000000E+00  0.45593999997E+02  0.45594000000E+02  0.51100000000E-03 0.  1.
         11   -1    0    0    0    0 -0.00000000000E+00 -0.00000000000E+00 -0.45593999997E+02  0.45594000000E+02  0.51100000000E-03 0. -1.
    9900012    2    1    2    0    0  0.12083356541E+02 -0.42026048947E+01 -0.41472325918E+02  0.47787271777E+02  0.20000003341E+02 0.  0.
        -12    1    1    2    0    0 -0.12083356541E+02  0.42026048947E+01  0.41472325918E+02  0.43400728223E+02  0.00000000000E+00 0.  1.
         11    1    3    3    0    0 -0.16515831220E+01  0.30813061872E+01 -0.53246457161E+01  0.63697744773E+01  0.51100000000E-03 0. -1.
        -11    1    3    3    0    0 -0.55688268286E+00 -0.57963585795E+01 -0.11387798702E+02  0.12790224808E+02  0.51100000000E-03 0.  1.
        -12    1    3    3    0    0  0.14291822346E+02 -0.14875525024E+01 -0.24759881500E+02  0.28627272492E+02  0.00000000000E+00 0.  1.
</event>
<event>
 7    1  0.4356471E-010  0.4778726E+02  0.7816164E-02  0.1312668E+00
        -11   -1    0    0    0    0  0.00000000000E+00  0.00000000000E+00  0.45593999997E+02  0.45594000000E+02  0.51100000000E-03 0.  1.
         11   -1    0    0    0    0 -0.00000000000E+00 -0.00000000000E+00 -0.45593999997E+02  0.45594000000E+02  0.51100000000E-03 0. -1.
    9900012    2    1    2    0    0 -0.40774788805E+02 -0.44406697857E+01 -0.14188762168E+02  0.47787263576E+02  0.19999965949E+02 0.  0.
        -12    1    1    2    0    0  0.40774788805E+02  0.44406697857E+01  0.14188762168E+02  0.43400736424E+02  0.00000000000E+00 0.  1.
         11    1    3    3    0    0 -0.43872533796E+01 -0.85895781896E-01  0.14604030772E+01  0.46247321773E+01  0.51100000000E-03 0.  1.
        -11    1    3    3    0    0 -0.30582282072E+02  0.14449687141E+01 -0.16724222306E+02  0.34886437527E+02  0.51100000000E-03 0. -1.
         12    1    3    3    0    0 -0.58052533537E+01 -0.57997427179E+01  0.10750570608E+01  0.82760938720E+01  0.00000000000E+00 0. -1.
</event>
<event>
 7    1  0.4356471E-010  0.4778726E+02  0.7816164E-02  0.1312668E+00
        -11   -1    0    0    0    0  0.00000000000E+00  0.00000000000E+00  0.45593999997E+02  0.45594000000E+02  0.51100000000E-03 0.  1.
         11   -1    0    0    0    0 -0.00000000000E+00 -0.00000000000E+00 -0.45593999997E+02  0.45594000000E+02  0.51100000000E-03 0. -1.
    9900012    2    1    2    0    0 -0.90627319456E+01  0.23804021661E+02 -0.35140568058E+02  0.47787261746E+02  0.19999957603E+02 0.  0.
        -12    1    1    2    0    0  0.90627319456E+01 -0.23804021661E+02  0.35140568058E+02  0.43400738254E+02  0.00000000000E+00 0.  1.
         11    1    3    3    0    0 -0.38043287127E+01  0.11936312144E+02 -0.19107199626E+02  0.22848053361E+02  0.51100000000E-03 0. -1.
        -11    1    3    3    0    0  0.96502213601E+00  0.46690386372E+00 -0.10932127874E+02  0.10984565856E+02  0.51100000000E-03 0.  1.
         12    1    3    3    0    0 -0.62234253689E+01  0.11400805654E+02 -0.51012405582E+01  0.13954642529E+02  0.00000000000E+00 0. -1.
</event>
<event>
 7    1  0.4356471E-010  0.4778727E+02  0.7816164E-02  0.1312668E+00
        -11   -1    0    0    0    0  0.00000000000E+00  0.00000000000E+00  0.45593999997E+02  0.45594000000E+02  0.51100000000E-03 0.  1.
         11   -1    0    0    0    0 -0.00000000000E+00 -0.00000000000E+00 -0.45593999997E+02  0.45594000000E+02  0.51100000000E-03 0. -1.
    9900012    2    1    2    0    0  0.33609338006E+02  0.85058494881E+01 -0.26109116048E+02  0.47787273997E+02  0.20000013463E+02 0.  0.
        -12    1    1    2    0    0 -0.33609338006E+02 -0.85058494881E+01  0.26109116048E+02  0.43400726003E+02  0.00000000000E+00 0.  1.
         11    1    3    3    0    0  0.26266557747E+01  0.36879718795E+01 -0.55933694477E+01  0.71962656415E+01  0.51100000000E-03 0. -1.
        -11    1    3    3    0    0  0.15433180731E+02  0.84886184049E+01 -0.49754897057E+01  0.18302874309E+02  0.51100000000E-03 0.  1.
         12    1    3    3    0    0  0.15549501500E+02 -0.36707407963E+01 -0.15540256895E+02  0.22288134046E+02  0.00000000000E+00 0. -1.
</event>
