<event>
 7    1  0.1324280E-011  0.5930194E+02  0.7816164E-02  0.1266605E+00
        -11   -1    0    0    0    0  0.00000000000E+00  0.00000000000E+00  0.45593999997E+02  0.45594000000E+02  0.51100000000E-03 0.  1.
         11   -1    0    0    0    0 -0.00000000000E+00 -0.00000000000E+00 -0.45593999997E+02  0.45594000000E+02  0.51100000000E-03 0. -1.
    9900012    2    1    2    0    0 -0.82760660005E+01  0.34915013496E+01 -0.30594716690E+02  0.59301944435E+02  0.50000000743E+02 0.  0.
        -12    1    1    2    0    0  0.82760660005E+01 -0.34915013496E+01  0.30594716690E+02  0.31886055565E+02  0.00000000000E+00 0.  1.
         11    1    3    3    0    0  0.15523245239E+02 -0.15189374178E+01 -0.10279330020E+02  0.18680014442E+02  0.51100000000E-03 0. -1.
        -11    1    3    3    0    0 -0.12093966763E+02 -0.10312863691E+02 -0.90746109538E+01  0.18302124298E+02  0.51100000000E-03 0.  1.
        -12    1    3    3    0    0 -0.11705344476E+02  0.15323302459E+02 -0.11240775716E+02  0.22319805695E+02  0.00000000000E+00 0.  1.
</event>
<event>
 7    1  0.1324280E-011  0.5930195E+02  0.7816164E-02  0.1266605E+00
        -11   -1    0    0    0    0  0.00000000000E+00  0.00000000000E+00  0.45593999997E+02  0.45594000000E+02  0.51100000000E-03 0. -1.
         11   -1    0    0    0    0 -0.00000000000E+00 -0.00000000000E+00 -0.45593999997E+02  0.45594000000E+02  0.51100000000E-03 0.  1.
    9900012    2    1    2    0    0 -0.32058689425E+00  0.28523082229E+02  0.14249593463E+02  0.59301954312E+02  0.50000018755E+02 0.  0.
        -12    1    1    2    0    0  0.32058689425E+00 -0.28523082229E+02 -0.14249593463E+02  0.31886045688E+02  0.00000000000E+00 0.  1.
         11    1    3    3    0    0 -0.21671219748E+02  0.39581762576E+01  0.14470704272E+02  0.26357355843E+02  0.51100000000E-03 0. -1.
        -11    1    3    3    0    0  0.77133755849E+01  0.59121876492E+01 -0.13442404514E+01  0.98110707044E+01  0.51100000000E-03 0.  1.
        -12    1    3    3    0    0  0.13637257269E+02  0.18652718322E+02  0.11231296426E+01  0.23133527764E+02  0.00000000000E+00 0.  1.
</event>
<event>
 7    1  0.1336879E-011  0.5930195E+02  0.7816164E-02  0.1266605E+00
        -11   -1    0    0    0    0  0.00000000000E+00  0.00000000000E+00  0.45593999997E+02  0.45594000000E+02  0.51100000000E-03 0. -1.
         11   -1    0    0    0    0 -0.00000000000E+00 -0.00000000000E+00 -0.45593999997E+02  0.45594000000E+02  0.51100000000E-03 0.  1.
    9900012    2    1    2    0    0  0.59980274854E+01  0.26382127870E+02  0.16873858127E+02  0.59301951440E+02  0.50000013518E+02 0.  0.
        -12    1    1    2    0    0 -0.59980274854E+01 -0.26382127870E+02 -0.16873858127E+02  0.31886048560E+02  0.00000000000E+00 0.  1.
         11    1    3    3    0    0  0.75881685805E+01 -0.85385569812E+00  0.12416012767E+02  0.14576239064E+02  0.51100000000E-03 0. -1.
        -11    1    3    3    0    0 -0.16564909803E+02  0.43677678532E+01  0.83102590663E+00  0.17151216783E+02  0.51100000000E-03 0.  1.
         12    1    3    3    0    0  0.14974768708E+02  0.22868215715E+02  0.36268194541E+01  0.27574495593E+02  0.00000000000E+00 0. -1.
</event>
<event>
 7    1  0.1324280E-011  0.5930158E+02  0.7816164E-02  0.1266606E+00
        -11   -1    0    0    0    0  0.00000000000E+00  0.00000000000E+00  0.45593999997E+02  0.45594000000E+02  0.51100000000E-03 0. -1.
         11   -1    0    0    0    0 -0.00000000000E+00 -0.00000000000E+00 -0.45593999997E+02  0.45594000000E+02  0.51100000000E-03 0.  1.
    9900012    2    1    2    0    0  0.25253288663E+01  0.20067346172E+02  0.24650930216E+02  0.59301576106E+02  0.49999328994E+02 0.  0.
        -12    1    1    2    0    0 -0.25253288663E+01 -0.20067346172E+02 -0.24650930216E+02  0.31886423894E+02  0.00000000000E+00 0.  1.
         11    1    3    3    0    0 -0.54189143519E+01  0.17175437786E+02  0.10165141819E+02  0.20680677077E+02  0.51100000000E-03 0. -1.
        -11    1    3    3    0    0  0.59924905395E+01  0.18702560927E+02  0.10169119763E+02  0.22115757394E+02  0.51100000000E-03 0.  1.
        -12    1    3    3    0    0  0.19517526787E+01 -0.15810652541E+02  0.43166686336E+01  0.16505141635E+02  0.00000000000E+00 0.  1.
</event>
<event>
 7    1  0.1324280E-011  0.5930193E+02  0.7816164E-02  0.1266605E+00
        -11   -1    0    0    0    0  0.00000000000E+00  0.00000000000E+00  0.45593999997E+02  0.45594000000E+02  0.51100000000E-03 0. -1.
         11   -1    0    0    0    0 -0.00000000000E+00 -0.00000000000E+00 -0.45593999997E+02  0.45594000000E+02  0.51100000000E-03 0.  1.
    9900012    2    1    2    0    0 -0.17647487574E+01  0.13239292139E+02  0.28953903075E+02  0.59301926272E+02  0.49999967619E+02 0.  0.
        -12    1    1    2    0    0  0.17647487574E+01 -0.13239292139E+02 -0.28953903075E+02  0.31886073728E+02  0.00000000000E+00 0.  1.
         11    1    3    3    0    0 -0.64989051086E+01  0.61323000610E+01  0.94461057622E+01  0.13002683799E+02  0.51100000000E-03 0. -1.
        -11    1    3    3    0    0  0.13063139784E+02  0.12971508685E+02 -0.55683244934E+01  0.19233093784E+02  0.51100000000E-03 0.  1.
         12    1    3    3    0    0 -0.83289834323E+01 -0.58645166078E+01  0.25076121806E+02  0.27066148689E+02  0.00000000000E+00 0. -1.
</event>
<event>
 7    1  0.1324280E-011  0.5930195E+02  0.7816164E-02  0.1266605E+00
        -11   -1    0    0    0    0  0.00000000000E+00  0.00000000000E+00  0.45593999997E+02  0.45594000000E+02  0.51100000000E-03 0.  1.
         11   -1    0    0    0    0 -0.00000000000E+00 -0.00000000000E+00 -0.45593999997E+02  0.45594000000E+02  0.51100000000E-03 0. -1.
    9900012    2    1    2    0    0  0.10759687274E+02 -0.26270164607E+02 -0.14519915820E+02  0.59301947028E+02  0.50000005472E+02 0.  0.
        -12    1    1    2    0    0 -0.10759687274E+02  0.26270164607E+02  0.14519915820E+02  0.31886052972E+02  0.00000000000E+00 0.  1.
         11    1    3    3    0    0  0.67648878747E+01 -0.93884205553E+00 -0.10007052823E+01  0.69026475852E+01  0.51100000000E-03 0. -1.
        -11    1    3    3    0    0  0.56312636807E+01 -0.13617257750E+02  0.15303130409E+02  0.21244449625E+02  0.51100000000E-03 0.  1.
        -12    1    3    3    0    0 -0.16364642812E+01 -0.11714064801E+02 -0.28822340947E+02  0.31154849818E+02  0.00000000000E+00 0.  1.
</event>
<event>
 7    1  0.1324280E-011  0.5930200E+02  0.7816164E-02  0.1266605E+00
        -11   -1    0    0    0    0  0.00000000000E+00  0.00000000000E+00  0.45593999997E+02  0.45594000000E+02  0.51100000000E-03 0. -1.
         11   -1    0    0    0    0 -0.00000000000E+00 -0.00000000000E+00 -0.45593999997E+02  0.45594000000E+02  0.51100000000E-03 0.  1.
    9900012    2    1    2    0    0 -0.58270773024E+01 -0.18422351970E+00  0.31348497115E+02  0.59301999317E+02  0.50000100833E+02 0.  0.
        -12    1    1    2    0    0  0.58270773024E+01  0.18422351970E+00 -0.31348497115E+02  0.31886000683E+02  0.00000000000E+00 0.  1.
         11    1    3    3    0    0 -0.71404226858E+01 -0.59604203722E+01  0.62600646251E+01  0.11211630413E+02  0.51100000000E-03 0. -1.
        -11    1    3    3    0    0  0.46749531735E+01 -0.14440617182E+02  0.22908117888E+02  0.27480328914E+02  0.51100000000E-03 0.  1.
        -12    1    3    3    0    0 -0.33616077901E+01  0.20216814034E+02  0.21803146019E+01  0.20610039990E+02  0.00000000000E+00 0.  1.
</event>
<event>
 7    1  0.1324280E-011  0.5930196E+02  0.7816164E-02  0.1266605E+00
        -11   -1    0    0    0    0  0.00000000000E+00  0.00000000000E+00  0.45593999997E+02  0.45594000000E+02  0.51100000000E-03 0. -1.
         11   -1    0    0    0    0 -0.00000000000E+00 -0.00000000000E+00 -0.45593999997E+02  0.45594000000E+02  0.51100000000E-03 0.  1.
    9900012    2    1    2    0    0  0.10170066418E+02  0.19365326007E+02  0.23200719739E+02  0.59301960756E+02  0.50000030508E+02 0.  0.
        -12    1    1    2    0    0 -0.10170066418E+02 -0.19365326007E+02 -0.23200719739E+02  0.31886039244E+02  0.00000000000E+00 0.  1.
         11    1    3    3    0    0  0.56269565619E+01 -0.11403765099E+02  0.22315467824E+01  0.12910782311E+02  0.51100000000E-03 0. -1.
        -11    1    3    3    0    0 -0.58905315537E+01  0.30535896231E+00 -0.26402899053E+01  0.64624095449E+01  0.51100000000E-03 0.  1.
         12    1    3    3    0    0  0.10433641409E+02  0.30463732144E+02  0.23609462862E+02  0.39928768899E+02  0.00000000000E+00 0. -1.
</event>
<event>
 7    1  0.1324280E-011  0.5930194E+02  0.7816164E-02  0.1266605E+00
        -11   -1    0    0    0    0  0.00000000000E+00  0.00000000000E+00  0.45593999997E+02  0.45594000000E+02  0.51100000000E-03 0.  1.
         11   -1    0    0    0    0 -0.00000000000E+00 -0.00000000000E+00 -0.45593999997E+02  0.45594000000E+02  0.51100000000E-03 0. -1.
    9900012    2    1    2    0    0  0.15023311512E+02 -0.15877315135E+02 -0.23214910998E+02  0.59301935374E+02  0.49999984218E+02 0.  0.
        -12    1    1    2    0    0 -0.15023311512E+02  0.15877315135E+02  0.23214910998E+02  0.31886064626E+02  0.00000000000E+00 0.  1.
         11    1    3    3    0    0 -0.33922661596E+01  0.33809314607E+01 -0.86697968104E+01  0.99047233295E+01  0.51100000000E-03 0. -1.
        -11    1    3    3    0    0 -0.63968306260E+01  0.73926565225E+01  0.95429407518E+00  0.98224991708E+01  0.51100000000E-03 0.  1.
         12    1    3    3    0    0  0.24812408297E+02 -0.26650903119E+02 -0.15499408262E+02  0.39574712874E+02  0.00000000000E+00 0. -1.
</event>
<event>
 7    1  0.1324280E-011  0.5930194E+02  0.7816164E-02  0.1266605E+00
        -11   -1    0    0    0    0  0.00000000000E+00  0.00000000000E+00  0.45593999997E+02  0.45594000000E+02  0.51100000000E-03 0. -1.
         11   -1    0    0    0    0 -0.00000000000E+00 -0.00000000000E+00 -0.45593999997E+02  0.45594000000E+02  0.51100000000E-03 0.  1.
    9900012    2    1    2    0    0  0.26007302242E+02 -0.18448278459E+02 -0.48280783093E-01  0.59301935975E+02  0.49999985313E+02 0.  0.
        -12    1    1    2    0    0 -0.26007302242E+02  0.18448278459E+02  0.48280783093E-01  0.31886064025E+02  0.00000000000E+00 0.  1.
         11    1    3    3    0    0  0.27249160705E+02 -0.23272181574E+02 -0.41077699242E+00  0.35836851597E+02  0.51100000000E-03 0.  1.
        -11    1    3    3    0    0 -0.86509438682E+00 -0.83284846454E+01  0.47107185237E+01  0.96074405571E+01  0.51100000000E-03 0. -1.
        -12    1    3    3    0    0 -0.37676407655E+00  0.13152387760E+02 -0.43482223144E+01  0.13857643821E+02  0.00000000000E+00 0.  1.
</event>
<event>
 7    1  0.1324280E-011  0.5930194E+02  0.7816164E-02  0.1266605E+00
        -11   -1    0    0    0    0  0.00000000000E+00  0.00000000000E+00  0.45593999997E+02  0.45594000000E+02  0.51100000000E-03 0.  1.
         11   -1    0    0    0    0 -0.00000000000E+00 -0.00000000000E+00 -0.45593999997E+02  0.45594000000E+02  0.51100000000E-03 0. -1.
    9900012    2    1    2    0    0  0.15765903234E+02  0.23755046146E+02  0.14277772939E+02  0.59301941569E+02  0.49999995516E+02 0.  0.
        -12    1    1    2    0    0 -0.15765903234E+02 -0.23755046146E+02 -0.14277772939E+02  0.31886058431E+02  0.00000000000E+00 0.  1.
         11    1    3    3    0    0  0.15849513463E+01  0.21056375151E+02  0.27302906749E+02  0.34515673577E+02  0.51100000000E-03 0. -1.
        -11    1    3    3    0    0 -0.28638960431E+01 -0.51110511086E+00  0.28532833084E+00  0.29231047702E+01  0.51100000000E-03 0.  1.
         12    1    3    3    0    0  0.17044847931E+02  0.32097761056E+01 -0.13310462141E+02  0.21863163221E+02  0.00000000000E+00 0. -1.
</event>
<event>
 7    1  0.1324280E-011  0.5930192E+02  0.7816164E-02  0.1266605E+00
        -11   -1    0    0    0    0  0.00000000000E+00  0.00000000000E+00  0.45593999997E+02  0.45594000000E+02  0.51100000000E-03 0.  1.
         11   -1    0    0    0    0 -0.00000000000E+00 -0.00000000000E+00 -0.45593999997E+02  0.45594000000E+02  0.51100000000E-03 0. -1.
    9900012    2    1    2    0    0 -0.10302305483E+02  0.24815356201E+02 -0.17169235704E+02  0.59301920650E+02  0.49999957365E+02 0.  0.
        -12    1    1    2    0    0  0.10302305483E+02 -0.24815356201E+02  0.17169235704E+02  0.31886079350E+02  0.00000000000E+00 0.  1.
         11    1    3    3    0    0  0.29139895637E+00  0.18646074678E+01  0.21267419466E+01  0.28433617303E+01  0.51100000000E-03 0.  1.
        -11    1    3    3    0    0  0.13812509922E+02 -0.57844283727E+01 -0.24865050201E+01  0.15179846818E+02  0.51100000000E-03 0. -1.
         12    1    3    3    0    0 -0.24406214361E+02  0.28735177105E+02 -0.16809472630E+02  0.41278712103E+02  0.00000000000E+00 0. -1.
</event>
<event>
 7    1  0.1324280E-011  0.5930196E+02  0.7816164E-02  0.1266605E+00
        -11   -1    0    0    0    0  0.00000000000E+00  0.00000000000E+00  0.45593999997E+02  0.45594000000E+02  0.51100000000E-03 0. -1.
         11   -1    0    0    0    0 -0.00000000000E+00 -0.00000000000E+00 -0.45593999997E+02  0.45594000000E+02  0.51100000000E-03 0.  1.
    9900012    2    1    2    0    0 -0.12961835121E+02  0.28857736025E+02 -0.39926625572E+01  0.59301961480E+02  0.50000031828E+02 0.  0.
        -12    1    1    2    0    0  0.12961835121E+02 -0.28857736025E+02  0.39926625572E+01  0.31886038520E+02  0.00000000000E+00 0.  1.
         11    1    3    3    0    0  0.52653833179E+00  0.14018867017E+02  0.17234095550E+02  0.22222059418E+02  0.51100000000E-03 0. -1.
        -11    1    3    3    0    0  0.16460648311E+01 -0.47555843945E+01 -0.10495545975E+01  0.51406884243E+01  0.51100000000E-03 0.  1.
        -12    1    3    3    0    0 -0.15134438284E+02  0.19594453403E+02 -0.20177203510E+02  0.31939213638E+02  0.00000000000E+00 0.  1.
</event>
<event>
 7    1  0.1324280E-011  0.5930196E+02  0.7816164E-02  0.1266605E+00
        -11   -1    0    0    0    0  0.00000000000E+00  0.00000000000E+00  0.45593999997E+02  0.45594000000E+02  0.51100000000E-03 0.  1.
         11   -1    0    0    0    0 -0.00000000000E+00 -0.00000000000E+00 -0.45593999997E+02  0.45594000000E+02  0.51100000000E-03 0. -1.
    9900012    2    1    2    0    0 -0.91650129232E+01 -0.10623062084E+02 -0.28633423153E+02  0.59301955539E+02  0.50000020994E+02 0.  0.
        -12    1    1    2    0    0  0.91650129232E+01  0.10623062084E+02  0.28633423153E+02  0.31886044461E+02  0.00000000000E+00 0.  1.
         11    1    3    3    0    0 -0.15497587058E+02 -0.37414209445E+01 -0.12872464406E+02  0.20490821737E+02  0.51100000000E-03 0. -1.
        -11    1    3    3    0    0 -0.77450662984E+01 -0.16624300474E+02 -0.85297581788E+01  0.20226472581E+02  0.51100000000E-03 0.  1.
        -12    1    3    3    0    0  0.14077640433E+02  0.97426593343E+01 -0.72312005679E+01  0.18584661221E+02  0.00000000000E+00 0.  1.
</event>
<event>
 7    1  0.1324280E-011  0.5930192E+02  0.7816164E-02  0.1266605E+00
        -11   -1    0    0    0    0  0.00000000000E+00  0.00000000000E+00  0.45593999997E+02  0.45594000000E+02  0.51100000000E-03 0. -1.
         11   -1    0    0    0    0 -0.00000000000E+00 -0.00000000000E+00 -0.45593999997E+02  0.45594000000E+02  0.51100000000E-03 0.  1.
    9900012    2    1    2    0    0  0.12594684073E+02  0.28158736909E+02  0.80735293254E+01  0.59301915151E+02  0.49999947336E+02 0.  0.
        -12    1    1    2    0    0 -0.12594684073E+02 -0.28158736909E+02 -0.80735293254E+01  0.31886084849E+02  0.00000000000E+00 0.  1.
         11    1    3    3    0    0  0.44979853192E+01  0.19980250280E+02  0.19977552638E+02  0.28610223397E+02  0.51100000000E-03 0. -1.
        -11    1    3    3    0    0  0.93450067365E+01  0.77957571702E+01  0.54174338620E+01  0.13321094950E+02  0.51100000000E-03 0.  1.
         12    1    3    3    0    0 -0.12483079827E+01  0.38272945905E+00 -0.17321457174E+02  0.17370596803E+02  0.00000000000E+00 0. -1.
</event>
<event>
 7    1  0.1324280E-011  0.5930194E+02  0.7816164E-02  0.1266605E+00
        -11   -1    0    0    0    0  0.00000000000E+00  0.00000000000E+00  0.45593999997E+02  0.45594000000E+02  0.51100000000E-03 0. -1.
         11   -1    0    0    0    0 -0.00000000000E+00 -0.00000000000E+00 -0.45593999997E+02  0.45594000000E+02  0.51100000000E-03 0.  1.
    9900012    2    1    2    0    0  0.11742181148E+02 -0.25352128229E+02  0.15365922168E+02  0.59301940539E+02  0.49999993638E+02 0.  0.
        -12    1    1    2    0    0 -0.11742181148E+02  0.25352128229E+02 -0.15365922168E+02  0.31886059461E+02  0.00000000000E+00 0.  1.
         11    1    3    3    0    0  0.66903248128E+01 -0.24872614245E+02  0.15380445811E+02  0.29999424979E+02  0.51100000000E-03 0. -1.
        -11    1    3    3    0    0  0.56873258297E+00 -0.14535087223E+02  0.20524037463E+00  0.14547657585E+02  0.51100000000E-03 0.  1.
         12    1    3    3    0    0  0.44831237524E+01  0.14055573239E+02 -0.21976401783E+00  0.14754857975E+02  0.00000000000E+00 0. -1.
</event>
<event>
 7    1  0.1324280E-011  0.5930193E+02  0.7816164E-02  0.1266605E+00
        -11   -1    0    0    0    0  0.00000000000E+00  0.00000000000E+00  0.45593999997E+02  0.45594000000E+02  0.51100000000E-03 0.  1.
         11   -1    0    0    0    0 -0.00000000000E+00 -0.00000000000E+00 -0.45593999997E+02  0.45594000000E+02  0.51100000000E-03 0. -1.
    9900012    2    1    2    0    0  0.19078788516E+02 -0.72041873705E+01 -0.24511647269E+02  0.59301931902E+02  0.49999977886E+02 0.  0.
        -12    1    1    2    0    0 -0.19078788516E+02  0.72041873705E+01  0.24511647269E+02  0.31886068098E+02  0.00000000000E+00 0.  1.
         11    1    3    3    0    0 -0.50310300187E+01 -0.10497907446E+02 -0.23167934462E+02  0.25928179869E+02  0.51100000000E-03 0. -1.
        -11    1    3    3    0    0  0.12520478482E+01 -0.74404201019E+01  0.22341107698E+01  0.78688452964E+01  0.51100000000E-03 0.  1.
         12    1    3    3    0    0  0.22857770686E+02  0.10734140178E+02 -0.35778235765E+01  0.25504906737E+02  0.00000000000E+00 0. -1.
</event>
<event>
 7    1  0.1324280E-011  0.5930197E+02  0.7816164E-02  0.1266605E+00
        -11   -1    0    0    0    0  0.00000000000E+00  0.00000000000E+00  0.45593999997E+02  0.45594000000E+02  0.51100000000E-03 0.  1.
         11   -1    0    0    0    0 -0.00000000000E+00 -0.00000000000E+00 -0.45593999997E+02  0.45594000000E+02  0.51100000000E-03 0. -1.
    9900012    2    1    2    0    0  0.11700909141E+02  0.14014687075E+02 -0.26141852233E+02  0.59301965961E+02  0.50000040002E+02 0.  0.
        -12    1    1    2    0    0 -0.11700909141E+02 -0.14014687075E+02  0.26141852233E+02  0.31886034039E+02  0.00000000000E+00 0.  1.
         11    1    3    3    0    0  0.12768717936E+02  0.17529243086E+02 -0.14314484253E+01  0.21733926607E+02  0.51100000000E-03 0. -1.
        -11    1    3    3    0    0  0.11745365064E+02 -0.83962623655E+01 -0.14589544806E+02  0.20525731171E+02  0.51100000000E-03 0.  1.
        -12    1    3    3    0    0 -0.12813173860E+02  0.48817063548E+01 -0.10120859002E+02  0.17042308184E+02  0.00000000000E+00 0.  1.
</event>
<event>
 7    1  0.1324280E-011  0.5930191E+02  0.7816164E-02  0.1266605E+00
        -11   -1    0    0    0    0  0.00000000000E+00  0.00000000000E+00  0.45593999997E+02  0.45594000000E+02  0.51100000000E-03 0. -1.
         11   -1    0    0    0    0 -0.00000000000E+00 -0.00000000000E+00 -0.45593999997E+02  0.45594000000E+02  0.51100000000E-03 0.  1.
    9900012    2    1    2    0    0 -0.83839692908E+01  0.30585565204E+02 -0.33098407265E+01  0.59301909215E+02  0.49999936509E+02 0.  0.
        -12    1    1    2    0    0  0.83839692908E+01 -0.30585565204E+02  0.33098407265E+01  0.31886090785E+02  0.00000000000E+00 0.  1.
         11    1    3    3    0    0 -0.59910447739E+01  0.41273909899E+00  0.11825756599E-01  0.60052569601E+01  0.51100000000E-03 0. -1.
        -11    1    3    3    0    0 -0.17174022701E+02  0.33480832861E+02  0.66333299995E+00  0.37634468718E+02  0.51100000000E-03 0.  1.
        -12    1    3    3    0    0  0.14781098185E+02 -0.33080067552E+01 -0.39849994831E+01  0.15662183536E+02  0.00000000000E+00 0.  1.
</event>
<event>
 7    1  0.1324280E-011  0.5930193E+02  0.7816164E-02  0.1266605E+00
        -11   -1    0    0    0    0  0.00000000000E+00  0.00000000000E+00  0.45593999997E+02  0.45594000000E+02  0.51100000000E-03 0. -1.
         11   -1    0    0    0    0 -0.00000000000E+00 -0.00000000000E+00 -0.45593999997E+02  0.45594000000E+02  0.51100000000E-03 0.  1.
    9900012    2    1    2    0    0  0.81534892501E+01  0.47452950306E+01  0.30458561449E+02  0.59301934431E+02  0.49999982499E+02 0.  0.
        -12    1    1    2    0    0 -0.81534892501E+01 -0.47452950306E+01 -0.30458561449E+02  0.31886065569E+02  0.00000000000E+00 0.  1.
         11    1    3    3    0    0  0.19024387486E+02 -0.36081763883E+01  0.35492241017E+02  0.40430748556E+02  0.51100000000E-03 0. -1.
        -11    1    3    3    0    0  0.21180820034E+01  0.38336784579E+01 -0.18502405356E+01  0.47546558437E+01  0.51100000000E-03 0.  1.
        -12    1    3    3    0    0 -0.12988980240E+02  0.45197929610E+01 -0.31834390322E+01  0.14116530032E+02  0.00000000000E+00 0.  1.
</event>
<event>
 7    1  0.1324280E-011  0.5930197E+02  0.7816164E-02  0.1266605E+00
        -11   -1    0    0    0    0  0.00000000000E+00  0.00000000000E+00  0.45593999997E+02  0.45594000000E+02  0.51100000000E-03 0.  1.
         11   -1    0    0    0    0 -0.00000000000E+00 -0.00000000000E+00 -0.45593999997E+02  0.45594000000E+02  0.51100000000E-03 0. -1.
    9900012    2    1    2    0    0 -0.78165436097E+01 -0.28198360817E+02 -0.12667801731E+02  0.59301966891E+02  0.50000041697E+02 0.  0.
        -12    1    1    2    0    0  0.78165436097E+01  0.28198360817E+02  0.12667801731E+02  0.31886033109E+02  0.00000000000E+00 0.  1.
         11    1    3    3    0    0  0.91558993751E+01 -0.16361326743E+02 -0.29088837014E+01  0.18973273593E+02  0.51100000000E-03 0. -1.
        -11    1    3    3    0    0  0.40616216377E+00  0.71666169850E+01  0.66567898636E+01  0.97896996002E+01  0.51100000000E-03 0.  1.
         12    1    3    3    0    0 -0.17378605149E+02 -0.19003651058E+02 -0.16415707893E+02  0.30538993698E+02  0.00000000000E+00 0. -1.
</event>
<event>
 7    1  0.1324280E-011  0.5930194E+02  0.7816164E-02  0.1266605E+00
        -11   -1    0    0    0    0  0.00000000000E+00  0.00000000000E+00  0.45593999997E+02  0.45594000000E+02  0.51100000000E-03 0. -1.
         11   -1    0    0    0    0 -0.00000000000E+00 -0.00000000000E+00 -0.45593999997E+02  0.45594000000E+02  0.51100000000E-03 0.  1.
    9900012    2    1    2    0    0  0.17964164792E+02 -0.24188362283E+02 -0.10437083046E+02  0.59301940521E+02  0.49999993605E+02 0.  0.
        -12    1    1    2    0    0 -0.17964164792E+02  0.24188362283E+02  0.10437083046E+02  0.31886059479E+02  0.00000000000E+00 0.  1.
         11    1    3    3    0    0  0.30981226411E+02 -0.21672582730E+02 -0.73900817242E+01  0.38524674434E+02  0.51100000000E-03 0. -1.
        -11    1    3    3    0    0 -0.53461698755E+01 -0.86727836810E+01 -0.38887443977E+01  0.10905092497E+02  0.51100000000E-03 0.  1.
        -12    1    3    3    0    0 -0.76708917437E+01  0.61570041283E+01  0.84174307603E+00  0.98721735897E+01  0.00000000000E+00 0.  1.
</event>
<event>
 7    1  0.1324280E-011  0.5930193E+02  0.7816164E-02  0.1266605E+00
        -11   -1    0    0    0    0  0.00000000000E+00  0.00000000000E+00  0.45593999997E+02  0.45594000000E+02  0.51100000000E-03 0.  1.
         11   -1    0    0    0    0 -0.00000000000E+00 -0.00000000000E+00 -0.45593999997E+02  0.45594000000E+02  0.51100000000E-03 0. -1.
    9900012    2    1    2    0    0  0.15193119942E+02  0.91785181191E+01 -0.26488584696E+02  0.59301933958E+02  0.49999981635E+02 0.  0.
        -12    1    1    2    0    0 -0.15193119942E+02 -0.91785181191E+01  0.26488584696E+02  0.31886066042E+02  0.00000000000E+00 0.  1.
         11    1    3    3    0    0  0.11299684312E+02 -0.62834725598E+01 -0.21970014942E+02  0.25492086023E+02  0.51100000000E-03 0. -1.
        -11    1    3    3    0    0  0.13249397895E+02 -0.11437646153E+01  0.24373707857E+01  0.13520189299E+02  0.51100000000E-03 0.  1.
        -12    1    3    3    0    0 -0.93559622653E+01  0.16605755294E+02 -0.69559405395E+01  0.20289658637E+02  0.00000000000E+00 0.  1.
</event>
<event>
 7    1  0.1324280E-011  0.5930197E+02  0.7816164E-02  0.1266605E+00
        -11   -1    0    0    0    0  0.00000000000E+00  0.00000000000E+00  0.45593999997E+02  0.45594000000E+02  0.51100000000E-03 0.  1.
         11   -1    0    0    0    0 -0.00000000000E+00 -0.00000000000E+00 -0.45593999997E+02  0.45594000000E+02  0.51100000000E-03 0. -1.
    9900012    2    1    2    0    0  0.14645639291E+02 -0.20786710694E+02 -0.19238942983E+02  0.59301968280E+02  0.50000044231E+02 0.  0.
        -12    1    1    2    0    0 -0.14645639291E+02  0.20786710694E+02  0.19238942983E+02  0.31886031720E+02  0.00000000000E+00 0.  1.
         11    1    3    3    0    0  0.24116280930E+02 -0.13181171171E+02 -0.22115913937E+02  0.35276790229E+02  0.51100000000E-03 0. -1.
        -11    1    3    3    0    0  0.34565176240E+01 -0.14245742176E+01 -0.60725433538E+01  0.71311085275E+01  0.51100000000E-03 0.  1.
        -12    1    3    3    0    0 -0.12927159263E+02 -0.61809653058E+01  0.89495143079E+01  0.16894069524E+02  0.00000000000E+00 0.  1.
</event>
<event>
 7    1  0.1324280E-011  0.5930196E+02  0.7816164E-02  0.1266605E+00
        -11   -1    0    0    0    0  0.00000000000E+00  0.00000000000E+00  0.45593999997E+02  0.45594000000E+02  0.51100000000E-03 0. -1.
         11   -1    0    0    0    0 -0.00000000000E+00 -0.00000000000E+00 -0.45593999997E+02  0.45594000000E+02  0.51100000000E-03 0.  1.
    9900012    2    1    2    0    0  0.24384759204E+02 -0.20457681362E+02  0.18937541873E+01  0.59301960530E+02  0.50000030096E+02 0.  0.
        -12    1    1    2    0    0 -0.24384759204E+02  0.20457681362E+02 -0.18937541873E+01  0.31886039470E+02  0.00000000000E+00 0.  1.
         11    1    3    3    0    0 -0.34092823768E+01 -0.76931820091E+01  0.81954373041E+01  0.11746209968E+02  0.51100000000E-03 0. -1.
        -11    1    3    3    0    0 -0.54275857030E+01 -0.34719062147E+01 -0.10992411613E+02  0.12741504333E+02  0.51100000000E-03 0.  1.
         12    1    3    3    0    0  0.33221627284E+02 -0.92925931386E+01  0.46907284962E+01  0.34814246229E+02  0.00000000000E+00 0. -1.
</event>
<event>
 7    1  0.1324280E-011  0.5930199E+02  0.7816164E-02  0.1266605E+00
        -11   -1    0    0    0    0  0.00000000000E+00  0.00000000000E+00  0.45593999997E+02  0.45594000000E+02  0.51100000000E-03 0.  1.
         11   -1    0    0    0    0 -0.00000000000E+00 -0.00000000000E+00 -0.45593999997E+02  0.45594000000E+02  0.51100000000E-03 0. -1.
    9900012    2    1    2    0    0 -0.16500154453E+02  0.11909699726E+02 -0.24548357041E+02  0.59301986170E+02  0.50000076858E+02 0.  0.
        -12    1    1    2    0    0  0.16500154453E+02 -0.11909699726E+02  0.24548357041E+02  0.31886013830E+02  0.00000000000E+00 0.  1.
         11    1    3    3    0    0 -0.20121429199E+02  0.17857544814E+00  0.37100639609E+00  0.20125641560E+02  0.51100000000E-03 0. -1.
        -11    1    3    3    0    0  0.87952294501E+01  0.15451727744E+02 -0.53071641419E+01  0.18554728315E+02  0.51100000000E-03 0.  1.
         12    1    3    3    0    0 -0.51739547043E+01 -0.37206034664E+01 -0.19612199295E+02  0.20621616295E+02  0.00000000000E+00 0. -1.
</event>
<event>
 7    1  0.1324280E-011  0.5930195E+02  0.7816164E-02  0.1266605E+00
        -11   -1    0    0    0    0  0.00000000000E+00  0.00000000000E+00  0.45593999997E+02  0.45594000000E+02  0.51100000000E-03 0.  1.
         11   -1    0    0    0    0 -0.00000000000E+00 -0.00000000000E+00 -0.45593999997E+02  0.45594000000E+02  0.51100000000E-03 0. -1.
    9900012    2    1    2    0    0  0.18743507097E+02  0.22024104985E+02 -0.13429078242E+02  0.59301946605E+02  0.50000004700E+02 0.  0.
        -12    1    1    2    0    0 -0.18743507097E+02 -0.22024104985E+02  0.13429078242E+02  0.31886053395E+02  0.00000000000E+00 0.  1.
         11    1    3    3    0    0  0.60858158560E+01  0.80997313266E+01  0.21221283822E+01  0.10351146377E+02  0.51100000000E-03 0. -1.
        -11    1    3    3    0    0  0.18655041274E+02  0.18654025985E+02 -0.25309412407E+02  0.36558851282E+02  0.51100000000E-03 0.  1.
        -12    1    3    3    0    0 -0.59973500337E+01 -0.47296523265E+01  0.97582057829E+01  0.12391948945E+02  0.00000000000E+00 0.  1.
</event>
<event>
 7    1  0.1324280E-011  0.5930196E+02  0.7816164E-02  0.1266605E+00
        -11   -1    0    0    0    0  0.00000000000E+00  0.00000000000E+00  0.45593999997E+02  0.45594000000E+02  0.51100000000E-03 0.  1.
         11   -1    0    0    0    0 -0.00000000000E+00 -0.00000000000E+00 -0.45593999997E+02  0.45594000000E+02  0.51100000000E-03 0. -1.
    9900012    2    1    2    0    0  0.12568865874E+02 -0.83492356642E+01 -0.28089738151E+02  0.59301960501E+02  0.50000030043E+02 0.  0.
        -12    1    1    2    0    0 -0.12568865874E+02  0.83492356642E+01  0.28089738151E+02  0.31886039499E+02  0.00000000000E+00 0.  1.
         11    1    3    3    0    0  0.11698567185E+02 -0.26265976707E+01 -0.17358649523E+02  0.21096876617E+02  0.51100000000E-03 0. -1.
        -11    1    3    3    0    0  0.69911304563E+01 -0.19908147529E+02 -0.46809527375E+01  0.21612995208E+02  0.51100000000E-03 0.  1.
        -12    1    3    3    0    0 -0.61208317672E+01  0.14185509535E+02 -0.60501358912E+01  0.16592088675E+02  0.00000000000E+00 0.  1.
</event>
<event>
 7    1  0.1324280E-011  0.5930193E+02  0.7816164E-02  0.1266605E+00
        -11   -1    0    0    0    0  0.00000000000E+00  0.00000000000E+00  0.45593999997E+02  0.45594000000E+02  0.51100000000E-03 0. -1.
         11   -1    0    0    0    0 -0.00000000000E+00 -0.00000000000E+00 -0.45593999997E+02  0.45594000000E+02  0.51100000000E-03 0.  1.
    9900012    2    1    2    0    0 -0.30090865744E+02 -0.30385667778E+01  0.10100912281E+02  0.59301929088E+02  0.49999972753E+02 0.  0.
        -12    1    1    2    0    0  0.30090865744E+02  0.30385667778E+01 -0.10100912281E+02  0.31886070912E+02  0.00000000000E+00 0.  1.
         11    1    3    3    0    0 -0.36013924296E+01  0.64765385518E+01 -0.82445882206E+01  0.11085522732E+02  0.51100000000E-03 0. -1.
        -11    1    3    3    0    0 -0.34277131060E+02 -0.10648120365E+02  0.11234946517E+02  0.37610214098E+02  0.51100000000E-03 0.  1.
         12    1    3    3    0    0  0.77876577458E+01  0.11330150354E+01  0.71105539850E+01  0.10606192258E+02  0.00000000000E+00 0. -1.
</event>
<event>
 7    1  0.1324280E-011  0.5930194E+02  0.7816164E-02  0.1266605E+00
        -11   -1    0    0    0    0  0.00000000000E+00  0.00000000000E+00  0.45593999997E+02  0.45594000000E+02  0.51100000000E-03 0.  1.
         11   -1    0    0    0    0 -0.00000000000E+00 -0.00000000000E+00 -0.45593999997E+02  0.45594000000E+02  0.51100000000E-03 0. -1.
    9900012    2    1    2    0    0 -0.43120189368E+01 -0.23502941119E+02 -0.21112538884E+02  0.59301936482E+02  0.49999986238E+02 0.  0.
        -12    1    1    2    0    0  0.43120189368E+01  0.23502941119E+02  0.21112538884E+02  0.31886063518E+02  0.00000000000E+00 0.  1.
         11    1    3    3    0    0  0.14080868627E+02 -0.32329286545E+01 -0.16434285232E+02  0.21881691441E+02  0.51100000000E-03 0. -1.
        -11    1    3    3    0    0 -0.60944340434E+01  0.52343801058E+01 -0.42799379072E+01  0.91026770871E+01  0.51100000000E-03 0.  1.
        -12    1    3    3    0    0 -0.12298453521E+02 -0.25504392570E+02 -0.39831574470E+00  0.28317567953E+02  0.00000000000E+00 0.  1.
</event>
<event>
 7    1  0.1324280E-011  0.5930201E+02  0.7816164E-02  0.1266605E+00
        -11   -1    0    0    0    0  0.00000000000E+00  0.00000000000E+00  0.45593999997E+02  0.45594000000E+02  0.51100000000E-03 0. -1.
         11   -1    0    0    0    0 -0.00000000000E+00 -0.00000000000E+00 -0.45593999997E+02  0.45594000000E+02  0.51100000000E-03 0.  1.
    9900012    2    1    2    0    0 -0.14200998112E+02 -0.11414945826E+02  0.26167674315E+02  0.59302007548E+02  0.50000115846E+02 0.  0.
        -12    1    1    2    0    0  0.14200998112E+02  0.11414945826E+02 -0.26167674315E+02  0.31885992452E+02  0.00000000000E+00 0.  1.
         11    1    3    3    0    0 -0.22562608374E+02 -0.71948310340E+01  0.15546512962E+02  0.28328977317E+02  0.51100000000E-03 0. -1.
        -11    1    3    3    0    0 -0.89512974455E+01 -0.53519312126E+01 -0.36806542418E+00  0.10435725470E+02  0.51100000000E-03 0.  1.
        -12    1    3    3    0    0  0.17312907708E+02  0.11318164205E+01  0.10989226777E+02  0.20537304762E+02  0.00000000000E+00 0.  1.
</event>
<event>
 7    1  0.1324280E-011  0.5930194E+02  0.7816164E-02  0.1266605E+00
        -11   -1    0    0    0    0  0.00000000000E+00  0.00000000000E+00  0.45593999997E+02  0.45594000000E+02  0.51100000000E-03 0. -1.
         11   -1    0    0    0    0 -0.00000000000E+00 -0.00000000000E+00 -0.45593999997E+02  0.45594000000E+02  0.51100000000E-03 0.  1.
    9900012    2    1    2    0    0  0.96453849543E+00 -0.56889713263E+01  0.31359621162E+02  0.59301943977E+02  0.49999999908E+02 0.  0.
        -12    1    1    2    0    0 -0.96453849543E+00  0.56889713263E+01 -0.31359621162E+02  0.31886056023E+02  0.00000000000E+00 0.  1.
         11    1    3    3    0    0  0.93748725954E+01  0.65045745870E+01 -0.74292616527E+00  0.11434582034E+02  0.51100000000E-03 0. -1.
        -11    1    3    3    0    0  0.51484554380E+01 -0.99209902896E+01 -0.17649861011E+01  0.11315821575E+02  0.51100000000E-03 0.  1.
        -12    1    3    3    0    0 -0.13558789538E+02 -0.22725556237E+01  0.33867533428E+02  0.36551540368E+02  0.00000000000E+00 0.  1.
</event>
<event>
 7    1  0.1324280E-011  0.5930198E+02  0.7816164E-02  0.1266605E+00
        -11   -1    0    0    0    0  0.00000000000E+00  0.00000000000E+00  0.45593999997E+02  0.45594000000E+02  0.51100000000E-03 0. -1.
         11   -1    0    0    0    0 -0.00000000000E+00 -0.00000000000E+00 -0.45593999997E+02  0.45594000000E+02  0.51100000000E-03 0.  1.
    9900012    2    1    2    0    0 -0.28188985853E+02 -0.95537791800E+01  0.11437851258E+02  0.59301983293E+02  0.50000071611E+02 0.  0.
        -12    1    1    2    0    0  0.28188985853E+02  0.95537791800E+01 -0.11437851258E+02  0.31886016707E+02  0.00000000000E+00 0.  1.
         11    1    3    3    0    0 -0.35162201125E+01 -0.82597457359E+00 -0.67087888550E+01  0.76193100762E+01  0.51100000000E-03 0. -1.
        -11    1    3    3    0    0 -0.13549330833E+02 -0.45036420171E+01 -0.12393358111E+02  0.18906678263E+02  0.51100000000E-03 0.  1.
         12    1    3    3    0    0 -0.11123434908E+02 -0.42241625893E+01  0.30539998223E+02  0.32775994954E+02  0.00000000000E+00 0. -1.
</event>
<event>
 7    1  0.1324280E-011  0.5930194E+02  0.7816164E-02  0.1266605E+00
        -11   -1    0    0    0    0  0.00000000000E+00  0.00000000000E+00  0.45593999997E+02  0.45594000000E+02  0.51100000000E-03 0. -1.
         11   -1    0    0    0    0 -0.00000000000E+00 -0.00000000000E+00 -0.45593999997E+02  0.45594000000E+02  0.51100000000E-03 0.  1.
    9900012    2    1    2    0    0  0.27909816467E+02 -0.58212430738E+01 -0.14278508526E+02  0.59301944555E+02  0.50000000961E+02 0.  0.
        -12    1    1    2    0    0 -0.27909816467E+02  0.58212430738E+01  0.14278508526E+02  0.31886055445E+02  0.00000000000E+00 0.  1.
         11    1    3    3    0    0  0.37462064846E+01  0.18877821137E+01 -0.18023553372E+02  0.18505303584E+02  0.51100000000E-03 0. -1.
        -11    1    3    3    0    0 -0.47699485899E+01  0.31407480910E+01 -0.61087437357E+01  0.83626226993E+01  0.51100000000E-03 0.  1.
         12    1    3    3    0    0  0.28933558572E+02 -0.10849773279E+02  0.98537885814E+01  0.32434018272E+02  0.00000000000E+00 0. -1.
</event>
<event>
 7    1  0.1324280E-011  0.5930193E+02  0.7816164E-02  0.1266605E+00
        -11   -1    0    0    0    0  0.00000000000E+00  0.00000000000E+00  0.45593999997E+02  0.45594000000E+02  0.51100000000E-03 0. -1.
         11   -1    0    0    0    0 -0.00000000000E+00 -0.00000000000E+00 -0.45593999997E+02  0.45594000000E+02  0.51100000000E-03 0.  1.
    9900012    2    1    2    0    0 -0.26230613967E+02  0.11737351371E+02  0.13817061549E+02  0.59301925984E+02  0.49999967093E+02 0.  0.
        -12    1    1    2    0    0  0.26230613967E+02 -0.11737351371E+02 -0.13817061549E+02  0.31886074016E+02  0.00000000000E+00 0.  1.
         11    1    3    3    0    0 -0.21259543582E+02  0.20143630505E+02  0.58486103934E+01  0.29865369361E+02  0.51100000000E-03 0. -1.
        -11    1    3    3    0    0  0.82734376747E+01  0.43175983126E+01 -0.20338123765E+00  0.93344946481E+01  0.51100000000E-03 0.  1.
         12    1    3    3    0    0 -0.13244508059E+02 -0.12723877447E+02  0.81718323928E+01  0.20102061975E+02  0.00000000000E+00 0. -1.
</event>
<event>
 7    1  0.1324280E-011  0.5930197E+02  0.7816164E-02  0.1266605E+00
        -11   -1    0    0    0    0  0.00000000000E+00  0.00000000000E+00  0.45593999997E+02  0.45594000000E+02  0.51100000000E-03 0.  1.
         11   -1    0    0    0    0 -0.00000000000E+00 -0.00000000000E+00 -0.45593999997E+02  0.45594000000E+02  0.51100000000E-03 0. -1.
    9900012    2    1    2    0    0  0.18698927005E+02 -0.17397023891E+02 -0.19089601694E+02  0.59301965372E+02  0.50000038927E+02 0.  0.
        -12    1    1    2    0    0 -0.18698927005E+02  0.17397023891E+02  0.19089601694E+02  0.31886034628E+02  0.00000000000E+00 0.  1.
         11    1    3    3    0    0  0.20788159277E+01  0.15378202494E+01 -0.37279999605E+01  0.45369979884E+01  0.51100000000E-03 0. -1.
        -11    1    3    3    0    0 -0.82245318626E+01 -0.22355199025E+02 -0.17555182825E+02  0.29590239811E+02  0.51100000000E-03 0.  1.
         12    1    3    3    0    0  0.24844642940E+02  0.34203548839E+01  0.21935810908E+01  0.25174727573E+02  0.00000000000E+00 0. -1.
</event>
<event>
 7    1  0.1324280E-011  0.5930195E+02  0.7816164E-02  0.1266605E+00
        -11   -1    0    0    0    0  0.00000000000E+00  0.00000000000E+00  0.45593999997E+02  0.45594000000E+02  0.51100000000E-03 0. -1.
         11   -1    0    0    0    0 -0.00000000000E+00 -0.00000000000E+00 -0.45593999997E+02  0.45594000000E+02  0.51100000000E-03 0.  1.
    9900012    2    1    2    0    0 -0.41175093562E+01  0.28236706726E+02  0.14228653018E+02  0.59301952005E+02  0.50000014548E+02 0.  0.
        -12    1    1    2    0    0  0.41175093562E+01 -0.28236706726E+02 -0.14228653018E+02  0.31886047995E+02  0.00000000000E+00 0.  1.
         11    1    3    3    0    0 -0.14799892094E+02  0.31716109067E+01  0.17565937854E+02  0.23187455546E+02  0.51100000000E-03 0. -1.
        -11    1    3    3    0    0 -0.45470560254E+01  0.14472727542E+02  0.47226943340E+01  0.15888341733E+02  0.51100000000E-03 0.  1.
        -12    1    3    3    0    0  0.15229438763E+02  0.10592368278E+02 -0.80599791699E+01  0.20226154726E+02  0.00000000000E+00 0.  1.
</event>
<event>
 7    1  0.1324280E-011  0.5930194E+02  0.7816164E-02  0.1266605E+00
        -11   -1    0    0    0    0  0.00000000000E+00  0.00000000000E+00  0.45593999997E+02  0.45594000000E+02  0.51100000000E-03 0.  1.
         11   -1    0    0    0    0 -0.00000000000E+00 -0.00000000000E+00 -0.45593999997E+02  0.45594000000E+02  0.51100000000E-03 0. -1.
    9900012    2    1    2    0    0 -0.25922888177E+02  0.17788722006E+02 -0.53184506312E+01  0.59301942245E+02  0.49999996748E+02 0.  0.
        -12    1    1    2    0    0  0.25922888177E+02 -0.17788722006E+02  0.53184506312E+01  0.31886057755E+02  0.00000000000E+00 0.  1.
         11    1    3    3    0    0 -0.28583474481E+02 -0.45646671988E+00 -0.42414165402E+01  0.28900051726E+02  0.51100000000E-03 0. -1.
        -11    1    3    3    0    0 -0.91669103654E+01  0.14088362137E+02  0.32885264743E+01  0.17126838587E+02  0.51100000000E-03 0.  1.
        -12    1    3    3    0    0  0.11827496669E+02  0.41568265890E+01 -0.43655605653E+01  0.13275051932E+02  0.00000000000E+00 0.  1.
</event>
<event>
 7    1  0.1324280E-011  0.5930194E+02  0.7816164E-02  0.1266605E+00
        -11   -1    0    0    0    0  0.00000000000E+00  0.00000000000E+00  0.45593999997E+02  0.45594000000E+02  0.51100000000E-03 0.  1.
         11   -1    0    0    0    0 -0.00000000000E+00 -0.00000000000E+00 -0.45593999997E+02  0.45594000000E+02  0.51100000000E-03 0. -1.
    9900012    2    1    2    0    0  0.19107081347E+02  0.23662740242E+02 -0.95768106622E+01  0.59301935084E+02  0.49999983689E+02 0.  0.
        -12    1    1    2    0    0 -0.19107081347E+02 -0.23662740242E+02  0.95768106622E+01  0.31886064916E+02  0.00000000000E+00 0.  1.
         11    1    3    3    0    0  0.40522858629E+01  0.14332367169E+02 -0.71860815585E+01  0.16537156280E+02  0.51100000000E-03 0. -1.
        -11    1    3    3    0    0  0.22705990361E+02  0.17603147185E+02  0.51740793271E+01  0.29192531343E+02  0.51100000000E-03 0.  1.
        -12    1    3    3    0    0 -0.76511948761E+01 -0.82727741130E+01 -0.75648084308E+01  0.13572247461E+02  0.00000000000E+00 0.  1.
</event>
<event>
 7    1  0.1324280E-011  0.5930192E+02  0.7816164E-02  0.1266605E+00
        -11   -1    0    0    0    0  0.00000000000E+00  0.00000000000E+00  0.45593999997E+02  0.45594000000E+02  0.51100000000E-03 0. -1.
         11   -1    0    0    0    0 -0.00000000000E+00 -0.00000000000E+00 -0.45593999997E+02  0.45594000000E+02  0.51100000000E-03 0.  1.
    9900012    2    1    2    0    0  0.18267197378E+02  0.14963863145E+02  0.21426960159E+02  0.59301916485E+02  0.49999949769E+02 0.  0.
        -12    1    1    2    0    0 -0.18267197378E+02 -0.14963863145E+02 -0.21426960159E+02  0.31886083515E+02  0.00000000000E+00 0.  1.
         11    1    3    3    0    0  0.69940236976E+01  0.51408452759E+01  0.45940748344E+01  0.98209053288E+01  0.51100000000E-03 0. -1.
        -11    1    3    3    0    0  0.61987142988E+00  0.25619360996E+02  0.27207268454E+01  0.25770879947E+02  0.51100000000E-03 0.  1.
        -12    1    3    3    0    0  0.10653302250E+02 -0.15796343127E+02  0.14112158479E+02  0.23710131209E+02  0.00000000000E+00 0.  1.
</event>
<event>
 7    1  0.1324280E-011  0.5930196E+02  0.7816164E-02  0.1266605E+00
        -11   -1    0    0    0    0  0.00000000000E+00  0.00000000000E+00  0.45593999997E+02  0.45594000000E+02  0.51100000000E-03 0. -1.
         11   -1    0    0    0    0 -0.00000000000E+00 -0.00000000000E+00 -0.45593999997E+02  0.45594000000E+02  0.51100000000E-03 0.  1.
    9900012    2    1    2    0    0  0.30283825974E+01 -0.30336826778E+02  0.93394652817E+01  0.59301956472E+02  0.50000022696E+02 0.  0.
        -12    1    1    2    0    0 -0.30283825974E+01  0.30336826778E+02 -0.93394652817E+01  0.31886043528E+02  0.00000000000E+00 0.  1.
         11    1    3    3    0    0 -0.23086268346E+01 -0.15582235301E+02 -0.42103488771E+01  0.16305301370E+02  0.51100000000E-03 0. -1.
        -11    1    3    3    0    0 -0.12615643013E+02 -0.56309831214E+01 -0.58790516840E+01  0.15014182246E+02  0.51100000000E-03 0.  1.
        -12    1    3    3    0    0  0.17952652445E+02 -0.91236083548E+01  0.19428865843E+02  0.27982472856E+02  0.00000000000E+00 0.  1.
</event>
<event>
 7    1  0.1324280E-011  0.5930191E+02  0.7816164E-02  0.1266605E+00
        -11   -1    0    0    0    0  0.00000000000E+00  0.00000000000E+00  0.45593999997E+02  0.45594000000E+02  0.51100000000E-03 0.  1.
         11   -1    0    0    0    0 -0.00000000000E+00 -0.00000000000E+00 -0.45593999997E+02  0.45594000000E+02  0.51100000000E-03 0. -1.
    9900012    2    1    2    0    0 -0.71461481392E+01  0.30842860491E+02 -0.37911703625E+01  0.59301914489E+02  0.49999946129E+02 0.  0.
        -12    1    1    2    0    0  0.71461481392E+01 -0.30842860491E+02  0.37911703625E+01  0.31886085511E+02  0.00000000000E+00 0.  1.
         11    1    3    3    0    0 -0.13789134413E+01  0.10426149135E+02 -0.90991766237E+01  0.13906868935E+02  0.51100000000E-03 0. -1.
        -11    1    3    3    0    0 -0.18189602472E+01 -0.81239294691E+01 -0.98025453849E+01  0.12860666495E+02  0.51100000000E-03 0.  1.
         12    1    3    3    0    0 -0.39482744507E+01  0.28540640824E+02  0.15110551646E+02  0.32534379060E+02  0.00000000000E+00 0. -1.
</event>
<event>
 7    1  0.1324280E-011  0.5930194E+02  0.7816164E-02  0.1266605E+00
        -11   -1    0    0    0    0  0.00000000000E+00  0.00000000000E+00  0.45593999997E+02  0.45594000000E+02  0.51100000000E-03 0.  1.
         11   -1    0    0    0    0 -0.00000000000E+00 -0.00000000000E+00 -0.45593999997E+02  0.45594000000E+02  0.51100000000E-03 0. -1.
    9900012    2    1    2    0    0  0.22147197688E+02 -0.22011577038E+02 -0.64585487287E+01  0.59301941278E+02  0.49999994985E+02 0.  0.
        -12    1    1    2    0    0 -0.22147197688E+02  0.22011577038E+02  0.64585487287E+01  0.31886058722E+02  0.00000000000E+00 0.  1.
         11    1    3    3    0    0  0.12064876827E+02  0.37573793100E+01  0.68903855169E+01  0.14392934550E+02  0.51100000000E-03 0. -1.
        -11    1    3    3    0    0  0.52389872893E+01 -0.95837613468E+01  0.10850520658E+02  0.15395754875E+02  0.51100000000E-03 0.  1.
         12    1    3    3    0    0  0.48433335713E+01 -0.16185195001E+02 -0.24199454903E+02  0.29513251853E+02  0.00000000000E+00 0. -1.
</event>
<event>
 7    1  0.1324280E-011  0.5930192E+02  0.7816164E-02  0.1266605E+00
        -11   -1    0    0    0    0  0.00000000000E+00  0.00000000000E+00  0.45593999997E+02  0.45594000000E+02  0.51100000000E-03 0.  1.
         11   -1    0    0    0    0 -0.00000000000E+00 -0.00000000000E+00 -0.45593999997E+02  0.45594000000E+02  0.51100000000E-03 0. -1.
    9900012    2    1    2    0    0 -0.12021371428E+02 -0.22986593977E+02 -0.18542528187E+02  0.59301918001E+02  0.49999952534E+02 0.  0.
        -12    1    1    2    0    0  0.12021371428E+02  0.22986593977E+02  0.18542528187E+02  0.31886081999E+02  0.00000000000E+00 0.  1.
         11    1    3    3    0    0 -0.85315502479E+01 -0.14873612563E+00 -0.92206271409E+01  0.12563018634E+02  0.51100000000E-03 0.  1.
        -11    1    3    3    0    0 -0.13886237583E+02  0.21736910487E+01  0.63745076068E+01  0.15433304069E+02  0.51100000000E-03 0. -1.
        -12    1    3    3    0    0  0.10396416403E+02 -0.25011548900E+02 -0.15696408653E+02  0.31305595298E+02  0.00000000000E+00 0.  1.
</event>
<event>
 7    1  0.1324280E-011  0.5930194E+02  0.7816164E-02  0.1266605E+00
        -11   -1    0    0    0    0  0.00000000000E+00  0.00000000000E+00  0.45593999997E+02  0.45594000000E+02  0.51100000000E-03 0.  1.
         11   -1    0    0    0    0 -0.00000000000E+00 -0.00000000000E+00 -0.45593999997E+02  0.45594000000E+02  0.51100000000E-03 0. -1.
    9900012    2    1    2    0    0  0.21767630367E+02 -0.70460120111E+00 -0.23289362877E+02  0.59301943206E+02  0.49999998502E+02 0.  0.
        -12    1    1    2    0    0 -0.21767630367E+02  0.70460120111E+00  0.23289362877E+02  0.31886056794E+02  0.00000000000E+00 0.  1.
         11    1    3    3    0    0 -0.45637518643E+01  0.58432775598E+01  0.87090161403E+01  0.11437599666E+02  0.51100000000E-03 0.  1.
        -11    1    3    3    0    0  0.66373287934E+01  0.57872067153E+01 -0.19686329742E+02  0.21566118660E+02  0.51100000000E-03 0. -1.
        -12    1    3    3    0    0  0.19694053438E+02 -0.12335085476E+02 -0.12312049276E+02  0.26298224881E+02  0.00000000000E+00 0.  1.
</event>
<event>
 7    1  0.1324280E-011  0.5930205E+02  0.7816164E-02  0.1266604E+00
        -11   -1    0    0    0    0  0.00000000000E+00  0.00000000000E+00  0.45593999997E+02  0.45594000000E+02  0.51100000000E-03 0.  1.
         11   -1    0    0    0    0 -0.00000000000E+00 -0.00000000000E+00 -0.45593999997E+02  0.45594000000E+02  0.51100000000E-03 0. -1.
    9900012    2    1    2    0    0  0.10429494041E+02 -0.89431191517E+01 -0.28774292228E+02  0.59302052949E+02  0.50000198646E+02 0.  0.
        -12    1    1    2    0    0 -0.10429494041E+02  0.89431191517E+01  0.28774292228E+02  0.31885947051E+02  0.00000000000E+00 0.  1.
         11    1    3    3    0    0  0.12786812668E+02 -0.20067050964E+02 -0.29190600910E+02  0.37660062326E+02  0.51100000000E-03 0. -1.
        -11    1    3    3    0    0  0.43409817311E+01  0.30890040497E+01 -0.70160535734E+01  0.88097148884E+01  0.51100000000E-03 0.  1.
         12    1    3    3    0    0 -0.66983003582E+01  0.80349277629E+01  0.74323622557E+01  0.12832275735E+02  0.00000000000E+00 0. -1.
</event>
<event>
 7    1  0.1324280E-011  0.5930192E+02  0.7816164E-02  0.1266605E+00
        -11   -1    0    0    0    0  0.00000000000E+00  0.00000000000E+00  0.45593999997E+02  0.45594000000E+02  0.51100000000E-03 0. -1.
         11   -1    0    0    0    0 -0.00000000000E+00 -0.00000000000E+00 -0.45593999997E+02  0.45594000000E+02  0.51100000000E-03 0.  1.
    9900012    2    1    2    0    0 -0.14518882059E+02 -0.64697867761E+01  0.27641745982E+02  0.59301918427E+02  0.49999953310E+02 0.  0.
        -12    1    1    2    0    0  0.14518882059E+02  0.64697867761E+01 -0.27641745982E+02  0.31886081573E+02  0.00000000000E+00 0.  1.
         11    1    3    3    0    0 -0.13850214590E+01 -0.13695154423E+02  0.15441088127E+02  0.20685810159E+02  0.51100000000E-03 0. -1.
        -11    1    3    3    0    0  0.10926630823E+02  0.19720136734E+01 -0.65026974522E-01  0.11103347596E+02  0.51100000000E-03 0.  1.
        -12    1    3    3    0    0 -0.24060491423E+02  0.52533539737E+01  0.12265684829E+02  0.27512760672E+02  0.00000000000E+00 0.  1.
</event>
<event>
 7    1  0.1324280E-011  0.5930196E+02  0.7816164E-02  0.1266605E+00
        -11   -1    0    0    0    0  0.00000000000E+00  0.00000000000E+00  0.45593999997E+02  0.45594000000E+02  0.51100000000E-03 0. -1.
         11   -1    0    0    0    0 -0.00000000000E+00 -0.00000000000E+00 -0.45593999997E+02  0.45594000000E+02  0.51100000000E-03 0.  1.
    9900012    2    1    2    0    0  0.29731161506E+02  0.11422401016E+02  0.15187018142E+01  0.59301958153E+02  0.50000025761E+02 0.  0.
        -12    1    1    2    0    0 -0.29731161506E+02 -0.11422401016E+02 -0.15187018142E+01  0.31886041847E+02  0.00000000000E+00 0.  1.
         11    1    3    3    0    0  0.16781093761E+02  0.13594631242E+02  0.10419861730E+02  0.23979003840E+02  0.51100000000E-03 0. -1.
        -11    1    3    3    0    0  0.91925944172E+01  0.13747141204E+02 -0.92770384600E+01  0.18961833410E+02  0.51100000000E-03 0.  1.
        -12    1    3    3    0    0  0.37574733277E+01 -0.15919371430E+02  0.37587854401E+00  0.16361120904E+02  0.00000000000E+00 0.  1.
</event>
<event>
 7    1  0.1324280E-011  0.5930194E+02  0.7816164E-02  0.1266605E+00
        -11   -1    0    0    0    0  0.00000000000E+00  0.00000000000E+00  0.45593999997E+02  0.45594000000E+02  0.51100000000E-03 0. -1.
         11   -1    0    0    0    0 -0.00000000000E+00 -0.00000000000E+00 -0.45593999997E+02  0.45594000000E+02  0.51100000000E-03 0.  1.
    9900012    2    1    2    0    0 -0.38043311460E+00  0.18099871731E+02  0.26248254562E+02  0.59301937942E+02  0.49999988900E+02 0.  0.
        -12    1    1    2    0    0  0.38043311460E+00 -0.18099871731E+02 -0.26248254562E+02  0.31886062058E+02  0.00000000000E+00 0.  1.
         11    1    3    3    0    0  0.59699258143E+01 -0.36517754185E+00 -0.11355935866E+02  0.12834743804E+02  0.51100000000E-03 0. -1.
        -11    1    3    3    0    0  0.39302771824E+01  0.39893177388E+01  0.87016665343E+00  0.56673560870E+01  0.51100000000E-03 0.  1.
         12    1    3    3    0    0 -0.10280636111E+02  0.14475731534E+02  0.36734023774E+02  0.40799838051E+02  0.00000000000E+00 0. -1.
</event>
<event>
 7    1  0.1324280E-011  0.5930196E+02  0.7816164E-02  0.1266605E+00
        -11   -1    0    0    0    0  0.00000000000E+00  0.00000000000E+00  0.45593999997E+02  0.45594000000E+02  0.51100000000E-03 0. -1.
         11   -1    0    0    0    0 -0.00000000000E+00 -0.00000000000E+00 -0.45593999997E+02  0.45594000000E+02  0.51100000000E-03 0.  1.
    9900012    2    1    2    0    0 -0.19981108391E+02 -0.22130797551E+01  0.24750292831E+02  0.59301962150E+02  0.50000033051E+02 0.  0.
        -12    1    1    2    0    0  0.19981108391E+02  0.22130797551E+01 -0.24750292831E+02  0.31886037850E+02  0.00000000000E+00 0.  1.
         11    1    3    3    0    0 -0.89610430297E+01 -0.16076340369E+02  0.88420152100E+01  0.20418869829E+02  0.51100000000E-03 0. -1.
        -11    1    3    3    0    0  0.99233759662E+01  0.10095298059E+02  0.73107440336E+01  0.15932213031E+02  0.51100000000E-03 0.  1.
        -12    1    3    3    0    0 -0.20943441327E+02  0.37679625554E+01  0.85975335874E+01  0.22950879291E+02  0.00000000000E+00 0.  1.
</event>
<event>
 7    1  0.1324280E-011  0.5930193E+02  0.7816164E-02  0.1266605E+00
        -11   -1    0    0    0    0  0.00000000000E+00  0.00000000000E+00  0.45593999997E+02  0.45594000000E+02  0.51100000000E-03 0.  1.
         11   -1    0    0    0    0 -0.00000000000E+00 -0.00000000000E+00 -0.45593999997E+02  0.45594000000E+02  0.51100000000E-03 0. -1.
    9900012    2    1    2    0    0 -0.25414909350E+02  0.96326291621E+01 -0.16673829159E+02  0.59301925600E+02  0.49999966392E+02 0.  0.
        -12    1    1    2    0    0  0.25414909350E+02 -0.96326291621E+01  0.16673829159E+02  0.31886074400E+02  0.00000000000E+00 0.  1.
         11    1    3    3    0    0 -0.34125758191E+01 -0.91850713287E+01 -0.25072388632E+02  0.26919061667E+02  0.51100000000E-03 0. -1.
        -11    1    3    3    0    0 -0.42945958212E+00 -0.55121212137E+00 -0.15751149655E+01  0.17231534323E+01  0.51100000000E-03 0.  1.
        -12    1    3    3    0    0 -0.21572873949E+02  0.19368912612E+02  0.99736744390E+01  0.30659710501E+02  0.00000000000E+00 0.  1.
</event>
<event>
 7    1  0.1324280E-011  0.5930194E+02  0.7816164E-02  0.1266605E+00
        -11   -1    0    0    0    0  0.00000000000E+00  0.00000000000E+00  0.45593999997E+02  0.45594000000E+02  0.51100000000E-03 0.  1.
         11   -1    0    0    0    0 -0.00000000000E+00 -0.00000000000E+00 -0.45593999997E+02  0.45594000000E+02  0.51100000000E-03 0. -1.
    9900012    2    1    2    0    0  0.27001555807E+02 -0.86228762106E+00  0.16937920336E+02  0.59301941898E+02  0.49999996117E+02 0.  0.
        -12    1    1    2    0    0 -0.27001555807E+02  0.86228762106E+00 -0.16937920336E+02  0.31886058102E+02  0.00000000000E+00 0.  1.
         11    1    3    3    0    0  0.19286075529E+01 -0.98591120872E+01 -0.64928459125E+01  0.11961549504E+02  0.51100000000E-03 0. -1.
        -11    1    3    3    0    0 -0.60534360716E+01  0.11864267937E+01 -0.19019697188E+01  0.64551673783E+01  0.51100000000E-03 0.  1.
         12    1    3    3    0    0  0.31126384326E+02  0.78103976724E+01  0.25332735967E+02  0.40885225016E+02  0.00000000000E+00 0. -1.
</event>
<event>
 7    1  0.1324280E-011  0.5930195E+02  0.7816164E-02  0.1266605E+00
        -11   -1    0    0    0    0  0.00000000000E+00  0.00000000000E+00  0.45593999997E+02  0.45594000000E+02  0.51100000000E-03 0.  1.
         11   -1    0    0    0    0 -0.00000000000E+00 -0.00000000000E+00 -0.45593999997E+02  0.45594000000E+02  0.51100000000E-03 0. -1.
    9900012    2    1    2    0    0  0.13245860794E+02 -0.67731993718E+01 -0.28202682119E+02  0.59301947617E+02  0.50000006545E+02 0.  0.
        -12    1    1    2    0    0 -0.13245860794E+02  0.67731993718E+01  0.28202682119E+02  0.31886052383E+02  0.00000000000E+00 0.  1.
         11    1    3    3    0    0  0.88806646318E+00 -0.47786451786E+01 -0.21588672516E+02  0.22129050885E+02  0.51100000000E-03 0. -1.
        -11    1    3    3    0    0 -0.37179425140E+01  0.11726978237E+02  0.47363257549E+01  0.13182484479E+02  0.51100000000E-03 0.  1.
         12    1    3    3    0    0  0.16075736845E+02 -0.13721532431E+02 -0.11350335357E+02  0.23990412253E+02  0.00000000000E+00 0. -1.
</event>
<event>
 7    1  0.1324280E-011  0.5930194E+02  0.7816164E-02  0.1266605E+00
        -11   -1    0    0    0    0  0.00000000000E+00  0.00000000000E+00  0.45593999997E+02  0.45594000000E+02  0.51100000000E-03 0.  1.
         11   -1    0    0    0    0 -0.00000000000E+00 -0.00000000000E+00 -0.45593999997E+02  0.45594000000E+02  0.51100000000E-03 0. -1.
    9900012    2    1    2    0    0 -0.23310972182E+02 -0.20007476567E+02 -0.85451736276E+01  0.59301944506E+02  0.50000000872E+02 0.  0.
        -12    1    1    2    0    0  0.23310972182E+02  0.20007476567E+02  0.85451736276E+01  0.31886055494E+02  0.00000000000E+00 0.  1.
         11    1    3    3    0    0  0.16435938962E+01 -0.18345861231E+02 -0.94985599227E+01  0.20724253089E+02  0.51100000000E-03 0. -1.
        -11    1    3    3    0    0  0.21123360347E+01  0.20023998244E+01  0.95176286799E+01  0.99527295015E+01  0.51100000000E-03 0.  1.
         12    1    3    3    0    0 -0.27066902112E+02 -0.36640151602E+01 -0.85642423849E+01  0.28624961916E+02  0.00000000000E+00 0. -1.
</event>
<event>
 7    1  0.1324280E-011  0.5930195E+02  0.7816164E-02  0.1266605E+00
        -11   -1    0    0    0    0  0.00000000000E+00  0.00000000000E+00  0.45593999997E+02  0.45594000000E+02  0.51100000000E-03 0.  1.
         11   -1    0    0    0    0 -0.00000000000E+00 -0.00000000000E+00 -0.45593999997E+02  0.45594000000E+02  0.51100000000E-03 0. -1.
    9900012    2    1    2    0    0 -0.31536759971E+02 -0.44499514199E+01 -0.15333029381E+01  0.59301947955E+02  0.50000007162E+02 0.  0.
        -12    1    1    2    0    0  0.31536759971E+02  0.44499514199E+01  0.15333029381E+01  0.31886052045E+02  0.00000000000E+00 0.  1.
         11    1    3    3    0    0 -0.33534283700E+02  0.97847268974E+01  0.76174287859E+00  0.34940940403E+02  0.51100000000E-03 0.  1.
        -11    1    3    3    0    0 -0.74928713582E+01 -0.83957624311E+01  0.35218537850E+01  0.11791327420E+02  0.51100000000E-03 0. -1.
        -12    1    3    3    0    0  0.94903950873E+01 -0.58389158862E+01 -0.58168996017E+01  0.12569680132E+02  0.00000000000E+00 0.  1.
</event>
<event>
 7    1  0.1324280E-011  0.5930203E+02  0.7816164E-02  0.1266604E+00
        -11   -1    0    0    0    0  0.00000000000E+00  0.00000000000E+00  0.45593999997E+02  0.45594000000E+02  0.51100000000E-03 0. -1.
         11   -1    0    0    0    0 -0.00000000000E+00 -0.00000000000E+00 -0.45593999997E+02  0.45594000000E+02  0.51100000000E-03 0.  1.
    9900012    2    1    2    0    0 -0.24236040590E+02 -0.32799713795E+01  0.20459014112E+02  0.59302029195E+02  0.50000155325E+02 0.  0.
        -12    1    1    2    0    0  0.24236040590E+02  0.32799713795E+01 -0.20459014112E+02  0.31885970805E+02  0.00000000000E+00 0.  1.
         11    1    3    3    0    0 -0.17491656116E+02  0.29841923800E+01  0.50681263450E+01  0.18453979050E+02  0.51100000000E-03 0. -1.
        -11    1    3    3    0    0 -0.14845767742E+01  0.11755631829E+02  0.18351397267E+02  0.21844281399E+02  0.51100000000E-03 0.  1.
         12    1    3    3    0    0 -0.52598076995E+01 -0.18019795589E+02 -0.29605095001E+01  0.19003768747E+02  0.00000000000E+00 0. -1.
</event>
<event>
 7    1  0.1324280E-011  0.5930193E+02  0.7816164E-02  0.1266605E+00
        -11   -1    0    0    0    0  0.00000000000E+00  0.00000000000E+00  0.45593999997E+02  0.45594000000E+02  0.51100000000E-03 0.  1.
         11   -1    0    0    0    0 -0.00000000000E+00 -0.00000000000E+00 -0.45593999997E+02  0.45594000000E+02  0.51100000000E-03 0. -1.
    9900012    2    1    2    0    0  0.30667712768E+02  0.70488220044E+01 -0.51504370878E+01  0.59301929369E+02  0.49999973267E+02 0.  0.
        -12    1    1    2    0    0 -0.30667712768E+02 -0.70488220044E+01  0.51504370878E+01  0.31886070631E+02  0.00000000000E+00 0.  1.
         11    1    3    3    0    0 -0.19452099802E+00 -0.11333869514E+02 -0.24616947231E+01  0.11599757659E+02  0.51100000000E-03 0. -1.
        -11    1    3    3    0    0  0.37207114264E+02  0.17773760741E+02 -0.18825141283E+01  0.41277351931E+02  0.51100000000E-03 0.  1.
         12    1    3    3    0    0 -0.63448804980E+01  0.60893077726E+00 -0.80622823632E+00  0.64248197791E+01  0.00000000000E+00 0. -1.
</event>
<event>
 7    1  0.1324280E-011  0.5930193E+02  0.7816164E-02  0.1266605E+00
        -11   -1    0    0    0    0  0.00000000000E+00  0.00000000000E+00  0.45593999997E+02  0.45594000000E+02  0.51100000000E-03 0.  1.
         11   -1    0    0    0    0 -0.00000000000E+00 -0.00000000000E+00 -0.45593999997E+02  0.45594000000E+02  0.51100000000E-03 0. -1.
    9900012    2    1    2    0    0 -0.14101289946E+02 -0.71734759476E+01 -0.27684227454E+02  0.59301928040E+02  0.49999970842E+02 0.  0.
        -12    1    1    2    0    0  0.14101289946E+02  0.71734759476E+01  0.27684227454E+02  0.31886071960E+02  0.00000000000E+00 0.  1.
         11    1    3    3    0    0 -0.51929231226E+01  0.50808397099E+01  0.19102416400E+00  0.72675906054E+01  0.51100000000E-03 0.  1.
        -11    1    3    3    0    0 -0.23157266804E+02 -0.10754285265E+02 -0.27745944572E+02  0.37706114860E+02  0.51100000000E-03 0. -1.
         12    1    3    3    0    0  0.14248899981E+02 -0.15000303922E+01 -0.12930704617E+00  0.14328222575E+02  0.00000000000E+00 0. -1.
</event>
<event>
 7    1  0.1324280E-011  0.5930198E+02  0.7816164E-02  0.1266605E+00
        -11   -1    0    0    0    0  0.00000000000E+00  0.00000000000E+00  0.45593999997E+02  0.45594000000E+02  0.51100000000E-03 0.  1.
         11   -1    0    0    0    0 -0.00000000000E+00 -0.00000000000E+00 -0.45593999997E+02  0.45594000000E+02  0.51100000000E-03 0. -1.
    9900012    2    1    2    0    0  0.69872173474E+01 -0.30530072917E+02 -0.59843042112E+01  0.59301977114E+02  0.50000060342E+02 0.  0.
        -12    1    1    2    0    0 -0.69872173474E+01  0.30530072917E+02  0.59843042112E+01  0.31886022886E+02  0.00000000000E+00 0.  1.
         11    1    3    3    0    0  0.38643046574E+01 -0.31734461288E+01 -0.14543023024E+01  0.52075528097E+01  0.51100000000E-03 0. -1.
        -11    1    3    3    0    0  0.36824215163E+01 -0.32124515524E+02  0.13792378782E+02  0.35153583581E+02  0.51100000000E-03 0.  1.
        -12    1    3    3    0    0 -0.55950882630E+00  0.47678887352E+01 -0.18322380691E+02  0.18940840723E+02  0.00000000000E+00 0.  1.
</event>
<event>
 7    1  0.1324280E-011  0.5930195E+02  0.7816164E-02  0.1266605E+00
        -11   -1    0    0    0    0  0.00000000000E+00  0.00000000000E+00  0.45593999997E+02  0.45594000000E+02  0.51100000000E-03 0.  1.
         11   -1    0    0    0    0 -0.00000000000E+00 -0.00000000000E+00 -0.45593999997E+02  0.45594000000E+02  0.51100000000E-03 0. -1.
    9900012    2    1    2    0    0 -0.17177116863E+02 -0.74645886893E+01 -0.25805941777E+02  0.59301951969E+02  0.50000014483E+02 0.  0.
        -12    1    1    2    0    0  0.17177116863E+02  0.74645886893E+01  0.25805941777E+02  0.31886048031E+02  0.00000000000E+00 0.  1.
         11    1    3    3    0    0 -0.84873338440E+00  0.97564003677E+00 -0.25363603697E+01  0.28469889401E+01  0.51100000000E-03 0. -1.
        -11    1    3    3    0    0  0.37907159777E+01  0.14404380566E+02 -0.21245671706E+02  0.25946758442E+02  0.51100000000E-03 0.  1.
         12    1    3    3    0    0 -0.20119099456E+02 -0.22844609292E+02 -0.20239097011E+01  0.30508204587E+02  0.00000000000E+00 0. -1.
</event>
<event>
 7    1  0.1324280E-011  0.5930187E+02  0.7816164E-02  0.1266605E+00
        -11   -1    0    0    0    0  0.00000000000E+00  0.00000000000E+00  0.45593999997E+02  0.45594000000E+02  0.51100000000E-03 0. -1.
         11   -1    0    0    0    0 -0.00000000000E+00 -0.00000000000E+00 -0.45593999997E+02  0.45594000000E+02  0.51100000000E-03 0.  1.
    9900012    2    1    2    0    0 -0.21359054850E+02 -0.14570242028E+02  0.18660772208E+02  0.59301865141E+02  0.49999856129E+02 0.  0.
        -12    1    1    2    0    0  0.21359054850E+02  0.14570242028E+02 -0.18660772208E+02  0.31886134859E+02  0.00000000000E+00 0.  1.
         11    1    3    3    0    0  0.16040675923E+01 -0.11624287695E+02  0.20144069484E+02  0.23312671080E+02  0.51100000000E-03 0. -1.
        -11    1    3    3    0    0  0.51606112939E+01 -0.46893238227E+01 -0.33775632425E+01  0.77478771647E+01  0.51100000000E-03 0.  1.
        -12    1    3    3    0    0 -0.28123733736E+02  0.17433694901E+01  0.18942659671E+01  0.28241316896E+02  0.00000000000E+00 0.  1.
</event>
<event>
 7    1  0.1324280E-011  0.5930194E+02  0.7816164E-02  0.1266605E+00
        -11   -1    0    0    0    0  0.00000000000E+00  0.00000000000E+00  0.45593999997E+02  0.45594000000E+02  0.51100000000E-03 0. -1.
         11   -1    0    0    0    0 -0.00000000000E+00 -0.00000000000E+00 -0.45593999997E+02  0.45594000000E+02  0.51100000000E-03 0.  1.
    9900012    2    1    2    0    0  0.14180464844E+02 -0.72027268181E+01  0.27636132612E+02  0.59301942192E+02  0.49999996653E+02 0.  0.
        -12    1    1    2    0    0 -0.14180464844E+02  0.72027268181E+01 -0.27636132612E+02  0.31886057808E+02  0.00000000000E+00 0.  1.
         11    1    3    3    0    0  0.16759623624E+02 -0.64418971199E+01  0.35714963969E+02  0.39974262646E+02  0.51100000000E-03 0. -1.
        -11    1    3    3    0    0  0.63779045435E+01 -0.36172816103E+01 -0.67963156381E+00  0.73637145475E+01  0.51100000000E-03 0.  1.
         12    1    3    3    0    0 -0.89570633238E+01  0.28564519122E+01 -0.73991997934E+01  0.11963964999E+02  0.00000000000E+00 0. -1.
</event>
<event>
 7    1  0.1324280E-011  0.5930195E+02  0.7816164E-02  0.1266605E+00
        -11   -1    0    0    0    0  0.00000000000E+00  0.00000000000E+00  0.45593999997E+02  0.45594000000E+02  0.51100000000E-03 0. -1.
         11   -1    0    0    0    0 -0.00000000000E+00 -0.00000000000E+00 -0.45593999997E+02  0.45594000000E+02  0.51100000000E-03 0.  1.
    9900012    2    1    2    0    0 -0.85656245621E+01 -0.12149346201E+02  0.28208930103E+02  0.59301948586E+02  0.50000008313E+02 0.  0.
        -12    1    1    2    0    0  0.85656245621E+01  0.12149346201E+02 -0.28208930103E+02  0.31886051414E+02  0.00000000000E+00 0.  1.
         11    1    3    3    0    0  0.25000360534E+01  0.10882831220E+02  0.17991739366E+02  0.21175194953E+02  0.51100000000E-03 0. -1.
        -11    1    3    3    0    0 -0.66076736666E+01  0.47860163993E+01  0.47087151263E+01  0.94201540678E+01  0.51100000000E-03 0.  1.
         12    1    3    3    0    0 -0.44579869490E+01 -0.27818193820E+02  0.55084756099E+01  0.28706599565E+02  0.00000000000E+00 0. -1.
</event>
<event>
 7    1  0.1324280E-011  0.5930196E+02  0.7816164E-02  0.1266605E+00
        -11   -1    0    0    0    0  0.00000000000E+00  0.00000000000E+00  0.45593999997E+02  0.45594000000E+02  0.51100000000E-03 0.  1.
         11   -1    0    0    0    0 -0.00000000000E+00 -0.00000000000E+00 -0.45593999997E+02  0.45594000000E+02  0.51100000000E-03 0. -1.
    9900012    2    1    2    0    0  0.28038978458E+02 -0.29009026772E+01 -0.14903694396E+02  0.59301958290E+02  0.50000026011E+02 0.  0.
        -12    1    1    2    0    0 -0.28038978458E+02  0.29009026772E+01  0.14903694396E+02  0.31886041710E+02  0.00000000000E+00 0.  1.
         11    1    3    3    0    0 -0.22731363613E+01  0.37869845344E+01  0.38299152722E+01  0.58460800571E+01  0.51100000000E-03 0.  1.
        -11    1    3    3    0    0  0.21386043897E+02 -0.18934148481E+02  0.99286650382E+00  0.28580598951E+02  0.51100000000E-03 0. -1.
         12    1    3    3    0    0  0.89260709222E+01  0.12246261269E+02 -0.19726476172E+02  0.24875279282E+02  0.00000000000E+00 0. -1.
</event>
<event>
 7    1  0.1324280E-011  0.5930197E+02  0.7816164E-02  0.1266605E+00
        -11   -1    0    0    0    0  0.00000000000E+00  0.00000000000E+00  0.45593999997E+02  0.45594000000E+02  0.51100000000E-03 0. -1.
         11   -1    0    0    0    0 -0.00000000000E+00 -0.00000000000E+00 -0.45593999997E+02  0.45594000000E+02  0.51100000000E-03 0.  1.
    9900012    2    1    2    0    0  0.29004560254E+00  0.20315881290E+02  0.24574368849E+02  0.59301972286E+02  0.50000051537E+02 0.  0.
        -12    1    1    2    0    0 -0.29004560254E+00 -0.20315881290E+02 -0.24574368849E+02  0.31886027714E+02  0.00000000000E+00 0.  1.
         11    1    3    3    0    0  0.10180665346E+02  0.17148876581E+02  0.95730007699E+01  0.22121759851E+02  0.51100000000E-03 0. -1.
        -11    1    3    3    0    0 -0.14766835908E+02  0.62783726979E+01  0.22546194385E+02  0.27673241371E+02  0.51100000000E-03 0.  1.
        -12    1    3    3    0    0  0.48762161642E+01 -0.31113679890E+01 -0.75448263057E+01  0.95069710648E+01  0.00000000000E+00 0.  1.
</event>
<event>
 7    1  0.1324280E-011  0.5930190E+02  0.7816164E-02  0.1266605E+00
        -11   -1    0    0    0    0  0.00000000000E+00  0.00000000000E+00  0.45593999997E+02  0.45594000000E+02  0.51100000000E-03 0. -1.
         11   -1    0    0    0    0 -0.00000000000E+00 -0.00000000000E+00 -0.45593999997E+02  0.45594000000E+02  0.51100000000E-03 0.  1.
    9900012    2    1    2    0    0 -0.11899674778E+02 -0.12700361738E+02 -0.26717441882E+02  0.59301903519E+02  0.49999926121E+02 0.  0.
        -12    1    1    2    0    0  0.11899674778E+02  0.12700361738E+02  0.26717441882E+02  0.31886096481E+02  0.00000000000E+00 0.  1.
         11    1    3    3    0    0 -0.11119201138E+02 -0.15520171324E+02 -0.12074319465E+02  0.22589854862E+02  0.51100000000E-03 0. -1.
        -11    1    3    3    0    0  0.47203268385E+01 -0.14284112440E+02 -0.10287268944E+02  0.18224852708E+02  0.51100000000E-03 0.  1.
        -12    1    3    3    0    0 -0.55008004779E+01  0.17103922026E+02 -0.43558534735E+01  0.18487195949E+02  0.00000000000E+00 0.  1.
</event>
<event>
 7    1  0.1324280E-011  0.5930192E+02  0.7816164E-02  0.1266605E+00
        -11   -1    0    0    0    0  0.00000000000E+00  0.00000000000E+00  0.45593999997E+02  0.45594000000E+02  0.51100000000E-03 0.  1.
         11   -1    0    0    0    0 -0.00000000000E+00 -0.00000000000E+00 -0.45593999997E+02  0.45594000000E+02  0.51100000000E-03 0. -1.
    9900012    2    1    2    0    0  0.29589869343E+02 -0.81107801922E+01  0.86819812902E+01  0.59301922753E+02  0.49999961201E+02 0.  0.
        -12    1    1    2    0    0 -0.29589869343E+02  0.81107801922E+01 -0.86819812902E+01  0.31886077247E+02  0.00000000000E+00 0.  1.
         11    1    3    3    0    0  0.22711409931E+02 -0.11100743305E+02 -0.10005254241E+01  0.25298926743E+02  0.51100000000E-03 0. -1.
        -11    1    3    3    0    0  0.17168334975E+02  0.10210558515E+02  0.50264920586E+01  0.20597884689E+02  0.51100000000E-03 0.  1.
         12    1    3    3    0    0 -0.10289875563E+02 -0.72205954026E+01  0.46560146557E+01  0.13405111321E+02  0.00000000000E+00 0. -1.
</event>
<event>
 7    1  0.1324280E-011  0.5930195E+02  0.7816164E-02  0.1266605E+00
        -11   -1    0    0    0    0  0.00000000000E+00  0.00000000000E+00  0.45593999997E+02  0.45594000000E+02  0.51100000000E-03 0.  1.
         11   -1    0    0    0    0 -0.00000000000E+00 -0.00000000000E+00 -0.45593999997E+02  0.45594000000E+02  0.51100000000E-03 0. -1.
    9900012    2    1    2    0    0  0.28878313747E+02 -0.22601497416E+01 -0.13328730203E+02  0.59301947711E+02  0.50000006718E+02 0.  0.
        -12    1    1    2    0    0 -0.28878313747E+02  0.22601497416E+01  0.13328730203E+02  0.31886052289E+02  0.00000000000E+00 0.  1.
         11    1    3    3    0    0  0.25052156479E+02  0.41961873868E+01 -0.99621744491E+01  0.27284857575E+02  0.51100000000E-03 0. -1.
        -11    1    3    3    0    0  0.76619807572E+00  0.10417065377E+02 -0.91840275771E+01  0.13908582722E+02  0.51100000000E-03 0.  1.
        -12    1    3    3    0    0  0.30599591921E+01 -0.16873402505E+02  0.58174718236E+01  0.18108507414E+02  0.00000000000E+00 0.  1.
</event>
<event>
 7    1  0.1324280E-011  0.5930194E+02  0.7816164E-02  0.1266605E+00
        -11   -1    0    0    0    0  0.00000000000E+00  0.00000000000E+00  0.45593999997E+02  0.45594000000E+02  0.51100000000E-03 0.  1.
         11   -1    0    0    0    0 -0.00000000000E+00 -0.00000000000E+00 -0.45593999997E+02  0.45594000000E+02  0.51100000000E-03 0. -1.
    9900012    2    1    2    0    0 -0.18581861232E+02 -0.23356777693E+02 -0.11220351572E+02  0.59301938461E+02  0.49999989848E+02 0.  0.
        -12    1    1    2    0    0  0.18581861232E+02  0.23356777693E+02  0.11220351572E+02  0.31886061539E+02  0.00000000000E+00 0.  1.
         11    1    3    3    0    0 -0.59458904439E+01 -0.15665768033E+02 -0.29921805127E+02  0.34294085839E+02  0.51100000000E-03 0. -1.
        -11    1    3    3    0    0 -0.30668231185E+01  0.11485096591E+01  0.58749589602E+01  0.67260405532E+01  0.51100000000E-03 0.  1.
        -12    1    3    3    0    0 -0.95691476698E+01 -0.88395193190E+01  0.12826494595E+02  0.18281812069E+02  0.00000000000E+00 0.  1.
</event>
<event>
 7    1  0.1324280E-011  0.5930193E+02  0.7816164E-02  0.1266605E+00
        -11   -1    0    0    0    0  0.00000000000E+00  0.00000000000E+00  0.45593999997E+02  0.45594000000E+02  0.51100000000E-03 0. -1.
         11   -1    0    0    0    0 -0.00000000000E+00 -0.00000000000E+00 -0.45593999997E+02  0.45594000000E+02  0.51100000000E-03 0.  1.
    9900012    2    1    2    0    0  0.16828972040E+02 -0.21086915209E+00  0.27082511400E+02  0.59301934243E+02  0.49999982155E+02 0.  0.
        -12    1    1    2    0    0 -0.16828972040E+02  0.21086915209E+00 -0.27082511400E+02  0.31886065757E+02  0.00000000000E+00 0.  1.
         11    1    3    3    0    0 -0.75317012449E+01  0.34811993152E+01 -0.32540299858E+01  0.89125744722E+01  0.51100000000E-03 0. -1.
        -11    1    3    3    0    0 -0.14244422774E+01 -0.12584800491E+02  0.68703831178E+01  0.14408622545E+02  0.51100000000E-03 0.  1.
         12    1    3    3    0    0  0.25785115563E+02  0.88927320239E+01  0.23466158268E+02  0.35980737225E+02  0.00000000000E+00 0. -1.
</event>
<event>
 7    1  0.1324280E-011  0.5930194E+02  0.7816164E-02  0.1266605E+00
        -11   -1    0    0    0    0  0.00000000000E+00  0.00000000000E+00  0.45593999997E+02  0.45594000000E+02  0.51100000000E-03 0.  1.
         11   -1    0    0    0    0 -0.00000000000E+00 -0.00000000000E+00 -0.45593999997E+02  0.45594000000E+02  0.51100000000E-03 0. -1.
    9900012    2    1    2    0    0  0.25008985059E+02  0.18052754530E+02 -0.80851288475E+01  0.59301943670E+02  0.49999999348E+02 0.  0.
        -12    1    1    2    0    0 -0.25008985059E+02 -0.18052754530E+02  0.80851288475E+01  0.31886056330E+02  0.00000000000E+00 0.  1.
         11    1    3    3    0    0 -0.41776255246E+01  0.19855290058E+02 -0.96679753194E+00  0.20313044972E+02  0.51100000000E-03 0. -1.
        -11    1    3    3    0    0  0.13349222255E+02  0.28751850395E+01  0.86430147194E+01  0.16160758878E+02  0.51100000000E-03 0.  1.
        -12    1    3    3    0    0  0.15837388328E+02 -0.46777205675E+01 -0.15761346035E+02  0.22828139819E+02  0.00000000000E+00 0.  1.
</event>
<event>
 7    1  0.1324280E-011  0.5930190E+02  0.7816164E-02  0.1266605E+00
        -11   -1    0    0    0    0  0.00000000000E+00  0.00000000000E+00  0.45593999997E+02  0.45594000000E+02  0.51100000000E-03 0.  1.
         11   -1    0    0    0    0 -0.00000000000E+00 -0.00000000000E+00 -0.45593999997E+02  0.45594000000E+02  0.51100000000E-03 0. -1.
    9900012    2    1    2    0    0 -0.14826612521E+02  0.23468182492E+02 -0.15688820968E+02  0.59301903786E+02  0.49999926610E+02 0.  0.
        -12    1    1    2    0    0  0.14826612521E+02 -0.23468182492E+02  0.15688820968E+02  0.31886096214E+02  0.00000000000E+00 0.  1.
         11    1    3    3    0    0 -0.23873522095E+01  0.20300016945E+02  0.45236509038E+01  0.20934506354E+02  0.51100000000E-03 0. -1.
        -11    1    3    3    0    0 -0.15865725148E+02  0.59288723928E+01  0.74428860079E+00  0.16953664150E+02  0.51100000000E-03 0.  1.
         12    1    3    3    0    0  0.34264648365E+01 -0.27607068449E+01 -0.20956760473E+02  0.21413733282E+02  0.00000000000E+00 0. -1.
</event>
<event>
 7    1  0.1324280E-011  0.5930195E+02  0.7816164E-02  0.1266605E+00
        -11   -1    0    0    0    0  0.00000000000E+00  0.00000000000E+00  0.45593999997E+02  0.45594000000E+02  0.51100000000E-03 0. -1.
         11   -1    0    0    0    0 -0.00000000000E+00 -0.00000000000E+00 -0.45593999997E+02  0.45594000000E+02  0.51100000000E-03 0.  1.
    9900012    2    1    2    0    0  0.27112207641E+02  0.88016329219E+01  0.14289148749E+02  0.59301947920E+02  0.50000007099E+02 0.  0.
        -12    1    1    2    0    0 -0.27112207641E+02 -0.88016329219E+01 -0.14289148749E+02  0.31886052080E+02  0.00000000000E+00 0.  1.
         11    1    3    3    0    0  0.14317923389E+02  0.10662654959E+02 -0.11240196355E+02  0.21095903757E+02  0.51100000000E-03 0. -1.
        -11    1    3    3    0    0  0.32203028953E+01  0.49148250009E+01 -0.35398257897E+01  0.68597538155E+01  0.51100000000E-03 0.  1.
        -12    1    3    3    0    0  0.95739813566E+01 -0.67758470379E+01  0.29069170894E+02  0.31346290348E+02  0.00000000000E+00 0.  1.
</event>
<event>
 7    1  0.1324280E-011  0.5930191E+02  0.7816164E-02  0.1266605E+00
        -11   -1    0    0    0    0  0.00000000000E+00  0.00000000000E+00  0.45593999997E+02  0.45594000000E+02  0.51100000000E-03 0. -1.
         11   -1    0    0    0    0 -0.00000000000E+00 -0.00000000000E+00 -0.45593999997E+02  0.45594000000E+02  0.51100000000E-03 0.  1.
    9900012    2    1    2    0    0 -0.10296686074E+02 -0.14102376421E+02  0.26680026147E+02  0.59301912751E+02  0.49999942959E+02 0.  0.
        -12    1    1    2    0    0  0.10296686074E+02  0.14102376421E+02 -0.26680026147E+02  0.31886087249E+02  0.00000000000E+00 0.  1.
         11    1    3    3    0    0  0.78256749703E+01  0.18123003618E+01  0.77027058449E+01  0.11129119414E+02  0.51100000000E-03 0. -1.
        -11    1    3    3    0    0 -0.47960643192E+00  0.11429089982E+01 -0.10070469708E+02  0.10146458679E+02  0.51100000000E-03 0.  1.
         12    1    3    3    0    0 -0.17642754613E+02 -0.17057585781E+02  0.29047790011E+02  0.38026334658E+02  0.00000000000E+00 0. -1.
</event>
<event>
 7    1  0.1324280E-011  0.5930194E+02  0.7816164E-02  0.1266605E+00
        -11   -1    0    0    0    0  0.00000000000E+00  0.00000000000E+00  0.45593999997E+02  0.45594000000E+02  0.51100000000E-03 0.  1.
         11   -1    0    0    0    0 -0.00000000000E+00 -0.00000000000E+00 -0.45593999997E+02  0.45594000000E+02  0.51100000000E-03 0. -1.
    9900012    2    1    2    0    0 -0.13565080052E+02  0.10225120091E+02 -0.26984368186E+02  0.59301943422E+02  0.49999998895E+02 0.  0.
        -12    1    1    2    0    0  0.13565080052E+02 -0.10225120091E+02  0.26984368186E+02  0.31886056578E+02  0.00000000000E+00 0.  1.
         11    1    3    3    0    0 -0.91484591324E+01 -0.70294556923E+01  0.61195141039E+01  0.13059709222E+02  0.51100000000E-03 0. -1.
        -11    1    3    3    0    0  0.52793639628E+01 -0.10910987644E-01  0.22355294086E+01  0.57331836618E+01  0.51100000000E-03 0.  1.
        -12    1    3    3    0    0 -0.96959848825E+01  0.17265486771E+02 -0.35339411699E+02  0.40509050538E+02  0.00000000000E+00 0.  1.
</event>
<event>
 7    1  0.1324280E-011  0.5930195E+02  0.7816164E-02  0.1266605E+00
        -11   -1    0    0    0    0  0.00000000000E+00  0.00000000000E+00  0.45593999997E+02  0.45594000000E+02  0.51100000000E-03 0.  1.
         11   -1    0    0    0    0 -0.00000000000E+00 -0.00000000000E+00 -0.45593999997E+02  0.45594000000E+02  0.51100000000E-03 0. -1.
    9900012    2    1    2    0    0  0.59733549562E+01  0.31313321106E+02  0.71753652240E+00  0.59301954356E+02  0.50000018837E+02 0.  0.
        -12    1    1    2    0    0 -0.59733549562E+01 -0.31313321106E+02 -0.71753652240E+00  0.31886045644E+02  0.00000000000E+00 0.  1.
         11    1    3    3    0    0  0.11762207556E+02  0.29605303800E+02 -0.21153721072E+01  0.31926452028E+02  0.51100000000E-03 0. -1.
        -11    1    3    3    0    0 -0.32540192171E+01  0.48878337896E+01 -0.11264612719E+02  0.12703190945E+02  0.51100000000E-03 0.  1.
        -12    1    3    3    0    0 -0.25348333830E+01 -0.31798164833E+01  0.14097521349E+02  0.14672311383E+02  0.00000000000E+00 0.  1.
</event>
<event>
 7    1  0.1324280E-011  0.5930191E+02  0.7816164E-02  0.1266605E+00
        -11   -1    0    0    0    0  0.00000000000E+00  0.00000000000E+00  0.45593999997E+02  0.45594000000E+02  0.51100000000E-03 0. -1.
         11   -1    0    0    0    0 -0.00000000000E+00 -0.00000000000E+00 -0.45593999997E+02  0.45594000000E+02  0.51100000000E-03 0.  1.
    9900012    2    1    2    0    0 -0.28015384258E+02 -0.15223747920E+02 -0.31374582354E+00  0.59301910677E+02  0.49999939177E+02 0.  0.
        -12    1    1    2    0    0  0.28015384258E+02  0.15223747920E+02  0.31374582354E+00  0.31886089323E+02  0.00000000000E+00 0.  1.
         11    1    3    3    0    0 -0.16743788694E+02 -0.94773792820E+01 -0.12121967508E+02  0.22740212717E+02  0.51100000000E-03 0. -1.
        -11    1    3    3    0    0  0.50963026206E+01 -0.13982632280E+02  0.10456495860E+02  0.18188584656E+02  0.51100000000E-03 0.  1.
         12    1    3    3    0    0 -0.16367898185E+02  0.82362636421E+01  0.13517258243E+01  0.18373113304E+02  0.00000000000E+00 0. -1.
</event>
<event>
 7    1  0.1324280E-011  0.5930193E+02  0.7816164E-02  0.1266605E+00
        -11   -1    0    0    0    0  0.00000000000E+00  0.00000000000E+00  0.45593999997E+02  0.45594000000E+02  0.51100000000E-03 0. -1.
         11   -1    0    0    0    0 -0.00000000000E+00 -0.00000000000E+00 -0.45593999997E+02  0.45594000000E+02  0.51100000000E-03 0.  1.
    9900012    2    1    2    0    0  0.11391465121E+02  0.29158054994E+02  0.60632961183E+01  0.59301933945E+02  0.49999981612E+02 0.  0.
        -12    1    1    2    0    0 -0.11391465121E+02 -0.29158054994E+02 -0.60632961183E+01  0.31886066055E+02  0.00000000000E+00 0.  1.
         11    1    3    3    0    0  0.12404083951E+02  0.24238156498E+02  0.82250604116E+01  0.28442945490E+02  0.51100000000E-03 0. -1.
        -11    1    3    3    0    0 -0.68580487996E+01  0.19838314456E+01  0.12729226282E+02  0.14594575107E+02  0.51100000000E-03 0.  1.
         12    1    3    3    0    0  0.58454299697E+01  0.29360670499E+01 -0.14890990576E+02  0.16264413349E+02  0.00000000000E+00 0. -1.
</event>
<event>
 7    1  0.1324280E-011  0.5930194E+02  0.7816164E-02  0.1266605E+00
        -11   -1    0    0    0    0  0.00000000000E+00  0.00000000000E+00  0.45593999997E+02  0.45594000000E+02  0.51100000000E-03 0.  1.
         11   -1    0    0    0    0 -0.00000000000E+00 -0.00000000000E+00 -0.45593999997E+02  0.45594000000E+02  0.51100000000E-03 0. -1.
    9900012    2    1    2    0    0  0.12227885233E+02 -0.29406010207E+02 -0.15767364260E+01  0.59301941741E+02  0.49999995829E+02 0.  0.
        -12    1    1    2    0    0 -0.12227885233E+02  0.29406010207E+02  0.15767364260E+01  0.31886058259E+02  0.00000000000E+00 0.  1.
         11    1    3    3    0    0 -0.21919267804E+01  0.56152527262E+01  0.64272885776E+01  0.88116766231E+01  0.51100000000E-03 0.  1.
        -11    1    3    3    0    0  0.61346185948E+01 -0.13958361109E+02  0.12678725559E+02  0.19829762283E+02  0.51100000000E-03 0. -1.
         12    1    3    3    0    0  0.82851934184E+01 -0.21062901824E+02 -0.20682750562E+02  0.30660502834E+02  0.00000000000E+00 0. -1.
</event>
<event>
 7    1  0.1324280E-011  0.5930195E+02  0.7816164E-02  0.1266605E+00
        -11   -1    0    0    0    0  0.00000000000E+00  0.00000000000E+00  0.45593999997E+02  0.45594000000E+02  0.51100000000E-03 0. -1.
         11   -1    0    0    0    0 -0.00000000000E+00 -0.00000000000E+00 -0.45593999997E+02  0.45594000000E+02  0.51100000000E-03 0.  1.
    9900012    2    1    2    0    0 -0.12828058113E+02 -0.27496546206E+02 -0.98031034091E+01  0.59301953449E+02  0.50000017182E+02 0.  0.
        -12    1    1    2    0    0  0.12828058113E+02  0.27496546206E+02  0.98031034091E+01  0.31886046551E+02  0.00000000000E+00 0.  1.
         11    1    3    3    0    0 -0.60129264440E+01 -0.42620333245E+01 -0.40815562149E+01  0.84249221881E+01  0.51100000000E-03 0. -1.
        -11    1    3    3    0    0 -0.69942127015E+00 -0.17477763772E+01 -0.22724566679E+02  0.22802408719E+02  0.51100000000E-03 0.  1.
         12    1    3    3    0    0 -0.61157103986E+01 -0.21486736504E+02  0.17003019485E+02  0.28074622542E+02  0.00000000000E+00 0. -1.
</event>
<event>
 7    1  0.1324280E-011  0.5930190E+02  0.7816164E-02  0.1266605E+00
        -11   -1    0    0    0    0  0.00000000000E+00  0.00000000000E+00  0.45593999997E+02  0.45594000000E+02  0.51100000000E-03 0.  1.
         11   -1    0    0    0    0 -0.00000000000E+00 -0.00000000000E+00 -0.45593999997E+02  0.45594000000E+02  0.51100000000E-03 0. -1.
    9900012    2    1    2    0    0 -0.30717214045E+02 -0.44803709664E+00 -0.85425716180E+01  0.59301897921E+02  0.49999915913E+02 0.  0.
        -12    1    1    2    0    0  0.30717214045E+02  0.44803709664E+00  0.85425716180E+01  0.31886102079E+02  0.00000000000E+00 0.  1.
         11    1    3    3    0    0  0.55933067628E+01  0.12605628747E+02  0.79285488310E-01  0.13791056635E+02  0.51100000000E-03 0. -1.
        -11    1    3    3    0    0 -0.44673144549E+01 -0.94772558733E-02  0.65295914460E+01  0.79115455488E+01  0.51100000000E-03 0.  1.
         12    1    3    3    0    0 -0.31843206353E+02 -0.13044188588E+02 -0.15151448552E+02  0.37599295738E+02  0.00000000000E+00 0. -1.
</event>
<event>
 7    1  0.1324280E-011  0.5930196E+02  0.7816164E-02  0.1266605E+00
        -11   -1    0    0    0    0  0.00000000000E+00  0.00000000000E+00  0.45593999997E+02  0.45594000000E+02  0.51100000000E-03 0. -1.
         11   -1    0    0    0    0 -0.00000000000E+00 -0.00000000000E+00 -0.45593999997E+02  0.45594000000E+02  0.51100000000E-03 0.  1.
    9900012    2    1    2    0    0  0.94290057574E+01 -0.30458810395E+02  0.27228856748E+00  0.59301961968E+02  0.50000032720E+02 0.  0.
        -12    1    1    2    0    0 -0.94290057574E+01  0.30458810395E+02 -0.27228856748E+00  0.31886038032E+02  0.00000000000E+00 0.  1.
         11    1    3    3    0    0  0.15245176330E+02 -0.25657010775E+02  0.17229913090E+01  0.29894251999E+02  0.51100000000E-03 0. -1.
        -11    1    3    3    0    0 -0.12571339853E+02 -0.12139738289E+02 -0.59565787663E+01  0.18463278753E+02  0.51100000000E-03 0.  1.
        -12    1    3    3    0    0  0.67551692805E+01  0.73379386687E+01  0.45058760247E+01  0.10944431217E+02  0.00000000000E+00 0.  1.
</event>
<event>
 7    1  0.1324280E-011  0.5930194E+02  0.7816164E-02  0.1266605E+00
        -11   -1    0    0    0    0  0.00000000000E+00  0.00000000000E+00  0.45593999997E+02  0.45594000000E+02  0.51100000000E-03 0. -1.
         11   -1    0    0    0    0 -0.00000000000E+00 -0.00000000000E+00 -0.45593999997E+02  0.45594000000E+02  0.51100000000E-03 0.  1.
    9900012    2    1    2    0    0 -0.28828764094E+02  0.20098867870E+01  0.13475296515E+02  0.59301938778E+02  0.49999990426E+02 0.  0.
        -12    1    1    2    0    0  0.28828764094E+02 -0.20098867870E+01 -0.13475296515E+02  0.31886061222E+02  0.00000000000E+00 0.  1.
         11    1    3    3    0    0 -0.33644742717E+00  0.10675034278E+02  0.21163310568E+02  0.23705595714E+02  0.51100000000E-03 0. -1.
        -11    1    3    3    0    0 -0.27806981246E+01  0.35596761326E+01  0.27326412238E+01  0.52792901557E+01  0.51100000000E-03 0.  1.
        -12    1    3    3    0    0 -0.25711618542E+02 -0.12224823623E+02 -0.10420655277E+02  0.30317052908E+02  0.00000000000E+00 0.  1.
</event>
<event>
 7    1  0.1324280E-011  0.5930193E+02  0.7816164E-02  0.1266605E+00
        -11   -1    0    0    0    0  0.00000000000E+00  0.00000000000E+00  0.45593999997E+02  0.45594000000E+02  0.51100000000E-03 0.  1.
         11   -1    0    0    0    0 -0.00000000000E+00 -0.00000000000E+00 -0.45593999997E+02  0.45594000000E+02  0.51100000000E-03 0. -1.
    9900012    2    1    2    0    0 -0.27694529757E+02  0.15867615573E+01 -0.15723120269E+02  0.59301932483E+02  0.49999978946E+02 0.  0.
        -12    1    1    2    0    0  0.27694529757E+02 -0.15867615573E+01  0.15723120269E+02  0.31886067517E+02  0.00000000000E+00 0.  1.
         11    1    3    3    0    0 -0.15752005596E+02 -0.19722491328E+02  0.22761595345E+01  0.25343307735E+02  0.51100000000E-03 0. -1.
        -11    1    3    3    0    0 -0.33603779719E+01  0.28672317887E+01  0.25034412833E+01  0.50774380119E+01  0.51100000000E-03 0.  1.
        -12    1    3    3    0    0 -0.85821461890E+01  0.18442021096E+02 -0.20502721087E+02  0.28881186736E+02  0.00000000000E+00 0.  1.
</event>
<event>
 7    1  0.1324280E-011  0.5930197E+02  0.7816164E-02  0.1266605E+00
        -11   -1    0    0    0    0  0.00000000000E+00  0.00000000000E+00  0.45593999997E+02  0.45594000000E+02  0.51100000000E-03 0.  1.
         11   -1    0    0    0    0 -0.00000000000E+00 -0.00000000000E+00 -0.45593999997E+02  0.45594000000E+02  0.51100000000E-03 0. -1.
    9900012    2    1    2    0    0 -0.41310803474E+01  0.26764801669E+01 -0.31503803953E+02  0.59301968035E+02  0.50000043784E+02 0.  0.
        -12    1    1    2    0    0  0.41310803474E+01 -0.26764801669E+01  0.31503803953E+02  0.31886031965E+02  0.00000000000E+00 0.  1.
         11    1    3    3    0    0  0.40228258494E+01  0.22782749159E+01 -0.67117299404E+01  0.81499069602E+01  0.51100000000E-03 0. -1.
        -11    1    3    3    0    0 -0.16054195619E+02  0.21447390080E+01 -0.34739392163E+02  0.38329655236E+02  0.51100000000E-03 0.  1.
        -12    1    3    3    0    0  0.79002894224E+01 -0.17465337570E+01  0.99473181500E+01  0.12822405839E+02  0.00000000000E+00 0.  1.
</event>
<event>
 7    1  0.1324280E-011  0.5930194E+02  0.7816164E-02  0.1266605E+00
        -11   -1    0    0    0    0  0.00000000000E+00  0.00000000000E+00  0.45593999997E+02  0.45594000000E+02  0.51100000000E-03 0.  1.
         11   -1    0    0    0    0 -0.00000000000E+00 -0.00000000000E+00 -0.45593999997E+02  0.45594000000E+02  0.51100000000E-03 0. -1.
    9900012    2    1    2    0    0  0.78018173519E+01 -0.15991459973E+02 -0.26459889711E+02  0.59301938632E+02  0.49999990159E+02 0.  0.
        -12    1    1    2    0    0 -0.78018173519E+01  0.15991459973E+02  0.26459889711E+02  0.31886061368E+02  0.00000000000E+00 0.  1.
         11    1    3    3    0    0  0.68495607878E+01 -0.25229598293E+02 -0.19378725663E+02  0.32542036223E+02  0.51100000000E-03 0. -1.
        -11    1    3    3    0    0  0.80860734425E+01 -0.45085038798E+01 -0.64050235374E+01  0.11257687050E+02  0.51100000000E-03 0.  1.
        -12    1    3    3    0    0 -0.71338168784E+01  0.13746642199E+02 -0.67614051080E+00  0.15502215358E+02  0.00000000000E+00 0.  1.
</event>
<event>
 7    1  0.1324280E-011  0.5930194E+02  0.7816164E-02  0.1266605E+00
        -11   -1    0    0    0    0  0.00000000000E+00  0.00000000000E+00  0.45593999997E+02  0.45594000000E+02  0.51100000000E-03 0. -1.
         11   -1    0    0    0    0 -0.00000000000E+00 -0.00000000000E+00 -0.45593999997E+02  0.45594000000E+02  0.51100000000E-03 0.  1.
    9900012    2    1    2    0    0 -0.25560773612E+02  0.80282781227E+00  0.19045288114E+02  0.59301942240E+02  0.49999996739E+02 0.  0.
        -12    1    1    2    0    0  0.25560773612E+02 -0.80282781227E+00 -0.19045288114E+02  0.31886057760E+02  0.00000000000E+00 0.  1.
         11    1    3    3    0    0  0.81413277266E+01  0.83270587762E+00  0.70082177023E+01  0.10774494506E+02  0.51100000000E-03 0. -1.
        -11    1    3    3    0    0 -0.30691028143E+01  0.10340807265E+02  0.12068686386E+02  0.16186564748E+02  0.51100000000E-03 0.  1.
        -12    1    3    3    0    0 -0.30632998524E+02 -0.10370685330E+02 -0.31615974551E-01  0.32340882987E+02  0.00000000000E+00 0.  1.
</event>
<event>
 7    1  0.1324280E-011  0.5930193E+02  0.7816164E-02  0.1266605E+00
        -11   -1    0    0    0    0  0.00000000000E+00  0.00000000000E+00  0.45593999997E+02  0.45594000000E+02  0.51100000000E-03 0. -1.
         11   -1    0    0    0    0 -0.00000000000E+00 -0.00000000000E+00 -0.45593999997E+02  0.45594000000E+02  0.51100000000E-03 0.  1.
    9900012    2    1    2    0    0 -0.31604476736E+02  0.16447591193E+01  0.38952555913E+01  0.59301934103E+02  0.49999981899E+02 0.  0.
        -12    1    1    2    0    0  0.31604476736E+02 -0.16447591193E+01 -0.38952555913E+01  0.31886065897E+02  0.00000000000E+00 0.  1.
         11    1    3    3    0    0 -0.12402448540E+02 -0.38216155900E+01  0.56324185038E+01  0.14147424287E+02  0.51100000000E-03 0. -1.
        -11    1    3    3    0    0 -0.28854202216E+02  0.85576755498E+00 -0.11111200426E+02  0.30931474242E+02  0.51100000000E-03 0.  1.
        -12    1    3    3    0    0  0.96521740197E+01  0.46106071543E+01  0.93740375130E+01  0.14223035574E+02  0.00000000000E+00 0.  1.
</event>
<event>
 7    1  0.1324280E-011  0.5930196E+02  0.7816164E-02  0.1266605E+00
        -11   -1    0    0    0    0  0.00000000000E+00  0.00000000000E+00  0.45593999997E+02  0.45594000000E+02  0.51100000000E-03 0.  1.
         11   -1    0    0    0    0 -0.00000000000E+00 -0.00000000000E+00 -0.45593999997E+02  0.45594000000E+02  0.51100000000E-03 0. -1.
    9900012    2    1    2    0    0 -0.24784921563E+02 -0.12663031842E+02  0.15558762773E+02  0.59301955853E+02  0.50000021566E+02 0.  0.
        -12    1    1    2    0    0  0.24784921563E+02  0.12663031842E+02 -0.15558762773E+02  0.31886044147E+02  0.00000000000E+00 0.  1.
         11    1    3    3    0    0 -0.17447387136E+01  0.27225801444E+01  0.41290089838E+01  0.52445468127E+01  0.51100000000E-03 0. -1.
        -11    1    3    3    0    0 -0.10705617441E+02 -0.22216015527E+02  0.24550156867E+02  0.34797583151E+02  0.51100000000E-03 0.  1.
         12    1    3    3    0    0 -0.12334565409E+02  0.68304035406E+01 -0.13120403078E+02  0.19259825889E+02  0.00000000000E+00 0. -1.
</event>
<event>
 7    1  0.1324280E-011  0.5930195E+02  0.7816164E-02  0.1266605E+00
        -11   -1    0    0    0    0  0.00000000000E+00  0.00000000000E+00  0.45593999997E+02  0.45594000000E+02  0.51100000000E-03 0. -1.
         11   -1    0    0    0    0 -0.00000000000E+00 -0.00000000000E+00 -0.45593999997E+02  0.45594000000E+02  0.51100000000E-03 0.  1.
    9900012    2    1    2    0    0 -0.24060421713E+02 -0.14105170726E+02  0.15455100680E+02  0.59301954913E+02  0.50000019853E+02 0.  0.
        -12    1    1    2    0    0  0.24060421713E+02  0.14105170726E+02 -0.15455100680E+02  0.31886045087E+02  0.00000000000E+00 0.  1.
         11    1    3    3    0    0 -0.40656140113E+01 -0.21313696926E+01 -0.11654146852E+02  0.12525617476E+02  0.51100000000E-03 0.  1.
        -11    1    3    3    0    0 -0.20015835857E+02  0.48524863359E+01  0.10437659836E+02  0.23089500900E+02  0.51100000000E-03 0. -1.
        -12    1    3    3    0    0  0.21028155063E-01 -0.16826287369E+02  0.16671587696E+02  0.23686836537E+02  0.00000000000E+00 0.  1.
</event>
<event>
 7    1  0.1324280E-011  0.5930195E+02  0.7816164E-02  0.1266605E+00
        -11   -1    0    0    0    0  0.00000000000E+00  0.00000000000E+00  0.45593999997E+02  0.45594000000E+02  0.51100000000E-03 0. -1.
         11   -1    0    0    0    0 -0.00000000000E+00 -0.00000000000E+00 -0.45593999997E+02  0.45594000000E+02  0.51100000000E-03 0.  1.
    9900012    2    1    2    0    0 -0.92631472206E+01  0.30317103797E+02  0.34332526776E+01  0.59301954415E+02  0.50000018944E+02 0.  0.
        -12    1    1    2    0    0  0.92631472206E+01 -0.30317103797E+02 -0.34332526776E+01  0.31886045585E+02  0.00000000000E+00 0.  1.
         11    1    3    3    0    0 -0.63155971181E+00  0.13822944765E+01  0.27547375967E+01  0.31461381370E+01  0.51100000000E-03 0. -1.
        -11    1    3    3    0    0 -0.27392355650E+01  0.32585756042E+01  0.21911072453E+02  0.22320771105E+02  0.51100000000E-03 0.  1.
        -12    1    3    3    0    0 -0.58923519437E+01  0.25676233717E+02 -0.21232557372E+02  0.33835045173E+02  0.00000000000E+00 0.  1.
</event>
<event>
 7    1  0.1324280E-011  0.5930194E+02  0.7816164E-02  0.1266605E+00
        -11   -1    0    0    0    0  0.00000000000E+00  0.00000000000E+00  0.45593999997E+02  0.45594000000E+02  0.51100000000E-03 0. -1.
         11   -1    0    0    0    0 -0.00000000000E+00 -0.00000000000E+00 -0.45593999997E+02  0.45594000000E+02  0.51100000000E-03 0.  1.
    9900012    2    1    2    0    0  0.29067637511E+02  0.80350838574E+01 -0.10355222993E+02  0.59301940879E+02  0.49999994257E+02 0.  0.
        -12    1    1    2    0    0 -0.29067637511E+02 -0.80350838574E+01  0.10355222993E+02  0.31886059121E+02  0.00000000000E+00 0.  1.
         11    1    3    3    0    0  0.20847656862E+02  0.13278022570E+02  0.92913618482E+01  0.26405682822E+02  0.51100000000E-03 0. -1.
        -11    1    3    3    0    0  0.35682831820E+01  0.85976960809E+01 -0.12238892721E+01  0.93888725616E+01  0.51100000000E-03 0.  1.
        -12    1    3    3    0    0  0.46516974664E+01 -0.13840634794E+02 -0.18422695569E+02  0.23507385495E+02  0.00000000000E+00 0.  1.
</event>
<event>
 7    1  0.1324280E-011  0.5930195E+02  0.7816164E-02  0.1266605E+00
        -11   -1    0    0    0    0  0.00000000000E+00  0.00000000000E+00  0.45593999997E+02  0.45594000000E+02  0.51100000000E-03 0.  1.
         11   -1    0    0    0    0 -0.00000000000E+00 -0.00000000000E+00 -0.45593999997E+02  0.45594000000E+02  0.51100000000E-03 0. -1.
    9900012    2    1    2    0    0 -0.24827252960E+01  0.20641490705E+02 -0.24176125758E+02  0.59301951012E+02  0.50000012737E+02 0.  0.
        -12    1    1    2    0    0  0.24827252960E+01 -0.20641490705E+02  0.24176125758E+02  0.31886048988E+02  0.00000000000E+00 0.  1.
         11    1    3    3    0    0 -0.74606688827E+01  0.71305274389E+00 -0.22829823780E+02  0.24028542995E+02  0.51100000000E-03 0. -1.
        -11    1    3    3    0    0 -0.75001940103E+00  0.12782359878E+02 -0.14436998477E+02  0.19297102850E+02  0.51100000000E-03 0.  1.
        -12    1    3    3    0    0  0.57279629877E+01  0.71460780832E+01  0.13090696498E+02  0.15976305166E+02  0.00000000000E+00 0.  1.
</event>
<event>
 7    1  0.1324280E-011  0.5930194E+02  0.7816164E-02  0.1266605E+00
        -11   -1    0    0    0    0  0.00000000000E+00  0.00000000000E+00  0.45593999997E+02  0.45594000000E+02  0.51100000000E-03 0.  1.
         11   -1    0    0    0    0 -0.00000000000E+00 -0.00000000000E+00 -0.45593999997E+02  0.45594000000E+02  0.51100000000E-03 0. -1.
    9900012    2    1    2    0    0 -0.11382423135E+02 -0.18586051827E+01 -0.29727202944E+02  0.59301944042E+02  0.50000000026E+02 0.  0.
        -12    1    1    2    0    0  0.11382423135E+02  0.18586051827E+01  0.29727202944E+02  0.31886055958E+02  0.00000000000E+00 0.  1.
         11    1    3    3    0    0 -0.47020651897E+01  0.36880920319E+01  0.27039009943E+01  0.65591554892E+01  0.51100000000E-03 0.  1.
        -11    1    3    3    0    0 -0.96989743499E-02 -0.20689344398E+02 -0.29353681001E+02  0.35912221516E+02  0.51100000000E-03 0. -1.
         12    1    3    3    0    0 -0.66706589712E+01  0.15142647183E+02 -0.30774229380E+01  0.16830567036E+02  0.00000000000E+00 0. -1.
</event>
<event>
 7    1  0.1324280E-011  0.5930198E+02  0.7816164E-02  0.1266605E+00
        -11   -1    0    0    0    0  0.00000000000E+00  0.00000000000E+00  0.45593999997E+02  0.45594000000E+02  0.51100000000E-03 0.  1.
         11   -1    0    0    0    0 -0.00000000000E+00 -0.00000000000E+00 -0.45593999997E+02  0.45594000000E+02  0.51100000000E-03 0. -1.
    9900012    2    1    2    0    0 -0.10665116475E+01 -0.31863458963E+02 -0.54847070275E+00  0.59301979798E+02  0.50000065236E+02 0.  0.
        -12    1    1    2    0    0  0.10665116475E+01  0.31863458963E+02  0.54847070275E+00  0.31886020202E+02  0.00000000000E+00 0.  1.
         11    1    3    3    0    0 -0.37766960767E+00  0.71867727502E+01 -0.15985094440E+01  0.73720804119E+01  0.51100000000E-03 0. -1.
        -11    1    3    3    0    0 -0.11751726933E+02 -0.64788565609E+01  0.95814438905E+01  0.16488867018E+02  0.51100000000E-03 0.  1.
        -12    1    3    3    0    0  0.11062884893E+02 -0.32571375153E+02 -0.85314051493E+01  0.35441032368E+02  0.00000000000E+00 0.  1.
</event>
<event>
 7    1  0.1324280E-011  0.5930204E+02  0.7816164E-02  0.1266604E+00
        -11   -1    0    0    0    0  0.00000000000E+00  0.00000000000E+00  0.45593999997E+02  0.45594000000E+02  0.51100000000E-03 0.  1.
         11   -1    0    0    0    0 -0.00000000000E+00 -0.00000000000E+00 -0.45593999997E+02  0.45594000000E+02  0.51100000000E-03 0. -1.
    9900012    2    1    2    0    0 -0.26388915209E+02  0.17556085978E+02  0.34818505117E+01  0.59302042530E+02  0.50000179644E+02 0.  0.
        -12    1    1    2    0    0  0.26388915209E+02 -0.17556085978E+02 -0.34818505117E+01  0.31885957470E+02  0.00000000000E+00 0.  1.
         11    1    3    3    0    0  0.40825736166E+01  0.13476064397E+02  0.12114473261E+02  0.18575041901E+02  0.51100000000E-03 0. -1.
        -11    1    3    3    0    0 -0.23346916087E+00  0.91353563408E+01 -0.22691270359E+01  0.94158473378E+01  0.51100000000E-03 0.  1.
         12    1    3    3    0    0 -0.30238019665E+02 -0.50553347592E+01 -0.63634957134E+01  0.31311153292E+02  0.00000000000E+00 0. -1.
</event>
<event>
 7    1  0.1324280E-011  0.5930193E+02  0.7816164E-02  0.1266605E+00
        -11   -1    0    0    0    0  0.00000000000E+00  0.00000000000E+00  0.45593999997E+02  0.45594000000E+02  0.51100000000E-03 0. -1.
         11   -1    0    0    0    0 -0.00000000000E+00 -0.00000000000E+00 -0.45593999997E+02  0.45594000000E+02  0.51100000000E-03 0.  1.
    9900012    2    1    2    0    0 -0.10097909001E+02  0.27869533119E+02  0.11749164799E+02  0.59301929124E+02  0.49999972819E+02 0.  0.
        -12    1    1    2    0    0  0.10097909001E+02 -0.27869533119E+02 -0.11749164799E+02  0.31886070876E+02  0.00000000000E+00 0.  1.
         11    1    3    3    0    0  0.93615448870E+01  0.16164709140E+02  0.71393145066E+01  0.19997653765E+02  0.51100000000E-03 0. -1.
        -11    1    3    3    0    0  0.30311966593E+01  0.15861854764E+01  0.12853445516E+02  0.13300947314E+02  0.51100000000E-03 0.  1.
        -12    1    3    3    0    0 -0.22490650548E+02  0.10118638503E+02 -0.82435952232E+01  0.26003328045E+02  0.00000000000E+00 0.  1.
</event>
<event>
 7    1  0.1324280E-011  0.5930196E+02  0.7816164E-02  0.1266605E+00
        -11   -1    0    0    0    0  0.00000000000E+00  0.00000000000E+00  0.45593999997E+02  0.45594000000E+02  0.51100000000E-03 0. -1.
         11   -1    0    0    0    0 -0.00000000000E+00 -0.00000000000E+00 -0.45593999997E+02  0.45594000000E+02  0.51100000000E-03 0.  1.
    9900012    2    1    2    0    0 -0.30125911412E+02 -0.97557154878E+01  0.37382799200E+01  0.59301964501E+02  0.50000037338E+02 0.  0.
        -12    1    1    2    0    0  0.30125911412E+02  0.97557154878E+01 -0.37382799200E+01  0.31886035499E+02  0.00000000000E+00 0.  1.
         11    1    3    3    0    0  0.11025414820E+01  0.78229404647E+01  0.82791457350E+01  0.11443699122E+02  0.51100000000E-03 0. -1.
        -11    1    3    3    0    0  0.63822636962E+01 -0.15770456974E+01 -0.21434767533E+01  0.69148286944E+01  0.51100000000E-03 0.  1.
         12    1    3    3    0    0 -0.37610716590E+02 -0.16001610255E+02 -0.23973890617E+01  0.40943436684E+02  0.00000000000E+00 0. -1.
</event>
<event>
 7    1  0.1324280E-011  0.5930195E+02  0.7816164E-02  0.1266605E+00
        -11   -1    0    0    0    0  0.00000000000E+00  0.00000000000E+00  0.45593999997E+02  0.45594000000E+02  0.51100000000E-03 0.  1.
         11   -1    0    0    0    0 -0.00000000000E+00 -0.00000000000E+00 -0.45593999997E+02  0.45594000000E+02  0.51100000000E-03 0. -1.
    9900012    2    1    2    0    0 -0.15653028987E+02  0.25521733342E+01 -0.27662060601E+02  0.59301945024E+02  0.50000001817E+02 0.  0.
        -12    1    1    2    0    0  0.15653028987E+02 -0.25521733342E+01  0.27662060601E+02  0.31886054976E+02  0.00000000000E+00 0.  1.
         11    1    3    3    0    0 -0.50439561496E+01 -0.19468726529E+02 -0.14077801421E+02  0.24549079401E+02  0.51100000000E-03 0. -1.
        -11    1    3    3    0    0 -0.73505943277E+01  0.10312208665E+01  0.27936066742E+01  0.79308821676E+01  0.51100000000E-03 0.  1.
        -12    1    3    3    0    0 -0.32584785101E+01  0.20989678996E+02 -0.16377865854E+02  0.26821983456E+02  0.00000000000E+00 0.  1.
</event>
<event>
 7    1  0.1324280E-011  0.5930198E+02  0.7816164E-02  0.1266605E+00
        -11   -1    0    0    0    0  0.00000000000E+00  0.00000000000E+00  0.45593999997E+02  0.45594000000E+02  0.51100000000E-03 0. -1.
         11   -1    0    0    0    0 -0.00000000000E+00 -0.00000000000E+00 -0.45593999997E+02  0.45594000000E+02  0.51100000000E-03 0.  1.
    9900012    2    1    2    0    0  0.30187481036E+02  0.82124150084E+01  0.61636481549E+01  0.59301979079E+02  0.50000063925E+02 0.  0.
        -12    1    1    2    0    0 -0.30187481036E+02 -0.82124150084E+01 -0.61636481549E+01  0.31886020921E+02  0.00000000000E+00 0.  1.
         11    1    3    3    0    0 -0.26241499998E+01  0.30092029165E+00  0.65357009225E+01  0.70492625893E+01  0.51100000000E-03 0. -1.
        -11    1    3    3    0    0 -0.61204637153E+01 -0.28107877417E+01 -0.87191245747E+01  0.11017428803E+02  0.51100000000E-03 0.  1.
        -12    1    3    3    0    0  0.38932094751E+02  0.10722282458E+02  0.83470718070E+01  0.41235287687E+02  0.00000000000E+00 0.  1.
</event>
<event>
 7    1  0.1324280E-011  0.5930194E+02  0.7816164E-02  0.1266605E+00
        -11   -1    0    0    0    0  0.00000000000E+00  0.00000000000E+00  0.45593999997E+02  0.45594000000E+02  0.51100000000E-03 0. -1.
         11   -1    0    0    0    0 -0.00000000000E+00 -0.00000000000E+00 -0.45593999997E+02  0.45594000000E+02  0.51100000000E-03 0.  1.
    9900012    2    1    2    0    0  0.82848806807E+00 -0.88004316412E+00  0.31863146285E+02  0.59301937847E+02  0.49999988728E+02 0.  0.
        -12    1    1    2    0    0 -0.82848806807E+00  0.88004316412E+00 -0.31863146285E+02  0.31886062153E+02  0.00000000000E+00 0.  1.
         11    1    3    3    0    0 -0.35351001624E+01 -0.45548200862E+01  0.11377448335E+02  0.12754985302E+02  0.51100000000E-03 0. -1.
        -11    1    3    3    0    0 -0.17736726503E+02  0.70312523172E+01  0.63950310240E+01  0.20122783064E+02  0.51100000000E-03 0.  1.
         12    1    3    3    0    0  0.22100314733E+02 -0.33564753951E+01  0.14090666926E+02  0.26424169482E+02  0.00000000000E+00 0. -1.
</event>
<event>
 7    1  0.1324280E-011  0.5930194E+02  0.7816164E-02  0.1266605E+00
        -11   -1    0    0    0    0  0.00000000000E+00  0.00000000000E+00  0.45593999997E+02  0.45594000000E+02  0.51100000000E-03 0.  1.
         11   -1    0    0    0    0 -0.00000000000E+00 -0.00000000000E+00 -0.45593999997E+02  0.45594000000E+02  0.51100000000E-03 0. -1.
    9900012    2    1    2    0    0 -0.14786235313E+02 -0.26698773252E+02 -0.92338431784E+01  0.59301935525E+02  0.49999984493E+02 0.  0.
        -12    1    1    2    0    0  0.14786235313E+02  0.26698773252E+02  0.92338431784E+01  0.31886064475E+02  0.00000000000E+00 0.  1.
         11    1    3    3    0    0  0.14106572156E+02 -0.10803702368E+02 -0.38570437651E+01  0.18182193204E+02  0.51100000000E-03 0. -1.
        -11    1    3    3    0    0 -0.28585409259E+01  0.38298484626E+01 -0.69323087752E+01  0.84199703496E+01  0.51100000000E-03 0.  1.
         12    1    3    3    0    0 -0.26034266542E+02 -0.19724919346E+02  0.15555093619E+01  0.32699771971E+02  0.00000000000E+00 0. -1.
</event>
<event>
 7    1  0.1324280E-011  0.5930195E+02  0.7816164E-02  0.1266605E+00
        -11   -1    0    0    0    0  0.00000000000E+00  0.00000000000E+00  0.45593999997E+02  0.45594000000E+02  0.51100000000E-03 0.  1.
         11   -1    0    0    0    0 -0.00000000000E+00 -0.00000000000E+00 -0.45593999997E+02  0.45594000000E+02  0.51100000000E-03 0. -1.
    9900012    2    1    2    0    0 -0.79044747535E+01  0.29853101702E+02 -0.79392598587E+01  0.59301948983E+02  0.50000009037E+02 0.  0.
        -12    1    1    2    0    0  0.79044747535E+01 -0.29853101702E+02  0.79392598587E+01  0.31886051017E+02  0.00000000000E+00 0.  1.
         11    1    3    3    0    0  0.37796074746E+01 -0.94211781210E+01 -0.62342863570E+00  0.10170186497E+02  0.51100000000E-03 0. -1.
        -11    1    3    3    0    0  0.38159843781E+01  0.24325086764E+02 -0.11530693991E+02  0.27188756629E+02  0.51100000000E-03 0.  1.
        -12    1    3    3    0    0 -0.15500066606E+02  0.14949193059E+02  0.42148627679E+01  0.21943005857E+02  0.00000000000E+00 0.  1.
</event>
<event>
 7    1  0.1324280E-011  0.5930192E+02  0.7816164E-02  0.1266605E+00
        -11   -1    0    0    0    0  0.00000000000E+00  0.00000000000E+00  0.45593999997E+02  0.45594000000E+02  0.51100000000E-03 0.  1.
         11   -1    0    0    0    0 -0.00000000000E+00 -0.00000000000E+00 -0.45593999997E+02  0.45594000000E+02  0.51100000000E-03 0. -1.
    9900012    2    1    2    0    0 -0.20940491659E+02 -0.20472223021E+02 -0.12613713314E+02  0.59301923573E+02  0.49999962695E+02 0.  0.
        -12    1    1    2    0    0  0.20940491659E+02  0.20472223021E+02  0.12613713314E+02  0.31886076427E+02  0.00000000000E+00 0.  1.
         11    1    3    3    0    0  0.70374623510E+01  0.41443535261E+01  0.28384942003E+01  0.86463051113E+01  0.51100000000E-03 0. -1.
        -11    1    3    3    0    0 -0.54866972445E+01 -0.21121555972E+02 -0.17259327051E+02  0.27822802587E+02  0.51100000000E-03 0.  1.
         12    1    3    3    0    0 -0.22491256766E+02 -0.34950205753E+01  0.18071195362E+01  0.22832815874E+02  0.00000000000E+00 0. -1.
</event>
<event>
 7    1  0.1324280E-011  0.5930194E+02  0.7816164E-02  0.1266605E+00
        -11   -1    0    0    0    0  0.00000000000E+00  0.00000000000E+00  0.45593999997E+02  0.45594000000E+02  0.51100000000E-03 0.  1.
         11   -1    0    0    0    0 -0.00000000000E+00 -0.00000000000E+00 -0.45593999997E+02  0.45594000000E+02  0.51100000000E-03 0. -1.
    9900012    2    1    2    0    0  0.16355836108E+01 -0.18780227152E+02 -0.25716701298E+02  0.59301940487E+02  0.49999993543E+02 0.  0.
        -12    1    1    2    0    0 -0.16355836108E+01  0.18780227152E+02  0.25716701298E+02  0.31886059513E+02  0.00000000000E+00 0.  1.
         11    1    3    3    0    0 -0.10412161159E+02 -0.19244688899E+02 -0.38046513055E+01  0.22209154028E+02  0.51100000000E-03 0. -1.
        -11    1    3    3    0    0 -0.25942395483E+01 -0.19854635551E+01  0.52239838625E+01  0.61613433616E+01  0.51100000000E-03 0.  1.
        -12    1    3    3    0    0  0.14641984318E+02  0.24499253026E+01 -0.27136033855E+02  0.30931443098E+02  0.00000000000E+00 0.  1.
</event>
<event>
 7    1  0.1324280E-011  0.5930195E+02  0.7816164E-02  0.1266605E+00
        -11   -1    0    0    0    0  0.00000000000E+00  0.00000000000E+00  0.45593999997E+02  0.45594000000E+02  0.51100000000E-03 0. -1.
         11   -1    0    0    0    0 -0.00000000000E+00 -0.00000000000E+00 -0.45593999997E+02  0.45594000000E+02  0.51100000000E-03 0.  1.
    9900012    2    1    2    0    0 -0.68077018828E+01 -0.23453187617E+02  0.20501792362E+02  0.59301948122E+02  0.50000007467E+02 0.  0.
        -12    1    1    2    0    0  0.68077018828E+01  0.23453187617E+02 -0.20501792362E+02  0.31886051878E+02  0.00000000000E+00 0.  1.
         11    1    3    3    0    0  0.51018098703E+01  0.17882462625E+01 -0.11354877728E+02  0.12576149535E+02  0.51100000000E-03 0.  1.
        -11    1    3    3    0    0 -0.47082679259E+01  0.16927218035E+01  0.10413629566E+02  0.11553214919E+02  0.51100000000E-03 0. -1.
         12    1    3    3    0    0 -0.72012438272E+01 -0.26934155683E+02  0.21443040524E+02  0.35172583669E+02  0.00000000000E+00 0. -1.
</event>
<event>
 7    1  0.1324280E-011  0.5930196E+02  0.7816164E-02  0.1266605E+00
        -11   -1    0    0    0    0  0.00000000000E+00  0.00000000000E+00  0.45593999997E+02  0.45594000000E+02  0.51100000000E-03 0.  1.
         11   -1    0    0    0    0 -0.00000000000E+00 -0.00000000000E+00 -0.45593999997E+02  0.45594000000E+02  0.51100000000E-03 0. -1.
    9900012    2    1    2    0    0 -0.84630706270E+01 -0.29817519356E+02 -0.74841056290E+01  0.59301955058E+02  0.50000020117E+02 0.  0.
        -12    1    1    2    0    0  0.84630706270E+01  0.29817519356E+02  0.74841056290E+01  0.31886044942E+02  0.00000000000E+00 0.  1.
         11    1    3    3    0    0 -0.86587263657E+01 -0.33348969812E+02 -0.37123984309E+01  0.34654137302E+02  0.51100000000E-03 0. -1.
        -11    1    3    3    0    0  0.10326200517E+02 -0.46577891878E+01 -0.19432276203E+01  0.11493543887E+02  0.51100000000E-03 0.  1.
        -12    1    3    3    0    0 -0.10130544779E+02  0.81892396438E+01 -0.18284795779E+01  0.13154273869E+02  0.00000000000E+00 0.  1.
</event>
<event>
 7    1  0.1324280E-011  0.5930194E+02  0.7816164E-02  0.1266605E+00
        -11   -1    0    0    0    0  0.00000000000E+00  0.00000000000E+00  0.45593999997E+02  0.45594000000E+02  0.51100000000E-03 0. -1.
         11   -1    0    0    0    0 -0.00000000000E+00 -0.00000000000E+00 -0.45593999997E+02  0.45594000000E+02  0.51100000000E-03 0.  1.
    9900012    2    1    2    0    0  0.25986413357E+02  0.12602427574E+02  0.13513168605E+02  0.59301943711E+02  0.49999999423E+02 0.  0.
        -12    1    1    2    0    0 -0.25986413357E+02 -0.12602427574E+02 -0.13513168605E+02  0.31886056289E+02  0.00000000000E+00 0.  1.
         11    1    3    3    0    0  0.34499398091E+02  0.15638107463E+02  0.15303169332E+02  0.40852733881E+02  0.51100000000E-03 0. -1.
        -11    1    3    3    0    0 -0.29361077669E+01 -0.34827222336E+01  0.68078759315E+01  0.81912915914E+01  0.51100000000E-03 0.  1.
        -12    1    3    3    0    0 -0.55768769671E+01  0.44704234450E+00 -0.85978766585E+01  0.10257918239E+02  0.00000000000E+00 0.  1.
</event>
<event>
 7    1  0.1324280E-011  0.5930193E+02  0.7816164E-02  0.1266605E+00
        -11   -1    0    0    0    0  0.00000000000E+00  0.00000000000E+00  0.45593999997E+02  0.45594000000E+02  0.51100000000E-03 0.  1.
         11   -1    0    0    0    0 -0.00000000000E+00 -0.00000000000E+00 -0.45593999997E+02  0.45594000000E+02  0.51100000000E-03 0. -1.
    9900012    2    1    2    0    0  0.29817981217E+02 -0.10923261621E+02 -0.28795001990E+01  0.59301934553E+02  0.49999982721E+02 0.  0.
        -12    1    1    2    0    0 -0.29817981217E+02  0.10923261621E+02  0.28795001990E+01  0.31886065447E+02  0.00000000000E+00 0.  1.
         11    1    3    3    0    0  0.12929067564E+02 -0.25690831324E+02  0.98798545275E+01  0.30410378622E+02  0.51100000000E-03 0.  1.
        -11    1    3    3    0    0  0.73771536411E+01  0.19900366252E+01  0.11714389918E+01  0.77301300886E+01  0.51100000000E-03 0. -1.
        -12    1    3    3    0    0  0.95117600119E+01  0.12777533078E+02 -0.13930793718E+02  0.21161425843E+02  0.00000000000E+00 0.  1.
</event>
<event>
 7    1  0.1324280E-011  0.5930200E+02  0.7816164E-02  0.1266605E+00
        -11   -1    0    0    0    0  0.00000000000E+00  0.00000000000E+00  0.45593999997E+02  0.45594000000E+02  0.51100000000E-03 0.  1.
         11   -1    0    0    0    0 -0.00000000000E+00 -0.00000000000E+00 -0.45593999997E+02  0.45594000000E+02  0.51100000000E-03 0. -1.
    9900012    2    1    2    0    0 -0.27270118656E+02  0.53975302458E+01 -0.15618085923E+02  0.59301995042E+02  0.50000093038E+02 0.  0.
        -12    1    1    2    0    0  0.27270118656E+02 -0.53975302458E+01  0.15618085923E+02  0.31886004958E+02  0.00000000000E+00 0.  1.
         11    1    3    3    0    0 -0.11820915739E+02 -0.92079383963E+01 -0.17846043301E+02  0.23302391297E+02  0.51100000000E-03 0. -1.
        -11    1    3    3    0    0 -0.20736513551E+01  0.15965399817E+01 -0.12159705129E+02  0.12438142905E+02  0.51100000000E-03 0.  1.
        -12    1    3    3    0    0 -0.13375551562E+02  0.13008928660E+02  0.14387662506E+02  0.23561460839E+02  0.00000000000E+00 0.  1.
</event>
<event>
 7    1  0.1324280E-011  0.5930195E+02  0.7816164E-02  0.1266605E+00
        -11   -1    0    0    0    0  0.00000000000E+00  0.00000000000E+00  0.45593999997E+02  0.45594000000E+02  0.51100000000E-03 0.  1.
         11   -1    0    0    0    0 -0.00000000000E+00 -0.00000000000E+00 -0.45593999997E+02  0.45594000000E+02  0.51100000000E-03 0. -1.
    9900012    2    1    2    0    0  0.29155631302E+01 -0.26722117064E+02 -0.17150746548E+02  0.59301950450E+02  0.50000011712E+02 0.  0.
        -12    1    1    2    0    0 -0.29155631302E+01  0.26722117064E+02  0.17150746548E+02  0.31886049550E+02  0.00000000000E+00 0.  1.
         11    1    3    3    0    0 -0.74351524220E+01  0.83683962915E+00 -0.37754704317E+01  0.83806902666E+01  0.51100000000E-03 0. -1.
        -11    1    3    3    0    0  0.93273515047E+00  0.24711584671E+01 -0.18800186252E+02  0.18984826109E+02  0.51100000000E-03 0.  1.
        -12    1    3    3    0    0  0.94179804017E+01 -0.30030115161E+02  0.54249101356E+01  0.31936434074E+02  0.00000000000E+00 0.  1.
</event>
<event>
 7    1  0.1324280E-011  0.5930190E+02  0.7816164E-02  0.1266605E+00
        -11   -1    0    0    0    0  0.00000000000E+00  0.00000000000E+00  0.45593999997E+02  0.45594000000E+02  0.51100000000E-03 0.  1.
         11   -1    0    0    0    0 -0.00000000000E+00 -0.00000000000E+00 -0.45593999997E+02  0.45594000000E+02  0.51100000000E-03 0. -1.
    9900012    2    1    2    0    0 -0.25332906534E+01  0.23986892849E+02 -0.20855089473E+02  0.59301900411E+02  0.49999920454E+02 0.  0.
        -12    1    1    2    0    0  0.25332906534E+01 -0.23986892849E+02  0.20855089473E+02  0.31886099589E+02  0.00000000000E+00 0.  1.
         11    1    3    3    0    0 -0.12830236486E+02  0.24251653310E+02 -0.12584612900E+02  0.30184932312E+02  0.51100000000E-03 0. -1.
        -11    1    3    3    0    0  0.29139248228E+01  0.11709681726E+02  0.12488841852E+01  0.12131253685E+02  0.51100000000E-03 0.  1.
        -12    1    3    3    0    0  0.73830210094E+01 -0.11974442187E+02 -0.95193607584E+01  0.16985714415E+02  0.00000000000E+00 0.  1.
</event>
<event>
 7    1  0.1324280E-011  0.5930197E+02  0.7816164E-02  0.1266605E+00
        -11   -1    0    0    0    0  0.00000000000E+00  0.00000000000E+00  0.45593999997E+02  0.45594000000E+02  0.51100000000E-03 0. -1.
         11   -1    0    0    0    0 -0.00000000000E+00 -0.00000000000E+00 -0.45593999997E+02  0.45594000000E+02  0.51100000000E-03 0.  1.
    9900012    2    1    2    0    0 -0.13472559806E+02 -0.28501524869E+02  0.47824559088E+01  0.59301973718E+02  0.50000054147E+02 0.  0.
        -12    1    1    2    0    0  0.13472559806E+02  0.28501524869E+02 -0.47824559088E+01  0.31886026282E+02  0.00000000000E+00 0.  1.
         11    1    3    3    0    0  0.35697545456E+01  0.55237518213E+01  0.67014562849E+01  0.93895952148E+01  0.51100000000E-03 0. -1.
        -11    1    3    3    0    0  0.71333725923E+01 -0.44323158020E+01 -0.75426429885E+01  0.11288130555E+02  0.51100000000E-03 0.  1.
        -12    1    3    3    0    0 -0.24175686943E+02 -0.29592960888E+02  0.56236426124E+01  0.38624247948E+02  0.00000000000E+00 0.  1.
</event>
<event>
 7    1  0.1324280E-011  0.5930195E+02  0.7816164E-02  0.1266605E+00
        -11   -1    0    0    0    0  0.00000000000E+00  0.00000000000E+00  0.45593999997E+02  0.45594000000E+02  0.51100000000E-03 0.  1.
         11   -1    0    0    0    0 -0.00000000000E+00 -0.00000000000E+00 -0.45593999997E+02  0.45594000000E+02  0.51100000000E-03 0. -1.
    9900012    2    1    2    0    0 -0.81232223770E+01  0.18244383328E+02 -0.24857113472E+02  0.59301947328E+02  0.50000006019E+02 0.  0.
        -12    1    1    2    0    0  0.81232223770E+01 -0.18244383328E+02  0.24857113472E+02  0.31886052672E+02  0.00000000000E+00 0.  1.
         11    1    3    3    0    0 -0.32506168105E+01  0.41251533707E+01  0.13656567241E+02  0.14631651618E+02  0.51100000000E-03 0. -1.
        -11    1    3    3    0    0 -0.49211167602E+01  0.77434608080E+00 -0.13179221660E+01  0.51530496909E+01  0.51100000000E-03 0.  1.
         12    1    3    3    0    0  0.48511193686E-01  0.13344883877E+02 -0.37195758548E+02  0.39517246020E+02  0.00000000000E+00 0. -1.
</event>
<event>
 7    1  0.1324280E-011  0.5930195E+02  0.7816164E-02  0.1266605E+00
        -11   -1    0    0    0    0  0.00000000000E+00  0.00000000000E+00  0.45593999997E+02  0.45594000000E+02  0.51100000000E-03 0. -1.
         11   -1    0    0    0    0 -0.00000000000E+00 -0.00000000000E+00 -0.45593999997E+02  0.45594000000E+02  0.51100000000E-03 0.  1.
    9900012    2    1    2    0    0 -0.18440928352E+02 -0.19139611903E+02  0.17616116364E+02  0.59301950730E+02  0.50000012224E+02 0.  0.
        -12    1    1    2    0    0  0.18440928352E+02  0.19139611903E+02 -0.17616116364E+02  0.31886049270E+02  0.00000000000E+00 0.  1.
         11    1    3    3    0    0 -0.81727365419E+01 -0.53732185181E+01  0.14501977915E+02  0.17492068589E+02  0.51100000000E-03 0. -1.
        -11    1    3    3    0    0 -0.22966325572E+02 -0.46239492483E+01 -0.53356924868E+01  0.24027122831E+02  0.51100000000E-03 0.  1.
        -12    1    3    3    0    0  0.12698133762E+02 -0.91424441368E+01  0.84498309359E+01  0.17782759310E+02  0.00000000000E+00 0.  1.
</event>
<event>
 7    1  0.1324280E-011  0.5930195E+02  0.7816164E-02  0.1266605E+00
        -11   -1    0    0    0    0  0.00000000000E+00  0.00000000000E+00  0.45593999997E+02  0.45594000000E+02  0.51100000000E-03 0.  1.
         11   -1    0    0    0    0 -0.00000000000E+00 -0.00000000000E+00 -0.45593999997E+02  0.45594000000E+02  0.51100000000E-03 0. -1.
    9900012    2    1    2    0    0  0.64272005472E+01 -0.29798327570E+02 -0.93526060689E+01  0.59301945476E+02  0.50000002641E+02 0.  0.
        -12    1    1    2    0    0 -0.64272005472E+01  0.29798327570E+02  0.93526060689E+01  0.31886054524E+02  0.00000000000E+00 0.  1.
         11    1    3    3    0    0  0.58996684866E+01 -0.15711314556E+02 -0.11100600549E+02  0.20121501588E+02  0.51100000000E-03 0. -1.
        -11    1    3    3    0    0  0.18312130329E+02 -0.74081749391E+01  0.36495845776E+01  0.20088171668E+02  0.51100000000E-03 0.  1.
         12    1    3    3    0    0 -0.17784598269E+02 -0.66788380751E+01 -0.19015900971E+01  0.19092272220E+02  0.00000000000E+00 0. -1.
</event>
<event>
 7    1  0.1399801E-011  0.5930196E+02  0.7816164E-02  0.1266605E+00
        -11   -1    0    0    0    0  0.00000000000E+00  0.00000000000E+00  0.45593999997E+02  0.45594000000E+02  0.51100000000E-03 0. -1.
         11   -1    0    0    0    0 -0.00000000000E+00 -0.00000000000E+00 -0.45593999997E+02  0.45594000000E+02  0.51100000000E-03 0.  1.
    9900012    2    1    2    0    0  0.12242037427E+02 -0.28196161432E+02 -0.84751719087E+01  0.59301960127E+02  0.50000029362E+02 0.  0.
        -12    1    1    2    0    0 -0.12242037427E+02  0.28196161432E+02  0.84751719087E+01  0.31886039873E+02  0.00000000000E+00 0.  1.
         11    1    3    3    0    0  0.70557473241E+01  0.13948254336E+01 -0.28513446688E+01  0.77368775984E+01  0.51100000000E-03 0. -1.
        -11    1    3    3    0    0 -0.32952928062E+01  0.73099205017E+01  0.79988749558E+01  0.11325894810E+02  0.51100000000E-03 0.  1.
         12    1    3    3    0    0  0.84815829088E+01 -0.36900907368E+02 -0.13622702196E+02  0.40239187719E+02  0.00000000000E+00 0. -1.
</event>
<event>
 7    1  0.1324280E-011  0.5930194E+02  0.7816164E-02  0.1266605E+00
        -11   -1    0    0    0    0  0.00000000000E+00  0.00000000000E+00  0.45593999997E+02  0.45594000000E+02  0.51100000000E-03 0. -1.
         11   -1    0    0    0    0 -0.00000000000E+00 -0.00000000000E+00 -0.45593999997E+02  0.45594000000E+02  0.51100000000E-03 0.  1.
    9900012    2    1    2    0    0 -0.25091441985E+02  0.43653665028E+01  0.19185508378E+02  0.59301943215E+02  0.49999998517E+02 0.  0.
        -12    1    1    2    0    0  0.25091441985E+02 -0.43653665028E+01 -0.19185508378E+02  0.31886056785E+02  0.00000000000E+00 0.  1.
         11    1    3    3    0    0 -0.46976378836E+01  0.92963170639E+00  0.11954756035E+02  0.12878206742E+02  0.51100000000E-03 0. -1.
        -11    1    3    3    0    0 -0.96723778415E+01 -0.12997597951E+02  0.17855433202E+02  0.24110349245E+02  0.51100000000E-03 0.  1.
        -12    1    3    3    0    0 -0.10721426260E+02  0.16433332748E+02 -0.10624680858E+02  0.22313387228E+02  0.00000000000E+00 0.  1.
</event>
<event>
 7    1  0.1324280E-011  0.5930195E+02  0.7816164E-02  0.1266605E+00
        -11   -1    0    0    0    0  0.00000000000E+00  0.00000000000E+00  0.45593999997E+02  0.45594000000E+02  0.51100000000E-03 0.  1.
         11   -1    0    0    0    0 -0.00000000000E+00 -0.00000000000E+00 -0.45593999997E+02  0.45594000000E+02  0.51100000000E-03 0. -1.
    9900012    2    1    2    0    0  0.35834837742E+01  0.28073871846E+01 -0.31559427506E+02  0.59301949080E+02  0.50000009215E+02 0.  0.
        -12    1    1    2    0    0 -0.35834837742E+01 -0.28073871846E+01  0.31559427506E+02  0.31886050920E+02  0.00000000000E+00 0.  1.
         11    1    3    3    0    0 -0.94011615607E+01 -0.70309631705E+01 -0.47691565239E+01  0.12671272075E+02  0.51100000000E-03 0. -1.
        -11    1    3    3    0    0  0.65848108185E+01  0.16167515323E+01 -0.33538702586E+02  0.34217220671E+02  0.51100000000E-03 0.  1.
        -12    1    3    3    0    0  0.63998345164E+01  0.82215988228E+01  0.67484316044E+01  0.12413456334E+02  0.00000000000E+00 0.  1.
</event>
<event>
 7    1  0.1324280E-011  0.5930197E+02  0.7816164E-02  0.1266605E+00
        -11   -1    0    0    0    0  0.00000000000E+00  0.00000000000E+00  0.45593999997E+02  0.45594000000E+02  0.51100000000E-03 0.  1.
         11   -1    0    0    0    0 -0.00000000000E+00 -0.00000000000E+00 -0.45593999997E+02  0.45594000000E+02  0.51100000000E-03 0. -1.
    9900012    2    1    2    0    0 -0.26560636919E+01 -0.21019036771E+02 -0.23829910149E+02  0.59301965457E+02  0.50000039083E+02 0.  0.
        -12    1    1    2    0    0  0.26560636919E+01  0.21019036771E+02  0.23829910149E+02  0.31886034543E+02  0.00000000000E+00 0.  1.
         11    1    3    3    0    0 -0.74381672783E+01  0.59113682836E+00  0.53036245817E+01  0.91544638933E+01  0.51100000000E-03 0. -1.
        -11    1    3    3    0    0 -0.73907101831E+01 -0.32942512636E+01  0.50225988042E+01  0.95237171003E+01  0.51100000000E-03 0.  1.
         12    1    3    3    0    0  0.12172813769E+02 -0.18315922336E+02 -0.34156133535E+02  0.40623784464E+02  0.00000000000E+00 0. -1.
</event>
<event>
 7    1  0.1324280E-011  0.5930194E+02  0.7816164E-02  0.1266605E+00
        -11   -1    0    0    0    0  0.00000000000E+00  0.00000000000E+00  0.45593999997E+02  0.45594000000E+02  0.51100000000E-03 0. -1.
         11   -1    0    0    0    0 -0.00000000000E+00 -0.00000000000E+00 -0.45593999997E+02  0.45594000000E+02  0.51100000000E-03 0.  1.
    9900012    2    1    2    0    0  0.28207071205E+02  0.10553054362E+02  0.10474498688E+02  0.59301938075E+02  0.49999989143E+02 0.  0.
        -12    1    1    2    0    0 -0.28207071205E+02 -0.10553054362E+02 -0.10474498688E+02  0.31886061925E+02  0.00000000000E+00 0.  1.
         11    1    3    3    0    0  0.23493920233E+02 -0.15410439133E+02  0.45092191995E+00  0.28100698444E+02  0.51100000000E-03 0. -1.
        -11    1    3    3    0    0 -0.23395556304E+01  0.91082821815E+01 -0.16098925881E+01  0.95407588405E+01  0.51100000000E-03 0.  1.
        -12    1    3    3    0    0  0.70527066026E+01  0.16855211313E+02  0.11633469356E+02  0.21660480791E+02  0.00000000000E+00 0.  1.
</event>
<event>
 7    1  0.1324280E-011  0.5930195E+02  0.7816164E-02  0.1266605E+00
        -11   -1    0    0    0    0  0.00000000000E+00  0.00000000000E+00  0.45593999997E+02  0.45594000000E+02  0.51100000000E-03 0. -1.
         11   -1    0    0    0    0 -0.00000000000E+00 -0.00000000000E+00 -0.45593999997E+02  0.45594000000E+02  0.51100000000E-03 0.  1.
    9900012    2    1    2    0    0  0.18883707263E+01 -0.18498233673E+02  0.25903080020E+02  0.59301950581E+02  0.50000011951E+02 0.  0.
        -12    1    1    2    0    0 -0.18883707263E+01  0.18498233673E+02 -0.25903080020E+02  0.31886049419E+02  0.00000000000E+00 0.  1.
         11    1    3    3    0    0  0.71159500836E+01 -0.89887495400E+00  0.59001799581E+01  0.92874563565E+01  0.51100000000E-03 0. -1.
        -11    1    3    3    0    0  0.17987282299E+01  0.65289156891E+01 -0.92405653399E+01  0.11456448463E+02  0.51100000000E-03 0.  1.
         12    1    3    3    0    0 -0.70263075872E+01 -0.24128274408E+02  0.29243465402E+02  0.38558045762E+02  0.00000000000E+00 0. -1.
</event>
<event>
 7    1  0.1324280E-011  0.5930196E+02  0.7816164E-02  0.1266605E+00
        -11   -1    0    0    0    0  0.00000000000E+00  0.00000000000E+00  0.45593999997E+02  0.45594000000E+02  0.51100000000E-03 0.  1.
         11   -1    0    0    0    0 -0.00000000000E+00 -0.00000000000E+00 -0.45593999997E+02  0.45594000000E+02  0.51100000000E-03 0. -1.
    9900012    2    1    2    0    0  0.11496330561E+02 -0.23993243446E+02 -0.17574926326E+02  0.59301962573E+02  0.50000033822E+02 0.  0.
        -12    1    1    2    0    0 -0.11496330561E+02  0.23993243446E+02  0.17574926326E+02  0.31886037427E+02  0.00000000000E+00 0.  1.
         11    1    3    3    0    0 -0.11342152516E+02 -0.60782296470E+01 -0.53460485820E+01  0.13934472901E+02  0.51100000000E-03 0. -1.
        -11    1    3    3    0    0 -0.33844556027E+00 -0.20670680346E+01  0.95856847492E+01  0.98118636369E+01  0.51100000000E-03 0.  1.
         12    1    3    3    0    0  0.23176928636E+02 -0.15847945765E+02 -0.21814562493E+02  0.35555626035E+02  0.00000000000E+00 0. -1.
</event>
<event>
 7    1  0.1324280E-011  0.5930190E+02  0.7816164E-02  0.1266605E+00
        -11   -1    0    0    0    0  0.00000000000E+00  0.00000000000E+00  0.45593999997E+02  0.45594000000E+02  0.51100000000E-03 0. -1.
         11   -1    0    0    0    0 -0.00000000000E+00 -0.00000000000E+00 -0.45593999997E+02  0.45594000000E+02  0.51100000000E-03 0.  1.
    9900012    2    1    2    0    0  0.27891474056E+02  0.15319521274E+02  0.20252012729E+01  0.59301898055E+02  0.49999916156E+02 0.  0.
        -12    1    1    2    0    0 -0.27891474056E+02 -0.15319521274E+02 -0.20252012729E+01  0.31886101945E+02  0.00000000000E+00 0.  1.
         11    1    3    3    0    0  0.64066481423E+01  0.16809398022E+02  0.14110324366E+01  0.18044168451E+02  0.51100000000E-03 0. -1.
        -11    1    3    3    0    0 -0.54917264987E+01  0.75757766334E+01 -0.71299193619E+01  0.11763808988E+02  0.51100000000E-03 0.  1.
        -12    1    3    3    0    0  0.26976552412E+02 -0.90656533818E+01  0.77440881982E+01  0.29493920616E+02  0.00000000000E+00 0.  1.
</event>
<event>
 7    1  0.1324280E-011  0.5930195E+02  0.7816164E-02  0.1266605E+00
        -11   -1    0    0    0    0  0.00000000000E+00  0.00000000000E+00  0.45593999997E+02  0.45594000000E+02  0.51100000000E-03 0. -1.
         11   -1    0    0    0    0 -0.00000000000E+00 -0.00000000000E+00 -0.45593999997E+02  0.45594000000E+02  0.51100000000E-03 0.  1.
    9900012    2    1    2    0    0 -0.23841793475E+02 -0.20994847092E+02 -0.27396319363E+01  0.59301948134E+02  0.50000007488E+02 0.  0.
        -12    1    1    2    0    0  0.23841793475E+02  0.20994847092E+02  0.27396319363E+01  0.31886051866E+02  0.00000000000E+00 0.  1.
         11    1    3    3    0    0 -0.23361120918E+02 -0.24695007942E+02 -0.12799598360E+02  0.36323754021E+02  0.51100000000E-03 0.  1.
        -11    1    3    3    0    0 -0.98913322807E+01  0.38546506156E+01  0.25006459716E+01  0.10906420870E+02  0.51100000000E-03 0. -1.
        -12    1    3    3    0    0  0.94106597238E+01 -0.15448976558E+00  0.75593204517E+01  0.12071773242E+02  0.00000000000E+00 0.  1.
</event>
<event>
 7    1  0.1324280E-011  0.5930194E+02  0.7816164E-02  0.1266605E+00
        -11   -1    0    0    0    0  0.00000000000E+00  0.00000000000E+00  0.45593999997E+02  0.45594000000E+02  0.51100000000E-03 0. -1.
         11   -1    0    0    0    0 -0.00000000000E+00 -0.00000000000E+00 -0.45593999997E+02  0.45594000000E+02  0.51100000000E-03 0.  1.
    9900012    2    1    2    0    0  0.20859798156E+02  0.13270654256E+02  0.20136512469E+02  0.59301943832E+02  0.49999999643E+02 0.  0.
        -12    1    1    2    0    0 -0.20859798156E+02 -0.13270654256E+02 -0.20136512469E+02  0.31886056168E+02  0.00000000000E+00 0.  1.
         11    1    3    3    0    0 -0.24606689144E+01 -0.82207729809E+00  0.10632868829E+01  0.28037977542E+01  0.51100000000E-03 0. -1.
        -11    1    3    3    0    0  0.16069374369E+02 -0.13686519283E+02 -0.15254918476E+01  0.21163003764E+02  0.51100000000E-03 0.  1.
         12    1    3    3    0    0  0.72510927022E+01  0.27779250837E+02  0.20598717434E+02  0.35335142314E+02  0.00000000000E+00 0. -1.
</event>
<event>
 7    1  0.1324280E-011  0.5930195E+02  0.7816164E-02  0.1266605E+00
        -11   -1    0    0    0    0  0.00000000000E+00  0.00000000000E+00  0.45593999997E+02  0.45594000000E+02  0.51100000000E-03 0.  1.
         11   -1    0    0    0    0 -0.00000000000E+00 -0.00000000000E+00 -0.45593999997E+02  0.45594000000E+02  0.51100000000E-03 0. -1.
    9900012    2    1    2    0    0  0.11360104899E+02  0.70427940810E+01 -0.28949390001E+02  0.59301951119E+02  0.50000012933E+02 0.  0.
        -12    1    1    2    0    0 -0.11360104899E+02 -0.70427940810E+01  0.28949390001E+02  0.31886048881E+02  0.00000000000E+00 0.  1.
         11    1    3    3    0    0  0.17129073746E+02 -0.58022503030E+01 -0.14638899335E+02  0.23267330100E+02  0.51100000000E-03 0. -1.
        -11    1    3    3    0    0  0.39183938908E+01 -0.47740187603E+01 -0.14678177779E+02  0.15924634030E+02  0.51100000000E-03 0.  1.
        -12    1    3    3    0    0 -0.96873627378E+01  0.17619063144E+02  0.36768711339E+00  0.20109986989E+02  0.00000000000E+00 0.  1.
</event>
<event>
 7    1  0.1324280E-011  0.5930193E+02  0.7816164E-02  0.1266605E+00
        -11   -1    0    0    0    0  0.00000000000E+00  0.00000000000E+00  0.45593999997E+02  0.45594000000E+02  0.51100000000E-03 0. -1.
         11   -1    0    0    0    0 -0.00000000000E+00 -0.00000000000E+00 -0.45593999997E+02  0.45594000000E+02  0.51100000000E-03 0.  1.
    9900012    2    1    2    0    0  0.22056277380E+02  0.22853919747E+02  0.28178465136E+01  0.59301932845E+02  0.49999979605E+02 0.  0.
        -12    1    1    2    0    0 -0.22056277380E+02 -0.22853919747E+02 -0.28178465136E+01  0.31886067155E+02  0.00000000000E+00 0.  1.
         11    1    3    3    0    0  0.37184605770E+01  0.16911499043E+02  0.29170225011E+01  0.17559463815E+02  0.51100000000E-03 0. -1.
        -11    1    3    3    0    0  0.29125720385E+02  0.48824580620E+01 -0.48135248121E+01  0.29921831596E+02  0.51100000000E-03 0.  1.
         12    1    3    3    0    0 -0.10787903582E+02  0.10599626423E+01  0.47143488246E+01  0.11820637434E+02  0.00000000000E+00 0. -1.
</event>
<event>
 7    1  0.1324280E-011  0.5930193E+02  0.7816164E-02  0.1266605E+00
        -11   -1    0    0    0    0  0.00000000000E+00  0.00000000000E+00  0.45593999997E+02  0.45594000000E+02  0.51100000000E-03 0.  1.
         11   -1    0    0    0    0 -0.00000000000E+00 -0.00000000000E+00 -0.45593999997E+02  0.45594000000E+02  0.51100000000E-03 0. -1.
    9900012    2    1    2    0    0 -0.28039280027E+01 -0.31397688423E+02  0.48004532904E+01  0.59301934041E+02  0.49999981786E+02 0.  0.
        -12    1    1    2    0    0  0.28039280027E+01  0.31397688423E+02 -0.48004532904E+01  0.31886065959E+02  0.00000000000E+00 0.  1.
         11    1    3    3    0    0  0.49711969567E+01 -0.14653986716E+02 -0.12567860601E+02  0.19934975450E+02  0.51100000000E-03 0. -1.
        -11    1    3    3    0    0 -0.98446846516E+01  0.66226168574E+01  0.55005856021E+01  0.13077970491E+02  0.51100000000E-03 0.  1.
         12    1    3    3    0    0  0.20695596921E+01 -0.23366318565E+02  0.11867728289E+02  0.26288988100E+02  0.00000000000E+00 0. -1.
</event>
<event>
 7    1  0.1324280E-011  0.5930197E+02  0.7816164E-02  0.1266605E+00
        -11   -1    0    0    0    0  0.00000000000E+00  0.00000000000E+00  0.45593999997E+02  0.45594000000E+02  0.51100000000E-03 0. -1.
         11   -1    0    0    0    0 -0.00000000000E+00 -0.00000000000E+00 -0.45593999997E+02  0.45594000000E+02  0.51100000000E-03 0.  1.
    9900012    2    1    2    0    0 -0.30547739263E+02  0.90573662438E+01  0.12323074018E+01  0.59301971102E+02  0.50000049376E+02 0.  0.
        -12    1    1    2    0    0  0.30547739263E+02 -0.90573662438E+01 -0.12323074018E+01  0.31886028898E+02  0.00000000000E+00 0.  1.
         11    1    3    3    0    0 -0.16044267326E+02  0.10435480440E+02 -0.68353087766E+01  0.20323366167E+02  0.51100000000E-03 0. -1.
        -11    1    3    3    0    0 -0.41919665306E+01  0.97800887852E+00 -0.13924729273E+02  0.14574881486E+02  0.51100000000E-03 0.  1.
         12    1    3    3    0    0 -0.10311505407E+02 -0.23561230743E+01  0.21992345451E+02  0.24403723448E+02  0.00000000000E+00 0. -1.
</event>
<event>
 7    1  0.1324280E-011  0.5930194E+02  0.7816164E-02  0.1266605E+00
        -11   -1    0    0    0    0  0.00000000000E+00  0.00000000000E+00  0.45593999997E+02  0.45594000000E+02  0.51100000000E-03 0. -1.
         11   -1    0    0    0    0 -0.00000000000E+00 -0.00000000000E+00 -0.45593999997E+02  0.45594000000E+02  0.51100000000E-03 0.  1.
    9900012    2    1    2    0    0 -0.10312801135E+02 -0.29848242099E+02  0.44101282812E+01  0.59301942622E+02  0.49999997436E+02 0.  0.
        -12    1    1    2    0    0  0.10312801135E+02  0.29848242099E+02 -0.44101282812E+01  0.31886057378E+02  0.00000000000E+00 0.  1.
         11    1    3    3    0    0 -0.13510125259E+02  0.53501046350E+01  0.34898526337E+01  0.14944101706E+02  0.51100000000E-03 0. -1.
        -11    1    3    3    0    0 -0.85585178707E+01 -0.65446939723E+01  0.69276833957E+01  0.12809139113E+02  0.51100000000E-03 0.  1.
        -12    1    3    3    0    0  0.11755841995E+02 -0.28653652762E+02 -0.60074077482E+01  0.31548701803E+02  0.00000000000E+00 0.  1.
</event>
<event>
 7    1  0.1324280E-011  0.5930191E+02  0.7816164E-02  0.1266605E+00
        -11   -1    0    0    0    0  0.00000000000E+00  0.00000000000E+00  0.45593999997E+02  0.45594000000E+02  0.51100000000E-03 0.  1.
         11   -1    0    0    0    0 -0.00000000000E+00 -0.00000000000E+00 -0.45593999997E+02  0.45594000000E+02  0.51100000000E-03 0. -1.
    9900012    2    1    2    0    0  0.84513706555E+01 -0.50782531762E+01 -0.30323400846E+02  0.59301906477E+02  0.49999931517E+02 0.  0.
        -12    1    1    2    0    0 -0.84513706555E+01  0.50782531762E+01  0.30323400846E+02  0.31886093523E+02  0.00000000000E+00 0.  1.
         11    1    3    3    0    0 -0.13461674853E+02 -0.78363992086E+00 -0.93296879690E+01  0.16397373546E+02  0.51100000000E-03 0. -1.
        -11    1    3    3    0    0  0.66609041988E+01 -0.94823718626E+01  0.47595175559E+01  0.12527411086E+02  0.51100000000E-03 0.  1.
         12    1    3    3    0    0  0.15252141309E+02  0.51877586073E+01 -0.25753230433E+02  0.30377121845E+02  0.00000000000E+00 0. -1.
</event>
<event>
 7    1  0.1324280E-011  0.5930195E+02  0.7816164E-02  0.1266605E+00
        -11   -1    0    0    0    0  0.00000000000E+00  0.00000000000E+00  0.45593999997E+02  0.45594000000E+02  0.51100000000E-03 0. -1.
         11   -1    0    0    0    0 -0.00000000000E+00 -0.00000000000E+00 -0.45593999997E+02  0.45594000000E+02  0.51100000000E-03 0.  1.
    9900012    2    1    2    0    0 -0.17255833636E+02 -0.12860375260E+02  0.23528013695E+02  0.59301945450E+02  0.50000002594E+02 0.  0.
        -12    1    1    2    0    0  0.17255833636E+02  0.12860375260E+02 -0.23528013695E+02  0.31886054550E+02  0.00000000000E+00 0.  1.
         11    1    3    3    0    0  0.52890245438E+01 -0.67537562254E+01  0.21443534802E+01  0.88422426955E+01  0.51100000000E-03 0. -1.
        -11    1    3    3    0    0  0.51148421200E+01 -0.94684029303E+01 -0.51975221380E+01  0.11951004167E+02  0.51100000000E-03 0.  1.
        -12    1    3    3    0    0 -0.27659700300E+02  0.33617838953E+01  0.26581182353E+02  0.38508698588E+02  0.00000000000E+00 0.  1.
</event>
<event>
 7    1  0.1324280E-011  0.5930193E+02  0.7816164E-02  0.1266605E+00
        -11   -1    0    0    0    0  0.00000000000E+00  0.00000000000E+00  0.45593999997E+02  0.45594000000E+02  0.51100000000E-03 0.  1.
         11   -1    0    0    0    0 -0.00000000000E+00 -0.00000000000E+00 -0.45593999997E+02  0.45594000000E+02  0.51100000000E-03 0. -1.
    9900012    2    1    2    0    0 -0.83172964569E+01  0.44259764870E+01 -0.30462353307E+02  0.59301926908E+02  0.49999968778E+02 0.  0.
        -12    1    1    2    0    0  0.83172964569E+01 -0.44259764870E+01  0.30462353307E+02  0.31886073092E+02  0.00000000000E+00 0.  1.
         11    1    3    3    0    0 -0.18568185455E+02  0.29472482057E+01  0.17617758949E+00  0.18801457973E+02  0.51100000000E-03 0.  1.
        -11    1    3    3    0    0  0.48223307395E+01 -0.19201154270E+01 -0.33199383685E+02  0.33602690284E+02  0.51100000000E-03 0. -1.
         12    1    3    3    0    0  0.54285582589E+01  0.33988437084E+01  0.25608527879E+01  0.68977786515E+01  0.00000000000E+00 0. -1.
</event>
<event>
 7    1  0.1324280E-011  0.5930200E+02  0.7816164E-02  0.1266605E+00
        -11   -1    0    0    0    0  0.00000000000E+00  0.00000000000E+00  0.45593999997E+02  0.45594000000E+02  0.51100000000E-03 0. -1.
         11   -1    0    0    0    0 -0.00000000000E+00 -0.00000000000E+00 -0.45593999997E+02  0.45594000000E+02  0.51100000000E-03 0.  1.
    9900012    2    1    2    0    0  0.22676647154E+02  0.18729389559E+02  0.12316513566E+02  0.59302002041E+02  0.50000105802E+02 0.  0.
        -12    1    1    2    0    0 -0.22676647154E+02 -0.18729389559E+02 -0.12316513566E+02  0.31885997959E+02  0.00000000000E+00 0.  1.
         11    1    3    3    0    0  0.15564026101E+02  0.25442688002E+02  0.16071688915E+02  0.33880207586E+02  0.51100000000E-03 0. -1.
        -11    1    3    3    0    0  0.11498969601E+02  0.43178575650E+01  0.16219143509E+01  0.12389544070E+02  0.51100000000E-03 0.  1.
        -12    1    3    3    0    0 -0.43863485475E+01 -0.11031156008E+02 -0.53770897002E+01  0.13032250385E+02  0.00000000000E+00 0.  1.
</event>
<event>
 7    1  0.1324280E-011  0.5930195E+02  0.7816164E-02  0.1266605E+00
        -11   -1    0    0    0    0  0.00000000000E+00  0.00000000000E+00  0.45593999997E+02  0.45594000000E+02  0.51100000000E-03 0. -1.
         11   -1    0    0    0    0 -0.00000000000E+00 -0.00000000000E+00 -0.45593999997E+02  0.45594000000E+02  0.51100000000E-03 0.  1.
    9900012    2    1    2    0    0 -0.18388788623E+02  0.16003857500E+02 -0.20553573822E+02  0.59301946642E+02  0.50000004768E+02 0.  0.
        -12    1    1    2    0    0  0.18388788623E+02 -0.16003857500E+02  0.20553573822E+02  0.31886053358E+02  0.00000000000E+00 0.  1.
         11    1    3    3    0    0  0.93082966329E+00  0.86768403188E+00  0.68958471457E+01  0.70122769169E+01  0.51100000000E-03 0. -1.
        -11    1    3    3    0    0 -0.13465464500E+02  0.26237879509E+02 -0.10727878194E+02  0.31382039866E+02  0.51100000000E-03 0.  1.
         12    1    3    3    0    0 -0.58541537857E+01 -0.11101706041E+02 -0.16721542774E+02  0.20907629859E+02  0.00000000000E+00 0. -1.
</event>
<event>
 7    1  0.1324280E-011  0.5930193E+02  0.7816164E-02  0.1266605E+00
        -11   -1    0    0    0    0  0.00000000000E+00  0.00000000000E+00  0.45593999997E+02  0.45594000000E+02  0.51100000000E-03 0. -1.
         11   -1    0    0    0    0 -0.00000000000E+00 -0.00000000000E+00 -0.45593999997E+02  0.45594000000E+02  0.51100000000E-03 0.  1.
    9900012    2    1    2    0    0  0.82259110814E+00  0.30192342942E+02  0.10220919022E+02  0.59301930720E+02  0.49999975730E+02 0.  0.
        -12    1    1    2    0    0 -0.82259110814E+00 -0.30192342942E+02 -0.10220919022E+02  0.31886069280E+02  0.00000000000E+00 0.  1.
         11    1    3    3    0    0  0.30610132891E+01  0.13995793966E+02  0.62160799582E+01  0.15617032413E+02  0.51100000000E-03 0. -1.
        -11    1    3    3    0    0 -0.80269512732E+01  0.28384727106E+02  0.58318849953E+01  0.30068847043E+02  0.51100000000E-03 0.  1.
         12    1    3    3    0    0  0.57885290923E+01 -0.12188178130E+02 -0.18270459319E+01  0.13616051264E+02  0.00000000000E+00 0. -1.
</event>
<event>
 7    1  0.1324280E-011  0.5930197E+02  0.7816164E-02  0.1266605E+00
        -11   -1    0    0    0    0  0.00000000000E+00  0.00000000000E+00  0.45593999997E+02  0.45594000000E+02  0.51100000000E-03 0.  1.
         11   -1    0    0    0    0 -0.00000000000E+00 -0.00000000000E+00 -0.45593999997E+02  0.45594000000E+02  0.51100000000E-03 0. -1.
    9900012    2    1    2    0    0 -0.10163681434E+02  0.27415529416E+02  0.12720356224E+02  0.59301966444E+02  0.50000040883E+02 0.  0.
        -12    1    1    2    0    0  0.10163681434E+02 -0.27415529416E+02 -0.12720356224E+02  0.31886033556E+02  0.00000000000E+00 0.  1.
         11    1    3    3    0    0 -0.24925203159E+02  0.25463517073E+02  0.30426869246E+01  0.35761912676E+02  0.51100000000E-03 0. -1.
        -11    1    3    3    0    0  0.74202973919E+00  0.59649448088E+01 -0.49283937087E-01  0.60111233453E+01  0.51100000000E-03 0.  1.
        -12    1    3    3    0    0  0.14019491986E+02 -0.40129324663E+01  0.97269532365E+01  0.17528930423E+02  0.00000000000E+00 0.  1.
</event>
<event>
 7    1  0.1324280E-011  0.5930194E+02  0.7816164E-02  0.1266605E+00
        -11   -1    0    0    0    0  0.00000000000E+00  0.00000000000E+00  0.45593999997E+02  0.45594000000E+02  0.51100000000E-03 0.  1.
         11   -1    0    0    0    0 -0.00000000000E+00 -0.00000000000E+00 -0.45593999997E+02  0.45594000000E+02  0.51100000000E-03 0. -1.
    9900012    2    1    2    0    0 -0.17540003666E+00 -0.17318822528E+02 -0.26772153398E+02  0.59301943855E+02  0.49999999684E+02 0.  0.
        -12    1    1    2    0    0  0.17540003666E+00  0.17318822528E+02  0.26772153398E+02  0.31886056145E+02  0.00000000000E+00 0.  1.
         11    1    3    3    0    0 -0.78695877778E+01 -0.16063930321E+02 -0.19295404848E+02  0.26311459816E+02  0.51100000000E-03 0. -1.
        -11    1    3    3    0    0 -0.36131043784E+01  0.99273848995E+01 -0.12450012057E+02  0.16328205494E+02  0.51100000000E-03 0.  1.
        -12    1    3    3    0    0  0.11307292120E+02 -0.11182277107E+02  0.49732635068E+01  0.16662278544E+02  0.00000000000E+00 0.  1.
</event>
<event>
 7    1  0.1324280E-011  0.5930197E+02  0.7816164E-02  0.1266605E+00
        -11   -1    0    0    0    0  0.00000000000E+00  0.00000000000E+00  0.45593999997E+02  0.45594000000E+02  0.51100000000E-03 0.  1.
         11   -1    0    0    0    0 -0.00000000000E+00 -0.00000000000E+00 -0.45593999997E+02  0.45594000000E+02  0.51100000000E-03 0. -1.
    9900012    2    1    2    0    0  0.17470273029E+02  0.17106079650E+02 -0.20466821030E+02  0.59301966007E+02  0.50000040085E+02 0.  0.
        -12    1    1    2    0    0 -0.17470273029E+02 -0.17106079650E+02  0.20466821030E+02  0.31886033993E+02  0.00000000000E+00 0.  1.
         11    1    3    3    0    0  0.10076733954E+02 -0.22538396288E+01 -0.21396438738E+02  0.23757692464E+02  0.51100000000E-03 0. -1.
        -11    1    3    3    0    0 -0.13447137400E+01  0.99221994696E+01 -0.13114865525E+02  0.16500242281E+02  0.51100000000E-03 0.  1.
        -12    1    3    3    0    0  0.87382528145E+01  0.94377198095E+01  0.14044483232E+02  0.19044031262E+02  0.00000000000E+00 0.  1.
</event>
<event>
 7    1  0.1324280E-011  0.5930194E+02  0.7816164E-02  0.1266605E+00
        -11   -1    0    0    0    0  0.00000000000E+00  0.00000000000E+00  0.45593999997E+02  0.45594000000E+02  0.51100000000E-03 0.  1.
         11   -1    0    0    0    0 -0.00000000000E+00 -0.00000000000E+00 -0.45593999997E+02  0.45594000000E+02  0.51100000000E-03 0. -1.
    9900012    2    1    2    0    0  0.25856813295E+02 -0.18629473297E+02 -0.10434237128E+01  0.59301940317E+02  0.49999993232E+02 0.  0.
        -12    1    1    2    0    0 -0.25856813295E+02  0.18629473297E+02  0.10434237128E+01  0.31886059683E+02  0.00000000000E+00 0.  1.
         11    1    3    3    0    0  0.23107573887E+02 -0.10770421468E+02 -0.55197681468E+01  0.26085049170E+02  0.51100000000E-03 0. -1.
        -11    1    3    3    0    0  0.13286725376E+02 -0.10848337492E+01  0.12553693589E+02  0.18311448836E+02  0.51100000000E-03 0.  1.
        -12    1    3    3    0    0 -0.10537485968E+02 -0.67742180793E+01 -0.80773491548E+01  0.14905442311E+02  0.00000000000E+00 0.  1.
</event>
<event>
 7    1  0.1324280E-011  0.5930197E+02  0.7816164E-02  0.1266605E+00
        -11   -1    0    0    0    0  0.00000000000E+00  0.00000000000E+00  0.45593999997E+02  0.45594000000E+02  0.51100000000E-03 0. -1.
         11   -1    0    0    0    0 -0.00000000000E+00 -0.00000000000E+00 -0.45593999997E+02  0.45594000000E+02  0.51100000000E-03 0.  1.
    9900012    2    1    2    0    0 -0.17746087894E+02  0.19575425683E+02  0.17849306362E+02  0.59301973847E+02  0.50000054383E+02 0.  0.
        -12    1    1    2    0    0  0.17746087894E+02 -0.19575425683E+02 -0.17849306362E+02  0.31886026153E+02  0.00000000000E+00 0.  1.
         11    1    3    3    0    0  0.89045933673E+01  0.13059300383E+02  0.14655545622E+02  0.21555095158E+02  0.51100000000E-03 0. -1.
        -11    1    3    3    0    0 -0.59405442036E+00 -0.32404424429E+01  0.87716669802E+01  0.93699258136E+01  0.51100000000E-03 0.  1.
         12    1    3    3    0    0 -0.26056626841E+02  0.97565677430E+01 -0.55779062403E+01  0.28376952876E+02  0.00000000000E+00 0. -1.
</event>
<event>
 7    1  0.1324280E-011  0.5930194E+02  0.7816164E-02  0.1266605E+00
        -11   -1    0    0    0    0  0.00000000000E+00  0.00000000000E+00  0.45593999997E+02  0.45594000000E+02  0.51100000000E-03 0. -1.
         11   -1    0    0    0    0 -0.00000000000E+00 -0.00000000000E+00 -0.45593999997E+02  0.45594000000E+02  0.51100000000E-03 0.  1.
    9900012    2    1    2    0    0 -0.15381136206E+02  0.16698186546E+02  0.22389994105E+02  0.59301943157E+02  0.49999998413E+02 0.  0.
        -12    1    1    2    0    0  0.15381136206E+02 -0.16698186546E+02 -0.22389994105E+02  0.31886056843E+02  0.00000000000E+00 0.  1.
         11    1    3    3    0    0 -0.10475903932E+02  0.12461629104E+01  0.54712404592E+01  0.11884105251E+02  0.51100000000E-03 0. -1.
        -11    1    3    3    0    0 -0.20840361512E+01 -0.33921936997E+01 -0.12080065192E+02  0.12719204381E+02  0.51100000000E-03 0.  1.
         12    1    3    3    0    0 -0.28211961232E+01  0.18844217335E+02  0.28998818838E+02  0.34698633526E+02  0.00000000000E+00 0. -1.
</event>
<event>
 7    1  0.1324280E-011  0.5930197E+02  0.7816164E-02  0.1266605E+00
        -11   -1    0    0    0    0  0.00000000000E+00  0.00000000000E+00  0.45593999997E+02  0.45594000000E+02  0.51100000000E-03 0.  1.
         11   -1    0    0    0    0 -0.00000000000E+00 -0.00000000000E+00 -0.45593999997E+02  0.45594000000E+02  0.51100000000E-03 0. -1.
    9900012    2    1    2    0    0 -0.59076045748E+01  0.81258760833E+01 -0.30262015290E+02  0.59301965073E+02  0.50000038382E+02 0.  0.
        -12    1    1    2    0    0  0.59076045748E+01 -0.81258760833E+01  0.30262015290E+02  0.31886034927E+02  0.00000000000E+00 0.  1.
         11    1    3    3    0    0 -0.10919148211E+02  0.48009016587E+01 -0.15949092635E+02  0.19916074174E+02  0.51100000000E-03 0. -1.
        -11    1    3    3    0    0  0.64456932465E+00  0.72577300561E+00  0.12276681427E+02  0.12314995866E+02  0.51100000000E-03 0.  1.
         12    1    3    3    0    0  0.43669743111E+01  0.25992014190E+01 -0.26589604082E+02  0.27070895033E+02  0.00000000000E+00 0. -1.
</event>
<event>
 7    1  0.1324280E-011  0.5930193E+02  0.7816164E-02  0.1266605E+00
        -11   -1    0    0    0    0  0.00000000000E+00  0.00000000000E+00  0.45593999997E+02  0.45594000000E+02  0.51100000000E-03 0. -1.
         11   -1    0    0    0    0 -0.00000000000E+00 -0.00000000000E+00 -0.45593999997E+02  0.45594000000E+02  0.51100000000E-03 0.  1.
    9900012    2    1    2    0    0 -0.55557359600E+01  0.47555945856E+01  0.31036099865E+02  0.59301931306E+02  0.49999976799E+02 0.  0.
        -12    1    1    2    0    0  0.55557359600E+01 -0.47555945856E+01 -0.31036099865E+02  0.31886068694E+02  0.00000000000E+00 0.  1.
         11    1    3    3    0    0  0.51208249984E+00 -0.63198073022E+01 -0.86216003262E+01  0.10702064533E+02  0.51100000000E-03 0. -1.
        -11    1    3    3    0    0 -0.13836771297E+01  0.14267818433E+02  0.79544991049E+01  0.16393878782E+02  0.51100000000E-03 0.  1.
         12    1    3    3    0    0 -0.46841413301E+01 -0.31924165455E+01  0.31703201086E+02  0.32205987991E+02  0.00000000000E+00 0. -1.
</event>
<event>
 7    1  0.1324280E-011  0.5930195E+02  0.7816164E-02  0.1266605E+00
        -11   -1    0    0    0    0  0.00000000000E+00  0.00000000000E+00  0.45593999997E+02  0.45594000000E+02  0.51100000000E-03 0.  1.
         11   -1    0    0    0    0 -0.00000000000E+00 -0.00000000000E+00 -0.45593999997E+02  0.45594000000E+02  0.51100000000E-03 0. -1.
    9900012    2    1    2    0    0 -0.18519409210E+02 -0.23023306524E+02 -0.11986616222E+02  0.59301950869E+02  0.50000012476E+02 0.  0.
        -12    1    1    2    0    0  0.18519409210E+02  0.23023306524E+02  0.11986616222E+02  0.31886049131E+02  0.00000000000E+00 0.  1.
         11    1    3    3    0    0  0.39342578497E+01  0.17747449394E+01 -0.16657574303E+02  0.17207640348E+02  0.51100000000E-03 0. -1.
        -11    1    3    3    0    0 -0.77548589094E+01 -0.25906845493E+02  0.20266677125E+01  0.27118441371E+02  0.51100000000E-03 0.  1.
        -12    1    3    3    0    0 -0.14698808150E+02  0.11087940302E+01  0.26442903684E+01  0.14975869150E+02  0.00000000000E+00 0.  1.
</event>
<event>
 7    1  0.1324280E-011  0.5930195E+02  0.7816164E-02  0.1266605E+00
        -11   -1    0    0    0    0  0.00000000000E+00  0.00000000000E+00  0.45593999997E+02  0.45594000000E+02  0.51100000000E-03 0. -1.
         11   -1    0    0    0    0 -0.00000000000E+00 -0.00000000000E+00 -0.45593999997E+02  0.45594000000E+02  0.51100000000E-03 0.  1.
    9900012    2    1    2    0    0  0.13103852972E+02  0.28957452721E+02 -0.25446253161E+01  0.59301950561E+02  0.50000011915E+02 0.  0.
        -12    1    1    2    0    0 -0.13103852972E+02 -0.28957452721E+02  0.25446253161E+01  0.31886049439E+02  0.00000000000E+00 0.  1.
         11    1    3    3    0    0  0.11674680400E+02  0.26301798747E+02  0.64612959591E+01  0.29492899578E+02  0.51100000000E-03 0. -1.
        -11    1    3    3    0    0  0.11050687159E+02 -0.80216514690E+01 -0.68446947473E+01  0.15274633397E+02  0.51100000000E-03 0.  1.
         12    1    3    3    0    0 -0.96215145863E+01  0.10677305443E+02 -0.21612265280E+01  0.14534417586E+02  0.00000000000E+00 0. -1.
</event>
<event>
 7    1  0.1324280E-011  0.5930206E+02  0.7816164E-02  0.1266604E+00
        -11   -1    0    0    0    0  0.00000000000E+00  0.00000000000E+00  0.45593999997E+02  0.45594000000E+02  0.51100000000E-03 0. -1.
         11   -1    0    0    0    0 -0.00000000000E+00 -0.00000000000E+00 -0.45593999997E+02  0.45594000000E+02  0.51100000000E-03 0.  1.
    9900012    2    1    2    0    0  0.22318588630E+02 -0.16772206210E+02 -0.15404122735E+02  0.59302058007E+02  0.50000207870E+02 0.  0.
        -12    1    1    2    0    0 -0.22318588630E+02  0.16772206210E+02  0.15404122735E+02  0.31885941993E+02  0.00000000000E+00 0.  1.
         11    1    3    3    0    0 -0.38532333188E+01  0.84662533145E+01  0.76158730624E+01  0.12021912284E+02  0.51100000000E-03 0. -1.
        -11    1    3    3    0    0  0.13171851743E+02 -0.22072376136E+01 -0.13971930321E+02  0.19328331883E+02  0.51100000000E-03 0.  1.
        -12    1    3    3    0    0  0.12999970205E+02 -0.23031221911E+02 -0.90480654756E+01  0.27951813839E+02  0.00000000000E+00 0.  1.
</event>
<event>
 7    1  0.1324280E-011  0.5930196E+02  0.7816164E-02  0.1266605E+00
        -11   -1    0    0    0    0  0.00000000000E+00  0.00000000000E+00  0.45593999997E+02  0.45594000000E+02  0.51100000000E-03 0.  1.
         11   -1    0    0    0    0 -0.00000000000E+00 -0.00000000000E+00 -0.45593999997E+02  0.45594000000E+02  0.51100000000E-03 0. -1.
    9900012    2    1    2    0    0  0.22412809718E+02  0.22620966592E+02 -0.16363299937E+01  0.59301956896E+02  0.50000023468E+02 0.  0.
        -12    1    1    2    0    0 -0.22412809718E+02 -0.22620966592E+02  0.16363299937E+01  0.31886043104E+02  0.00000000000E+00 0.  1.
         11    1    3    3    0    0  0.19576712119E+02 -0.55015675177E+01 -0.39887391081E+01  0.20722570846E+02  0.51100000000E-03 0. -1.
        -11    1    3    3    0    0 -0.47466107560E+01  0.75663403241E+01 -0.10015288853E+02  0.13419606203E+02  0.51100000000E-03 0.  1.
        -12    1    3    3    0    0  0.75827083544E+01  0.20556193785E+02  0.12367697967E+02  0.25159779847E+02  0.00000000000E+00 0.  1.
</event>
<event>
 7    1  0.1324280E-011  0.5930162E+02  0.7816164E-02  0.1266606E+00
        -11   -1    0    0    0    0  0.00000000000E+00  0.00000000000E+00  0.45593999997E+02  0.45594000000E+02  0.51100000000E-03 0.  1.
         11   -1    0    0    0    0 -0.00000000000E+00 -0.00000000000E+00 -0.45593999997E+02  0.45594000000E+02  0.51100000000E-03 0. -1.
    9900012    2    1    2    0    0 -0.68461290271E+01  0.21572075324E+02 -0.22461461540E+02  0.59301620918E+02  0.49999410722E+02 0.  0.
        -12    1    1    2    0    0  0.68461290271E+01 -0.21572075324E+02  0.22461461540E+02  0.31886379082E+02  0.00000000000E+00 0.  1.
         11    1    3    3    0    0 -0.12966615107E+02  0.10835258378E+02 -0.17055733480E+02  0.24009039469E+02  0.51100000000E-03 0. -1.
        -11    1    3    3    0    0 -0.10614916951E+02  0.14066418469E+02 -0.45878368220E+01  0.18209580922E+02  0.51100000000E-03 0.  1.
        -12    1    3    3    0    0  0.16735403031E+02 -0.33296015218E+01 -0.81789123836E+00  0.17083000526E+02  0.00000000000E+00 0.  1.
</event>
<event>
 7    1  0.1324280E-011  0.5930194E+02  0.7816164E-02  0.1266605E+00
        -11   -1    0    0    0    0  0.00000000000E+00  0.00000000000E+00  0.45593999997E+02  0.45594000000E+02  0.51100000000E-03 0.  1.
         11   -1    0    0    0    0 -0.00000000000E+00 -0.00000000000E+00 -0.45593999997E+02  0.45594000000E+02  0.51100000000E-03 0. -1.
    9900012    2    1    2    0    0 -0.15376557567E+02  0.13694879834E+02 -0.24346104467E+02  0.59301936289E+02  0.49999985886E+02 0.  0.
        -12    1    1    2    0    0  0.15376557567E+02 -0.13694879834E+02  0.24346104467E+02  0.31886063711E+02  0.00000000000E+00 0.  1.
         11    1    3    3    0    0 -0.40444963845E+01 -0.40972254275E+01 -0.27027359157E+02  0.27633735731E+02  0.51100000000E-03 0. -1.
        -11    1    3    3    0    0  0.50478815601E+01  0.20129770748E+01  0.66421246190E+01  0.85820163519E+01  0.51100000000E-03 0.  1.
        -12    1    3    3    0    0 -0.16379942743E+02  0.15779128187E+02 -0.39608699289E+01  0.23086184206E+02  0.00000000000E+00 0.  1.
</event>
<event>
 7    1  0.1324280E-011  0.5930195E+02  0.7816164E-02  0.1266605E+00
        -11   -1    0    0    0    0  0.00000000000E+00  0.00000000000E+00  0.45593999997E+02  0.45594000000E+02  0.51100000000E-03 0.  1.
         11   -1    0    0    0    0 -0.00000000000E+00 -0.00000000000E+00 -0.45593999997E+02  0.45594000000E+02  0.51100000000E-03 0. -1.
    9900012    2    1    2    0    0 -0.10720112568E+02  0.10749387715E+02 -0.28040148716E+02  0.59301951488E+02  0.50000013605E+02 0.  0.
        -12    1    1    2    0    0  0.10720112568E+02 -0.10749387715E+02  0.28040148716E+02  0.31886048512E+02  0.00000000000E+00 0.  1.
         11    1    3    3    0    0 -0.18051096512E+02  0.23316948464E+02 -0.19128318635E+02  0.35148467179E+02  0.51100000000E-03 0. -1.
        -11    1    3    3    0    0 -0.25476125972E+01  0.28803940337E+01 -0.19441117930E+00  0.38502981316E+01  0.51100000000E-03 0.  1.
        -12    1    3    3    0    0  0.98785965418E+01 -0.15447954783E+02 -0.87174189014E+01  0.20303186177E+02  0.00000000000E+00 0.  1.
</event>
<event>
 7    1  0.1324280E-011  0.5930192E+02  0.7816164E-02  0.1266605E+00
        -11   -1    0    0    0    0  0.00000000000E+00  0.00000000000E+00  0.45593999997E+02  0.45594000000E+02  0.51100000000E-03 0.  1.
         11   -1    0    0    0    0 -0.00000000000E+00 -0.00000000000E+00 -0.45593999997E+02  0.45594000000E+02  0.51100000000E-03 0. -1.
    9900012    2    1    2    0    0 -0.23450798717E+02 -0.17377716101E+02 -0.12837339283E+02  0.59301917499E+02  0.49999951619E+02 0.  0.
        -12    1    1    2    0    0  0.23450798717E+02  0.17377716101E+02  0.12837339283E+02  0.31886082501E+02  0.00000000000E+00 0.  1.
         11    1    3    3    0    0 -0.14405242590E+02 -0.90869041205E+01 -0.19013771805E+02  0.25526581422E+02  0.51100000000E-03 0. -1.
        -11    1    3    3    0    0 -0.10770717348E+02 -0.13869225387E+02 -0.73545689321E+01  0.19038210248E+02  0.51100000000E-03 0.  1.
        -12    1    3    3    0    0  0.17251612200E+01  0.55784134066E+01  0.13531001454E+02  0.14737125830E+02  0.00000000000E+00 0.  1.
</event>
<event>
 7    1  0.1324280E-011  0.5930195E+02  0.7816164E-02  0.1266605E+00
        -11   -1    0    0    0    0  0.00000000000E+00  0.00000000000E+00  0.45593999997E+02  0.45594000000E+02  0.51100000000E-03 0.  1.
         11   -1    0    0    0    0 -0.00000000000E+00 -0.00000000000E+00 -0.45593999997E+02  0.45594000000E+02  0.51100000000E-03 0. -1.
    9900012    2    1    2    0    0 -0.35485528585E+01  0.92104429788E+01 -0.30319894322E+02  0.59301945384E+02  0.50000002474E+02 0.  0.
        -12    1    1    2    0    0  0.35485528585E+01 -0.92104429788E+01  0.30319894322E+02  0.31886054616E+02  0.00000000000E+00 0.  1.
         11    1    3    3    0    0 -0.16573749182E+01  0.21775996465E+02 -0.20266542658E+02  0.29793852809E+02  0.51100000000E-03 0. -1.
        -11    1    3    3    0    0  0.28428227621E+01  0.40822832398E+01 -0.11105028391E+02  0.12168333227E+02  0.51100000000E-03 0.  1.
        -12    1    3    3    0    0 -0.47340007024E+01 -0.16647836726E+02  0.10516767268E+01  0.17339759348E+02  0.00000000000E+00 0.  1.
</event>
<event>
 7    1 -0.1324280E-011  0.5930194E+02  0.7816164E-02  0.1266605E+00
        -11   -1    0    0    0    0  0.00000000000E+00  0.00000000000E+00  0.45593999997E+02  0.45594000000E+02  0.51100000000E-03 0.  1.
         11   -1    0    0    0    0 -0.00000000000E+00 -0.00000000000E+00 -0.45593999997E+02  0.45594000000E+02  0.51100000000E-03 0. -1.
    9900012    2    1    2    0    0 -0.19979820124E+02 -0.23409193566E+02  0.83389138578E+01  0.59301936588E+02  0.49999986431E+02 0.  0.
        -12    1    1    2    0    0  0.19979820124E+02  0.23409193566E+02 -0.83389138578E+01  0.31886063412E+02  0.00000000000E+00 0.  1.
         11    1    3    3    0    0  0.92036109546E+00  0.72463394196E+00  0.87212017107E-02  0.11714244390E+01  0.51100000000E-03 0. -1.
        -11    1    3    3    0    0 -0.19962129166E+02 -0.92309136824E+01  0.26613016055E+02  0.34524614293E+02  0.51100000000E-03 0.  1.
        -12    1    3    3    0    0 -0.93805205324E+00 -0.14902913826E+02 -0.18282823399E+02  0.23605897856E+02  0.00000000000E+00 0.  1.
</event>
<event>
 7    1  0.1324280E-011  0.5930194E+02  0.7816164E-02  0.1266605E+00
        -11   -1    0    0    0    0  0.00000000000E+00  0.00000000000E+00  0.45593999997E+02  0.45594000000E+02  0.51100000000E-03 0.  1.
         11   -1    0    0    0    0 -0.00000000000E+00 -0.00000000000E+00 -0.45593999997E+02  0.45594000000E+02  0.51100000000E-03 0. -1.
    9900012    2    1    2    0    0 -0.58865491036E+00  0.98809785994E+01 -0.30310732038E+02  0.59301941458E+02  0.49999995314E+02 0.  0.
        -12    1    1    2    0    0  0.58865491036E+00 -0.98809785994E+01  0.30310732038E+02  0.31886058542E+02  0.00000000000E+00 0.  1.
         11    1    3    3    0    0  0.74838879941E+01 -0.67398114809E+00 -0.10796134813E+02  0.13153682270E+02  0.51100000000E-03 0. -1.
        -11    1    3    3    0    0 -0.87342001099E+01  0.13875471385E+02 -0.30513835615E+02  0.34639704415E+02  0.51100000000E-03 0.  1.
        -12    1    3    3    0    0  0.66165720543E+00 -0.33205116375E+01  0.10999238391E+02  0.11508554773E+02  0.00000000000E+00 0.  1.
</event>
<event>
 7    1  0.1324280E-011  0.5930194E+02  0.7816164E-02  0.1266605E+00
        -11   -1    0    0    0    0  0.00000000000E+00  0.00000000000E+00  0.45593999997E+02  0.45594000000E+02  0.51100000000E-03 0. -1.
         11   -1    0    0    0    0 -0.00000000000E+00 -0.00000000000E+00 -0.45593999997E+02  0.45594000000E+02  0.51100000000E-03 0.  1.
    9900012    2    1    2    0    0  0.20201269678E+02  0.11342116281E+02  0.21908583139E+02  0.59301938571E+02  0.49999990048E+02 0.  0.
        -12    1    1    2    0    0 -0.20201269678E+02 -0.11342116281E+02 -0.21908583139E+02  0.31886061429E+02  0.00000000000E+00 0.  1.
         11    1    3    3    0    0  0.13964630898E+02  0.47502043016E+01 -0.34417795007E+01  0.15146656510E+02  0.51100000000E-03 0. -1.
        -11    1    3    3    0    0  0.54405050340E-01 -0.81857284569E+00 -0.87128357262E+01  0.87513729246E+01  0.51100000000E-03 0.  1.
         12    1    3    3    0    0  0.61822337292E+01  0.74104848251E+01  0.34063198366E+02  0.35403909136E+02  0.00000000000E+00 0. -1.
</event>
<event>
 7    1  0.1324280E-011  0.5930195E+02  0.7816164E-02  0.1266605E+00
        -11   -1    0    0    0    0  0.00000000000E+00  0.00000000000E+00  0.45593999997E+02  0.45594000000E+02  0.51100000000E-03 0. -1.
         11   -1    0    0    0    0 -0.00000000000E+00 -0.00000000000E+00 -0.45593999997E+02  0.45594000000E+02  0.51100000000E-03 0.  1.
    9900012    2    1    2    0    0 -0.12645365044E+02 -0.24105765830E+02  0.16605025853E+02  0.59301951531E+02  0.50000013685E+02 0.  0.
        -12    1    1    2    0    0  0.12645365044E+02  0.24105765830E+02 -0.16605025853E+02  0.31886048469E+02  0.00000000000E+00 0.  1.
         11    1    3    3    0    0  0.72921122027E+00  0.22333604463E+01 -0.74722004099E+01  0.78328428500E+01  0.51100000000E-03 0.  1.
        -11    1    3    3    0    0 -0.24872590152E+02 -0.20811124857E+02  0.14542662215E+02  0.35542055136E+02  0.51100000000E-03 0. -1.
         12    1    3    3    0    0  0.11498013888E+02 -0.55280014189E+01  0.95345640482E+01  0.15927053545E+02  0.00000000000E+00 0. -1.
</event>
<event>
 7    1  0.1729879E-011  0.5930191E+02  0.7816164E-02  0.1266605E+00
        -11   -1    0    0    0    0  0.00000000000E+00  0.00000000000E+00  0.45593999997E+02  0.45594000000E+02  0.51100000000E-03 0. -1.
         11   -1    0    0    0    0 -0.00000000000E+00 -0.00000000000E+00 -0.45593999997E+02  0.45594000000E+02  0.51100000000E-03 0.  1.
    9900012    2    1    2    0    0 -0.41372853776E+01 -0.31442330648E+02  0.33144683940E+01  0.59301906046E+02  0.49999930731E+02 0.  0.
        -12    1    1    2    0    0  0.41372853776E+01  0.31442330648E+02 -0.33144683940E+01  0.31886093954E+02  0.00000000000E+00 0.  1.
         11    1    3    3    0    0  0.14525414496E-02 -0.21598499082E+01  0.64719522388E+01  0.68228381029E+01  0.51100000000E-03 0. -1.
        -11    1    3    3    0    0  0.10506704340E+02  0.64816537703E+01  0.43897468970E+01  0.13102387178E+02  0.51100000000E-03 0.  1.
         12    1    3    3    0    0 -0.14645442259E+02 -0.35764134510E+02 -0.75472307418E+01  0.39376680765E+02  0.00000000000E+00 0. -1.
</event>
<event>
 7    1  0.1324280E-011  0.5930195E+02  0.7816164E-02  0.1266605E+00
        -11   -1    0    0    0    0  0.00000000000E+00  0.00000000000E+00  0.45593999997E+02  0.45594000000E+02  0.51100000000E-03 0.  1.
         11   -1    0    0    0    0 -0.00000000000E+00 -0.00000000000E+00 -0.45593999997E+02  0.45594000000E+02  0.51100000000E-03 0. -1.
    9900012    2    1    2    0    0 -0.14267666901E+01 -0.29132755552E+02 -0.12882810337E+02  0.59301954283E+02  0.50000018704E+02 0.  0.
        -12    1    1    2    0    0  0.14267666901E+01  0.29132755552E+02  0.12882810337E+02  0.31886045717E+02  0.00000000000E+00 0.  1.
         11    1    3    3    0    0  0.10624957248E+02 -0.17100247551E+02 -0.12884111698E+02  0.23902060943E+02  0.51100000000E-03 0. -1.
        -11    1    3    3    0    0  0.86456378637E+01 -0.11639454881E+02  0.18489091707E+01  0.14616512217E+02  0.51100000000E-03 0.  1.
        -12    1    3    3    0    0 -0.20697361802E+02 -0.39305312022E+00 -0.18476078100E+01  0.20783381124E+02  0.00000000000E+00 0.  1.
</event>
<event>
 7    1  0.1324280E-011  0.5930194E+02  0.7816164E-02  0.1266605E+00
        -11   -1    0    0    0    0  0.00000000000E+00  0.00000000000E+00  0.45593999997E+02  0.45594000000E+02  0.51100000000E-03 0. -1.
         11   -1    0    0    0    0 -0.00000000000E+00 -0.00000000000E+00 -0.45593999997E+02  0.45594000000E+02  0.51100000000E-03 0.  1.
    9900012    2    1    2    0    0  0.30208734377E+02  0.83659539833E+01  0.58450151512E+01  0.59301936887E+02  0.49999986978E+02 0.  0.
        -12    1    1    2    0    0 -0.30208734377E+02 -0.83659539833E+01 -0.58450151512E+01  0.31886063113E+02  0.00000000000E+00 0.  1.
         11    1    3    3    0    0  0.73829070036E+01  0.25528472390E+02  0.92310099318E+01  0.28132219305E+02  0.51100000000E-03 0. -1.
        -11    1    3    3    0    0  0.22372639340E+01 -0.10463071011E+01 -0.43539055964E+01  0.50056570661E+01  0.51100000000E-03 0.  1.
        -12    1    3    3    0    0  0.20588563439E+02 -0.16116211306E+02  0.96791081585E+00  0.26164060516E+02  0.00000000000E+00 0.  1.
</event>
<event>
 7    1  0.1441102E-011  0.5930198E+02  0.7816164E-02  0.1266605E+00
        -11   -1    0    0    0    0  0.00000000000E+00  0.00000000000E+00  0.45593999997E+02  0.45594000000E+02  0.51100000000E-03 0. -1.
         11   -1    0    0    0    0 -0.00000000000E+00 -0.00000000000E+00 -0.45593999997E+02  0.45594000000E+02  0.51100000000E-03 0.  1.
    9900012    2    1    2    0    0  0.18945513497E+02  0.28380683973E+00  0.25645770352E+02  0.59301975398E+02  0.50000057211E+02 0.  0.
        -12    1    1    2    0    0 -0.18945513497E+02 -0.28380683973E+00 -0.25645770352E+02  0.31886024602E+02  0.00000000000E+00 0.  1.
         11    1    3    3    0    0 -0.29362354707E+01  0.15609137082E+01  0.29324191599E+01  0.44336229806E+01  0.51100000000E-03 0. -1.
        -11    1    3    3    0    0 -0.54196669996E+01 -0.93107397544E+00 -0.10512064578E+02  0.11863523552E+02  0.51100000000E-03 0.  1.
         12    1    3    3    0    0  0.27301415968E+02 -0.34603289302E+00  0.33225415770E+02  0.43004828865E+02  0.00000000000E+00 0. -1.
</event>
<event>
 7    1  0.1324280E-011  0.5930193E+02  0.7816164E-02  0.1266605E+00
        -11   -1    0    0    0    0  0.00000000000E+00  0.00000000000E+00  0.45593999997E+02  0.45594000000E+02  0.51100000000E-03 0.  1.
         11   -1    0    0    0    0 -0.00000000000E+00 -0.00000000000E+00 -0.45593999997E+02  0.45594000000E+02  0.51100000000E-03 0. -1.
    9900012    2    1    2    0    0 -0.20877195292E+01  0.10145241726E+02 -0.30156867801E+02  0.59301934422E+02  0.49999982481E+02 0.  0.
        -12    1    1    2    0    0  0.20877195292E+01 -0.10145241726E+02  0.30156867801E+02  0.31886065578E+02  0.00000000000E+00 0.  1.
         11    1    3    3    0    0  0.35101413647E+01  0.10880691421E+02 -0.41761476675E+01  0.12171719180E+02  0.51100000000E-03 0. -1.
        -11    1    3    3    0    0  0.13725176208E+02 -0.59390203452E+01 -0.81402360231E+00  0.14977151241E+02  0.51100000000E-03 0.  1.
         12    1    3    3    0    0 -0.19323037102E+02  0.52035706498E+01 -0.25166696531E+02  0.32153064001E+02  0.00000000000E+00 0. -1.
</event>
<event>
 7    1  0.1324280E-011  0.5930187E+02  0.7816164E-02  0.1266605E+00
        -11   -1    0    0    0    0  0.00000000000E+00  0.00000000000E+00  0.45593999997E+02  0.45594000000E+02  0.51100000000E-03 0.  1.
         11   -1    0    0    0    0 -0.00000000000E+00 -0.00000000000E+00 -0.45593999997E+02  0.45594000000E+02  0.51100000000E-03 0. -1.
    9900012    2    1    2    0    0  0.77755361153E+00 -0.56356343594E+00 -0.31871665406E+02  0.59301870584E+02  0.49999866057E+02 0.  0.
        -12    1    1    2    0    0 -0.77755361153E+00  0.56356343594E+00  0.31871665406E+02  0.31886129416E+02  0.00000000000E+00 0.  1.
         11    1    3    3    0    0  0.34352761076E+01  0.92823756433E+01 -0.25640939103E+02  0.27484930014E+02  0.51100000000E-03 0. -1.
        -11    1    3    3    0    0 -0.40472278016E+01 -0.17125935752E+02 -0.12921518251E+02  0.21832163485E+02  0.51100000000E-03 0.  1.
        -12    1    3    3    0    0  0.13895053055E+01  0.72799966728E+01  0.66907919485E+01  0.99847770855E+01  0.00000000000E+00 0.  1.
</event>
<event>
 7    1  0.1324280E-011  0.5930195E+02  0.7816164E-02  0.1266605E+00
        -11   -1    0    0    0    0  0.00000000000E+00  0.00000000000E+00  0.45593999997E+02  0.45594000000E+02  0.51100000000E-03 0.  1.
         11   -1    0    0    0    0 -0.00000000000E+00 -0.00000000000E+00 -0.45593999997E+02  0.45594000000E+02  0.51100000000E-03 0. -1.
    9900012    2    1    2    0    0  0.99653722694E+00 -0.28422448977E+02 -0.14418435437E+02  0.59301953322E+02  0.50000016951E+02 0.  0.
        -12    1    1    2    0    0 -0.99653722694E+00  0.28422448977E+02  0.14418435437E+02  0.31886046678E+02  0.00000000000E+00 0.  1.
         11    1    3    3    0    0  0.75746779381E+01 -0.22168854749E+02 -0.19039430681E+02  0.30188305479E+02  0.51100000000E-03 0. -1.
        -11    1    3    3    0    0  0.10151930758E+02 -0.48733766189E+01 -0.12488030060E+01  0.11330092982E+02  0.51100000000E-03 0.  1.
        -12    1    3    3    0    0 -0.16730071469E+02 -0.13802176092E+01  0.58697982500E+01  0.17783554861E+02  0.00000000000E+00 0.  1.
</event>
<event>
 7    1  0.1324280E-011  0.5930197E+02  0.7816164E-02  0.1266605E+00
        -11   -1    0    0    0    0  0.00000000000E+00  0.00000000000E+00  0.45593999997E+02  0.45594000000E+02  0.51100000000E-03 0.  1.
         11   -1    0    0    0    0 -0.00000000000E+00 -0.00000000000E+00 -0.45593999997E+02  0.45594000000E+02  0.51100000000E-03 0. -1.
    9900012    2    1    2    0    0  0.21160360580E+02 -0.14736336965E+02 -0.18756292470E+02  0.59301968666E+02  0.50000044934E+02 0.  0.
        -12    1    1    2    0    0 -0.21160360580E+02  0.14736336965E+02  0.18756292470E+02  0.31886031334E+02  0.00000000000E+00 0.  1.
         11    1    3    3    0    0 -0.24784546699E+01  0.11063859997E+01 -0.19228662158E+02  0.19419275892E+02  0.51100000000E-03 0. -1.
        -11    1    3    3    0    0 -0.31339940221E+01  0.48313151050E+01  0.17913959134E+01  0.60309720406E+01  0.51100000000E-03 0.  1.
         12    1    3    3    0    0  0.26772809272E+02 -0.20674038070E+02 -0.13190262253E+01  0.33851720733E+02  0.00000000000E+00 0. -1.
</event>
<event>
 7    1  0.1324280E-011  0.5930195E+02  0.7816164E-02  0.1266605E+00
        -11   -1    0    0    0    0  0.00000000000E+00  0.00000000000E+00  0.45593999997E+02  0.45594000000E+02  0.51100000000E-03 0. -1.
         11   -1    0    0    0    0 -0.00000000000E+00 -0.00000000000E+00 -0.45593999997E+02  0.45594000000E+02  0.51100000000E-03 0.  1.
    9900012    2    1    2    0    0  0.15365574381E+02  0.13317741200E+02  0.24561295648E+02  0.59301947396E+02  0.50000006143E+02 0.  0.
        -12    1    1    2    0    0 -0.15365574381E+02 -0.13317741200E+02 -0.24561295648E+02  0.31886052604E+02  0.00000000000E+00 0.  1.
         11    1    3    3    0    0  0.30315478834E+01 -0.11505688796E+02  0.13550963809E+01  0.11975284703E+02  0.51100000000E-03 0. -1.
        -11    1    3    3    0    0 -0.19167298303E+01  0.10206705050E+02 -0.57709273447E+01  0.11880836835E+02  0.51100000000E-03 0.  1.
         12    1    3    3    0    0  0.14250756328E+02  0.14616724947E+02  0.28977126612E+02  0.35445825859E+02  0.00000000000E+00 0. -1.
</event>
<event>
 7    1  0.1324280E-011  0.5930195E+02  0.7816164E-02  0.1266605E+00
        -11   -1    0    0    0    0  0.00000000000E+00  0.00000000000E+00  0.45593999997E+02  0.45594000000E+02  0.51100000000E-03 0.  1.
         11   -1    0    0    0    0 -0.00000000000E+00 -0.00000000000E+00 -0.45593999997E+02  0.45594000000E+02  0.51100000000E-03 0. -1.
    9900012    2    1    2    0    0 -0.65030692964E+00  0.31856405218E+02 -0.12110905062E+01  0.59301949873E+02  0.50000010660E+02 0.  0.
        -12    1    1    2    0    0  0.65030692964E+00 -0.31856405218E+02  0.12110905062E+01  0.31886050127E+02  0.00000000000E+00 0.  1.
         11    1    3    3    0    0 -0.56202282720E+01  0.43658672480E+01  0.11634123322E+02  0.13638203268E+02  0.51100000000E-03 0. -1.
        -11    1    3    3    0    0 -0.84107004926E+01  0.22040380274E+02  0.34994344417E+01  0.23848779572E+02  0.51100000000E-03 0.  1.
         12    1    3    3    0    0  0.13380621835E+02  0.54501576963E+01 -0.16344648270E+02  0.21814967033E+02  0.00000000000E+00 0. -1.
</event>
<event>
 7    1  0.1324280E-011  0.5930193E+02  0.7816164E-02  0.1266605E+00
        -11   -1    0    0    0    0  0.00000000000E+00  0.00000000000E+00  0.45593999997E+02  0.45594000000E+02  0.51100000000E-03 0.  1.
         11   -1    0    0    0    0 -0.00000000000E+00 -0.00000000000E+00 -0.45593999997E+02  0.45594000000E+02  0.51100000000E-03 0. -1.
    9900012    2    1    2    0    0 -0.13963397499E+02  0.28194173739E+02  0.51801310559E+01  0.59301926860E+02  0.49999968690E+02 0.  0.
        -12    1    1    2    0    0  0.13963397499E+02 -0.28194173739E+02 -0.51801310559E+01  0.31886073140E+02  0.00000000000E+00 0.  1.
         11    1    3    3    0    0 -0.10371358844E+02  0.11110402995E+02  0.12209553078E+02  0.19495623242E+02  0.51100000000E-03 0. -1.
        -11    1    3    3    0    0  0.89807629936E+00 -0.49268889876E+01  0.10287994638E+02  0.11442185546E+02  0.51100000000E-03 0.  1.
         12    1    3    3    0    0 -0.44901149543E+01  0.22010659732E+02 -0.17317416661E+02  0.28364118071E+02  0.00000000000E+00 0. -1.
</event>
<event>
 7    1  0.1324280E-011  0.5930193E+02  0.7816164E-02  0.1266605E+00
        -11   -1    0    0    0    0  0.00000000000E+00  0.00000000000E+00  0.45593999997E+02  0.45594000000E+02  0.51100000000E-03 0. -1.
         11   -1    0    0    0    0 -0.00000000000E+00 -0.00000000000E+00 -0.45593999997E+02  0.45594000000E+02  0.51100000000E-03 0.  1.
    9900012    2    1    2    0    0  0.21990396133E+02 -0.15940418912E+02  0.16704699670E+02  0.59301929872E+02  0.49999974182E+02 0.  0.
        -12    1    1    2    0    0 -0.21990396133E+02  0.15940418912E+02 -0.16704699670E+02  0.31886070128E+02  0.00000000000E+00 0.  1.
         11    1    3    3    0    0  0.10353037932E+02 -0.35958663487E+00  0.19110109672E+02  0.21737317886E+02  0.51100000000E-03 0. -1.
        -11    1    3    3    0    0  0.12879349596E+02 -0.32717277433E+01  0.12465698901E+02  0.18220194779E+02  0.51100000000E-03 0.  1.
        -12    1    3    3    0    0 -0.12419913945E+01 -0.12309104534E+02 -0.14871108903E+02  0.19344417206E+02  0.00000000000E+00 0.  1.
</event>
<event>
 7    1  0.1324280E-011  0.5930194E+02  0.7816164E-02  0.1266605E+00
        -11   -1    0    0    0    0  0.00000000000E+00  0.00000000000E+00  0.45593999997E+02  0.45594000000E+02  0.51100000000E-03 0.  1.
         11   -1    0    0    0    0 -0.00000000000E+00 -0.00000000000E+00 -0.45593999997E+02  0.45594000000E+02  0.51100000000E-03 0. -1.
    9900012    2    1    2    0    0 -0.76299855436E+01 -0.10704711504E+02 -0.29050186215E+02  0.59301939615E+02  0.49999991952E+02 0.  0.
        -12    1    1    2    0    0  0.76299855436E+01  0.10704711504E+02  0.29050186215E+02  0.31886060385E+02  0.00000000000E+00 0.  1.
         11    1    3    3    0    0  0.15043358001E+02 -0.90242902426E+01 -0.39660854029E+01  0.17985279203E+02  0.51100000000E-03 0.  1.
        -11    1    3    3    0    0  0.22138741313E+01  0.63041162420E+01 -0.46542899525E+01  0.81428211011E+01  0.51100000000E-03 0. -1.
        -12    1    3    3    0    0 -0.24887217676E+02 -0.79845375033E+01 -0.20429810860E+02  0.33173839310E+02  0.00000000000E+00 0.  1.
</event>
<event>
 7    1  0.1324280E-011  0.5930191E+02  0.7816164E-02  0.1266605E+00
        -11   -1    0    0    0    0  0.00000000000E+00  0.00000000000E+00  0.45593999997E+02  0.45594000000E+02  0.51100000000E-03 0.  1.
         11   -1    0    0    0    0 -0.00000000000E+00 -0.00000000000E+00 -0.45593999997E+02  0.45594000000E+02  0.51100000000E-03 0. -1.
    9900012    2    1    2    0    0  0.21650602062E+02  0.17515879502E+02 -0.15529597418E+02  0.59301905847E+02  0.49999930367E+02 0.  0.
        -12    1    1    2    0    0 -0.21650602062E+02 -0.17515879502E+02  0.15529597418E+02  0.31886094153E+02  0.00000000000E+00 0.  1.
         11    1    3    3    0    0  0.22202314408E+01 -0.58272344129E+01  0.15215431395E+01  0.64188147146E+01  0.51100000000E-03 0. -1.
        -11    1    3    3    0    0  0.25572224454E+02  0.70724385711E+01  0.25788820483E+01  0.26657244489E+02  0.51100000000E-03 0.  1.
         12    1    3    3    0    0 -0.61418538326E+01  0.16270675344E+02 -0.19630022606E+02  0.26225846643E+02  0.00000000000E+00 0. -1.
</event>
<event>
 7    1  0.1909474E-011  0.5930197E+02  0.7816164E-02  0.1266605E+00
        -11   -1    0    0    0    0  0.00000000000E+00  0.00000000000E+00  0.45593999997E+02  0.45594000000E+02  0.51100000000E-03 0. -1.
         11   -1    0    0    0    0 -0.00000000000E+00 -0.00000000000E+00 -0.45593999997E+02  0.45594000000E+02  0.51100000000E-03 0.  1.
    9900012    2    1    2    0    0  0.23021403280E+02  0.10099473272E+02  0.19614643897E+02  0.59301974463E+02  0.50000055506E+02 0.  0.
        -12    1    1    2    0    0 -0.23021403280E+02 -0.10099473272E+02 -0.19614643897E+02  0.31886025537E+02  0.00000000000E+00 0.  1.
         11    1    3    3    0    0  0.48782991838E+01  0.47423066606E+01  0.17480121103E+02  0.18757449439E+02  0.51100000000E-03 0. -1.
        -11    1    3    3    0    0 -0.69897287834E+01  0.48786557976E+01 -0.95700450446E+01  0.12815746302E+02  0.51100000000E-03 0.  1.
         12    1    3    3    0    0  0.25132832879E+02  0.47851081390E+00  0.11704567839E+02  0.27728778722E+02  0.00000000000E+00 0. -1.
</event>
<event>
 7    1  0.1324280E-011  0.5930195E+02  0.7816164E-02  0.1266605E+00
        -11   -1    0    0    0    0  0.00000000000E+00  0.00000000000E+00  0.45593999997E+02  0.45594000000E+02  0.51100000000E-03 0. -1.
         11   -1    0    0    0    0 -0.00000000000E+00 -0.00000000000E+00 -0.45593999997E+02  0.45594000000E+02  0.51100000000E-03 0.  1.
    9900012    2    1    2    0    0 -0.15191036549E+02  0.73715136417E+01  0.27048357409E+02  0.59301945943E+02  0.50000003494E+02 0.  0.
        -12    1    1    2    0    0  0.15191036549E+02 -0.73715136417E+01 -0.27048357409E+02  0.31886054057E+02  0.00000000000E+00 0.  1.
         11    1    3    3    0    0  0.16222149186E+01 -0.30211409657E+01 -0.77138515826E+01  0.84417048323E+01  0.51100000000E-03 0. -1.
        -11    1    3    3    0    0  0.17968775942E+01  0.74715563500E+01 -0.33218448827E+01  0.83718323600E+01  0.51100000000E-03 0.  1.
         12    1    3    3    0    0 -0.18610129062E+02  0.29210982574E+01  0.38084053874E+02  0.42488408751E+02  0.00000000000E+00 0. -1.
</event>
<event>
 7    1  0.1324280E-011  0.5930191E+02  0.7816164E-02  0.1266605E+00
        -11   -1    0    0    0    0  0.00000000000E+00  0.00000000000E+00  0.45593999997E+02  0.45594000000E+02  0.51100000000E-03 0.  1.
         11   -1    0    0    0    0 -0.00000000000E+00 -0.00000000000E+00 -0.45593999997E+02  0.45594000000E+02  0.51100000000E-03 0. -1.
    9900012    2    1    2    0    0 -0.17327360243E+02  0.14879167783E+02 -0.22250741382E+02  0.59301913082E+02  0.49999943562E+02 0.  0.
        -12    1    1    2    0    0  0.17327360243E+02 -0.14879167783E+02  0.22250741382E+02  0.31886086918E+02  0.00000000000E+00 0.  1.
         11    1    3    3    0    0 -0.68858252118E+01  0.23857105214E+01 -0.25504261294E+01  0.77208080693E+01  0.51100000000E-03 0. -1.
        -11    1    3    3    0    0 -0.12449682193E+01  0.28838143391E+02 -0.13108010016E+02  0.31701867247E+02  0.51100000000E-03 0.  1.
         12    1    3    3    0    0 -0.91965668122E+01 -0.16344686129E+02 -0.65923052367E+01  0.19879237765E+02  0.00000000000E+00 0. -1.
</event>
<event>
 7    1  0.1324280E-011  0.5930191E+02  0.7816164E-02  0.1266605E+00
        -11   -1    0    0    0    0  0.00000000000E+00  0.00000000000E+00  0.45593999997E+02  0.45594000000E+02  0.51100000000E-03 0.  1.
         11   -1    0    0    0    0 -0.00000000000E+00 -0.00000000000E+00 -0.45593999997E+02  0.45594000000E+02  0.51100000000E-03 0. -1.
    9900012    2    1    2    0    0 -0.26436441058E+02 -0.95089516880E+00 -0.17802616619E+02  0.59301909366E+02  0.49999936786E+02 0.  0.
        -12    1    1    2    0    0  0.26436441058E+02  0.95089516880E+00  0.17802616619E+02  0.31886090634E+02  0.00000000000E+00 0.  1.
         11    1    3    3    0    0 -0.10576717446E+02 -0.89111000645E+01 -0.21548717384E+02  0.25605114283E+02  0.51100000000E-03 0. -1.
        -11    1    3    3    0    0 -0.90126100374E+01 -0.55856234000E+01 -0.89759080947E+01  0.13892201224E+02  0.51100000000E-03 0.  1.
         12    1    3    3    0    0 -0.68471135744E+01  0.13545828296E+02  0.12722008860E+02  0.19804593860E+02  0.00000000000E+00 0. -1.
</event>
<event>
 7    1  0.1324280E-011  0.5930195E+02  0.7816164E-02  0.1266605E+00
        -11   -1    0    0    0    0  0.00000000000E+00  0.00000000000E+00  0.45593999997E+02  0.45594000000E+02  0.51100000000E-03 0.  1.
         11   -1    0    0    0    0 -0.00000000000E+00 -0.00000000000E+00 -0.45593999997E+02  0.45594000000E+02  0.51100000000E-03 0. -1.
    9900012    2    1    2    0    0  0.29560204625E+02  0.63059311754E+01 -0.10156256852E+02  0.59301952601E+02  0.50000015636E+02 0.  0.
        -12    1    1    2    0    0 -0.29560204625E+02 -0.63059311754E+01  0.10156256852E+02  0.31886047399E+02  0.00000000000E+00 0.  1.
         11    1    3    3    0    0  0.13845967567E+02  0.16484966770E+02 -0.26178184684E+01  0.21686814452E+02  0.51100000000E-03 0. -1.
        -11    1    3    3    0    0 -0.20363045538E+01  0.77258457980E+01  0.50325201501E+01  0.94425361451E+01  0.51100000000E-03 0.  1.
        -12    1    3    3    0    0  0.17750541612E+02 -0.17904881393E+02 -0.12570958534E+02  0.28172602004E+02  0.00000000000E+00 0.  1.
</event>
<event>
 7    1  0.1324280E-011  0.5930193E+02  0.7816164E-02  0.1266605E+00
        -11   -1    0    0    0    0  0.00000000000E+00  0.00000000000E+00  0.45593999997E+02  0.45594000000E+02  0.51100000000E-03 0.  1.
         11   -1    0    0    0    0 -0.00000000000E+00 -0.00000000000E+00 -0.45593999997E+02  0.45594000000E+02  0.51100000000E-03 0. -1.
    9900012    2    1    2    0    0 -0.28106052711E+02 -0.21867046223E+01 -0.14899317633E+02  0.59301928714E+02  0.49999972071E+02 0.  0.
        -12    1    1    2    0    0  0.28106052711E+02  0.21867046223E+01  0.14899317633E+02  0.31886071286E+02  0.00000000000E+00 0.  1.
         11    1    3    3    0    0 -0.23799210715E+02  0.61539906247E+01 -0.90074497110E+01  0.26180301408E+02  0.51100000000E-03 0. -1.
        -11    1    3    3    0    0 -0.14704691328E+02 -0.98881852567E+01 -0.11580619153E+02  0.21168724453E+02  0.51100000000E-03 0.  1.
        -12    1    3    3    0    0  0.10397849331E+02  0.15474900097E+01  0.56887512309E+01  0.11952902853E+02  0.00000000000E+00 0.  1.
</event>
<event>
 7    1  0.1798642E-011  0.5930194E+02  0.7816164E-02  0.1266605E+00
        -11   -1    0    0    0    0  0.00000000000E+00  0.00000000000E+00  0.45593999997E+02  0.45594000000E+02  0.51100000000E-03 0.  1.
         11   -1    0    0    0    0 -0.00000000000E+00 -0.00000000000E+00 -0.45593999997E+02  0.45594000000E+02  0.51100000000E-03 0. -1.
    9900012    2    1    2    0    0  0.55251848926E+00  0.31855445914E+02 -0.12830449971E+01  0.59301938538E+02  0.49999989988E+02 0.  0.
        -12    1    1    2    0    0 -0.55251848926E+00 -0.31855445914E+02  0.12830449971E+01  0.31886061462E+02  0.00000000000E+00 0.  1.
         11    1    3    3    0    0 -0.51916106119E+01  0.75300397953E+01  0.84412345384E+01  0.12446234807E+02  0.51100000000E-03 0. -1.
        -11    1    3    3    0    0 -0.76235545310E+01 -0.63203037378E+01 -0.90490588145E+01  0.13414555107E+02  0.51100000000E-03 0.  1.
         12    1    3    3    0    0  0.13367683632E+02  0.30645709857E+02 -0.67522072101E+00  0.33441148625E+02  0.00000000000E+00 0. -1.
</event>
<event>
 7    1  0.1324280E-011  0.5930194E+02  0.7816164E-02  0.1266605E+00
        -11   -1    0    0    0    0  0.00000000000E+00  0.00000000000E+00  0.45593999997E+02  0.45594000000E+02  0.51100000000E-03 0.  1.
         11   -1    0    0    0    0 -0.00000000000E+00 -0.00000000000E+00 -0.45593999997E+02  0.45594000000E+02  0.51100000000E-03 0. -1.
    9900012    2    1    2    0    0 -0.11170869539E+02 -0.18661399558E+02 -0.23317049037E+02  0.59301938225E+02  0.49999989417E+02 0.  0.
        -12    1    1    2    0    0  0.11170869539E+02  0.18661399558E+02  0.23317049037E+02  0.31886061775E+02  0.00000000000E+00 0.  1.
         11    1    3    3    0    0 -0.17831029168E+02 -0.57448859456E+01  0.10904238649E+02  0.21676063676E+02  0.51100000000E-03 0. -1.
        -11    1    3    3    0    0  0.57015669498E+01 -0.55844368599E+01 -0.14297187208E+02  0.16373862191E+02  0.51100000000E-03 0.  1.
        -12    1    3    3    0    0  0.95859267920E+00 -0.73320767525E+01 -0.19924100478E+02  0.21252012359E+02  0.00000000000E+00 0.  1.
</event>
<event>
 7    1  0.1324280E-011  0.5930202E+02  0.7816164E-02  0.1266605E+00
        -11   -1    0    0    0    0  0.00000000000E+00  0.00000000000E+00  0.45593999997E+02  0.45594000000E+02  0.51100000000E-03 0.  1.
         11   -1    0    0    0    0 -0.00000000000E+00 -0.00000000000E+00 -0.45593999997E+02  0.45594000000E+02  0.51100000000E-03 0. -1.
    9900012    2    1    2    0    0 -0.31553190577E+02  0.45895567882E+01 -0.21918954687E+00  0.59302017011E+02  0.50000133104E+02 0.  0.
        -12    1    1    2    0    0  0.31553190577E+02 -0.45895567882E+01  0.21918954687E+00  0.31885982989E+02  0.00000000000E+00 0.  1.
         11    1    3    3    0    0 -0.19564553502E+02 -0.60997577599E+01 -0.48339673166E+01  0.21055783973E+02  0.51100000000E-03 0. -1.
        -11    1    3    3    0    0 -0.13999400415E+02 -0.95505940081E+01  0.56945221670E+01  0.17878049134E+02  0.51100000000E-03 0.  1.
        -12    1    3    3    0    0  0.20107633396E+01  0.20239908556E+02 -0.10797443972E+01  0.20368183904E+02  0.00000000000E+00 0.  1.
</event>
<event>
 7    1  0.1324280E-011  0.5930193E+02  0.7816164E-02  0.1266605E+00
        -11   -1    0    0    0    0  0.00000000000E+00  0.00000000000E+00  0.45593999997E+02  0.45594000000E+02  0.51100000000E-03 0.  1.
         11   -1    0    0    0    0 -0.00000000000E+00 -0.00000000000E+00 -0.45593999997E+02  0.45594000000E+02  0.51100000000E-03 0. -1.
    9900012    2    1    2    0    0 -0.21152589455E+02  0.56172473827E+01  0.23189128484E+02  0.59301934255E+02  0.49999982177E+02 0.  0.
        -12    1    1    2    0    0  0.21152589455E+02 -0.56172473827E+01 -0.23189128484E+02  0.31886065745E+02  0.00000000000E+00 0.  1.
         11    1    3    3    0    0  0.81150204038E+01  0.97975182364E+01  0.98620047188E+01  0.16096709511E+02  0.51100000000E-03 0. -1.
        -11    1    3    3    0    0  0.29715228466E+01  0.18496800629E+01 -0.46369042284E+01  0.58096596671E+01  0.51100000000E-03 0.  1.
        -12    1    3    3    0    0 -0.32239132706E+02 -0.60299509166E+01  0.17964027994E+02  0.37395565077E+02  0.00000000000E+00 0.  1.
</event>
<event>
 7    1  0.1324280E-011  0.5930183E+02  0.7816164E-02  0.1266605E+00
        -11   -1    0    0    0    0  0.00000000000E+00  0.00000000000E+00  0.45593999997E+02  0.45594000000E+02  0.51100000000E-03 0. -1.
         11   -1    0    0    0    0 -0.00000000000E+00 -0.00000000000E+00 -0.45593999997E+02  0.45594000000E+02  0.51100000000E-03 0.  1.
    9900012    2    1    2    0    0 -0.25681946436E+01  0.16467597600E+02  0.27183645493E+02  0.59301827813E+02  0.49999788052E+02 0.  0.
        -12    1    1    2    0    0  0.25681946436E+01 -0.16467597600E+02 -0.27183645493E+02  0.31886172187E+02  0.00000000000E+00 0.  1.
         11    1    3    3    0    0 -0.24756326202E+01  0.14881550106E+02  0.14529245548E+02  0.20944886414E+02  0.51100000000E-03 0. -1.
        -11    1    3    3    0    0 -0.59199315558E+01  0.13996289993E+02 -0.50053569039E+01  0.15999853787E+02  0.51100000000E-03 0.  1.
        -12    1    3    3    0    0  0.58273695325E+01 -0.12410242499E+02  0.17659756849E+02  0.22357087613E+02  0.00000000000E+00 0.  1.
</event>
<event>
 7    1  0.1324280E-011  0.5930195E+02  0.7816164E-02  0.1266605E+00
        -11   -1    0    0    0    0  0.00000000000E+00  0.00000000000E+00  0.45593999997E+02  0.45594000000E+02  0.51100000000E-03 0.  1.
         11   -1    0    0    0    0 -0.00000000000E+00 -0.00000000000E+00 -0.45593999997E+02  0.45594000000E+02  0.51100000000E-03 0. -1.
    9900012    2    1    2    0    0 -0.38450045231E+01 -0.30768014178E+02  0.74340695850E+01  0.59301950592E+02  0.50000011972E+02 0.  0.
        -12    1    1    2    0    0  0.38450045231E+01  0.30768014178E+02 -0.74340695850E+01  0.31886049408E+02  0.00000000000E+00 0.  1.
         11    1    3    3    0    0  0.50104251554E+01 -0.52810519291E+01 -0.61900019077E+00  0.73059586102E+01  0.51100000000E-03 0. -1.
        -11    1    3    3    0    0  0.14638073474E+01  0.55389588175E+01 -0.12239327713E+02  0.13513842527E+02  0.51100000000E-03 0.  1.
         12    1    3    3    0    0 -0.10319237026E+02 -0.31025921067E+02  0.20292397488E+02  0.38482149455E+02  0.00000000000E+00 0. -1.
</event>
<event>
 7    1  0.1324280E-011  0.5930195E+02  0.7816164E-02  0.1266605E+00
        -11   -1    0    0    0    0  0.00000000000E+00  0.00000000000E+00  0.45593999997E+02  0.45594000000E+02  0.51100000000E-03 0.  1.
         11   -1    0    0    0    0 -0.00000000000E+00 -0.00000000000E+00 -0.45593999997E+02  0.45594000000E+02  0.51100000000E-03 0. -1.
    9900012    2    1    2    0    0  0.22201588478E+01  0.44833512488E+01 -0.31491117190E+02  0.59301952807E+02  0.50000016012E+02 0.  0.
        -12    1    1    2    0    0 -0.22201588478E+01 -0.44833512488E+01  0.31491117190E+02  0.31886047193E+02  0.00000000000E+00 0.  1.
         11    1    3    3    0    0 -0.44635199203E+01 -0.73021345470E+01 -0.17901812816E+02  0.19842355742E+02  0.51100000000E-03 0. -1.
        -11    1    3    3    0    0 -0.10375813157E+02 -0.63352534135E+01 -0.43056049329E+01  0.12896944157E+02  0.51100000000E-03 0.  1.
        -12    1    3    3    0    0  0.17059491925E+02  0.18120739209E+02 -0.92836994405E+01  0.26562652908E+02  0.00000000000E+00 0.  1.
</event>
<event>
 7    1  0.1324280E-011  0.5930192E+02  0.7816164E-02  0.1266605E+00
        -11   -1    0    0    0    0  0.00000000000E+00  0.00000000000E+00  0.45593999997E+02  0.45594000000E+02  0.51100000000E-03 0. -1.
         11   -1    0    0    0    0 -0.00000000000E+00 -0.00000000000E+00 -0.45593999997E+02  0.45594000000E+02  0.51100000000E-03 0.  1.
    9900012    2    1    2    0    0 -0.12950495420E+02  0.28935841387E+02  0.34240278148E+01  0.59301918164E+02  0.49999952830E+02 0.  0.
        -12    1    1    2    0    0  0.12950495420E+02 -0.28935841387E+02 -0.34240278148E+01  0.31886081836E+02  0.00000000000E+00 0.  1.
         11    1    3    3    0    0  0.16469086233E+02  0.68983661619E+01  0.19268896417E+00  0.17856522235E+02  0.51100000000E-03 0.  1.
        -11    1    3    3    0    0 -0.68413145857E+01 -0.28706872754E+01  0.24661074291E+01  0.78183193083E+01  0.51100000000E-03 0. -1.
        -12    1    3    3    0    0 -0.22578267067E+02  0.24908162501E+02  0.76523142156E+00  0.33627076620E+02  0.00000000000E+00 0.  1.
</event>
<event>
 7    1  0.1324280E-011  0.5930191E+02  0.7816164E-02  0.1266605E+00
        -11   -1    0    0    0    0  0.00000000000E+00  0.00000000000E+00  0.45593999997E+02  0.45594000000E+02  0.51100000000E-03 0.  1.
         11   -1    0    0    0    0 -0.00000000000E+00 -0.00000000000E+00 -0.45593999997E+02  0.45594000000E+02  0.51100000000E-03 0. -1.
    9900012    2    1    2    0    0  0.15693979678E+02 -0.34398549168E+01 -0.27542496598E+02  0.59301910261E+02  0.49999938417E+02 0.  0.
        -12    1    1    2    0    0 -0.15693979678E+02  0.34398549168E+01  0.27542496598E+02  0.31886089739E+02  0.00000000000E+00 0.  1.
         11    1    3    3    0    0 -0.12040648810E+01 -0.21980612655E+02 -0.21245195028E+02  0.30593388451E+02  0.51100000000E-03 0.  1.
        -11    1    3    3    0    0  0.72995785155E+01  0.40088107967E+01 -0.75593121995E+01  0.11247115706E+02  0.51100000000E-03 0. -1.
        -12    1    3    3    0    0  0.95984660437E+01  0.14531946941E+02  0.12620106292E+01  0.17461406104E+02  0.00000000000E+00 0.  1.
</event>
<event>
 7    1  0.1324280E-011  0.5930194E+02  0.7816164E-02  0.1266605E+00
        -11   -1    0    0    0    0  0.00000000000E+00  0.00000000000E+00  0.45593999997E+02  0.45594000000E+02  0.51100000000E-03 0.  1.
         11   -1    0    0    0    0 -0.00000000000E+00 -0.00000000000E+00 -0.45593999997E+02  0.45594000000E+02  0.51100000000E-03 0. -1.
    9900012    2    1    2    0    0 -0.98147412033E+01 -0.26580476309E+01 -0.30221286788E+02  0.59301944470E+02  0.50000000807E+02 0.  0.
        -12    1    1    2    0    0  0.98147412033E+01  0.26580476309E+01  0.30221286788E+02  0.31886055530E+02  0.00000000000E+00 0.  1.
         11    1    3    3    0    0 -0.36226414281E+01 -0.43490587768E+01  0.63072487691E+01  0.84746227324E+01  0.51100000000E-03 0. -1.
        -11    1    3    3    0    0  0.31815536576E+01  0.81515054943E+01  0.33393098201E+01  0.93659124401E+01  0.51100000000E-03 0.  1.
         12    1    3    3    0    0 -0.93736534327E+01 -0.64604943484E+01 -0.39867845378E+02  0.41461409298E+02  0.00000000000E+00 0. -1.
</event>
<event>
 7    1  0.1324280E-011  0.5930195E+02  0.7816164E-02  0.1266605E+00
        -11   -1    0    0    0    0  0.00000000000E+00  0.00000000000E+00  0.45593999997E+02  0.45594000000E+02  0.51100000000E-03 0.  1.
         11   -1    0    0    0    0 -0.00000000000E+00 -0.00000000000E+00 -0.45593999997E+02  0.45594000000E+02  0.51100000000E-03 0. -1.
    9900012    2    1    2    0    0  0.29706277848E+02 -0.13459877732E+01 -0.11508510038E+02  0.59301946152E+02  0.50000003875E+02 0.  0.
        -12    1    1    2    0    0 -0.29706277848E+02  0.13459877732E+01  0.11508510038E+02  0.31886053848E+02  0.00000000000E+00 0.  1.
         11    1    3    3    0    0  0.25190326762E+02  0.40625032228E+01 -0.12487123078E+02  0.28407476794E+02  0.51100000000E-03 0. -1.
        -11    1    3    3    0    0  0.15840158538E+02  0.13740806979E+01  0.56776721468E+01  0.16882970163E+02  0.51100000000E-03 0.  1.
         12    1    3    3    0    0 -0.11324207451E+02 -0.67825716939E+01 -0.46990591074E+01  0.14011499195E+02  0.00000000000E+00 0. -1.
</event>
<event>
 7    1  0.1324280E-011  0.5930194E+02  0.7816164E-02  0.1266605E+00
        -11   -1    0    0    0    0  0.00000000000E+00  0.00000000000E+00  0.45593999997E+02  0.45594000000E+02  0.51100000000E-03 0. -1.
         11   -1    0    0    0    0 -0.00000000000E+00 -0.00000000000E+00 -0.45593999997E+02  0.45594000000E+02  0.51100000000E-03 0.  1.
    9900012    2    1    2    0    0 -0.11602022901E+02 -0.70543223212E+01  0.28850479998E+02  0.59301943566E+02  0.49999999158E+02 0.  0.
        -12    1    1    2    0    0  0.11602022901E+02  0.70543223212E+01 -0.28850479998E+02  0.31886056434E+02  0.00000000000E+00 0.  1.
         11    1    3    3    0    0 -0.89760523875E+01 -0.93436383224E+01  0.61126709149E+01  0.14326124373E+02  0.51100000000E-03 0. -1.
        -11    1    3    3    0    0  0.24097278454E+01 -0.16379657429E+02  0.19141464317E+02  0.25308014980E+02  0.51100000000E-03 0.  1.
        -12    1    3    3    0    0 -0.50356983587E+01  0.18668973430E+02  0.35963447660E+01  0.19667804214E+02  0.00000000000E+00 0.  1.
</event>
<event>
 7    1  0.1324280E-011  0.5930195E+02  0.7816164E-02  0.1266605E+00
        -11   -1    0    0    0    0  0.00000000000E+00  0.00000000000E+00  0.45593999997E+02  0.45594000000E+02  0.51100000000E-03 0. -1.
         11   -1    0    0    0    0 -0.00000000000E+00 -0.00000000000E+00 -0.45593999997E+02  0.45594000000E+02  0.51100000000E-03 0.  1.
    9900012    2    1    2    0    0 -0.82149677325E+01 -0.19712721132E+02  0.23677908535E+02  0.59301946279E+02  0.50000004106E+02 0.  0.
        -12    1    1    2    0    0  0.82149677325E+01  0.19712721132E+02 -0.23677908535E+02  0.31886053721E+02  0.00000000000E+00 0.  1.
         11    1    3    3    0    0 -0.18150476199E+02 -0.51626247241E+01  0.64537197092E+01  0.19943494644E+02  0.51100000000E-03 0. -1.
        -11    1    3    3    0    0  0.47940102637E+01 -0.22820083906E+02  0.18188367047E+02  0.29572883863E+02  0.51100000000E-03 0.  1.
        -12    1    3    3    0    0  0.51414982025E+01  0.82699874976E+01 -0.96417822105E+00  0.97855677719E+01  0.00000000000E+00 0.  1.
</event>
<event>
 7    1  0.1324280E-011  0.5930195E+02  0.7816164E-02  0.1266605E+00
        -11   -1    0    0    0    0  0.00000000000E+00  0.00000000000E+00  0.45593999997E+02  0.45594000000E+02  0.51100000000E-03 0.  1.
         11   -1    0    0    0    0 -0.00000000000E+00 -0.00000000000E+00 -0.45593999997E+02  0.45594000000E+02  0.51100000000E-03 0. -1.
    9900012    2    1    2    0    0 -0.11470536142E+02 -0.13658833545E+02 -0.26430728309E+02  0.59301947686E+02  0.50000006673E+02 0.  0.
        -12    1    1    2    0    0  0.11470536142E+02  0.13658833545E+02  0.26430728309E+02  0.31886052314E+02  0.00000000000E+00 0.  1.
         11    1    3    3    0    0  0.98157962512E+01 -0.16849791840E+01 -0.28501589822E+01  0.10359170690E+02  0.51100000000E-03 0. -1.
        -11    1    3    3    0    0 -0.21407136315E+02 -0.16875994809E+02 -0.25842387094E+01  0.27381434878E+02  0.51100000000E-03 0.  1.
         12    1    3    3    0    0  0.12080392157E+00  0.49021404484E+01 -0.20996330618E+02  0.21561342119E+02  0.00000000000E+00 0. -1.
</event>
<event>
 7    1  0.1324280E-011  0.5930194E+02  0.7816164E-02  0.1266605E+00
        -11   -1    0    0    0    0  0.00000000000E+00  0.00000000000E+00  0.45593999997E+02  0.45594000000E+02  0.51100000000E-03 0. -1.
         11   -1    0    0    0    0 -0.00000000000E+00 -0.00000000000E+00 -0.45593999997E+02  0.45594000000E+02  0.51100000000E-03 0.  1.
    9900012    2    1    2    0    0  0.31574787975E+02  0.14118130646E+00  0.44422746314E+01  0.59301937657E+02  0.49999988382E+02 0.  0.
        -12    1    1    2    0    0 -0.31574787975E+02 -0.14118130646E+00 -0.44422746314E+01  0.31886062343E+02  0.00000000000E+00 0.  1.
         11    1    3    3    0    0 -0.71824534129E+00 -0.76538552746E+01 -0.90708208375E+01  0.11890213113E+02  0.51100000000E-03 0. -1.
        -11    1    3    3    0    0  0.16776414405E+02 -0.81859902326E+01  0.16529781235E+02  0.24933755921E+02  0.51100000000E-03 0.  1.
        -12    1    3    3    0    0  0.15516618911E+02  0.15981026814E+02 -0.30166857662E+01  0.22477968624E+02  0.00000000000E+00 0.  1.
</event>
<event>
 7    1  0.1324280E-011  0.5930195E+02  0.7816164E-02  0.1266605E+00
        -11   -1    0    0    0    0  0.00000000000E+00  0.00000000000E+00  0.45593999997E+02  0.45594000000E+02  0.51100000000E-03 0.  1.
         11   -1    0    0    0    0 -0.00000000000E+00 -0.00000000000E+00 -0.45593999997E+02  0.45594000000E+02  0.51100000000E-03 0. -1.
    9900012    2    1    2    0    0 -0.10619224049E+01 -0.16504572040E+02 -0.27261545872E+02  0.59301945670E+02  0.50000002994E+02 0.  0.
        -12    1    1    2    0    0  0.10619224049E+01  0.16504572040E+02  0.27261545872E+02  0.31886054330E+02  0.00000000000E+00 0.  1.
         11    1    3    3    0    0  0.68053049138E+01 -0.54091984420E+01 -0.23558799935E+02  0.25111524394E+02  0.51100000000E-03 0. -1.
        -11    1    3    3    0    0  0.18957131927E+00  0.61808056360E+01 -0.11922919737E+02  0.13431094926E+02  0.51100000000E-03 0.  1.
        -12    1    3    3    0    0 -0.80567986380E+01 -0.17276179234E+02  0.82201737991E+01  0.20759326350E+02  0.00000000000E+00 0.  1.
</event>
<event>
 7    1  0.1324280E-011  0.5930194E+02  0.7816164E-02  0.1266605E+00
        -11   -1    0    0    0    0  0.00000000000E+00  0.00000000000E+00  0.45593999997E+02  0.45594000000E+02  0.51100000000E-03 0.  1.
         11   -1    0    0    0    0 -0.00000000000E+00 -0.00000000000E+00 -0.45593999997E+02  0.45594000000E+02  0.51100000000E-03 0. -1.
    9900012    2    1    2    0    0  0.16123881111E+02 -0.13942285435E+02 -0.23713998540E+02  0.59301943612E+02  0.49999999242E+02 0.  0.
        -12    1    1    2    0    0 -0.16123881111E+02  0.13942285435E+02  0.23713998540E+02  0.31886056388E+02  0.00000000000E+00 0.  1.
         11    1    3    3    0    0  0.19304511010E+02 -0.10317572354E+02 -0.13498496443E+01  0.21930310963E+02  0.51100000000E-03 0. -1.
        -11    1    3    3    0    0  0.92562207742E+01 -0.11844539211E+02 -0.11056288566E+02  0.18660446116E+02  0.51100000000E-03 0.  1.
         12    1    3    3    0    0 -0.12436850673E+02  0.82198261301E+01 -0.11307860329E+02  0.18711186533E+02  0.00000000000E+00 0. -1.
</event>
<event>
 7    1  0.1324280E-011  0.5930193E+02  0.7816164E-02  0.1266605E+00
        -11   -1    0    0    0    0  0.00000000000E+00  0.00000000000E+00  0.45593999997E+02  0.45594000000E+02  0.51100000000E-03 0.  1.
         11   -1    0    0    0    0 -0.00000000000E+00 -0.00000000000E+00 -0.45593999997E+02  0.45594000000E+02  0.51100000000E-03 0. -1.
    9900012    2    1    2    0    0 -0.27077086189E+02 -0.16798962502E+02  0.11609782331E+01  0.59301927679E+02  0.49999970183E+02 0.  0.
        -12    1    1    2    0    0  0.27077086189E+02  0.16798962502E+02 -0.11609782331E+01  0.31886072321E+02  0.00000000000E+00 0.  1.
         11    1    3    3    0    0 -0.15733596322E+02  0.33922470990E+01 -0.89591653828E+01  0.18420641634E+02  0.51100000000E-03 0. -1.
        -11    1    3    3    0    0 -0.95734705307E+00  0.59269105180E+01 -0.59928606441E+01  0.84828745499E+01  0.51100000000E-03 0.  1.
        -12    1    3    3    0    0 -0.10386142814E+02 -0.26118120119E+02  0.16113004260E+02  0.32398411495E+02  0.00000000000E+00 0.  1.
</event>
<event>
 7    1  0.1324280E-011  0.5930188E+02  0.7816164E-02  0.1266605E+00
        -11   -1    0    0    0    0  0.00000000000E+00  0.00000000000E+00  0.45593999997E+02  0.45594000000E+02  0.51100000000E-03 0. -1.
         11   -1    0    0    0    0 -0.00000000000E+00 -0.00000000000E+00 -0.45593999997E+02  0.45594000000E+02  0.51100000000E-03 0.  1.
    9900012    2    1    2    0    0  0.52389860462E+00  0.31008838805E+01  0.31730660109E+02  0.59301878544E+02  0.49999880573E+02 0.  0.
        -12    1    1    2    0    0 -0.52389860462E+00 -0.31008838805E+01 -0.31730660109E+02  0.31886121456E+02  0.00000000000E+00 0.  1.
         11    1    3    3    0    0 -0.15388840936E+02  0.26863907402E+01  0.17008551653E+02  0.23093807615E+02  0.51100000000E-03 0. -1.
        -11    1    3    3    0    0  0.11998191254E+02 -0.41286374172E+01 -0.64281564214E+01  0.14224044275E+02  0.51100000000E-03 0.  1.
         12    1    3    3    0    0  0.39145482862E+01  0.45431305575E+01  0.21150264877E+02  0.21984026654E+02  0.00000000000E+00 0. -1.
</event>
<event>
 7    1  0.1324280E-011  0.5930212E+02  0.7816164E-02  0.1266604E+00
        -11   -1    0    0    0    0  0.00000000000E+00  0.00000000000E+00  0.45593999997E+02  0.45594000000E+02  0.51100000000E-03 0. -1.
         11   -1    0    0    0    0 -0.00000000000E+00 -0.00000000000E+00 -0.45593999997E+02  0.45594000000E+02  0.51100000000E-03 0.  1.
    9900012    2    1    2    0    0  0.11478242787E+02 -0.16021190393E+02  0.25065525001E+02  0.59302123147E+02  0.50000326670E+02 0.  0.
        -12    1    1    2    0    0 -0.11478242787E+02  0.16021190393E+02 -0.25065525001E+02  0.31885876853E+02  0.00000000000E+00 0.  1.
         11    1    3    3    0    0  0.68897817842E+01  0.89997702095E+01  0.11426811056E+02  0.16094625439E+02  0.51100000000E-03 0. -1.
        -11    1    3    3    0    0 -0.13907499583E+02 -0.11157954789E+02  0.48463005295E+01  0.18477151534E+02  0.51100000000E-03 0.  1.
         12    1    3    3    0    0  0.18495960587E+02 -0.13863005813E+02  0.87924134158E+01  0.24730346174E+02  0.00000000000E+00 0. -1.
</event>
<event>
 7    1  0.1324280E-011  0.5930200E+02  0.7816164E-02  0.1266605E+00
        -11   -1    0    0    0    0  0.00000000000E+00  0.00000000000E+00  0.45593999997E+02  0.45594000000E+02  0.51100000000E-03 0. -1.
         11   -1    0    0    0    0 -0.00000000000E+00 -0.00000000000E+00 -0.45593999997E+02  0.45594000000E+02  0.51100000000E-03 0.  1.
    9900012    2    1    2    0    0  0.14911345715E+01  0.12599099571E+02  0.29253311328E+02  0.59301999687E+02  0.50000101509E+02 0.  0.
        -12    1    1    2    0    0 -0.14911345715E+01 -0.12599099571E+02 -0.29253311328E+02  0.31886000313E+02  0.00000000000E+00 0.  1.
         11    1    3    3    0    0  0.88933088266E+00  0.29753482852E-01 -0.57408294857E+01  0.58093819063E+01  0.51100000000E-03 0.  1.
        -11    1    3    3    0    0  0.16565264142E+02  0.96193789398E+01  0.56739818749E+01  0.19978350729E+02  0.51100000000E-03 0. -1.
         12    1    3    3    0    0 -0.15963460453E+02  0.29499671483E+01  0.29320158939E+02  0.33514267052E+02  0.00000000000E+00 0. -1.
</event>
<event>
 7    1  0.1324280E-011  0.5930195E+02  0.7816164E-02  0.1266605E+00
        -11   -1    0    0    0    0  0.00000000000E+00  0.00000000000E+00  0.45593999997E+02  0.45594000000E+02  0.51100000000E-03 0. -1.
         11   -1    0    0    0    0 -0.00000000000E+00 -0.00000000000E+00 -0.45593999997E+02  0.45594000000E+02  0.51100000000E-03 0.  1.
    9900012    2    1    2    0    0  0.18645409604E+01 -0.24841519825E+02  0.19903333333E+02  0.59301948223E+02  0.50000007650E+02 0.  0.
        -12    1    1    2    0    0 -0.18645409604E+01  0.24841519825E+02 -0.19903333333E+02  0.31886051777E+02  0.00000000000E+00 0.  1.
         11    1    3    3    0    0 -0.81620924130E+01 -0.14361697749E+02  0.12347644026E+02  0.20623831556E+02  0.51100000000E-03 0. -1.
        -11    1    3    3    0    0 -0.12840728343E+02 -0.46575418156E+00  0.40307150782E+01  0.13466547280E+02  0.51100000000E-03 0.  1.
        -12    1    3    3    0    0  0.22867361716E+02 -0.10014067895E+02  0.35249742284E+01  0.25211569387E+02  0.00000000000E+00 0.  1.
</event>
<event>
 7    1  0.1324280E-011  0.5930193E+02  0.7816164E-02  0.1266605E+00
        -11   -1    0    0    0    0  0.00000000000E+00  0.00000000000E+00  0.45593999997E+02  0.45594000000E+02  0.51100000000E-03 0. -1.
         11   -1    0    0    0    0 -0.00000000000E+00 -0.00000000000E+00 -0.45593999997E+02  0.45594000000E+02  0.51100000000E-03 0.  1.
    9900012    2    1    2    0    0  0.30314148117E+02 -0.81383201259E+01  0.56161840742E+01  0.59301931661E+02  0.49999977447E+02 0.  0.
        -12    1    1    2    0    0 -0.30314148117E+02  0.81383201259E+01 -0.56161840742E+01  0.31886068339E+02  0.00000000000E+00 0.  1.
         11    1    3    3    0    0  0.12286795856E+02 -0.46578501613E+01  0.55379050608E+01  0.14259358795E+02  0.51100000000E-03 0. -1.
        -11    1    3    3    0    0  0.54592152503E+01 -0.12532026589E+01  0.20339167439E+02  0.21096333341E+02  0.51100000000E-03 0.  1.
        -12    1    3    3    0    0  0.12568137011E+02 -0.22272673056E+01 -0.20260888426E+02  0.23946239525E+02  0.00000000000E+00 0.  1.
</event>
<event>
 7    1  0.1324280E-011  0.5930196E+02  0.7816164E-02  0.1266605E+00
        -11   -1    0    0    0    0  0.00000000000E+00  0.00000000000E+00  0.45593999997E+02  0.45594000000E+02  0.51100000000E-03 0. -1.
         11   -1    0    0    0    0 -0.00000000000E+00 -0.00000000000E+00 -0.45593999997E+02  0.45594000000E+02  0.51100000000E-03 0.  1.
    9900012    2    1    2    0    0  0.40355562948E+01 -0.12089568968E+02  0.29228007207E+02  0.59301956067E+02  0.50000021956E+02 0.  0.
        -12    1    1    2    0    0 -0.40355562948E+01  0.12089568968E+02 -0.29228007207E+02  0.31886043933E+02  0.00000000000E+00 0.  1.
         11    1    3    3    0    0  0.96548485459E+01  0.39846026248E+01  0.95538886319E+01  0.14155209175E+02  0.51100000000E-03 0.  1.
        -11    1    3    3    0    0 -0.69495218817E+01  0.37930236906E+01  0.23564148349E+02  0.24858639761E+02  0.51100000000E-03 0. -1.
         12    1    3    3    0    0  0.13302296306E+01 -0.19867195283E+02 -0.38900297742E+01  0.20288107131E+02  0.00000000000E+00 0. -1.
</event>
<event>
 7    1  0.1324280E-011  0.5930198E+02  0.7816164E-02  0.1266605E+00
        -11   -1    0    0    0    0  0.00000000000E+00  0.00000000000E+00  0.45593999997E+02  0.45594000000E+02  0.51100000000E-03 0.  1.
         11   -1    0    0    0    0 -0.00000000000E+00 -0.00000000000E+00 -0.45593999997E+02  0.45594000000E+02  0.51100000000E-03 0. -1.
    9900012    2    1    2    0    0 -0.26699302133E+02  0.80966031243E+01 -0.15437320661E+02  0.59301975072E+02  0.50000056617E+02 0.  0.
        -12    1    1    2    0    0  0.26699302133E+02 -0.80966031243E+01  0.15437320661E+02  0.31886024928E+02  0.00000000000E+00 0.  1.
         11    1    3    3    0    0  0.29593179266E+01  0.10267949021E+02 -0.11021247284E+02  0.15351098711E+02  0.51100000000E-03 0. -1.
        -11    1    3    3    0    0 -0.18511906151E+02  0.12413254578E+02 -0.10465512504E+02  0.24623292038E+02  0.51100000000E-03 0.  1.
        -12    1    3    3    0    0 -0.11146713909E+02 -0.14584600475E+02  0.60494391274E+01  0.19327584322E+02  0.00000000000E+00 0.  1.
</event>
<event>
 7    1  0.1324280E-011  0.5930198E+02  0.7816164E-02  0.1266605E+00
        -11   -1    0    0    0    0  0.00000000000E+00  0.00000000000E+00  0.45593999997E+02  0.45594000000E+02  0.51100000000E-03 0. -1.
         11   -1    0    0    0    0 -0.00000000000E+00 -0.00000000000E+00 -0.45593999997E+02  0.45594000000E+02  0.51100000000E-03 0.  1.
    9900012    2    1    2    0    0  0.10559214964E+02  0.23603836051E+02  0.18656907723E+02  0.59301979509E+02  0.50000064710E+02 0.  0.
        -12    1    1    2    0    0 -0.10559214964E+02 -0.23603836051E+02 -0.18656907723E+02  0.31886020491E+02  0.00000000000E+00 0.  1.
         11    1    3    3    0    0  0.14265939349E+02  0.17201705956E+02  0.19491745805E+02  0.29653732785E+02  0.51100000000E-03 0. -1.
        -11    1    3    3    0    0  0.58415899305E+01 -0.92564109699E+01  0.18876938199E+01  0.11107146581E+02  0.51100000000E-03 0.  1.
         12    1    3    3    0    0 -0.95483143157E+01  0.15658541065E+02 -0.27225319026E+01  0.18541100143E+02  0.00000000000E+00 0. -1.
</event>
<event>
 7    1  0.1324280E-011  0.5930195E+02  0.7816164E-02  0.1266605E+00
        -11   -1    0    0    0    0  0.00000000000E+00  0.00000000000E+00  0.45593999997E+02  0.45594000000E+02  0.51100000000E-03 0. -1.
         11   -1    0    0    0    0 -0.00000000000E+00 -0.00000000000E+00 -0.45593999997E+02  0.45594000000E+02  0.51100000000E-03 0.  1.
    9900012    2    1    2    0    0  0.41493605559E+01  0.27163850771E+01  0.31498000800E+02  0.59301952968E+02  0.50000016305E+02 0.  0.
        -12    1    1    2    0    0 -0.41493605559E+01 -0.27163850771E+01 -0.31498000800E+02  0.31886047032E+02  0.00000000000E+00 0.  1.
         11    1    3    3    0    0  0.22975508548E+02  0.70121524449E+01  0.11041807958E+02  0.26437961309E+02  0.51100000000E-03 0. -1.
        -11    1    3    3    0    0 -0.77174803066E+01  0.17613135010E+01  0.18419483188E+02  0.20048418609E+02  0.51100000000E-03 0.  1.
        -12    1    3    3    0    0 -0.11108667685E+02 -0.60570808688E+01  0.20367096542E+01  0.12815573050E+02  0.00000000000E+00 0.  1.
</event>
<event>
 7    1  0.1324280E-011  0.5930197E+02  0.7816164E-02  0.1266605E+00
        -11   -1    0    0    0    0  0.00000000000E+00  0.00000000000E+00  0.45593999997E+02  0.45594000000E+02  0.51100000000E-03 0.  1.
         11   -1    0    0    0    0 -0.00000000000E+00 -0.00000000000E+00 -0.45593999997E+02  0.45594000000E+02  0.51100000000E-03 0. -1.
    9900012    2    1    2    0    0  0.92557573462E+01 -0.30465438227E+02 -0.17050147746E+01  0.59301967858E+02  0.50000043460E+02 0.  0.
        -12    1    1    2    0    0 -0.92557573462E+01  0.30465438227E+02  0.17050147746E+01  0.31886032142E+02  0.00000000000E+00 0.  1.
         11    1    3    3    0    0  0.22530139239E+02 -0.48405121333E+01 -0.13841395920E+01  0.23085787284E+02  0.51100000000E-03 0. -1.
        -11    1    3    3    0    0 -0.50977314908E+01  0.26448743357E+01  0.32056139290E+01  0.65770956756E+01  0.51100000000E-03 0.  1.
         12    1    3    3    0    0 -0.81766504025E+01 -0.28269800429E+02 -0.35264891117E+01  0.29639084898E+02  0.00000000000E+00 0. -1.
</event>
<event>
 7    1  0.1324280E-011  0.5930192E+02  0.7816164E-02  0.1266605E+00
        -11   -1    0    0    0    0  0.00000000000E+00  0.00000000000E+00  0.45593999997E+02  0.45594000000E+02  0.51100000000E-03 0.  1.
         11   -1    0    0    0    0 -0.00000000000E+00 -0.00000000000E+00 -0.45593999997E+02  0.45594000000E+02  0.51100000000E-03 0. -1.
    9900012    2    1    2    0    0 -0.84549780759E+01 -0.10455883764E+02 -0.28912104458E+02  0.59301922415E+02  0.49999960584E+02 0.  0.
        -12    1    1    2    0    0  0.84549780759E+01  0.10455883764E+02  0.28912104458E+02  0.31886077585E+02  0.00000000000E+00 0.  1.
         11    1    3    3    0    0 -0.30326635625E+01  0.15066390966E+02 -0.15699565640E+02  0.21969741613E+02  0.51100000000E-03 0. -1.
        -11    1    3    3    0    0  0.89567552274E+01 -0.69745032310E+01 -0.30275138999E+01  0.11748744622E+02  0.51100000000E-03 0.  1.
         12    1    3    3    0    0 -0.14379069741E+02 -0.18547771498E+02 -0.10185024919E+02  0.25583436180E+02  0.00000000000E+00 0. -1.
</event>
<event>
 7    1  0.1324280E-011  0.5930195E+02  0.7816164E-02  0.1266605E+00
        -11   -1    0    0    0    0  0.00000000000E+00  0.00000000000E+00  0.45593999997E+02  0.45594000000E+02  0.51100000000E-03 0. -1.
         11   -1    0    0    0    0 -0.00000000000E+00 -0.00000000000E+00 -0.45593999997E+02  0.45594000000E+02  0.51100000000E-03 0.  1.
    9900012    2    1    2    0    0  0.87227806867E+01  0.26115687400E+02  0.16081182904E+02  0.59301945448E+02  0.50000002591E+02 0.  0.
        -12    1    1    2    0    0 -0.87227806867E+01 -0.26115687400E+02 -0.16081182904E+02  0.31886054552E+02  0.00000000000E+00 0.  1.
         11    1    3    3    0    0 -0.10392460273E+02 -0.75905481496E+01  0.11995141465E+01  0.12925110683E+02  0.51100000000E-03 0. -1.
        -11    1    3    3    0    0 -0.18299850363E+01 -0.94153206467E+00 -0.16572781032E+01  0.26423282980E+01  0.51100000000E-03 0.  1.
        -12    1    3    3    0    0  0.20945225995E+02  0.34647767614E+02  0.16538946861E+02  0.43734506467E+02  0.00000000000E+00 0.  1.
</event>
<event>
 7    1  0.1324280E-011  0.5930195E+02  0.7816164E-02  0.1266605E+00
        -11   -1    0    0    0    0  0.00000000000E+00  0.00000000000E+00  0.45593999997E+02  0.45594000000E+02  0.51100000000E-03 0. -1.
         11   -1    0    0    0    0 -0.00000000000E+00 -0.00000000000E+00 -0.45593999997E+02  0.45594000000E+02  0.51100000000E-03 0.  1.
    9900012    2    1    2    0    0  0.28682317068E+02  0.11164553712E+02 -0.83305283560E+01  0.59301948588E+02  0.50000008316E+02 0.  0.
        -12    1    1    2    0    0 -0.28682317068E+02 -0.11164553712E+02  0.83305283560E+01  0.31886051412E+02  0.00000000000E+00 0.  1.
         11    1    3    3    0    0  0.13957313324E+02 -0.83010446418E+01  0.14216367183E+02  0.21582841183E+02  0.51100000000E-03 0. -1.
        -11    1    3    3    0    0  0.13829024921E+01  0.16494088158E+02 -0.12987516045E+02  0.21039081176E+02  0.51100000000E-03 0.  1.
        -12    1    3    3    0    0  0.13342101253E+02  0.29715101958E+01 -0.95593794938E+01  0.16680026229E+02  0.00000000000E+00 0.  1.
</event>
<event>
 7    1  0.1324280E-011  0.5930180E+02  0.7816164E-02  0.1266605E+00
        -11   -1    0    0    0    0  0.00000000000E+00  0.00000000000E+00  0.45593999997E+02  0.45594000000E+02  0.51100000000E-03 0. -1.
         11   -1    0    0    0    0 -0.00000000000E+00 -0.00000000000E+00 -0.45593999997E+02  0.45594000000E+02  0.51100000000E-03 0.  1.
    9900012    2    1    2    0    0 -0.13280680201E+02  0.19716532611E+02  0.21251155734E+02  0.59301800088E+02  0.49999737487E+02 0.  0.
        -12    1    1    2    0    0  0.13280680201E+02 -0.19716532611E+02 -0.21251155734E+02  0.31886199912E+02  0.00000000000E+00 0.  1.
         11    1    3    3    0    0 -0.53804155026E+01  0.37775764849E+01  0.16017528395E+02  0.17314161003E+02  0.51100000000E-03 0. -1.
        -11    1    3    3    0    0  0.10897533757E+02  0.11205089220E+02  0.13747220300E+02  0.20815771247E+02  0.51100000000E-03 0.  1.
        -12    1    3    3    0    0 -0.18797798455E+02  0.47338669064E+01 -0.85135929606E+01  0.21171867837E+02  0.00000000000E+00 0.  1.
</event>
<event>
 7    1  0.1324280E-011  0.5930197E+02  0.7816164E-02  0.1266605E+00
        -11   -1    0    0    0    0  0.00000000000E+00  0.00000000000E+00  0.45593999997E+02  0.45594000000E+02  0.51100000000E-03 0. -1.
         11   -1    0    0    0    0 -0.00000000000E+00 -0.00000000000E+00 -0.45593999997E+02  0.45594000000E+02  0.51100000000E-03 0.  1.
    9900012    2    1    2    0    0 -0.13567503058E+02  0.28674500832E+02  0.32272043583E+01  0.59301968809E+02  0.50000045194E+02 0.  0.
        -12    1    1    2    0    0  0.13567503058E+02 -0.28674500832E+02 -0.32272043583E+01  0.31886031191E+02  0.00000000000E+00 0.  1.
         11    1    3    3    0    0  0.63167842886E+01  0.65775701560E+01 -0.94090878641E+01  0.13103325059E+02  0.51100000000E-03 0. -1.
        -11    1    3    3    0    0 -0.17630977588E+02  0.26056923251E+02 -0.13486636059E+01  0.31490212984E+02  0.51100000000E-03 0.  1.
         12    1    3    3    0    0 -0.22533097586E+01 -0.39599925753E+01  0.13984955828E+02  0.14708430766E+02  0.00000000000E+00 0. -1.
</event>
<event>
 7    1  0.1324280E-011  0.5930192E+02  0.7816164E-02  0.1266605E+00
        -11   -1    0    0    0    0  0.00000000000E+00  0.00000000000E+00  0.45593999997E+02  0.45594000000E+02  0.51100000000E-03 0. -1.
         11   -1    0    0    0    0 -0.00000000000E+00 -0.00000000000E+00 -0.45593999997E+02  0.45594000000E+02  0.51100000000E-03 0.  1.
    9900012    2    1    2    0    0  0.19158187912E+02  0.24341554352E+02 -0.75613946176E+01  0.59301919637E+02  0.49999955517E+02 0.  0.
        -12    1    1    2    0    0 -0.19158187912E+02 -0.24341554352E+02  0.75613946176E+01  0.31886080363E+02  0.00000000000E+00 0.  1.
         11    1    3    3    0    0 -0.92305294982E+01 -0.20816900666E+01 -0.77585956809E+00  0.94941069449E+01  0.51100000000E-03 0. -1.
        -11    1    3    3    0    0  0.55934925314E+01  0.12908867188E+01  0.10320413430E+02  0.11809508069E+02  0.51100000000E-03 0.  1.
        -12    1    3    3    0    0  0.22795224879E+02  0.25132357700E+02 -0.17105948479E+02  0.37998304623E+02  0.00000000000E+00 0.  1.
</event>
<event>
 7    1  0.1324280E-011  0.5930195E+02  0.7816164E-02  0.1266605E+00
        -11   -1    0    0    0    0  0.00000000000E+00  0.00000000000E+00  0.45593999997E+02  0.45594000000E+02  0.51100000000E-03 0.  1.
         11   -1    0    0    0    0 -0.00000000000E+00 -0.00000000000E+00 -0.45593999997E+02  0.45594000000E+02  0.51100000000E-03 0. -1.
    9900012    2    1    2    0    0 -0.36361101234E+01  0.17297710901E+02 -0.26538432567E+02  0.59301945017E+02  0.50000001804E+02 0.  0.
        -12    1    1    2    0    0  0.36361101234E+01 -0.17297710901E+02  0.26538432567E+02  0.31886054983E+02  0.00000000000E+00 0.  1.
         11    1    3    3    0    0 -0.27526288875E+01  0.16873173368E+02 -0.19638819874E+02  0.26037745517E+02  0.51100000000E-03 0. -1.
        -11    1    3    3    0    0  0.49582272447E+01 -0.40462370973E+00 -0.19086491393E+02  0.19724144892E+02  0.51100000000E-03 0.  1.
        -12    1    3    3    0    0 -0.58417084806E+01  0.82916124243E+00  0.12186878700E+02  0.13540054608E+02  0.00000000000E+00 0.  1.
</event>
<event>
 7    1  0.1324280E-011  0.5930197E+02  0.7816164E-02  0.1266605E+00
        -11   -1    0    0    0    0  0.00000000000E+00  0.00000000000E+00  0.45593999997E+02  0.45594000000E+02  0.51100000000E-03 0. -1.
         11   -1    0    0    0    0 -0.00000000000E+00 -0.00000000000E+00 -0.45593999997E+02  0.45594000000E+02  0.51100000000E-03 0.  1.
    9900012    2    1    2    0    0 -0.22865203537E+02 -0.37420214865E+01  0.21906586428E+02  0.59301971923E+02  0.50000050874E+02 0.  0.
        -12    1    1    2    0    0  0.22865203537E+02  0.37420214865E+01 -0.21906586428E+02  0.31886028077E+02  0.00000000000E+00 0.  1.
         11    1    3    3    0    0 -0.27598868176E+02  0.58859731900E+01  0.63571042326E+01  0.28926717399E+02  0.51100000000E-03 0. -1.
        -11    1    3    3    0    0 -0.12411224969E-01  0.67275406379E+01  0.10750114556E+02  0.12681676557E+02  0.51100000000E-03 0.  1.
        -12    1    3    3    0    0  0.47460758638E+01 -0.16355535314E+02  0.47993676393E+01  0.17693577967E+02  0.00000000000E+00 0.  1.
</event>
<event>
 7    1  0.1324280E-011  0.5930195E+02  0.7816164E-02  0.1266605E+00
        -11   -1    0    0    0    0  0.00000000000E+00  0.00000000000E+00  0.45593999997E+02  0.45594000000E+02  0.51100000000E-03 0. -1.
         11   -1    0    0    0    0 -0.00000000000E+00 -0.00000000000E+00 -0.45593999997E+02  0.45594000000E+02  0.51100000000E-03 0.  1.
    9900012    2    1    2    0    0 -0.10050425606E+02  0.12352869547E+02  0.27624554825E+02  0.59301945521E+02  0.50000002724E+02 0.  0.
        -12    1    1    2    0    0  0.10050425606E+02 -0.12352869547E+02 -0.27624554825E+02  0.31886054479E+02  0.00000000000E+00 0.  1.
         11    1    3    3    0    0 -0.11038606203E+02  0.13364788452E+02  0.20692646827E+02  0.26993592392E+02  0.51100000000E-03 0. -1.
        -11    1    3    3    0    0  0.29460681423E+01  0.14665017892E+02  0.69873161993E+01  0.16509532253E+02  0.51100000000E-03 0.  1.
        -12    1    3    3    0    0 -0.19578875458E+01 -0.15676936798E+02 -0.55408200806E-01  0.15798820876E+02  0.00000000000E+00 0.  1.
</event>
<event>
 7    1  0.1324280E-011  0.5930193E+02  0.7816164E-02  0.1266605E+00
        -11   -1    0    0    0    0  0.00000000000E+00  0.00000000000E+00  0.45593999997E+02  0.45594000000E+02  0.51100000000E-03 0.  1.
         11   -1    0    0    0    0 -0.00000000000E+00 -0.00000000000E+00 -0.45593999997E+02  0.45594000000E+02  0.51100000000E-03 0. -1.
    9900012    2    1    2    0    0  0.23174690368E+02  0.53539547077E+01 -0.21236534964E+02  0.59301929030E+02  0.49999972647E+02 0.  0.
        -12    1    1    2    0    0 -0.23174690368E+02 -0.53539547077E+01  0.21236534964E+02  0.31886070970E+02  0.00000000000E+00 0.  1.
         11    1    3    3    0    0 -0.28672445240E+01 -0.25206492810E+01 -0.77761116698E+01  0.86627176406E+01  0.51100000000E-03 0. -1.
        -11    1    3    3    0    0  0.29248359708E+02 -0.35223845379E+01 -0.21375572818E+02  0.36397648990E+02  0.51100000000E-03 0.  1.
        -12    1    3    3    0    0 -0.32064248167E+01  0.11396988527E+02  0.79151495236E+01  0.14241562399E+02  0.00000000000E+00 0.  1.
</event>
<event>
 7    1  0.1324280E-011  0.5930197E+02  0.7816164E-02  0.1266605E+00
        -11   -1    0    0    0    0  0.00000000000E+00  0.00000000000E+00  0.45593999997E+02  0.45594000000E+02  0.51100000000E-03 0.  1.
         11   -1    0    0    0    0 -0.00000000000E+00 -0.00000000000E+00 -0.45593999997E+02  0.45594000000E+02  0.51100000000E-03 0. -1.
    9900012    2    1    2    0    0 -0.54588283712E+01  0.95178742791E+01 -0.29938775706E+02  0.59301968125E+02  0.50000043947E+02 0.  0.
        -12    1    1    2    0    0  0.54588283712E+01 -0.95178742791E+01  0.29938775706E+02  0.31886031875E+02  0.00000000000E+00 0.  1.
         11    1    3    3    0    0  0.75674040132E+01 -0.23867911075E+01 -0.93444954473E+01  0.12258954715E+02  0.51100000000E-03 0. -1.
        -11    1    3    3    0    0 -0.19785239712E+01 -0.13695818663E+02 -0.10570683120E+02  0.17413481784E+02  0.51100000000E-03 0.  1.
         12    1    3    3    0    0 -0.11047708413E+02  0.25600484049E+02 -0.10023597139E+02  0.29629531625E+02  0.00000000000E+00 0. -1.
</event>
<event>
 7    1  0.1324280E-011  0.5930195E+02  0.7816164E-02  0.1266605E+00
        -11   -1    0    0    0    0  0.00000000000E+00  0.00000000000E+00  0.45593999997E+02  0.45594000000E+02  0.51100000000E-03 0.  1.
         11   -1    0    0    0    0 -0.00000000000E+00 -0.00000000000E+00 -0.45593999997E+02  0.45594000000E+02  0.51100000000E-03 0. -1.
    9900012    2    1    2    0    0 -0.28772544364E+02 -0.60485370855E+01 -0.12340017008E+02  0.59301950859E+02  0.50000012459E+02 0.  0.
        -12    1    1    2    0    0  0.28772544364E+02  0.60485370855E+01  0.12340017008E+02  0.31886049141E+02  0.00000000000E+00 0.  1.
         11    1    3    3    0    0 -0.15858691681E+02 -0.56678986966E+01  0.13001201889E+01  0.16891225244E+02  0.51100000000E-03 0. -1.
        -11    1    3    3    0    0 -0.25783406271E+02  0.33056599389E+01 -0.49813836544E+01  0.26467444341E+02  0.51100000000E-03 0.  1.
         12    1    3    3    0    0  0.12869553588E+02 -0.36862983278E+01 -0.86587535420E+01  0.15943281275E+02  0.00000000000E+00 0. -1.
</event>
<event>
 7    1  0.1324280E-011  0.5930190E+02  0.7816164E-02  0.1266605E+00
        -11   -1    0    0    0    0  0.00000000000E+00  0.00000000000E+00  0.45593999997E+02  0.45594000000E+02  0.51100000000E-03 0. -1.
         11   -1    0    0    0    0 -0.00000000000E+00 -0.00000000000E+00 -0.45593999997E+02  0.45594000000E+02  0.51100000000E-03 0.  1.
    9900012    2    1    2    0    0  0.27504299255E+02  0.14606889233E+02  0.68465891811E+01  0.59301898420E+02  0.49999916822E+02 0.  0.
        -12    1    1    2    0    0 -0.27504299255E+02 -0.14606889233E+02 -0.68465891811E+01  0.31886101580E+02  0.00000000000E+00 0.  1.
         11    1    3    3    0    0  0.23426088874E+02  0.11903714038E+02 -0.73999691214E+01  0.27299076744E+02  0.51100000000E-03 0. -1.
        -11    1    3    3    0    0 -0.10292923944E+01 -0.30619142685E+01 -0.79108246700E+01  0.85449347008E+01  0.51100000000E-03 0.  1.
        -12    1    3    3    0    0  0.51075027756E+01  0.57650894635E+01  0.22157382972E+02  0.23457886975E+02  0.00000000000E+00 0.  1.
</event>
<event>
 7    1  0.1324280E-011  0.5930194E+02  0.7816164E-02  0.1266605E+00
        -11   -1    0    0    0    0  0.00000000000E+00  0.00000000000E+00  0.45593999997E+02  0.45594000000E+02  0.51100000000E-03 0.  1.
         11   -1    0    0    0    0 -0.00000000000E+00 -0.00000000000E+00 -0.45593999997E+02  0.45594000000E+02  0.51100000000E-03 0. -1.
    9900012    2    1    2    0    0  0.30473749567E+02 -0.77111241515E+01 -0.53488268358E+01  0.59301940399E+02  0.49999993383E+02 0.  0.
        -12    1    1    2    0    0 -0.30473749567E+02  0.77111241515E+01  0.53488268358E+01  0.31886059601E+02  0.00000000000E+00 0.  1.
         11    1    3    3    0    0  0.27719520659E+02 -0.44847861268E+01 -0.77893595875E+01  0.29140337253E+02  0.51100000000E-03 0. -1.
        -11    1    3    3    0    0  0.54892222366E+01  0.28649257213E+01  0.14839258466E+02  0.16079270886E+02  0.51100000000E-03 0.  1.
         12    1    3    3    0    0 -0.27349933291E+01 -0.60912637461E+01 -0.12398725714E+02  0.14082332260E+02  0.00000000000E+00 0. -1.
</event>
<event>
 7    1  0.1324280E-011  0.5930195E+02  0.7816164E-02  0.1266605E+00
        -11   -1    0    0    0    0  0.00000000000E+00  0.00000000000E+00  0.45593999997E+02  0.45594000000E+02  0.51100000000E-03 0. -1.
         11   -1    0    0    0    0 -0.00000000000E+00 -0.00000000000E+00 -0.45593999997E+02  0.45594000000E+02  0.51100000000E-03 0.  1.
    9900012    2    1    2    0    0 -0.24799996835E+02 -0.48372334916E+00  0.20036125447E+02  0.59301950476E+02  0.50000011760E+02 0.  0.
        -12    1    1    2    0    0  0.24799996835E+02  0.48372334916E+00 -0.20036125447E+02  0.31886049524E+02  0.00000000000E+00 0.  1.
         11    1    3    3    0    0  0.57203964685E+00 -0.22077797353E+01 -0.46307077158E+01  0.51618770741E+01  0.51100000000E-03 0. -1.
        -11    1    3    3    0    0 -0.12224990355E+02 -0.17063860702E+02  0.74731914029E+00  0.21004385671E+02  0.51100000000E-03 0.  1.
         12    1    3    3    0    0 -0.13147046127E+02  0.18787917088E+02  0.23919514022E+02  0.33135687732E+02  0.00000000000E+00 0. -1.
</event>
<event>
 7    1  0.1324280E-011  0.5930193E+02  0.7816164E-02  0.1266605E+00
        -11   -1    0    0    0    0  0.00000000000E+00  0.00000000000E+00  0.45593999997E+02  0.45594000000E+02  0.51100000000E-03 0.  1.
         11   -1    0    0    0    0 -0.00000000000E+00 -0.00000000000E+00 -0.45593999997E+02  0.45594000000E+02  0.51100000000E-03 0. -1.
    9900012    2    1    2    0    0  0.71509851714E+01 -0.76703348498E+00 -0.31064396771E+02  0.59301926613E+02  0.49999968240E+02 0.  0.
        -12    1    1    2    0    0 -0.71509851714E+01  0.76703348498E+00  0.31064396771E+02  0.31886073387E+02  0.00000000000E+00 0.  1.
         11    1    3    3    0    0  0.34610472121E+01  0.85916007743E+00  0.12410312675E-01  0.35661124659E+01  0.51100000000E-03 0. -1.
        -11    1    3    3    0    0  0.46811859851E+01  0.21702220978E+02 -0.20044474357E+02  0.29911216125E+02  0.51100000000E-03 0.  1.
         12    1    3    3    0    0 -0.99124802579E+00 -0.23328414540E+02 -0.11032332727E+02  0.25824598022E+02  0.00000000000E+00 0. -1.
</event>
<event>
 7    1  0.1324280E-011  0.5930195E+02  0.7816164E-02  0.1266605E+00
        -11   -1    0    0    0    0  0.00000000000E+00  0.00000000000E+00  0.45593999997E+02  0.45594000000E+02  0.51100000000E-03 0.  1.
         11   -1    0    0    0    0 -0.00000000000E+00 -0.00000000000E+00 -0.45593999997E+02  0.45594000000E+02  0.51100000000E-03 0. -1.
    9900012    2    1    2    0    0 -0.12916305508E+01 -0.65021816072E+01 -0.31189313908E+02  0.59301953253E+02  0.50000016824E+02 0.  0.
        -12    1    1    2    0    0  0.12916305508E+01  0.65021816072E+01  0.31189313908E+02  0.31886046747E+02  0.00000000000E+00 0.  1.
         11    1    3    3    0    0  0.52092978788E+01 -0.12016833251E+01 -0.23203969671E+02  0.23811867544E+02  0.51100000000E-03 0. -1.
        -11    1    3    3    0    0  0.13528207476E+01 -0.63689510963E+01 -0.20035473253E+02  0.21066889917E+02  0.51100000000E-03 0.  1.
        -12    1    3    3    0    0 -0.78537491772E+01  0.10684528142E+01  0.12050129016E+02  0.14423195792E+02  0.00000000000E+00 0.  1.
</event>
<event>
 7    1  0.1324280E-011  0.5930193E+02  0.7816164E-02  0.1266605E+00
        -11   -1    0    0    0    0  0.00000000000E+00  0.00000000000E+00  0.45593999997E+02  0.45594000000E+02  0.51100000000E-03 0. -1.
         11   -1    0    0    0    0 -0.00000000000E+00 -0.00000000000E+00 -0.45593999997E+02  0.45594000000E+02  0.51100000000E-03 0.  1.
    9900012    2    1    2    0    0 -0.98605425946E+01  0.16671159763E+02  0.25329110558E+02  0.59301926084E+02  0.49999967275E+02 0.  0.
        -12    1    1    2    0    0  0.98605425946E+01 -0.16671159763E+02 -0.25329110558E+02  0.31886073916E+02  0.00000000000E+00 0.  1.
         11    1    3    3    0    0  0.33874775107E+01 -0.29524878009E+01  0.86710655885E+01  0.97662463005E+01  0.51100000000E-03 0. -1.
        -11    1    3    3    0    0 -0.37265419348E+01 -0.11288157691E+02 -0.22080204552E+01  0.12090697806E+02  0.51100000000E-03 0.  1.
        -12    1    3    3    0    0 -0.95214781705E+01  0.30911805255E+02  0.18866065425E+02  0.37444981977E+02  0.00000000000E+00 0.  1.
</event>
<event>
 7    1  0.1324280E-011  0.5930195E+02  0.7816164E-02  0.1266605E+00
        -11   -1    0    0    0    0  0.00000000000E+00  0.00000000000E+00  0.45593999997E+02  0.45594000000E+02  0.51100000000E-03 0. -1.
         11   -1    0    0    0    0 -0.00000000000E+00 -0.00000000000E+00 -0.45593999997E+02  0.45594000000E+02  0.51100000000E-03 0.  1.
    9900012    2    1    2    0    0  0.66667721101E+01  0.10726945556E+02  0.29278092324E+02  0.59301954440E+02  0.50000018990E+02 0.  0.
        -12    1    1    2    0    0 -0.66667721101E+01 -0.10726945556E+02 -0.29278092324E+02  0.31886045560E+02  0.00000000000E+00 0.  1.
         11    1    3    3    0    0  0.20169020828E+02  0.21598743943E+02  0.22094905495E+02  0.36898238307E+02  0.51100000000E-03 0. -1.
        -11    1    3    3    0    0 -0.88465400294E+01 -0.21829140480E+01 -0.15394531826E+01  0.92410118816E+01  0.51100000000E-03 0.  1.
        -12    1    3    3    0    0 -0.46557086889E+01 -0.86888843389E+01  0.87226400110E+01  0.13162704251E+02  0.00000000000E+00 0.  1.
</event>
<event>
 7    1  0.1324280E-011  0.5930194E+02  0.7816164E-02  0.1266605E+00
        -11   -1    0    0    0    0  0.00000000000E+00  0.00000000000E+00  0.45593999997E+02  0.45594000000E+02  0.51100000000E-03 0.  1.
         11   -1    0    0    0    0 -0.00000000000E+00 -0.00000000000E+00 -0.45593999997E+02  0.45594000000E+02  0.51100000000E-03 0. -1.
    9900012    2    1    2    0    0 -0.21699592900E+02 -0.15648149132E+02 -0.17348886882E+02  0.59301940674E+02  0.49999993884E+02 0.  0.
        -12    1    1    2    0    0  0.21699592900E+02  0.15648149132E+02  0.17348886882E+02  0.31886059326E+02  0.00000000000E+00 0.  1.
         11    1    3    3    0    0 -0.16946786458E+02 -0.11291529478E+02  0.22448684270E+01  0.20487353263E+02  0.51100000000E-03 0. -1.
        -11    1    3    3    0    0 -0.15586468885E+02 -0.10145633266E+02 -0.41030932476E+01  0.19044874930E+02  0.51100000000E-03 0.  1.
         12    1    3    3    0    0  0.10833662442E+02  0.57890136120E+01 -0.15490662061E+02  0.19769712482E+02  0.00000000000E+00 0. -1.
</event>
<event>
 7    1  0.1324280E-011  0.5930194E+02  0.7816164E-02  0.1266605E+00
        -11   -1    0    0    0    0  0.00000000000E+00  0.00000000000E+00  0.45593999997E+02  0.45594000000E+02  0.51100000000E-03 0.  1.
         11   -1    0    0    0    0 -0.00000000000E+00 -0.00000000000E+00 -0.45593999997E+02  0.45594000000E+02  0.51100000000E-03 0. -1.
    9900012    2    1    2    0    0  0.13288497963E+02 -0.53802595187E-01 -0.28985060999E+02  0.59301939818E+02  0.49999992322E+02 0.  0.
        -12    1    1    2    0    0 -0.13288497963E+02  0.53802595187E-01  0.28985060999E+02  0.31886060182E+02  0.00000000000E+00 0.  1.
         11    1    3    3    0    0 -0.15421865428E+01  0.14186552568E+02 -0.10128788302E+02  0.17499399013E+02  0.51100000000E-03 0. -1.
        -11    1    3    3    0    0 -0.93440945967E+01 -0.31414152225E+01 -0.92558548158E+01  0.13522257284E+02  0.51100000000E-03 0.  1.
        -12    1    3    3    0    0  0.24174779103E+02 -0.11098939941E+02 -0.96004178811E+01  0.28280283520E+02  0.00000000000E+00 0.  1.
</event>
<event>
 7    1  0.1324280E-011  0.5930210E+02  0.7816164E-02  0.1266604E+00
        -11   -1    0    0    0    0  0.00000000000E+00  0.00000000000E+00  0.45593999997E+02  0.45594000000E+02  0.51100000000E-03 0.  1.
         11   -1    0    0    0    0 -0.00000000000E+00 -0.00000000000E+00 -0.45593999997E+02  0.45594000000E+02  0.51100000000E-03 0. -1.
    9900012    2    1    2    0    0  0.15342608981E+02 -0.19500841121E+02 -0.20025787220E+02  0.59302100161E+02  0.50000284748E+02 0.  0.
        -12    1    1    2    0    0 -0.15342608981E+02  0.19500841121E+02  0.20025787220E+02  0.31885899839E+02  0.00000000000E+00 0.  1.
         11    1    3    3    0    0  0.94053216843E+01  0.15219846021E+01 -0.28341866262E+00  0.95318854123E+01  0.51100000000E-03 0. -1.
        -11    1    3    3    0    0  0.19371960333E+02 -0.15099642249E+02 -0.24144858172E+02  0.34441925318E+02  0.51100000000E-03 0.  1.
        -12    1    3    3    0    0 -0.13434673036E+02 -0.59231834744E+01  0.44024896146E+01  0.15328289431E+02  0.00000000000E+00 0.  1.
</event>
<event>
 7    1  0.1324280E-011  0.5930199E+02  0.7816164E-02  0.1266605E+00
        -11   -1    0    0    0    0  0.00000000000E+00  0.00000000000E+00  0.45593999997E+02  0.45594000000E+02  0.51100000000E-03 0. -1.
         11   -1    0    0    0    0 -0.00000000000E+00 -0.00000000000E+00 -0.45593999997E+02  0.45594000000E+02  0.51100000000E-03 0.  1.
    9900012    2    1    2    0    0 -0.97790456783E+01  0.12348311763E+02  0.27723766900E+02  0.59301987567E+02  0.50000079404E+02 0.  0.
        -12    1    1    2    0    0  0.97790456783E+01 -0.12348311763E+02 -0.27723766900E+02  0.31886012433E+02  0.00000000000E+00 0.  1.
         11    1    3    3    0    0  0.89700425747E+01  0.87609042295E-01  0.21382225096E+02  0.23187688316E+02  0.51100000000E-03 0. -1.
        -11    1    3    3    0    0  0.33927031444E+01 -0.32634617776E+01 -0.49307877416E+01  0.68171317585E+01  0.51100000000E-03 0.  1.
        -12    1    3    3    0    0 -0.22141791397E+02  0.15524164499E+02  0.11272329546E+02  0.29297167492E+02  0.00000000000E+00 0.  1.
</event>
<event>
 7    1  0.1324280E-011  0.5930196E+02  0.7816164E-02  0.1266605E+00
        -11   -1    0    0    0    0  0.00000000000E+00  0.00000000000E+00  0.45593999997E+02  0.45594000000E+02  0.51100000000E-03 0.  1.
         11   -1    0    0    0    0 -0.00000000000E+00 -0.00000000000E+00 -0.45593999997E+02  0.45594000000E+02  0.51100000000E-03 0. -1.
    9900012    2    1    2    0    0  0.12284664994E+02 -0.29204960883E+02 -0.35884508707E+01  0.59301957382E+02  0.50000024355E+02 0.  0.
        -12    1    1    2    0    0 -0.12284664994E+02  0.29204960883E+02  0.35884508707E+01  0.31886042618E+02  0.00000000000E+00 0.  1.
         11    1    3    3    0    0  0.24865759682E+01  0.62403872111E+00 -0.74066652291E+01  0.78378041854E+01  0.51100000000E-03 0. -1.
        -11    1    3    3    0    0  0.67162346298E+01  0.93548181420E+01  0.39021292640E+01  0.12159236947E+02  0.51100000000E-03 0.  1.
         12    1    3    3    0    0  0.30818543963E+01 -0.39183817746E+02 -0.83914905528E-01  0.39304916250E+02  0.00000000000E+00 0. -1.
</event>
<event>
 7    1  0.1324280E-011  0.5930194E+02  0.7816164E-02  0.1266605E+00
        -11   -1    0    0    0    0  0.00000000000E+00  0.00000000000E+00  0.45593999997E+02  0.45594000000E+02  0.51100000000E-03 0.  1.
         11   -1    0    0    0    0 -0.00000000000E+00 -0.00000000000E+00 -0.45593999997E+02  0.45594000000E+02  0.51100000000E-03 0. -1.
    9900012    2    1    2    0    0 -0.16646565349E+02  0.17355844648E+02 -0.20937705852E+02  0.59301937093E+02  0.49999987353E+02 0.  0.
        -12    1    1    2    0    0  0.16646565349E+02 -0.17355844648E+02  0.20937705852E+02  0.31886062907E+02  0.00000000000E+00 0.  1.
         11    1    3    3    0    0 -0.24523054858E+01 -0.10675756982E+02  0.27926521686E+01  0.11304180454E+02  0.51100000000E-03 0.  1.
        -11    1    3    3    0    0 -0.20611668804E+02  0.16039489880E+02 -0.82458507749E+01  0.27387956874E+02  0.51100000000E-03 0. -1.
        -12    1    3    3    0    0  0.64174089402E+01  0.11992111750E+02 -0.15484507245E+02  0.20609799765E+02  0.00000000000E+00 0.  1.
</event>
<event>
 7    1  0.1324280E-011  0.5930195E+02  0.7816164E-02  0.1266605E+00
        -11   -1    0    0    0    0  0.00000000000E+00  0.00000000000E+00  0.45593999997E+02  0.45594000000E+02  0.51100000000E-03 0. -1.
         11   -1    0    0    0    0 -0.00000000000E+00 -0.00000000000E+00 -0.45593999997E+02  0.45594000000E+02  0.51100000000E-03 0.  1.
    9900012    2    1    2    0    0  0.61164636578E+01 -0.24849021983E+02  0.19021973491E+02  0.59301945106E+02  0.50000001966E+02 0.  0.
        -12    1    1    2    0    0 -0.61164636578E+01  0.24849021983E+02 -0.19021973491E+02  0.31886054894E+02  0.00000000000E+00 0.  1.
         11    1    3    3    0    0  0.74901436130E+01 -0.22802316294E+01 -0.13119089620E+02  0.15277834282E+02  0.51100000000E-03 0. -1.
        -11    1    3    3    0    0  0.23571350927E+01 -0.93688537688E+01  0.65873417599E+00  0.96832555353E+01  0.51100000000E-03 0.  1.
         12    1    3    3    0    0 -0.37308150479E+01 -0.13199936585E+02  0.31482328935E+02  0.34340855289E+02  0.00000000000E+00 0. -1.
</event>
<event>
 7    1  0.1324280E-011  0.5930192E+02  0.7816164E-02  0.1266605E+00
        -11   -1    0    0    0    0  0.00000000000E+00  0.00000000000E+00  0.45593999997E+02  0.45594000000E+02  0.51100000000E-03 0. -1.
         11   -1    0    0    0    0 -0.00000000000E+00 -0.00000000000E+00 -0.45593999997E+02  0.45594000000E+02  0.51100000000E-03 0.  1.
    9900012    2    1    2    0    0  0.35947230096E+01  0.18357255373E+01  0.31629573152E+02  0.59301924363E+02  0.49999964136E+02 0.  0.
        -12    1    1    2    0    0 -0.35947230096E+01 -0.18357255373E+01 -0.31629573152E+02  0.31886075637E+02  0.00000000000E+00 0.  1.
         11    1    3    3    0    0 -0.78449613493E-01 -0.64833937257E+01  0.38746024184E+02  0.39284792718E+02  0.51100000000E-03 0. -1.
        -11    1    3    3    0    0 -0.29368322154E+01  0.66689661287E+01  0.29503994374E+01  0.78616124165E+01  0.51100000000E-03 0.  1.
         12    1    3    3    0    0  0.66100048386E+01  0.16501531344E+01 -0.10066850470E+02  0.12155519228E+02  0.00000000000E+00 0. -1.
</event>
<event>
 7    1  0.1324280E-011  0.5930193E+02  0.7816164E-02  0.1266605E+00
        -11   -1    0    0    0    0  0.00000000000E+00  0.00000000000E+00  0.45593999997E+02  0.45594000000E+02  0.51100000000E-03 0. -1.
         11   -1    0    0    0    0 -0.00000000000E+00 -0.00000000000E+00 -0.45593999997E+02  0.45594000000E+02  0.51100000000E-03 0.  1.
    9900012    2    1    2    0    0  0.11457081303E+02 -0.19092387463E+02  0.22824053369E+02  0.59301931205E+02  0.49999976614E+02 0.  0.
        -12    1    1    2    0    0 -0.11457081303E+02  0.19092387463E+02 -0.22824053369E+02  0.31886068795E+02  0.00000000000E+00 0.  1.
         11    1    3    3    0    0 -0.27648568151E+01 -0.13426480168E+02  0.30899844063E+01  0.14052145986E+02  0.51100000000E-03 0. -1.
        -11    1    3    3    0    0  0.79075021397E+01 -0.14218543155E+02  0.27590896465E+02  0.32030503080E+02  0.51100000000E-03 0.  1.
        -12    1    3    3    0    0  0.63144359785E+01  0.85526358606E+01 -0.78568275019E+01  0.13219282140E+02  0.00000000000E+00 0.  1.
</event>
<event>
 7    1  0.1324280E-011  0.5930194E+02  0.7816164E-02  0.1266605E+00
        -11   -1    0    0    0    0  0.00000000000E+00  0.00000000000E+00  0.45593999997E+02  0.45594000000E+02  0.51100000000E-03 0.  1.
         11   -1    0    0    0    0 -0.00000000000E+00 -0.00000000000E+00 -0.45593999997E+02  0.45594000000E+02  0.51100000000E-03 0. -1.
    9900012    2    1    2    0    0 -0.78593419321E+01  0.66809518531E+00 -0.30895070757E+02  0.59301937153E+02  0.49999987462E+02 0.  0.
        -12    1    1    2    0    0  0.78593419321E+01 -0.66809518531E+00  0.30895070757E+02  0.31886062847E+02  0.00000000000E+00 0.  1.
         11    1    3    3    0    0  0.85419177783E+01 -0.64707153758E+01 -0.62246724406E+01  0.12392782741E+02  0.51100000000E-03 0. -1.
        -11    1    3    3    0    0  0.33988004976E+01 -0.34610433834E+01  0.67347156783E+01  0.82998229892E+01  0.51100000000E-03 0.  1.
         12    1    3    3    0    0 -0.19800060208E+02  0.10599853945E+02 -0.31405113995E+02  0.38609331423E+02  0.00000000000E+00 0. -1.
</event>
<event>
 7    1  0.1324280E-011  0.5930196E+02  0.7816164E-02  0.1266605E+00
        -11   -1    0    0    0    0  0.00000000000E+00  0.00000000000E+00  0.45593999997E+02  0.45594000000E+02  0.51100000000E-03 0.  1.
         11   -1    0    0    0    0 -0.00000000000E+00 -0.00000000000E+00 -0.45593999997E+02  0.45594000000E+02  0.51100000000E-03 0. -1.
    9900012    2    1    2    0    0  0.10094452592E+01 -0.42619981667E+01 -0.31583795607E+02  0.59301956767E+02  0.50000023233E+02 0.  0.
        -12    1    1    2    0    0 -0.10094452592E+01  0.42619981667E+01  0.31583795607E+02  0.31886043233E+02  0.00000000000E+00 0.  1.
         11    1    3    3    0    0  0.86718120653E+01 -0.71039575714E+01 -0.11984767410E+02  0.16410398770E+02  0.51100000000E-03 0. -1.
        -11    1    3    3    0    0  0.13781838969E+01 -0.16260839725E+02 -0.45327080987E+01  0.16936934267E+02  0.51100000000E-03 0.  1.
         12    1    3    3    0    0 -0.90405507030E+01  0.19102799129E+02 -0.15066320099E+02  0.25954623729E+02  0.00000000000E+00 0. -1.
</event>
<event>
 7    1  0.1324280E-011  0.5930190E+02  0.7816164E-02  0.1266605E+00
        -11   -1    0    0    0    0  0.00000000000E+00  0.00000000000E+00  0.45593999997E+02  0.45594000000E+02  0.51100000000E-03 0. -1.
         11   -1    0    0    0    0 -0.00000000000E+00 -0.00000000000E+00 -0.45593999997E+02  0.45594000000E+02  0.51100000000E-03 0.  1.
    9900012    2    1    2    0    0  0.73227929928E+01 -0.16967015029E+02  0.25985000138E+02  0.59301903839E+02  0.49999926706E+02 0.  0.
        -12    1    1    2    0    0 -0.73227929928E+01  0.16967015029E+02 -0.25985000138E+02  0.31886096161E+02  0.00000000000E+00 0.  1.
         11    1    3    3    0    0  0.14627209865E+02  0.57306840763E+01 -0.75710767424E+00  0.15727975735E+02  0.51100000000E-03 0. -1.
        -11    1    3    3    0    0  0.37705606942E+01  0.33280024862E+01  0.86273383014E+01  0.99861751900E+01  0.51100000000E-03 0.  1.
         12    1    3    3    0    0 -0.11074977567E+02 -0.26025701591E+02  0.18114769511E+02  0.33587752915E+02  0.00000000000E+00 0. -1.
</event>
<event>
 7    1  0.1324280E-011  0.5930192E+02  0.7816164E-02  0.1266605E+00
        -11   -1    0    0    0    0  0.00000000000E+00  0.00000000000E+00  0.45593999997E+02  0.45594000000E+02  0.51100000000E-03 0. -1.
         11   -1    0    0    0    0 -0.00000000000E+00 -0.00000000000E+00 -0.45593999997E+02  0.45594000000E+02  0.51100000000E-03 0.  1.
    9900012    2    1    2    0    0  0.18213222142E+02 -0.20334118579E+02  0.16477998892E+02  0.59301917038E+02  0.49999950777E+02 0.  0.
        -12    1    1    2    0    0 -0.18213222142E+02  0.20334118579E+02 -0.16477998892E+02  0.31886082962E+02  0.00000000000E+00 0.  1.
         11    1    3    3    0    0  0.65018065462E+01  0.84901628531E+01  0.47424429358E+01  0.11698167331E+02  0.51100000000E-03 0. -1.
        -11    1    3    3    0    0 -0.10730346195E+02 -0.23443463886E+01  0.64547378341E-01  0.10983644936E+02  0.51100000000E-03 0.  1.
        -12    1    3    3    0    0  0.22441761791E+02 -0.26479935044E+02  0.11671008578E+02  0.36620104771E+02  0.00000000000E+00 0.  1.
</event>
<event>
 7    1  0.1324280E-011  0.5930190E+02  0.7816164E-02  0.1266605E+00
        -11   -1    0    0    0    0  0.00000000000E+00  0.00000000000E+00  0.45593999997E+02  0.45594000000E+02  0.51100000000E-03 0.  1.
         11   -1    0    0    0    0 -0.00000000000E+00 -0.00000000000E+00 -0.45593999997E+02  0.45594000000E+02  0.51100000000E-03 0. -1.
    9900012    2    1    2    0    0 -0.29758751400E+02  0.14073402668E+01 -0.11364849101E+02  0.59301895085E+02  0.49999910741E+02 0.  0.
        -12    1    1    2    0    0  0.29758751400E+02 -0.14073402668E+01  0.11364849101E+02  0.31886104915E+02  0.00000000000E+00 0.  1.
         11    1    3    3    0    0 -0.27423846090E+01 -0.13999687660E+01  0.48625950084E+01  0.57554683881E+01  0.51100000000E-03 0. -1.
        -11    1    3    3    0    0  0.80866402061E+01 -0.10628594938E+02 -0.28948409459E+01  0.13665316847E+02  0.51100000000E-03 0.  1.
        -12    1    3    3    0    0 -0.35103006998E+02  0.13435903970E+02 -0.13332603163E+02  0.39881109850E+02  0.00000000000E+00 0.  1.
</event>
<event>
 7    1  0.1324280E-011  0.5930196E+02  0.7816164E-02  0.1266605E+00
        -11   -1    0    0    0    0  0.00000000000E+00  0.00000000000E+00  0.45593999997E+02  0.45594000000E+02  0.51100000000E-03 0.  1.
         11   -1    0    0    0    0 -0.00000000000E+00 -0.00000000000E+00 -0.45593999997E+02  0.45594000000E+02  0.51100000000E-03 0. -1.
    9900012    2    1    2    0    0 -0.50522896546E+01 -0.21875089989E+02  0.22642312349E+02  0.59301960715E+02  0.50000030433E+02 0.  0.
        -12    1    1    2    0    0  0.50522896546E+01  0.21875089989E+02 -0.22642312349E+02  0.31886039285E+02  0.00000000000E+00 0.  1.
         11    1    3    3    0    0  0.71870861864E+01 -0.56547332418E+01 -0.46890429425E+01  0.10277029720E+02  0.51100000000E-03 0. -1.
        -11    1    3    3    0    0 -0.95259866617E+01  0.52145956064E+01 -0.34704152184E+01  0.11400886425E+02  0.51100000000E-03 0.  1.
        -12    1    3    3    0    0 -0.27133891794E+01 -0.21434952354E+02  0.30801770510E+02  0.37624044570E+02  0.00000000000E+00 0.  1.
</event>
<event>
 7    1  0.1324280E-011  0.5930196E+02  0.7816164E-02  0.1266605E+00
        -11   -1    0    0    0    0  0.00000000000E+00  0.00000000000E+00  0.45593999997E+02  0.45594000000E+02  0.51100000000E-03 0.  1.
         11   -1    0    0    0    0 -0.00000000000E+00 -0.00000000000E+00 -0.45593999997E+02  0.45594000000E+02  0.51100000000E-03 0. -1.
    9900012    2    1    2    0    0 -0.78300050807E+01  0.20913261491E+01 -0.30838882558E+02  0.59301963839E+02  0.50000036132E+02 0.  0.
        -12    1    1    2    0    0  0.78300050807E+01 -0.20913261491E+01  0.30838882558E+02  0.31886036161E+02  0.00000000000E+00 0.  1.
         11    1    3    3    0    0 -0.13513230437E+02 -0.94003105654E+01 -0.96016331567E+01  0.19056877895E+02  0.51100000000E-03 0. -1.
        -11    1    3    3    0    0 -0.73910590893E+01 -0.23667826646E+01 -0.19649615045E+02  0.21126684225E+02  0.51100000000E-03 0.  1.
        -12    1    3    3    0    0  0.13074284446E+02  0.13858419379E+02 -0.15876343560E+01  0.19118401719E+02  0.00000000000E+00 0.  1.
</event>
<event>
 7    1  0.1324280E-011  0.5930194E+02  0.7816164E-02  0.1266605E+00
        -11   -1    0    0    0    0  0.00000000000E+00  0.00000000000E+00  0.45593999997E+02  0.45594000000E+02  0.51100000000E-03 0. -1.
         11   -1    0    0    0    0 -0.00000000000E+00 -0.00000000000E+00 -0.45593999997E+02  0.45594000000E+02  0.51100000000E-03 0.  1.
    9900012    2    1    2    0    0 -0.51951473742E+01  0.27188533850E+02  0.15827667073E+02  0.59301937620E+02  0.49999988314E+02 0.  0.
        -12    1    1    2    0    0  0.51951473742E+01 -0.27188533850E+02 -0.15827667073E+02  0.31886062380E+02  0.00000000000E+00 0.  1.
         11    1    3    3    0    0 -0.65215730165E+01 -0.98813404170E+01  0.12044316572E+02  0.16888971698E+02  0.51100000000E-03 0. -1.
        -11    1    3    3    0    0 -0.20988563232E+01  0.79728284096E-01 -0.39448963952E+01  0.44692015277E+01  0.51100000000E-03 0.  1.
        -12    1    3    3    0    0  0.34252819656E+01  0.36990145983E+02  0.77282468956E+01  0.37943764395E+02  0.00000000000E+00 0.  1.
</event>
<event>
 7    1  0.1324280E-011  0.5930190E+02  0.7816164E-02  0.1266605E+00
        -11   -1    0    0    0    0  0.00000000000E+00  0.00000000000E+00  0.45593999997E+02  0.45594000000E+02  0.51100000000E-03 0.  1.
         11   -1    0    0    0    0 -0.00000000000E+00 -0.00000000000E+00 -0.45593999997E+02  0.45594000000E+02  0.51100000000E-03 0. -1.
    9900012    2    1    2    0    0  0.26103211951E+02 -0.67053472263E+00 -0.18300161049E+02  0.59301902945E+02  0.49999925075E+02 0.  0.
        -12    1    1    2    0    0 -0.26103211951E+02  0.67053472263E+00  0.18300161049E+02  0.31886097055E+02  0.00000000000E+00 0.  1.
         11    1    3    3    0    0  0.11469527694E+02 -0.44568958005E+01 -0.20499776631E+02  0.23909304211E+02  0.51100000000E-03 0. -1.
        -11    1    3    3    0    0  0.86594150215E+01  0.94942593033E+01 -0.12882307018E+02  0.18195611080E+02  0.51100000000E-03 0.  1.
        -12    1    3    3    0    0  0.59742692355E+01 -0.57078982254E+01  0.15081922600E+02  0.17196987653E+02  0.00000000000E+00 0.  1.
</event>
<event>
 7    1  0.1324280E-011  0.5930195E+02  0.7816164E-02  0.1266605E+00
        -11   -1    0    0    0    0  0.00000000000E+00  0.00000000000E+00  0.45593999997E+02  0.45594000000E+02  0.51100000000E-03 0.  1.
         11   -1    0    0    0    0 -0.00000000000E+00 -0.00000000000E+00 -0.45593999997E+02  0.45594000000E+02  0.51100000000E-03 0. -1.
    9900012    2    1    2    0    0 -0.98901549375E+01  0.29475722096E+02  0.70772104502E+01  0.59301948731E+02  0.50000008577E+02 0.  0.
        -12    1    1    2    0    0  0.98901549375E+01 -0.29475722096E+02 -0.70772104502E+01  0.31886051269E+02  0.00000000000E+00 0.  1.
         11    1    3    3    0    0 -0.20137445085E+02  0.12489550734E+02 -0.10719618971E+02  0.26007994987E+02  0.51100000000E-03 0. -1.
        -11    1    3    3    0    0  0.49096906547E+01 -0.35945500264E+01  0.75358967824E+01  0.96858449705E+01  0.51100000000E-03 0.  1.
        -12    1    3    3    0    0  0.53375994932E+01  0.20580721388E+02  0.10260932639E+02  0.23608108773E+02  0.00000000000E+00 0.  1.
</event>
<event>
 7    1  0.1324280E-011  0.5930191E+02  0.7816164E-02  0.1266605E+00
        -11   -1    0    0    0    0  0.00000000000E+00  0.00000000000E+00  0.45593999997E+02  0.45594000000E+02  0.51100000000E-03 0.  1.
         11   -1    0    0    0    0 -0.00000000000E+00 -0.00000000000E+00 -0.45593999997E+02  0.45594000000E+02  0.51100000000E-03 0. -1.
    9900012    2    1    2    0    0 -0.11073106452E+02  0.15923183458E+02 -0.25309310187E+02  0.59301911496E+02  0.49999940669E+02 0.  0.
        -12    1    1    2    0    0  0.11073106452E+02 -0.15923183458E+02  0.25309310187E+02  0.31886088504E+02  0.00000000000E+00 0.  1.
         11    1    3    3    0    0 -0.78203902588E+01  0.18106154348E+02 -0.35814984459E+02  0.40886482376E+02  0.51100000000E-03 0. -1.
        -11    1    3    3    0    0 -0.28522744002E+01 -0.22384176483E+01 -0.31202510937E+01  0.47835081239E+01  0.51100000000E-03 0.  1.
         12    1    3    3    0    0 -0.40044179324E+00  0.55446758184E-01  0.13625925365E+02  0.13631920995E+02  0.00000000000E+00 0. -1.
</event>
<event>
 7    1  0.1324280E-011  0.5930195E+02  0.7816164E-02  0.1266605E+00
        -11   -1    0    0    0    0  0.00000000000E+00  0.00000000000E+00  0.45593999997E+02  0.45594000000E+02  0.51100000000E-03 0.  1.
         11   -1    0    0    0    0 -0.00000000000E+00 -0.00000000000E+00 -0.45593999997E+02  0.45594000000E+02  0.51100000000E-03 0. -1.
    9900012    2    1    2    0    0  0.12690250768E+02 -0.10545550456E+02 -0.27284958900E+02  0.59301951622E+02  0.50000013851E+02 0.  0.
        -12    1    1    2    0    0 -0.12690250768E+02  0.10545550456E+02  0.27284958900E+02  0.31886048378E+02  0.00000000000E+00 0.  1.
         11    1    3    3    0    0  0.21341610586E+01  0.20585453137E+01 -0.26552243815E+02  0.26717295972E+02  0.51100000000E-03 0. -1.
        -11    1    3    3    0    0 -0.94139276032E+01 -0.28716064054E+01 -0.29086704146E+01  0.10262968387E+02  0.51100000000E-03 0.  1.
        -12    1    3    3    0    0  0.19970017312E+02 -0.97324893642E+01  0.21759553291E+01  0.22321687263E+02  0.00000000000E+00 0.  1.
</event>
<event>
 7    1  0.1324280E-011  0.5930195E+02  0.7816164E-02  0.1266605E+00
        -11   -1    0    0    0    0  0.00000000000E+00  0.00000000000E+00  0.45593999997E+02  0.45594000000E+02  0.51100000000E-03 0. -1.
         11   -1    0    0    0    0 -0.00000000000E+00 -0.00000000000E+00 -0.45593999997E+02  0.45594000000E+02  0.51100000000E-03 0.  1.
    9900012    2    1    2    0    0  0.11797786498E+02 -0.30387070843E+01  0.29466905973E+02  0.59301952038E+02  0.50000014609E+02 0.  0.
        -12    1    1    2    0    0 -0.11797786498E+02  0.30387070843E+01 -0.29466905973E+02  0.31886047962E+02  0.00000000000E+00 0.  1.
         11    1    3    3    0    0  0.95270641733E+01  0.86117878505E+01 -0.64550409410E+01  0.14373426716E+02  0.51100000000E-03 0. -1.
        -11    1    3    3    0    0  0.75099793697E+01 -0.85891389866E+01  0.34862366004E+01  0.11930085690E+02  0.51100000000E-03 0.  1.
         12    1    3    3    0    0 -0.52392570447E+01 -0.30613559482E+01  0.32435710314E+02  0.32998439633E+02  0.00000000000E+00 0. -1.
</event>
<event>
 7    1  0.1324280E-011  0.5930193E+02  0.7816164E-02  0.1266605E+00
        -11   -1    0    0    0    0  0.00000000000E+00  0.00000000000E+00  0.45593999997E+02  0.45594000000E+02  0.51100000000E-03 0.  1.
         11   -1    0    0    0    0 -0.00000000000E+00 -0.00000000000E+00 -0.45593999997E+02  0.45594000000E+02  0.51100000000E-03 0. -1.
    9900012    2    1    2    0    0 -0.13666172886E+02 -0.17798325361E+02 -0.22653407670E+02  0.59301928651E+02  0.49999971956E+02 0.  0.
        -12    1    1    2    0    0  0.13666172886E+02  0.17798325361E+02  0.22653407670E+02  0.31886071349E+02  0.00000000000E+00 0.  1.
         11    1    3    3    0    0  0.29441585365E+01 -0.27558962289E+00  0.74188377130E+01  0.79864367775E+01  0.51100000000E-03 0. -1.
        -11    1    3    3    0    0 -0.11667225226E+02 -0.17836383047E+02 -0.48747125548E+00  0.21318966513E+02  0.51100000000E-03 0.  1.
         12    1    3    3    0    0 -0.49431061960E+01  0.31364730908E+00 -0.29584774128E+02  0.29996525360E+02  0.00000000000E+00 0. -1.
</event>
<event>
 7    1  0.1324280E-011  0.5930195E+02  0.7816164E-02  0.1266605E+00
        -11   -1    0    0    0    0  0.00000000000E+00  0.00000000000E+00  0.45593999997E+02  0.45594000000E+02  0.51100000000E-03 0.  1.
         11   -1    0    0    0    0 -0.00000000000E+00 -0.00000000000E+00 -0.45593999997E+02  0.45594000000E+02  0.51100000000E-03 0. -1.
    9900012    2    1    2    0    0 -0.21157430433E+02  0.23796634831E+02 -0.16742938929E+01  0.59301953650E+02  0.50000017548E+02 0.  0.
        -12    1    1    2    0    0  0.21157430433E+02 -0.23796634831E+02  0.16742938929E+01  0.31886046350E+02  0.00000000000E+00 0.  1.
         11    1    3    3    0    0 -0.71173089384E+01  0.12316008304E+02  0.42543774824E+01  0.14847217756E+02  0.51100000000E-03 0. -1.
        -11    1    3    3    0    0 -0.24090801768E+02  0.19227912634E+02 -0.99507844861E+00  0.30839415290E+02  0.51100000000E-03 0.  1.
        -12    1    3    3    0    0  0.10050680273E+02 -0.77472861064E+01 -0.49335929267E+01  0.13615320603E+02  0.00000000000E+00 0.  1.
</event>
<event>
 7    1  0.1324280E-011  0.5930195E+02  0.7816164E-02  0.1266605E+00
        -11   -1    0    0    0    0  0.00000000000E+00  0.00000000000E+00  0.45593999997E+02  0.45594000000E+02  0.51100000000E-03 0.  1.
         11   -1    0    0    0    0 -0.00000000000E+00 -0.00000000000E+00 -0.45593999997E+02  0.45594000000E+02  0.51100000000E-03 0. -1.
    9900012    2    1    2    0    0 -0.95669693505E+01  0.10591312356E+02 -0.28513457373E+02  0.59301952090E+02  0.50000014703E+02 0.  0.
        -12    1    1    2    0    0  0.95669693505E+01 -0.10591312356E+02  0.28513457373E+02  0.31886047910E+02  0.00000000000E+00 0.  1.
         11    1    3    3    0    0  0.12863682897E+02  0.12743740163E+02 -0.21175558730E+02  0.27861829423E+02  0.51100000000E-03 0. -1.
        -11    1    3    3    0    0 -0.16576289151E+02  0.79407604171E+01 -0.72867647524E+01  0.19771848139E+02  0.51100000000E-03 0.  1.
        -12    1    3    3    0    0 -0.58543630964E+01 -0.10093188224E+02 -0.51133890597E-01  0.11668274528E+02  0.00000000000E+00 0.  1.
</event>
<event>
 7    1  0.1324280E-011  0.5930193E+02  0.7816164E-02  0.1266605E+00
        -11   -1    0    0    0    0  0.00000000000E+00  0.00000000000E+00  0.45593999997E+02  0.45594000000E+02  0.51100000000E-03 0.  1.
         11   -1    0    0    0    0 -0.00000000000E+00 -0.00000000000E+00 -0.45593999997E+02  0.45594000000E+02  0.51100000000E-03 0. -1.
    9900012    2    1    2    0    0 -0.17239743348E+02  0.22637894636E+01 -0.26728033513E+02  0.59301932997E+02  0.49999979883E+02 0.  0.
        -12    1    1    2    0    0  0.17239743348E+02 -0.22637894636E+01  0.26728033513E+02  0.31886067003E+02  0.00000000000E+00 0.  1.
         11    1    3    3    0    0 -0.23505607023E+00 -0.16640587590E+02 -0.22223021637E+02  0.27763773116E+02  0.51100000000E-03 0. -1.
        -11    1    3    3    0    0 -0.85032375998E+00 -0.31105876037E+01  0.15359616968E+01  0.35718320694E+01  0.51100000000E-03 0.  1.
         12    1    3    3    0    0 -0.16154363518E+02  0.22014964657E+02 -0.60409735721E+01  0.27966327811E+02  0.00000000000E+00 0. -1.
</event>
<event>
 7    1  0.1324280E-011  0.5930196E+02  0.7816164E-02  0.1266605E+00
        -11   -1    0    0    0    0  0.00000000000E+00  0.00000000000E+00  0.45593999997E+02  0.45594000000E+02  0.51100000000E-03 0. -1.
         11   -1    0    0    0    0 -0.00000000000E+00 -0.00000000000E+00 -0.45593999997E+02  0.45594000000E+02  0.51100000000E-03 0.  1.
    9900012    2    1    2    0    0 -0.11260559623E+02 -0.14067114029E+02  0.26306570490E+02  0.59301959934E+02  0.50000029009E+02 0.  0.
        -12    1    1    2    0    0  0.11260559623E+02  0.14067114029E+02 -0.26306570490E+02  0.31886040066E+02  0.00000000000E+00 0.  1.
         11    1    3    3    0    0  0.26424098769E+01  0.20560496678E+00  0.10717159913E-01  0.26504185478E+01  0.51100000000E-03 0. -1.
        -11    1    3    3    0    0 -0.87622034458E+01  0.13834758395E+02 -0.19275364409E+01  0.16489152375E+02  0.51100000000E-03 0.  1.
         12    1    3    3    0    0 -0.51407660538E+01 -0.28107477391E+02  0.28223389771E+02  0.40162389011E+02  0.00000000000E+00 0. -1.
</event>
<event>
 7    1  0.1324280E-011  0.5930195E+02  0.7816164E-02  0.1266605E+00
        -11   -1    0    0    0    0  0.00000000000E+00  0.00000000000E+00  0.45593999997E+02  0.45594000000E+02  0.51100000000E-03 0.  1.
         11   -1    0    0    0    0 -0.00000000000E+00 -0.00000000000E+00 -0.45593999997E+02  0.45594000000E+02  0.51100000000E-03 0. -1.
    9900012    2    1    2    0    0  0.25509066131E+02 -0.13273747678E+02 -0.13777352067E+02  0.59301948782E+02  0.50000008671E+02 0.  0.
        -12    1    1    2    0    0 -0.25509066131E+02  0.13273747678E+02  0.13777352067E+02  0.31886051218E+02  0.00000000000E+00 0.  1.
         11    1    3    3    0    0 -0.12419571235E+01  0.61323168968E+01 -0.91715540546E+01  0.11102484950E+02  0.51100000000E-03 0. -1.
        -11    1    3    3    0    0 -0.25579815964E+01  0.50789711884E+01  0.62951506575E+01  0.84834038123E+01  0.51100000000E-03 0.  1.
         12    1    3    3    0    0  0.29309004851E+02 -0.24485035763E+02 -0.10900948670E+02  0.39716060021E+02  0.00000000000E+00 0. -1.
</event>
<event>
 7    1  0.1324280E-011  0.5930196E+02  0.7816164E-02  0.1266605E+00
        -11   -1    0    0    0    0  0.00000000000E+00  0.00000000000E+00  0.45593999997E+02  0.45594000000E+02  0.51100000000E-03 0.  1.
         11   -1    0    0    0    0 -0.00000000000E+00 -0.00000000000E+00 -0.45593999997E+02  0.45594000000E+02  0.51100000000E-03 0. -1.
    9900012    2    1    2    0    0 -0.12348752404E+02  0.21233276173E+02 -0.20331646491E+02  0.59301959920E+02  0.50000028984E+02 0.  0.
        -12    1    1    2    0    0  0.12348752404E+02 -0.21233276173E+02  0.20331646491E+02  0.31886040080E+02  0.00000000000E+00 0.  1.
         11    1    3    3    0    0 -0.62285670708E+01  0.66838734955E+01 -0.15056656171E+02  0.17611703721E+02  0.51100000000E-03 0. -1.
        -11    1    3    3    0    0 -0.12996565576E+02 -0.17693704081E+01 -0.16229746771E+02  0.20867344559E+02  0.51100000000E-03 0.  1.
         12    1    3    3    0    0  0.68763802433E+01  0.16318773085E+02  0.10954756451E+02  0.20822911640E+02  0.00000000000E+00 0. -1.
</event>
<event>
 7    1  0.1324280E-011  0.5930196E+02  0.7816164E-02  0.1266605E+00
        -11   -1    0    0    0    0  0.00000000000E+00  0.00000000000E+00  0.45593999997E+02  0.45594000000E+02  0.51100000000E-03 0. -1.
         11   -1    0    0    0    0 -0.00000000000E+00 -0.00000000000E+00 -0.45593999997E+02  0.45594000000E+02  0.51100000000E-03 0.  1.
    9900012    2    1    2    0    0  0.12146126351E+02  0.18288222456E+02  0.23124274737E+02  0.59301959982E+02  0.50000029096E+02 0.  0.
        -12    1    1    2    0    0 -0.12146126351E+02 -0.18288222456E+02 -0.23124274737E+02  0.31886040018E+02  0.00000000000E+00 0.  1.
         11    1    3    3    0    0  0.21520717835E+01 -0.51200061550E+01  0.95313433436E+01  0.11031427024E+02  0.51100000000E-03 0. -1.
        -11    1    3    3    0    0  0.36485368950E+01  0.21919341221E+01 -0.12991507529E+02  0.13670978926E+02  0.51100000000E-03 0.  1.
        -12    1    3    3    0    0  0.63455176724E+01  0.21216294489E+02  0.26584438922E+02  0.34599554032E+02  0.00000000000E+00 0.  1.
</event>
<event>
 7    1  0.1324280E-011  0.5930196E+02  0.7816164E-02  0.1266605E+00
        -11   -1    0    0    0    0  0.00000000000E+00  0.00000000000E+00  0.45593999997E+02  0.45594000000E+02  0.51100000000E-03 0. -1.
         11   -1    0    0    0    0 -0.00000000000E+00 -0.00000000000E+00 -0.45593999997E+02  0.45594000000E+02  0.51100000000E-03 0.  1.
    9900012    2    1    2    0    0 -0.21700770651E+02 -0.22771540813E+02  0.52204511810E+01  0.59301958722E+02  0.50000026799E+02 0.  0.
        -12    1    1    2    0    0  0.21700770651E+02  0.22771540813E+02 -0.52204511810E+01  0.31886041278E+02  0.00000000000E+00 0.  1.
         11    1    3    3    0    0  0.11463651879E+01 -0.16663902526E+02  0.37042210060E+01  0.17109092731E+02  0.51100000000E-03 0. -1.
        -11    1    3    3    0    0 -0.10379745407E+02  0.36338149597E+01 -0.15469216935E+02  0.18979999967E+02  0.51100000000E-03 0.  1.
         12    1    3    3    0    0 -0.12467390432E+02 -0.97414532462E+01  0.16985447110E+02  0.23212866025E+02  0.00000000000E+00 0. -1.
</event>
<event>
 7    1  0.1324280E-011  0.5930199E+02  0.7816164E-02  0.1266605E+00
        -11   -1    0    0    0    0  0.00000000000E+00  0.00000000000E+00  0.45593999997E+02  0.45594000000E+02  0.51100000000E-03 0.  1.
         11   -1    0    0    0    0 -0.00000000000E+00 -0.00000000000E+00 -0.45593999997E+02  0.45594000000E+02  0.51100000000E-03 0. -1.
    9900012    2    1    2    0    0 -0.20142650533E+02  0.16958538300E+02 -0.17983301634E+02  0.59301991636E+02  0.50000086825E+02 0.  0.
        -12    1    1    2    0    0  0.20142650533E+02 -0.16958538300E+02  0.17983301634E+02  0.31886008364E+02  0.00000000000E+00 0.  1.
         11    1    3    3    0    0 -0.94847824153E+01  0.15209183784E+02 -0.87410919645E+01  0.19942092614E+02  0.51100000000E-03 0. -1.
        -11    1    3    3    0    0 -0.15396242147E+02  0.10415038184E+02  0.74005874171E+01  0.20007148397E+02  0.51100000000E-03 0.  1.
         12    1    3    3    0    0  0.47383740290E+01 -0.86656836677E+01 -0.16642797087E+02  0.19352750625E+02  0.00000000000E+00 0. -1.
</event>
<event>
 7    1  0.1324280E-011  0.5930204E+02  0.7816164E-02  0.1266604E+00
        -11   -1    0    0    0    0  0.00000000000E+00  0.00000000000E+00  0.45593999997E+02  0.45594000000E+02  0.51100000000E-03 0. -1.
         11   -1    0    0    0    0 -0.00000000000E+00 -0.00000000000E+00 -0.45593999997E+02  0.45594000000E+02  0.51100000000E-03 0.  1.
    9900012    2    1    2    0    0 -0.30124608228E+02  0.94979991970E+01 -0.43601209922E+01  0.59302036556E+02  0.50000168750E+02 0.  0.
        -12    1    1    2    0    0  0.30124608228E+02 -0.94979991970E+01  0.43601209922E+01  0.31885963444E+02  0.00000000000E+00 0.  1.
         11    1    3    3    0    0 -0.38021486791E+01  0.17663542301E+02 -0.18523436583E+01  0.18162825729E+02  0.51100000000E-03 0.  1.
        -11    1    3    3    0    0 -0.64006882010E+01 -0.18822823446E+01  0.13342327634E+02  0.14917422808E+02  0.51100000000E-03 0. -1.
         12    1    3    3    0    0 -0.19921771348E+02 -0.62832607591E+01 -0.15850104968E+02  0.26221788019E+02  0.00000000000E+00 0. -1.
</event>
<event>
 7    1  0.1324280E-011  0.5930195E+02  0.7816164E-02  0.1266605E+00
        -11   -1    0    0    0    0  0.00000000000E+00  0.00000000000E+00  0.45593999997E+02  0.45594000000E+02  0.51100000000E-03 0.  1.
         11   -1    0    0    0    0 -0.00000000000E+00 -0.00000000000E+00 -0.45593999997E+02  0.45594000000E+02  0.51100000000E-03 0. -1.
    9900012    2    1    2    0    0 -0.86701470046E+00 -0.26369076608E+01 -0.31764998404E+02  0.59301951012E+02  0.50000012737E+02 0.  0.
        -12    1    1    2    0    0  0.86701470046E+00  0.26369076608E+01  0.31764998404E+02  0.31886048988E+02  0.00000000000E+00 0.  1.
         11    1    3    3    0    0  0.15748261766E+02  0.68264733220E+01 -0.13844068727E+02  0.22051456321E+02  0.51100000000E-03 0. -1.
        -11    1    3    3    0    0 -0.11103853908E+01 -0.56002219255E+01  0.61290260166E+01  0.83761806036E+01  0.51100000000E-03 0.  1.
         12    1    3    3    0    0 -0.15504891076E+02 -0.38631590573E+01 -0.24049955693E+02  0.28874314087E+02  0.00000000000E+00 0. -1.
</event>
<event>
 7    1  0.1324280E-011  0.5930191E+02  0.7816164E-02  0.1266605E+00
        -11   -1    0    0    0    0  0.00000000000E+00  0.00000000000E+00  0.45593999997E+02  0.45594000000E+02  0.51100000000E-03 0.  1.
         11   -1    0    0    0    0 -0.00000000000E+00 -0.00000000000E+00 -0.45593999997E+02  0.45594000000E+02  0.51100000000E-03 0. -1.
    9900012    2    1    2    0    0  0.14229314588E+02 -0.11212453773E+02 -0.26239854422E+02  0.59301914110E+02  0.49999945438E+02 0.  0.
        -12    1    1    2    0    0 -0.14229314588E+02  0.11212453773E+02  0.26239854422E+02  0.31886085890E+02  0.00000000000E+00 0.  1.
         11    1    3    3    0    0  0.50954995217E+01 -0.20279913127E+01  0.40503552610E+01  0.68177886548E+01  0.51100000000E-03 0. -1.
        -11    1    3    3    0    0 -0.26091142389E+01 -0.10490163006E+02  0.73244010105E+01  0.13057482430E+02  0.51100000000E-03 0.  1.
         12    1    3    3    0    0  0.11742929305E+02  0.13057005457E+01 -0.37614610694E+02  0.39426643025E+02  0.00000000000E+00 0. -1.
</event>
<event>
 7    1  0.1324280E-011  0.5930197E+02  0.7816164E-02  0.1266605E+00
        -11   -1    0    0    0    0  0.00000000000E+00  0.00000000000E+00  0.45593999997E+02  0.45594000000E+02  0.51100000000E-03 0.  1.
         11   -1    0    0    0    0 -0.00000000000E+00 -0.00000000000E+00 -0.45593999997E+02  0.45594000000E+02  0.51100000000E-03 0. -1.
    9900012    2    1    2    0    0 -0.14296653781E+02  0.17172567434E+02 -0.22747036090E+02  0.59301968066E+02  0.50000043840E+02 0.  0.
        -12    1    1    2    0    0  0.14296653781E+02 -0.17172567434E+02  0.22747036090E+02  0.31886031934E+02  0.00000000000E+00 0.  1.
         11    1    3    3    0    0 -0.82838519858E+01  0.12055236251E+02 -0.18114384759E+02  0.23282651487E+02  0.51100000000E-03 0. -1.
        -11    1    3    3    0    0  0.12450343525E+02  0.98694590744E+01  0.15841065097E+01  0.15966423206E+02  0.51100000000E-03 0.  1.
         12    1    3    3    0    0 -0.18463145320E+02 -0.47521278910E+01 -0.62167578406E+01  0.20052893373E+02  0.00000000000E+00 0. -1.
</event>
<event>
 7    1  0.1324280E-011  0.5930196E+02  0.7816164E-02  0.1266605E+00
        -11   -1    0    0    0    0  0.00000000000E+00  0.00000000000E+00  0.45593999997E+02  0.45594000000E+02  0.51100000000E-03 0.  1.
         11   -1    0    0    0    0 -0.00000000000E+00 -0.00000000000E+00 -0.45593999997E+02  0.45594000000E+02  0.51100000000E-03 0. -1.
    9900012    2    1    2    0    0 -0.10499777640E+02  0.29290672648E+02  0.69663895862E+01  0.59301962013E+02  0.50000032801E+02 0.  0.
        -12    1    1    2    0    0  0.10499777640E+02 -0.29290672648E+02 -0.69663895862E+01  0.31886037987E+02  0.00000000000E+00 0.  1.
         11    1    3    3    0    0 -0.30326538509E+01 -0.12739865206E+01 -0.45152129328E+01  0.55863386153E+01  0.51100000000E-03 0. -1.
        -11    1    3    3    0    0  0.68032862440E+01  0.23757877960E+02 -0.10322878412E+02  0.26782144945E+02  0.51100000000E-03 0.  1.
        -12    1    3    3    0    0 -0.14270410033E+02  0.68067812086E+01  0.21804480931E+02  0.26933478453E+02  0.00000000000E+00 0.  1.
</event>
<event>
 7    1  0.1324280E-011  0.5930193E+02  0.7816164E-02  0.1266605E+00
        -11   -1    0    0    0    0  0.00000000000E+00  0.00000000000E+00  0.45593999997E+02  0.45594000000E+02  0.51100000000E-03 0.  1.
         11   -1    0    0    0    0 -0.00000000000E+00 -0.00000000000E+00 -0.45593999997E+02  0.45594000000E+02  0.51100000000E-03 0. -1.
    9900012    2    1    2    0    0 -0.47267234068E+01  0.31455067547E+02 -0.22266488190E+01  0.59301934807E+02  0.49999983184E+02 0.  0.
        -12    1    1    2    0    0  0.47267234068E+01 -0.31455067547E+02  0.22266488190E+01  0.31886065193E+02  0.00000000000E+00 0.  1.
         11    1    3    3    0    0  0.82344178923E+01  0.11916111799E+02  0.56375167712E+01  0.15542874703E+02  0.51100000000E-03 0. -1.
        -11    1    3    3    0    0 -0.58242927713E+01  0.27535876039E+02  0.32336956933E+01  0.28330260211E+02  0.51100000000E-03 0.  1.
        -12    1    3    3    0    0 -0.71368485279E+01 -0.79969202916E+01 -0.11097861284E+02  0.15428799893E+02  0.00000000000E+00 0.  1.
</event>
<event>
 7    1  0.1324280E-011  0.5930196E+02  0.7816164E-02  0.1266605E+00
        -11   -1    0    0    0    0  0.00000000000E+00  0.00000000000E+00  0.45593999997E+02  0.45594000000E+02  0.51100000000E-03 0.  1.
         11   -1    0    0    0    0 -0.00000000000E+00 -0.00000000000E+00 -0.45593999997E+02  0.45594000000E+02  0.51100000000E-03 0. -1.
    9900012    2    1    2    0    0 -0.29224237032E+02  0.58738785917E+01 -0.11320824026E+02  0.59301960164E+02  0.50000029428E+02 0.  0.
        -12    1    1    2    0    0  0.29224237032E+02 -0.58738785917E+01  0.11320824026E+02  0.31886039836E+02  0.00000000000E+00 0.  1.
         11    1    3    3    0    0  0.43474293750E+01  0.16232527340E+02 -0.96158372143E+01  0.19361286414E+02  0.51100000000E-03 0. -1.
        -11    1    3    3    0    0 -0.72747170699E+01 -0.86521495759E+01 -0.66694130136E+01  0.13124872226E+02  0.51100000000E-03 0.  1.
        -12    1    3    3    0    0 -0.26296949337E+02 -0.17064991724E+01  0.49644262017E+01  0.26815801524E+02  0.00000000000E+00 0.  1.
</event>
<event>
 7    1  0.1324280E-011  0.5930195E+02  0.7816164E-02  0.1266605E+00
        -11   -1    0    0    0    0  0.00000000000E+00  0.00000000000E+00  0.45593999997E+02  0.45594000000E+02  0.51100000000E-03 0.  1.
         11   -1    0    0    0    0 -0.00000000000E+00 -0.00000000000E+00 -0.45593999997E+02  0.45594000000E+02  0.51100000000E-03 0. -1.
    9900012    2    1    2    0    0 -0.52918903061E+01 -0.53100551287E+01 -0.30992246775E+02  0.59301950564E+02  0.50000011921E+02 0.  0.
        -12    1    1    2    0    0  0.52918903061E+01  0.53100551287E+01  0.30992246775E+02  0.31886049436E+02  0.00000000000E+00 0.  1.
         11    1    3    3    0    0 -0.12189284886E+02  0.40121028923E+01 -0.15094084789E+02  0.19811790215E+02  0.51100000000E-03 0. -1.
        -11    1    3    3    0    0 -0.19575689307E+01  0.71600948820E+01 -0.19114713385E+02  0.20505396921E+02  0.51100000000E-03 0.  1.
        -12    1    3    3    0    0  0.88549635105E+01 -0.16482252903E+02  0.32165513991E+01  0.18984763428E+02  0.00000000000E+00 0.  1.
</event>
<event>
 7    1  0.1324280E-011  0.5930195E+02  0.7816164E-02  0.1266605E+00
        -11   -1    0    0    0    0  0.00000000000E+00  0.00000000000E+00  0.45593999997E+02  0.45594000000E+02  0.51100000000E-03 0.  1.
         11   -1    0    0    0    0 -0.00000000000E+00 -0.00000000000E+00 -0.45593999997E+02  0.45594000000E+02  0.51100000000E-03 0. -1.
    9900012    2    1    2    0    0 -0.16721073331E+02  0.13188167526E+02 -0.23731800589E+02  0.59301946384E+02  0.50000004297E+02 0.  0.
        -12    1    1    2    0    0  0.16721073331E+02 -0.13188167526E+02  0.23731800589E+02  0.31886053616E+02  0.00000000000E+00 0.  1.
         11    1    3    3    0    0 -0.10419248637E+02 -0.36287386139E+01 -0.15545092737E+02  0.19062486578E+02  0.51100000000E-03 0. -1.
        -11    1    3    3    0    0 -0.20170847684E+02  0.62645097041E+01 -0.86062462116E+01  0.22807337684E+02  0.51100000000E-03 0.  1.
        -12    1    3    3    0    0  0.13869022990E+02  0.10552396435E+02  0.41953835988E+00  0.17432122121E+02  0.00000000000E+00 0.  1.
</event>
<event>
 7    1  0.1324280E-011  0.5930192E+02  0.7816164E-02  0.1266605E+00
        -11   -1    0    0    0    0  0.00000000000E+00  0.00000000000E+00  0.45593999997E+02  0.45594000000E+02  0.51100000000E-03 0. -1.
         11   -1    0    0    0    0 -0.00000000000E+00 -0.00000000000E+00 -0.45593999997E+02  0.45594000000E+02  0.51100000000E-03 0.  1.
    9900012    2    1    2    0    0 -0.13510177347E+02 -0.27465539168E+02  0.89353875166E+01  0.59301923355E+02  0.49999962298E+02 0.  0.
        -12    1    1    2    0    0  0.13510177347E+02  0.27465539168E+02 -0.89353875166E+01  0.31886076645E+02  0.00000000000E+00 0.  1.
         11    1    3    3    0    0 -0.16568980767E+01 -0.42246342903E+01  0.81224172030E+01  0.93041124028E+01  0.51100000000E-03 0. -1.
        -11    1    3    3    0    0 -0.18508230186E+02 -0.26880726749E+01  0.15150987531E+02  0.24069331997E+02  0.51100000000E-03 0.  1.
         12    1    3    3    0    0  0.66549509155E+01 -0.20552832202E+02 -0.14338017218E+02  0.25928478956E+02  0.00000000000E+00 0. -1.
</event>
<event>
 7    1  0.1324280E-011  0.5930193E+02  0.7816164E-02  0.1266605E+00
        -11   -1    0    0    0    0  0.00000000000E+00  0.00000000000E+00  0.45593999997E+02  0.45594000000E+02  0.51100000000E-03 0. -1.
         11   -1    0    0    0    0 -0.00000000000E+00 -0.00000000000E+00 -0.45593999997E+02  0.45594000000E+02  0.51100000000E-03 0.  1.
    9900012    2    1    2    0    0 -0.29280508234E+02 -0.12624305111E+02 -0.25010081121E-02  0.59301933321E+02  0.49999980474E+02 0.  0.
        -12    1    1    2    0    0  0.29280508234E+02  0.12624305111E+02  0.25010081121E-02  0.31886066679E+02  0.00000000000E+00 0.  1.
         11    1    3    3    0    0 -0.12437477216E+01  0.69453273236E+01  0.11673971797E+02  0.13640604745E+02  0.51100000000E-03 0. -1.
        -11    1    3    3    0    0 -0.24018898669E+02 -0.20768698243E+02  0.15454562522E+01  0.31790482149E+02  0.51100000000E-03 0.  1.
        -12    1    3    3    0    0 -0.40178618433E+01  0.11990658085E+01 -0.13221929057E+02  0.13870846427E+02  0.00000000000E+00 0.  1.
</event>
<event>
 7    1  0.1324280E-011  0.5930196E+02  0.7816164E-02  0.1266605E+00
        -11   -1    0    0    0    0  0.00000000000E+00  0.00000000000E+00  0.45593999997E+02  0.45594000000E+02  0.51100000000E-03 0.  1.
         11   -1    0    0    0    0 -0.00000000000E+00 -0.00000000000E+00 -0.45593999997E+02  0.45594000000E+02  0.51100000000E-03 0. -1.
    9900012    2    1    2    0    0  0.58391243659E+01 -0.16578914511E+01 -0.31302965821E+02  0.59301958436E+02  0.50000026278E+02 0.  0.
        -12    1    1    2    0    0 -0.58391243659E+01  0.16578914511E+01  0.31302965821E+02  0.31886041564E+02  0.00000000000E+00 0.  1.
         11    1    3    3    0    0 -0.80204609917E+01  0.83184768184E+00  0.36031825241E+00  0.80715298791E+01  0.51100000000E-03 0. -1.
        -11    1    3    3    0    0  0.54079363702E+01 -0.18956447624E+02 -0.24349644094E+02  0.31328866084E+02  0.51100000000E-03 0.  1.
        -12    1    3    3    0    0  0.84516489875E+01  0.16466708491E+02 -0.73136399787E+01  0.19901562473E+02  0.00000000000E+00 0.  1.
</event>
<event>
 7    1  0.1324280E-011  0.5930196E+02  0.7816164E-02  0.1266605E+00
        -11   -1    0    0    0    0  0.00000000000E+00  0.00000000000E+00  0.45593999997E+02  0.45594000000E+02  0.51100000000E-03 0. -1.
         11   -1    0    0    0    0 -0.00000000000E+00 -0.00000000000E+00 -0.45593999997E+02  0.45594000000E+02  0.51100000000E-03 0.  1.
    9900012    2    1    2    0    0  0.29485273138E+02 -0.93550538458E+01  0.77343987316E+01  0.59301964056E+02  0.50000036527E+02 0.  0.
        -12    1    1    2    0    0 -0.29485273138E+02  0.93550538458E+01 -0.77343987316E+01  0.31886035944E+02  0.00000000000E+00 0.  1.
         11    1    3    3    0    0 -0.54514128178E+01 -0.81872133233E+01  0.16354321503E+02  0.19084344259E+02  0.51100000000E-03 0. -1.
        -11    1    3    3    0    0  0.24169543521E+02 -0.14035335277E+01  0.29753554743E+01  0.24392406213E+02  0.51100000000E-03 0.  1.
        -12    1    3    3    0    0  0.10767142434E+02  0.23569300513E+00 -0.11595278246E+02  0.15825213584E+02  0.00000000000E+00 0.  1.
</event>
<event>
 7    1  0.1324280E-011  0.5930193E+02  0.7816164E-02  0.1266605E+00
        -11   -1    0    0    0    0  0.00000000000E+00  0.00000000000E+00  0.45593999997E+02  0.45594000000E+02  0.51100000000E-03 0. -1.
         11   -1    0    0    0    0 -0.00000000000E+00 -0.00000000000E+00 -0.45593999997E+02  0.45594000000E+02  0.51100000000E-03 0.  1.
    9900012    2    1    2    0    0  0.12396938880E+02 -0.25796961406E+02  0.14055385174E+02  0.59301934646E+02  0.49999982889E+02 0.  0.
        -12    1    1    2    0    0 -0.12396938880E+02  0.25796961406E+02 -0.14055385174E+02  0.31886065354E+02  0.00000000000E+00 0.  1.
         11    1    3    3    0    0  0.11798883553E+02 -0.78342389799E+01  0.23411196187E+02  0.27361890663E+02  0.51100000000E-03 0. -1.
        -11    1    3    3    0    0 -0.35403892179E+01 -0.42497402803E+01  0.78180101548E+01  0.95768434939E+01  0.51100000000E-03 0.  1.
        -12    1    3    3    0    0  0.41384445458E+01 -0.13712982146E+02 -0.17173821168E+02  0.22363200489E+02  0.00000000000E+00 0.  1.
</event>
<event>
 7    1  0.1324280E-011  0.5930202E+02  0.7816164E-02  0.1266605E+00
        -11   -1    0    0    0    0  0.00000000000E+00  0.00000000000E+00  0.45593999997E+02  0.45594000000E+02  0.51100000000E-03 0.  1.
         11   -1    0    0    0    0 -0.00000000000E+00 -0.00000000000E+00 -0.45593999997E+02  0.45594000000E+02  0.51100000000E-03 0. -1.
    9900012    2    1    2    0    0  0.29959943512E+02  0.48429444192E+01 -0.97807735915E+01  0.59302017845E+02  0.50000134625E+02 0.  0.
        -12    1    1    2    0    0 -0.29959943512E+02 -0.48429444192E+01  0.97807735915E+01  0.31885982155E+02  0.00000000000E+00 0.  1.
         11    1    3    3    0    0  0.15265077876E+02  0.47597119892E+01 -0.13758355678E+02  0.21094307573E+02  0.51100000000E-03 0. -1.
        -11    1    3    3    0    0  0.39398111162E+01 -0.83763363194E+01 -0.13277432698E+02  0.16185652321E+02  0.51100000000E-03 0.  1.
        -12    1    3    3    0    0  0.10755054521E+02  0.84595687493E+01  0.17255014785E+02  0.22022057951E+02  0.00000000000E+00 0.  1.
</event>
<event>
 7    1  0.1324280E-011  0.5930195E+02  0.7816164E-02  0.1266605E+00
        -11   -1    0    0    0    0  0.00000000000E+00  0.00000000000E+00  0.45593999997E+02  0.45594000000E+02  0.51100000000E-03 0. -1.
         11   -1    0    0    0    0 -0.00000000000E+00 -0.00000000000E+00 -0.45593999997E+02  0.45594000000E+02  0.51100000000E-03 0.  1.
    9900012    2    1    2    0    0  0.18160269038E+02 -0.98872130473E+01  0.24272784011E+02  0.59301946669E+02  0.50000004816E+02 0.  0.
        -12    1    1    2    0    0 -0.18160269038E+02  0.98872130473E+01 -0.24272784011E+02  0.31886053331E+02  0.00000000000E+00 0.  1.
         11    1    3    3    0    0 -0.10652123185E+02  0.23795211485E+01  0.16048124441E+02  0.19408043374E+02  0.51100000000E-03 0. -1.
        -11    1    3    3    0    0 -0.23475486275E+01  0.26314672962E+01 -0.17600725860E+01  0.39412511285E+01  0.51100000000E-03 0.  1.
        -12    1    3    3    0    0  0.31159940851E+02 -0.14898201492E+02  0.99847321561E+01  0.35952652166E+02  0.00000000000E+00 0.  1.
</event>
<event>
 7    1  0.1324280E-011  0.5930194E+02  0.7816164E-02  0.1266605E+00
        -11   -1    0    0    0    0  0.00000000000E+00  0.00000000000E+00  0.45593999997E+02  0.45594000000E+02  0.51100000000E-03 0.  1.
         11   -1    0    0    0    0 -0.00000000000E+00 -0.00000000000E+00 -0.45593999997E+02  0.45594000000E+02  0.51100000000E-03 0. -1.
    9900012    2    1    2    0    0 -0.16106337370E+02 -0.12667044543E+02 -0.24430575118E+02  0.59301935309E+02  0.49999984098E+02 0.  0.
        -12    1    1    2    0    0  0.16106337370E+02  0.12667044543E+02  0.24430575118E+02  0.31886064691E+02  0.00000000000E+00 0.  1.
         11    1    3    3    0    0 -0.16995936032E+02  0.45602649242E+01 -0.16315409898E+02  0.23996884343E+02  0.51100000000E-03 0. -1.
        -11    1    3    3    0    0  0.43650785927E+00 -0.18947559836E+02 -0.17473970644E+02  0.25778677491E+02  0.51100000000E-03 0.  1.
        -12    1    3    3    0    0  0.45309080296E+00  0.17202503694E+01  0.93588054240E+01  0.95263734744E+01  0.00000000000E+00 0.  1.
</event>
<event>
 7    1  0.1324280E-011  0.5930194E+02  0.7816164E-02  0.1266605E+00
        -11   -1    0    0    0    0  0.00000000000E+00  0.00000000000E+00  0.45593999997E+02  0.45594000000E+02  0.51100000000E-03 0.  1.
         11   -1    0    0    0    0 -0.00000000000E+00 -0.00000000000E+00 -0.45593999997E+02  0.45594000000E+02  0.51100000000E-03 0. -1.
    9900012    2    1    2    0    0 -0.16741887889E+02  0.15587660813E+02 -0.22213846885E+02  0.59301937635E+02  0.49999988342E+02 0.  0.
        -12    1    1    2    0    0  0.16741887889E+02 -0.15587660813E+02  0.22213846885E+02  0.31886062365E+02  0.00000000000E+00 0.  1.
         11    1    3    3    0    0 -0.23712419577E+01 -0.29344908616E+01  0.13247798989E+01  0.39986331515E+01  0.51100000000E-03 0. -1.
        -11    1    3    3    0    0  0.14639257130E+02  0.54461941768E+01  0.17158506211E+00  0.15620445641E+02  0.51100000000E-03 0.  1.
         12    1    3    3    0    0 -0.29009903062E+02  0.13075957498E+02 -0.23710211846E+02  0.39682858842E+02  0.00000000000E+00 0. -1.
</event>
<event>
 7    1  0.1324280E-011  0.5930197E+02  0.7816164E-02  0.1266605E+00
        -11   -1    0    0    0    0  0.00000000000E+00  0.00000000000E+00  0.45593999997E+02  0.45594000000E+02  0.51100000000E-03 0. -1.
         11   -1    0    0    0    0 -0.00000000000E+00 -0.00000000000E+00 -0.45593999997E+02  0.45594000000E+02  0.51100000000E-03 0.  1.
    9900012    2    1    2    0    0  0.16145627126E+02 -0.72506994827E+01  0.26522918726E+02  0.59301966443E+02  0.50000040880E+02 0.  0.
        -12    1    1    2    0    0 -0.16145627126E+02  0.72506994827E+01 -0.26522918726E+02  0.31886033557E+02  0.00000000000E+00 0.  1.
         11    1    3    3    0    0  0.34137544678E+01  0.12343927334E+02  0.13378396764E+02  0.18520468726E+02  0.51100000000E-03 0. -1.
        -11    1    3    3    0    0  0.14286892058E+02  0.40614596338E+01  0.41089854862E+01  0.15410856596E+02  0.51100000000E-03 0.  1.
        -12    1    3    3    0    0 -0.15550193996E+01 -0.23656086451E+02  0.90355364755E+01  0.25370641121E+02  0.00000000000E+00 0.  1.
</event>
<event>
 7    1  0.1324280E-011  0.5930202E+02  0.7816164E-02  0.1266605E+00
        -11   -1    0    0    0    0  0.00000000000E+00  0.00000000000E+00  0.45593999997E+02  0.45594000000E+02  0.51100000000E-03 0. -1.
         11   -1    0    0    0    0 -0.00000000000E+00 -0.00000000000E+00 -0.45593999997E+02  0.45594000000E+02  0.51100000000E-03 0.  1.
    9900012    2    1    2    0    0 -0.25184596988E+02 -0.91485787608E+01 -0.17284543218E+02  0.59302017922E+02  0.50000134766E+02 0.  0.
        -12    1    1    2    0    0  0.25184596988E+02  0.91485787608E+01  0.17284543218E+02  0.31885982078E+02  0.00000000000E+00 0.  1.
         11    1    3    3    0    0 -0.20922635049E+02  0.98365784618E+01 -0.34864411985E+01  0.23380979571E+02  0.51100000000E-03 0. -1.
        -11    1    3    3    0    0 -0.72077923118E+01 -0.53495788656E+00 -0.15557568367E+02  0.17154485819E+02  0.51100000000E-03 0.  1.
        -12    1    3    3    0    0  0.29458303722E+01 -0.18450199336E+02  0.17594663478E+01  0.18766552532E+02  0.00000000000E+00 0.  1.
</event>
<event>
 7    1  0.1324280E-011  0.5930193E+02  0.7816164E-02  0.1266605E+00
        -11   -1    0    0    0    0  0.00000000000E+00  0.00000000000E+00  0.45593999997E+02  0.45594000000E+02  0.51100000000E-03 0. -1.
         11   -1    0    0    0    0 -0.00000000000E+00 -0.00000000000E+00 -0.45593999997E+02  0.45594000000E+02  0.51100000000E-03 0.  1.
    9900012    2    1    2    0    0 -0.15189445558E+02 -0.23058686938E+02  0.15946757429E+02  0.59301931379E+02  0.49999976931E+02 0.  0.
        -12    1    1    2    0    0  0.15189445558E+02  0.23058686938E+02 -0.15946757429E+02  0.31886068621E+02  0.00000000000E+00 0.  1.
         11    1    3    3    0    0  0.23110414200E+01  0.74183644066E+01 -0.94356055459E+00  0.78270907556E+01  0.51100000000E-03 0. -1.
        -11    1    3    3    0    0  0.93576127168E+01 -0.72613893901E+01  0.95685826074E+01  0.15226636694E+02  0.51100000000E-03 0.  1.
         12    1    3    3    0    0 -0.26858099695E+02 -0.23215661954E+02  0.73217353760E+01  0.36248203929E+02  0.00000000000E+00 0. -1.
</event>
<event>
 7    1  0.1324280E-011  0.5930194E+02  0.7816164E-02  0.1266605E+00
        -11   -1    0    0    0    0  0.00000000000E+00  0.00000000000E+00  0.45593999997E+02  0.45594000000E+02  0.51100000000E-03 0. -1.
         11   -1    0    0    0    0 -0.00000000000E+00 -0.00000000000E+00 -0.45593999997E+02  0.45594000000E+02  0.51100000000E-03 0.  1.
    9900012    2    1    2    0    0 -0.16854000525E+02 -0.57137957726E+01  0.26457811263E+02  0.59301943915E+02  0.49999999795E+02 0.  0.
        -12    1    1    2    0    0  0.16854000525E+02  0.57137957726E+01 -0.26457811263E+02  0.31886056085E+02  0.00000000000E+00 0.  1.
         11    1    3    3    0    0 -0.99597965194E+01 -0.63003597938E+01  0.47051604534E+01  0.12689783899E+02  0.51100000000E-03 0. -1.
        -11    1    3    3    0    0  0.73818126324E+01  0.79060761654E+00 -0.96152503455E+01  0.12147808758E+02  0.51100000000E-03 0.  1.
         12    1    3    3    0    0 -0.14276016638E+02 -0.20404359539E+00  0.31367901155E+02  0.34464351259E+02  0.00000000000E+00 0. -1.
</event>
<event>
 7    1  0.1324280E-011  0.5930194E+02  0.7816164E-02  0.1266605E+00
        -11   -1    0    0    0    0  0.00000000000E+00  0.00000000000E+00  0.45593999997E+02  0.45594000000E+02  0.51100000000E-03 0.  1.
         11   -1    0    0    0    0 -0.00000000000E+00 -0.00000000000E+00 -0.45593999997E+02  0.45594000000E+02  0.51100000000E-03 0. -1.
    9900012    2    1    2    0    0 -0.18453356377E+02  0.24941576053E+02 -0.73561048093E+01  0.59301939479E+02  0.49999991704E+02 0.  0.
        -12    1    1    2    0    0  0.18453356377E+02 -0.24941576053E+02  0.73561048093E+01  0.31886060521E+02  0.00000000000E+00 0.  1.
         11    1    3    3    0    0 -0.16486071654E+01 -0.19646665774E+01  0.37519761957E+01  0.45447932825E+01  0.51100000000E-03 0. -1.
        -11    1    3    3    0    0 -0.51501437366E+01  0.14409703323E+02  0.16364103358E+02  0.22404182853E+02  0.51100000000E-03 0.  1.
         12    1    3    3    0    0 -0.11654605475E+02  0.12496539307E+02 -0.27472184363E+02  0.32352963343E+02  0.00000000000E+00 0. -1.
</event>
<event>
 7    1  0.1324280E-011  0.5930153E+02  0.7816164E-02  0.1266606E+00
        -11   -1    0    0    0    0  0.00000000000E+00  0.00000000000E+00  0.45593999997E+02  0.45594000000E+02  0.51100000000E-03 0.  1.
         11   -1    0    0    0    0 -0.00000000000E+00 -0.00000000000E+00 -0.45593999997E+02  0.45594000000E+02  0.51100000000E-03 0. -1.
    9900012    2    1    2    0    0  0.11043443113E+02 -0.14743404822E+02 -0.26027314968E+02  0.59301533498E+02  0.49999251287E+02 0.  0.
        -12    1    1    2    0    0 -0.11043443113E+02  0.14743404822E+02  0.26027314968E+02  0.31886466502E+02  0.00000000000E+00 0.  1.
         11    1    3    3    0    0 -0.12654112490E+02  0.86566836530E+01 -0.13044828721E+02  0.20130382297E+02  0.51100000000E-03 0. -1.
        -11    1    3    3    0    0  0.24935449473E+01 -0.13087876447E+02 -0.36640220317E+01  0.13817935229E+02  0.51100000000E-03 0.  1.
        -12    1    3    3    0    0  0.21204010656E+02 -0.10312212029E+02 -0.93184642146E+01  0.25353215972E+02  0.00000000000E+00 0.  1.
</event>
<event>
 7    1  0.1324280E-011  0.5930194E+02  0.7816164E-02  0.1266605E+00
        -11   -1    0    0    0    0  0.00000000000E+00  0.00000000000E+00  0.45593999997E+02  0.45594000000E+02  0.51100000000E-03 0. -1.
         11   -1    0    0    0    0 -0.00000000000E+00 -0.00000000000E+00 -0.45593999997E+02  0.45594000000E+02  0.51100000000E-03 0.  1.
    9900012    2    1    2    0    0  0.30871719644E+02  0.10986613804E+01  0.79025710442E+01  0.59301940982E+02  0.49999994446E+02 0.  0.
        -12    1    1    2    0    0 -0.30871719644E+02 -0.10986613804E+01 -0.79025710442E+01  0.31886059018E+02  0.00000000000E+00 0.  1.
         11    1    3    3    0    0 -0.46736654415E+01  0.13748818594E+02  0.32144916791E+01  0.14872999644E+02  0.51100000000E-03 0. -1.
        -11    1    3    3    0    0 -0.26454164358E+01 -0.28317024751E+01 -0.21133531584E+01  0.44139584116E+01  0.51100000000E-03 0.  1.
         12    1    3    3    0    0  0.38190801521E+02 -0.98184547384E+01  0.68014325234E+01  0.40014982927E+02  0.00000000000E+00 0. -1.
</event>
<event>
 7    1  0.1324280E-011  0.5930197E+02  0.7816164E-02  0.1266605E+00
        -11   -1    0    0    0    0  0.00000000000E+00  0.00000000000E+00  0.45593999997E+02  0.45594000000E+02  0.51100000000E-03 0. -1.
         11   -1    0    0    0    0 -0.00000000000E+00 -0.00000000000E+00 -0.45593999997E+02  0.45594000000E+02  0.51100000000E-03 0.  1.
    9900012    2    1    2    0    0  0.14655260110E+02  0.23565506014E+00  0.28317602616E+02  0.59301971710E+02  0.50000050486E+02 0.  0.
        -12    1    1    2    0    0 -0.14655260110E+02 -0.23565506014E+00 -0.28317602616E+02  0.31886028290E+02  0.00000000000E+00 0.  1.
         11    1    3    3    0    0  0.33456174250E+01  0.13552338816E+02  0.41921960549E+01  0.14575100390E+02  0.51100000000E-03 0.  1.
        -11    1    3    3    0    0 -0.69260764863E+00 -0.12812353946E+02  0.29039417035E+02  0.31747816634E+02  0.51100000000E-03 0. -1.
         12    1    3    3    0    0  0.12002250333E+02 -0.50432980978E+00 -0.49140104741E+01  0.12979054687E+02  0.00000000000E+00 0. -1.
</event>
<event>
 7    1  0.1324280E-011  0.5930192E+02  0.7816164E-02  0.1266605E+00
        -11   -1    0    0    0    0  0.00000000000E+00  0.00000000000E+00  0.45593999997E+02  0.45594000000E+02  0.51100000000E-03 0.  1.
         11   -1    0    0    0    0 -0.00000000000E+00 -0.00000000000E+00 -0.45593999997E+02  0.45594000000E+02  0.51100000000E-03 0. -1.
    9900012    2    1    2    0    0 -0.13764733279E+02  0.11489335768E+02 -0.26367576361E+02  0.59301924641E+02  0.49999964643E+02 0.  0.
        -12    1    1    2    0    0  0.13764733279E+02 -0.11489335768E+02  0.26367576361E+02  0.31886075359E+02  0.00000000000E+00 0.  1.
         11    1    3    3    0    0  0.20762552914E+00 -0.10733647743E+02 -0.17404473812E+02  0.20449205636E+02  0.51100000000E-03 0. -1.
        -11    1    3    3    0    0  0.60482886775E+01 -0.12877639616E+01 -0.45086564959E+01  0.76529808314E+01  0.51100000000E-03 0.  1.
        -12    1    3    3    0    0 -0.20020647486E+02  0.23510747472E+02 -0.44544460536E+01  0.31199738173E+02  0.00000000000E+00 0.  1.
</event>
<event>
 7    1  0.1324280E-011  0.5930194E+02  0.7816164E-02  0.1266605E+00
        -11   -1    0    0    0    0  0.00000000000E+00  0.00000000000E+00  0.45593999997E+02  0.45594000000E+02  0.51100000000E-03 0.  1.
         11   -1    0    0    0    0 -0.00000000000E+00 -0.00000000000E+00 -0.45593999997E+02  0.45594000000E+02  0.51100000000E-03 0. -1.
    9900012    2    1    2    0    0 -0.78920459312E+01 -0.26663330729E+02 -0.15604592044E+02  0.59301938980E+02  0.49999990793E+02 0.  0.
        -12    1    1    2    0    0  0.78920459312E+01  0.26663330729E+02  0.15604592044E+02  0.31886061020E+02  0.00000000000E+00 0.  1.
         11    1    3    3    0    0  0.11573171824E+02 -0.11745013057E+02  0.36709847489E+01  0.16892595036E+02  0.51100000000E-03 0. -1.
        -11    1    3    3    0    0 -0.78038896435E+01  0.18411983931E+01  0.59293708942E+01  0.99723690542E+01  0.51100000000E-03 0.  1.
         12    1    3    3    0    0 -0.11661328111E+02 -0.16759516065E+02 -0.25204947687E+02  0.32436974889E+02  0.00000000000E+00 0. -1.
</event>
<event>
 7    1  0.1324280E-011  0.5930200E+02  0.7816164E-02  0.1266605E+00
        -11   -1    0    0    0    0  0.00000000000E+00  0.00000000000E+00  0.45593999997E+02  0.45594000000E+02  0.51100000000E-03 0. -1.
         11   -1    0    0    0    0 -0.00000000000E+00 -0.00000000000E+00 -0.45593999997E+02  0.45594000000E+02  0.51100000000E-03 0.  1.
    9900012    2    1    2    0    0  0.22230228958E+02  0.22822048711E+02 -0.12993108422E+01  0.59301996871E+02  0.50000096373E+02 0.  0.
        -12    1    1    2    0    0 -0.22230228958E+02 -0.22822048711E+02  0.12993108422E+01  0.31886003129E+02  0.00000000000E+00 0.  1.
         11    1    3    3    0    0  0.14869893206E+02  0.22129287174E+02 -0.15996239616E+02  0.31091779571E+02  0.51100000000E-03 0.  1.
        -11    1    3    3    0    0  0.71706441624E+01  0.10012943725E+02  0.20286754454E+01  0.12481694759E+02  0.51100000000E-03 0. -1.
        -12    1    3    3    0    0  0.18969158991E+00 -0.93201821881E+01  0.12668253328E+02  0.15728522540E+02  0.00000000000E+00 0.  1.
</event>
<event>
 7    1  0.1324280E-011  0.5930178E+02  0.7816164E-02  0.1266605E+00
        -11   -1    0    0    0    0  0.00000000000E+00  0.00000000000E+00  0.45593999997E+02  0.45594000000E+02  0.51100000000E-03 0. -1.
         11   -1    0    0    0    0 -0.00000000000E+00 -0.00000000000E+00 -0.45593999997E+02  0.45594000000E+02  0.51100000000E-03 0.  1.
    9900012    2    1    2    0    0  0.22040527889E+02  0.63544762923E+01 -0.22148738940E+02  0.59301782363E+02  0.49999705161E+02 0.  0.
        -12    1    1    2    0    0 -0.22040527889E+02 -0.63544762923E+01  0.22148738940E+02  0.31886217637E+02  0.00000000000E+00 0.  1.
         11    1    3    3    0    0 -0.39499907977E+01 -0.58845581520E+01 -0.46327335760E+01  0.84671525671E+01  0.51100000000E-03 0. -1.
        -11    1    3    3    0    0 -0.19908456228E+01 -0.83752017018E+01 -0.13275007305E+02  0.15821924315E+02  0.51100000000E-03 0.  1.
        -12    1    3    3    0    0  0.27981364310E+02  0.20614236146E+02 -0.42409980587E+01  0.35012705480E+02  0.00000000000E+00 0.  1.
</event>
<event>
 7    1  0.1324280E-011  0.5930194E+02  0.7816164E-02  0.1266605E+00
        -11   -1    0    0    0    0  0.00000000000E+00  0.00000000000E+00  0.45593999997E+02  0.45594000000E+02  0.51100000000E-03 0. -1.
         11   -1    0    0    0    0 -0.00000000000E+00 -0.00000000000E+00 -0.45593999997E+02  0.45594000000E+02  0.51100000000E-03 0.  1.
    9900012    2    1    2    0    0 -0.13817850159E+02 -0.27035288525E+02 -0.97406897620E+01  0.59301939633E+02  0.49999991986E+02 0.  0.
        -12    1    1    2    0    0  0.13817850159E+02  0.27035288525E+02  0.97406897620E+01  0.31886060367E+02  0.00000000000E+00 0.  1.
         11    1    3    3    0    0 -0.14274773375E+02 -0.23598189548E+02 -0.20436412118E+01  0.27655382379E+02  0.51100000000E-03 0. -1.
        -11    1    3    3    0    0  0.79090605968E+01 -0.14980941701E+02 -0.37501788029E+01  0.17350668433E+02  0.51100000000E-03 0.  1.
        -12    1    3    3    0    0 -0.74521373804E+01  0.11543842724E+02 -0.39468697474E+01  0.14295888821E+02  0.00000000000E+00 0.  1.
</event>
<event>
 7    1  0.1324280E-011  0.5930200E+02  0.7816164E-02  0.1266605E+00
        -11   -1    0    0    0    0  0.00000000000E+00  0.00000000000E+00  0.45593999997E+02  0.45594000000E+02  0.51100000000E-03 0. -1.
         11   -1    0    0    0    0 -0.00000000000E+00 -0.00000000000E+00 -0.45593999997E+02  0.45594000000E+02  0.51100000000E-03 0.  1.
    9900012    2    1    2    0    0  0.26457086716E+02 -0.40849067286E+01 -0.17322043273E+02  0.59301998626E+02  0.50000099574E+02 0.  0.
        -12    1    1    2    0    0 -0.26457086716E+02  0.40849067286E+01  0.17322043273E+02  0.31886001374E+02  0.00000000000E+00 0.  1.
         11    1    3    3    0    0  0.39140342542E+01 -0.15645009421E+02 -0.75339507561E+01  0.17800179723E+02  0.51100000000E-03 0. -1.
        -11    1    3    3    0    0  0.96411869347E+01 -0.73349981234E+01 -0.13702425570E+02  0.18289645971E+02  0.51100000000E-03 0.  1.
         12    1    3    3    0    0  0.12901865527E+02  0.18895100816E+02  0.39143330536E+01  0.23212172931E+02  0.00000000000E+00 0. -1.
</event>
<event>
 7    1  0.1324280E-011  0.5930195E+02  0.7816164E-02  0.1266605E+00
        -11   -1    0    0    0    0  0.00000000000E+00  0.00000000000E+00  0.45593999997E+02  0.45594000000E+02  0.51100000000E-03 0. -1.
         11   -1    0    0    0    0 -0.00000000000E+00 -0.00000000000E+00 -0.45593999997E+02  0.45594000000E+02  0.51100000000E-03 0.  1.
    9900012    2    1    2    0    0 -0.12215553654E+01  0.85533809228E+01  0.30693122104E+02  0.59301948705E+02  0.50000008530E+02 0.  0.
        -12    1    1    2    0    0  0.12215553654E+01 -0.85533809228E+01 -0.30693122104E+02  0.31886051295E+02  0.00000000000E+00 0.  1.
         11    1    3    3    0    0  0.38079047914E+01  0.12074406228E+02  0.29278135248E+02  0.31898285667E+02  0.51100000000E-03 0. -1.
        -11    1    3    3    0    0  0.18175555422E+01 -0.67547436327E+01  0.12296424723E+02  0.14146806386E+02  0.51100000000E-03 0.  1.
        -12    1    3    3    0    0 -0.68470156989E+01  0.32337183277E+01 -0.10881437868E+02  0.13256856651E+02  0.00000000000E+00 0.  1.
</event>
<event>
 7    1  0.1324280E-011  0.5930192E+02  0.7816164E-02  0.1266605E+00
        -11   -1    0    0    0    0  0.00000000000E+00  0.00000000000E+00  0.45593999997E+02  0.45594000000E+02  0.51100000000E-03 0.  1.
         11   -1    0    0    0    0 -0.00000000000E+00 -0.00000000000E+00 -0.45593999997E+02  0.45594000000E+02  0.51100000000E-03 0. -1.
    9900012    2    1    2    0    0 -0.27733172472E+02 -0.15650465084E+02  0.16298744963E+01  0.59301915204E+02  0.49999947433E+02 0.  0.
        -12    1    1    2    0    0  0.27733172472E+02  0.15650465084E+02 -0.16298744963E+01  0.31886084796E+02  0.00000000000E+00 0.  1.
         11    1    3    3    0    0 -0.19547360504E+02  0.10009156546E+01 -0.98210086912E+00  0.19597593148E+02  0.51100000000E-03 0. -1.
        -11    1    3    3    0    0 -0.20525980120E+02 -0.86490044385E+01  0.85291007366E+01  0.23850926550E+02  0.51100000000E-03 0.  1.
         12    1    3    3    0    0  0.12340168151E+02 -0.80023763000E+01 -0.59171253712E+01  0.15853395507E+02  0.00000000000E+00 0. -1.
</event>
<event>
 7    1  0.1324280E-011  0.5930194E+02  0.7816164E-02  0.1266605E+00
        -11   -1    0    0    0    0  0.00000000000E+00  0.00000000000E+00  0.45593999997E+02  0.45594000000E+02  0.51100000000E-03 0.  1.
         11   -1    0    0    0    0 -0.00000000000E+00 -0.00000000000E+00 -0.45593999997E+02  0.45594000000E+02  0.51100000000E-03 0. -1.
    9900012    2    1    2    0    0  0.12346199299E+02 -0.21621269278E+02 -0.19920168829E+02  0.59301936453E+02  0.49999986186E+02 0.  0.
        -12    1    1    2    0    0 -0.12346199299E+02  0.21621269278E+02  0.19920168829E+02  0.31886063547E+02  0.00000000000E+00 0.  1.
         11    1    3    3    0    0  0.12282676428E+02  0.15982573640E+00 -0.19239031352E+02  0.22826081839E+02  0.51100000000E-03 0. -1.
        -11    1    3    3    0    0  0.77248208558E+01  0.45404958712E+01  0.96713375238E+00  0.90124529384E+01  0.51100000000E-03 0.  1.
        -12    1    3    3    0    0 -0.76612979846E+01 -0.26321590886E+02 -0.16482712288E+01  0.27463401676E+02  0.00000000000E+00 0.  1.
</event>
<event>
 7    1  0.1324280E-011  0.5930196E+02  0.7816164E-02  0.1266605E+00
        -11   -1    0    0    0    0  0.00000000000E+00  0.00000000000E+00  0.45593999997E+02  0.45594000000E+02  0.51100000000E-03 0. -1.
         11   -1    0    0    0    0 -0.00000000000E+00 -0.00000000000E+00 -0.45593999997E+02  0.45594000000E+02  0.51100000000E-03 0.  1.
    9900012    2    1    2    0    0  0.23145798017E+01 -0.88543006585E+01  0.30544450775E+02  0.59301962414E+02  0.50000033532E+02 0.  0.
        -12    1    1    2    0    0 -0.23145798017E+01  0.88543006585E+01 -0.30544450775E+02  0.31886037586E+02  0.00000000000E+00 0.  1.
         11    1    3    3    0    0  0.17439179632E+01 -0.17956227070E+02  0.81385762541E+01  0.19791507375E+02  0.51100000000E-03 0.  1.
        -11    1    3    3    0    0  0.53507995347E+01 -0.56242449079E+01 -0.41261942478E+01  0.87913972539E+01  0.51100000000E-03 0. -1.
        -12    1    3    3    0    0 -0.47801376962E+01  0.14726171319E+02  0.26532068768E+02  0.30719057786E+02  0.00000000000E+00 0.  1.
</event>
<event>
 7    1  0.1324280E-011  0.5930194E+02  0.7816164E-02  0.1266605E+00
        -11   -1    0    0    0    0  0.00000000000E+00  0.00000000000E+00  0.45593999997E+02  0.45594000000E+02  0.51100000000E-03 0.  1.
         11   -1    0    0    0    0 -0.00000000000E+00 -0.00000000000E+00 -0.45593999997E+02  0.45594000000E+02  0.51100000000E-03 0. -1.
    9900012    2    1    2    0    0 -0.58812633320E+01 -0.11986891887E+01 -0.31316045750E+02  0.59301939792E+02  0.49999992276E+02 0.  0.
        -12    1    1    2    0    0  0.58812633320E+01  0.11986891887E+01  0.31316045750E+02  0.31886060208E+02  0.00000000000E+00 0.  1.
         11    1    3    3    0    0  0.37355363330E+01  0.10567443939E+02 -0.19387855491E+01  0.11374708469E+02  0.51100000000E-03 0. -1.
        -11    1    3    3    0    0  0.25071837292E+01  0.90226612400E+01 -0.20027962442E+02  0.22109130827E+02  0.51100000000E-03 0.  1.
        -12    1    3    3    0    0 -0.12123983394E+02 -0.20788794368E+02 -0.93492977588E+01  0.25818100495E+02  0.00000000000E+00 0.  1.
</event>
<event>
 7    1  0.1324280E-011  0.5930195E+02  0.7816164E-02  0.1266605E+00
        -11   -1    0    0    0    0  0.00000000000E+00  0.00000000000E+00  0.45593999997E+02  0.45594000000E+02  0.51100000000E-03 0. -1.
         11   -1    0    0    0    0 -0.00000000000E+00 -0.00000000000E+00 -0.45593999997E+02  0.45594000000E+02  0.51100000000E-03 0.  1.
    9900012    2    1    2    0    0  0.68058710222E+01  0.10703567106E+02  0.29254644200E+02  0.59301946051E+02  0.50000003690E+02 0.  0.
        -12    1    1    2    0    0 -0.68058710222E+01 -0.10703567106E+02 -0.29254644200E+02  0.31886053949E+02  0.00000000000E+00 0.  1.
         11    1    3    3    0    0  0.11513032069E+02 -0.51257983140E+01  0.27944877208E+02  0.30655177021E+02  0.51100000000E-03 0. -1.
        -11    1    3    3    0    0  0.86119266450E+01  0.47042090379E+01  0.48329660777E+01  0.10938575071E+02  0.51100000000E-03 0.  1.
        -12    1    3    3    0    0 -0.13319087692E+02  0.11125156382E+02 -0.35231990851E+01  0.17708193959E+02  0.00000000000E+00 0.  1.
</event>
<event>
 7    1  0.1324280E-011  0.5930194E+02  0.7816164E-02  0.1266605E+00
        -11   -1    0    0    0    0  0.00000000000E+00  0.00000000000E+00  0.45593999997E+02  0.45594000000E+02  0.51100000000E-03 0. -1.
         11   -1    0    0    0    0 -0.00000000000E+00 -0.00000000000E+00 -0.45593999997E+02  0.45594000000E+02  0.51100000000E-03 0.  1.
    9900012    2    1    2    0    0 -0.10965764297E+01  0.51807251915E+01  0.31443254484E+02  0.59301942766E+02  0.49999997698E+02 0.  0.
        -12    1    1    2    0    0  0.10965764297E+01 -0.51807251915E+01 -0.31443254484E+02  0.31886057234E+02  0.00000000000E+00 0.  1.
         11    1    3    3    0    0  0.52808727059E+01 -0.32258191397E+01  0.10021963467E+02  0.11778509144E+02  0.51100000000E-03 0. -1.
        -11    1    3    3    0    0 -0.14944369792E+02  0.17931212591E+02  0.25019090118E+02  0.34217209764E+02  0.51100000000E-03 0.  1.
         12    1    3    3    0    0  0.85669206561E+01 -0.95246682600E+01 -0.35977990999E+01  0.13306223858E+02  0.00000000000E+00 0. -1.
</event>
<event>
 7    1  0.1324280E-011  0.5930195E+02  0.7816164E-02  0.1266605E+00
        -11   -1    0    0    0    0  0.00000000000E+00  0.00000000000E+00  0.45593999997E+02  0.45594000000E+02  0.51100000000E-03 0. -1.
         11   -1    0    0    0    0 -0.00000000000E+00 -0.00000000000E+00 -0.45593999997E+02  0.45594000000E+02  0.51100000000E-03 0.  1.
    9900012    2    1    2    0    0 -0.26883741254E+02 -0.10815057606E+02  0.13304863255E+02  0.59301946606E+02  0.50000004701E+02 0.  0.
        -12    1    1    2    0    0  0.26883741254E+02  0.10815057606E+02 -0.13304863255E+02  0.31886053394E+02  0.00000000000E+00 0.  1.
         11    1    3    3    0    0 -0.43344516355E+01 -0.13858867329E+02 -0.21861088919E-01  0.14520886777E+02  0.51100000000E-03 0. -1.
        -11    1    3    3    0    0  0.21412606826E+00 -0.95020734299E+01  0.16043697645E+02  0.18647666981E+02  0.51100000000E-03 0.  1.
        -12    1    3    3    0    0 -0.22763415687E+02  0.12545883153E+02 -0.27169733012E+01  0.26133392848E+02  0.00000000000E+00 0.  1.
</event>
<event>
 7    1  0.1324280E-011  0.5930194E+02  0.7816164E-02  0.1266605E+00
        -11   -1    0    0    0    0  0.00000000000E+00  0.00000000000E+00  0.45593999997E+02  0.45594000000E+02  0.51100000000E-03 0. -1.
         11   -1    0    0    0    0 -0.00000000000E+00 -0.00000000000E+00 -0.45593999997E+02  0.45594000000E+02  0.51100000000E-03 0.  1.
    9900012    2    1    2    0    0  0.15444326880E+02  0.20074568354E+02  0.19370218014E+02  0.59301939201E+02  0.49999991197E+02 0.  0.
        -12    1    1    2    0    0 -0.15444326880E+02 -0.20074568354E+02 -0.19370218014E+02  0.31886060799E+02  0.00000000000E+00 0.  1.
         11    1    3    3    0    0  0.22650251420E+00  0.22952470903E+01  0.31932290392E+01  0.39390575716E+01  0.51100000000E-03 0. -1.
        -11    1    3    3    0    0 -0.11672297408E+02  0.12852873267E+02 -0.77687117795E+01  0.19020824403E+02  0.51100000000E-03 0.  1.
         12    1    3    3    0    0  0.26890121774E+02  0.49264479966E+01  0.23945700754E+02  0.36342057227E+02  0.00000000000E+00 0. -1.
</event>
<event>
 7    1  0.1324280E-011  0.5930207E+02  0.7816164E-02  0.1266604E+00
        -11   -1    0    0    0    0  0.00000000000E+00  0.00000000000E+00  0.45593999997E+02  0.45594000000E+02  0.51100000000E-03 0.  1.
         11   -1    0    0    0    0 -0.00000000000E+00 -0.00000000000E+00 -0.45593999997E+02  0.45594000000E+02  0.51100000000E-03 0. -1.
    9900012    2    1    2    0    0  0.13427371383E+01  0.69941935395E+00 -0.31849967163E+02  0.59302069893E+02  0.50000229548E+02 0.  0.
        -12    1    1    2    0    0 -0.13427371383E+01 -0.69941935395E+00  0.31849967163E+02  0.31885930107E+02  0.00000000000E+00 0.  1.
         11    1    3    3    0    0 -0.51930472718E+01 -0.48430700461E+01  0.24024990400E+01  0.74963370613E+01  0.51100000000E-03 0. -1.
        -11    1    3    3    0    0  0.10448887711E+02 -0.14510810262E+02 -0.11671615109E+02  0.21353441605E+02  0.51100000000E-03 0.  1.
        -12    1    3    3    0    0 -0.39131033013E+01  0.20053299662E+02 -0.22580851095E+02  0.30452291227E+02  0.00000000000E+00 0.  1.
</event>
<event>
 7    1  0.1324280E-011  0.5930194E+02  0.7816164E-02  0.1266605E+00
        -11   -1    0    0    0    0  0.00000000000E+00  0.00000000000E+00  0.45593999997E+02  0.45594000000E+02  0.51100000000E-03 0.  1.
         11   -1    0    0    0    0 -0.00000000000E+00 -0.00000000000E+00 -0.45593999997E+02  0.45594000000E+02  0.51100000000E-03 0. -1.
    9900012    2    1    2    0    0 -0.27341746871E+02  0.40092053299E+01 -0.15908355180E+02  0.59301943268E+02  0.49999998615E+02 0.  0.
        -12    1    1    2    0    0  0.27341746871E+02 -0.40092053299E+01  0.15908355180E+02  0.31886056732E+02  0.00000000000E+00 0.  1.
         11    1    3    3    0    0 -0.11375712929E+02  0.14326267213E+02 -0.13947684541E+02  0.23004057929E+02  0.51100000000E-03 0. -1.
        -11    1    3    3    0    0  0.68003598803E+01  0.24175743381E+01 -0.66264184731E+01  0.97979070328E+01  0.51100000000E-03 0.  1.
        -12    1    3    3    0    0 -0.22766393823E+02 -0.12734636221E+02  0.46657478337E+01  0.26499978306E+02  0.00000000000E+00 0.  1.
</event>
<event>
 7    1  0.1324280E-011  0.5930192E+02  0.7816164E-02  0.1266605E+00
        -11   -1    0    0    0    0  0.00000000000E+00  0.00000000000E+00  0.45593999997E+02  0.45594000000E+02  0.51100000000E-03 0.  1.
         11   -1    0    0    0    0 -0.00000000000E+00 -0.00000000000E+00 -0.45593999997E+02  0.45594000000E+02  0.51100000000E-03 0. -1.
    9900012    2    1    2    0    0  0.23378865233E+02 -0.33154939006E+01 -0.21427976422E+02  0.59301921330E+02  0.49999958604E+02 0.  0.
        -12    1    1    2    0    0 -0.23378865233E+02  0.33154939006E+01  0.21427976422E+02  0.31886078670E+02  0.00000000000E+00 0.  1.
         11    1    3    3    0    0  0.15903551791E+02 -0.36355421315E+01  0.15009949629E+00  0.16314492217E+02  0.51100000000E-03 0. -1.
        -11    1    3    3    0    0 -0.24235923188E+01 -0.11436620426E+02 -0.24679675096E+02  0.27308541697E+02  0.51100000000E-03 0.  1.
         12    1    3    3    0    0  0.98989057607E+01  0.11756668657E+02  0.31015991773E+01  0.15678887416E+02  0.00000000000E+00 0. -1.
</event>
<event>
 7    1  0.1324280E-011  0.5930193E+02  0.7816164E-02  0.1266605E+00
        -11   -1    0    0    0    0  0.00000000000E+00  0.00000000000E+00  0.45593999997E+02  0.45594000000E+02  0.51100000000E-03 0.  1.
         11   -1    0    0    0    0 -0.00000000000E+00 -0.00000000000E+00 -0.45593999997E+02  0.45594000000E+02  0.51100000000E-03 0. -1.
    9900012    2    1    2    0    0  0.27550021709E+02 -0.82435400980E+01  0.13775415270E+02  0.59301925996E+02  0.49999967115E+02 0.  0.
        -12    1    1    2    0    0 -0.27550021709E+02  0.82435400980E+01 -0.13775415270E+02  0.31886074004E+02  0.00000000000E+00 0.  1.
         11    1    3    3    0    0  0.75268893576E+01  0.82582587741E+00  0.79378220920E+01  0.10970190135E+02  0.51100000000E-03 0. -1.
        -11    1    3    3    0    0  0.10045006549E+01  0.86164726013E+01  0.17751961656E+02  0.19758156911E+02  0.51100000000E-03 0.  1.
        -12    1    3    3    0    0  0.19018631696E+02 -0.17685838577E+02 -0.11914368478E+02  0.28573578950E+02  0.00000000000E+00 0.  1.
</event>
<event>
 7    1  0.1324280E-011  0.5930194E+02  0.7816164E-02  0.1266605E+00
        -11   -1    0    0    0    0  0.00000000000E+00  0.00000000000E+00  0.45593999997E+02  0.45594000000E+02  0.51100000000E-03 0. -1.
         11   -1    0    0    0    0 -0.00000000000E+00 -0.00000000000E+00 -0.45593999997E+02  0.45594000000E+02  0.51100000000E-03 0.  1.
    9900012    2    1    2    0    0 -0.17418439242E+02 -0.19928170750E+02  0.17781635082E+02  0.59301944094E+02  0.50000000121E+02 0.  0.
        -12    1    1    2    0    0  0.17418439242E+02  0.19928170750E+02 -0.17781635082E+02  0.31886055906E+02  0.00000000000E+00 0.  1.
         11    1    3    3    0    0 -0.54378495968E+01 -0.15061361975E+00  0.69892368197E+01  0.88567671462E+01  0.51100000000E-03 0. -1.
        -11    1    3    3    0    0 -0.25441391743E+02 -0.24109102278E+02  0.90342958348E+01  0.36195741849E+02  0.51100000000E-03 0.  1.
         12    1    3    3    0    0  0.13460802098E+02  0.43315451483E+01  0.17581024277E+01  0.14249435099E+02  0.00000000000E+00 0. -1.
</event>
<event>
 7    1  0.1324280E-011  0.5930194E+02  0.7816164E-02  0.1266605E+00
        -11   -1    0    0    0    0  0.00000000000E+00  0.00000000000E+00  0.45593999997E+02  0.45594000000E+02  0.51100000000E-03 0.  1.
         11   -1    0    0    0    0 -0.00000000000E+00 -0.00000000000E+00 -0.45593999997E+02  0.45594000000E+02  0.51100000000E-03 0. -1.
    9900012    2    1    2    0    0  0.10840833681E+02 -0.45868876208E+01 -0.29633719400E+02  0.59301944452E+02  0.50000000774E+02 0.  0.
        -12    1    1    2    0    0 -0.10840833681E+02  0.45868876208E+01  0.29633719400E+02  0.31886055548E+02  0.00000000000E+00 0.  1.
         11    1    3    3    0    0  0.11303004144E+02 -0.66782097937E+00 -0.41787199392E+01  0.12069199979E+02  0.51100000000E-03 0. -1.
        -11    1    3    3    0    0  0.68290729017E+00  0.16740960569E+01  0.10587554449E+02  0.10740822568E+02  0.51100000000E-03 0.  1.
        -12    1    3    3    0    0 -0.11450777525E+01 -0.55931626984E+01 -0.36042553909E+02  0.36491921905E+02  0.00000000000E+00 0.  1.
</event>
<event>
 7    1  0.1324280E-011  0.5930192E+02  0.7816164E-02  0.1266605E+00
        -11   -1    0    0    0    0  0.00000000000E+00  0.00000000000E+00  0.45593999997E+02  0.45594000000E+02  0.51100000000E-03 0.  1.
         11   -1    0    0    0    0 -0.00000000000E+00 -0.00000000000E+00 -0.45593999997E+02  0.45594000000E+02  0.51100000000E-03 0. -1.
    9900012    2    1    2    0    0  0.14687749861E+02  0.24061006875E+02 -0.14901686467E+02  0.59301916713E+02  0.49999950184E+02 0.  0.
        -12    1    1    2    0    0 -0.14687749861E+02 -0.24061006875E+02  0.14901686467E+02  0.31886083287E+02  0.00000000000E+00 0.  1.
         11    1    3    3    0    0  0.70146499147E+01 -0.34098855953E+01  0.81850361333E+01  0.11306080221E+02  0.51100000000E-03 0.  1.
        -11    1    3    3    0    0  0.16074179370E+02  0.74754952435E+01 -0.18889030978E+02  0.25904782630E+02  0.51100000000E-03 0. -1.
         12    1    3    3    0    0 -0.84010794236E+01  0.19995397227E+02 -0.41976916225E+01  0.22091053861E+02  0.00000000000E+00 0. -1.
</event>
<event>
 7    1  0.1324280E-011  0.5930195E+02  0.7816164E-02  0.1266605E+00
        -11   -1    0    0    0    0  0.00000000000E+00  0.00000000000E+00  0.45593999997E+02  0.45594000000E+02  0.51100000000E-03 0.  1.
         11   -1    0    0    0    0 -0.00000000000E+00 -0.00000000000E+00 -0.45593999997E+02  0.45594000000E+02  0.51100000000E-03 0. -1.
    9900012    2    1    2    0    0  0.19351833478E+02 -0.24902703709E+02  0.46991764073E+01  0.59301947095E+02  0.50000005594E+02 0.  0.
        -12    1    1    2    0    0 -0.19351833478E+02  0.24902703709E+02 -0.46991764073E+01  0.31886052905E+02  0.00000000000E+00 0.  1.
         11    1    3    3    0    0 -0.14776808856E+02 -0.16762268836E+02  0.66018120783E+01  0.23300464791E+02  0.51100000000E-03 0. -1.
        -11    1    3    3    0    0  0.49179791750E+01 -0.26982522667E+00 -0.29311511261E+01  0.57315767467E+01  0.51100000000E-03 0.  1.
        -12    1    3    3    0    0  0.29210663159E+02 -0.78706096461E+01  0.10285154551E+01  0.30269905557E+02  0.00000000000E+00 0.  1.
</event>
<event>
 7    1  0.1324280E-011  0.5930195E+02  0.7816164E-02  0.1266605E+00
        -11   -1    0    0    0    0  0.00000000000E+00  0.00000000000E+00  0.45593999997E+02  0.45594000000E+02  0.51100000000E-03 0.  1.
         11   -1    0    0    0    0 -0.00000000000E+00 -0.00000000000E+00 -0.45593999997E+02  0.45594000000E+02  0.51100000000E-03 0. -1.
    9900012    2    1    2    0    0  0.24081997199E+02 -0.18087861217E+02 -0.10469324363E+02  0.59301951873E+02  0.50000014308E+02 0.  0.
        -12    1    1    2    0    0 -0.24081997199E+02  0.18087861217E+02  0.10469324363E+02  0.31886048127E+02  0.00000000000E+00 0.  1.
         11    1    3    3    0    0 -0.41405638217E+01 -0.19365161356E+02 -0.14762057851E+02  0.24699637555E+02  0.51100000000E-03 0. -1.
        -11    1    3    3    0    0  0.13340228142E+01  0.27339365931E+01  0.69075103332E+01  0.75476966968E+01  0.51100000000E-03 0.  1.
        -12    1    3    3    0    0  0.26888538207E+02 -0.14566364541E+01 -0.26147768458E+01  0.27054617621E+02  0.00000000000E+00 0.  1.
</event>
<event>
 7    1  0.1324280E-011  0.5930195E+02  0.7816164E-02  0.1266605E+00
        -11   -1    0    0    0    0  0.00000000000E+00  0.00000000000E+00  0.45593999997E+02  0.45594000000E+02  0.51100000000E-03 0. -1.
         11   -1    0    0    0    0 -0.00000000000E+00 -0.00000000000E+00 -0.45593999997E+02  0.45594000000E+02  0.51100000000E-03 0.  1.
    9900012    2    1    2    0    0  0.23596551866E+02 -0.19380495582E+02  0.91825594970E+01  0.59301948694E+02  0.50000008511E+02 0.  0.
        -12    1    1    2    0    0 -0.23596551866E+02  0.19380495582E+02 -0.91825594970E+01  0.31886051306E+02  0.00000000000E+00 0.  1.
         11    1    3    3    0    0  0.12644785863E+02 -0.20554291490E+02  0.12477990804E+02  0.27167439389E+02  0.51100000000E-03 0. -1.
        -11    1    3    3    0    0 -0.77692599628E+01 -0.57126843910E+01  0.45961873556E+01  0.10682747858E+02  0.51100000000E-03 0.  1.
        -12    1    3    3    0    0  0.18721025965E+02  0.68864802989E+01 -0.78916186623E+01  0.21451761448E+02  0.00000000000E+00 0.  1.
</event>
<event>
 7    1  0.1324280E-011  0.5930196E+02  0.7816164E-02  0.1266605E+00
        -11   -1    0    0    0    0  0.00000000000E+00  0.00000000000E+00  0.45593999997E+02  0.45594000000E+02  0.51100000000E-03 0. -1.
         11   -1    0    0    0    0 -0.00000000000E+00 -0.00000000000E+00 -0.45593999997E+02  0.45594000000E+02  0.51100000000E-03 0.  1.
    9900012    2    1    2    0    0  0.30485008032E+02  0.90844475288E+01  0.22037382885E+01  0.59301962867E+02  0.50000034358E+02 0.  0.
        -12    1    1    2    0    0 -0.30485008032E+02 -0.90844475288E+01 -0.22037382885E+01  0.31886037133E+02  0.00000000000E+00 0.  1.
         11    1    3    3    0    0 -0.73307164906E+01  0.48078975655E+01  0.36909932078E+01  0.95120299825E+01  0.51100000000E-03 0. -1.
        -11    1    3    3    0    0  0.74245185942E+01  0.15001798611E+02 -0.47435203906E+01  0.17397655700E+02  0.51100000000E-03 0.  1.
        -12    1    3    3    0    0  0.30391205929E+02 -0.10725248647E+02  0.32562654713E+01  0.32392277184E+02  0.00000000000E+00 0.  1.
</event>
<event>
 7    1  0.1324280E-011  0.5930194E+02  0.7816164E-02  0.1266605E+00
        -11   -1    0    0    0    0  0.00000000000E+00  0.00000000000E+00  0.45593999997E+02  0.45594000000E+02  0.51100000000E-03 0. -1.
         11   -1    0    0    0    0 -0.00000000000E+00 -0.00000000000E+00 -0.45593999997E+02  0.45594000000E+02  0.51100000000E-03 0.  1.
    9900012    2    1    2    0    0 -0.16848861986E+02 -0.26022178054E+02 -0.74620958089E+01  0.59301940746E+02  0.49999994015E+02 0.  0.
        -12    1    1    2    0    0  0.16848861986E+02  0.26022178054E+02  0.74620958089E+01  0.31886059254E+02  0.00000000000E+00 0.  1.
         11    1    3    3    0    0 -0.11568004333E+02 -0.13711118190E+02  0.81750348535E+01  0.19714073181E+02  0.51100000000E-03 0. -1.
        -11    1    3    3    0    0 -0.13986437556E+01 -0.22742408573E+02 -0.33858415514E+01  0.23035565444E+02  0.51100000000E-03 0.  1.
        -12    1    3    3    0    0 -0.38822138980E+01  0.10431348709E+02 -0.12251289111E+02  0.16552302121E+02  0.00000000000E+00 0.  1.
</event>
<event>
 7    1  0.1324280E-011  0.5930160E+02  0.7816164E-02  0.1266606E+00
        -11   -1    0    0    0    0  0.00000000000E+00  0.00000000000E+00  0.45593999997E+02  0.45594000000E+02  0.51100000000E-03 0.  1.
         11   -1    0    0    0    0 -0.00000000000E+00 -0.00000000000E+00 -0.45593999997E+02  0.45594000000E+02  0.51100000000E-03 0. -1.
    9900012    2    1    2    0    0  0.15383374418E+02 -0.18598009956E+02 -0.20837665245E+02  0.59301600459E+02  0.49999373409E+02 0.  0.
        -12    1    1    2    0    0 -0.15383374418E+02  0.18598009956E+02  0.20837665245E+02  0.31886399541E+02  0.00000000000E+00 0.  1.
         11    1    3    3    0    0  0.21665545097E+02 -0.13048649748E+02 -0.10588683782E+02  0.27418667530E+02  0.51100000000E-03 0. -1.
        -11    1    3    3    0    0  0.26098763864E+01 -0.62138878048E+01  0.86619960508E+01  0.10975155227E+02  0.51100000000E-03 0.  1.
         12    1    3    3    0    0 -0.88920470657E+01  0.66452759686E+00 -0.18910977514E+02  0.20907777703E+02  0.00000000000E+00 0. -1.
</event>
<event>
 7    1  0.1324280E-011  0.5930192E+02  0.7816164E-02  0.1266605E+00
        -11   -1    0    0    0    0  0.00000000000E+00  0.00000000000E+00  0.45593999997E+02  0.45594000000E+02  0.51100000000E-03 0.  1.
         11   -1    0    0    0    0 -0.00000000000E+00 -0.00000000000E+00 -0.45593999997E+02  0.45594000000E+02  0.51100000000E-03 0. -1.
    9900012    2    1    2    0    0 -0.88458706551E-01  0.27908824320E+02 -0.15421139131E+02  0.59301924168E+02  0.49999963780E+02 0.  0.
        -12    1    1    2    0    0  0.88458706551E-01 -0.27908824320E+02  0.15421139131E+02  0.31886075832E+02  0.00000000000E+00 0.  1.
         11    1    3    3    0    0 -0.15352464538E+01  0.16337531279E+02  0.10051055853E+01  0.16440259957E+02  0.51100000000E-03 0. -1.
        -11    1    3    3    0    0  0.18213104614E+02  0.71183182812E+01 -0.89150169662E+00  0.19575045603E+02  0.51100000000E-03 0.  1.
        -12    1    3    3    0    0 -0.16766316866E+02  0.44529747600E+01 -0.15534743020E+02  0.23286618608E+02  0.00000000000E+00 0.  1.
</event>
<event>
 7    1  0.1324280E-011  0.5930227E+02  0.7816164E-02  0.1266604E+00
        -11   -1    0    0    0    0  0.00000000000E+00  0.00000000000E+00  0.45593999997E+02  0.45594000000E+02  0.51100000000E-03 0.  1.
         11   -1    0    0    0    0 -0.00000000000E+00 -0.00000000000E+00 -0.45593999997E+02  0.45594000000E+02  0.51100000000E-03 0. -1.
    9900012    2    1    2    0    0 -0.24528153987E+02 -0.32229469816E+01 -0.20116711815E+02  0.59302269343E+02  0.50000593294E+02 0.  0.
        -12    1    1    2    0    0  0.24528153987E+02  0.32229469816E+01  0.20116711815E+02  0.31885730657E+02  0.00000000000E+00 0.  1.
         11    1    3    3    0    0 -0.11730942903E+02 -0.71916031545E+01 -0.26793470991E+02  0.30120163767E+02  0.51100000000E-03 0. -1.
        -11    1    3    3    0    0  0.19456471232E+01 -0.84447464698E+01  0.45623166368E+01  0.97935702899E+01  0.51100000000E-03 0.  1.
        -12    1    3    3    0    0 -0.14742858207E+02  0.12413402643E+02  0.21144425399E+01  0.19388535286E+02  0.00000000000E+00 0.  1.
</event>
<event>
 7    1  0.1324280E-011  0.5930195E+02  0.7816164E-02  0.1266605E+00
        -11   -1    0    0    0    0  0.00000000000E+00  0.00000000000E+00  0.45593999997E+02  0.45594000000E+02  0.51100000000E-03 0. -1.
         11   -1    0    0    0    0 -0.00000000000E+00 -0.00000000000E+00 -0.45593999997E+02  0.45594000000E+02  0.51100000000E-03 0.  1.
    9900012    2    1    2    0    0  0.16234726632E+02 -0.18787721400E+02  0.20004390239E+02  0.59301945791E+02  0.50000003215E+02 0.  0.
        -12    1    1    2    0    0 -0.16234726632E+02  0.18787721400E+02 -0.20004390239E+02  0.31886054209E+02  0.00000000000E+00 0.  1.
         11    1    3    3    0    0  0.75867408626E+01 -0.14571152722E+02  0.19278001427E+02  0.25328214857E+02  0.51100000000E-03 0. -1.
        -11    1    3    3    0    0  0.56320739903E+01 -0.18250366706E+02 -0.24966696472E+01  0.19262126101E+02  0.51100000000E-03 0.  1.
        -12    1    3    3    0    0  0.30159117787E+01  0.14033798027E+02  0.32230584589E+01  0.14711604833E+02  0.00000000000E+00 0.  1.
</event>
<event>
 7    1  0.1324280E-011  0.5930196E+02  0.7816164E-02  0.1266605E+00
        -11   -1    0    0    0    0  0.00000000000E+00  0.00000000000E+00  0.45593999997E+02  0.45594000000E+02  0.51100000000E-03 0.  1.
         11   -1    0    0    0    0 -0.00000000000E+00 -0.00000000000E+00 -0.45593999997E+02  0.45594000000E+02  0.51100000000E-03 0. -1.
    9900012    2    1    2    0    0 -0.17144878076E+02 -0.23780716766E+02 -0.12539956293E+02  0.59301955436E+02  0.50000020805E+02 0.  0.
        -12    1    1    2    0    0  0.17144878076E+02  0.23780716766E+02  0.12539956293E+02  0.31886044564E+02  0.00000000000E+00 0.  1.
         11    1    3    3    0    0  0.32717411029E+01 -0.12915947699E+02 -0.51908178662E+01  0.14299321145E+02  0.51100000000E-03 0. -1.
        -11    1    3    3    0    0  0.88802179635E+01  0.12860116381E+01 -0.96817527773E+01  0.13200319470E+02  0.51100000000E-03 0.  1.
         12    1    3    3    0    0 -0.29296837142E+02 -0.12150780705E+02  0.23326143506E+01  0.31802314821E+02  0.00000000000E+00 0. -1.
</event>
<event>
 7    1  0.1370850E-011  0.5930196E+02  0.7816164E-02  0.1266605E+00
        -11   -1    0    0    0    0  0.00000000000E+00  0.00000000000E+00  0.45593999997E+02  0.45594000000E+02  0.51100000000E-03 0. -1.
         11   -1    0    0    0    0 -0.00000000000E+00 -0.00000000000E+00 -0.45593999997E+02  0.45594000000E+02  0.51100000000E-03 0.  1.
    9900012    2    1    2    0    0 -0.21138841932E+02 -0.18036590054E+02  0.15638097832E+02  0.59301963514E+02  0.50000035538E+02 0.  0.
        -12    1    1    2    0    0  0.21138841932E+02  0.18036590054E+02 -0.15638097832E+02  0.31886036486E+02  0.00000000000E+00 0.  1.
         11    1    3    3    0    0 -0.13207576922E+02 -0.24171244391E+02 -0.16384835116E+01  0.27593002230E+02  0.51100000000E-03 0.  1.
        -11    1    3    3    0    0  0.21607167860E+01 -0.23578974632E+01 -0.49324174470E+01  0.58785303953E+01  0.51100000000E-03 0. -1.
         12    1    3    3    0    0 -0.10091981795E+02  0.84925517999E+01  0.22208998790E+02  0.25830430889E+02  0.00000000000E+00 0. -1.
</event>
<event>
 7    1  0.1324280E-011  0.5930195E+02  0.7816164E-02  0.1266605E+00
        -11   -1    0    0    0    0  0.00000000000E+00  0.00000000000E+00  0.45593999997E+02  0.45594000000E+02  0.51100000000E-03 0.  1.
         11   -1    0    0    0    0 -0.00000000000E+00 -0.00000000000E+00 -0.45593999997E+02  0.45594000000E+02  0.51100000000E-03 0. -1.
    9900012    2    1    2    0    0 -0.18725297989E+02 -0.31312143299E+01 -0.25617939283E+02  0.59301951310E+02  0.50000013281E+02 0.  0.
        -12    1    1    2    0    0  0.18725297989E+02  0.31312143299E+01  0.25617939283E+02  0.31886048690E+02  0.00000000000E+00 0.  1.
         11    1    3    3    0    0 -0.78582147796E+00  0.10484343234E+02 -0.61249879539E+01  0.12167762578E+02  0.51100000000E-03 0. -1.
        -11    1    3    3    0    0 -0.23159345697E+02 -0.11247642462E+02  0.10888322144E+01  0.25769173636E+02  0.51100000000E-03 0.  1.
         12    1    3    3    0    0  0.52198691853E+01 -0.23679151025E+01 -0.20581783543E+02  0.21365015096E+02  0.00000000000E+00 0. -1.
</event>
<event>
 7    1  0.1388474E-011  0.5930188E+02  0.7816164E-02  0.1266605E+00
        -11   -1    0    0    0    0  0.00000000000E+00  0.00000000000E+00  0.45593999997E+02  0.45594000000E+02  0.51100000000E-03 0. -1.
         11   -1    0    0    0    0 -0.00000000000E+00 -0.00000000000E+00 -0.45593999997E+02  0.45594000000E+02  0.51100000000E-03 0.  1.
    9900012    2    1    2    0    0 -0.11252085426E+02  0.23340763618E+02  0.18582895341E+02  0.59301879635E+02  0.49999882563E+02 0.  0.
        -12    1    1    2    0    0  0.11252085426E+02 -0.23340763618E+02 -0.18582895341E+02  0.31886120365E+02  0.00000000000E+00 0.  1.
         11    1    3    3    0    0 -0.82754024277E+01 -0.10368578674E+01  0.21390228937E+02  0.22958642247E+02  0.51100000000E-03 0. -1.
        -11    1    3    3    0    0 -0.12238930495E+02  0.30122896953E+01 -0.33802392693E+01  0.13049571896E+02  0.51100000000E-03 0.  1.
         12    1    3    3    0    0  0.92622474975E+01  0.21365331790E+02  0.57290567331E+00  0.23293665493E+02  0.00000000000E+00 0. -1.
</event>
<event>
 7    1  0.1324280E-011  0.5930195E+02  0.7816164E-02  0.1266605E+00
        -11   -1    0    0    0    0  0.00000000000E+00  0.00000000000E+00  0.45593999997E+02  0.45594000000E+02  0.51100000000E-03 0.  1.
         11   -1    0    0    0    0 -0.00000000000E+00 -0.00000000000E+00 -0.45593999997E+02  0.45594000000E+02  0.51100000000E-03 0. -1.
    9900012    2    1    2    0    0 -0.28070342555E+02 -0.15105573972E+02  0.77328184594E+00  0.59301945666E+02  0.50000002989E+02 0.  0.
        -12    1    1    2    0    0  0.28070342555E+02  0.15105573972E+02 -0.77328184594E+00  0.31886054334E+02  0.00000000000E+00 0.  1.
         11    1    3    3    0    0  0.80927414889E+01 -0.10802104651E+02  0.30758808053E+01  0.13843372879E+02  0.51100000000E-03 0. -1.
        -11    1    3    3    0    0  0.30763550039E+01  0.35097263682E+01  0.22672474026E+01  0.51886944731E+01  0.51100000000E-03 0.  1.
        -12    1    3    3    0    0 -0.39239439048E+02 -0.78131956892E+01 -0.45698463620E+01  0.40269878314E+02  0.00000000000E+00 0.  1.
</event>
<event>
 7    1  0.1324280E-011  0.5930196E+02  0.7816164E-02  0.1266605E+00
        -11   -1    0    0    0    0  0.00000000000E+00  0.00000000000E+00  0.45593999997E+02  0.45594000000E+02  0.51100000000E-03 0.  1.
         11   -1    0    0    0    0 -0.00000000000E+00 -0.00000000000E+00 -0.45593999997E+02  0.45594000000E+02  0.51100000000E-03 0. -1.
    9900012    2    1    2    0    0  0.17181592941E+02  0.24111747261E+02 -0.11837919828E+02  0.59301955437E+02  0.50000020808E+02 0.  0.
        -12    1    1    2    0    0 -0.17181592941E+02 -0.24111747261E+02  0.11837919828E+02  0.31886044563E+02  0.00000000000E+00 0.  1.
         11    1    3    3    0    0 -0.12596621898E+02  0.20141120226E+02  0.26926457841E+01  0.23907947398E+02  0.51100000000E-03 0. -1.
        -11    1    3    3    0    0  0.14628243062E+02  0.26064737186E+01 -0.76421044705E+00  0.14878280082E+02  0.51100000000E-03 0.  1.
        -12    1    3    3    0    0  0.15149971776E+02  0.13641533168E+01 -0.13766355165E+02  0.20515727958E+02  0.00000000000E+00 0.  1.
</event>
<event>
 7    1  0.1324280E-011  0.5930203E+02  0.7816164E-02  0.1266604E+00
        -11   -1    0    0    0    0  0.00000000000E+00  0.00000000000E+00  0.45593999997E+02  0.45594000000E+02  0.51100000000E-03 0. -1.
         11   -1    0    0    0    0 -0.00000000000E+00 -0.00000000000E+00 -0.45593999997E+02  0.45594000000E+02  0.51100000000E-03 0.  1.
    9900012    2    1    2    0    0 -0.55701802447E+01 -0.90819164513E+01  0.30053405893E+02  0.59302026279E+02  0.50000150006E+02 0.  0.
        -12    1    1    2    0    0  0.55701802447E+01  0.90819164513E+01 -0.30053405893E+02  0.31885973721E+02  0.00000000000E+00 0.  1.
         11    1    3    3    0    0  0.54487642872E+01  0.12483834511E+02  0.70370004281E+00  0.13639294350E+02  0.51100000000E-03 0. -1.
        -11    1    3    3    0    0 -0.55497733667E+01 -0.12608691464E+02  0.31999252245E+02  0.34838645630E+02  0.51100000000E-03 0.  1.
        -12    1    3    3    0    0 -0.54691711652E+01 -0.89570594985E+01 -0.26495463948E+01  0.10824086298E+02  0.00000000000E+00 0.  1.
</event>
<event>
 7    1  0.1324280E-011  0.5930197E+02  0.7816164E-02  0.1266605E+00
        -11   -1    0    0    0    0  0.00000000000E+00  0.00000000000E+00  0.45593999997E+02  0.45594000000E+02  0.51100000000E-03 0. -1.
         11   -1    0    0    0    0 -0.00000000000E+00 -0.00000000000E+00 -0.45593999997E+02  0.45594000000E+02  0.51100000000E-03 0.  1.
    9900012    2    1    2    0    0  0.27846356894E+02  0.55969679353E+01 -0.14490448353E+02  0.59301972719E+02  0.50000052325E+02 0.  0.
        -12    1    1    2    0    0 -0.27846356894E+02 -0.55969679353E+01  0.14490448353E+02  0.31886027281E+02  0.00000000000E+00 0.  1.
         11    1    3    3    0    0  0.25665958032E+02 -0.36023399868E+01  0.50499096570E+00  0.25922447246E+02  0.51100000000E-03 0. -1.
        -11    1    3    3    0    0 -0.64782025920E+01 -0.40740588437E+00  0.59222087392E+01  0.87866742849E+01  0.51100000000E-03 0.  1.
        -12    1    3    3    0    0  0.86586014539E+01  0.96067138065E+01 -0.20917648057E+02  0.24592851188E+02  0.00000000000E+00 0.  1.
</event>
<event>
 7    1  0.1324280E-011  0.5930196E+02  0.7816164E-02  0.1266605E+00
        -11   -1    0    0    0    0  0.00000000000E+00  0.00000000000E+00  0.45593999997E+02  0.45594000000E+02  0.51100000000E-03 0.  1.
         11   -1    0    0    0    0 -0.00000000000E+00 -0.00000000000E+00 -0.45593999997E+02  0.45594000000E+02  0.51100000000E-03 0. -1.
    9900012    2    1    2    0    0  0.88293782313E+01  0.24090335025E+02 -0.18931912924E+02  0.59301960915E+02  0.50000030799E+02 0.  0.
        -12    1    1    2    0    0 -0.88293782313E+01 -0.24090335025E+02  0.18931912924E+02  0.31886039085E+02  0.00000000000E+00 0.  1.
         11    1    3    3    0    0 -0.42061389273E+01  0.66485546233E+01 -0.31476462446E+00  0.78736243424E+01  0.51100000000E-03 0. -1.
        -11    1    3    3    0    0  0.72058704452E+01 -0.71884795003E-01  0.12973382139E+02  0.14840430609E+02  0.51100000000E-03 0.  1.
         12    1    3    3    0    0  0.58296467134E+01  0.17513665197E+02 -0.31590530438E+02  0.36587905963E+02  0.00000000000E+00 0. -1.
</event>
<event>
 7    1  0.1324280E-011  0.5930197E+02  0.7816164E-02  0.1266605E+00
        -11   -1    0    0    0    0  0.00000000000E+00  0.00000000000E+00  0.45593999997E+02  0.45594000000E+02  0.51100000000E-03 0. -1.
         11   -1    0    0    0    0 -0.00000000000E+00 -0.00000000000E+00 -0.45593999997E+02  0.45594000000E+02  0.51100000000E-03 0.  1.
    9900012    2    1    2    0    0 -0.14834939056E+02  0.74505002877E-01  0.28224769760E+02  0.59301974914E+02  0.50000056329E+02 0.  0.
        -12    1    1    2    0    0  0.14834939056E+02 -0.74505002877E-01 -0.28224769760E+02  0.31886025086E+02  0.00000000000E+00 0.  1.
         11    1    3    3    0    0 -0.12845639375E+01 -0.46913923503E+01  0.13312390473E+02  0.14173179145E+02  0.51100000000E-03 0. -1.
        -11    1    3    3    0    0  0.12910341426E+02 -0.53281659085E+01  0.24175265231E+01  0.14174297247E+02  0.51100000000E-03 0.  1.
         12    1    3    3    0    0 -0.26460716545E+02  0.10094063262E+02  0.12494852764E+02  0.30954498522E+02  0.00000000000E+00 0. -1.
</event>
<event>
 7    1  0.1324280E-011  0.5930201E+02  0.7816164E-02  0.1266605E+00
        -11   -1    0    0    0    0  0.00000000000E+00  0.00000000000E+00  0.45593999997E+02  0.45594000000E+02  0.51100000000E-03 0. -1.
         11   -1    0    0    0    0 -0.00000000000E+00 -0.00000000000E+00 -0.45593999997E+02  0.45594000000E+02  0.51100000000E-03 0.  1.
    9900012    2    1    2    0    0 -0.15872866977E+02 -0.24751763606E+02  0.12333647227E+02  0.59302006812E+02  0.50000114504E+02 0.  0.
        -12    1    1    2    0    0  0.15872866977E+02  0.24751763606E+02 -0.12333647227E+02  0.31885993188E+02  0.00000000000E+00 0.  1.
         11    1    3    3    0    0 -0.44024479797E+01  0.44193261333E+01  0.12704864434E+02  0.14153641659E+02  0.51100000000E-03 0. -1.
        -11    1    3    3    0    0 -0.22825932265E+02 -0.16916003218E+02  0.54354268013E+00  0.28416012872E+02  0.51100000000E-03 0.  1.
         12    1    3    3    0    0  0.11355513267E+02 -0.12255086521E+02 -0.91475988664E+00  0.16732352281E+02  0.00000000000E+00 0. -1.
</event>
<event>
 7    1  0.1644671E-011  0.5930212E+02  0.7816164E-02  0.1266604E+00
        -11   -1    0    0    0    0  0.00000000000E+00  0.00000000000E+00  0.45593999997E+02  0.45594000000E+02  0.51100000000E-03 0.  1.
         11   -1    0    0    0    0 -0.00000000000E+00 -0.00000000000E+00 -0.45593999997E+02  0.45594000000E+02  0.51100000000E-03 0. -1.
    9900012    2    1    2    0    0 -0.13019733388E+02  0.12208317219E+02 -0.26422586646E+02  0.59302116731E+02  0.50000314968E+02 0.  0.
        -12    1    1    2    0    0  0.13019733388E+02 -0.12208317219E+02  0.26422586646E+02  0.31885883269E+02  0.00000000000E+00 0.  1.
         11    1    3    3    0    0 -0.46460231835E+01  0.72644121743E+01 -0.21437328747E+02  0.23106628480E+02  0.51100000000E-03 0. -1.
        -11    1    3    3    0    0 -0.18216702419E+02  0.20038805160E+01  0.76947609912E+01  0.19876446642E+02  0.51100000000E-03 0.  1.
         12    1    3    3    0    0  0.98429922143E+01  0.29400245289E+01 -0.12680018890E+02  0.16319041608E+02  0.00000000000E+00 0. -1.
</event>
<event>
 7    1  0.1324280E-011  0.5930195E+02  0.7816164E-02  0.1266605E+00
        -11   -1    0    0    0    0  0.00000000000E+00  0.00000000000E+00  0.45593999997E+02  0.45594000000E+02  0.51100000000E-03 0. -1.
         11   -1    0    0    0    0 -0.00000000000E+00 -0.00000000000E+00 -0.45593999997E+02  0.45594000000E+02  0.51100000000E-03 0.  1.
    9900012    2    1    2    0    0  0.23377565690E+02 -0.16570814718E+02  0.13986333663E+02  0.59301952780E+02  0.50000015961E+02 0.  0.
        -12    1    1    2    0    0 -0.23377565690E+02  0.16570814718E+02 -0.13986333663E+02  0.31886047220E+02  0.00000000000E+00 0.  1.
         11    1    3    3    0    0 -0.33788894025E+01  0.64041314069E+01 -0.28210674897E+01  0.77709854403E+01  0.51100000000E-03 0. -1.
        -11    1    3    3    0    0  0.21100884728E+02  0.17740739098E+01  0.16632282839E+00  0.21175984938E+02  0.51100000000E-03 0.  1.
        -12    1    3    3    0    0  0.56555703647E+01 -0.24749020034E+02  0.16641078324E+02  0.30354982402E+02  0.00000000000E+00 0.  1.
</event>
<event>
 7    1  0.1324280E-011  0.5930197E+02  0.7816164E-02  0.1266605E+00
        -11   -1    0    0    0    0  0.00000000000E+00  0.00000000000E+00  0.45593999997E+02  0.45594000000E+02  0.51100000000E-03 0.  1.
         11   -1    0    0    0    0 -0.00000000000E+00 -0.00000000000E+00 -0.45593999997E+02  0.45594000000E+02  0.51100000000E-03 0. -1.
    9900012    2    1    2    0    0 -0.56682664813E+01 -0.28780600055E+02 -0.12500679940E+02  0.59301965700E+02  0.50000039524E+02 0.  0.
        -12    1    1    2    0    0  0.56682664813E+01  0.28780600055E+02  0.12500679940E+02  0.31886034300E+02  0.00000000000E+00 0.  1.
         11    1    3    3    0    0 -0.19411801221E+02 -0.17931642862E+02 -0.78645445698E+01  0.27571958652E+02  0.51100000000E-03 0. -1.
        -11    1    3    3    0    0 -0.36004346271E+01 -0.13366234954E+02 -0.26241739286E+01  0.14089203506E+02  0.51100000000E-03 0.  1.
         12    1    3    3    0    0  0.17343969367E+02  0.25172777610E+01 -0.20119614418E+01  0.17640803541E+02  0.00000000000E+00 0. -1.
</event>
<event>
 7    1  0.1324280E-011  0.5930194E+02  0.7816164E-02  0.1266605E+00
        -11   -1    0    0    0    0  0.00000000000E+00  0.00000000000E+00  0.45593999997E+02  0.45594000000E+02  0.51100000000E-03 0. -1.
         11   -1    0    0    0    0 -0.00000000000E+00 -0.00000000000E+00 -0.45593999997E+02  0.45594000000E+02  0.51100000000E-03 0.  1.
    9900012    2    1    2    0    0  0.23557259514E+01  0.17735908344E+02  0.26393347474E+02  0.59301942225E+02  0.49999996713E+02 0.  0.
        -12    1    1    2    0    0 -0.23557259514E+01 -0.17735908344E+02 -0.26393347474E+02  0.31886057775E+02  0.00000000000E+00 0.  1.
         11    1    3    3    0    0  0.39062427979E+01  0.16409974807E+02 -0.33913134047E+01  0.17206016763E+02  0.51100000000E-03 0. -1.
        -11    1    3    3    0    0 -0.76299192794E+01  0.65595420932E+01 -0.11598128684E+01  0.10128594514E+02  0.51100000000E-03 0.  1.
         12    1    3    3    0    0  0.60794024329E+01 -0.52336085570E+01  0.30944473747E+02  0.31967330948E+02  0.00000000000E+00 0. -1.
</event>
<event>
 7    1  0.1324280E-011  0.5930197E+02  0.7816164E-02  0.1266605E+00
        -11   -1    0    0    0    0  0.00000000000E+00  0.00000000000E+00  0.45593999997E+02  0.45594000000E+02  0.51100000000E-03 0.  1.
         11   -1    0    0    0    0 -0.00000000000E+00 -0.00000000000E+00 -0.45593999997E+02  0.45594000000E+02  0.51100000000E-03 0. -1.
    9900012    2    1    2    0    0  0.12009169920E+02  0.26094716536E+02 -0.13840692829E+02  0.59301965891E+02  0.50000039872E+02 0.  0.
        -12    1    1    2    0    0 -0.12009169920E+02 -0.26094716536E+02  0.13840692829E+02  0.31886034109E+02  0.00000000000E+00 0.  1.
         11    1    3    3    0    0  0.11835942320E+02  0.52047119664E+01 -0.50535772819E+01  0.13882262094E+02  0.51100000000E-03 0. -1.
        -11    1    3    3    0    0  0.94759540262E+01  0.10778375851E+02  0.13195814498E+02  0.19496066558E+02  0.51100000000E-03 0.  1.
         12    1    3    3    0    0 -0.93027264263E+01  0.10111628719E+02 -0.21982930045E+02  0.25923637239E+02  0.00000000000E+00 0. -1.
</event>
<event>
 7    1  0.1508839E-011  0.5930200E+02  0.7816164E-02  0.1266605E+00
        -11   -1    0    0    0    0  0.00000000000E+00  0.00000000000E+00  0.45593999997E+02  0.45594000000E+02  0.51100000000E-03 0.  1.
         11   -1    0    0    0    0 -0.00000000000E+00 -0.00000000000E+00 -0.45593999997E+02  0.45594000000E+02  0.51100000000E-03 0. -1.
    9900012    2    1    2    0    0 -0.25798977309E+01  0.31551040747E+02 -0.38200852197E+01  0.59301998438E+02  0.50000099231E+02 0.  0.
        -12    1    1    2    0    0  0.25798977309E+01 -0.31551040747E+02  0.38200852197E+01  0.31886001562E+02  0.00000000000E+00 0.  1.
         11    1    3    3    0    0  0.13289081445E+00  0.82699636032E+01 -0.17132630761E+02  0.19024641784E+02  0.51100000000E-03 0. -1.
        -11    1    3    3    0    0  0.62924246332E+01 -0.34471581346E+01  0.93657329678E+01  0.11798070234E+02  0.51100000000E-03 0.  1.
         12    1    3    3    0    0 -0.90052131786E+01  0.26728235278E+02  0.39468125731E+01  0.28479286420E+02  0.00000000000E+00 0. -1.
</event>
<event>
 7    1  0.1324280E-011  0.5930196E+02  0.7816164E-02  0.1266605E+00
        -11   -1    0    0    0    0  0.00000000000E+00  0.00000000000E+00  0.45593999997E+02  0.45594000000E+02  0.51100000000E-03 0.  1.
         11   -1    0    0    0    0 -0.00000000000E+00 -0.00000000000E+00 -0.45593999997E+02  0.45594000000E+02  0.51100000000E-03 0. -1.
    9900012    2    1    2    0    0 -0.25377701454E+02 -0.18714287907E+02 -0.47399713015E+01  0.59301958683E+02  0.50000026728E+02 0.  0.
        -12    1    1    2    0    0  0.25377701454E+02  0.18714287907E+02  0.47399713015E+01  0.31886041317E+02  0.00000000000E+00 0.  1.
         11    1    3    3    0    0 -0.66391077405E+00  0.60072860606E+01  0.45618499861E+01  0.75722347353E+01  0.51100000000E-03 0. -1.
        -11    1    3    3    0    0  0.69605379540E+01 -0.11171507847E+01  0.61084938823E+01  0.93279586329E+01  0.51100000000E-03 0.  1.
         12    1    3    3    0    0 -0.31674328634E+02 -0.23604423182E+02 -0.15410315170E+02  0.42401765315E+02  0.00000000000E+00 0. -1.
</event>
<event>
 7    1  0.1324280E-011  0.5930187E+02  0.7816164E-02  0.1266605E+00
        -11   -1    0    0    0    0  0.00000000000E+00  0.00000000000E+00  0.45593999997E+02  0.45594000000E+02  0.51100000000E-03 0.  1.
         11   -1    0    0    0    0 -0.00000000000E+00 -0.00000000000E+00 -0.45593999997E+02  0.45594000000E+02  0.51100000000E-03 0. -1.
    9900012    2    1    2    0    0  0.88334266399E+01  0.47757856008E+01 -0.30263640298E+02  0.59301866989E+02  0.49999859500E+02 0.  0.
        -12    1    1    2    0    0 -0.88334266399E+01 -0.47757856008E+01  0.30263640298E+02  0.31886133011E+02  0.00000000000E+00 0.  1.
         11    1    3    3    0    0 -0.14570311549E+02 -0.86382604510E+01 -0.69358335856E+01  0.18303532720E+02  0.51100000000E-03 0. -1.
        -11    1    3    3    0    0  0.71698146236E+01 -0.48218022240E+01 -0.27477397898E+01  0.90667575593E+01  0.51100000000E-03 0.  1.
         12    1    3    3    0    0  0.16233923565E+02  0.18235848276E+02 -0.20580066922E+02  0.31931576710E+02  0.00000000000E+00 0. -1.
</event>
<event>
 7    1  0.1324280E-011  0.5930192E+02  0.7816164E-02  0.1266605E+00
        -11   -1    0    0    0    0  0.00000000000E+00  0.00000000000E+00  0.45593999997E+02  0.45594000000E+02  0.51100000000E-03 0.  1.
         11   -1    0    0    0    0 -0.00000000000E+00 -0.00000000000E+00 -0.45593999997E+02  0.45594000000E+02  0.51100000000E-03 0. -1.
    9900012    2    1    2    0    0 -0.11523580976E+02  0.20517726331E+02 -0.21516318226E+02  0.59301922124E+02  0.49999960053E+02 0.  0.
        -12    1    1    2    0    0  0.11523580976E+02 -0.20517726331E+02  0.21516318226E+02  0.31886077876E+02  0.00000000000E+00 0.  1.
         11    1    3    3    0    0  0.24984416938E+01 -0.11202906982E+01  0.65406862222E+00  0.28151497597E+01  0.51100000000E-03 0. -1.
        -11    1    3    3    0    0 -0.93363846992E+01  0.47390055273E+01  0.13294830950E+02  0.16922729770E+02  0.51100000000E-03 0.  1.
         12    1    3    3    0    0 -0.46856379711E+01  0.16899011502E+02 -0.35465217798E+02  0.39564042594E+02  0.00000000000E+00 0. -1.
</event>
<event>
 7    1  0.1324280E-011  0.5930199E+02  0.7816164E-02  0.1266605E+00
        -11   -1    0    0    0    0  0.00000000000E+00  0.00000000000E+00  0.45593999997E+02  0.45594000000E+02  0.51100000000E-03 0. -1.
         11   -1    0    0    0    0 -0.00000000000E+00 -0.00000000000E+00 -0.45593999997E+02  0.45594000000E+02  0.51100000000E-03 0.  1.
    9900012    2    1    2    0    0 -0.82231148670E+00 -0.25644246819E+02  0.18931831872E+02  0.59301986622E+02  0.50000077682E+02 0.  0.
        -12    1    1    2    0    0  0.82231148670E+00  0.25644246819E+02 -0.18931831872E+02  0.31886013378E+02  0.00000000000E+00 0.  1.
         11    1    3    3    0    0 -0.13576693435E+02 -0.10994611750E+02  0.42807798468E+01  0.17987027785E+02  0.51100000000E-03 0. -1.
        -11    1    3    3    0    0 -0.73086881729E+01  0.26676022133E+00 -0.55434850737E+01  0.91770534949E+01  0.51100000000E-03 0.  1.
        -12    1    3    3    0    0  0.20063070121E+02 -0.14916395291E+02  0.20194537099E+02  0.32137905343E+02  0.00000000000E+00 0.  1.
</event>
<event>
 7    1  0.1324280E-011  0.5930193E+02  0.7816164E-02  0.1266605E+00
        -11   -1    0    0    0    0  0.00000000000E+00  0.00000000000E+00  0.45593999997E+02  0.45594000000E+02  0.51100000000E-03 0.  1.
         11   -1    0    0    0    0 -0.00000000000E+00 -0.00000000000E+00 -0.45593999997E+02  0.45594000000E+02  0.51100000000E-03 0. -1.
    9900012    2    1    2    0    0 -0.12782190599E+02  0.20840024210E+02 -0.20470239978E+02  0.59301925761E+02  0.49999966687E+02 0.  0.
        -12    1    1    2    0    0  0.12782190599E+02 -0.20840024210E+02  0.20470239978E+02  0.31886074239E+02  0.00000000000E+00 0.  1.
         11    1    3    3    0    0  0.53020255137E+01  0.10527910284E+02 -0.15276098663E+02  0.19295272999E+02  0.51100000000E-03 0. -1.
        -11    1    3    3    0    0 -0.11966687452E+02  0.76616728285E+01  0.13841909899E+02  0.19836867419E+02  0.51100000000E-03 0.  1.
         12    1    3    3    0    0 -0.61175286611E+01  0.26504410970E+01 -0.19036051215E+02  0.20169785343E+02  0.00000000000E+00 0. -1.
</event>
<event>
 7    1  0.1324280E-011  0.5930200E+02  0.7816164E-02  0.1266605E+00
        -11   -1    0    0    0    0  0.00000000000E+00  0.00000000000E+00  0.45593999997E+02  0.45594000000E+02  0.51100000000E-03 0.  1.
         11   -1    0    0    0    0 -0.00000000000E+00 -0.00000000000E+00 -0.45593999997E+02  0.45594000000E+02  0.51100000000E-03 0. -1.
    9900012    2    1    2    0    0 -0.29078213152E+02 -0.12626509982E+02  0.34271908560E+01  0.59302001951E+02  0.50000105638E+02 0.  0.
        -12    1    1    2    0    0  0.29078213152E+02  0.12626509982E+02 -0.34271908560E+01  0.31885998049E+02  0.00000000000E+00 0.  1.
         11    1    3    3    0    0 -0.12207154510E+02 -0.14797468952E+02 -0.39649504338E+01  0.19588275596E+02  0.51100000000E-03 0. -1.
        -11    1    3    3    0    0 -0.14677432411E+01 -0.10665291309E+02 -0.88289577273E+01  0.13923117601E+02  0.51100000000E-03 0.  1.
        -12    1    3    3    0    0 -0.15403315400E+02  0.12836250280E+02  0.16221099017E+02  0.25790608753E+02  0.00000000000E+00 0.  1.
</event>
<event>
 7    1  0.1324280E-011  0.5930194E+02  0.7816164E-02  0.1266605E+00
        -11   -1    0    0    0    0  0.00000000000E+00  0.00000000000E+00  0.45593999997E+02  0.45594000000E+02  0.51100000000E-03 0.  1.
         11   -1    0    0    0    0 -0.00000000000E+00 -0.00000000000E+00 -0.45593999997E+02  0.45594000000E+02  0.51100000000E-03 0. -1.
    9900012    2    1    2    0    0  0.87227069474E+01  0.25329982362E+02 -0.17292401517E+02  0.59301940771E+02  0.49999994060E+02 0.  0.
        -12    1    1    2    0    0 -0.87227069474E+01 -0.25329982362E+02  0.17292401517E+02  0.31886059229E+02  0.00000000000E+00 0.  1.
         11    1    3    3    0    0  0.12028862080E+02  0.19838350273E+02  0.41709311557E+01  0.23572236455E+02  0.51100000000E-03 0.  1.
        -11    1    3    3    0    0 -0.89136590678E+01  0.14674243298E+02 -0.94333991658E+01  0.19590195365E+02  0.51100000000E-03 0. -1.
         12    1    3    3    0    0  0.56075039356E+01 -0.91826112098E+01 -0.12029933507E+02  0.16139508951E+02  0.00000000000E+00 0. -1.
</event>
<event>
 7    1  0.1324280E-011  0.5930195E+02  0.7816164E-02  0.1266605E+00
        -11   -1    0    0    0    0  0.00000000000E+00  0.00000000000E+00  0.45593999997E+02  0.45594000000E+02  0.51100000000E-03 0. -1.
         11   -1    0    0    0    0 -0.00000000000E+00 -0.00000000000E+00 -0.45593999997E+02  0.45594000000E+02  0.51100000000E-03 0.  1.
    9900012    2    1    2    0    0  0.22335685045E+02 -0.16076223006E+02  0.16105665660E+02  0.59301949148E+02  0.50000009338E+02 0.  0.
        -12    1    1    2    0    0 -0.22335685045E+02  0.16076223006E+02 -0.16105665660E+02  0.31886050852E+02  0.00000000000E+00 0.  1.
         11    1    3    3    0    0  0.61603731906E+01  0.12529520238E+02  0.12156764977E+01  0.14014882976E+02  0.51100000000E-03 0. -1.
        -11    1    3    3    0    0  0.26374881803E+01  0.38829184006E+01 -0.32322262914E+01  0.56991829473E+01  0.51100000000E-03 0.  1.
        -12    1    3    3    0    0  0.13537823674E+02 -0.32488661644E+02  0.18122215454E+02  0.39587883225E+02  0.00000000000E+00 0.  1.
</event>
<event>
 7    1  0.1324280E-011  0.5930194E+02  0.7816164E-02  0.1266605E+00
        -11   -1    0    0    0    0  0.00000000000E+00  0.00000000000E+00  0.45593999997E+02  0.45594000000E+02  0.51100000000E-03 0.  1.
         11   -1    0    0    0    0 -0.00000000000E+00 -0.00000000000E+00 -0.45593999997E+02  0.45594000000E+02  0.51100000000E-03 0. -1.
    9900012    2    1    2    0    0 -0.44383268625E+01 -0.17406982586E+02 -0.26344239588E+02  0.59301941173E+02  0.49999994793E+02 0.  0.
        -12    1    1    2    0    0  0.44383268625E+01  0.17406982586E+02  0.26344239588E+02  0.31886058827E+02  0.00000000000E+00 0.  1.
         11    1    3    3    0    0 -0.38945789352E+01 -0.55498019631E+01 -0.27068749064E+01  0.73003574524E+01  0.51100000000E-03 0. -1.
        -11    1    3    3    0    0 -0.70453969011E+00 -0.15397305133E+02  0.98730015948E+01  0.18304358560E+02  0.51100000000E-03 0.  1.
         12    1    3    3    0    0  0.16079176279E+00  0.35401245108E+01 -0.33510366276E+02  0.33697225160E+02  0.00000000000E+00 0. -1.
</event>
<event>
 7    1  0.1324280E-011  0.5930192E+02  0.7816164E-02  0.1266605E+00
        -11   -1    0    0    0    0  0.00000000000E+00  0.00000000000E+00  0.45593999997E+02  0.45594000000E+02  0.51100000000E-03 0.  1.
         11   -1    0    0    0    0 -0.00000000000E+00 -0.00000000000E+00 -0.45593999997E+02  0.45594000000E+02  0.51100000000E-03 0. -1.
    9900012    2    1    2    0    0  0.23027457714E+02 -0.22038539603E+02 -0.87227153591E+00  0.59301923192E+02  0.49999962000E+02 0.  0.
        -12    1    1    2    0    0 -0.23027457714E+02  0.22038539603E+02  0.87227153591E+00  0.31886076808E+02  0.00000000000E+00 0.  1.
         11    1    3    3    0    0  0.27282044316E+02 -0.88777393379E+01 -0.13904524250E+01  0.28723815137E+02  0.51100000000E-03 0. -1.
        -11    1    3    3    0    0  0.24792191694E+01  0.60529618481E+01  0.66374170099E+01  0.93188078449E+01  0.51100000000E-03 0.  1.
         12    1    3    3    0    0 -0.67338057717E+01 -0.19213762113E+02 -0.61192361208E+01  0.21259300210E+02  0.00000000000E+00 0. -1.
</event>
<event>
 7    1  0.1324280E-011  0.5930194E+02  0.7816164E-02  0.1266605E+00
        -11   -1    0    0    0    0  0.00000000000E+00  0.00000000000E+00  0.45593999997E+02  0.45594000000E+02  0.51100000000E-03 0.  1.
         11   -1    0    0    0    0 -0.00000000000E+00 -0.00000000000E+00 -0.45593999997E+02  0.45594000000E+02  0.51100000000E-03 0. -1.
    9900012    2    1    2    0    0  0.71032959145E+01 -0.94069766374E+01 -0.29627233354E+02  0.59301937551E+02  0.49999988187E+02 0.  0.
        -12    1    1    2    0    0 -0.71032959145E+01  0.94069766374E+01  0.29627233354E+02  0.31886062449E+02  0.00000000000E+00 0.  1.
         11    1    3    3    0    0  0.15934609922E+01  0.11193143866E+01  0.69562530688E+01  0.72236721720E+01  0.51100000000E-03 0. -1.
        -11    1    3    3    0    0  0.10430457167E+02 -0.18011401821E+02 -0.82953559624E+01  0.22405757364E+02  0.51100000000E-03 0.  1.
         12    1    3    3    0    0 -0.49206222445E+01  0.74851107968E+01 -0.28288130461E+02  0.29672508014E+02  0.00000000000E+00 0. -1.
</event>
<event>
 7    1  0.1324280E-011  0.5930189E+02  0.7816164E-02  0.1266605E+00
        -11   -1    0    0    0    0  0.00000000000E+00  0.00000000000E+00  0.45593999997E+02  0.45594000000E+02  0.51100000000E-03 0. -1.
         11   -1    0    0    0    0 -0.00000000000E+00 -0.00000000000E+00 -0.45593999997E+02  0.45594000000E+02  0.51100000000E-03 0.  1.
    9900012    2    1    2    0    0 -0.29581645652E+02  0.96982273364E+01 -0.68988894967E+01  0.59301889399E+02  0.49999900371E+02 0.  0.
        -12    1    1    2    0    0  0.29581645652E+02 -0.96982273364E+01  0.68988894967E+01  0.31886110601E+02  0.00000000000E+00 0.  1.
         11    1    3    3    0    0 -0.19542255643E+02  0.78573931520E+01 -0.21166586230E+02  0.29860722625E+02  0.51100000000E-03 0. -1.
        -11    1    3    3    0    0 -0.31024999758E+01  0.69301226615E+01 -0.44782644075E+01  0.88151550507E+01  0.51100000000E-03 0.  1.
         12    1    3    3    0    0 -0.69368900332E+01 -0.50892884771E+01  0.18745961141E+02  0.20626011724E+02  0.00000000000E+00 0. -1.
</event>
<event>
 7    1  0.1324280E-011  0.5930192E+02  0.7816164E-02  0.1266605E+00
        -11   -1    0    0    0    0  0.00000000000E+00  0.00000000000E+00  0.45593999997E+02  0.45594000000E+02  0.51100000000E-03 0. -1.
         11   -1    0    0    0    0 -0.00000000000E+00 -0.00000000000E+00 -0.45593999997E+02  0.45594000000E+02  0.51100000000E-03 0.  1.
    9900012    2    1    2    0    0 -0.24584213932E+01 -0.25738853205E+02  0.18659844310E+02  0.59301918558E+02  0.49999953549E+02 0.  0.
        -12    1    1    2    0    0  0.24584213932E+01  0.25738853205E+02 -0.18659844310E+02  0.31886081442E+02  0.00000000000E+00 0.  1.
         11    1    3    3    0    0 -0.38636394372E+01 -0.38799429866E+00 -0.14884396311E+01  0.41585697148E+01  0.51100000000E-03 0.  1.
        -11    1    3    3    0    0  0.19878706163E+01 -0.19933206176E+02 -0.11453499949E+02  0.23075246464E+02  0.51100000000E-03 0. -1.
         12    1    3    3    0    0 -0.58265257239E+00 -0.54176527301E+01  0.31601783890E+02  0.32068102379E+02  0.00000000000E+00 0. -1.
</event>
<event>
 7    1  0.1324280E-011  0.5930194E+02  0.7816164E-02  0.1266605E+00
        -11   -1    0    0    0    0  0.00000000000E+00  0.00000000000E+00  0.45593999997E+02  0.45594000000E+02  0.51100000000E-03 0.  1.
         11   -1    0    0    0    0 -0.00000000000E+00 -0.00000000000E+00 -0.45593999997E+02  0.45594000000E+02  0.51100000000E-03 0. -1.
    9900012    2    1    2    0    0  0.32454499593E+01 -0.53517586180E+01 -0.31265745140E+02  0.59301935883E+02  0.49999985146E+02 0.  0.
        -12    1    1    2    0    0 -0.32454499593E+01  0.53517586180E+01  0.31265745140E+02  0.31886064117E+02  0.00000000000E+00 0.  1.
         11    1    3    3    0    0 -0.12741038469E+02 -0.53411621037E+01 -0.27363373013E+02  0.30653160633E+02  0.51100000000E-03 0. -1.
        -11    1    3    3    0    0  0.14552279939E+02 -0.86944739995E+01 -0.82264531453E+01  0.18842432464E+02  0.51100000000E-03 0.  1.
        -12    1    3    3    0    0  0.14342084896E+01  0.86838774852E+01  0.43240810189E+01  0.98063427855E+01  0.00000000000E+00 0.  1.
</event>
<event>
 7    1  0.1324280E-011  0.5930193E+02  0.7816164E-02  0.1266605E+00
        -11   -1    0    0    0    0  0.00000000000E+00  0.00000000000E+00  0.45593999997E+02  0.45594000000E+02  0.51100000000E-03 0. -1.
         11   -1    0    0    0    0 -0.00000000000E+00 -0.00000000000E+00 -0.45593999997E+02  0.45594000000E+02  0.51100000000E-03 0.  1.
    9900012    2    1    2    0    0 -0.24719743470E+02 -0.50415356307E+00  0.20134586905E+02  0.59301929720E+02  0.49999973906E+02 0.  0.
        -12    1    1    2    0    0  0.24719743470E+02  0.50415356307E+00 -0.20134586905E+02  0.31886070280E+02  0.00000000000E+00 0.  1.
         11    1    3    3    0    0 -0.60288738530E+01  0.55945124230E+01 -0.12206096423E+02  0.14718514848E+02  0.51100000000E-03 0. -1.
        -11    1    3    3    0    0  0.18182172783E+01 -0.90499693480E+01  0.57588357356E+01  0.10879891937E+02  0.51100000000E-03 0.  1.
         12    1    3    3    0    0 -0.20509086896E+02  0.29513033620E+01  0.26581847592E+02  0.33703522935E+02  0.00000000000E+00 0. -1.
</event>
<event>
 7    1  0.1324280E-011  0.5930194E+02  0.7816164E-02  0.1266605E+00
        -11   -1    0    0    0    0  0.00000000000E+00  0.00000000000E+00  0.45593999997E+02  0.45594000000E+02  0.51100000000E-03 0.  1.
         11   -1    0    0    0    0 -0.00000000000E+00 -0.00000000000E+00 -0.45593999997E+02  0.45594000000E+02  0.51100000000E-03 0. -1.
    9900012    2    1    2    0    0 -0.18463143744E+02 -0.23400087755E+02  0.11325590183E+02  0.59301940713E+02  0.49999993955E+02 0.  0.
        -12    1    1    2    0    0  0.18463143744E+02  0.23400087755E+02 -0.11325590183E+02  0.31886059287E+02  0.00000000000E+00 0.  1.
         11    1    3    3    0    0  0.78401093393E+01  0.16404985721E+01 -0.52644322874E+01  0.95850298689E+01  0.51100000000E-03 0.  1.
        -11    1    3    3    0    0 -0.12480974068E+02 -0.20726167424E+02 -0.40231388250E+01  0.24526197749E+02  0.51100000000E-03 0. -1.
        -12    1    3    3    0    0 -0.13822279016E+02 -0.43144189034E+01  0.20613161295E+02  0.25190713095E+02  0.00000000000E+00 0.  1.
</event>
<event>
 7    1  0.1324280E-011  0.5930194E+02  0.7816164E-02  0.1266605E+00
        -11   -1    0    0    0    0  0.00000000000E+00  0.00000000000E+00  0.45593999997E+02  0.45594000000E+02  0.51100000000E-03 0.  1.
         11   -1    0    0    0    0 -0.00000000000E+00 -0.00000000000E+00 -0.45593999997E+02  0.45594000000E+02  0.51100000000E-03 0. -1.
    9900012    2    1    2    0    0  0.26258427942E+02  0.12925128315E+02 -0.12655303614E+02  0.59301942082E+02  0.49999996452E+02 0.  0.
        -12    1    1    2    0    0 -0.26258427942E+02 -0.12925128315E+02  0.12655303614E+02  0.31886057918E+02  0.00000000000E+00 0.  1.
         11    1    3    3    0    0  0.11315795178E+02  0.17965565868E+02 -0.12850249592E+02  0.24818092036E+02  0.51100000000E-03 0. -1.
        -11    1    3    3    0    0  0.23666364929E+02  0.10711048237E+01 -0.13088543077E+01  0.23726718997E+02  0.51100000000E-03 0.  1.
         12    1    3    3    0    0 -0.87237321647E+01 -0.61115423775E+01  0.15038002851E+01  0.10757131049E+02  0.00000000000E+00 0. -1.
</event>
<event>
 7    1  0.1324280E-011  0.5930192E+02  0.7816164E-02  0.1266605E+00
        -11   -1    0    0    0    0  0.00000000000E+00  0.00000000000E+00  0.45593999997E+02  0.45594000000E+02  0.51100000000E-03 0. -1.
         11   -1    0    0    0    0 -0.00000000000E+00 -0.00000000000E+00 -0.45593999997E+02  0.45594000000E+02  0.51100000000E-03 0.  1.
    9900012    2    1    2    0    0 -0.43472876679E+01 -0.31570411064E+02  0.10640424360E+01  0.59301922300E+02  0.49999960373E+02 0.  0.
        -12    1    1    2    0    0  0.43472876679E+01  0.31570411064E+02 -0.10640424360E+01  0.31886077700E+02  0.00000000000E+00 0.  1.
         11    1    3    3    0    0 -0.72919627299E+01 -0.99536526946E+01 -0.35274086006E+01  0.12833180982E+02  0.51100000000E-03 0. -1.
        -11    1    3    3    0    0 -0.93808827071E+01  0.73814532670E+01  0.85910948146E+01  0.14706927724E+02  0.51100000000E-03 0.  1.
        -12    1    3    3    0    0  0.12325557769E+02 -0.28998211636E+02 -0.39996437780E+01  0.31761813594E+02  0.00000000000E+00 0.  1.
</event>
<event>
 7    1  0.1324280E-011  0.5930182E+02  0.7816164E-02  0.1266605E+00
        -11   -1    0    0    0    0  0.00000000000E+00  0.00000000000E+00  0.45593999997E+02  0.45594000000E+02  0.51100000000E-03 0.  1.
         11   -1    0    0    0    0 -0.00000000000E+00 -0.00000000000E+00 -0.45593999997E+02  0.45594000000E+02  0.51100000000E-03 0. -1.
    9900012    2    1    2    0    0 -0.27388157412E+02 -0.91725088844E+01 -0.13508615339E+02  0.59301815311E+02  0.49999765251E+02 0.  0.
        -12    1    1    2    0    0  0.27388157412E+02  0.91725088844E+01  0.13508615339E+02  0.31886184689E+02  0.00000000000E+00 0.  1.
         11    1    3    3    0    0 -0.28473478050E+01  0.45240568333E+00 -0.95715328232E+01  0.99963143844E+01  0.51100000000E-03 0. -1.
        -11    1    3    3    0    0 -0.68715208476E+00  0.14537828552E+02 -0.48468115139E+01  0.15339889801E+02  0.51100000000E-03 0.  1.
         12    1    3    3    0    0 -0.23853657522E+02 -0.24162743120E+02  0.90972899811E+00  0.33965611125E+02  0.00000000000E+00 0. -1.
</event>
<event>
 7    1  0.1324280E-011  0.5930196E+02  0.7816164E-02  0.1266605E+00
        -11   -1    0    0    0    0  0.00000000000E+00  0.00000000000E+00  0.45593999997E+02  0.45594000000E+02  0.51100000000E-03 0. -1.
         11   -1    0    0    0    0 -0.00000000000E+00 -0.00000000000E+00 -0.45593999997E+02  0.45594000000E+02  0.51100000000E-03 0.  1.
    9900012    2    1    2    0    0  0.18651021881E+02 -0.16070253341E+02  0.20263406832E+02  0.59301963619E+02  0.50000035730E+02 0.  0.
        -12    1    1    2    0    0 -0.18651021881E+02  0.16070253341E+02 -0.20263406832E+02  0.31886036381E+02  0.00000000000E+00 0.  1.
         11    1    3    3    0    0 -0.85103113135E+01 -0.10157120006E+02  0.67504299974E+01  0.14871475746E+02  0.51100000000E-03 0. -1.
        -11    1    3    3    0    0 -0.66627444181E+01 -0.37575358934E+01  0.59834737338E+01  0.97114982034E+01  0.51100000000E-03 0.  1.
         12    1    3    3    0    0  0.33824077613E+02 -0.21555974416E+01  0.75295031009E+01  0.34718989669E+02  0.00000000000E+00 0. -1.
</event>
<event>
 7    1  0.1324280E-011  0.5930193E+02  0.7816164E-02  0.1266605E+00
        -11   -1    0    0    0    0  0.00000000000E+00  0.00000000000E+00  0.45593999997E+02  0.45594000000E+02  0.51100000000E-03 0. -1.
         11   -1    0    0    0    0 -0.00000000000E+00 -0.00000000000E+00 -0.45593999997E+02  0.45594000000E+02  0.51100000000E-03 0.  1.
    9900012    2    1    2    0    0 -0.23877072211E+02  0.10662322217E+02  0.18246143800E+02  0.59301930064E+02  0.49999974533E+02 0.  0.
        -12    1    1    2    0    0  0.23877072211E+02 -0.10662322217E+02 -0.18246143800E+02  0.31886069936E+02  0.00000000000E+00 0.  1.
         11    1    3    3    0    0 -0.19260948362E+02 -0.14266318529E+02  0.21252299550E+00  0.23969921620E+02  0.51100000000E-03 0. -1.
        -11    1    3    3    0    0 -0.66671535473E+01  0.93932818565E+01  0.15725189355E+02  0.19492723282E+02  0.51100000000E-03 0.  1.
        -12    1    3    3    0    0  0.20510296985E+01  0.15535358890E+02  0.23084314497E+01  0.15839285161E+02  0.00000000000E+00 0.  1.
</event>
<event>
 7    1  0.1596433E-011  0.5930196E+02  0.7816164E-02  0.1266605E+00
        -11   -1    0    0    0    0  0.00000000000E+00  0.00000000000E+00  0.45593999997E+02  0.45594000000E+02  0.51100000000E-03 0.  1.
         11   -1    0    0    0    0 -0.00000000000E+00 -0.00000000000E+00 -0.45593999997E+02  0.45594000000E+02  0.51100000000E-03 0. -1.
    9900012    2    1    2    0    0 -0.22139080776E+02 -0.22464408587E+02 -0.46830277907E+01  0.59301963871E+02  0.50000036189E+02 0.  0.
        -12    1    1    2    0    0  0.22139080776E+02  0.22464408587E+02  0.46830277907E+01  0.31886036129E+02  0.00000000000E+00 0.  1.
         11    1    3    3    0    0 -0.22480721070E+02 -0.78976895408E+01 -0.23832431344E+01  0.23946527264E+02  0.51100000000E-03 0. -1.
        -11    1    3    3    0    0 -0.29475969893E+01  0.62675938652E+01  0.90555849712E+01  0.11400643855E+02  0.51100000000E-03 0.  1.
         12    1    3    3    0    0  0.32892372838E+01 -0.20834312911E+02 -0.11355369627E+02  0.23954792752E+02  0.00000000000E+00 0. -1.
</event>
<event>
 7    1  0.1324280E-011  0.5930193E+02  0.7816164E-02  0.1266605E+00
        -11   -1    0    0    0    0  0.00000000000E+00  0.00000000000E+00  0.45593999997E+02  0.45594000000E+02  0.51100000000E-03 0. -1.
         11   -1    0    0    0    0 -0.00000000000E+00 -0.00000000000E+00 -0.45593999997E+02  0.45594000000E+02  0.51100000000E-03 0.  1.
    9900012    2    1    2    0    0  0.47826638854E+01 -0.25987443089E+02  0.17846578155E+02  0.59301930566E+02  0.49999975449E+02 0.  0.
        -12    1    1    2    0    0 -0.47826638854E+01  0.25987443089E+02 -0.17846578155E+02  0.31886069434E+02  0.00000000000E+00 0.  1.
         11    1    3    3    0    0  0.12088373786E+02 -0.16217737988E+02  0.15780998587E+01  0.20288770432E+02  0.51100000000E-03 0. -1.
        -11    1    3    3    0    0  0.12886965831E+02 -0.18094171392E+01  0.23364343538E+01  0.13221452434E+02  0.51100000000E-03 0.  1.
        -12    1    3    3    0    0 -0.20192675732E+02 -0.79602879614E+01  0.13932043942E+02  0.25791707699E+02  0.00000000000E+00 0.  1.
</event>
<event>
 7    1  0.1324280E-011  0.5930225E+02  0.7816164E-02  0.1266604E+00
        -11   -1    0    0    0    0  0.00000000000E+00  0.00000000000E+00  0.45593999997E+02  0.45594000000E+02  0.51100000000E-03 0. -1.
         11   -1    0    0    0    0 -0.00000000000E+00 -0.00000000000E+00 -0.45593999997E+02  0.45594000000E+02  0.51100000000E-03 0.  1.
    9900012    2    1    2    0    0  0.29251134370E+02 -0.10732379259E+02 -0.67740887522E+01  0.59302249186E+02  0.50000556533E+02 0.  0.
        -12    1    1    2    0    0 -0.29251134370E+02  0.10732379259E+02  0.67740887522E+01  0.31885750814E+02  0.00000000000E+00 0.  1.
         11    1    3    3    0    0  0.34723981480E+02 -0.81877105636E+01 -0.47197777225E+01  0.35987078182E+02  0.51100000000E-03 0. -1.
        -11    1    3    3    0    0  0.24022040057E+01 -0.11091196029E+02  0.70616316408E+00  0.11370306949E+02  0.51100000000E-03 0.  1.
        -12    1    3    3    0    0 -0.78750511150E+01  0.85465273335E+01 -0.27604741938E+01  0.11944864055E+02  0.00000000000E+00 0.  1.
</event>
<event>
 7    1  0.1324280E-011  0.5930197E+02  0.7816164E-02  0.1266605E+00
        -11   -1    0    0    0    0  0.00000000000E+00  0.00000000000E+00  0.45593999997E+02  0.45594000000E+02  0.51100000000E-03 0.  1.
         11   -1    0    0    0    0 -0.00000000000E+00 -0.00000000000E+00 -0.45593999997E+02  0.45594000000E+02  0.51100000000E-03 0. -1.
    9900012    2    1    2    0    0 -0.26713712569E+02 -0.13295306830E+02 -0.11239720248E+02  0.59301969608E+02  0.50000046653E+02 0.  0.
        -12    1    1    2    0    0  0.26713712569E+02  0.13295306830E+02  0.11239720248E+02  0.31886030392E+02  0.00000000000E+00 0.  1.
         11    1    3    3    0    0 -0.18160730190E+02 -0.13822280236E+02  0.34072921189E+01  0.23075467315E+02  0.51100000000E-03 0. -1.
        -11    1    3    3    0    0  0.25192200224E+01 -0.48759346432E+01  0.84344186923E+01  0.10062833950E+02  0.51100000000E-03 0.  1.
         12    1    3    3    0    0 -0.11072202401E+02  0.54029080499E+01 -0.23081431060E+02  0.26163668343E+02  0.00000000000E+00 0. -1.
</event>
<event>
 7    1  0.1324280E-011  0.5930194E+02  0.7816164E-02  0.1266605E+00
        -11   -1    0    0    0    0  0.00000000000E+00  0.00000000000E+00  0.45593999997E+02  0.45594000000E+02  0.51100000000E-03 0.  1.
         11   -1    0    0    0    0 -0.00000000000E+00 -0.00000000000E+00 -0.45593999997E+02  0.45594000000E+02  0.51100000000E-03 0. -1.
    9900012    2    1    2    0    0  0.26460853567E+02 -0.12824995207E+02 -0.12331399852E+02  0.59301941983E+02  0.49999996271E+02 0.  0.
        -12    1    1    2    0    0 -0.26460853567E+02  0.12824995207E+02  0.12331399852E+02  0.31886058017E+02  0.00000000000E+00 0.  1.
         11    1    3    3    0    0  0.76173506823E+01  0.89979136312E+01 -0.68599509023E+01  0.13639846325E+02  0.51100000000E-03 0. -1.
        -11    1    3    3    0    0 -0.72510967485E+00 -0.25960890419E+01  0.12551653976E+02  0.12837814462E+02  0.51100000000E-03 0.  1.
         12    1    3    3    0    0  0.19568612560E+02 -0.19226819796E+02 -0.18023102926E+02  0.32824281196E+02  0.00000000000E+00 0. -1.
</event>
<event>
 7    1  0.1324280E-011  0.5930195E+02  0.7816164E-02  0.1266605E+00
        -11   -1    0    0    0    0  0.00000000000E+00  0.00000000000E+00  0.45593999997E+02  0.45594000000E+02  0.51100000000E-03 0. -1.
         11   -1    0    0    0    0 -0.00000000000E+00 -0.00000000000E+00 -0.45593999997E+02  0.45594000000E+02  0.51100000000E-03 0.  1.
    9900012    2    1    2    0    0 -0.11696764520E+02 -0.70559673574E+00  0.29654813298E+02  0.59301951033E+02  0.50000012775E+02 0.  0.
        -12    1    1    2    0    0  0.11696764520E+02  0.70559673574E+00 -0.29654813298E+02  0.31886048967E+02  0.00000000000E+00 0.  1.
         11    1    3    3    0    0 -0.18904373785E+02  0.36285469371E+01  0.16472967922E+02  0.25335752871E+02  0.51100000000E-03 0. -1.
        -11    1    3    3    0    0 -0.15105758686E+01 -0.14952435284E+02  0.14912414710E+00  0.15029284702E+02  0.51100000000E-03 0.  1.
        -12    1    3    3    0    0  0.87181851335E+01  0.10618291611E+02  0.13032721229E+02  0.18936913460E+02  0.00000000000E+00 0.  1.
</event>
<event>
 7    1  0.1324280E-011  0.5930193E+02  0.7816164E-02  0.1266605E+00
        -11   -1    0    0    0    0  0.00000000000E+00  0.00000000000E+00  0.45593999997E+02  0.45594000000E+02  0.51100000000E-03 0.  1.
         11   -1    0    0    0    0 -0.00000000000E+00 -0.00000000000E+00 -0.45593999997E+02  0.45594000000E+02  0.51100000000E-03 0. -1.
    9900012    2    1    2    0    0  0.14190153621E+02 -0.38547695617E+01 -0.28293138069E+02  0.59301931413E+02  0.49999976993E+02 0.  0.
        -12    1    1    2    0    0 -0.14190153621E+02  0.38547695617E+01  0.28293138069E+02  0.31886068587E+02  0.00000000000E+00 0.  1.
         11    1    3    3    0    0  0.81095090288E+01 -0.93034832481E+00  0.39753244458E+01  0.90792559940E+01  0.51100000000E-03 0. -1.
        -11    1    3    3    0    0  0.20722369639E+02 -0.86229780196E+01 -0.15711286529E+02  0.27397388161E+02  0.51100000000E-03 0.  1.
         12    1    3    3    0    0 -0.14641725047E+02  0.56985567827E+01 -0.16557175986E+02  0.22825287258E+02  0.00000000000E+00 0. -1.
</event>
<event>
 7    1  0.1324280E-011  0.5930199E+02  0.7816164E-02  0.1266605E+00
        -11   -1    0    0    0    0  0.00000000000E+00  0.00000000000E+00  0.45593999997E+02  0.45594000000E+02  0.51100000000E-03 0.  1.
         11   -1    0    0    0    0 -0.00000000000E+00 -0.00000000000E+00 -0.45593999997E+02  0.45594000000E+02  0.51100000000E-03 0. -1.
    9900012    2    1    2    0    0 -0.31477165511E+00  0.25573380904E+02 -0.19042604364E+02  0.59301989384E+02  0.50000082718E+02 0.  0.
        -12    1    1    2    0    0  0.31477165511E+00 -0.25573380904E+02  0.19042604364E+02  0.31886010616E+02  0.00000000000E+00 0.  1.
         11    1    3    3    0    0 -0.52499907889E+01  0.79642723567E+01 -0.98952728789E+01  0.13744397515E+02  0.51100000000E-03 0. -1.
        -11    1    3    3    0    0 -0.16653231075E+02  0.11368215855E+00 -0.54631957829E+01  0.17526823366E+02  0.51100000000E-03 0.  1.
        -12    1    3    3    0    0  0.21588450209E+02  0.17495426389E+02 -0.36841357023E+01  0.28030768502E+02  0.00000000000E+00 0.  1.
</event>
<event>
 7    1  0.1324280E-011  0.5930189E+02  0.7816164E-02  0.1266605E+00
        -11   -1    0    0    0    0  0.00000000000E+00  0.00000000000E+00  0.45593999997E+02  0.45594000000E+02  0.51100000000E-03 0.  1.
         11   -1    0    0    0    0 -0.00000000000E+00 -0.00000000000E+00 -0.45593999997E+02  0.45594000000E+02  0.51100000000E-03 0. -1.
    9900012    2    1    2    0    0 -0.12755775955E+01  0.22768693841E+02 -0.22286396999E+02  0.59301890036E+02  0.49999901533E+02 0.  0.
        -12    1    1    2    0    0  0.12755775955E+01 -0.22768693841E+02  0.22286396999E+02  0.31886109964E+02  0.00000000000E+00 0.  1.
         11    1    3    3    0    0  0.37019517691E+01  0.28556889947E+01 -0.33456749262E+01  0.57491692885E+01  0.51100000000E-03 0. -1.
        -11    1    3    3    0    0 -0.73567104680E+01  0.20691577349E+02  0.10264134782E+02  0.24240771959E+02  0.51100000000E-03 0.  1.
         12    1    3    3    0    0  0.23791811033E+01 -0.77857250251E+00 -0.29204856855E+02  0.29311948789E+02  0.00000000000E+00 0. -1.
</event>
<event>
 7    1  0.1324280E-011  0.5930191E+02  0.7816164E-02  0.1266605E+00
        -11   -1    0    0    0    0  0.00000000000E+00  0.00000000000E+00  0.45593999997E+02  0.45594000000E+02  0.51100000000E-03 0.  1.
         11   -1    0    0    0    0 -0.00000000000E+00 -0.00000000000E+00 -0.45593999997E+02  0.45594000000E+02  0.51100000000E-03 0. -1.
    9900012    2    1    2    0    0 -0.24654028933E+02 -0.10410339031E+02 -0.17335698597E+02  0.59301909816E+02  0.49999937606E+02 0.  0.
        -12    1    1    2    0    0  0.24654028933E+02  0.10410339031E+02  0.17335698597E+02  0.31886090184E+02  0.00000000000E+00 0.  1.
         11    1    3    3    0    0 -0.19125857828E+01  0.10583899133E+02  0.21647900057E+00  0.10757498253E+02  0.51100000000E-03 0. -1.
        -11    1    3    3    0    0 -0.90952796930E+00 -0.70629782933E+01  0.89846264005E+01  0.11464572182E+02  0.51100000000E-03 0.  1.
         12    1    3    3    0    0 -0.21831915181E+02 -0.13931259872E+02 -0.26536803998E+02  0.37079839381E+02  0.00000000000E+00 0. -1.
</event>
<event>
 7    1  0.1324280E-011  0.5930192E+02  0.7816164E-02  0.1266605E+00
        -11   -1    0    0    0    0  0.00000000000E+00  0.00000000000E+00  0.45593999997E+02  0.45594000000E+02  0.51100000000E-03 0. -1.
         11   -1    0    0    0    0 -0.00000000000E+00 -0.00000000000E+00 -0.45593999997E+02  0.45594000000E+02  0.51100000000E-03 0.  1.
    9900012    2    1    2    0    0  0.22632029008E+00 -0.14650578360E+02  0.28320154348E+02  0.59301924521E+02  0.49999964424E+02 0.  0.
        -12    1    1    2    0    0 -0.22632029008E+00  0.14650578360E+02 -0.28320154348E+02  0.31886075479E+02  0.00000000000E+00 0.  1.
         11    1    3    3    0    0 -0.83208478127E+01 -0.18432323876E+02  0.91026606387E+00  0.20243904178E+02  0.51100000000E-03 0.  1.
        -11    1    3    3    0    0  0.10888887840E+02 -0.55389231880E+01  0.26532609803E+01  0.12501493614E+02  0.51100000000E-03 0. -1.
         12    1    3    3    0    0 -0.23417197375E+01  0.93206687047E+01  0.24756627304E+02  0.26556526729E+02  0.00000000000E+00 0. -1.
</event>
<event>
 7    1  0.1324280E-011  0.5930196E+02  0.7816164E-02  0.1266605E+00
        -11   -1    0    0    0    0  0.00000000000E+00  0.00000000000E+00  0.45593999997E+02  0.45594000000E+02  0.51100000000E-03 0.  1.
         11   -1    0    0    0    0 -0.00000000000E+00 -0.00000000000E+00 -0.45593999997E+02  0.45594000000E+02  0.51100000000E-03 0. -1.
    9900012    2    1    2    0    0  0.13921281262E+02 -0.22814876515E+02  0.17389612788E+02  0.59301963945E+02  0.50000036324E+02 0.  0.
        -12    1    1    2    0    0 -0.13921281262E+02  0.22814876515E+02 -0.17389612788E+02  0.31886036055E+02  0.00000000000E+00 0.  1.
         11    1    3    3    0    0  0.44187727152E+01 -0.25077909253E+01 -0.27018853720E+01  0.57545418982E+01  0.51100000000E-03 0. -1.
        -11    1    3    3    0    0  0.27094645094E+02 -0.83196137613E+01  0.11809248777E+02  0.30704952741E+02  0.51100000000E-03 0.  1.
         12    1    3    3    0    0 -0.17592136547E+02 -0.11987471828E+02  0.82822493833E+01  0.22842469306E+02  0.00000000000E+00 0. -1.
</event>
<event>
 7    1  0.1324280E-011  0.5930194E+02  0.7816164E-02  0.1266605E+00
        -11   -1    0    0    0    0  0.00000000000E+00  0.00000000000E+00  0.45593999997E+02  0.45594000000E+02  0.51100000000E-03 0.  1.
         11   -1    0    0    0    0 -0.00000000000E+00 -0.00000000000E+00 -0.45593999997E+02  0.45594000000E+02  0.51100000000E-03 0. -1.
    9900012    2    1    2    0    0  0.52552855842E+01 -0.16291774232E+02 -0.26901320725E+02  0.59301937356E+02  0.49999987833E+02 0.  0.
        -12    1    1    2    0    0 -0.52552855842E+01  0.16291774232E+02  0.26901320725E+02  0.31886062644E+02  0.00000000000E+00 0.  1.
         11    1    3    3    0    0 -0.24952486365E+01  0.66538790811E+01 -0.18088081111E+02  0.19433966428E+02  0.51100000000E-03 0.  1.
        -11    1    3    3    0    0  0.10003353699E+02 -0.25121615658E+02  0.34060114600E+01  0.27253689160E+02  0.51100000000E-03 0. -1.
         12    1    3    3    0    0 -0.22528194784E+01  0.21759623449E+01 -0.12219251074E+02  0.12614281768E+02  0.00000000000E+00 0. -1.
</event>
<event>
 7    1  0.1324280E-011  0.5930194E+02  0.7816164E-02  0.1266605E+00
        -11   -1    0    0    0    0  0.00000000000E+00  0.00000000000E+00  0.45593999997E+02  0.45594000000E+02  0.51100000000E-03 0.  1.
         11   -1    0    0    0    0 -0.00000000000E+00 -0.00000000000E+00 -0.45593999997E+02  0.45594000000E+02  0.51100000000E-03 0. -1.
    9900012    2    1    2    0    0 -0.14239159219E+02  0.22479746356E+02 -0.17567822156E+02  0.59301936793E+02  0.49999986806E+02 0.  0.
        -12    1    1    2    0    0  0.14239159219E+02 -0.22479746356E+02  0.17567822156E+02  0.31886063207E+02  0.00000000000E+00 0.  1.
         11    1    3    3    0    0 -0.41479305518E-01 -0.32107432212E+01 -0.36252437879E+00  0.32314109537E+01  0.51100000000E-03 0. -1.
        -11    1    3    3    0    0  0.94670348029E+01  0.21156078341E+02  0.45350050088E+01  0.23617168955E+02  0.51100000000E-03 0.  1.
         12    1    3    3    0    0 -0.23664714716E+02  0.45344112360E+01 -0.21740302786E+02  0.32453356885E+02  0.00000000000E+00 0. -1.
</event>
<event>
 7    1  0.1324280E-011  0.5930196E+02  0.7816164E-02  0.1266605E+00
        -11   -1    0    0    0    0  0.00000000000E+00  0.00000000000E+00  0.45593999997E+02  0.45594000000E+02  0.51100000000E-03 0.  1.
         11   -1    0    0    0    0 -0.00000000000E+00 -0.00000000000E+00 -0.45593999997E+02  0.45594000000E+02  0.51100000000E-03 0. -1.
    9900012    2    1    2    0    0  0.11545212931E+02 -0.73835405793E+01 -0.28790809443E+02  0.59301963534E+02  0.50000035575E+02 0.  0.
        -12    1    1    2    0    0 -0.11545212931E+02  0.73835405793E+01  0.28790809443E+02  0.31886036466E+02  0.00000000000E+00 0.  1.
         11    1    3    3    0    0 -0.11035255849E+00  0.72633442298E+01 -0.14484519283E+02  0.16204000932E+02  0.51100000000E-03 0. -1.
        -11    1    3    3    0    0 -0.11281345191E+02 -0.56194260549E+01  0.30299896276E+01  0.12962543574E+02  0.51100000000E-03 0.  1.
        -12    1    3    3    0    0  0.22936910681E+02 -0.90274587543E+01 -0.17336279788E+02  0.30135419028E+02  0.00000000000E+00 0.  1.
</event>
<event>
 7    1  0.1324280E-011  0.5930194E+02  0.7816164E-02  0.1266605E+00
        -11   -1    0    0    0    0  0.00000000000E+00  0.00000000000E+00  0.45593999997E+02  0.45594000000E+02  0.51100000000E-03 0.  1.
         11   -1    0    0    0    0 -0.00000000000E+00 -0.00000000000E+00 -0.45593999997E+02  0.45594000000E+02  0.51100000000E-03 0. -1.
    9900012    2    1    2    0    0 -0.93116353864E+01  0.27143901730E+02 -0.13900468945E+02  0.59301937346E+02  0.49999987814E+02 0.  0.
        -12    1    1    2    0    0  0.93116353864E+01 -0.27143901730E+02  0.13900468945E+02  0.31886062654E+02  0.00000000000E+00 0.  1.
         11    1    3    3    0    0 -0.18656960868E+02  0.25456579539E+02 -0.87562331096E+01  0.32753492168E+02  0.51100000000E-03 0.  1.
        -11    1    3    3    0    0 -0.78794688317E+01  0.24946329744E+01 -0.42200824859E+01  0.92799956463E+01  0.51100000000E-03 0. -1.
        -12    1    3    3    0    0  0.17224794313E+02 -0.80731078339E+00 -0.92415334953E+00  0.17268449532E+02  0.00000000000E+00 0.  1.
</event>
<event>
 7    1  0.1324280E-011  0.5930200E+02  0.7816164E-02  0.1266605E+00
        -11   -1    0    0    0    0  0.00000000000E+00  0.00000000000E+00  0.45593999997E+02  0.45594000000E+02  0.51100000000E-03 0.  1.
         11   -1    0    0    0    0 -0.00000000000E+00 -0.00000000000E+00 -0.45593999997E+02  0.45594000000E+02  0.51100000000E-03 0. -1.
    9900012    2    1    2    0    0  0.16814927551E+02  0.21428235088E+02 -0.16577273393E+02  0.59301999300E+02  0.50000100803E+02 0.  0.
        -12    1    1    2    0    0 -0.16814927551E+02 -0.21428235088E+02  0.16577273393E+02  0.31886000700E+02  0.00000000000E+00 0.  1.
         11    1    3    3    0    0 -0.38514764170E+01  0.20683802536E+02 -0.60910852761E+00  0.21048148883E+02  0.51100000000E-03 0. -1.
        -11    1    3    3    0    0 -0.19651085191E+00  0.41417416043E+01  0.63056346418E+01  0.75467654348E+01  0.51100000000E-03 0.  1.
         12    1    3    3    0    0  0.20862914819E+02 -0.33973090531E+01 -0.22273799507E+02  0.30707084981E+02  0.00000000000E+00 0. -1.
</event>
<event>
 7    1  0.1324280E-011  0.5930181E+02  0.7816164E-02  0.1266605E+00
        -11   -1    0    0    0    0  0.00000000000E+00  0.00000000000E+00  0.45593999997E+02  0.45594000000E+02  0.51100000000E-03 0.  1.
         11   -1    0    0    0    0 -0.00000000000E+00 -0.00000000000E+00 -0.45593999997E+02  0.45594000000E+02  0.51100000000E-03 0. -1.
    9900012    2    1    2    0    0  0.55924683188E+01  0.31360393745E+02  0.14068282965E+01  0.59301809202E+02  0.49999754110E+02 0.  0.
        -12    1    1    2    0    0 -0.55924683188E+01 -0.31360393745E+02 -0.14068282965E+01  0.31886190798E+02  0.00000000000E+00 0.  1.
         11    1    3    3    0    0  0.12061197938E+02  0.17635356304E+02  0.19219800338E+01  0.21451626866E+02  0.51100000000E-03 0. -1.
        -11    1    3    3    0    0 -0.86291949685E+01  0.24712218907E+02  0.23826618474E+01  0.26283718284E+02  0.51100000000E-03 0.  1.
        -12    1    3    3    0    0  0.21604653498E+01 -0.10987181466E+02 -0.28978135847E+01  0.11566464052E+02  0.00000000000E+00 0.  1.
</event>
<event>
 7    1  0.1324280E-011  0.5930195E+02  0.7816164E-02  0.1266605E+00
        -11   -1    0    0    0    0  0.00000000000E+00  0.00000000000E+00  0.45593999997E+02  0.45594000000E+02  0.51100000000E-03 0. -1.
         11   -1    0    0    0    0 -0.00000000000E+00 -0.00000000000E+00 -0.45593999997E+02  0.45594000000E+02  0.51100000000E-03 0.  1.
    9900012    2    1    2    0    0 -0.24901533925E+02 -0.52038790976E+01  0.19223772026E+02  0.59301950380E+02  0.50000011585E+02 0.  0.
        -12    1    1    2    0    0  0.24901533925E+02  0.52038790976E+01 -0.19223772026E+02  0.31886049620E+02  0.00000000000E+00 0.  1.
         11    1    3    3    0    0 -0.10626784425E+02 -0.40195909048E+01  0.73481234953E+01  0.13530727158E+02  0.51100000000E-03 0. -1.
        -11    1    3    3    0    0 -0.27314974377E+02  0.49765968167E+01  0.11331247503E+01  0.27787736738E+02  0.51100000000E-03 0.  1.
        -12    1    3    3    0    0  0.13040224877E+02 -0.61608850094E+01  0.10742523780E+02  0.17983486484E+02  0.00000000000E+00 0.  1.
</event>
<event>
 7    1  0.1324280E-011  0.5930199E+02  0.7816164E-02  0.1266605E+00
        -11   -1    0    0    0    0  0.00000000000E+00  0.00000000000E+00  0.45593999997E+02  0.45594000000E+02  0.51100000000E-03 0. -1.
         11   -1    0    0    0    0 -0.00000000000E+00 -0.00000000000E+00 -0.45593999997E+02  0.45594000000E+02  0.51100000000E-03 0.  1.
    9900012    2    1    2    0    0  0.24810507949E+02  0.55070669957E+01 -0.19256909764E+02  0.59301989505E+02  0.50000082940E+02 0.  0.
        -12    1    1    2    0    0 -0.24810507949E+02 -0.55070669957E+01  0.19256909764E+02  0.31886010495E+02  0.00000000000E+00 0.  1.
         11    1    3    3    0    0  0.14130695555E+02  0.14052447362E+02 -0.11893052839E+02  0.23207596597E+02  0.51100000000E-03 0. -1.
        -11    1    3    3    0    0  0.43592960141E+00  0.92234692371E+01 -0.11926077627E+02  0.15082895850E+02  0.51100000000E-03 0.  1.
        -12    1    3    3    0    0  0.10243882793E+02 -0.17768849603E+02  0.45622207024E+01  0.21011497058E+02  0.00000000000E+00 0.  1.
</event>
<event>
 7    1  0.1324280E-011  0.5930194E+02  0.7816164E-02  0.1266605E+00
        -11   -1    0    0    0    0  0.00000000000E+00  0.00000000000E+00  0.45593999997E+02  0.45594000000E+02  0.51100000000E-03 0.  1.
         11   -1    0    0    0    0 -0.00000000000E+00 -0.00000000000E+00 -0.45593999997E+02  0.45594000000E+02  0.51100000000E-03 0. -1.
    9900012    2    1    2    0    0  0.13741905253E+02  0.27641680494E+02  0.79886571364E+01  0.59301935593E+02  0.49999984618E+02 0.  0.
        -12    1    1    2    0    0 -0.13741905253E+02 -0.27641680494E+02 -0.79886571364E+01  0.31886064407E+02  0.00000000000E+00 0.  1.
         11    1    3    3    0    0  0.16514985770E+02  0.68952922627E+01 -0.11351667912E+01  0.17932607571E+02  0.51100000000E-03 0. -1.
        -11    1    3    3    0    0  0.12408002305E+02 -0.23739991149E+01  0.39003426423E+01  0.13221462324E+02  0.51100000000E-03 0.  1.
        -12    1    3    3    0    0 -0.15181082822E+02  0.23120387346E+02  0.52234812853E+01  0.28147865699E+02  0.00000000000E+00 0.  1.
</event>
<event>
 7    1  0.1324280E-011  0.5930196E+02  0.7816164E-02  0.1266605E+00
        -11   -1    0    0    0    0  0.00000000000E+00  0.00000000000E+00  0.45593999997E+02  0.45594000000E+02  0.51100000000E-03 0. -1.
         11   -1    0    0    0    0 -0.00000000000E+00 -0.00000000000E+00 -0.45593999997E+02  0.45594000000E+02  0.51100000000E-03 0.  1.
    9900012    2    1    2    0    0  0.26181646189E+02  0.85143776568E+01  0.16085602815E+02  0.59301955373E+02  0.50000020690E+02 0.  0.
        -12    1    1    2    0    0 -0.26181646189E+02 -0.85143776568E+01 -0.16085602815E+02  0.31886044627E+02  0.00000000000E+00 0.  1.
         11    1    3    3    0    0  0.29231205118E+02  0.19543191425E+02  0.37364717810E+01  0.35360442664E+02  0.51100000000E-03 0. -1.
        -11    1    3    3    0    0  0.10226781236E+00 -0.43596195098E+01 -0.40552405205E+01  0.59549741323E+01  0.51100000000E-03 0.  1.
        -12    1    3    3    0    0 -0.31518267410E+01 -0.66691942589E+01  0.16404371555E+02  0.17986538577E+02  0.00000000000E+00 0.  1.
</event>
<event>
 7    1  0.1324280E-011  0.5930196E+02  0.7816164E-02  0.1266605E+00
        -11   -1    0    0    0    0  0.00000000000E+00  0.00000000000E+00  0.45593999997E+02  0.45594000000E+02  0.51100000000E-03 0. -1.
         11   -1    0    0    0    0 -0.00000000000E+00 -0.00000000000E+00 -0.45593999997E+02  0.45594000000E+02  0.51100000000E-03 0.  1.
    9900012    2    1    2    0    0 -0.19154372345E+02  0.13142354967E+02  0.21842797640E+02  0.59301964142E+02  0.50000036684E+02 0.  0.
        -12    1    1    2    0    0  0.19154372345E+02 -0.13142354967E+02 -0.21842797640E+02  0.31886035858E+02  0.00000000000E+00 0.  1.
         11    1    3    3    0    0  0.78299514365E+01 -0.39702931070E+01 -0.46349952315E+01  0.99274643243E+01  0.51100000000E-03 0. -1.
        -11    1    3    3    0    0 -0.25754318974E+01  0.59921811760E+00 -0.53687082687E+01  0.59845585089E+01  0.51100000000E-03 0.  1.
         12    1    3    3    0    0 -0.24408891884E+02  0.16513429956E+02  0.31846501140E+02  0.43389941309E+02  0.00000000000E+00 0. -1.
</event>
<event>
 7    1  0.1324280E-011  0.5930195E+02  0.7816164E-02  0.1266605E+00
        -11   -1    0    0    0    0  0.00000000000E+00  0.00000000000E+00  0.45593999997E+02  0.45594000000E+02  0.51100000000E-03 0. -1.
         11   -1    0    0    0    0 -0.00000000000E+00 -0.00000000000E+00 -0.45593999997E+02  0.45594000000E+02  0.51100000000E-03 0.  1.
    9900012    2    1    2    0    0  0.27665697126E+02  0.11249244254E+02  0.11170666489E+02  0.59301951585E+02  0.50000013782E+02 0.  0.
        -12    1    1    2    0    0 -0.27665697126E+02 -0.11249244254E+02 -0.11170666489E+02  0.31886048415E+02  0.00000000000E+00 0.  1.
         11    1    3    3    0    0  0.38355115504E+01  0.14982656582E+02  0.52220352785E+01  0.16323627043E+02  0.51100000000E-03 0. -1.
        -11    1    3    3    0    0  0.30361308239E+02  0.57465110705E+01  0.27069732114E+01  0.31018690038E+02  0.51100000000E-03 0.  1.
         12    1    3    3    0    0 -0.65311226636E+01 -0.94799233984E+01  0.32416579988E+01  0.11959634504E+02  0.00000000000E+00 0. -1.
</event>
<event>
 7    1  0.1324280E-011  0.5930194E+02  0.7816164E-02  0.1266605E+00
        -11   -1    0    0    0    0  0.00000000000E+00  0.00000000000E+00  0.45593999997E+02  0.45594000000E+02  0.51100000000E-03 0.  1.
         11   -1    0    0    0    0 -0.00000000000E+00 -0.00000000000E+00 -0.45593999997E+02  0.45594000000E+02  0.51100000000E-03 0. -1.
    9900012    2    1    2    0    0 -0.20414376891E+01  0.55525748379E+00 -0.31815793778E+02  0.59301944860E+02  0.50000001517E+02 0.  0.
        -12    1    1    2    0    0  0.20414376891E+01 -0.55525748379E+00  0.31815793778E+02  0.31886055140E+02  0.00000000000E+00 0.  1.
         11    1    3    3    0    0 -0.18022619367E+01  0.54810722826E+01 -0.28602104191E+02  0.29178256731E+02  0.51100000000E-03 0. -1.
        -11    1    3    3    0    0  0.20443564788E+01  0.11277931173E+02  0.41359141263E+01  0.12185110211E+02  0.51100000000E-03 0.  1.
        -12    1    3    3    0    0 -0.22835322313E+01 -0.16203745971E+02 -0.73496037130E+01  0.17938577917E+02  0.00000000000E+00 0.  1.
</event>
<event>
 7    1  0.1324280E-011  0.5930192E+02  0.7816164E-02  0.1266605E+00
        -11   -1    0    0    0    0  0.00000000000E+00  0.00000000000E+00  0.45593999997E+02  0.45594000000E+02  0.51100000000E-03 0.  1.
         11   -1    0    0    0    0 -0.00000000000E+00 -0.00000000000E+00 -0.45593999997E+02  0.45594000000E+02  0.51100000000E-03 0. -1.
    9900012    2    1    2    0    0  0.12036799034E+02  0.11230307605E+01 -0.29505530947E+02  0.59301920192E+02  0.49999956530E+02 0.  0.
        -12    1    1    2    0    0 -0.12036799034E+02 -0.11230307605E+01  0.29505530947E+02  0.31886079808E+02  0.00000000000E+00 0.  1.
         11    1    3    3    0    0  0.46112460139E+01 -0.85845097403E+01 -0.16055335452E+02  0.18781139316E+02  0.51100000000E-03 0. -1.
        -11    1    3    3    0    0  0.87434035149E+01 -0.65869743189E+01  0.79946586096E+01  0.13555438106E+02  0.51100000000E-03 0.  1.
         12    1    3    3    0    0 -0.13178504949E+01  0.16294514820E+02 -0.21444854104E+02  0.26965342770E+02  0.00000000000E+00 0. -1.
</event>
<event>
 7    1  0.1324280E-011  0.5930194E+02  0.7816164E-02  0.1266605E+00
        -11   -1    0    0    0    0  0.00000000000E+00  0.00000000000E+00  0.45593999997E+02  0.45594000000E+02  0.51100000000E-03 0.  1.
         11   -1    0    0    0    0 -0.00000000000E+00 -0.00000000000E+00 -0.45593999997E+02  0.45594000000E+02  0.51100000000E-03 0. -1.
    9900012    2    1    2    0    0 -0.21619178467E+00  0.78281858134E+01 -0.30909438479E+02  0.59301943187E+02  0.49999998466E+02 0.  0.
        -12    1    1    2    0    0  0.21619178467E+00 -0.78281858134E+01  0.30909438479E+02  0.31886056813E+02  0.00000000000E+00 0.  1.
         11    1    3    3    0    0  0.28136325756E+01  0.12491883364E+02 -0.14575274732E+02  0.19401090485E+02  0.51100000000E-03 0. -1.
        -11    1    3    3    0    0  0.10726249734E+02  0.18034699776E+01 -0.21294501953E+02  0.23911519212E+02  0.51100000000E-03 0.  1.
        -12    1    3    3    0    0 -0.13756074094E+02 -0.64671675280E+01  0.49603382060E+01  0.15989333490E+02  0.00000000000E+00 0.  1.
</event>
<event>
 7    1  0.1952217E-011  0.5930194E+02  0.7816164E-02  0.1266605E+00
        -11   -1    0    0    0    0  0.00000000000E+00  0.00000000000E+00  0.45593999997E+02  0.45594000000E+02  0.51100000000E-03 0. -1.
         11   -1    0    0    0    0 -0.00000000000E+00 -0.00000000000E+00 -0.45593999997E+02  0.45594000000E+02  0.51100000000E-03 0.  1.
    9900012    2    1    2    0    0  0.20343087559E+02 -0.24484817998E+02  0.18366570200E+01  0.59301939835E+02  0.49999992354E+02 0.  0.
        -12    1    1    2    0    0 -0.20343087559E+02  0.24484817998E+02 -0.18366570200E+01  0.31886060165E+02  0.00000000000E+00 0.  1.
         11    1    3    3    0    0 -0.10299810795E+02 -0.51021125074E+01  0.77946244420E+00  0.11520643055E+02  0.51100000000E-03 0. -1.
        -11    1    3    3    0    0  0.24718134979E+02 -0.40937784610E+01 -0.11065677392E+02  0.27389677533E+02  0.51100000000E-03 0.  1.
         12    1    3    3    0    0  0.59247633746E+01 -0.15288927030E+02  0.12122871968E+02  0.20391619247E+02  0.00000000000E+00 0. -1.
</event>
<event>
 7    1  0.1324280E-011  0.5930195E+02  0.7816164E-02  0.1266605E+00
        -11   -1    0    0    0    0  0.00000000000E+00  0.00000000000E+00  0.45593999997E+02  0.45594000000E+02  0.51100000000E-03 0. -1.
         11   -1    0    0    0    0 -0.00000000000E+00 -0.00000000000E+00 -0.45593999997E+02  0.45594000000E+02  0.51100000000E-03 0.  1.
    9900012    2    1    2    0    0  0.23147524423E+02 -0.21929618341E+02 -0.66009446747E-01  0.59301946548E+02  0.50000004596E+02 0.  0.
        -12    1    1    2    0    0 -0.23147524423E+02  0.21929618341E+02  0.66009446747E-01  0.31886053452E+02  0.00000000000E+00 0.  1.
         11    1    3    3    0    0  0.10035223136E+02 -0.24773274281E+02 -0.31260303752E+01  0.26910832172E+02  0.51100000000E-03 0. -1.
        -11    1    3    3    0    0  0.14392486056E+02 -0.11090592074E+02  0.57324787936E+00  0.18178930134E+02  0.51100000000E-03 0.  1.
        -12    1    3    3    0    0 -0.12801847684E+01  0.13934248014E+02  0.24867730491E+01  0.14212184243E+02  0.00000000000E+00 0.  1.
</event>
<event>
 7    1  0.1324280E-011  0.5930194E+02  0.7816164E-02  0.1266605E+00
        -11   -1    0    0    0    0  0.00000000000E+00  0.00000000000E+00  0.45593999997E+02  0.45594000000E+02  0.51100000000E-03 0.  1.
         11   -1    0    0    0    0 -0.00000000000E+00 -0.00000000000E+00 -0.45593999997E+02  0.45594000000E+02  0.51100000000E-03 0. -1.
    9900012    2    1    2    0    0  0.13073968529E+02  0.62793630060E+01 -0.28396511360E+02  0.59301938621E+02  0.49999990139E+02 0.  0.
        -12    1    1    2    0    0 -0.13073968529E+02 -0.62793630060E+01  0.28396511360E+02  0.31886061379E+02  0.00000000000E+00 0.  1.
         11    1    3    3    0    0 -0.20370513363E+01  0.18317968231E+01 -0.13670309533E+01  0.30616713795E+01  0.51100000000E-03 0. -1.
        -11    1    3    3    0    0 -0.18435875066E+01 -0.17653269095E+02 -0.47458190629E+00  0.17755617502E+02  0.51100000000E-03 0.  1.
         12    1    3    3    0    0  0.16954607372E+02  0.22100835278E+02 -0.26554898501E+02  0.38484649739E+02  0.00000000000E+00 0. -1.
</event>
<event>
 7    1  0.1324280E-011  0.5930202E+02  0.7816164E-02  0.1266604E+00
        -11   -1    0    0    0    0  0.00000000000E+00  0.00000000000E+00  0.45593999997E+02  0.45594000000E+02  0.51100000000E-03 0.  1.
         11   -1    0    0    0    0 -0.00000000000E+00 -0.00000000000E+00 -0.45593999997E+02  0.45594000000E+02  0.51100000000E-03 0. -1.
    9900012    2    1    2    0    0  0.39576773162E+01 -0.31116311495E+02 -0.57295442654E+01  0.59302019879E+02  0.50000138334E+02 0.  0.
        -12    1    1    2    0    0 -0.39576773162E+01  0.31116311495E+02  0.57295442654E+01  0.31885980121E+02  0.00000000000E+00 0.  1.
         11    1    3    3    0    0 -0.19264151633E+01 -0.24383620154E+02  0.12911848905E+01  0.24493655625E+02  0.51100000000E-03 0. -1.
        -11    1    3    3    0    0  0.83441381588E+01 -0.19434242577E+02 -0.40500401664E+01  0.21534095099E+02  0.51100000000E-03 0.  1.
        -12    1    3    3    0    0 -0.24600456793E+01  0.12701551235E+02 -0.29706889895E+01  0.13274269155E+02  0.00000000000E+00 0.  1.
</event>
<event>
 7    1  0.1324280E-011  0.5930201E+02  0.7816164E-02  0.1266605E+00
        -11   -1    0    0    0    0  0.00000000000E+00  0.00000000000E+00  0.45593999997E+02  0.45594000000E+02  0.51100000000E-03 0. -1.
         11   -1    0    0    0    0 -0.00000000000E+00 -0.00000000000E+00 -0.45593999997E+02  0.45594000000E+02  0.51100000000E-03 0.  1.
    9900012    2    1    2    0    0 -0.30334350875E+02  0.96394566323E+01  0.19038389392E+01  0.59302006682E+02  0.50000114267E+02 0.  0.
        -12    1    1    2    0    0  0.30334350875E+02 -0.96394566323E+01 -0.19038389392E+01  0.31885993318E+02  0.00000000000E+00 0.  1.
         11    1    3    3    0    0 -0.16902811585E+02 -0.37726274332E+01  0.55310572756E+01  0.18180493724E+02  0.51100000000E-03 0. -1.
        -11    1    3    3    0    0 -0.11785014629E+02  0.21268515714E+02  0.91933973147E+01  0.25995285821E+02  0.51100000000E-03 0.  1.
        -12    1    3    3    0    0 -0.16465246609E+01 -0.78564316487E+01 -0.12820615651E+02  0.15126227136E+02  0.00000000000E+00 0.  1.
</event>
<event>
 7    1  0.1324280E-011  0.5930194E+02  0.7816164E-02  0.1266605E+00
        -11   -1    0    0    0    0  0.00000000000E+00  0.00000000000E+00  0.45593999997E+02  0.45594000000E+02  0.51100000000E-03 0.  1.
         11   -1    0    0    0    0 -0.00000000000E+00 -0.00000000000E+00 -0.45593999997E+02  0.45594000000E+02  0.51100000000E-03 0. -1.
    9900012    2    1    2    0    0 -0.22914516614E+01 -0.16210830038E+02 -0.27362005011E+02  0.59301935968E+02  0.49999985301E+02 0.  0.
        -12    1    1    2    0    0  0.22914516614E+01  0.16210830038E+02  0.27362005011E+02  0.31886064032E+02  0.00000000000E+00 0.  1.
         11    1    3    3    0    0 -0.70818421941E+01  0.24677039701E+01 -0.15178075835E+01  0.76515221929E+01  0.51100000000E-03 0. -1.
        -11    1    3    3    0    0  0.89876954159E+01  0.11004764917E+02 -0.47014424949E+01  0.14966197966E+02  0.51100000000E-03 0.  1.
        -12    1    3    3    0    0 -0.41973048832E+01 -0.29683298925E+02 -0.21142754932E+02  0.36684215809E+02  0.00000000000E+00 0.  1.
</event>
<event>
 7    1  0.1324280E-011  0.5930196E+02  0.7816164E-02  0.1266605E+00
        -11   -1    0    0    0    0  0.00000000000E+00  0.00000000000E+00  0.45593999997E+02  0.45594000000E+02  0.51100000000E-03 0.  1.
         11   -1    0    0    0    0 -0.00000000000E+00 -0.00000000000E+00 -0.45593999997E+02  0.45594000000E+02  0.51100000000E-03 0. -1.
    9900012    2    1    2    0    0  0.24468518420E+02 -0.16949307721E+02  0.11433820019E+02  0.59301958131E+02  0.50000025720E+02 0.  0.
        -12    1    1    2    0    0 -0.24468518420E+02  0.16949307721E+02 -0.11433820019E+02  0.31886041869E+02  0.00000000000E+00 0.  1.
         11    1    3    3    0    0  0.42326586829E+01 -0.25887308967E+01 -0.21495067425E+01  0.54071532879E+01  0.51100000000E-03 0. -1.
        -11    1    3    3    0    0  0.21304405123E+02 -0.27326713655E+02 -0.59072601241E+00  0.34655099398E+02  0.51100000000E-03 0.  1.
        -12    1    3    3    0    0 -0.10685453859E+01  0.12966136831E+02  0.14174052774E+02  0.19239705444E+02  0.00000000000E+00 0.  1.
</event>
<event>
 7    1  0.1324280E-011  0.5930194E+02  0.7816164E-02  0.1266605E+00
        -11   -1    0    0    0    0  0.00000000000E+00  0.00000000000E+00  0.45593999997E+02  0.45594000000E+02  0.51100000000E-03 0.  1.
         11   -1    0    0    0    0 -0.00000000000E+00 -0.00000000000E+00 -0.45593999997E+02  0.45594000000E+02  0.51100000000E-03 0. -1.
    9900012    2    1    2    0    0  0.10016972305E+02  0.17632459190E+02 -0.24606455615E+02  0.59301937070E+02  0.49999987311E+02 0.  0.
        -12    1    1    2    0    0 -0.10016972305E+02 -0.17632459190E+02  0.24606455615E+02  0.31886062930E+02  0.00000000000E+00 0.  1.
         11    1    3    3    0    0  0.90100812888E+01  0.20578007108E+01 -0.18093717587E+02  0.20317448781E+02  0.51100000000E-03 0.  1.
        -11    1    3    3    0    0 -0.11795891353E+01 -0.11291467372E+02 -0.33959265636E+01  0.11849936009E+02  0.51100000000E-03 0. -1.
        -12    1    3    3    0    0  0.21864801511E+01  0.26866125851E+02 -0.31168114648E+01  0.27134552279E+02  0.00000000000E+00 0.  1.
</event>
<event>
 7    1  0.1324280E-011  0.5930192E+02  0.7816164E-02  0.1266605E+00
        -11   -1    0    0    0    0  0.00000000000E+00  0.00000000000E+00  0.45593999997E+02  0.45594000000E+02  0.51100000000E-03 0. -1.
         11   -1    0    0    0    0 -0.00000000000E+00 -0.00000000000E+00 -0.45593999997E+02  0.45594000000E+02  0.51100000000E-03 0.  1.
    9900012    2    1    2    0    0  0.27596830023E+02 -0.14788194048E+02  0.60370587964E+01  0.59301924835E+02  0.49999964997E+02 0.  0.
        -12    1    1    2    0    0 -0.27596830023E+02  0.14788194048E+02 -0.60370587964E+01  0.31886075165E+02  0.00000000000E+00 0.  1.
         11    1    3    3    0    0  0.48221134152E+01  0.31660236566E+01  0.47208686777E+01  0.74540649927E+01  0.51100000000E-03 0. -1.
        -11    1    3    3    0    0  0.89295813286E+01 -0.10312299821E+02  0.21954552726E+02  0.25847308099E+02  0.51100000000E-03 0.  1.
        -12    1    3    3    0    0  0.13845135280E+02 -0.76419178832E+01 -0.20638362607E+02  0.26000551743E+02  0.00000000000E+00 0.  1.
</event>
<event>
 7    1  0.1324280E-011  0.5930198E+02  0.7816164E-02  0.1266605E+00
        -11   -1    0    0    0    0  0.00000000000E+00  0.00000000000E+00  0.45593999997E+02  0.45594000000E+02  0.51100000000E-03 0.  1.
         11   -1    0    0    0    0 -0.00000000000E+00 -0.00000000000E+00 -0.45593999997E+02  0.45594000000E+02  0.51100000000E-03 0. -1.
    9900012    2    1    2    0    0 -0.23185622319E+02  0.43465376490E+01 -0.21453507487E+02  0.59301977116E+02  0.50000060345E+02 0.  0.
        -12    1    1    2    0    0  0.23185622319E+02 -0.43465376490E+01  0.21453507487E+02  0.31886022884E+02  0.00000000000E+00 0.  1.
         11    1    3    3    0    0  0.48085693630E+00  0.22979155589E+01 -0.14823156561E+02  0.15007918243E+02  0.51100000000E-03 0. -1.
        -11    1    3    3    0    0 -0.11410109749E+02  0.91361032449E+00  0.15322454023E+02  0.19125974116E+02  0.51100000000E-03 0.  1.
         12    1    3    3    0    0 -0.12256369506E+02  0.11350117657E+01 -0.21952804950E+02  0.25168084757E+02  0.00000000000E+00 0. -1.
</event>
<event>
 7    1  0.1324280E-011  0.5930187E+02  0.7816164E-02  0.1266605E+00
        -11   -1    0    0    0    0  0.00000000000E+00  0.00000000000E+00  0.45593999997E+02  0.45594000000E+02  0.51100000000E-03 0.  1.
         11   -1    0    0    0    0 -0.00000000000E+00 -0.00000000000E+00 -0.45593999997E+02  0.45594000000E+02  0.51100000000E-03 0. -1.
    9900012    2    1    2    0    0  0.46436712049E+01  0.59101163215E+01 -0.30987607957E+02  0.59301874427E+02  0.49999873064E+02 0.  0.
        -12    1    1    2    0    0 -0.46436712049E+01 -0.59101163215E+01  0.30987607957E+02  0.31886125573E+02  0.00000000000E+00 0.  1.
         11    1    3    3    0    0  0.10897945325E+02  0.11966551629E+02 -0.34967588419E+02  0.38531750678E+02  0.51100000000E-03 0. -1.
        -11    1    3    3    0    0 -0.35329438484E+01  0.34192013274E+01 -0.53011146475E+01  0.72301069647E+01  0.51100000000E-03 0.  1.
        -12    1    3    3    0    0 -0.27213302719E+01 -0.94756366351E+01  0.92810951095E+01  0.13540016784E+02  0.00000000000E+00 0.  1.
</event>
<event>
 7    1  0.1324280E-011  0.5930191E+02  0.7816164E-02  0.1266605E+00
        -11   -1    0    0    0    0  0.00000000000E+00  0.00000000000E+00  0.45593999997E+02  0.45594000000E+02  0.51100000000E-03 0.  1.
         11   -1    0    0    0    0 -0.00000000000E+00 -0.00000000000E+00 -0.45593999997E+02  0.45594000000E+02  0.51100000000E-03 0. -1.
    9900012    2    1    2    0    0 -0.13101262619E+02  0.96080003811E+01 -0.27436578147E+02  0.59301912533E+02  0.49999942561E+02 0.  0.
        -12    1    1    2    0    0  0.13101262619E+02 -0.96080003811E+01  0.27436578147E+02  0.31886087467E+02  0.00000000000E+00 0.  1.
         11    1    3    3    0    0 -0.15668279534E+02  0.32702251420E+01 -0.10183291620E+02  0.18970734949E+02  0.51100000000E-03 0. -1.
        -11    1    3    3    0    0  0.13366344260E+02  0.84305819165E+01  0.40867020382E+01  0.16322836890E+02  0.51100000000E-03 0.  1.
         12    1    3    3    0    0 -0.10799327345E+02 -0.20928066774E+01 -0.21339988565E+02  0.24008340694E+02  0.00000000000E+00 0. -1.
</event>
<event>
 7    1  0.1324280E-011  0.5930193E+02  0.7816164E-02  0.1266605E+00
        -11   -1    0    0    0    0  0.00000000000E+00  0.00000000000E+00  0.45593999997E+02  0.45594000000E+02  0.51100000000E-03 0.  1.
         11   -1    0    0    0    0 -0.00000000000E+00 -0.00000000000E+00 -0.45593999997E+02  0.45594000000E+02  0.51100000000E-03 0. -1.
    9900012    2    1    2    0    0 -0.24521129315E+02 -0.71267462176E+01  0.19095688702E+02  0.59301927468E+02  0.49999969799E+02 0.  0.
        -12    1    1    2    0    0  0.24521129315E+02  0.71267462176E+01 -0.19095688702E+02  0.31886072532E+02  0.00000000000E+00 0.  1.
         11    1    3    3    0    0  0.90106665843E+01  0.15518481060E+01 -0.37612597182E+01  0.98867294777E+01  0.51100000000E-03 0. -1.
        -11    1    3    3    0    0 -0.89710452537E+01  0.48265998024E+01  0.18403272432E+02  0.21034641786E+02  0.51100000000E-03 0.  1.
        -12    1    3    3    0    0 -0.24560750646E+02 -0.13505194126E+02  0.44536759881E+01  0.28380556204E+02  0.00000000000E+00 0.  1.
</event>
<event>
 7    1  0.1324280E-011  0.5930194E+02  0.7816164E-02  0.1266605E+00
        -11   -1    0    0    0    0  0.00000000000E+00  0.00000000000E+00  0.45593999997E+02  0.45594000000E+02  0.51100000000E-03 0. -1.
         11   -1    0    0    0    0 -0.00000000000E+00 -0.00000000000E+00 -0.45593999997E+02  0.45594000000E+02  0.51100000000E-03 0.  1.
    9900012    2    1    2    0    0  0.23621905002E+02 -0.16875371409E+02  0.13188937934E+02  0.59301942860E+02  0.49999997870E+02 0.  0.
        -12    1    1    2    0    0 -0.23621905002E+02  0.16875371409E+02 -0.13188937934E+02  0.31886057140E+02  0.00000000000E+00 0.  1.
         11    1    3    3    0    0 -0.32337361248E+01  0.26883613298E-01  0.85061378505E+01  0.91001183205E+01  0.51100000000E-03 0. -1.
        -11    1    3    3    0    0  0.10924177002E+02 -0.27551241460E+02  0.81269157375E+01  0.30731991618E+02  0.51100000000E-03 0.  1.
         12    1    3    3    0    0  0.15931464125E+02  0.10648986438E+02 -0.34441156538E+01  0.19469832921E+02  0.00000000000E+00 0. -1.
</event>
<event>
 7    1  0.1324280E-011  0.5930193E+02  0.7816164E-02  0.1266605E+00
        -11   -1    0    0    0    0  0.00000000000E+00  0.00000000000E+00  0.45593999997E+02  0.45594000000E+02  0.51100000000E-03 0.  1.
         11   -1    0    0    0    0 -0.00000000000E+00 -0.00000000000E+00 -0.45593999997E+02  0.45594000000E+02  0.51100000000E-03 0. -1.
    9900012    2    1    2    0    0 -0.13383655621E+02  0.28356090127E+02 -0.57906222032E+01  0.59301931089E+02  0.49999976403E+02 0.  0.
        -12    1    1    2    0    0  0.13383655621E+02 -0.28356090127E+02  0.57906222032E+01  0.31886068911E+02  0.00000000000E+00 0.  1.
         11    1    3    3    0    0 -0.15061459506E+02  0.20814946857E+02 -0.10232068505E+02  0.27655104434E+02  0.51100000000E-03 0. -1.
        -11    1    3    3    0    0  0.79647023190E+01  0.82691278848E+01 -0.10413292598E+02  0.15500052323E+02  0.51100000000E-03 0.  1.
        -12    1    3    3    0    0 -0.62868984346E+01 -0.72798461501E+00  0.14854738901E+02  0.16146774332E+02  0.00000000000E+00 0.  1.
</event>
<event>
 7    1  0.1324280E-011  0.5930195E+02  0.7816164E-02  0.1266605E+00
        -11   -1    0    0    0    0  0.00000000000E+00  0.00000000000E+00  0.45593999997E+02  0.45594000000E+02  0.51100000000E-03 0.  1.
         11   -1    0    0    0    0 -0.00000000000E+00 -0.00000000000E+00 -0.45593999997E+02  0.45594000000E+02  0.51100000000E-03 0. -1.
    9900012    2    1    2    0    0 -0.23637950435E+02 -0.15274190137E+02 -0.14988886050E+02  0.59301948345E+02  0.50000007874E+02 0.  0.
        -12    1    1    2    0    0  0.23637950435E+02  0.15274190137E+02  0.14988886050E+02  0.31886051655E+02  0.00000000000E+00 0.  1.
         11    1    3    3    0    0 -0.74222246755E+01  0.27392038089E+01 -0.21763648670E+02  0.23157052064E+02  0.51100000000E-03 0. -1.
        -11    1    3    3    0    0 -0.21899426590E+02 -0.69378464583E+01  0.55714061466E+01  0.23638087173E+02  0.51100000000E-03 0.  1.
        -12    1    3    3    0    0  0.56837008304E+01 -0.11075547487E+02  0.12033564734E+01  0.12506809108E+02  0.00000000000E+00 0.  1.
</event>
<event>
 7    1  0.1324280E-011  0.5930213E+02  0.7816164E-02  0.1266604E+00
        -11   -1    0    0    0    0  0.00000000000E+00  0.00000000000E+00  0.45593999997E+02  0.45594000000E+02  0.51100000000E-03 0.  1.
         11   -1    0    0    0    0 -0.00000000000E+00 -0.00000000000E+00 -0.45593999997E+02  0.45594000000E+02  0.51100000000E-03 0. -1.
    9900012    2    1    2    0    0  0.10384607213E+01  0.29375722538E+02  0.12357082054E+02  0.59302126134E+02  0.50000332117E+02 0.  0.
        -12    1    1    2    0    0 -0.10384607213E+01 -0.29375722538E+02 -0.12357082054E+02  0.31885873866E+02  0.00000000000E+00 0.  1.
         11    1    3    3    0    0 -0.15699520745E+01  0.32163706063E+01 -0.26440989435E+01  0.44498369495E+01  0.51100000000E-03 0. -1.
        -11    1    3    3    0    0  0.13461929497E+02  0.34216083554E+02  0.31991112661E+01  0.36907969772E+02  0.51100000000E-03 0.  1.
        -12    1    3    3    0    0 -0.10853516702E+02 -0.80567316216E+01  0.11802069732E+02  0.17944319412E+02  0.00000000000E+00 0.  1.
</event>
<event>
 7    1  0.1324280E-011  0.5930199E+02  0.7816164E-02  0.1266605E+00
        -11   -1    0    0    0    0  0.00000000000E+00  0.00000000000E+00  0.45593999997E+02  0.45594000000E+02  0.51100000000E-03 0.  1.
         11   -1    0    0    0    0 -0.00000000000E+00 -0.00000000000E+00 -0.45593999997E+02  0.45594000000E+02  0.51100000000E-03 0. -1.
    9900012    2    1    2    0    0  0.19849037915E+02 -0.24637151788E+02 -0.39678901192E+01  0.59301988861E+02  0.50000081764E+02 0.  0.
        -12    1    1    2    0    0 -0.19849037915E+02  0.24637151788E+02  0.39678901192E+01  0.31886011139E+02  0.00000000000E+00 0.  1.
         11    1    3    3    0    0  0.39588797788E+01 -0.15189761330E+02 -0.10701312060E+02  0.18997885631E+02  0.51100000000E-03 0. -1.
        -11    1    3    3    0    0  0.42425529494E+01 -0.22103054896E+02  0.46089867455E+01  0.22973616397E+02  0.51100000000E-03 0.  1.
        -12    1    3    3    0    0  0.11647605187E+02  0.12655664438E+02  0.21244351954E+01  0.17330486833E+02  0.00000000000E+00 0.  1.
</event>
<event>
 7    1  0.1324280E-011  0.5930194E+02  0.7816164E-02  0.1266605E+00
        -11   -1    0    0    0    0  0.00000000000E+00  0.00000000000E+00  0.45593999997E+02  0.45594000000E+02  0.51100000000E-03 0.  1.
         11   -1    0    0    0    0 -0.00000000000E+00 -0.00000000000E+00 -0.45593999997E+02  0.45594000000E+02  0.51100000000E-03 0. -1.
    9900012    2    1    2    0    0  0.17344645261E+01 -0.78710451178E+01 -0.30850593517E+02  0.59301939742E+02  0.49999992184E+02 0.  0.
        -12    1    1    2    0    0 -0.17344645261E+01  0.78710451178E+01  0.30850593517E+02  0.31886060258E+02  0.00000000000E+00 0.  1.
         11    1    3    3    0    0  0.33845789652E+01 -0.13289630582E+02 -0.13468144333E+02  0.19221357076E+02  0.51100000000E-03 0. -1.
        -11    1    3    3    0    0 -0.15502137615E+02 -0.18562578876E+01 -0.18721339845E+02  0.24377254354E+02  0.51100000000E-03 0.  1.
        -12    1    3    3    0    0  0.13852023176E+02  0.72748433522E+01  0.13388906617E+01  0.15703328312E+02  0.00000000000E+00 0.  1.
</event>
<event>
 7    1  0.1324280E-011  0.5930192E+02  0.7816164E-02  0.1266605E+00
        -11   -1    0    0    0    0  0.00000000000E+00  0.00000000000E+00  0.45593999997E+02  0.45594000000E+02  0.51100000000E-03 0.  1.
         11   -1    0    0    0    0 -0.00000000000E+00 -0.00000000000E+00 -0.45593999997E+02  0.45594000000E+02  0.51100000000E-03 0. -1.
    9900012    2    1    2    0    0 -0.19903385627E+02 -0.17174375002E+02 -0.18044894058E+02  0.59301919688E+02  0.49999955610E+02 0.  0.
        -12    1    1    2    0    0  0.19903385627E+02  0.17174375002E+02  0.18044894058E+02  0.31886080312E+02  0.00000000000E+00 0.  1.
         11    1    3    3    0    0  0.72055260268E+01 -0.90155970565E+01 -0.20577039405E+02  0.23592692651E+02  0.51100000000E-03 0. -1.
        -11    1    3    3    0    0 -0.13971996717E+02 -0.76329335764E+01 -0.89408706378E+01  0.18259724403E+02  0.51100000000E-03 0.  1.
        -12    1    3    3    0    0 -0.13136914937E+02 -0.52584436917E+00  0.11473015985E+02  0.17449502634E+02  0.00000000000E+00 0.  1.
</event>
<event>
 7    1  0.1324280E-011  0.5930199E+02  0.7816164E-02  0.1266605E+00
        -11   -1    0    0    0    0  0.00000000000E+00  0.00000000000E+00  0.45593999997E+02  0.45594000000E+02  0.51100000000E-03 0. -1.
         11   -1    0    0    0    0 -0.00000000000E+00 -0.00000000000E+00 -0.45593999997E+02  0.45594000000E+02  0.51100000000E-03 0.  1.
    9900012    2    1    2    0    0  0.15066318924E+02  0.84273240061E+01  0.26808648079E+02  0.59301994172E+02  0.50000091451E+02 0.  0.
        -12    1    1    2    0    0 -0.15066318924E+02 -0.84273240061E+01 -0.26808648079E+02  0.31886005828E+02  0.00000000000E+00 0.  1.
         11    1    3    3    0    0 -0.95327845661E+01 -0.10757328386E+02  0.12137057009E+02  0.18812289832E+02  0.51100000000E-03 0. -1.
        -11    1    3    3    0    0 -0.25129906686E+01 -0.19918566194E+00 -0.20056146585E+01  0.32213797429E+01  0.51100000000E-03 0.  1.
         12    1    3    3    0    0  0.27112094159E+02  0.19383838054E+02  0.16677205728E+02  0.37268324598E+02  0.00000000000E+00 0. -1.
</event>
<event>
 7    1  0.1324280E-011  0.5930194E+02  0.7816164E-02  0.1266605E+00
        -11   -1    0    0    0    0  0.00000000000E+00  0.00000000000E+00  0.45593999997E+02  0.45594000000E+02  0.51100000000E-03 0. -1.
         11   -1    0    0    0    0 -0.00000000000E+00 -0.00000000000E+00 -0.45593999997E+02  0.45594000000E+02  0.51100000000E-03 0.  1.
    9900012    2    1    2    0    0  0.15396032466E+02 -0.10329887677E+02  0.25941792565E+02  0.59301937267E+02  0.49999987671E+02 0.  0.
        -12    1    1    2    0    0 -0.15396032466E+02  0.10329887677E+02 -0.25941792565E+02  0.31886062733E+02  0.00000000000E+00 0.  1.
         11    1    3    3    0    0  0.83810618107E+01  0.26528127126E+01  0.20911089200E+02  0.22683766534E+02  0.51100000000E-03 0. -1.
        -11    1    3    3    0    0  0.18520229074E+02 -0.99077350725E+01  0.10535856381E+02  0.23498220553E+02  0.51100000000E-03 0.  1.
        -12    1    3    3    0    0 -0.11505258419E+02 -0.30749653173E+01 -0.55051530164E+01  0.13119950180E+02  0.00000000000E+00 0.  1.
</event>
<event>
 7    1  0.1324280E-011  0.5930195E+02  0.7816164E-02  0.1266605E+00
        -11   -1    0    0    0    0  0.00000000000E+00  0.00000000000E+00  0.45593999997E+02  0.45594000000E+02  0.51100000000E-03 0.  1.
         11   -1    0    0    0    0 -0.00000000000E+00 -0.00000000000E+00 -0.45593999997E+02  0.45594000000E+02  0.51100000000E-03 0. -1.
    9900012    2    1    2    0    0 -0.22157772942E+02 -0.21969215299E+02  0.65655914766E+01  0.59301947970E+02  0.50000007190E+02 0.  0.
        -12    1    1    2    0    0  0.22157772942E+02  0.21969215299E+02 -0.65655914766E+01  0.31886052030E+02  0.00000000000E+00 0.  1.
         11    1    3    3    0    0 -0.88760332713E+01 -0.26570883845E+01  0.17427890307E+01  0.94276932058E+01  0.51100000000E-03 0. -1.
        -11    1    3    3    0    0 -0.10142909285E+02 -0.13593409844E+02  0.24130235175E+02  0.29494535931E+02  0.51100000000E-03 0.  1.
        -12    1    3    3    0    0 -0.31388303865E+01 -0.57187170700E+01 -0.19307432729E+02  0.20379718833E+02  0.00000000000E+00 0.  1.
</event>
<event>
 7    1  0.1324280E-011  0.5930175E+02  0.7816164E-02  0.1266605E+00
        -11   -1    0    0    0    0  0.00000000000E+00  0.00000000000E+00  0.45593999997E+02  0.45594000000E+02  0.51100000000E-03 0.  1.
         11   -1    0    0    0    0 -0.00000000000E+00 -0.00000000000E+00 -0.45593999997E+02  0.45594000000E+02  0.51100000000E-03 0. -1.
    9900012    2    1    2    0    0  0.18777974475E+02  0.66141712987E+01 -0.24907295265E+02  0.59301749910E+02  0.49999645975E+02 0.  0.
        -12    1    1    2    0    0 -0.18777974475E+02 -0.66141712987E+01  0.24907295265E+02  0.31886250090E+02  0.00000000000E+00 0.  1.
         11    1    3    3    0    0  0.18156127309E+02  0.14348353538E+02  0.12959773036E+01  0.23177570312E+02  0.51100000000E-03 0. -1.
        -11    1    3    3    0    0  0.26641071274E+01 -0.53283384253E+01  0.30559029147E+01  0.66953117960E+01  0.51100000000E-03 0.  1.
         12    1    3    3    0    0 -0.20422599614E+01 -0.24058438136E+01 -0.29259175483E+02  0.29428867803E+02  0.00000000000E+00 0. -1.
</event>
<event>
 7    1  0.1324280E-011  0.5930195E+02  0.7816164E-02  0.1266605E+00
        -11   -1    0    0    0    0  0.00000000000E+00  0.00000000000E+00  0.45593999997E+02  0.45594000000E+02  0.51100000000E-03 0.  1.
         11   -1    0    0    0    0 -0.00000000000E+00 -0.00000000000E+00 -0.45593999997E+02  0.45594000000E+02  0.51100000000E-03 0. -1.
    9900012    2    1    2    0    0 -0.31162403362E+02  0.66271617972E+01 -0.13058976788E+01  0.59301952494E+02  0.50000015441E+02 0.  0.
        -12    1    1    2    0    0  0.31162403362E+02 -0.66271617972E+01  0.13058976788E+01  0.31886047506E+02  0.00000000000E+00 0.  1.
         11    1    3    3    0    0  0.16249677986E+01 -0.14432059952E+01  0.24284139464E+01  0.32589198283E+01  0.51100000000E-03 0. -1.
        -11    1    3    3    0    0 -0.14345890653E+02  0.26641528597E+01  0.20469512694E+02  0.25137685638E+02  0.51100000000E-03 0.  1.
         12    1    3    3    0    0 -0.18441480508E+02  0.54062149326E+01 -0.24203824319E+02  0.30905347028E+02  0.00000000000E+00 0. -1.
</event>
<event>
 7    1  0.1324280E-011  0.5930201E+02  0.7816164E-02  0.1266605E+00
        -11   -1    0    0    0    0  0.00000000000E+00  0.00000000000E+00  0.45593999997E+02  0.45594000000E+02  0.51100000000E-03 0. -1.
         11   -1    0    0    0    0 -0.00000000000E+00 -0.00000000000E+00 -0.45593999997E+02  0.45594000000E+02  0.51100000000E-03 0.  1.
    9900012    2    1    2    0    0 -0.27502395305E+02  0.14006460889E+02  0.80095849691E+01  0.59302013337E+02  0.50000126403E+02 0.  0.
        -12    1    1    2    0    0  0.27502395305E+02 -0.14006460889E+02 -0.80095849691E+01  0.31885986663E+02  0.00000000000E+00 0.  1.
         11    1    3    3    0    0  0.86104544131E+01  0.10115648336E+02  0.18954836117E+01  0.13418611137E+02  0.51100000000E-03 0. -1.
        -11    1    3    3    0    0  0.16710902384E+01 -0.18261672991E+01  0.72413783538E+01  0.76527766407E+01  0.51100000000E-03 0.  1.
        -12    1    3    3    0    0 -0.37783939956E+02  0.57169798520E+01 -0.11272769964E+01  0.38230625559E+02  0.00000000000E+00 0.  1.
</event>
<event>
 7    1  0.1324280E-011  0.5930195E+02  0.7816164E-02  0.1266605E+00
        -11   -1    0    0    0    0  0.00000000000E+00  0.00000000000E+00  0.45593999997E+02  0.45594000000E+02  0.51100000000E-03 0. -1.
         11   -1    0    0    0    0 -0.00000000000E+00 -0.00000000000E+00 -0.45593999997E+02  0.45594000000E+02  0.51100000000E-03 0.  1.
    9900012    2    1    2    0    0  0.16329636348E+02 -0.24897470467E+02 -0.11409600241E+02  0.59301952321E+02  0.50000015125E+02 0.  0.
        -12    1    1    2    0    0 -0.16329636348E+02  0.24897470467E+02  0.11409600241E+02  0.31886047679E+02  0.00000000000E+00 0.  1.
         11    1    3    3    0    0 -0.17249723690E+01  0.28503891544E+01 -0.11064198855E+02  0.11554944594E+02  0.51100000000E-03 0. -1.
        -11    1    3    3    0    0  0.12082649460E+02  0.55487440932E+01 -0.35671156783E+01  0.13766019523E+02  0.51100000000E-03 0.  1.
         12    1    3    3    0    0  0.59719592569E+01 -0.33296603715E+02  0.32217142927E+01  0.33980988203E+02  0.00000000000E+00 0. -1.
</event>
<event>
 7    1  0.1324280E-011  0.5930194E+02  0.7816164E-02  0.1266605E+00
        -11   -1    0    0    0    0  0.00000000000E+00  0.00000000000E+00  0.45593999997E+02  0.45594000000E+02  0.51100000000E-03 0. -1.
         11   -1    0    0    0    0 -0.00000000000E+00 -0.00000000000E+00 -0.45593999997E+02  0.45594000000E+02  0.51100000000E-03 0.  1.
    9900012    2    1    2    0    0  0.31746097355E+02 -0.27615290115E+01  0.11314869794E+01  0.59301937174E+02  0.49999987501E+02 0.  0.
        -12    1    1    2    0    0 -0.31746097355E+02  0.27615290115E+01 -0.11314869794E+01  0.31886062826E+02  0.00000000000E+00 0.  1.
         11    1    3    3    0    0  0.19732601126E+02  0.79216169040E+01 -0.14761385727E+01  0.21314468018E+02  0.51100000000E-03 0. -1.
        -11    1    3    3    0    0  0.10967647929E+02 -0.10874649617E+02 -0.14298804317E+02  0.21047639073E+02  0.51100000000E-03 0.  1.
        -12    1    3    3    0    0  0.10458483001E+01  0.19150370174E+00  0.16906429869E+02  0.16939830083E+02  0.00000000000E+00 0.  1.
</event>
<event>
 7    1  0.1723525E-011  0.5930197E+02  0.7816164E-02  0.1266605E+00
        -11   -1    0    0    0    0  0.00000000000E+00  0.00000000000E+00  0.45593999997E+02  0.45594000000E+02  0.51100000000E-03 0. -1.
         11   -1    0    0    0    0 -0.00000000000E+00 -0.00000000000E+00 -0.45593999997E+02  0.45594000000E+02  0.51100000000E-03 0.  1.
    9900012    2    1    2    0    0  0.31682162942E+02 -0.20965758713E+01  0.29264264241E+01  0.59301967781E+02  0.50000043320E+02 0.  0.
        -12    1    1    2    0    0 -0.31682162942E+02  0.20965758713E+01 -0.29264264241E+01  0.31886032219E+02  0.00000000000E+00 0.  1.
         11    1    3    3    0    0  0.14105176512E+02  0.91157388990E+01 -0.52234324053E+01  0.17587977327E+02  0.51100000000E-03 0.  1.
        -11    1    3    3    0    0  0.19321422975E+02 -0.18132643939E+02  0.16119977354E+02  0.31015541783E+02  0.51100000000E-03 0. -1.
         12    1    3    3    0    0 -0.17444365447E+01  0.69203291687E+01 -0.79701185242E+01  0.10698448670E+02  0.00000000000E+00 0. -1.
</event>
<event>
 7    1  0.1324280E-011  0.5930194E+02  0.7816164E-02  0.1266605E+00
        -11   -1    0    0    0    0  0.00000000000E+00  0.00000000000E+00  0.45593999997E+02  0.45594000000E+02  0.51100000000E-03 0. -1.
         11   -1    0    0    0    0 -0.00000000000E+00 -0.00000000000E+00 -0.45593999997E+02  0.45594000000E+02  0.51100000000E-03 0.  1.
    9900012    2    1    2    0    0  0.25974109932E+02  0.94604017708E+01  0.15892357350E+02  0.59301943321E+02  0.49999998711E+02 0.  0.
        -12    1    1    2    0    0 -0.25974109932E+02 -0.94604017708E+01 -0.15892357350E+02  0.31886056679E+02  0.00000000000E+00 0.  1.
         11    1    3    3    0    0  0.14450312044E+01 -0.76260057957E+01 -0.32909647590E+01  0.84305710888E+01  0.51100000000E-03 0. -1.
        -11    1    3    3    0    0  0.46870574560E+01  0.19440382778E+02 -0.38652396787E+01  0.20367549391E+02  0.51100000000E-03 0.  1.
         12    1    3    3    0    0  0.19842021272E+02 -0.23539752118E+01  0.23048561787E+02  0.30503822841E+02  0.00000000000E+00 0. -1.
</event>
<event>
 7    1  0.1324280E-011  0.5930194E+02  0.7816164E-02  0.1266605E+00
        -11   -1    0    0    0    0  0.00000000000E+00  0.00000000000E+00  0.45593999997E+02  0.45594000000E+02  0.51100000000E-03 0.  1.
         11   -1    0    0    0    0 -0.00000000000E+00 -0.00000000000E+00 -0.45593999997E+02  0.45594000000E+02  0.51100000000E-03 0. -1.
    9900012    2    1    2    0    0 -0.21720091366E+02 -0.11920116948E+02 -0.20071601357E+02  0.59301941321E+02  0.49999995064E+02 0.  0.
        -12    1    1    2    0    0  0.21720091366E+02  0.11920116948E+02  0.20071601357E+02  0.31886058679E+02  0.00000000000E+00 0.  1.
         11    1    3    3    0    0  0.63900040294E+01  0.13412528066E+01 -0.15713001225E+02  0.17015566942E+02  0.51100000000E-03 0. -1.
        -11    1    3    3    0    0 -0.12720479740E+02 -0.15428604588E+02 -0.13620460639E+02  0.24194408293E+02  0.51100000000E-03 0.  1.
        -12    1    3    3    0    0 -0.15389615655E+02  0.21672348326E+01  0.92618605073E+01  0.18091966087E+02  0.00000000000E+00 0.  1.
</event>
<event>
 7    1  0.1324280E-011  0.5930194E+02  0.7816164E-02  0.1266605E+00
        -11   -1    0    0    0    0  0.00000000000E+00  0.00000000000E+00  0.45593999997E+02  0.45594000000E+02  0.51100000000E-03 0. -1.
         11   -1    0    0    0    0 -0.00000000000E+00 -0.00000000000E+00 -0.45593999997E+02  0.45594000000E+02  0.51100000000E-03 0.  1.
    9900012    2    1    2    0    0  0.18474924802E+02 -0.11203110105E+02  0.23449692299E+02  0.59301943621E+02  0.49999999259E+02 0.  0.
        -12    1    1    2    0    0 -0.18474924802E+02  0.11203110105E+02 -0.23449692299E+02  0.31886056379E+02  0.00000000000E+00 0.  1.
         11    1    3    3    0    0 -0.15451656750E+00  0.37229971360E+01  0.12160211019E+02  0.12718306308E+02  0.51100000000E-03 0.  1.
        -11    1    3    3    0    0  0.23998165403E+02 -0.13027538189E+02 -0.63609732626E+01  0.28037308628E+02  0.51100000000E-03 0. -1.
         12    1    3    3    0    0 -0.53687240331E+01 -0.18985690518E+01  0.17650454542E+02  0.18546328686E+02  0.00000000000E+00 0. -1.
</event>
<event>
 7    1  0.1324280E-011  0.5930193E+02  0.7816164E-02  0.1266605E+00
        -11   -1    0    0    0    0  0.00000000000E+00  0.00000000000E+00  0.45593999997E+02  0.45594000000E+02  0.51100000000E-03 0.  1.
         11   -1    0    0    0    0 -0.00000000000E+00 -0.00000000000E+00 -0.45593999997E+02  0.45594000000E+02  0.51100000000E-03 0. -1.
    9900012    2    1    2    0    0 -0.13537508204E+02 -0.26970369922E+02 -0.10298378651E+02  0.59301928042E+02  0.49999970846E+02 0.  0.
        -12    1    1    2    0    0  0.13537508204E+02  0.26970369922E+02  0.10298378651E+02  0.31886071958E+02  0.00000000000E+00 0.  1.
         11    1    3    3    0    0 -0.14397174300E+02 -0.21799011656E+02 -0.25696436542E+00  0.26125496511E+02  0.51100000000E-03 0. -1.
        -11    1    3    3    0    0  0.12845160829E+01 -0.16238121350E+02 -0.13935833666E+02  0.21436744780E+02  0.51100000000E-03 0.  1.
        -12    1    3    3    0    0 -0.42484998731E+00  0.11066763085E+02  0.38944193805E+01  0.11739686750E+02  0.00000000000E+00 0.  1.
</event>
<event>
 7    1  0.1324280E-011  0.5930195E+02  0.7816164E-02  0.1266605E+00
        -11   -1    0    0    0    0  0.00000000000E+00  0.00000000000E+00  0.45593999997E+02  0.45594000000E+02  0.51100000000E-03 0. -1.
         11   -1    0    0    0    0 -0.00000000000E+00 -0.00000000000E+00 -0.45593999997E+02  0.45594000000E+02  0.51100000000E-03 0.  1.
    9900012    2    1    2    0    0 -0.30224247518E+01 -0.24732073378E+02 -0.19897483777E+02  0.59301947162E+02  0.50000005715E+02 0.  0.
        -12    1    1    2    0    0  0.30224247518E+01  0.24732073378E+02  0.19897483777E+02  0.31886052838E+02  0.00000000000E+00 0.  1.
         11    1    3    3    0    0 -0.56176463079E+01 -0.29776915239E-01  0.37670139558E+00  0.56303411005E+01  0.51100000000E-03 0. -1.
        -11    1    3    3    0    0 -0.13663810605E+01 -0.35232036652E+02 -0.64425215313E+01  0.35842286308E+02  0.51100000000E-03 0.  1.
         12    1    3    3    0    0  0.39616026166E+01  0.10529740190E+02 -0.13831663642E+02  0.17829319753E+02  0.00000000000E+00 0. -1.
</event>
<event>
 7    1  0.1324280E-011  0.5930195E+02  0.7816164E-02  0.1266605E+00
        -11   -1    0    0    0    0  0.00000000000E+00  0.00000000000E+00  0.45593999997E+02  0.45594000000E+02  0.51100000000E-03 0. -1.
         11   -1    0    0    0    0 -0.00000000000E+00 -0.00000000000E+00 -0.45593999997E+02  0.45594000000E+02  0.51100000000E-03 0.  1.
    9900012    2    1    2    0    0  0.23917078550E+01  0.25659541253E+02  0.18777326779E+02  0.59301947803E+02  0.50000006885E+02 0.  0.
        -12    1    1    2    0    0 -0.23917078550E+01 -0.25659541253E+02 -0.18777326779E+02  0.31886052197E+02  0.00000000000E+00 0.  1.
         11    1    3    3    0    0 -0.14024948440E+02  0.10881367338E+02 -0.34615757007E+00  0.17754525034E+02  0.51100000000E-03 0.  1.
        -11    1    3    3    0    0  0.16814464400E+02  0.23086798697E+02  0.15111840277E+02  0.32312446579E+02  0.51100000000E-03 0. -1.
         12    1    3    3    0    0 -0.39780810558E+00 -0.83086247818E+01  0.40116440718E+01  0.92349761890E+01  0.00000000000E+00 0. -1.
</event>
<event>
 7    1  0.1324280E-011  0.5930196E+02  0.7816164E-02  0.1266605E+00
        -11   -1    0    0    0    0  0.00000000000E+00  0.00000000000E+00  0.45593999997E+02  0.45594000000E+02  0.51100000000E-03 0.  1.
         11   -1    0    0    0    0 -0.00000000000E+00 -0.00000000000E+00 -0.45593999997E+02  0.45594000000E+02  0.51100000000E-03 0. -1.
    9900012    2    1    2    0    0 -0.30512335736E+02  0.91044334680E+01  0.16810667978E+01  0.59301963457E+02  0.50000035434E+02 0.  0.
        -12    1    1    2    0    0  0.30512335736E+02 -0.91044334680E+01 -0.16810667978E+01  0.31886036543E+02  0.00000000000E+00 0.  1.
         11    1    3    3    0    0 -0.15965048878E+02  0.11587520844E+02  0.57479430500E+01  0.20547317941E+02  0.51100000000E-03 0. -1.
        -11    1    3    3    0    0 -0.21855535873E+01  0.25362764157E+01  0.15063628063E+02  0.15431209713E+02  0.51100000000E-03 0.  1.
         12    1    3    3    0    0 -0.12361733271E+02 -0.50193637914E+01 -0.19130504315E+02  0.23323435803E+02  0.00000000000E+00 0. -1.
</event>
<event>
 7    1  0.1324280E-011  0.5930194E+02  0.7816164E-02  0.1266605E+00
        -11   -1    0    0    0    0  0.00000000000E+00  0.00000000000E+00  0.45593999997E+02  0.45594000000E+02  0.51100000000E-03 0.  1.
         11   -1    0    0    0    0 -0.00000000000E+00 -0.00000000000E+00 -0.45593999997E+02  0.45594000000E+02  0.51100000000E-03 0. -1.
    9900012    2    1    2    0    0  0.31650153651E+02  0.38022777512E+01 -0.72909065062E+00  0.59301935404E+02  0.49999984272E+02 0.  0.
        -12    1    1    2    0    0 -0.31650153651E+02 -0.38022777512E+01  0.72909065062E+00  0.31886064596E+02  0.00000000000E+00 0.  1.
         11    1    3    3    0    0  0.89293225515E+01  0.12935210364E+01 -0.63562882862E+01  0.11036684237E+02  0.51100000000E-03 0. -1.
        -11    1    3    3    0    0 -0.12642389580E+01 -0.11811059854E+02 -0.10633422211E+02  0.15942681807E+02  0.51100000000E-03 0.  1.
        -12    1    3    3    0    0  0.23985070058E+02  0.14319816569E+02  0.16260619847E+02  0.32322569360E+02  0.00000000000E+00 0.  1.
</event>
<event>
 7    1  0.1324280E-011  0.5930192E+02  0.7816164E-02  0.1266605E+00
        -11   -1    0    0    0    0  0.00000000000E+00  0.00000000000E+00  0.45593999997E+02  0.45594000000E+02  0.51100000000E-03 0. -1.
         11   -1    0    0    0    0 -0.00000000000E+00 -0.00000000000E+00 -0.45593999997E+02  0.45594000000E+02  0.51100000000E-03 0.  1.
    9900012    2    1    2    0    0 -0.26190538245E+02  0.18128644973E+02  0.14595723764E+01  0.59301915047E+02  0.49999947146E+02 0.  0.
        -12    1    1    2    0    0  0.26190538245E+02 -0.18128644973E+02 -0.14595723764E+01  0.31886084953E+02  0.00000000000E+00 0.  1.
         11    1    3    3    0    0 -0.20181805081E+02  0.20955249386E+02 -0.23050806519E+01  0.29184604335E+02  0.51100000000E-03 0. -1.
        -11    1    3    3    0    0  0.85482639656E+01  0.75444087457E+01 -0.14632679943E+01  0.11494871623E+02  0.51100000000E-03 0.  1.
        -12    1    3    3    0    0 -0.14556997130E+02 -0.10371013159E+02  0.52279210226E+01  0.18622439088E+02  0.00000000000E+00 0.  1.
</event>
<event>
 7    1  0.1324280E-011  0.5930190E+02  0.7816164E-02  0.1266605E+00
        -11   -1    0    0    0    0  0.00000000000E+00  0.00000000000E+00  0.45593999997E+02  0.45594000000E+02  0.51100000000E-03 0.  1.
         11   -1    0    0    0    0 -0.00000000000E+00 -0.00000000000E+00 -0.45593999997E+02  0.45594000000E+02  0.51100000000E-03 0. -1.
    9900012    2    1    2    0    0  0.82326225745E+01 -0.13209284298E+02 -0.27829159299E+02  0.59301899997E+02  0.49999919698E+02 0.  0.
        -12    1    1    2    0    0 -0.82326225745E+01  0.13209284298E+02  0.27829159299E+02  0.31886100003E+02  0.00000000000E+00 0.  1.
         11    1    3    3    0    0  0.18055041922E+02 -0.50003290734E+01  0.26033624672E+01  0.18914685460E+02  0.51100000000E-03 0. -1.
        -11    1    3    3    0    0  0.21380027557E+01  0.45958687426E+01  0.22712045485E+00  0.50739185296E+01  0.51100000000E-03 0.  1.
         12    1    3    3    0    0 -0.11960422103E+02 -0.12804823967E+02 -0.30659642221E+02  0.35313296007E+02  0.00000000000E+00 0. -1.
</event>
<event>
 7    1  0.1324280E-011  0.5930196E+02  0.7816164E-02  0.1266605E+00
        -11   -1    0    0    0    0  0.00000000000E+00  0.00000000000E+00  0.45593999997E+02  0.45594000000E+02  0.51100000000E-03 0.  1.
         11   -1    0    0    0    0 -0.00000000000E+00 -0.00000000000E+00 -0.45593999997E+02  0.45594000000E+02  0.51100000000E-03 0. -1.
    9900012    2    1    2    0    0 -0.22468127982E+02  0.82032591592E+01 -0.21085763132E+02  0.59301958497E+02  0.50000026389E+02 0.  0.
        -12    1    1    2    0    0  0.22468127982E+02 -0.82032591592E+01  0.21085763132E+02  0.31886041503E+02  0.00000000000E+00 0.  1.
         11    1    3    3    0    0 -0.31536201339E+02 -0.31621485601E+00 -0.17240070395E+02  0.35942342915E+02  0.51100000000E-03 0. -1.
        -11    1    3    3    0    0 -0.36851916685E+01  0.28479156339E+01  0.50016017255E+01  0.68342725416E+01  0.51100000000E-03 0.  1.
         12    1    3    3    0    0  0.12753265026E+02  0.56715583812E+01 -0.88472944631E+01  0.16525343040E+02  0.00000000000E+00 0. -1.
</event>
<event>
 7    1  0.1324280E-011  0.5930194E+02  0.7816164E-02  0.1266605E+00
        -11   -1    0    0    0    0  0.00000000000E+00  0.00000000000E+00  0.45593999997E+02  0.45594000000E+02  0.51100000000E-03 0.  1.
         11   -1    0    0    0    0 -0.00000000000E+00 -0.00000000000E+00 -0.45593999997E+02  0.45594000000E+02  0.51100000000E-03 0. -1.
    9900012    2    1    2    0    0 -0.22636049306E+02 -0.20165070080E+02 -0.98843222075E+01  0.59301943408E+02  0.49999998869E+02 0.  0.
        -12    1    1    2    0    0  0.22636049306E+02  0.20165070080E+02  0.98843222075E+01  0.31886056592E+02  0.00000000000E+00 0.  1.
         11    1    3    3    0    0 -0.22697003509E+02 -0.18131657334E+02  0.18895170601E+00  0.29050760213E+02  0.51100000000E-03 0. -1.
        -11    1    3    3    0    0  0.25247118755E+01 -0.91737274895E+01  0.68464376157E+01  0.11721994472E+02  0.51100000000E-03 0.  1.
         12    1    3    3    0    0 -0.24637576720E+01  0.71403147428E+01 -0.16919711529E+02  0.18529188723E+02  0.00000000000E+00 0. -1.
</event>
<event>
 7    1  0.1324280E-011  0.5930194E+02  0.7816164E-02  0.1266605E+00
        -11   -1    0    0    0    0  0.00000000000E+00  0.00000000000E+00  0.45593999997E+02  0.45594000000E+02  0.51100000000E-03 0.  1.
         11   -1    0    0    0    0 -0.00000000000E+00 -0.00000000000E+00 -0.45593999997E+02  0.45594000000E+02  0.51100000000E-03 0. -1.
    9900012    2    1    2    0    0  0.18213628452E+02  0.37235316063E+01 -0.25905984478E+02  0.59301937515E+02  0.49999988122E+02 0.  0.
        -12    1    1    2    0    0 -0.18213628452E+02 -0.37235316063E+01  0.25905984478E+02  0.31886062485E+02  0.00000000000E+00 0.  1.
         11    1    3    3    0    0  0.10595972041E+02 -0.44904883121E+01 -0.31209674816E+02  0.33263837889E+02  0.51100000000E-03 0. -1.
        -11    1    3    3    0    0  0.12678186815E+02 -0.31232772905E+01  0.22089634391E+01  0.13242764126E+02  0.51100000000E-03 0.  1.
         12    1    3    3    0    0 -0.50605304043E+01  0.11337297209E+02  0.30947268983E+01  0.12795335500E+02  0.00000000000E+00 0. -1.
</event>
<event>
 7    1  0.1324280E-011  0.5930195E+02  0.7816164E-02  0.1266605E+00
        -11   -1    0    0    0    0  0.00000000000E+00  0.00000000000E+00  0.45593999997E+02  0.45594000000E+02  0.51100000000E-03 0. -1.
         11   -1    0    0    0    0 -0.00000000000E+00 -0.00000000000E+00 -0.45593999997E+02  0.45594000000E+02  0.51100000000E-03 0.  1.
    9900012    2    1    2    0    0  0.13049575054E+02  0.20676418738E+01  0.29019888308E+02  0.59301945534E+02  0.50000002746E+02 0.  0.
        -12    1    1    2    0    0 -0.13049575054E+02 -0.20676418738E+01 -0.29019888308E+02  0.31886054466E+02  0.00000000000E+00 0.  1.
         11    1    3    3    0    0  0.89942834060E+01 -0.96895155506E+01 -0.21126092186E+00  0.13222272007E+02  0.51100000000E-03 0. -1.
        -11    1    3    3    0    0  0.27828957179E+01 -0.11478498525E+01 -0.69881484274E+01  0.76089609386E+01  0.51100000000E-03 0.  1.
        -12    1    3    3    0    0  0.12723959305E+01  0.12905007277E+02  0.36219297657E+02  0.38470712588E+02  0.00000000000E+00 0.  1.
</event>
<event>
 7    1  0.1324280E-011  0.5930192E+02  0.7816164E-02  0.1266605E+00
        -11   -1    0    0    0    0  0.00000000000E+00  0.00000000000E+00  0.45593999997E+02  0.45594000000E+02  0.51100000000E-03 0. -1.
         11   -1    0    0    0    0 -0.00000000000E+00 -0.00000000000E+00 -0.45593999997E+02  0.45594000000E+02  0.51100000000E-03 0.  1.
    9900012    2    1    2    0    0 -0.28567568859E+02 -0.14083767285E+02  0.15046305678E+01  0.59301915189E+02  0.49999947405E+02 0.  0.
        -12    1    1    2    0    0  0.28567568859E+02  0.14083767285E+02 -0.15046305678E+01  0.31886084811E+02  0.00000000000E+00 0.  1.
         11    1    3    3    0    0 -0.20822478702E+02 -0.19407202695E+02 -0.12507044100E+02  0.31090855378E+02  0.51100000000E-03 0. -1.
        -11    1    3    3    0    0 -0.56896341026E+01  0.31213676132E+01 -0.54764215173E+01  0.84915290080E+01  0.51100000000E-03 0.  1.
         12    1    3    3    0    0 -0.20554560541E+01  0.22020677967E+01  0.19488096185E+02  0.19719530803E+02  0.00000000000E+00 0. -1.
</event>
<event>
 7    1  0.1324280E-011  0.5930195E+02  0.7816164E-02  0.1266605E+00
        -11   -1    0    0    0    0  0.00000000000E+00  0.00000000000E+00  0.45593999997E+02  0.45594000000E+02  0.51100000000E-03 0. -1.
         11   -1    0    0    0    0 -0.00000000000E+00 -0.00000000000E+00 -0.45593999997E+02  0.45594000000E+02  0.51100000000E-03 0.  1.
    9900012    2    1    2    0    0 -0.16541949765E+02 -0.25385397563E+02  0.99330532651E+01  0.59301951975E+02  0.50000014495E+02 0.  0.
        -12    1    1    2    0    0  0.16541949765E+02  0.25385397563E+02 -0.99330532651E+01  0.31886048025E+02  0.00000000000E+00 0.  1.
         11    1    3    3    0    0 -0.17695976378E+02 -0.38375256171E+02  0.11770499679E+02  0.43867442701E+02  0.51100000000E-03 0. -1.
        -11    1    3    3    0    0 -0.64235782874E+00 -0.49287542406E+00 -0.16425182532E+01  0.18312335288E+01  0.51100000000E-03 0.  1.
        -12    1    3    3    0    0  0.17963844423E+01  0.13482734032E+02 -0.19492816095E+00  0.13603275746E+02  0.00000000000E+00 0.  1.
</event>
<event>
 7    1  0.1324280E-011  0.5930212E+02  0.7816164E-02  0.1266604E+00
        -11   -1    0    0    0    0  0.00000000000E+00  0.00000000000E+00  0.45593999997E+02  0.45594000000E+02  0.51100000000E-03 0. -1.
         11   -1    0    0    0    0 -0.00000000000E+00 -0.00000000000E+00 -0.45593999997E+02  0.45594000000E+02  0.51100000000E-03 0.  1.
    9900012    2    1    2    0    0 -0.29296813987E+02 -0.10131064383E+02  0.74677776584E+01  0.59302117882E+02  0.50000317067E+02 0.  0.
        -12    1    1    2    0    0  0.29296813987E+02  0.10131064383E+02 -0.74677776584E+01  0.31885882118E+02  0.00000000000E+00 0.  1.
         11    1    3    3    0    0 -0.11068733302E+02  0.14667278565E+02  0.10866655507E+02  0.21347836414E+02  0.51100000000E-03 0. -1.
        -11    1    3    3    0    0 -0.32380905024E+01  0.29271737257E+01 -0.46932752242E+01  0.64094000275E+01  0.51100000000E-03 0.  1.
         12    1    3    3    0    0 -0.14989990182E+02 -0.27725516674E+02  0.12943973760E+01  0.31544881440E+02  0.00000000000E+00 0. -1.
</event>
<event>
 7    1  0.1324280E-011  0.5930194E+02  0.7816164E-02  0.1266605E+00
        -11   -1    0    0    0    0  0.00000000000E+00  0.00000000000E+00  0.45593999997E+02  0.45594000000E+02  0.51100000000E-03 0. -1.
         11   -1    0    0    0    0 -0.00000000000E+00 -0.00000000000E+00 -0.45593999997E+02  0.45594000000E+02  0.51100000000E-03 0.  1.
    9900012    2    1    2    0    0  0.19329224214E+02 -0.17380337741E+02  0.18466880469E+02  0.59301941558E+02  0.49999995496E+02 0.  0.
        -12    1    1    2    0    0 -0.19329224214E+02  0.17380337741E+02 -0.18466880469E+02  0.31886058442E+02  0.00000000000E+00 0.  1.
         11    1    3    3    0    0  0.98129938290E+01 -0.10725902905E+02  0.14109581865E+02  0.20258828734E+02  0.51100000000E-03 0. -1.
        -11    1    3    3    0    0  0.16076024732E+01  0.20689511928E+01  0.19604388102E+02  0.19778700105E+02  0.51100000000E-03 0.  1.
        -12    1    3    3    0    0  0.79086279114E+01 -0.87233860290E+01 -0.15247089497E+02  0.19264412719E+02  0.00000000000E+00 0.  1.
</event>
<event>
 7    1  0.1324280E-011  0.5930191E+02  0.7816164E-02  0.1266605E+00
        -11   -1    0    0    0    0  0.00000000000E+00  0.00000000000E+00  0.45593999997E+02  0.45594000000E+02  0.51100000000E-03 0.  1.
         11   -1    0    0    0    0 -0.00000000000E+00 -0.00000000000E+00 -0.45593999997E+02  0.45594000000E+02  0.51100000000E-03 0. -1.
    9900012    2    1    2    0    0 -0.69520511046E+01 -0.19136099010E+02 -0.24539791390E+02  0.59301911162E+02  0.49999940061E+02 0.  0.
        -12    1    1    2    0    0  0.69520511046E+01  0.19136099010E+02  0.24539791390E+02  0.31886088838E+02  0.00000000000E+00 0.  1.
         11    1    3    3    0    0  0.18327695555E+01  0.63884778346E+01  0.32439729965E+01  0.73956104785E+01  0.51100000000E-03 0. -1.
        -11    1    3    3    0    0  0.33549261845E+01 -0.36823780911E+01  0.72970017958E+01  0.88352517552E+01  0.51100000000E-03 0.  1.
         12    1    3    3    0    0 -0.12139746845E+02 -0.21842198754E+02 -0.35080766183E+02  0.43071048929E+02  0.00000000000E+00 0. -1.
</event>
<event>
 7    1  0.1324280E-011  0.5930195E+02  0.7816164E-02  0.1266605E+00
        -11   -1    0    0    0    0  0.00000000000E+00  0.00000000000E+00  0.45593999997E+02  0.45594000000E+02  0.51100000000E-03 0.  1.
         11   -1    0    0    0    0 -0.00000000000E+00 -0.00000000000E+00 -0.45593999997E+02  0.45594000000E+02  0.51100000000E-03 0. -1.
    9900012    2    1    2    0    0  0.67736647285E+01 -0.24314422504E+02  0.19484512086E+02  0.59301954670E+02  0.50000019409E+02 0.  0.
        -12    1    1    2    0    0 -0.67736647285E+01  0.24314422504E+02 -0.19484512086E+02  0.31886045330E+02  0.00000000000E+00 0.  1.
         11    1    3    3    0    0  0.11266625923E+02 -0.12383529627E+02 -0.62161021636E+01  0.17858571949E+02  0.51100000000E-03 0. -1.
        -11    1    3    3    0    0  0.23816708876E+01 -0.16267928000E+02  0.22137068177E+01  0.16589705717E+02  0.51100000000E-03 0.  1.
        -12    1    3    3    0    0 -0.68746320817E+01  0.43370351227E+01  0.23486907432E+02  0.24853677004E+02  0.00000000000E+00 0.  1.
</event>
<event>
 7    1  0.1324280E-011  0.5930195E+02  0.7816164E-02  0.1266605E+00
        -11   -1    0    0    0    0  0.00000000000E+00  0.00000000000E+00  0.45593999997E+02  0.45594000000E+02  0.51100000000E-03 0.  1.
         11   -1    0    0    0    0 -0.00000000000E+00 -0.00000000000E+00 -0.45593999997E+02  0.45594000000E+02  0.51100000000E-03 0. -1.
    9900012    2    1    2    0    0  0.26396821382E+01  0.31673591430E+02 -0.25565523014E+01  0.59301948574E+02  0.50000008291E+02 0.  0.
        -12    1    1    2    0    0 -0.26396821382E+01 -0.31673591430E+02  0.25565523014E+01  0.31886051426E+02  0.00000000000E+00 0.  1.
         11    1    3    3    0    0 -0.10725409011E+02 -0.10909098674E+01 -0.17857977524E+01  0.10927651013E+02  0.51100000000E-03 0. -1.
        -11    1    3    3    0    0  0.17895557985E+01  0.27008240614E+02  0.12529182760E+02  0.29826632259E+02  0.51100000000E-03 0.  1.
        -12    1    3    3    0    0  0.11575535351E+02  0.57562606837E+01 -0.13299937309E+02  0.18547665302E+02  0.00000000000E+00 0.  1.
</event>
<event>
 7    1  0.1324280E-011  0.5930192E+02  0.7816164E-02  0.1266605E+00
        -11   -1    0    0    0    0  0.00000000000E+00  0.00000000000E+00  0.45593999997E+02  0.45594000000E+02  0.51100000000E-03 0.  1.
         11   -1    0    0    0    0 -0.00000000000E+00 -0.00000000000E+00 -0.45593999997E+02  0.45594000000E+02  0.51100000000E-03 0. -1.
    9900012    2    1    2    0    0 -0.30731081369E+02 -0.79465621282E+01  0.30289635869E+01  0.59301924165E+02  0.49999963775E+02 0.  0.
        -12    1    1    2    0    0  0.30731081369E+02  0.79465621282E+01 -0.30289635869E+01  0.31886075835E+02  0.00000000000E+00 0.  1.
         11    1    3    3    0    0 -0.32354102250E+02 -0.82482088031E+01  0.88052240061E+01  0.34530462651E+02  0.51100000000E-03 0. -1.
        -11    1    3    3    0    0 -0.39584208560E+01 -0.79745295330E+01 -0.10467621114E+02  0.13741663254E+02  0.51100000000E-03 0.  1.
        -12    1    3    3    0    0  0.55814417370E+01  0.82761762079E+01  0.46913606946E+01  0.11029798260E+02  0.00000000000E+00 0.  1.
</event>
<event>
 7    1  0.1324280E-011  0.5930193E+02  0.7816164E-02  0.1266605E+00
        -11   -1    0    0    0    0  0.00000000000E+00  0.00000000000E+00  0.45593999997E+02  0.45594000000E+02  0.51100000000E-03 0.  1.
         11   -1    0    0    0    0 -0.00000000000E+00 -0.00000000000E+00 -0.45593999997E+02  0.45594000000E+02  0.51100000000E-03 0. -1.
    9900012    2    1    2    0    0 -0.43095401048E+01 -0.11951724650E+02 -0.29245613244E+02  0.59301925421E+02  0.49999966066E+02 0.  0.
        -12    1    1    2    0    0  0.43095401048E+01  0.11951724650E+02  0.29245613244E+02  0.31886074579E+02  0.00000000000E+00 0.  1.
         11    1    3    3    0    0 -0.53359215570E+01 -0.23526858732E+02 -0.29542899351E+02  0.38141421618E+02  0.51100000000E-03 0. -1.
        -11    1    3    3    0    0 -0.73679563250E+01  0.88442993279E+00  0.12886198576E+01  0.75319013610E+01  0.51100000000E-03 0.  1.
        -12    1    3    3    0    0  0.83943377772E+01  0.10690704150E+02 -0.99133374999E+00  0.13628602443E+02  0.00000000000E+00 0.  1.
</event>
<event>
 7    1  0.1324280E-011  0.5930202E+02  0.7816164E-02  0.1266605E+00
        -11   -1    0    0    0    0  0.00000000000E+00  0.00000000000E+00  0.45593999997E+02  0.45594000000E+02  0.51100000000E-03 0. -1.
         11   -1    0    0    0    0 -0.00000000000E+00 -0.00000000000E+00 -0.45593999997E+02  0.45594000000E+02  0.51100000000E-03 0.  1.
    9900012    2    1    2    0    0 -0.78354349528E+01 -0.29772649274E+02  0.83012801299E+01  0.59302016598E+02  0.50000132351E+02 0.  0.
        -12    1    1    2    0    0  0.78354349528E+01  0.29772649274E+02 -0.83012801299E+01  0.31885983402E+02  0.00000000000E+00 0.  1.
         11    1    3    3    0    0  0.69283363349E+01  0.53843751056E+00  0.51349282554E+01  0.86405583020E+01  0.51100000000E-03 0. -1.
        -11    1    3    3    0    0  0.34806405229E+01  0.12020330522E+01 -0.10991969471E+02  0.11592374003E+02  0.51100000000E-03 0.  1.
         12    1    3    3    0    0 -0.18244411811E+02 -0.31513119837E+02  0.14158321346E+02  0.39069084293E+02  0.00000000000E+00 0. -1.
</event>
<event>
 7    1  0.1324280E-011  0.5930195E+02  0.7816164E-02  0.1266605E+00
        -11   -1    0    0    0    0  0.00000000000E+00  0.00000000000E+00  0.45593999997E+02  0.45594000000E+02  0.51100000000E-03 0.  1.
         11   -1    0    0    0    0 -0.00000000000E+00 -0.00000000000E+00 -0.45593999997E+02  0.45594000000E+02  0.51100000000E-03 0. -1.
    9900012    2    1    2    0    0  0.28434007464E+02 -0.14263546625E+02 -0.21859707711E+01  0.59301952722E+02  0.50000015856E+02 0.  0.
        -12    1    1    2    0    0 -0.28434007464E+02  0.14263546625E+02  0.21859707711E+01  0.31886047278E+02  0.00000000000E+00 0.  1.
         11    1    3    3    0    0  0.83623619638E+01  0.73668394636E+00 -0.19055267761E+02  0.20822464564E+02  0.51100000000E-03 0. -1.
        -11    1    3    3    0    0  0.68550456135E+01  0.56094863193E+01  0.19952927622E+00  0.88598983811E+01  0.51100000000E-03 0.  1.
         12    1    3    3    0    0  0.13216599887E+02 -0.20609716891E+02  0.16669767713E+02  0.29619589776E+02  0.00000000000E+00 0. -1.
</event>
<event>
 7    1  0.1324280E-011  0.5930200E+02  0.7816164E-02  0.1266605E+00
        -11   -1    0    0    0    0  0.00000000000E+00  0.00000000000E+00  0.45593999997E+02  0.45594000000E+02  0.51100000000E-03 0. -1.
         11   -1    0    0    0    0 -0.00000000000E+00 -0.00000000000E+00 -0.45593999997E+02  0.45594000000E+02  0.51100000000E-03 0.  1.
    9900012    2    1    2    0    0  0.31345778214E+01  0.31092285746E+02  0.63372848507E+01  0.59302000089E+02  0.50000102243E+02 0.  0.
        -12    1    1    2    0    0 -0.31345778214E+01 -0.31092285746E+02 -0.63372848507E+01  0.31885999911E+02  0.00000000000E+00 0.  1.
         11    1    3    3    0    0 -0.13501384619E+02  0.11918859405E+02  0.16502004405E+02  0.24426681023E+02  0.51100000000E-03 0. -1.
        -11    1    3    3    0    0  0.11950709166E+02  0.19052304664E+02  0.12611545119E+01  0.22525547131E+02  0.51100000000E-03 0.  1.
        -12    1    3    3    0    0  0.46852532739E+01  0.12112167640E+00 -0.11425874066E+02  0.12349771936E+02  0.00000000000E+00 0.  1.
</event>
<event>
 7    1  0.1324280E-011  0.5930161E+02  0.7816164E-02  0.1266606E+00
        -11   -1    0    0    0    0  0.00000000000E+00  0.00000000000E+00  0.45593999997E+02  0.45594000000E+02  0.51100000000E-03 0.  1.
         11   -1    0    0    0    0 -0.00000000000E+00 -0.00000000000E+00 -0.45593999997E+02  0.45594000000E+02  0.51100000000E-03 0. -1.
    9900012    2    1    2    0    0  0.50018863845E+01 -0.51386394665E+01 -0.31069559675E+02  0.59301607583E+02  0.49999386401E+02 0.  0.
        -12    1    1    2    0    0 -0.50018863845E+01  0.51386394665E+01  0.31069559675E+02  0.31886392417E+02  0.00000000000E+00 0.  1.
         11    1    3    3    0    0 -0.77420219970E+01  0.92716322643E+01 -0.31614898361E+02  0.33843815803E+02  0.51100000000E-03 0. -1.
        -11    1    3    3    0    0  0.23788932254E+01 -0.24974027693E+01 -0.71150498132E+01  0.79069645045E+01  0.51100000000E-03 0.  1.
        -12    1    3    3    0    0  0.10365015156E+02 -0.11912868962E+02  0.76603884994E+01  0.17550827275E+02  0.00000000000E+00 0.  1.
</event>
<event>
 7    1  0.1324280E-011  0.5930194E+02  0.7816164E-02  0.1266605E+00
        -11   -1    0    0    0    0  0.00000000000E+00  0.00000000000E+00  0.45593999997E+02  0.45594000000E+02  0.51100000000E-03 0. -1.
         11   -1    0    0    0    0 -0.00000000000E+00 -0.00000000000E+00 -0.45593999997E+02  0.45594000000E+02  0.51100000000E-03 0.  1.
    9900012    2    1    2    0    0  0.73073242464E-01 -0.25631315495E+02  0.18967106911E+02  0.59301940063E+02  0.49999992770E+02 0.  0.
        -12    1    1    2    0    0 -0.73073242464E-01  0.25631315495E+02 -0.18967106911E+02  0.31886059937E+02  0.00000000000E+00 0.  1.
         11    1    3    3    0    0 -0.69573043648E+01 -0.15151749843E+01  0.16394701371E+02  0.17874173339E+02  0.51100000000E-03 0. -1.
        -11    1    3    3    0    0 -0.10548110160E+02  0.11041374909E+01  0.71063314746E+00  0.10629522438E+02  0.51100000000E-03 0.  1.
        -12    1    3    3    0    0  0.17578487767E+02 -0.25220278002E+02  0.18617723931E+01  0.30798244286E+02  0.00000000000E+00 0.  1.
</event>
<event>
 7    1  0.1324280E-011  0.5930194E+02  0.7816164E-02  0.1266605E+00
        -11   -1    0    0    0    0  0.00000000000E+00  0.00000000000E+00  0.45593999997E+02  0.45594000000E+02  0.51100000000E-03 0.  1.
         11   -1    0    0    0    0 -0.00000000000E+00 -0.00000000000E+00 -0.45593999997E+02  0.45594000000E+02  0.51100000000E-03 0. -1.
    9900012    2    1    2    0    0 -0.31204650089E+02  0.42035060786E+01  0.50319981970E+01  0.59301942602E+02  0.49999997400E+02 0.  0.
        -12    1    1    2    0    0  0.31204650089E+02 -0.42035060786E+01 -0.50319981970E+01  0.31886057398E+02  0.00000000000E+00 0.  1.
         11    1    3    3    0    0 -0.30083125176E+02  0.14673243373E+02  0.46268773847E+01  0.33789147459E+02  0.51100000000E-03 0. -1.
        -11    1    3    3    0    0 -0.10869233596E+02 -0.61996323077E+01 -0.51224252319E+01  0.13520906783E+02  0.51100000000E-03 0.  1.
         12    1    3    3    0    0  0.97477086830E+01 -0.42701049870E+01  0.55275460443E+01  0.11991888360E+02  0.00000000000E+00 0. -1.
</event>
<event>
 7    1  0.1324280E-011  0.5930192E+02  0.7816164E-02  0.1266605E+00
        -11   -1    0    0    0    0  0.00000000000E+00  0.00000000000E+00  0.45593999997E+02  0.45594000000E+02  0.51100000000E-03 0. -1.
         11   -1    0    0    0    0 -0.00000000000E+00 -0.00000000000E+00 -0.45593999997E+02  0.45594000000E+02  0.51100000000E-03 0.  1.
    9900012    2    1    2    0    0 -0.48783276319E+01 -0.13077379468E+02  0.28668904277E+02  0.59301921428E+02  0.49999958784E+02 0.  0.
        -12    1    1    2    0    0  0.48783276319E+01  0.13077379468E+02 -0.28668904277E+02  0.31886078572E+02  0.00000000000E+00 0.  1.
         11    1    3    3    0    0 -0.36827789948E+01 -0.12376871341E+02  0.18862537032E+02  0.22859245588E+02  0.51100000000E-03 0. -1.
        -11    1    3    3    0    0  0.14224558249E+02 -0.67295384413E+01  0.11934180452E+02  0.19749668563E+02  0.51100000000E-03 0.  1.
        -12    1    3    3    0    0 -0.15420106886E+02  0.60290303146E+01 -0.21278132063E+01  0.16693007277E+02  0.00000000000E+00 0.  1.
</event>
<event>
 7    1  0.1324280E-011  0.5930195E+02  0.7816164E-02  0.1266605E+00
        -11   -1    0    0    0    0  0.00000000000E+00  0.00000000000E+00  0.45593999997E+02  0.45594000000E+02  0.51100000000E-03 0. -1.
         11   -1    0    0    0    0 -0.00000000000E+00 -0.00000000000E+00 -0.45593999997E+02  0.45594000000E+02  0.51100000000E-03 0.  1.
    9900012    2    1    2    0    0  0.44235475913E+01  0.25865975785E+02  0.18113640068E+02  0.59301946103E+02  0.50000003786E+02 0.  0.
        -12    1    1    2    0    0 -0.44235475913E+01 -0.25865975785E+02 -0.18113640068E+02  0.31886053897E+02  0.00000000000E+00 0.  1.
         11    1    3    3    0    0 -0.31539862993E+01  0.27592764437E+02  0.18921690546E+02  0.33605634234E+02  0.51100000000E-03 0. -1.
        -11    1    3    3    0    0  0.54745404115E+01  0.23099250716E+01  0.11296699103E+02  0.12764080752E+02  0.51100000000E-03 0.  1.
        -12    1    3    3    0    0  0.21029934792E+01 -0.40367137245E+01 -0.12104749581E+02  0.12932231118E+02  0.00000000000E+00 0.  1.
</event>
<event>
 7    1  0.1324280E-011  0.5930199E+02  0.7816164E-02  0.1266605E+00
        -11   -1    0    0    0    0  0.00000000000E+00  0.00000000000E+00  0.45593999997E+02  0.45594000000E+02  0.51100000000E-03 0. -1.
         11   -1    0    0    0    0 -0.00000000000E+00 -0.00000000000E+00 -0.45593999997E+02  0.45594000000E+02  0.51100000000E-03 0.  1.
    9900012    2    1    2    0    0  0.14254415729E+02  0.91988775673E-01  0.28522291662E+02  0.59301985018E+02  0.50000074757E+02 0.  0.
        -12    1    1    2    0    0 -0.14254415729E+02 -0.91988775673E-01 -0.28522291662E+02  0.31886014982E+02  0.00000000000E+00 0.  1.
         11    1    3    3    0    0 -0.12241198649E+02 -0.16827340386E+01  0.16729269162E+02  0.20797763946E+02  0.51100000000E-03 0. -1.
        -11    1    3    3    0    0  0.59193311793E+01 -0.45667565238E+01  0.14976473484E+02  0.16738832248E+02  0.51100000000E-03 0.  1.
        -12    1    3    3    0    0  0.20576283200E+02  0.63414793381E+01 -0.31834509829E+01  0.21765388824E+02  0.00000000000E+00 0.  1.
</event>
<event>
 7    1  0.1324280E-011  0.5930193E+02  0.7816164E-02  0.1266605E+00
        -11   -1    0    0    0    0  0.00000000000E+00  0.00000000000E+00  0.45593999997E+02  0.45594000000E+02  0.51100000000E-03 0.  1.
         11   -1    0    0    0    0 -0.00000000000E+00 -0.00000000000E+00 -0.45593999997E+02  0.45594000000E+02  0.51100000000E-03 0. -1.
    9900012    2    1    2    0    0 -0.11354261563E+00 -0.27901886225E+02 -0.15433515318E+02  0.59301928716E+02  0.49999972075E+02 0.  0.
        -12    1    1    2    0    0  0.11354261563E+00  0.27901886225E+02  0.15433515318E+02  0.31886071284E+02  0.00000000000E+00 0.  1.
         11    1    3    3    0    0 -0.47447217419E+01 -0.25787467661E+02 -0.17307011751E+02  0.31417169332E+02  0.51100000000E-03 0. -1.
        -11    1    3    3    0    0 -0.96001009997E+01  0.15657524431E+01 -0.57774752599E+01  0.11313387669E+02  0.51100000000E-03 0.  1.
         12    1    3    3    0    0  0.14231280126E+02 -0.36801710072E+01  0.76509716930E+01  0.16571371715E+02  0.00000000000E+00 0. -1.
</event>
<event>
 7    1  0.1324280E-011  0.5930197E+02  0.7816164E-02  0.1266605E+00
        -11   -1    0    0    0    0  0.00000000000E+00  0.00000000000E+00  0.45593999997E+02  0.45594000000E+02  0.51100000000E-03 0. -1.
         11   -1    0    0    0    0 -0.00000000000E+00 -0.00000000000E+00 -0.45593999997E+02  0.45594000000E+02  0.51100000000E-03 0.  1.
    9900012    2    1    2    0    0 -0.21003422949E+02 -0.16812924208E+02  0.17114346653E+02  0.59301967676E+02  0.50000043129E+02 0.  0.
        -12    1    1    2    0    0  0.21003422949E+02  0.16812924208E+02 -0.17114346653E+02  0.31886032324E+02  0.00000000000E+00 0.  1.
         11    1    3    3    0    0 -0.28813225987E+02  0.16356539620E+01  0.17837771090E+02  0.33927325762E+02  0.51100000000E-03 0. -1.
        -11    1    3    3    0    0  0.29308660139E+01 -0.88964900411E+01  0.73856343577E+01  0.11928332061E+02  0.51100000000E-03 0.  1.
         12    1    3    3    0    0  0.48789370242E+01 -0.95520881290E+01 -0.81090587949E+01  0.13446309852E+02  0.00000000000E+00 0. -1.
</event>
<event>
 7    1  0.1324280E-011  0.5930193E+02  0.7816164E-02  0.1266605E+00
        -11   -1    0    0    0    0  0.00000000000E+00  0.00000000000E+00  0.45593999997E+02  0.45594000000E+02  0.51100000000E-03 0.  1.
         11   -1    0    0    0    0 -0.00000000000E+00 -0.00000000000E+00 -0.45593999997E+02  0.45594000000E+02  0.51100000000E-03 0. -1.
    9900012    2    1    2    0    0 -0.31036433803E+02  0.41106156194E+01 -0.60468268919E+01  0.59301929382E+02  0.49999973290E+02 0.  0.
        -12    1    1    2    0    0  0.31036433803E+02 -0.41106156194E+01  0.60468268919E+01  0.31886070618E+02  0.00000000000E+00 0.  1.
         11    1    3    3    0    0 -0.28698881393E+02  0.21011694868E+02  0.59850447950E+01  0.36068516408E+02  0.51100000000E-03 0. -1.
        -11    1    3    3    0    0  0.20795105910E+01 -0.10272934537E+02 -0.24325871211E+01  0.10759880514E+02  0.51100000000E-03 0.  1.
        -12    1    3    3    0    0 -0.44170630013E+01 -0.66281447110E+01 -0.95992845658E+01  0.12473532461E+02  0.00000000000E+00 0.  1.
</event>
<event>
 7    1  0.1324280E-011  0.5930197E+02  0.7816164E-02  0.1266605E+00
        -11   -1    0    0    0    0  0.00000000000E+00  0.00000000000E+00  0.45593999997E+02  0.45594000000E+02  0.51100000000E-03 0. -1.
         11   -1    0    0    0    0 -0.00000000000E+00 -0.00000000000E+00 -0.45593999997E+02  0.45594000000E+02  0.51100000000E-03 0.  1.
    9900012    2    1    2    0    0  0.11182153040E+02  0.20282736886E+02  0.21915493052E+02  0.59301971745E+02  0.50000050549E+02 0.  0.
        -12    1    1    2    0    0 -0.11182153040E+02 -0.20282736886E+02 -0.21915493052E+02  0.31886028255E+02  0.00000000000E+00 0.  1.
         11    1    3    3    0    0 -0.72102280167E+01  0.76461711292E+01  0.91745473280E+00  0.10549551860E+02  0.51100000000E-03 0. -1.
        -11    1    3    3    0    0  0.28326133554E+01 -0.11587995329E+02 -0.17527645356E+01  0.12057259969E+02  0.51100000000E-03 0.  1.
         12    1    3    3    0    0  0.15559767702E+02  0.24224561086E+02  0.22750802855E+02  0.36695159916E+02  0.00000000000E+00 0. -1.
</event>
<event>
 7    1  0.1324280E-011  0.5930194E+02  0.7816164E-02  0.1266605E+00
        -11   -1    0    0    0    0  0.00000000000E+00  0.00000000000E+00  0.45593999997E+02  0.45594000000E+02  0.51100000000E-03 0. -1.
         11   -1    0    0    0    0 -0.00000000000E+00 -0.00000000000E+00 -0.45593999997E+02  0.45594000000E+02  0.51100000000E-03 0.  1.
    9900012    2    1    2    0    0  0.12515396239E+02 -0.29314128631E+02  0.87594441338E+00  0.59301944129E+02  0.50000000185E+02 0.  0.
        -12    1    1    2    0    0 -0.12515396239E+02  0.29314128631E+02 -0.87594441338E+00  0.31886055871E+02  0.00000000000E+00 0.  1.
         11    1    3    3    0    0  0.14570527553E+02 -0.11028068114E+02 -0.97161765273E+01  0.20695957240E+02  0.51100000000E-03 0. -1.
        -11    1    3    3    0    0  0.56145034012E+00  0.88539649162E+01 -0.10985804461E+01  0.89395078433E+01  0.51100000000E-03 0.  1.
        -12    1    3    3    0    0 -0.26165816544E+01 -0.27140025433E+02  0.11690701387E+02  0.29666479045E+02  0.00000000000E+00 0.  1.
</event>
<event>
 7    1  0.1324280E-011  0.5930195E+02  0.7816164E-02  0.1266605E+00
        -11   -1    0    0    0    0  0.00000000000E+00  0.00000000000E+00  0.45593999997E+02  0.45594000000E+02  0.51100000000E-03 0.  1.
         11   -1    0    0    0    0 -0.00000000000E+00 -0.00000000000E+00 -0.45593999997E+02  0.45594000000E+02  0.51100000000E-03 0. -1.
    9900012    2    1    2    0    0  0.19610401445E+02 -0.57035188318E+01 -0.24487190624E+02  0.59301945422E+02  0.50000002542E+02 0.  0.
        -12    1    1    2    0    0 -0.19610401445E+02  0.57035188318E+01  0.24487190624E+02  0.31886054578E+02  0.00000000000E+00 0.  1.
         11    1    3    3    0    0 -0.50166081590E+01  0.11096540531E+02 -0.25552700154E+02  0.28306184034E+02  0.51100000000E-03 0. -1.
        -11    1    3    3    0    0  0.56948126377E+01 -0.15451483417E+01  0.29736050388E+01  0.66076245024E+01  0.51100000000E-03 0.  1.
        -12    1    3    3    0    0  0.18932196966E+02 -0.15254911022E+02 -0.19080955094E+01  0.24388136885E+02  0.00000000000E+00 0.  1.
</event>
<event>
 7    1  0.1324280E-011  0.5930215E+02  0.7816164E-02  0.1266604E+00
        -11   -1    0    0    0    0  0.00000000000E+00  0.00000000000E+00  0.45593999997E+02  0.45594000000E+02  0.51100000000E-03 0.  1.
         11   -1    0    0    0    0 -0.00000000000E+00 -0.00000000000E+00 -0.45593999997E+02  0.45594000000E+02  0.51100000000E-03 0. -1.
    9900012    2    1    2    0    0  0.29499191995E+02  0.85906255124E+01  0.85267994503E+01  0.59302149158E+02  0.50000374106E+02 0.  0.
        -12    1    1    2    0    0 -0.29499191995E+02 -0.85906255124E+01 -0.85267994503E+01  0.31885850842E+02  0.00000000000E+00 0.  1.
         11    1    3    3    0    0  0.92484599915E+01  0.20935942596E+02 -0.20103054432E+01  0.22975835846E+02  0.51100000000E-03 0. -1.
        -11    1    3    3    0    0  0.14344411973E+02  0.53345842199E+01  0.86781588918E+01  0.17593475657E+02  0.51100000000E-03 0.  1.
         12    1    3    3    0    0  0.59063200304E+01 -0.17679901303E+02  0.18589460017E+01  0.18732837655E+02  0.00000000000E+00 0. -1.
</event>
<event>
 7    1  0.1645064E-011  0.5930195E+02  0.7816164E-02  0.1266605E+00
        -11   -1    0    0    0    0  0.00000000000E+00  0.00000000000E+00  0.45593999997E+02  0.45594000000E+02  0.51100000000E-03 0.  1.
         11   -1    0    0    0    0 -0.00000000000E+00 -0.00000000000E+00 -0.45593999997E+02  0.45594000000E+02  0.51100000000E-03 0. -1.
    9900012    2    1    2    0    0  0.68611518337E+01  0.30765154584E+02 -0.48114731846E+01  0.59301946383E+02  0.50000004296E+02 0.  0.
        -12    1    1    2    0    0 -0.68611518337E+01 -0.30765154584E+02  0.48114731846E+01  0.31886053617E+02  0.00000000000E+00 0.  1.
         11    1    3    3    0    0  0.53320107722E+00  0.12194276472E+02  0.15476707658E+02  0.19710737233E+02  0.51100000000E-03 0. -1.
        -11    1    3    3    0    0  0.57212878997E+01 -0.66092433751E+01 -0.41450469736E+01  0.96745360559E+01  0.51100000000E-03 0.  1.
         12    1    3    3    0    0  0.60666285673E+00  0.25180121487E+02 -0.16143133870E+02  0.29916673095E+02  0.00000000000E+00 0. -1.
</event>
<event>
 7    1  0.1324280E-011  0.5930194E+02  0.7816164E-02  0.1266605E+00
        -11   -1    0    0    0    0  0.00000000000E+00  0.00000000000E+00  0.45593999997E+02  0.45594000000E+02  0.51100000000E-03 0.  1.
         11   -1    0    0    0    0 -0.00000000000E+00 -0.00000000000E+00 -0.45593999997E+02  0.45594000000E+02  0.51100000000E-03 0. -1.
    9900012    2    1    2    0    0 -0.29690156042E+02 -0.10322773856E+02 -0.53531044996E+01  0.59301941077E+02  0.49999994618E+02 0.  0.
        -12    1    1    2    0    0  0.29690156042E+02  0.10322773856E+02  0.53531044996E+01  0.31886058923E+02  0.00000000000E+00 0.  1.
         11    1    3    3    0    0 -0.28783518215E+01 -0.27394257906E+01 -0.90789798098E+01  0.99104610145E+01  0.51100000000E-03 0. -1.
        -11    1    3    3    0    0  0.59736475195E+01  0.50290581965E+01 -0.91039860243E+01  0.11994100751E+02  0.51100000000E-03 0.  1.
         12    1    3    3    0    0 -0.32785451740E+02 -0.12612406262E+02  0.12829861335E+02  0.37397379311E+02  0.00000000000E+00 0. -1.
</event>
<event>
 7    1  0.1324280E-011  0.5930195E+02  0.7816164E-02  0.1266605E+00
        -11   -1    0    0    0    0  0.00000000000E+00  0.00000000000E+00  0.45593999997E+02  0.45594000000E+02  0.51100000000E-03 0. -1.
         11   -1    0    0    0    0 -0.00000000000E+00 -0.00000000000E+00 -0.45593999997E+02  0.45594000000E+02  0.51100000000E-03 0.  1.
    9900012    2    1    2    0    0  0.17957502060E+02  0.11415289782E+02  0.23747408424E+02  0.59301950889E+02  0.50000012514E+02 0.  0.
        -12    1    1    2    0    0 -0.17957502060E+02 -0.11415289782E+02 -0.23747408424E+02  0.31886049111E+02  0.00000000000E+00 0.  1.
         11    1    3    3    0    0  0.76570710541E+00  0.35723517849E+01 -0.92410942385E+01  0.99370935203E+01  0.51100000000E-03 0. -1.
        -11    1    3    3    0    0 -0.73648765472E+01  0.66336063026E+01  0.25457515921E+01  0.10233620599E+02  0.51100000000E-03 0.  1.
         12    1    3    3    0    0  0.24556671502E+02  0.12093316941E+01  0.30442751071E+02  0.39131236770E+02  0.00000000000E+00 0. -1.
</event>
<event>
 7    1  0.1324280E-011  0.5930155E+02  0.7816164E-02  0.1266606E+00
        -11   -1    0    0    0    0  0.00000000000E+00  0.00000000000E+00  0.45593999997E+02  0.45594000000E+02  0.51100000000E-03 0.  1.
         11   -1    0    0    0    0 -0.00000000000E+00 -0.00000000000E+00 -0.45593999997E+02  0.45594000000E+02  0.51100000000E-03 0. -1.
    9900012    2    1    2    0    0  0.13164691385E+02 -0.34254503097E+01 -0.28839256551E+02  0.59301552605E+02  0.49999286133E+02 0.  0.
        -12    1    1    2    0    0 -0.13164691385E+02  0.34254503097E+01  0.28839256551E+02  0.31886447395E+02  0.00000000000E+00 0.  1.
         11    1    3    3    0    0  0.11489367332E+02 -0.88468684323E+01 -0.80312225256E+01  0.16576283608E+02  0.51100000000E-03 0. -1.
        -11    1    3    3    0    0  0.15653170006E+02  0.98354905466E+01 -0.21114435163E+02  0.28063819734E+02  0.51100000000E-03 0.  1.
        -12    1    3    3    0    0 -0.13977845952E+02 -0.44140724240E+01  0.30640113801E+00  0.14661449263E+02  0.00000000000E+00 0.  1.
</event>
<event>
 7    1  0.1324280E-011  0.5930195E+02  0.7816164E-02  0.1266605E+00
        -11   -1    0    0    0    0  0.00000000000E+00  0.00000000000E+00  0.45593999997E+02  0.45594000000E+02  0.51100000000E-03 0.  1.
         11   -1    0    0    0    0 -0.00000000000E+00 -0.00000000000E+00 -0.45593999997E+02  0.45594000000E+02  0.51100000000E-03 0. -1.
    9900012    2    1    2    0    0  0.11341510446E+01  0.30959692620E+02 -0.75452827715E+01  0.59301950420E+02  0.50000011658E+02 0.  0.
        -12    1    1    2    0    0 -0.11341510446E+01 -0.30959692620E+02  0.75452827715E+01  0.31886049580E+02  0.00000000000E+00 0.  1.
         11    1    3    3    0    0 -0.19475067235E+01 -0.93715624884E+01  0.16085826954E+01  0.97060035267E+01  0.51100000000E-03 0. -1.
        -11    1    3    3    0    0 -0.10903052675E+02  0.19631215638E+02  0.13498229582E+01  0.22496293191E+02  0.51100000000E-03 0.  1.
         12    1    3    3    0    0  0.13984710443E+02  0.20700039471E+02 -0.10503688425E+02  0.27099653702E+02  0.00000000000E+00 0. -1.
</event>
<event>
 7    1  0.1324280E-011  0.5930198E+02  0.7816164E-02  0.1266605E+00
        -11   -1    0    0    0    0  0.00000000000E+00  0.00000000000E+00  0.45593999997E+02  0.45594000000E+02  0.51100000000E-03 0.  1.
         11   -1    0    0    0    0 -0.00000000000E+00 -0.00000000000E+00 -0.45593999997E+02  0.45594000000E+02  0.51100000000E-03 0. -1.
    9900012    2    1    2    0    0  0.11707943550E+02  0.23313050821E+02 -0.18334226674E+02  0.59301981928E+02  0.50000069121E+02 0.  0.
        -12    1    1    2    0    0 -0.11707943550E+02 -0.23313050821E+02  0.18334226674E+02  0.31886018072E+02  0.00000000000E+00 0.  1.
         11    1    3    3    0    0  0.55854772726E+01  0.93913658865E+01 -0.54051905733E+01  0.12190627341E+02  0.51100000000E-03 0. -1.
        -11    1    3    3    0    0  0.17613285294E+02 -0.43400646940E+00  0.79157300131E+01  0.19315148520E+02  0.51100000000E-03 0.  1.
        -12    1    3    3    0    0 -0.11490819016E+02  0.14355691404E+02 -0.20844766114E+02  0.27796206067E+02  0.00000000000E+00 0.  1.
</event>
<event>
 7    1  0.1324280E-011  0.5930194E+02  0.7816164E-02  0.1266605E+00
        -11   -1    0    0    0    0  0.00000000000E+00  0.00000000000E+00  0.45593999997E+02  0.45594000000E+02  0.51100000000E-03 0.  1.
         11   -1    0    0    0    0 -0.00000000000E+00 -0.00000000000E+00 -0.45593999997E+02  0.45594000000E+02  0.51100000000E-03 0. -1.
    9900012    2    1    2    0    0 -0.19029364289E+02  0.55921461027E+01 -0.24966617127E+02  0.59301940757E+02  0.49999994036E+02 0.  0.
        -12    1    1    2    0    0  0.19029364289E+02 -0.55921461027E+01  0.24966617127E+02  0.31886059243E+02  0.00000000000E+00 0.  1.
         11    1    3    3    0    0 -0.23706336985E+02  0.41556697752E+00 -0.19198540122E+02  0.30508147310E+02  0.51100000000E-03 0. -1.
        -11    1    3    3    0    0 -0.32850250178E+01 -0.19724140157E+01 -0.14490563186E+02  0.14988603275E+02  0.51100000000E-03 0.  1.
        -12    1    3    3    0    0  0.79619977144E+01  0.71489931408E+01  0.87224861815E+01  0.13805190173E+02  0.00000000000E+00 0.  1.
</event>
<event>
 7    1  0.1324280E-011  0.5930190E+02  0.7816164E-02  0.1266605E+00
        -11   -1    0    0    0    0  0.00000000000E+00  0.00000000000E+00  0.45593999997E+02  0.45594000000E+02  0.51100000000E-03 0. -1.
         11   -1    0    0    0    0 -0.00000000000E+00 -0.00000000000E+00 -0.45593999997E+02  0.45594000000E+02  0.51100000000E-03 0.  1.
    9900012    2    1    2    0    0  0.85419708594E+01 -0.11542098773E+02  0.28469944831E+02  0.59301904772E+02  0.49999928407E+02 0.  0.
        -12    1    1    2    0    0 -0.85419708594E+01  0.11542098773E+02 -0.28469944831E+02  0.31886095228E+02  0.00000000000E+00 0.  1.
         11    1    3    3    0    0  0.30013945195E+01 -0.11549184775E+02 -0.73735802206E+00  0.11955573392E+02  0.51100000000E-03 0. -1.
        -11    1    3    3    0    0  0.66334540997E+01 -0.23342884527E+01 -0.76543307835E+01  0.10394248211E+02  0.51100000000E-03 0.  1.
        -12    1    3    3    0    0 -0.10928777599E+01  0.23413744550E+01  0.36861633636E+02  0.36952083168E+02  0.00000000000E+00 0.  1.
</event>
<event>
 7    1  0.1324280E-011  0.5930195E+02  0.7816164E-02  0.1266605E+00
        -11   -1    0    0    0    0  0.00000000000E+00  0.00000000000E+00  0.45593999997E+02  0.45594000000E+02  0.51100000000E-03 0.  1.
         11   -1    0    0    0    0 -0.00000000000E+00 -0.00000000000E+00 -0.45593999997E+02  0.45594000000E+02  0.51100000000E-03 0. -1.
    9900012    2    1    2    0    0 -0.25872368204E+02 -0.10995018062E+02  0.15048266872E+02  0.59301949845E+02  0.50000010608E+02 0.  0.
        -12    1    1    2    0    0  0.25872368204E+02  0.10995018062E+02 -0.15048266872E+02  0.31886050155E+02  0.00000000000E+00 0.  1.
         11    1    3    3    0    0 -0.19630138353E+02 -0.24938636482E+02  0.11486958599E+02  0.33752453829E+02  0.51100000000E-03 0. -1.
        -11    1    3    3    0    0  0.56579524021E+01  0.59862623600E+01  0.70194526119E+01  0.10822221475E+02  0.51100000000E-03 0.  1.
        -12    1    3    3    0    0 -0.11900182254E+02  0.79573560602E+01 -0.34581443387E+01  0.14727274541E+02  0.00000000000E+00 0.  1.
</event>
<event>
 7    1  0.1324280E-011  0.5930200E+02  0.7816164E-02  0.1266605E+00
        -11   -1    0    0    0    0  0.00000000000E+00  0.00000000000E+00  0.45593999997E+02  0.45594000000E+02  0.51100000000E-03 0.  1.
         11   -1    0    0    0    0 -0.00000000000E+00 -0.00000000000E+00 -0.45593999997E+02  0.45594000000E+02  0.51100000000E-03 0. -1.
    9900012    2    1    2    0    0 -0.17645323011E+02 -0.20266417926E+02 -0.17164844017E+02  0.59302000096E+02  0.50000102256E+02 0.  0.
        -12    1    1    2    0    0  0.17645323011E+02  0.20266417926E+02  0.17164844017E+02  0.31885999904E+02  0.00000000000E+00 0.  1.
         11    1    3    3    0    0 -0.88060645662E+01 -0.33877368802E+01  0.91548841494E+01  0.13146689255E+02  0.51100000000E-03 0.  1.
        -11    1    3    3    0    0 -0.13134155213E+02  0.33033746764E+01 -0.20757249826E+02  0.24784707745E+02  0.51100000000E-03 0. -1.
         12    1    3    3    0    0  0.42948967679E+01 -0.20182055722E+02 -0.55624783406E+01  0.21370603097E+02  0.00000000000E+00 0. -1.
</event>
<event>
 7    1  0.1324280E-011  0.5930198E+02  0.7816164E-02  0.1266605E+00
        -11   -1    0    0    0    0  0.00000000000E+00  0.00000000000E+00  0.45593999997E+02  0.45594000000E+02  0.51100000000E-03 0.  1.
         11   -1    0    0    0    0 -0.00000000000E+00 -0.00000000000E+00 -0.45593999997E+02  0.45594000000E+02  0.51100000000E-03 0. -1.
    9900012    2    1    2    0    0 -0.16627426978E+02  0.26539797733E+02 -0.59904970784E+01  0.59301980386E+02  0.50000066308E+02 0.  0.
        -12    1    1    2    0    0  0.16627426978E+02 -0.26539797733E+02  0.59904970784E+01  0.31886019614E+02  0.00000000000E+00 0.  1.
         11    1    3    3    0    0 -0.12203485839E+02  0.70851624911E+01 -0.12754853759E+02  0.19021327210E+02  0.51100000000E-03 0. -1.
        -11    1    3    3    0    0 -0.12402245025E+02 -0.54540281192E+01  0.20083970391E+01  0.13696560273E+02  0.51100000000E-03 0.  1.
         12    1    3    3    0    0  0.79783038863E+01  0.24908663361E+02  0.47559596418E+01  0.26584092902E+02  0.00000000000E+00 0. -1.
</event>
<event>
 7    1  0.2383429E-011  0.5930159E+02  0.7816164E-02  0.1266606E+00
        -11   -1    0    0    0    0  0.00000000000E+00  0.00000000000E+00  0.45593999997E+02  0.45594000000E+02  0.51100000000E-03 0.  1.
         11   -1    0    0    0    0 -0.00000000000E+00 -0.00000000000E+00 -0.45593999997E+02  0.45594000000E+02  0.51100000000E-03 0. -1.
    9900012    2    1    2    0    0 -0.32801176375E+01  0.31707026114E+02 -0.80515707023E+00  0.59301592949E+02  0.49999359712E+02 0.  0.
        -12    1    1    2    0    0  0.32801176375E+01 -0.31707026114E+02  0.80515707023E+00  0.31886407051E+02  0.00000000000E+00 0.  1.
         11    1    3    3    0    0  0.70684859703E+01  0.53531235301E+01  0.93669219127E+01  0.12898009607E+02  0.51100000000E-03 0. -1.
        -11    1    3    3    0    0  0.92557328176E+01 -0.26498185581E+01  0.94292027184E+00  0.96736356806E+01  0.51100000000E-03 0.  1.
         12    1    3    3    0    0 -0.19604336425E+02  0.29003721142E+02 -0.11114999255E+02  0.36729947661E+02  0.00000000000E+00 0. -1.
</event>
<event>
 7    1  0.1324280E-011  0.5930194E+02  0.7816164E-02  0.1266605E+00
        -11   -1    0    0    0    0  0.00000000000E+00  0.00000000000E+00  0.45593999997E+02  0.45594000000E+02  0.51100000000E-03 0. -1.
         11   -1    0    0    0    0 -0.00000000000E+00 -0.00000000000E+00 -0.45593999997E+02  0.45594000000E+02  0.51100000000E-03 0.  1.
    9900012    2    1    2    0    0  0.19415166521E+02 -0.22857241134E+02 -0.10831379462E+02  0.59301938087E+02  0.49999989165E+02 0.  0.
        -12    1    1    2    0    0 -0.19415166521E+02  0.22857241134E+02  0.10831379462E+02  0.31886061913E+02  0.00000000000E+00 0.  1.
         11    1    3    3    0    0  0.15907511104E+02 -0.37194385589E+01  0.76297175534E+01  0.18030411058E+02  0.51100000000E-03 0. -1.
        -11    1    3    3    0    0  0.15817678916E+02 -0.58817168195E+01 -0.15551491761E+02  0.22948691799E+02  0.51100000000E-03 0.  1.
        -12    1    3    3    0    0 -0.12310023500E+02 -0.13256085755E+02 -0.29096052548E+01  0.18322835230E+02  0.00000000000E+00 0.  1.
</event>
<event>
 7    1  0.1324280E-011  0.5930181E+02  0.7816164E-02  0.1266605E+00
        -11   -1    0    0    0    0  0.00000000000E+00  0.00000000000E+00  0.45593999997E+02  0.45594000000E+02  0.51100000000E-03 0.  1.
         11   -1    0    0    0    0 -0.00000000000E+00 -0.00000000000E+00 -0.45593999997E+02  0.45594000000E+02  0.51100000000E-03 0. -1.
    9900012    2    1    2    0    0  0.72433794636E+01  0.25418001686E+02 -0.17837814705E+02  0.59301811936E+02  0.49999759096E+02 0.  0.
        -12    1    1    2    0    0 -0.72433794636E+01 -0.25418001686E+02  0.17837814705E+02  0.31886188064E+02  0.00000000000E+00 0.  1.
         11    1    3    3    0    0 -0.76809467836E+01 -0.11556394337E+02 -0.54417725924E+01  0.14905035484E+02  0.51100000000E-03 0. -1.
        -11    1    3    3    0    0  0.45129838966E+01  0.11108675150E+02  0.32518518930E+01  0.12423535255E+02  0.51100000000E-03 0.  1.
        -12    1    3    3    0    0  0.10411342350E+02  0.25865720873E+02 -0.15647894006E+02  0.31973241197E+02  0.00000000000E+00 0.  1.
</event>
<event>
 7    1  0.1324280E-011  0.5930196E+02  0.7816164E-02  0.1266605E+00
        -11   -1    0    0    0    0  0.00000000000E+00  0.00000000000E+00  0.45593999997E+02  0.45594000000E+02  0.51100000000E-03 0.  1.
         11   -1    0    0    0    0 -0.00000000000E+00 -0.00000000000E+00 -0.45593999997E+02  0.45594000000E+02  0.51100000000E-03 0. -1.
    9900012    2    1    2    0    0  0.86065393352E+01 -0.24953461602E+02 -0.17887752014E+02  0.59301961717E+02  0.50000032261E+02 0.  0.
        -12    1    1    2    0    0 -0.86065393352E+01  0.24953461602E+02  0.17887752014E+02  0.31886038283E+02  0.00000000000E+00 0.  1.
         11    1    3    3    0    0  0.10109342232E+02 -0.13001090291E+02 -0.28087522454E+01  0.16706772236E+02  0.51100000000E-03 0. -1.
        -11    1    3    3    0    0  0.13953244198E+02 -0.18199460818E+02 -0.10990373668E+02  0.25430330539E+02  0.51100000000E-03 0.  1.
        -12    1    3    3    0    0 -0.15456047094E+02  0.62470895071E+01 -0.40886261004E+01  0.17164858941E+02  0.00000000000E+00 0.  1.
</event>
<event>
 7    1  0.1324280E-011  0.5930194E+02  0.7816164E-02  0.1266605E+00
        -11   -1    0    0    0    0  0.00000000000E+00  0.00000000000E+00  0.45593999997E+02  0.45594000000E+02  0.51100000000E-03 0.  1.
         11   -1    0    0    0    0 -0.00000000000E+00 -0.00000000000E+00 -0.45593999997E+02  0.45594000000E+02  0.51100000000E-03 0. -1.
    9900012    2    1    2    0    0 -0.81008362600E+01  0.25418863558E+02 -0.17463632776E+02  0.59301942821E+02  0.49999997799E+02 0.  0.
        -12    1    1    2    0    0  0.81008362600E+01 -0.25418863558E+02  0.17463632776E+02  0.31886057179E+02  0.00000000000E+00 0.  1.
         11    1    3    3    0    0 -0.70775679755E+01  0.12219459137E+02 -0.21519475043E+01  0.14284188055E+02  0.51100000000E-03 0. -1.
        -11    1    3    3    0    0 -0.67906085003E-02  0.27017003973E+02 -0.15527332728E+02  0.31161139448E+02  0.51100000000E-03 0.  1.
        -12    1    3    3    0    0 -0.10164776759E+01 -0.13817599553E+02  0.21564745555E+00  0.13856615319E+02  0.00000000000E+00 0.  1.
</event>
<event>
 7    1  0.1324280E-011  0.5930194E+02  0.7816164E-02  0.1266605E+00
        -11   -1    0    0    0    0  0.00000000000E+00  0.00000000000E+00  0.45593999997E+02  0.45594000000E+02  0.51100000000E-03 0.  1.
         11   -1    0    0    0    0 -0.00000000000E+00 -0.00000000000E+00 -0.45593999997E+02  0.45594000000E+02  0.51100000000E-03 0. -1.
    9900012    2    1    2    0    0  0.66941286314E+01  0.22592355798E+02 -0.21482439795E+02  0.59301935361E+02  0.49999984194E+02 0.  0.
        -12    1    1    2    0    0 -0.66941286314E+01 -0.22592355798E+02  0.21482439795E+02  0.31886064639E+02  0.00000000000E+00 0.  1.
         11    1    3    3    0    0 -0.64103154704E+01  0.24111583561E+02 -0.26587100253E+02  0.36460039857E+02  0.51100000000E-03 0. -1.
        -11    1    3    3    0    0 -0.23855136264E+01  0.21836082149E+01  0.60790198033E+01  0.68857317787E+01  0.51100000000E-03 0.  1.
        -12    1    3    3    0    0  0.15489957728E+02 -0.37028359778E+01 -0.97435934562E+00  0.15956163725E+02  0.00000000000E+00 0.  1.
</event>
<event>
 7    1  0.1324280E-011  0.5930193E+02  0.7816164E-02  0.1266605E+00
        -11   -1    0    0    0    0  0.00000000000E+00  0.00000000000E+00  0.45593999997E+02  0.45594000000E+02  0.51100000000E-03 0.  1.
         11   -1    0    0    0    0 -0.00000000000E+00 -0.00000000000E+00 -0.45593999997E+02  0.45594000000E+02  0.51100000000E-03 0. -1.
    9900012    2    1    2    0    0  0.12466025128E+00 -0.20669739993E+02 -0.24278955981E+02  0.59301931019E+02  0.49999976275E+02 0.  0.
        -12    1    1    2    0    0 -0.12466025128E+00  0.20669739993E+02  0.24278955981E+02  0.31886068981E+02  0.00000000000E+00 0.  1.
         11    1    3    3    0    0  0.10515462666E+01 -0.42494418872E+00 -0.24261475118E+02  0.24287970320E+02  0.51100000000E-03 0. -1.
        -11    1    3    3    0    0  0.13637971910E+02 -0.85769646357E+01  0.20371807150E+01  0.16239110373E+02  0.51100000000E-03 0.  1.
        -12    1    3    3    0    0 -0.14564857925E+02 -0.11667831168E+02 -0.20546615781E+01  0.18774850326E+02  0.00000000000E+00 0.  1.
</event>
<event>
 7    1  0.1324280E-011  0.5930199E+02  0.7816164E-02  0.1266605E+00
        -11   -1    0    0    0    0  0.00000000000E+00  0.00000000000E+00  0.45593999997E+02  0.45594000000E+02  0.51100000000E-03 0.  1.
         11   -1    0    0    0    0 -0.00000000000E+00 -0.00000000000E+00 -0.45593999997E+02  0.45594000000E+02  0.51100000000E-03 0. -1.
    9900012    2    1    2    0    0  0.60829542308E+01  0.21204582999E+02 -0.23023491787E+02  0.59301986665E+02  0.50000077760E+02 0.  0.
        -12    1    1    2    0    0 -0.60829542308E+01 -0.21204582999E+02  0.23023491787E+02  0.31886013335E+02  0.00000000000E+00 0.  1.
         11    1    3    3    0    0  0.79352017972E+01 -0.46290864945E+01 -0.10088977602E+00  0.91872764378E+01  0.51100000000E-03 0. -1.
        -11    1    3    3    0    0  0.28355155676E+01 -0.60813297184E+01 -0.15678345903E+02  0.17053833886E+02  0.51100000000E-03 0.  1.
         12    1    3    3    0    0 -0.46877631341E+01  0.31914999212E+02 -0.72442561077E+01  0.33060876341E+02  0.00000000000E+00 0. -1.
</event>
<event>
 7    1  0.1324280E-011  0.5930191E+02  0.7816164E-02  0.1266605E+00
        -11   -1    0    0    0    0  0.00000000000E+00  0.00000000000E+00  0.45593999997E+02  0.45594000000E+02  0.51100000000E-03 0.  1.
         11   -1    0    0    0    0 -0.00000000000E+00 -0.00000000000E+00 -0.45593999997E+02  0.45594000000E+02  0.51100000000E-03 0. -1.
    9900012    2    1    2    0    0 -0.30019422503E+02  0.20411971434E+00 -0.10747806675E+02  0.59301909920E+02  0.49999937796E+02 0.  0.
        -12    1    1    2    0    0  0.30019422503E+02 -0.20411971434E+00  0.10747806675E+02  0.31886090080E+02  0.00000000000E+00 0.  1.
         11    1    3    3    0    0 -0.69684858851E+01  0.12511302773E+01  0.27617195785E+01  0.75994879954E+01  0.51100000000E-03 0. -1.
        -11    1    3    3    0    0 -0.29872696637E+02 -0.23792121977E+01  0.63751988957E+01  0.30637914685E+02  0.51100000000E-03 0.  1.
         12    1    3    3    0    0  0.68217600194E+01  0.13322016347E+01 -0.19884725149E+02  0.21064507239E+02  0.00000000000E+00 0. -1.
</event>
<event>
 7    1  0.1324280E-011  0.5930196E+02  0.7816164E-02  0.1266605E+00
        -11   -1    0    0    0    0  0.00000000000E+00  0.00000000000E+00  0.45593999997E+02  0.45594000000E+02  0.51100000000E-03 0. -1.
         11   -1    0    0    0    0 -0.00000000000E+00 -0.00000000000E+00 -0.45593999997E+02  0.45594000000E+02  0.51100000000E-03 0.  1.
    9900012    2    1    2    0    0 -0.56837166304E+01 -0.22388900413E+02  0.21980721684E+02  0.59301958819E+02  0.50000026977E+02 0.  0.
        -12    1    1    2    0    0  0.56837166304E+01  0.22388900413E+02 -0.21980721684E+02  0.31886041181E+02  0.00000000000E+00 0.  1.
         11    1    3    3    0    0 -0.80073415397E+01 -0.39166462436E+01  0.12752533163E+01  0.90046603275E+01  0.51100000000E-03 0. -1.
        -11    1    3    3    0    0 -0.15523703801E+02 -0.15497089571E+02  0.23320744569E+02  0.32015656988E+02  0.51100000000E-03 0.  1.
        -12    1    3    3    0    0  0.17847328710E+02 -0.29751645987E+01 -0.26152762019E+01  0.18281641504E+02  0.00000000000E+00 0.  1.
</event>
<event>
 7    1  0.1324280E-011  0.5930196E+02  0.7816164E-02  0.1266605E+00
        -11   -1    0    0    0    0  0.00000000000E+00  0.00000000000E+00  0.45593999997E+02  0.45594000000E+02  0.51100000000E-03 0. -1.
         11   -1    0    0    0    0 -0.00000000000E+00 -0.00000000000E+00 -0.45593999997E+02  0.45594000000E+02  0.51100000000E-03 0.  1.
    9900012    2    1    2    0    0  0.29776782672E+02  0.53989170587E+01  0.10045621729E+02  0.59301959048E+02  0.50000027393E+02 0.  0.
        -12    1    1    2    0    0 -0.29776782672E+02 -0.53989170587E+01 -0.10045621729E+02  0.31886040952E+02  0.00000000000E+00 0.  1.
         11    1    3    3    0    0 -0.45010215700E+01 -0.47555425435E+01 -0.31317128365E+01  0.72582370868E+01  0.51100000000E-03 0. -1.
        -11    1    3    3    0    0  0.32400411712E+01 -0.10263765479E+02  0.10108277212E+02  0.14765500907E+02  0.51100000000E-03 0.  1.
        -12    1    3    3    0    0  0.31037763070E+02  0.20418225081E+02  0.30690573544E+01  0.37278221054E+02  0.00000000000E+00 0.  1.
</event>
<event>
 7    1  0.1324280E-011  0.5930194E+02  0.7816164E-02  0.1266605E+00
        -11   -1    0    0    0    0  0.00000000000E+00  0.00000000000E+00  0.45593999997E+02  0.45594000000E+02  0.51100000000E-03 0.  1.
         11   -1    0    0    0    0 -0.00000000000E+00 -0.00000000000E+00 -0.45593999997E+02  0.45594000000E+02  0.51100000000E-03 0. -1.
    9900012    2    1    2    0    0  0.26890381827E+02 -0.17135259335E+02  0.10401185446E+00  0.59301944024E+02  0.49999999993E+02 0.  0.
        -12    1    1    2    0    0 -0.26890381827E+02  0.17135259335E+02 -0.10401185446E+00  0.31886055976E+02  0.00000000000E+00 0.  1.
         11    1    3    3    0    0  0.12361070516E+02 -0.11032920470E+02  0.63023543318E+01  0.17726845990E+02  0.51100000000E-03 0. -1.
        -11    1    3    3    0    0  0.14699725026E+02  0.14118495976E+02  0.14414575329E+00  0.20382213391E+02  0.51100000000E-03 0.  1.
         12    1    3    3    0    0 -0.17041371443E+00 -0.20220834841E+02 -0.63424882307E+01  0.21192884642E+02  0.00000000000E+00 0. -1.
</event>
<event>
 7    1  0.1324280E-011  0.5930195E+02  0.7816164E-02  0.1266605E+00
        -11   -1    0    0    0    0  0.00000000000E+00  0.00000000000E+00  0.45593999997E+02  0.45594000000E+02  0.51100000000E-03 0.  1.
         11   -1    0    0    0    0 -0.00000000000E+00 -0.00000000000E+00 -0.45593999997E+02  0.45594000000E+02  0.51100000000E-03 0. -1.
    9900012    2    1    2    0    0  0.26007233620E+02  0.16803444925E+02  0.76149831698E+01  0.59301953983E+02  0.50000018156E+02 0.  0.
        -12    1    1    2    0    0 -0.26007233620E+02 -0.16803444925E+02 -0.76149831698E+01  0.31886046017E+02  0.00000000000E+00 0.  1.
         11    1    3    3    0    0  0.13530804476E+02 -0.63213609900E+01  0.15316134693E+01  0.15012931580E+02  0.51100000000E-03 0.  1.
        -11    1    3    3    0    0  0.45545215333E+01  0.28518088903E+02 -0.53494852428E+01  0.29370768694E+02  0.51100000000E-03 0. -1.
         12    1    3    3    0    0  0.79219076107E+01 -0.53932829877E+01  0.11432854943E+02  0.14918253709E+02  0.00000000000E+00 0. -1.
</event>
<event>
 7    1  0.1324280E-011  0.5930200E+02  0.7816164E-02  0.1266605E+00
        -11   -1    0    0    0    0  0.00000000000E+00  0.00000000000E+00  0.45593999997E+02  0.45594000000E+02  0.51100000000E-03 0. -1.
         11   -1    0    0    0    0 -0.00000000000E+00 -0.00000000000E+00 -0.45593999997E+02  0.45594000000E+02  0.51100000000E-03 0.  1.
    9900012    2    1    2    0    0  0.29677987905E+02  0.12111197116E+01  0.11595990071E+02  0.59302003658E+02  0.50000108750E+02 0.  0.
        -12    1    1    2    0    0 -0.29677987905E+02 -0.12111197116E+01 -0.11595990071E+02  0.31885996342E+02  0.00000000000E+00 0.  1.
         11    1    3    3    0    0  0.78171200181E+01  0.12562967558E+02  0.15595654595E+00  0.14797291710E+02  0.51100000000E-03 0. -1.
        -11    1    3    3    0    0  0.13756652972E+02  0.28573904418E+01 -0.10211139757E+02  0.17368867450E+02  0.51100000000E-03 0.  1.
         12    1    3    3    0    0  0.81042149150E+01 -0.14209238288E+02  0.21651173281E+02  0.27135844497E+02  0.00000000000E+00 0. -1.
</event>
<event>
 7    1  0.1324280E-011  0.5930195E+02  0.7816164E-02  0.1266605E+00
        -11   -1    0    0    0    0  0.00000000000E+00  0.00000000000E+00  0.45593999997E+02  0.45594000000E+02  0.51100000000E-03 0.  1.
         11   -1    0    0    0    0 -0.00000000000E+00 -0.00000000000E+00 -0.45593999997E+02  0.45594000000E+02  0.51100000000E-03 0. -1.
    9900012    2    1    2    0    0  0.14475018687E+01  0.13071349797E+02 -0.29047626789E+02  0.59301951808E+02  0.50000014190E+02 0.  0.
        -12    1    1    2    0    0 -0.14475018687E+01 -0.13071349797E+02  0.29047626789E+02  0.31886048192E+02  0.00000000000E+00 0.  1.
         11    1    3    3    0    0 -0.62495039024E+01  0.59232550229E+01  0.81121274582E+01  0.11829956097E+02  0.51100000000E-03 0. -1.
        -11    1    3    3    0    0  0.52018230404E+01  0.45621824104E+01  0.27172334408E+01  0.74334264725E+01  0.51100000000E-03 0.  1.
         12    1    3    3    0    0  0.24951827306E+01  0.25859123638E+01 -0.39876987688E+02  0.40038569239E+02  0.00000000000E+00 0. -1.
</event>
<event>
 7    1  0.1324280E-011  0.5930196E+02  0.7816164E-02  0.1266605E+00
        -11   -1    0    0    0    0  0.00000000000E+00  0.00000000000E+00  0.45593999997E+02  0.45594000000E+02  0.51100000000E-03 0.  1.
         11   -1    0    0    0    0 -0.00000000000E+00 -0.00000000000E+00 -0.45593999997E+02  0.45594000000E+02  0.51100000000E-03 0. -1.
    9900012    2    1    2    0    0  0.57577609811E+01 -0.29847773003E+02 -0.96269365299E+01  0.59301964315E+02  0.50000037000E+02 0.  0.
        -12    1    1    2    0    0 -0.57577609811E+01  0.29847773003E+02  0.96269365299E+01  0.31886035685E+02  0.00000000000E+00 0.  1.
         11    1    3    3    0    0  0.52221663803E+01 -0.84441564432E+01 -0.19173535754E+02  0.21591648231E+02  0.51100000000E-03 0. -1.
        -11    1    3    3    0    0 -0.91712181378E+01  0.27675458352E+00 -0.43879757381E+01  0.10170652219E+02  0.51100000000E-03 0.  1.
         12    1    3    3    0    0  0.97068127385E+01 -0.21680371143E+02  0.13934574962E+02  0.27539663865E+02  0.00000000000E+00 0. -1.
</event>
<event>
 7    1  0.1324280E-011  0.5930196E+02  0.7816164E-02  0.1266605E+00
        -11   -1    0    0    0    0  0.00000000000E+00  0.00000000000E+00  0.45593999997E+02  0.45594000000E+02  0.51100000000E-03 0. -1.
         11   -1    0    0    0    0 -0.00000000000E+00 -0.00000000000E+00 -0.45593999997E+02  0.45594000000E+02  0.51100000000E-03 0.  1.
    9900012    2    1    2    0    0 -0.13658940562E+02  0.28329391951E+02  0.52534232394E+01  0.59301959773E+02  0.50000028716E+02 0.  0.
        -12    1    1    2    0    0  0.13658940562E+02 -0.28329391951E+02 -0.52534232394E+01  0.31886040227E+02  0.00000000000E+00 0.  1.
         11    1    3    3    0    0 -0.13301301680E+01  0.93819122081E+01  0.13863488844E+01  0.95766114275E+01  0.51100000000E-03 0. -1.
        -11    1    3    3    0    0  0.52705788498E+01  0.79164120701E+01  0.20836290720E+02  0.22904139204E+02  0.51100000000E-03 0.  1.
        -12    1    3    3    0    0 -0.17599389244E+02  0.11031067673E+02 -0.16969216365E+02  0.26821209141E+02  0.00000000000E+00 0.  1.
</event>
<event>
 7    1  0.1324280E-011  0.5930192E+02  0.7816164E-02  0.1266605E+00
        -11   -1    0    0    0    0  0.00000000000E+00  0.00000000000E+00  0.45593999997E+02  0.45594000000E+02  0.51100000000E-03 0. -1.
         11   -1    0    0    0    0 -0.00000000000E+00 -0.00000000000E+00 -0.45593999997E+02  0.45594000000E+02  0.51100000000E-03 0.  1.
    9900012    2    1    2    0    0 -0.22526399725E+02 -0.10497190744E+02  0.19977290289E+02  0.59301924272E+02  0.49999963969E+02 0.  0.
        -12    1    1    2    0    0  0.22526399725E+02  0.10497190744E+02 -0.19977290289E+02  0.31886075728E+02  0.00000000000E+00 0.  1.
         11    1    3    3    0    0 -0.45426477515E+01 -0.42065817674E+01  0.89330873931E+01  0.10868809935E+02  0.51100000000E-03 0. -1.
        -11    1    3    3    0    0 -0.22266036959E+01  0.16448028415E+02  0.12425871631E+02  0.20733974265E+02  0.51100000000E-03 0.  1.
         12    1    3    3    0    0 -0.15757148278E+02 -0.22738637391E+02 -0.13816687357E+01  0.27699140072E+02  0.00000000000E+00 0. -1.
</event>
<event>
 7    1  0.1324280E-011  0.5930180E+02  0.7816164E-02  0.1266605E+00
        -11   -1    0    0    0    0  0.00000000000E+00  0.00000000000E+00  0.45593999997E+02  0.45594000000E+02  0.51100000000E-03 0.  1.
         11   -1    0    0    0    0 -0.00000000000E+00 -0.00000000000E+00 -0.45593999997E+02  0.45594000000E+02  0.51100000000E-03 0. -1.
    9900012    2    1    2    0    0  0.20354414964E+02  0.21487290279E+02 -0.11862716070E+02  0.59301797896E+02  0.49999733490E+02 0.  0.
        -12    1    1    2    0    0 -0.20354414964E+02 -0.21487290279E+02  0.11862716070E+02  0.31886202104E+02  0.00000000000E+00 0.  1.
         11    1    3    3    0    0  0.55070302537E+01  0.26604658148E+02 -0.25153500104E+01  0.27284834676E+02  0.51100000000E-03 0. -1.
        -11    1    3    3    0    0 -0.49714528655E+01 -0.37913144783E+01 -0.10390439916E+02  0.12126444284E+02  0.51100000000E-03 0.  1.
        -12    1    3    3    0    0  0.19818837576E+02 -0.13260533905E+01  0.10430738562E+01  0.19890518936E+02  0.00000000000E+00 0.  1.
</event>
<event>
 7    1  0.1324280E-011  0.5930194E+02  0.7816164E-02  0.1266605E+00
        -11   -1    0    0    0    0  0.00000000000E+00  0.00000000000E+00  0.45593999997E+02  0.45594000000E+02  0.51100000000E-03 0.  1.
         11   -1    0    0    0    0 -0.00000000000E+00 -0.00000000000E+00 -0.45593999997E+02  0.45594000000E+02  0.51100000000E-03 0. -1.
    9900012    2    1    2    0    0  0.15244924645E+02  0.59638431592E-01 -0.28005525510E+02  0.59301941239E+02  0.49999994915E+02 0.  0.
        -12    1    1    2    0    0 -0.15244924645E+02 -0.59638431592E-01  0.28005525510E+02  0.31886058761E+02  0.00000000000E+00 0.  1.
         11    1    3    3    0    0 -0.92328989024E+00 -0.10015000113E+02  0.63254858703E+01  0.11881265221E+02  0.51100000000E-03 0. -1.
        -11    1    3    3    0    0  0.47629218357E+01  0.13405694007E+02 -0.38988739132E+01  0.14751246533E+02  0.51100000000E-03 0.  1.
         12    1    3    3    0    0  0.11405292700E+02 -0.33310554624E+01 -0.30432137467E+02  0.32669429485E+02  0.00000000000E+00 0. -1.
</event>
<event>
 7    1  0.1324280E-011  0.5930193E+02  0.7816164E-02  0.1266605E+00
        -11   -1    0    0    0    0  0.00000000000E+00  0.00000000000E+00  0.45593999997E+02  0.45594000000E+02  0.51100000000E-03 0. -1.
         11   -1    0    0    0    0 -0.00000000000E+00 -0.00000000000E+00 -0.45593999997E+02  0.45594000000E+02  0.51100000000E-03 0.  1.
    9900012    2    1    2    0    0  0.31914501581E+01  0.26217842711E+02  0.17865068217E+02  0.59301932621E+02  0.49999979197E+02 0.  0.
        -12    1    1    2    0    0 -0.31914501581E+01 -0.26217842711E+02 -0.17865068217E+02  0.31886067379E+02  0.00000000000E+00 0.  1.
         11    1    3    3    0    0  0.36247757545E+00 -0.13214161089E+01 -0.47554748050E+01  0.49489464948E+01  0.51100000000E-03 0. -1.
        -11    1    3    3    0    0  0.13708714302E+02 -0.53250673508E+01  0.83217985605E+01  0.16897855534E+02  0.51100000000E-03 0.  1.
         12    1    3    3    0    0 -0.10879741720E+02  0.32864326170E+02  0.14298744461E+02  0.37455130592E+02  0.00000000000E+00 0. -1.
</event>
<event>
 7    1  0.1324280E-011  0.5930195E+02  0.7816164E-02  0.1266605E+00
        -11   -1    0    0    0    0  0.00000000000E+00  0.00000000000E+00  0.45593999997E+02  0.45594000000E+02  0.51100000000E-03 0.  1.
         11   -1    0    0    0    0 -0.00000000000E+00 -0.00000000000E+00 -0.45593999997E+02  0.45594000000E+02  0.51100000000E-03 0. -1.
    9900012    2    1    2    0    0  0.42652674969E+01 -0.26787816489E+02 -0.16761279274E+02  0.59301951296E+02  0.50000013255E+02 0.  0.
        -12    1    1    2    0    0 -0.42652674969E+01  0.26787816489E+02  0.16761279274E+02  0.31886048704E+02  0.00000000000E+00 0.  1.
         11    1    3    3    0    0  0.65518998454E+01 -0.28593911131E+02 -0.25215852873E+02  0.38683050316E+02  0.51100000000E-03 0. -1.
        -11    1    3    3    0    0 -0.80067763975E+01  0.41567576306E+00 -0.23153343008E+01  0.83451799145E+01  0.51100000000E-03 0.  1.
        -12    1    3    3    0    0  0.57201440490E+01  0.13904188788E+01  0.10769907900E+02  0.12273721065E+02  0.00000000000E+00 0.  1.
</event>
<event>
 7    1  0.1324280E-011  0.5930195E+02  0.7816164E-02  0.1266605E+00
        -11   -1    0    0    0    0  0.00000000000E+00  0.00000000000E+00  0.45593999997E+02  0.45594000000E+02  0.51100000000E-03 0. -1.
         11   -1    0    0    0    0 -0.00000000000E+00 -0.00000000000E+00 -0.45593999997E+02  0.45594000000E+02  0.51100000000E-03 0.  1.
    9900012    2    1    2    0    0 -0.23890789155E+02  0.21096797630E+02  0.93562186476E+00  0.59301951876E+02  0.50000014313E+02 0.  0.
        -12    1    1    2    0    0  0.23890789155E+02 -0.21096797630E+02 -0.93562186476E+00  0.31886048124E+02  0.00000000000E+00 0.  1.
         11    1    3    3    0    0 -0.14915410896E+02  0.20037827842E+02  0.71678422003E+01  0.25987727659E+02  0.51100000000E-03 0. -1.
        -11    1    3    3    0    0  0.17133256193E+01  0.80918429000E+01  0.97859549070E+01  0.12813208806E+02  0.51100000000E-03 0.  1.
         12    1    3    3    0    0 -0.10688703878E+02 -0.70328731113E+01 -0.16018175242E+02  0.20501015411E+02  0.00000000000E+00 0. -1.
</event>
<event>
 7    1  0.1324280E-011  0.5930190E+02  0.7816164E-02  0.1266605E+00
        -11   -1    0    0    0    0  0.00000000000E+00  0.00000000000E+00  0.45593999997E+02  0.45594000000E+02  0.51100000000E-03 0. -1.
         11   -1    0    0    0    0 -0.00000000000E+00 -0.00000000000E+00 -0.45593999997E+02  0.45594000000E+02  0.51100000000E-03 0.  1.
    9900012    2    1    2    0    0  0.30055037396E+02 -0.84316533137E+01  0.65057903648E+01  0.59301900227E+02  0.49999920118E+02 0.  0.
        -12    1    1    2    0    0 -0.30055037396E+02  0.84316533137E+01 -0.65057903648E+01  0.31886099773E+02  0.00000000000E+00 0.  1.
         11    1    3    3    0    0  0.92360341744E+01 -0.59265906405E+01 -0.58488614381E+01  0.12435352197E+02  0.51100000000E-03 0. -1.
        -11    1    3    3    0    0  0.36545712334E+01 -0.19760372644E+02  0.13067507890E+01  0.20137919848E+02  0.51100000000E-03 0.  1.
         12    1    3    3    0    0  0.17164431988E+02  0.17255309970E+02  0.11047901014E+02  0.26728628181E+02  0.00000000000E+00 0. -1.
</event>
<event>
 7    1  0.1324280E-011  0.5930199E+02  0.7816164E-02  0.1266605E+00
        -11   -1    0    0    0    0  0.00000000000E+00  0.00000000000E+00  0.45593999997E+02  0.45594000000E+02  0.51100000000E-03 0. -1.
         11   -1    0    0    0    0 -0.00000000000E+00 -0.00000000000E+00 -0.45593999997E+02  0.45594000000E+02  0.51100000000E-03 0.  1.
    9900012    2    1    2    0    0  0.31668806126E+02  0.35020148963E+01  0.12409642654E+01  0.59301993945E+02  0.50000091038E+02 0.  0.
        -12    1    1    2    0    0 -0.31668806126E+02 -0.35020148963E+01 -0.12409642654E+01  0.31886006055E+02  0.00000000000E+00 0.  1.
         11    1    3    3    0    0  0.15545117609E+02 -0.75298877690E+01 -0.99265747928E+01  0.19922017435E+02  0.51100000000E-03 0. -1.
        -11    1    3    3    0    0  0.14965424870E+02 -0.89990794805E+01  0.73947750243E+01  0.18963914969E+02  0.51100000000E-03 0.  1.
        -12    1    3    3    0    0  0.11582636471E+01  0.20030982146E+02  0.37727640340E+01  0.20416061541E+02  0.00000000000E+00 0.  1.
</event>
<event>
 7    1  0.1324280E-011  0.5930193E+02  0.7816164E-02  0.1266605E+00
        -11   -1    0    0    0    0  0.00000000000E+00  0.00000000000E+00  0.45593999997E+02  0.45594000000E+02  0.51100000000E-03 0.  1.
         11   -1    0    0    0    0 -0.00000000000E+00 -0.00000000000E+00 -0.45593999997E+02  0.45594000000E+02  0.51100000000E-03 0. -1.
    9900012    2    1    2    0    0 -0.59774460638E+01 -0.66920859938E+01 -0.30597504309E+02  0.59301934919E+02  0.49999983389E+02 0.  0.
        -12    1    1    2    0    0  0.59774460638E+01  0.66920859938E+01  0.30597504309E+02  0.31886065081E+02  0.00000000000E+00 0.  1.
         11    1    3    3    0    0  0.35280645680E+01 -0.59724834848E+01 -0.31373244008E+02  0.32130954521E+02  0.51100000000E-03 0. -1.
        -11    1    3    3    0    0  0.22777155184E+01 -0.83266916001E+01 -0.70181857176E+01  0.11125498282E+02  0.51100000000E-03 0.  1.
        -12    1    3    3    0    0 -0.11783226150E+02  0.76070890911E+01  0.77939254171E+01  0.16045482117E+02  0.00000000000E+00 0.  1.
</event>
<event>
 7    1  0.1324280E-011  0.5930195E+02  0.7816164E-02  0.1266605E+00
        -11   -1    0    0    0    0  0.00000000000E+00  0.00000000000E+00  0.45593999997E+02  0.45594000000E+02  0.51100000000E-03 0. -1.
         11   -1    0    0    0    0 -0.00000000000E+00 -0.00000000000E+00 -0.45593999997E+02  0.45594000000E+02  0.51100000000E-03 0.  1.
    9900012    2    1    2    0    0 -0.56150630348E+01 -0.31384179445E+02  0.47405830517E+00  0.59301946880E+02  0.50000005202E+02 0.  0.
        -12    1    1    2    0    0  0.56150630348E+01  0.31384179445E+02 -0.47405830517E+00  0.31886053120E+02  0.00000000000E+00 0.  1.
         11    1    3    3    0    0  0.12714010542E+01  0.40101130455E+01 -0.39854238665E+01  0.57949176815E+01  0.51100000000E-03 0. -1.
        -11    1    3    3    0    0 -0.13998791121E+02 -0.53074246808E+01 -0.11346258004E+02  0.18784900334E+02  0.51100000000E-03 0.  1.
         12    1    3    3    0    0  0.71123270321E+01 -0.30086867809E+02  0.15805740176E+02  0.34722128865E+02  0.00000000000E+00 0. -1.
</event>
<event>
 7    1  0.1324280E-011  0.5930195E+02  0.7816164E-02  0.1266605E+00
        -11   -1    0    0    0    0  0.00000000000E+00  0.00000000000E+00  0.45593999997E+02  0.45594000000E+02  0.51100000000E-03 0. -1.
         11   -1    0    0    0    0 -0.00000000000E+00 -0.00000000000E+00 -0.45593999997E+02  0.45594000000E+02  0.51100000000E-03 0.  1.
    9900012    2    1    2    0    0 -0.20021170760E+02 -0.23846364401E+02  0.68719480286E+01  0.59301952213E+02  0.50000014929E+02 0.  0.
        -12    1    1    2    0    0  0.20021170760E+02  0.23846364401E+02 -0.68719480286E+01  0.31886047787E+02  0.00000000000E+00 0.  1.
         11    1    3    3    0    0 -0.38903848460E+01  0.48833583683E+01 -0.50657639907E+01  0.80401646920E+01  0.51100000000E-03 0. -1.
        -11    1    3    3    0    0 -0.10965821732E+02 -0.10383491968E+02 -0.12964154885E+02  0.19903152109E+02  0.51100000000E-03 0.  1.
         12    1    3    3    0    0 -0.51649641822E+01 -0.18346230801E+02  0.24901866905E+02  0.31358635413E+02  0.00000000000E+00 0. -1.
</event>
<event>
 7    1  0.1324280E-011  0.5930193E+02  0.7816164E-02  0.1266605E+00
        -11   -1    0    0    0    0  0.00000000000E+00  0.00000000000E+00  0.45593999997E+02  0.45594000000E+02  0.51100000000E-03 0.  1.
         11   -1    0    0    0    0 -0.00000000000E+00 -0.00000000000E+00 -0.45593999997E+02  0.45594000000E+02  0.51100000000E-03 0. -1.
    9900012    2    1    2    0    0  0.28188464753E+02 -0.13289894489E+02  0.67461663221E+01  0.59301927794E+02  0.49999970393E+02 0.  0.
        -12    1    1    2    0    0 -0.28188464753E+02  0.13289894489E+02 -0.67461663221E+01  0.31886072206E+02  0.00000000000E+00 0.  1.
         11    1    3    3    0    0  0.13110478602E+02 -0.87083092499E+01 -0.15295772286E+02  0.21947208234E+02  0.51100000000E-03 0. -1.
        -11    1    3    3    0    0  0.31088284388E+01  0.33504431487E+01 -0.49770256765E+01  0.67572974183E+01  0.51100000000E-03 0.  1.
        -12    1    3    3    0    0  0.11969157713E+02 -0.79320283881E+01  0.27018964285E+02  0.30597422142E+02  0.00000000000E+00 0.  1.
</event>
<event>
 7    1  0.1324280E-011  0.5930194E+02  0.7816164E-02  0.1266605E+00
        -11   -1    0    0    0    0  0.00000000000E+00  0.00000000000E+00  0.45593999997E+02  0.45594000000E+02  0.51100000000E-03 0.  1.
         11   -1    0    0    0    0 -0.00000000000E+00 -0.00000000000E+00 -0.45593999997E+02  0.45594000000E+02  0.51100000000E-03 0. -1.
    9900012    2    1    2    0    0 -0.27489837872E+02 -0.98992192716E+01 -0.12768531021E+02  0.59301935445E+02  0.49999984346E+02 0.  0.
        -12    1    1    2    0    0  0.27489837872E+02  0.98992192716E+01  0.12768531021E+02  0.31886064555E+02  0.00000000000E+00 0.  1.
         11    1    3    3    0    0 -0.22024714195E+02 -0.12202381141E+01 -0.11195426747E+02  0.24736907582E+02  0.51100000000E-03 0. -1.
        -11    1    3    3    0    0 -0.25483130592E+01  0.76907267590E+01 -0.12335581289E+02  0.14758310998E+02  0.51100000000E-03 0.  1.
        -12    1    3    3    0    0 -0.29168106172E+01 -0.16369707916E+02  0.10762477014E+02  0.19806716864E+02  0.00000000000E+00 0.  1.
</event>
<event>
 7    1  0.1324280E-011  0.5930192E+02  0.7816164E-02  0.1266605E+00
        -11   -1    0    0    0    0  0.00000000000E+00  0.00000000000E+00  0.45593999997E+02  0.45594000000E+02  0.51100000000E-03 0. -1.
         11   -1    0    0    0    0 -0.00000000000E+00 -0.00000000000E+00 -0.45593999997E+02  0.45594000000E+02  0.51100000000E-03 0.  1.
    9900012    2    1    2    0    0 -0.55999739031E+00  0.11347935466E+02  0.29793163369E+02  0.59301924357E+02  0.49999964125E+02 0.  0.
        -12    1    1    2    0    0  0.55999739031E+00 -0.11347935466E+02 -0.29793163369E+02  0.31886075643E+02  0.00000000000E+00 0.  1.
         11    1    3    3    0    0  0.17843987758E+01  0.18454183301E+02 -0.68473264848E+01  0.19764281939E+02  0.51100000000E-03 0.  1.
        -11    1    3    3    0    0 -0.25441497736E+01  0.33886252097E+01  0.83734482773E+01  0.93845679281E+01  0.51100000000E-03 0. -1.
        -12    1    3    3    0    0  0.19975360745E+00 -0.10494873045E+02  0.28267041576E+02  0.30153074490E+02  0.00000000000E+00 0.  1.
</event>
<event>
 7    1  0.1324280E-011  0.5930191E+02  0.7816164E-02  0.1266605E+00
        -11   -1    0    0    0    0  0.00000000000E+00  0.00000000000E+00  0.45593999997E+02  0.45594000000E+02  0.51100000000E-03 0.  1.
         11   -1    0    0    0    0 -0.00000000000E+00 -0.00000000000E+00 -0.45593999997E+02  0.45594000000E+02  0.51100000000E-03 0. -1.
    9900012    2    1    2    0    0  0.18119448172E+01  0.30815185701E+02  0.79914887544E+01  0.59301910457E+02  0.49999938775E+02 0.  0.
        -12    1    1    2    0    0 -0.18119448172E+01 -0.30815185701E+02 -0.79914887544E+01  0.31886089543E+02  0.00000000000E+00 0.  1.
         11    1    3    3    0    0  0.86332329902E+01  0.24326484109E+02 -0.43065253061E+01  0.26169766935E+02  0.51100000000E-03 0. -1.
        -11    1    3    3    0    0  0.53997055898E+01 -0.66176128827E+01 -0.35118500736E+01  0.92348639363E+01  0.51100000000E-03 0.  1.
        -12    1    3    3    0    0 -0.12220993763E+02  0.13106314475E+02  0.15809864134E+02  0.23897279586E+02  0.00000000000E+00 0.  1.
</event>
<event>
 7    1  0.1324280E-011  0.5930196E+02  0.7816164E-02  0.1266605E+00
        -11   -1    0    0    0    0  0.00000000000E+00  0.00000000000E+00  0.45593999997E+02  0.45594000000E+02  0.51100000000E-03 0. -1.
         11   -1    0    0    0    0 -0.00000000000E+00 -0.00000000000E+00 -0.45593999997E+02  0.45594000000E+02  0.51100000000E-03 0.  1.
    9900012    2    1    2    0    0 -0.23726569096E+02  0.87312128340E+00  0.21283967868E+02  0.59301957442E+02  0.50000024464E+02 0.  0.
        -12    1    1    2    0    0  0.23726569096E+02 -0.87312128340E+00 -0.21283967868E+02  0.31886042558E+02  0.00000000000E+00 0.  1.
         11    1    3    3    0    0 -0.95397092473E+01 -0.44069629752E+01 -0.42668991587E+01  0.11341684349E+02  0.51100000000E-03 0. -1.
        -11    1    3    3    0    0 -0.19395788532E+02  0.66632510026E+01 -0.13232518753E+01  0.20551071079E+02  0.51100000000E-03 0.  1.
         12    1    3    3    0    0  0.52089286837E+01 -0.13831667440E+01  0.26874118902E+02  0.27409202013E+02  0.00000000000E+00 0. -1.
</event>
<event>
 7    1  0.1324280E-011  0.5930194E+02  0.7816164E-02  0.1266605E+00
        -11   -1    0    0    0    0  0.00000000000E+00  0.00000000000E+00  0.45593999997E+02  0.45594000000E+02  0.51100000000E-03 0.  1.
         11   -1    0    0    0    0 -0.00000000000E+00 -0.00000000000E+00 -0.45593999997E+02  0.45594000000E+02  0.51100000000E-03 0. -1.
    9900012    2    1    2    0    0  0.25639973315E+02  0.11394632308E+02 -0.15148434674E+02  0.59301937996E+02  0.49999989000E+02 0.  0.
        -12    1    1    2    0    0 -0.25639973315E+02 -0.11394632308E+02  0.15148434674E+02  0.31886062004E+02  0.00000000000E+00 0.  1.
         11    1    3    3    0    0  0.26314309606E+01 -0.60782056087E+01  0.16674111714E+01  0.68300272765E+01  0.51100000000E-03 0. -1.
        -11    1    3    3    0    0 -0.28998715633E+00 -0.12061867474E+02 -0.34335781214E+01  0.12544409053E+02  0.51100000000E-03 0.  1.
         12    1    3    3    0    0  0.23298529511E+02  0.29534705391E+02 -0.13382267724E+02  0.39927501667E+02  0.00000000000E+00 0. -1.
</event>
<event>
 7    1  0.1324280E-011  0.5930222E+02  0.7816164E-02  0.1266604E+00
        -11   -1    0    0    0    0  0.00000000000E+00  0.00000000000E+00  0.45593999997E+02  0.45594000000E+02  0.51100000000E-03 0.  1.
         11   -1    0    0    0    0 -0.00000000000E+00 -0.00000000000E+00 -0.45593999997E+02  0.45594000000E+02  0.51100000000E-03 0. -1.
    9900012    2    1    2    0    0 -0.30612343867E+02 -0.11534266463E+01 -0.88462918439E+01  0.59302221517E+02  0.50000506072E+02 0.  0.
        -12    1    1    2    0    0  0.30612343867E+02  0.11534266463E+01  0.88462918439E+01  0.31885778483E+02  0.00000000000E+00 0.  1.
         11    1    3    3    0    0 -0.33807908154E+02 -0.20817163353E+01 -0.16655236617E+02  0.37745265977E+02  0.51100000000E-03 0. -1.
        -11    1    3    3    0    0 -0.80979945917E+01  0.13982622573E+01  0.79940094582E+00  0.82566152800E+01  0.51100000000E-03 0.  1.
        -12    1    3    3    0    0  0.11293558879E+02 -0.46997256824E+00  0.70095438273E+01  0.13300340260E+02  0.00000000000E+00 0.  1.
</event>
<event>
 7    1  0.1324280E-011  0.5930201E+02  0.7816164E-02  0.1266605E+00
        -11   -1    0    0    0    0  0.00000000000E+00  0.00000000000E+00  0.45593999997E+02  0.45594000000E+02  0.51100000000E-03 0.  1.
         11   -1    0    0    0    0 -0.00000000000E+00 -0.00000000000E+00 -0.45593999997E+02  0.45594000000E+02  0.51100000000E-03 0. -1.
    9900012    2    1    2    0    0 -0.10212496759E+02 -0.28681919193E+02  0.94746442782E+01  0.59302008360E+02  0.50000117327E+02 0.  0.
        -12    1    1    2    0    0  0.10212496759E+02  0.28681919193E+02 -0.94746442782E+01  0.31885991640E+02  0.00000000000E+00 0.  1.
         11    1    3    3    0    0  0.50372292854E+01  0.35125041811E+01  0.11415247912E+02  0.12962223947E+02  0.51100000000E-03 0.  1.
        -11    1    3    3    0    0  0.68545611706E+01 -0.79808407391E+01 -0.77195229934E+01  0.13048749490E+02  0.51100000000E-03 0. -1.
         12    1    3    3    0    0 -0.22104287215E+02 -0.24213582635E+02  0.57789193597E+01  0.33291034923E+02  0.00000000000E+00 0. -1.
</event>
<event>
 7    1  0.1324280E-011  0.5930194E+02  0.7816164E-02  0.1266605E+00
        -11   -1    0    0    0    0  0.00000000000E+00  0.00000000000E+00  0.45593999997E+02  0.45594000000E+02  0.51100000000E-03 0.  1.
         11   -1    0    0    0    0 -0.00000000000E+00 -0.00000000000E+00 -0.45593999997E+02  0.45594000000E+02  0.51100000000E-03 0. -1.
    9900012    2    1    2    0    0  0.17207137262E+02 -0.20184223750E+02 -0.17698374639E+02  0.59301938374E+02  0.49999989689E+02 0.  0.
        -12    1    1    2    0    0 -0.17207137262E+02  0.20184223750E+02  0.17698374639E+02  0.31886061626E+02  0.00000000000E+00 0.  1.
         11    1    3    3    0    0  0.54714951937E+01  0.68138658454E+01  0.55839013846E+01  0.10370437905E+02  0.51100000000E-03 0.  1.
        -11    1    3    3    0    0 -0.17210621919E+01  0.65882186774E+01 -0.45349079047E+01  0.81812022573E+01  0.51100000000E-03 0. -1.
        -12    1    3    3    0    0  0.13456704260E+02 -0.33586308273E+02 -0.18747368119E+02  0.40750298212E+02  0.00000000000E+00 0.  1.
</event>
<event>
 7    1  0.1324280E-011  0.5930225E+02  0.7816164E-02  0.1266604E+00
        -11   -1    0    0    0    0  0.00000000000E+00  0.00000000000E+00  0.45593999997E+02  0.45594000000E+02  0.51100000000E-03 0. -1.
         11   -1    0    0    0    0 -0.00000000000E+00 -0.00000000000E+00 -0.45593999997E+02  0.45594000000E+02  0.51100000000E-03 0.  1.
    9900012    2    1    2    0    0  0.28004530618E+02 -0.14787366145E+02  0.37123072565E+01  0.59302248358E+02  0.50000555021E+02 0.  0.
        -12    1    1    2    0    0 -0.28004530618E+02  0.14787366145E+02 -0.37123072565E+01  0.31885751642E+02  0.00000000000E+00 0.  1.
         11    1    3    3    0    0  0.28576992116E+02 -0.23181076265E+02  0.22496886910E+01  0.36865537764E+02  0.51100000000E-03 0. -1.
        -11    1    3    3    0    0 -0.29852650656E+00 -0.67826471164E+01  0.24698177585E+01  0.72245013670E+01  0.51100000000E-03 0.  1.
        -12    1    3    3    0    0 -0.27393499103E+00  0.15176357236E+02 -0.10071991930E+01  0.15212209227E+02  0.00000000000E+00 0.  1.
</event>
<event>
 7    1  0.1324280E-011  0.5930192E+02  0.7816164E-02  0.1266605E+00
        -11   -1    0    0    0    0  0.00000000000E+00  0.00000000000E+00  0.45593999997E+02  0.45594000000E+02  0.51100000000E-03 0. -1.
         11   -1    0    0    0    0 -0.00000000000E+00 -0.00000000000E+00 -0.45593999997E+02  0.45594000000E+02  0.51100000000E-03 0.  1.
    9900012    2    1    2    0    0 -0.42810005927E+01  0.31328376060E+02  0.41143528411E+01  0.59301921346E+02  0.49999958633E+02 0.  0.
        -12    1    1    2    0    0  0.42810005927E+01 -0.31328376060E+02 -0.41143528411E+01  0.31886078654E+02  0.00000000000E+00 0.  1.
         11    1    3    3    0    0  0.16197721580E+02  0.74912496468E+01  0.41145730928E+01  0.18314330937E+02  0.51100000000E-03 0. -1.
        -11    1    3    3    0    0  0.52843052794E+00  0.40638261373E+01  0.97169210721E+01  0.10545732648E+02  0.51100000000E-03 0.  1.
        -12    1    3    3    0    0 -0.21007152701E+02  0.19773300276E+02 -0.97171413238E+01  0.30441857761E+02  0.00000000000E+00 0.  1.
</event>
<event>
 7    1  0.1324280E-011  0.5930198E+02  0.7816164E-02  0.1266605E+00
        -11   -1    0    0    0    0  0.00000000000E+00  0.00000000000E+00  0.45593999997E+02  0.45594000000E+02  0.51100000000E-03 0.  1.
         11   -1    0    0    0    0 -0.00000000000E+00 -0.00000000000E+00 -0.45593999997E+02  0.45594000000E+02  0.51100000000E-03 0. -1.
    9900012    2    1    2    0    0 -0.10084654984E+02  0.23063365380E+02 -0.19572918323E+02  0.59301980799E+02  0.50000067062E+02 0.  0.
        -12    1    1    2    0    0  0.10084654984E+02 -0.23063365380E+02  0.19572918323E+02  0.31886019201E+02  0.00000000000E+00 0.  1.
         11    1    3    3    0    0 -0.43327405233E+01 -0.88967988574E+01 -0.85009448240E+01  0.13045755383E+02  0.51100000000E-03 0. -1.
        -11    1    3    3    0    0 -0.12489460940E+02  0.27735072129E+01 -0.10076581698E+02  0.16285468240E+02  0.51100000000E-03 0.  1.
        -12    1    3    3    0    0  0.67375464793E+01  0.29186657025E+02 -0.99539180159E+00  0.29970757175E+02  0.00000000000E+00 0.  1.
</event>
<event>
 7    1  0.1324280E-011  0.5930195E+02  0.7816164E-02  0.1266605E+00
        -11   -1    0    0    0    0  0.00000000000E+00  0.00000000000E+00  0.45593999997E+02  0.45594000000E+02  0.51100000000E-03 0.  1.
         11   -1    0    0    0    0 -0.00000000000E+00 -0.00000000000E+00 -0.45593999997E+02  0.45594000000E+02  0.51100000000E-03 0. -1.
    9900012    2    1    2    0    0  0.14748159541E+02 -0.17821611441E+02 -0.21945429358E+02  0.59301954244E+02  0.50000018632E+02 0.  0.
        -12    1    1    2    0    0 -0.14748159541E+02  0.17821611441E+02  0.21945429358E+02  0.31886045756E+02  0.00000000000E+00 0.  1.
         11    1    3    3    0    0  0.15328280161E+01 -0.22476057789E+02 -0.17921249866E+01  0.22599434676E+02  0.51100000000E-03 0. -1.
        -11    1    3    3    0    0 -0.62961838755E+01 -0.33216840002E+01 -0.12293781906E+02  0.14206075806E+02  0.51100000000E-03 0.  1.
        -12    1    3    3    0    0  0.19511515401E+02  0.79761303475E+01 -0.78595224658E+01  0.22496443762E+02  0.00000000000E+00 0.  1.
</event>
<event>
 7    1  0.1324280E-011  0.5930195E+02  0.7816164E-02  0.1266605E+00
        -11   -1    0    0    0    0  0.00000000000E+00  0.00000000000E+00  0.45593999997E+02  0.45594000000E+02  0.51100000000E-03 0.  1.
         11   -1    0    0    0    0 -0.00000000000E+00 -0.00000000000E+00 -0.45593999997E+02  0.45594000000E+02  0.51100000000E-03 0. -1.
    9900012    2    1    2    0    0 -0.17879228990E+02 -0.24875332178E+02 -0.88470891865E+01  0.59301953408E+02  0.50000017107E+02 0.  0.
        -12    1    1    2    0    0  0.17879228990E+02  0.24875332178E+02  0.88470891865E+01  0.31886046592E+02  0.00000000000E+00 0.  1.
         11    1    3    3    0    0 -0.32489147731E+01 -0.89299119005E-01 -0.12526948160E+02  0.12941709779E+02  0.51100000000E-03 0. -1.
        -11    1    3    3    0    0  0.73439217687E+01  0.66523507562E+00 -0.78910023966E+01  0.10800168690E+02  0.51100000000E-03 0.  1.
        -12    1    3    3    0    0 -0.21974235985E+02 -0.25451268134E+02  0.11570861370E+02  0.35560074939E+02  0.00000000000E+00 0.  1.
</event>
<event>
 7    1  0.1324280E-011  0.5930192E+02  0.7816164E-02  0.1266605E+00
        -11   -1    0    0    0    0  0.00000000000E+00  0.00000000000E+00  0.45593999997E+02  0.45594000000E+02  0.51100000000E-03 0. -1.
         11   -1    0    0    0    0 -0.00000000000E+00 -0.00000000000E+00 -0.45593999997E+02  0.45594000000E+02  0.51100000000E-03 0.  1.
    9900012    2    1    2    0    0 -0.25016586279E+02  0.19739609237E+02 -0.11136321893E+01  0.59301922497E+02  0.49999960733E+02 0.  0.
        -12    1    1    2    0    0  0.25016586279E+02 -0.19739609237E+02  0.11136321893E+01  0.31886077503E+02  0.00000000000E+00 0.  1.
         11    1    3    3    0    0 -0.20935862167E+02  0.11037732454E+02  0.80445522987E+01  0.24997133523E+02  0.51100000000E-03 0. -1.
        -11    1    3    3    0    0 -0.13658683088E+02 -0.20367951190E+01  0.44407162077E+01  0.14506140725E+02  0.51100000000E-03 0.  1.
         12    1    3    3    0    0  0.95779589757E+01  0.10738671901E+02 -0.13598900696E+02  0.19798648249E+02  0.00000000000E+00 0. -1.
</event>
<event>
 7    1  0.1324280E-011  0.5930194E+02  0.7816164E-02  0.1266605E+00
        -11   -1    0    0    0    0  0.00000000000E+00  0.00000000000E+00  0.45593999997E+02  0.45594000000E+02  0.51100000000E-03 0. -1.
         11   -1    0    0    0    0 -0.00000000000E+00 -0.00000000000E+00 -0.45593999997E+02  0.45594000000E+02  0.51100000000E-03 0.  1.
    9900012    2    1    2    0    0 -0.26416538149E+02  0.46709925690E+01  0.17235692068E+02  0.59301941284E+02  0.49999994997E+02 0.  0.
        -12    1    1    2    0    0  0.26416538149E+02 -0.46709925690E+01 -0.17235692068E+02  0.31886058716E+02  0.00000000000E+00 0.  1.
         11    1    3    3    0    0  0.45258233439E+01 -0.11089212939E+02 -0.31520200688E+01  0.12385029323E+02  0.51100000000E-03 0.  1.
        -11    1    3    3    0    0 -0.13958130144E+01  0.12035496526E+02  0.31964966510E+01  0.12530724708E+02  0.51100000000E-03 0. -1.
         12    1    3    3    0    0 -0.29546548478E+02  0.37247089820E+01  0.17191215486E+02  0.34386187254E+02  0.00000000000E+00 0. -1.
</event>
<event>
 7    1  0.1350140E-011  0.5930194E+02  0.7816164E-02  0.1266605E+00
        -11   -1    0    0    0    0  0.00000000000E+00  0.00000000000E+00  0.45593999997E+02  0.45594000000E+02  0.51100000000E-03 0.  1.
         11   -1    0    0    0    0 -0.00000000000E+00 -0.00000000000E+00 -0.45593999997E+02  0.45594000000E+02  0.51100000000E-03 0. -1.
    9900012    2    1    2    0    0 -0.30145548420E+02 -0.43517275935E+01  0.94355128673E+01  0.59301944652E+02  0.50000001138E+02 0.  0.
        -12    1    1    2    0    0  0.30145548420E+02  0.43517275935E+01 -0.94355128673E+01  0.31886055348E+02  0.00000000000E+00 0.  1.
         11    1    3    3    0    0 -0.69488268757E+01 -0.99559814954E+00 -0.60763508971E+01  0.92843659509E+01  0.51100000000E-03 0. -1.
        -11    1    3    3    0    0  0.11937950698E+02 -0.16516916772E+01  0.65556909470E+01  0.13719323464E+02  0.51100000000E-03 0.  1.
         12    1    3    3    0    0 -0.35134672242E+02 -0.17044377667E+01  0.89561728174E+01  0.36298255237E+02  0.00000000000E+00 0. -1.
</event>
<event>
 7    1  0.1324280E-011  0.5930213E+02  0.7816164E-02  0.1266604E+00
        -11   -1    0    0    0    0  0.00000000000E+00  0.00000000000E+00  0.45593999997E+02  0.45594000000E+02  0.51100000000E-03 0.  1.
         11   -1    0    0    0    0 -0.00000000000E+00 -0.00000000000E+00 -0.45593999997E+02  0.45594000000E+02  0.51100000000E-03 0. -1.
    9900012    2    1    2    0    0  0.14500712898E+02  0.15917740581E+02 -0.23517302288E+02  0.59302130925E+02  0.50000340855E+02 0.  0.
        -12    1    1    2    0    0 -0.14500712898E+02 -0.15917740581E+02  0.23517302288E+02  0.31885869075E+02  0.00000000000E+00 0.  1.
         11    1    3    3    0    0  0.88582527598E+01  0.19186575034E+02 -0.25754341772E+02  0.33314852902E+02  0.51100000000E-03 0. -1.
        -11    1    3    3    0    0  0.45041348252E+01  0.10813893633E+02  0.17996789041E+01  0.11851850929E+02  0.51100000000E-03 0.  1.
        -12    1    3    3    0    0  0.11383253128E+01 -0.14082728086E+02  0.43736058017E+00  0.14135427094E+02  0.00000000000E+00 0.  1.
</event>
<event>
 7    1  0.1324280E-011  0.5930196E+02  0.7816164E-02  0.1266605E+00
        -11   -1    0    0    0    0  0.00000000000E+00  0.00000000000E+00  0.45593999997E+02  0.45594000000E+02  0.51100000000E-03 0.  1.
         11   -1    0    0    0    0 -0.00000000000E+00 -0.00000000000E+00 -0.45593999997E+02  0.45594000000E+02  0.51100000000E-03 0. -1.
    9900012    2    1    2    0    0 -0.14780625667E+02 -0.18242259452E+02 -0.21574810505E+02  0.59301962721E+02  0.50000034092E+02 0.  0.
        -12    1    1    2    0    0  0.14780625667E+02  0.18242259452E+02  0.21574810505E+02  0.31886037279E+02  0.00000000000E+00 0.  1.
         11    1    3    3    0    0  0.92710698876E+01 -0.40952069435E+01 -0.15175968084E+02  0.18249204485E+02  0.51100000000E-03 0. -1.
        -11    1    3    3    0    0 -0.95770341188E+01  0.83167699557E+01 -0.66637197750E+01  0.14328063599E+02  0.51100000000E-03 0.  1.
         12    1    3    3    0    0 -0.14474661436E+02 -0.22463822465E+02  0.26487735482E+00  0.26724694637E+02  0.00000000000E+00 0. -1.
</event>
<event>
 7    1  0.1324280E-011  0.5930177E+02  0.7816164E-02  0.1266605E+00
        -11   -1    0    0    0    0  0.00000000000E+00  0.00000000000E+00  0.45593999997E+02  0.45594000000E+02  0.51100000000E-03 0.  1.
         11   -1    0    0    0    0 -0.00000000000E+00 -0.00000000000E+00 -0.45593999997E+02  0.45594000000E+02  0.51100000000E-03 0. -1.
    9900012    2    1    2    0    0 -0.44250513019E+01 -0.12166410205E+02 -0.29139818935E+02  0.59301769997E+02  0.49999682608E+02 0.  0.
        -12    1    1    2    0    0  0.44250513019E+01  0.12166410205E+02  0.29139818935E+02  0.31886230003E+02  0.00000000000E+00 0.  1.
         11    1    3    3    0    0  0.17244271358E+02  0.66947676630E+01 -0.15205199863E+02  0.23945415258E+02  0.51100000000E-03 0. -1.
        -11    1    3    3    0    0 -0.60131644951E+01  0.16984529410E+01 -0.60127525598E+00  0.62772941489E+01  0.51100000000E-03 0.  1.
         12    1    3    3    0    0 -0.15656158165E+02 -0.20559630809E+02 -0.13333343816E+02  0.29079060590E+02  0.00000000000E+00 0. -1.
</event>
<event>
 7    1  0.1324280E-011  0.5930195E+02  0.7816164E-02  0.1266605E+00
        -11   -1    0    0    0    0  0.00000000000E+00  0.00000000000E+00  0.45593999997E+02  0.45594000000E+02  0.51100000000E-03 0. -1.
         11   -1    0    0    0    0 -0.00000000000E+00 -0.00000000000E+00 -0.45593999997E+02  0.45594000000E+02  0.51100000000E-03 0.  1.
    9900012    2    1    2    0    0  0.22248835296E+02  0.19994157456E+02  0.11042794331E+02  0.59301948018E+02  0.50000007276E+02 0.  0.
        -12    1    1    2    0    0 -0.22248835296E+02 -0.19994157456E+02 -0.11042794331E+02  0.31886051982E+02  0.00000000000E+00 0.  1.
         11    1    3    3    0    0  0.88992338119E+01  0.91629397760E+00  0.96211377160E+01  0.13137817486E+02  0.51100000000E-03 0. -1.
        -11    1    3    3    0    0 -0.78220226413E+01  0.22511998356E+02  0.51809079713E+01  0.24388848186E+02  0.51100000000E-03 0.  1.
         12    1    3    3    0    0  0.21171624125E+02 -0.34341348776E+01 -0.37592513561E+01  0.21775282345E+02  0.00000000000E+00 0. -1.
</event>
<event>
 7    1  0.4536875E-011  0.5930226E+02  0.7816164E-02  0.1266604E+00
        -11   -1    0    0    0    0  0.00000000000E+00  0.00000000000E+00  0.45593999997E+02  0.45594000000E+02  0.51100000000E-03 0. -1.
         11   -1    0    0    0    0 -0.00000000000E+00 -0.00000000000E+00 -0.45593999997E+02  0.45594000000E+02  0.51100000000E-03 0.  1.
    9900012    2    1    2    0    0 -0.11345970111E+02  0.22249067309E+02  0.19822917848E+02  0.59302264853E+02  0.50000585104E+02 0.  0.
        -12    1    1    2    0    0  0.11345970111E+02 -0.22249067309E+02 -0.19822917848E+02  0.31885735147E+02  0.00000000000E+00 0.  1.
         11    1    3    3    0    0  0.44366197429E+01  0.70165958149E+01 -0.38758542119E+01  0.91617933674E+01  0.51100000000E-03 0. -1.
        -11    1    3    3    0    0 -0.99901358348E+01  0.28620086837E+01 -0.96008612489E+01  0.14148160470E+02  0.51100000000E-03 0.  1.
         12    1    3    3    0    0 -0.57924540186E+01  0.12370462811E+02  0.33299633309E+02  0.35992311015E+02  0.00000000000E+00 0. -1.
</event>
<event>
 7    1  0.1324280E-011  0.5930196E+02  0.7816164E-02  0.1266605E+00
        -11   -1    0    0    0    0  0.00000000000E+00  0.00000000000E+00  0.45593999997E+02  0.45594000000E+02  0.51100000000E-03 0.  1.
         11   -1    0    0    0    0 -0.00000000000E+00 -0.00000000000E+00 -0.45593999997E+02  0.45594000000E+02  0.51100000000E-03 0. -1.
    9900012    2    1    2    0    0 -0.85324312727E+01  0.12821324302E+02 -0.27920084038E+02  0.59301955514E+02  0.50000020949E+02 0.  0.
        -12    1    1    2    0    0  0.85324312727E+01 -0.12821324302E+02  0.27920084038E+02  0.31886044486E+02  0.00000000000E+00 0.  1.
         11    1    3    3    0    0  0.14340098506E+01  0.16932724148E+02 -0.15278033732E+01  0.17061878992E+02  0.51100000000E-03 0. -1.
        -11    1    3    3    0    0 -0.31191910009E+01  0.15898645423E+01  0.69208434611E+01  0.77559716501E+01  0.51100000000E-03 0.  1.
         12    1    3    3    0    0 -0.68472501223E+01 -0.57012643884E+01 -0.33313124126E+02  0.34484104873E+02  0.00000000000E+00 0. -1.
</event>
<event>
 7    1  0.1324280E-011  0.5930193E+02  0.7816164E-02  0.1266605E+00
        -11   -1    0    0    0    0  0.00000000000E+00  0.00000000000E+00  0.45593999997E+02  0.45594000000E+02  0.51100000000E-03 0. -1.
         11   -1    0    0    0    0 -0.00000000000E+00 -0.00000000000E+00 -0.45593999997E+02  0.45594000000E+02  0.51100000000E-03 0.  1.
    9900012    2    1    2    0    0  0.15755247699E+02 -0.16037894749E+01  0.27675286408E+02  0.59301930181E+02  0.49999974746E+02 0.  0.
        -12    1    1    2    0    0 -0.15755247699E+02  0.16037894749E+01 -0.27675286408E+02  0.31886069819E+02  0.00000000000E+00 0.  1.
         11    1    3    3    0    0 -0.17083840267E+01  0.49328527849E+01  0.15268282075E+02  0.16136048165E+02  0.51100000000E-03 0.  1.
        -11    1    3    3    0    0 -0.43024275161E+01  0.85226685074E+01 -0.56794468759E+01  0.11108684805E+02  0.51100000000E-03 0. -1.
        -12    1    3    3    0    0  0.21766059242E+02 -0.15059310767E+02  0.18086451209E+02  0.32057197211E+02  0.00000000000E+00 0.  1.
</event>
<event>
 7    1  0.1324280E-011  0.5930195E+02  0.7816164E-02  0.1266605E+00
        -11   -1    0    0    0    0  0.00000000000E+00  0.00000000000E+00  0.45593999997E+02  0.45594000000E+02  0.51100000000E-03 0.  1.
         11   -1    0    0    0    0 -0.00000000000E+00 -0.00000000000E+00 -0.45593999997E+02  0.45594000000E+02  0.51100000000E-03 0. -1.
    9900012    2    1    2    0    0 -0.28097244367E+02  0.82897877754E+01 -0.12591433525E+02  0.59301954139E+02  0.50000018441E+02 0.  0.
        -12    1    1    2    0    0  0.28097244367E+02 -0.82897877754E+01  0.12591433525E+02  0.31886045861E+02  0.00000000000E+00 0.  1.
         11    1    3    3    0    0 -0.13222270591E+02  0.11873262230E+02  0.35483541639E+01  0.18121633842E+02  0.51100000000E-03 0. -1.
        -11    1    3    3    0    0 -0.16304133713E+02  0.12858156840E+02 -0.12642258776E+02  0.24310155916E+02  0.51100000000E-03 0.  1.
        -12    1    3    3    0    0  0.14291599362E+01 -0.16441631295E+02 -0.34975289132E+01  0.16870164381E+02  0.00000000000E+00 0.  1.
</event>
<event>
 7    1  0.1324280E-011  0.5930194E+02  0.7816164E-02  0.1266605E+00
        -11   -1    0    0    0    0  0.00000000000E+00  0.00000000000E+00  0.45593999997E+02  0.45594000000E+02  0.51100000000E-03 0.  1.
         11   -1    0    0    0    0 -0.00000000000E+00 -0.00000000000E+00 -0.45593999997E+02  0.45594000000E+02  0.51100000000E-03 0. -1.
    9900012    2    1    2    0    0  0.25654853463E+02  0.13503623447E+02  0.13274080039E+02  0.59301944219E+02  0.50000000349E+02 0.  0.
        -12    1    1    2    0    0 -0.25654853463E+02 -0.13503623447E+02 -0.13274080039E+02  0.31886055781E+02  0.00000000000E+00 0.  1.
         11    1    3    3    0    0  0.24379329857E+02  0.94468867101E+00  0.18339668049E+02  0.30521919752E+02  0.51100000000E-03 0.  1.
        -11    1    3    3    0    0  0.91836103719E+01  0.25193005240E+01 -0.11118281315E+02  0.14639048953E+02  0.51100000000E-03 0. -1.
        -12    1    3    3    0    0 -0.79080867667E+01  0.10039634252E+02  0.60526933054E+01  0.14140975513E+02  0.00000000000E+00 0.  1.
</event>
<event>
 7    1  0.1324280E-011  0.5930194E+02  0.7816164E-02  0.1266605E+00
        -11   -1    0    0    0    0  0.00000000000E+00  0.00000000000E+00  0.45593999997E+02  0.45594000000E+02  0.51100000000E-03 0. -1.
         11   -1    0    0    0    0 -0.00000000000E+00 -0.00000000000E+00 -0.45593999997E+02  0.45594000000E+02  0.51100000000E-03 0.  1.
    9900012    2    1    2    0    0 -0.21957143387E+00 -0.99424848803E+01  0.30295538110E+02  0.59301939620E+02  0.49999991961E+02 0.  0.
        -12    1    1    2    0    0  0.21957143387E+00  0.99424848803E+01 -0.30295538110E+02  0.31886060380E+02  0.00000000000E+00 0.  1.
         11    1    3    3    0    0  0.13914711388E+02  0.53029694650E+00  0.12508960371E+02  0.18718293129E+02  0.51100000000E-03 0. -1.
        -11    1    3    3    0    0  0.74449465360E+01 -0.12669530683E+02  0.57743250362E+01  0.15788827269E+02  0.51100000000E-03 0.  1.
        -12    1    3    3    0    0 -0.21579229358E+02  0.21967488561E+01  0.12012252703E+02  0.24794819221E+02  0.00000000000E+00 0.  1.
</event>
<event>
 7    1  0.1324280E-011  0.5930193E+02  0.7816164E-02  0.1266605E+00
        -11   -1    0    0    0    0  0.00000000000E+00  0.00000000000E+00  0.45593999997E+02  0.45594000000E+02  0.51100000000E-03 0. -1.
         11   -1    0    0    0    0 -0.00000000000E+00 -0.00000000000E+00 -0.45593999997E+02  0.45594000000E+02  0.51100000000E-03 0.  1.
    9900012    2    1    2    0    0  0.29370710928E+02 -0.11404725529E+01  0.12360509659E+02  0.59301928792E+02  0.49999972214E+02 0.  0.
        -12    1    1    2    0    0 -0.29370710928E+02  0.11404725529E+01 -0.12360509659E+02  0.31886071208E+02  0.00000000000E+00 0.  1.
         11    1    3    3    0    0 -0.75956718884E+01  0.40486738050E+01 -0.88228384211E+01  0.12325926703E+02  0.51100000000E-03 0. -1.
        -11    1    3    3    0    0  0.26020349259E+01 -0.46403007253E+01  0.91075204063E+01  0.10547507041E+02  0.51100000000E-03 0.  1.
        -12    1    3    3    0    0  0.34364347890E+02 -0.54884563253E+00  0.12075827674E+02  0.36428495048E+02  0.00000000000E+00 0.  1.
</event>
<event>
 7    1  0.1324280E-011  0.5930194E+02  0.7816164E-02  0.1266605E+00
        -11   -1    0    0    0    0  0.00000000000E+00  0.00000000000E+00  0.45593999997E+02  0.45594000000E+02  0.51100000000E-03 0.  1.
         11   -1    0    0    0    0 -0.00000000000E+00 -0.00000000000E+00 -0.45593999997E+02  0.45594000000E+02  0.51100000000E-03 0. -1.
    9900012    2    1    2    0    0 -0.11892052633E+02 -0.27338343672E+02  0.11309953273E+02  0.59301937314E+02  0.49999987757E+02 0.  0.
        -12    1    1    2    0    0  0.11892052633E+02  0.27338343672E+02 -0.11309953273E+02  0.31886062686E+02  0.00000000000E+00 0.  1.
         11    1    3    3    0    0 -0.37437282783E+01 -0.15383359623E+02 -0.13859603648E+02  0.21041669807E+02  0.51100000000E-03 0. -1.
        -11    1    3    3    0    0  0.76040357128E+01 -0.10541585184E+02  0.11126273304E+02  0.17109656198E+02  0.51100000000E-03 0.  1.
         12    1    3    3    0    0 -0.15752360067E+02 -0.14133988655E+01  0.14043283617E+02  0.21150611310E+02  0.00000000000E+00 0. -1.
</event>
<event>
 7    1  0.1324280E-011  0.5930193E+02  0.7816164E-02  0.1266605E+00
        -11   -1    0    0    0    0  0.00000000000E+00  0.00000000000E+00  0.45593999997E+02  0.45594000000E+02  0.51100000000E-03 0.  1.
         11   -1    0    0    0    0 -0.00000000000E+00 -0.00000000000E+00 -0.45593999997E+02  0.45594000000E+02  0.51100000000E-03 0. -1.
    9900012    2    1    2    0    0 -0.26459632840E+02 -0.16828075012E+02 -0.57814310503E+01  0.59301933707E+02  0.49999981178E+02 0.  0.
        -12    1    1    2    0    0  0.26459632840E+02  0.16828075012E+02  0.57814310503E+01  0.31886066293E+02  0.00000000000E+00 0.  1.
         11    1    3    3    0    0 -0.18642606441E+02 -0.14504206407E+02 -0.12509563681E+02  0.26728411142E+02  0.51100000000E-03 0. -1.
        -11    1    3    3    0    0 -0.17709073788E+02 -0.49342079497E+01 -0.27969695315E+01  0.18595180594E+02  0.51100000000E-03 0.  1.
        -12    1    3    3    0    0  0.98920473892E+01  0.26103393447E+01  0.95251021623E+01  0.13978341971E+02  0.00000000000E+00 0.  1.
</event>
<event>
 7    1  0.1324280E-011  0.5930190E+02  0.7816164E-02  0.1266605E+00
        -11   -1    0    0    0    0  0.00000000000E+00  0.00000000000E+00  0.45593999997E+02  0.45594000000E+02  0.51100000000E-03 0.  1.
         11   -1    0    0    0    0 -0.00000000000E+00 -0.00000000000E+00 -0.45593999997E+02  0.45594000000E+02  0.51100000000E-03 0. -1.
    9900012    2    1    2    0    0 -0.26058203138E+02 -0.10326787804E+02 -0.15200359101E+02  0.59301899362E+02  0.49999918540E+02 0.  0.
        -12    1    1    2    0    0  0.26058203138E+02  0.10326787804E+02  0.15200359101E+02  0.31886100638E+02  0.00000000000E+00 0.  1.
         11    1    3    3    0    0 -0.14346985084E+02 -0.31613104615E+01  0.73655670670E+01  0.16434154779E+02  0.51100000000E-03 0. -1.
        -11    1    3    3    0    0 -0.10995176186E+02  0.12087178638E+02 -0.58333626022E+01  0.17349982891E+02  0.51100000000E-03 0.  1.
         12    1    3    3    0    0 -0.71604186769E+00 -0.19252655981E+02 -0.16732563565E+02  0.25517761691E+02  0.00000000000E+00 0. -1.
</event>
<event>
 7    1  0.1324280E-011  0.5930193E+02  0.7816164E-02  0.1266605E+00
        -11   -1    0    0    0    0  0.00000000000E+00  0.00000000000E+00  0.45593999997E+02  0.45594000000E+02  0.51100000000E-03 0.  1.
         11   -1    0    0    0    0 -0.00000000000E+00 -0.00000000000E+00 -0.45593999997E+02  0.45594000000E+02  0.51100000000E-03 0. -1.
    9900012    2    1    2    0    0  0.27568116994E+02 -0.15744690464E+02 -0.29707403476E+01  0.59301927012E+02  0.49999968967E+02 0.  0.
        -12    1    1    2    0    0 -0.27568116994E+02  0.15744690464E+02  0.29707403476E+01  0.31886072988E+02  0.00000000000E+00 0.  1.
         11    1    3    3    0    0  0.59424143208E+01 -0.85606107036E+00 -0.18472851637E+02  0.19423989714E+02  0.51100000000E-03 0. -1.
        -11    1    3    3    0    0  0.11690783182E+02  0.30341999541E+01 -0.28046143019E+01  0.12399461376E+02  0.51100000000E-03 0.  1.
        -12    1    3    3    0    0  0.99349194915E+01 -0.17922829347E+02  0.18306725592E+02  0.27478475922E+02  0.00000000000E+00 0.  1.
</event>
<event>
 7    1  0.1324280E-011  0.5930193E+02  0.7816164E-02  0.1266605E+00
        -11   -1    0    0    0    0  0.00000000000E+00  0.00000000000E+00  0.45593999997E+02  0.45594000000E+02  0.51100000000E-03 0.  1.
         11   -1    0    0    0    0 -0.00000000000E+00 -0.00000000000E+00 -0.45593999997E+02  0.45594000000E+02  0.51100000000E-03 0. -1.
    9900012    2    1    2    0    0 -0.31493564812E+02  0.35567852576E+01  0.34965509224E+01  0.59301933854E+02  0.49999981445E+02 0.  0.
        -12    1    1    2    0    0  0.31493564812E+02 -0.35567852576E+01 -0.34965509224E+01  0.31886066146E+02  0.00000000000E+00 0.  1.
         11    1    3    3    0    0 -0.31550346886E+02  0.92042004280E+01  0.11737735793E+01  0.32886462850E+02  0.51100000000E-03 0. -1.
        -11    1    3    3    0    0 -0.12085064978E+02 -0.12790629636E+01  0.51613386417E+01  0.13203189555E+02  0.51100000000E-03 0.  1.
        -12    1    3    3    0    0  0.12141847052E+02 -0.43683522068E+01 -0.28385612986E+01  0.13212281449E+02  0.00000000000E+00 0.  1.
</event>
<event>
 7    1  0.1324280E-011  0.5930195E+02  0.7816164E-02  0.1266605E+00
        -11   -1    0    0    0    0  0.00000000000E+00  0.00000000000E+00  0.45593999997E+02  0.45594000000E+02  0.51100000000E-03 0. -1.
         11   -1    0    0    0    0 -0.00000000000E+00 -0.00000000000E+00 -0.45593999997E+02  0.45594000000E+02  0.51100000000E-03 0.  1.
    9900012    2    1    2    0    0  0.26060791219E-01  0.22641492547E+02  0.22451771823E+02  0.59301954119E+02  0.50000018405E+02 0.  0.
        -12    1    1    2    0    0 -0.26060791219E-01 -0.22641492547E+02 -0.22451771823E+02  0.31886045881E+02  0.00000000000E+00 0.  1.
         11    1    3    3    0    0  0.73859179016E+01  0.13431755781E+02  0.39361083133E+01  0.15825826851E+02  0.51100000000E-03 0. -1.
        -11    1    3    3    0    0  0.14156739407E+02  0.61273210317E+01  0.14889338019E+02  0.21439443103E+02  0.51100000000E-03 0.  1.
        -12    1    3    3    0    0 -0.21516596517E+02  0.30824157343E+01  0.36263254904E+01  0.22036684165E+02  0.00000000000E+00 0.  1.
</event>
<event>
 7    1  0.1324280E-011  0.5930191E+02  0.7816164E-02  0.1266605E+00
        -11   -1    0    0    0    0  0.00000000000E+00  0.00000000000E+00  0.45593999997E+02  0.45594000000E+02  0.51100000000E-03 0.  1.
         11   -1    0    0    0    0 -0.00000000000E+00 -0.00000000000E+00 -0.45593999997E+02  0.45594000000E+02  0.51100000000E-03 0. -1.
    9900012    2    1    2    0    0  0.84299906202E+01 -0.27724969906E+02 -0.13303531539E+02  0.59301911347E+02  0.49999940399E+02 0.  0.
        -12    1    1    2    0    0 -0.84299906202E+01  0.27724969906E+02  0.13303531539E+02  0.31886088653E+02  0.00000000000E+00 0.  1.
         11    1    3    3    0    0  0.17613309380E+02 -0.16150754762E+02 -0.18175154663E+02  0.30023520680E+02  0.51100000000E-03 0. -1.
        -11    1    3    3    0    0 -0.15359450733E+01 -0.70350580396E+01 -0.97764635918E+01  0.12142092468E+02  0.51100000000E-03 0.  1.
        -12    1    3    3    0    0 -0.76473736868E+01 -0.45391571048E+01  0.14648086716E+02  0.17136298199E+02  0.00000000000E+00 0.  1.
</event>
<event>
 7    1  0.1324280E-011  0.5930198E+02  0.7816164E-02  0.1266605E+00
        -11   -1    0    0    0    0  0.00000000000E+00  0.00000000000E+00  0.45593999997E+02  0.45594000000E+02  0.51100000000E-03 0.  1.
         11   -1    0    0    0    0 -0.00000000000E+00 -0.00000000000E+00 -0.45593999997E+02  0.45594000000E+02  0.51100000000E-03 0. -1.
    9900012    2    1    2    0    0  0.18791005593E+02  0.29069159945E+01 -0.25596216914E+02  0.59301978421E+02  0.50000062725E+02 0.  0.
        -12    1    1    2    0    0 -0.18791005593E+02 -0.29069159945E+01  0.25596216914E+02  0.31886021579E+02  0.00000000000E+00 0.  1.
         11    1    3    3    0    0  0.81318673944E+01  0.36669343440E+01 -0.18680761639E+02  0.20701317119E+02  0.51100000000E-03 0. -1.
        -11    1    3    3    0    0 -0.11091857432E+02  0.15371794994E+01  0.64946451796E+01  0.12944985067E+02  0.51100000000E-03 0.  1.
         12    1    3    3    0    0  0.21750995631E+02 -0.22971978489E+01 -0.13410100455E+02  0.25655676236E+02  0.00000000000E+00 0. -1.
</event>
<event>
 7    1  0.1324280E-011  0.5930192E+02  0.7816164E-02  0.1266605E+00
        -11   -1    0    0    0    0  0.00000000000E+00  0.00000000000E+00  0.45593999997E+02  0.45594000000E+02  0.51100000000E-03 0. -1.
         11   -1    0    0    0    0 -0.00000000000E+00 -0.00000000000E+00 -0.45593999997E+02  0.45594000000E+02  0.51100000000E-03 0.  1.
    9900012    2    1    2    0    0 -0.30885957483E+02  0.55113473393E+01  0.56925341718E+01  0.59301917386E+02  0.49999951412E+02 0.  0.
        -12    1    1    2    0    0  0.30885957483E+02 -0.55113473393E+01 -0.56925341718E+01  0.31886082614E+02  0.00000000000E+00 0.  1.
         11    1    3    3    0    0 -0.40974006943E+01 -0.17566018201E+02 -0.31389806628E+01  0.18308656088E+02  0.51100000000E-03 0. -1.
        -11    1    3    3    0    0 -0.16326251235E+02  0.19466479588E+01  0.40746128100E+01  0.16939255812E+02  0.51100000000E-03 0.  1.
        -12    1    3    3    0    0 -0.10462305554E+02  0.21130717582E+02  0.47569020246E+01  0.24054005485E+02  0.00000000000E+00 0.  1.
</event>
<event>
 7    1  0.1324280E-011  0.5930191E+02  0.7816164E-02  0.1266605E+00
        -11   -1    0    0    0    0  0.00000000000E+00  0.00000000000E+00  0.45593999997E+02  0.45594000000E+02  0.51100000000E-03 0.  1.
         11   -1    0    0    0    0 -0.00000000000E+00 -0.00000000000E+00 -0.45593999997E+02  0.45594000000E+02  0.51100000000E-03 0. -1.
    9900012    2    1    2    0    0  0.15078016819E+02 -0.16724874576E+02 -0.22575537957E+02  0.59301906875E+02  0.49999932242E+02 0.  0.
        -12    1    1    2    0    0 -0.15078016819E+02  0.16724874576E+02  0.22575537957E+02  0.31886093125E+02  0.00000000000E+00 0.  1.
         11    1    3    3    0    0 -0.33400119401E+01  0.10096230008E+01  0.37599215586E+01  0.51295251975E+01  0.51100000000E-03 0. -1.
        -11    1    3    3    0    0  0.26425018773E+01 -0.20453871139E+02  0.29141103267E+01  0.20828722956E+02  0.51100000000E-03 0.  1.
         12    1    3    3    0    0  0.15775526881E+02  0.27193735619E+01 -0.29249569842E+02  0.33343658721E+02  0.00000000000E+00 0. -1.
</event>
<event>
 7    1  0.1324280E-011  0.5930191E+02  0.7816164E-02  0.1266605E+00
        -11   -1    0    0    0    0  0.00000000000E+00  0.00000000000E+00  0.45593999997E+02  0.45594000000E+02  0.51100000000E-03 0.  1.
         11   -1    0    0    0    0 -0.00000000000E+00 -0.00000000000E+00 -0.45593999997E+02  0.45594000000E+02  0.51100000000E-03 0. -1.
    9900012    2    1    2    0    0  0.11620325056E+02  0.11851494089E+02 -0.27225590058E+02  0.59301911803E+02  0.49999941229E+02 0.  0.
        -12    1    1    2    0    0 -0.11620325056E+02 -0.11851494089E+02  0.27225590058E+02  0.31886088197E+02  0.00000000000E+00 0.  1.
         11    1    3    3    0    0  0.56080248830E+01  0.85434522994E+01 -0.15235390135E+02  0.18345507164E+02  0.51100000000E-03 0. -1.
        -11    1    3    3    0    0  0.11419473302E+02  0.18720432961E+02 -0.25114123247E+01  0.22071841176E+02  0.51100000000E-03 0.  1.
         12    1    3    3    0    0 -0.54071731293E+01 -0.15412391171E+02 -0.94787875982E+01  0.18884563463E+02  0.00000000000E+00 0. -1.
</event>
<event>
 7    1  0.1324280E-011  0.5930196E+02  0.7816164E-02  0.1266605E+00
        -11   -1    0    0    0    0  0.00000000000E+00  0.00000000000E+00  0.45593999997E+02  0.45594000000E+02  0.51100000000E-03 0.  1.
         11   -1    0    0    0    0 -0.00000000000E+00 -0.00000000000E+00 -0.45593999997E+02  0.45594000000E+02  0.51100000000E-03 0. -1.
    9900012    2    1    2    0    0  0.69013984548E+01  0.21891738383E+01 -0.31053139902E+02  0.59301964177E+02  0.50000036747E+02 0.  0.
        -12    1    1    2    0    0 -0.69013984548E+01 -0.21891738383E+01  0.31053139902E+02  0.31886035823E+02  0.00000000000E+00 0.  1.
         11    1    3    3    0    0  0.44289360347E+01  0.17721545985E+02 -0.12467288909E+02  0.22115649652E+02  0.51100000000E-03 0. -1.
        -11    1    3    3    0    0 -0.54056149292E+01 -0.59712788960E+01  0.57378722775E+01  0.98893894124E+01  0.51100000000E-03 0.  1.
         12    1    3    3    0    0  0.78780773493E+01 -0.95610932510E+01 -0.24323723270E+02  0.27296925113E+02  0.00000000000E+00 0. -1.
</event>
<event>
 7    1  0.1324280E-011  0.5930195E+02  0.7816164E-02  0.1266605E+00
        -11   -1    0    0    0    0  0.00000000000E+00  0.00000000000E+00  0.45593999997E+02  0.45594000000E+02  0.51100000000E-03 0.  1.
         11   -1    0    0    0    0 -0.00000000000E+00 -0.00000000000E+00 -0.45593999997E+02  0.45594000000E+02  0.51100000000E-03 0. -1.
    9900012    2    1    2    0    0  0.23733367568E+02 -0.28414715888E+01 -0.21103870021E+02  0.59301952475E+02  0.50000015406E+02 0.  0.
        -12    1    1    2    0    0 -0.23733367568E+02  0.28414715888E+01  0.21103870021E+02  0.31886047525E+02  0.00000000000E+00 0.  1.
         11    1    3    3    0    0  0.62706111851E+01  0.89391053302E+01 -0.72360219090E+01  0.13099167228E+02  0.51100000000E-03 0. -1.
        -11    1    3    3    0    0  0.27756855138E+01  0.21095250155E+01  0.12500336594E+02  0.12977401169E+02  0.51100000000E-03 0.  1.
        -12    1    3    3    0    0  0.14687070869E+02 -0.13890101934E+02 -0.26368184706E+02  0.33225384078E+02  0.00000000000E+00 0.  1.
</event>
<event>
 7    1  0.1324280E-011  0.5930195E+02  0.7816164E-02  0.1266605E+00
        -11   -1    0    0    0    0  0.00000000000E+00  0.00000000000E+00  0.45593999997E+02  0.45594000000E+02  0.51100000000E-03 0.  1.
         11   -1    0    0    0    0 -0.00000000000E+00 -0.00000000000E+00 -0.45593999997E+02  0.45594000000E+02  0.51100000000E-03 0. -1.
    9900012    2    1    2    0    0 -0.15944678997E+00  0.31881609276E+02  0.50768600695E+00  0.59301950097E+02  0.50000011069E+02 0.  0.
        -12    1    1    2    0    0  0.15944678997E+00 -0.31881609276E+02 -0.50768600695E+00  0.31886049903E+02  0.00000000000E+00 0.  1.
         11    1    3    3    0    0 -0.13157027357E+02 -0.39348865582E+01 -0.65545661393E+01  0.15216866913E+02  0.51100000000E-03 0. -1.
        -11    1    3    3    0    0 -0.25119670853E+01  0.61456944029E+01  0.82431535390E+01  0.10584380892E+02  0.51100000000E-03 0.  1.
         12    1    3    3    0    0  0.15509547653E+02  0.29670801432E+02 -0.11809013928E+01  0.33500702292E+02  0.00000000000E+00 0. -1.
</event>
<event>
 7    1  0.1324280E-011  0.5930195E+02  0.7816164E-02  0.1266605E+00
        -11   -1    0    0    0    0  0.00000000000E+00  0.00000000000E+00  0.45593999997E+02  0.45594000000E+02  0.51100000000E-03 0.  1.
         11   -1    0    0    0    0 -0.00000000000E+00 -0.00000000000E+00 -0.45593999997E+02  0.45594000000E+02  0.51100000000E-03 0. -1.
    9900012    2    1    2    0    0 -0.23230729484E+02  0.55089520880E+00 -0.21834597757E+02  0.59301953881E+02  0.50000017970E+02 0.  0.
        -12    1    1    2    0    0  0.23230729484E+02 -0.55089520880E+00  0.21834597757E+02  0.31886046119E+02  0.00000000000E+00 0.  1.
         11    1    3    3    0    0  0.43462626369E+01 -0.79875751029E+01 -0.53596209147E+01  0.10555420008E+02  0.51100000000E-03 0. -1.
        -11    1    3    3    0    0 -0.77956121371E+01 -0.22701134169E+01  0.10704682957E+02  0.13435595297E+02  0.51100000000E-03 0.  1.
         12    1    3    3    0    0 -0.19781379984E+02  0.10808583729E+02 -0.27179659799E+02  0.35310938576E+02  0.00000000000E+00 0. -1.
</event>
<event>
 7    1  0.1324280E-011  0.5930196E+02  0.7816164E-02  0.1266605E+00
        -11   -1    0    0    0    0  0.00000000000E+00  0.00000000000E+00  0.45593999997E+02  0.45594000000E+02  0.51100000000E-03 0.  1.
         11   -1    0    0    0    0 -0.00000000000E+00 -0.00000000000E+00 -0.45593999997E+02  0.45594000000E+02  0.51100000000E-03 0. -1.
    9900012    2    1    2    0    0 -0.19909574223E+02 -0.69829682284E+01  0.23907455642E+02  0.59301961891E+02  0.50000032578E+02 0.  0.
        -12    1    1    2    0    0  0.19909574223E+02  0.69829682284E+01 -0.23907455642E+02  0.31886038109E+02  0.00000000000E+00 0.  1.
         11    1    3    3    0    0  0.63272600686E+01 -0.49895955552E+01  0.10791138173E+02  0.13467700142E+02  0.51100000000E-03 0. -1.
        -11    1    3    3    0    0  0.28956578170E+01  0.85212995491E+01  0.11791993754E+02  0.14834031723E+02  0.51100000000E-03 0.  1.
         12    1    3    3    0    0 -0.29132492109E+02 -0.10514672222E+02  0.13243237150E+01  0.31000230027E+02  0.00000000000E+00 0. -1.
</event>
<event>
 7    1  0.1324280E-011  0.5930198E+02  0.7816164E-02  0.1266605E+00
        -11   -1    0    0    0    0  0.00000000000E+00  0.00000000000E+00  0.45593999997E+02  0.45594000000E+02  0.51100000000E-03 0.  1.
         11   -1    0    0    0    0 -0.00000000000E+00 -0.00000000000E+00 -0.45593999997E+02  0.45594000000E+02  0.51100000000E-03 0. -1.
    9900012    2    1    2    0    0 -0.18757372163E+02 -0.25531624675E+02 -0.36076816425E+01  0.59301980558E+02  0.50000066623E+02 0.  0.
        -12    1    1    2    0    0  0.18757372163E+02  0.25531624675E+02  0.36076816425E+01  0.31886019442E+02  0.00000000000E+00 0.  1.
         11    1    3    3    0    0  0.38602971420E+01  0.17912102995E+01  0.20377094751E+01  0.47183247586E+01  0.51100000000E-03 0. -1.
        -11    1    3    3    0    0 -0.22096880287E+02 -0.10454185214E+02  0.14406824106E+02  0.28374613442E+02  0.51100000000E-03 0.  1.
         12    1    3    3    0    0 -0.52078901766E+00 -0.16868649760E+02 -0.20052215224E+02  0.26209042357E+02  0.00000000000E+00 0. -1.
</event>
<event>
 7    1  0.1324280E-011  0.5930197E+02  0.7816164E-02  0.1266605E+00
        -11   -1    0    0    0    0  0.00000000000E+00  0.00000000000E+00  0.45593999997E+02  0.45594000000E+02  0.51100000000E-03 0.  1.
         11   -1    0    0    0    0 -0.00000000000E+00 -0.00000000000E+00 -0.45593999997E+02  0.45594000000E+02  0.51100000000E-03 0. -1.
    9900012    2    1    2    0    0  0.11168462883E+01  0.16278963346E+02 -0.27394648861E+02  0.59301972034E+02  0.50000051076E+02 0.  0.
        -12    1    1    2    0    0 -0.11168462883E+01 -0.16278963346E+02  0.27394648861E+02  0.31886027966E+02  0.00000000000E+00 0.  1.
         11    1    3    3    0    0  0.77083217408E+01  0.82277328257E+01 -0.10042692092E+02  0.15098658094E+02  0.51100000000E-03 0. -1.
        -11    1    3    3    0    0 -0.22808734736E+02  0.14457330557E+01 -0.71970529139E+01  0.23960928514E+02  0.51100000000E-03 0.  1.
         12    1    3    3    0    0  0.16217259284E+02  0.66054974646E+01 -0.10154903855E+02  0.20242385426E+02  0.00000000000E+00 0. -1.
</event>
<event>
 7    1  0.1324280E-011  0.5930195E+02  0.7816164E-02  0.1266605E+00
        -11   -1    0    0    0    0  0.00000000000E+00  0.00000000000E+00  0.45593999997E+02  0.45594000000E+02  0.51100000000E-03 0.  1.
         11   -1    0    0    0    0 -0.00000000000E+00 -0.00000000000E+00 -0.45593999997E+02  0.45594000000E+02  0.51100000000E-03 0. -1.
    9900012    2    1    2    0    0  0.15309942396E+02  0.26213510102E+02 -0.97559204644E+01  0.59301946119E+02  0.50000003813E+02 0.  0.
        -12    1    1    2    0    0 -0.15309942396E+02 -0.26213510102E+02  0.97559204644E+01  0.31886053881E+02  0.00000000000E+00 0.  1.
         11    1    3    3    0    0  0.14455356106E+01  0.25383986619E+02 -0.22096800083E+02  0.33685381459E+02  0.51100000000E-03 0. -1.
        -11    1    3    3    0    0 -0.38628508200E+01 -0.21197241064E+01  0.16435551776E+01  0.47027779692E+01  0.51100000000E-03 0.  1.
        -12    1    3    3    0    0  0.17727257605E+02  0.29492475891E+01  0.10697324441E+02  0.20913786690E+02  0.00000000000E+00 0.  1.
</event>
<event>
 7    1  0.1324280E-011  0.5930195E+02  0.7816164E-02  0.1266605E+00
        -11   -1    0    0    0    0  0.00000000000E+00  0.00000000000E+00  0.45593999997E+02  0.45594000000E+02  0.51100000000E-03 0. -1.
         11   -1    0    0    0    0 -0.00000000000E+00 -0.00000000000E+00 -0.45593999997E+02  0.45594000000E+02  0.51100000000E-03 0.  1.
    9900012    2    1    2    0    0 -0.15083013273E+02 -0.16407239179E+02  0.22804071739E+02  0.59301945450E+02  0.50000002594E+02 0.  0.
        -12    1    1    2    0    0  0.15083013273E+02  0.16407239179E+02 -0.22804071739E+02  0.31886054550E+02  0.00000000000E+00 0.  1.
         11    1    3    3    0    0  0.10023253532E+01 -0.94152823294E+01  0.19711044126E+02  0.21867269108E+02  0.51100000000E-03 0. -1.
        -11    1    3    3    0    0  0.97108148862E+01 -0.57589900566E+01 -0.79503934117E+00  0.11318037818E+02  0.51100000000E-03 0.  1.
        -12    1    3    3    0    0 -0.25796153513E+02 -0.12329667930E+01  0.38880669544E+01  0.26116638524E+02  0.00000000000E+00 0.  1.
</event>
<event>
 7    1  0.1324280E-011  0.5930194E+02  0.7816164E-02  0.1266605E+00
        -11   -1    0    0    0    0  0.00000000000E+00  0.00000000000E+00  0.45593999997E+02  0.45594000000E+02  0.51100000000E-03 0.  1.
         11   -1    0    0    0    0 -0.00000000000E+00 -0.00000000000E+00 -0.45593999997E+02  0.45594000000E+02  0.51100000000E-03 0. -1.
    9900012    2    1    2    0    0  0.30860581079E+01 -0.31485581149E+02  0.39818669767E+01  0.59301939730E+02  0.49999992162E+02 0.  0.
        -12    1    1    2    0    0 -0.30860581079E+01  0.31485581149E+02 -0.39818669767E+01  0.31886060270E+02  0.00000000000E+00 0.  1.
         11    1    3    3    0    0  0.15038904421E+02 -0.21943792774E+02 -0.16889236705E+01  0.26656165345E+02  0.51100000000E-03 0. -1.
        -11    1    3    3    0    0  0.17389996759E+01 -0.13743021911E+02 -0.50620647337E+01  0.14748534529E+02  0.51100000000E-03 0.  1.
        -12    1    3    3    0    0 -0.13691845989E+02  0.42012335364E+01  0.10732855381E+02  0.17897239856E+02  0.00000000000E+00 0.  1.
</event>
<event>
 7    1  0.1324280E-011  0.5930194E+02  0.7816164E-02  0.1266605E+00
        -11   -1    0    0    0    0  0.00000000000E+00  0.00000000000E+00  0.45593999997E+02  0.45594000000E+02  0.51100000000E-03 0. -1.
         11   -1    0    0    0    0 -0.00000000000E+00 -0.00000000000E+00 -0.45593999997E+02  0.45594000000E+02  0.51100000000E-03 0.  1.
    9900012    2    1    2    0    0  0.51420989413E+01  0.24356939909E+02 -0.19925333189E+02  0.59301943394E+02  0.49999998843E+02 0.  0.
        -12    1    1    2    0    0 -0.51420989413E+01 -0.24356939909E+02  0.19925333189E+02  0.31886056606E+02  0.00000000000E+00 0.  1.
         11    1    3    3    0    0  0.97345389197E+01  0.22328769892E+02  0.48634695104E+00  0.24363327902E+02  0.51100000000E-03 0. -1.
        -11    1    3    3    0    0 -0.27401103803E+01  0.11859110386E+02  0.39668815020E-01  0.12171617720E+02  0.51100000000E-03 0.  1.
        -12    1    3    3    0    0 -0.18523295981E+01 -0.98309403688E+01 -0.20451348955E+02  0.22766997772E+02  0.00000000000E+00 0.  1.
</event>
<event>
 7    1  0.1324280E-011  0.5930195E+02  0.7816164E-02  0.1266605E+00
        -11   -1    0    0    0    0  0.00000000000E+00  0.00000000000E+00  0.45593999997E+02  0.45594000000E+02  0.51100000000E-03 0. -1.
         11   -1    0    0    0    0 -0.00000000000E+00 -0.00000000000E+00 -0.45593999997E+02  0.45594000000E+02  0.51100000000E-03 0.  1.
    9900012    2    1    2    0    0  0.17602518403E+01  0.31796622850E+02  0.16114161218E+01  0.59301947044E+02  0.50000005501E+02 0.  0.
        -12    1    1    2    0    0 -0.17602518403E+01 -0.31796622850E+02 -0.16114161218E+01  0.31886052956E+02  0.00000000000E+00 0.  1.
         11    1    3    3    0    0 -0.26170519989E+01  0.92796212563E+01  0.52535092122E+01  0.10979967720E+02  0.51100000000E-03 0. -1.
        -11    1    3    3    0    0 -0.10755080224E+02  0.49402003690E+01 -0.17632048570E+02  0.21235971072E+02  0.51100000000E-03 0.  1.
         12    1    3    3    0    0  0.15132384063E+02  0.17576801225E+02  0.13989955480E+02  0.27086008253E+02  0.00000000000E+00 0. -1.
</event>
<event>
 7    1  0.1324280E-011  0.5930194E+02  0.7816164E-02  0.1266605E+00
        -11   -1    0    0    0    0  0.00000000000E+00  0.00000000000E+00  0.45593999997E+02  0.45594000000E+02  0.51100000000E-03 0. -1.
         11   -1    0    0    0    0 -0.00000000000E+00 -0.00000000000E+00 -0.45593999997E+02  0.45594000000E+02  0.51100000000E-03 0.  1.
    9900012    2    1    2    0    0 -0.26070103153E+02 -0.30009145999E+01  0.18112562334E+02  0.59301942214E+02  0.49999996692E+02 0.  0.
        -12    1    1    2    0    0  0.26070103153E+02  0.30009145999E+01 -0.18112562334E+02  0.31886057786E+02  0.00000000000E+00 0.  1.
         11    1    3    3    0    0 -0.82578336090E+01  0.16717297977E+01  0.55357270163E+01  0.10081208771E+02  0.51100000000E-03 0. -1.
        -11    1    3    3    0    0 -0.25457461668E+02 -0.13557088886E+02  0.20223512744E+02  0.35225948981E+02  0.51100000000E-03 0.  1.
        -12    1    3    3    0    0  0.76451921248E+01  0.88844444880E+01 -0.76466774257E+01  0.13994784462E+02  0.00000000000E+00 0.  1.
</event>
<event>
 7    1  0.1324280E-011  0.5930197E+02  0.7816164E-02  0.1266605E+00
        -11   -1    0    0    0    0  0.00000000000E+00  0.00000000000E+00  0.45593999997E+02  0.45594000000E+02  0.51100000000E-03 0.  1.
         11   -1    0    0    0    0 -0.00000000000E+00 -0.00000000000E+00 -0.45593999997E+02  0.45594000000E+02  0.51100000000E-03 0. -1.
    9900012    2    1    2    0    0  0.29570309404E+02 -0.10823734047E+02 -0.50162092309E+01  0.59301972151E+02  0.50000051290E+02 0.  0.
        -12    1    1    2    0    0 -0.29570309404E+02  0.10823734047E+02  0.50162092309E+01  0.31886027849E+02  0.00000000000E+00 0.  1.
         11    1    3    3    0    0 -0.13263658501E+01 -0.12403047956E+02 -0.68648941470E+01  0.14238034165E+02  0.51100000000E-03 0. -1.
        -11    1    3    3    0    0  0.20033834318E+02  0.13239071381E+02  0.11296983484E+02  0.26537697048E+02  0.51100000000E-03 0.  1.
         12    1    3    3    0    0  0.10862840935E+02 -0.11659757472E+02 -0.94482985675E+01  0.18526240938E+02  0.00000000000E+00 0. -1.
</event>
<event>
 7    1  0.1324280E-011  0.5930195E+02  0.7816164E-02  0.1266605E+00
        -11   -1    0    0    0    0  0.00000000000E+00  0.00000000000E+00  0.45593999997E+02  0.45594000000E+02  0.51100000000E-03 0.  1.
         11   -1    0    0    0    0 -0.00000000000E+00 -0.00000000000E+00 -0.45593999997E+02  0.45594000000E+02  0.51100000000E-03 0. -1.
    9900012    2    1    2    0    0  0.37126943063E+01 -0.31598981444E+02 -0.21072036138E+01  0.59301952356E+02  0.50000015188E+02 0.  0.
        -12    1    1    2    0    0 -0.37126943063E+01  0.31598981444E+02  0.21072036138E+01  0.31886047644E+02  0.00000000000E+00 0.  1.
         11    1    3    3    0    0 -0.13914732218E+02 -0.21258933228E+02 -0.54410503711E+01  0.25983976680E+02  0.51100000000E-03 0. -1.
        -11    1    3    3    0    0  0.40177580485E+01 -0.76589539374E+01  0.13560914095E+02  0.16084164464E+02  0.51100000000E-03 0.  1.
        -12    1    3    3    0    0  0.13609668476E+02 -0.26810942782E+01 -0.10227067338E+02  0.17233811212E+02  0.00000000000E+00 0.  1.
</event>
<event>
 7    1  0.1324280E-011  0.5930196E+02  0.7816164E-02  0.1266605E+00
        -11   -1    0    0    0    0  0.00000000000E+00  0.00000000000E+00  0.45593999997E+02  0.45594000000E+02  0.51100000000E-03 0.  1.
         11   -1    0    0    0    0 -0.00000000000E+00 -0.00000000000E+00 -0.45593999997E+02  0.45594000000E+02  0.51100000000E-03 0. -1.
    9900012    2    1    2    0    0  0.27874752657E+02 -0.14279369282E+02  0.59847442493E+01  0.59301962515E+02  0.50000033716E+02 0.  0.
        -12    1    1    2    0    0 -0.27874752657E+02  0.14279369282E+02 -0.59847442493E+01  0.31886037485E+02  0.00000000000E+00 0.  1.
         11    1    3    3    0    0 -0.33552409029E+01  0.66300920585E+01 -0.28178300961E+01  0.79470704623E+01  0.51100000000E-03 0. -1.
        -11    1    3    3    0    0  0.27328807178E+01 -0.19038587031E+02  0.11918215800E+02  0.22626981710E+02  0.51100000000E-03 0.  1.
         12    1    3    3    0    0  0.28497112842E+02 -0.18708743094E+01 -0.31156414549E+01  0.28727910343E+02  0.00000000000E+00 0. -1.
</event>
<event>
 7    1  0.1324280E-011  0.5930195E+02  0.7816164E-02  0.1266605E+00
        -11   -1    0    0    0    0  0.00000000000E+00  0.00000000000E+00  0.45593999997E+02  0.45594000000E+02  0.51100000000E-03 0. -1.
         11   -1    0    0    0    0 -0.00000000000E+00 -0.00000000000E+00 -0.45593999997E+02  0.45594000000E+02  0.51100000000E-03 0.  1.
    9900012    2    1    2    0    0  0.14964300244E+02  0.11385432977E+02  0.25751933701E+02  0.59301945757E+02  0.50000003153E+02 0.  0.
        -12    1    1    2    0    0 -0.14964300244E+02 -0.11385432977E+02 -0.25751933701E+02  0.31886054243E+02  0.00000000000E+00 0.  1.
         11    1    3    3    0    0  0.39095974678E+00  0.82732326761E+01 -0.25825432128E+01  0.86757569205E+01  0.51100000000E-03 0. -1.
        -11    1    3    3    0    0 -0.34683684110E+01 -0.40340481589E-01 -0.86695567635E+01  0.93376882324E+01  0.51100000000E-03 0.  1.
         12    1    3    3    0    0  0.18041708908E+02  0.31525407820E+01  0.37004033678E+02  0.41288500604E+02  0.00000000000E+00 0. -1.
</event>
<event>
 7    1  0.1324280E-011  0.5930202E+02  0.7816164E-02  0.1266604E+00
        -11   -1    0    0    0    0  0.00000000000E+00  0.00000000000E+00  0.45593999997E+02  0.45594000000E+02  0.51100000000E-03 0. -1.
         11   -1    0    0    0    0 -0.00000000000E+00 -0.00000000000E+00 -0.45593999997E+02  0.45594000000E+02  0.51100000000E-03 0.  1.
    9900012    2    1    2    0    0 -0.24413025078E+02 -0.11531199320E+02  0.16963229848E+02  0.59302023175E+02  0.50000144345E+02 0.  0.
        -12    1    1    2    0    0  0.24413025078E+02  0.11531199320E+02 -0.16963229848E+02  0.31885976825E+02  0.00000000000E+00 0.  1.
         11    1    3    3    0    0  0.12342445254E+01 -0.42510188325E+01  0.15959409873E+02  0.16561922727E+02  0.51100000000E-03 0. -1.
        -11    1    3    3    0    0 -0.50700427836E+01  0.98572337069E+01  0.95492224183E+01  0.14630722444E+02  0.51100000000E-03 0.  1.
        -12    1    3    3    0    0 -0.20577226820E+02 -0.17137414195E+02 -0.85454024432E+01  0.28109378004E+02  0.00000000000E+00 0.  1.
</event>
<event>
 7    1  0.1324280E-011  0.5930191E+02  0.7816164E-02  0.1266605E+00
        -11   -1    0    0    0    0  0.00000000000E+00  0.00000000000E+00  0.45593999997E+02  0.45594000000E+02  0.51100000000E-03 0.  1.
         11   -1    0    0    0    0 -0.00000000000E+00 -0.00000000000E+00 -0.45593999997E+02  0.45594000000E+02  0.51100000000E-03 0. -1.
    9900012    2    1    2    0    0  0.26426129764E+02 -0.10978147738E+02  0.14066371372E+02  0.59301907960E+02  0.49999934220E+02 0.  0.
        -12    1    1    2    0    0 -0.26426129764E+02  0.10978147738E+02 -0.14066371372E+02  0.31886092040E+02  0.00000000000E+00 0.  1.
         11    1    3    3    0    0  0.29498127394E+01 -0.15756299827E+02  0.35801787935E+00  0.16034043673E+02  0.51100000000E-03 0. -1.
        -11    1    3    3    0    0  0.10807460792E+02 -0.75553213825E+01 -0.78812334619E+01  0.15362224159E+02  0.51100000000E-03 0.  1.
        -12    1    3    3    0    0  0.12668856232E+02  0.12333473471E+02  0.21589586954E+02  0.27905640128E+02  0.00000000000E+00 0.  1.
</event>
<event>
 7    1  0.1324280E-011  0.5930210E+02  0.7816164E-02  0.1266604E+00
        -11   -1    0    0    0    0  0.00000000000E+00  0.00000000000E+00  0.45593999997E+02  0.45594000000E+02  0.51100000000E-03 0. -1.
         11   -1    0    0    0    0 -0.00000000000E+00 -0.00000000000E+00 -0.45593999997E+02  0.45594000000E+02  0.51100000000E-03 0.  1.
    9900012    2    1    2    0    0 -0.20503354984E+02 -0.19832915229E+02  0.14247062414E+02  0.59302095911E+02  0.50000276999E+02 0.  0.
        -12    1    1    2    0    0  0.20503354984E+02  0.19832915229E+02 -0.14247062414E+02  0.31885904089E+02  0.00000000000E+00 0.  1.
         11    1    3    3    0    0 -0.10009817026E+02 -0.92641591270E+01 -0.96539446197E+01  0.16709869186E+02  0.51100000000E-03 0. -1.
        -11    1    3    3    0    0 -0.16291107154E+02 -0.16971582288E+02  0.86499818208E+01  0.25065054626E+02  0.51100000000E-03 0.  1.
        -12    1    3    3    0    0  0.57975691962E+01  0.64028261853E+01  0.15251025213E+02  0.17527172099E+02  0.00000000000E+00 0.  1.
</event>
<event>
 7    1  0.1324280E-011  0.5930197E+02  0.7816164E-02  0.1266605E+00
        -11   -1    0    0    0    0  0.00000000000E+00  0.00000000000E+00  0.45593999997E+02  0.45594000000E+02  0.51100000000E-03 0.  1.
         11   -1    0    0    0    0 -0.00000000000E+00 -0.00000000000E+00 -0.45593999997E+02  0.45594000000E+02  0.51100000000E-03 0. -1.
    9900012    2    1    2    0    0  0.28076856375E+01  0.35495450674E+01 -0.31563214593E+02  0.59301970390E+02  0.50000048079E+02 0.  0.
        -12    1    1    2    0    0 -0.28076856375E+01 -0.35495450674E+01  0.31563214593E+02  0.31886029610E+02  0.00000000000E+00 0.  1.
         11    1    3    3    0    0  0.18314457031E+01  0.10369312590E+02 -0.42870236005E+01  0.11369054867E+02  0.51100000000E-03 0. -1.
        -11    1    3    3    0    0 -0.11654427568E+02  0.11953592738E+02 -0.13224513650E+02  0.21297930013E+02  0.51100000000E-03 0.  1.
        -12    1    3    3    0    0  0.12630667502E+02 -0.18773360260E+02 -0.14051677342E+02  0.26634985511E+02  0.00000000000E+00 0.  1.
</event>
<event>
 7    1  0.1324280E-011  0.5930189E+02  0.7816164E-02  0.1266605E+00
        -11   -1    0    0    0    0  0.00000000000E+00  0.00000000000E+00  0.45593999997E+02  0.45594000000E+02  0.51100000000E-03 0.  1.
         11   -1    0    0    0    0 -0.00000000000E+00 -0.00000000000E+00 -0.45593999997E+02  0.45594000000E+02  0.51100000000E-03 0. -1.
    9900012    2    1    2    0    0  0.13778678986E+02 -0.25738886784E+02 -0.12821144163E+02  0.59301889778E+02  0.49999901061E+02 0.  0.
        -12    1    1    2    0    0 -0.13778678986E+02  0.25738886784E+02  0.12821144163E+02  0.31886110222E+02  0.00000000000E+00 0.  1.
         11    1    3    3    0    0 -0.10803279849E+02 -0.19490215566E+02 -0.24611391082E+01  0.22419557628E+02  0.51100000000E-03 0.  1.
        -11    1    3    3    0    0 -0.77555710767E+00 -0.28017588282E+01 -0.10904963565E+02  0.11285812863E+02  0.51100000000E-03 0. -1.
        -12    1    3    3    0    0  0.25357515942E+02 -0.34469123900E+01  0.54495851069E+00  0.25596519286E+02  0.00000000000E+00 0.  1.
</event>
<event>
 7    1  0.1324280E-011  0.5930196E+02  0.7816164E-02  0.1266605E+00
        -11   -1    0    0    0    0  0.00000000000E+00  0.00000000000E+00  0.45593999997E+02  0.45594000000E+02  0.51100000000E-03 0. -1.
         11   -1    0    0    0    0 -0.00000000000E+00 -0.00000000000E+00 -0.45593999997E+02  0.45594000000E+02  0.51100000000E-03 0.  1.
    9900012    2    1    2    0    0  0.23802306165E+02 -0.52075793545E+01  0.20568201307E+02  0.59301959692E+02  0.50000028568E+02 0.  0.
        -12    1    1    2    0    0 -0.23802306165E+02  0.52075793545E+01 -0.20568201307E+02  0.31886040308E+02  0.00000000000E+00 0.  1.
         11    1    3    3    0    0  0.53559154514E+01 -0.99700948352E+01  0.78752486789E+01  0.13787971691E+02  0.51100000000E-03 0. -1.
        -11    1    3    3    0    0  0.40893801155E+01 -0.16723521135E+01 -0.13916673962E+02  0.14601150836E+02  0.51100000000E-03 0.  1.
         12    1    3    3    0    0  0.14357010598E+02  0.64348675941E+01  0.26609626591E+02  0.30912837164E+02  0.00000000000E+00 0. -1.
</event>
<event>
 7    1  0.1324280E-011  0.5930197E+02  0.7816164E-02  0.1266605E+00
        -11   -1    0    0    0    0  0.00000000000E+00  0.00000000000E+00  0.45593999997E+02  0.45594000000E+02  0.51100000000E-03 0.  1.
         11   -1    0    0    0    0 -0.00000000000E+00 -0.00000000000E+00 -0.45593999997E+02  0.45594000000E+02  0.51100000000E-03 0. -1.
    9900012    2    1    2    0    0  0.96608000942E+00 -0.18974954186E+02 -0.25607358370E+02  0.59301968581E+02  0.50000044780E+02 0.  0.
        -12    1    1    2    0    0 -0.96608000942E+00  0.18974954186E+02  0.25607358370E+02  0.31886031419E+02  0.00000000000E+00 0.  1.
         11    1    3    3    0    0 -0.17818544556E+02 -0.79751571881E+01 -0.18640913229E+02  0.26992356484E+02  0.51100000000E-03 0. -1.
        -11    1    3    3    0    0  0.53364457103E+01 -0.15765168181E+02 -0.51644548564E+00  0.16651873672E+02  0.51100000000E-03 0.  1.
         12    1    3    3    0    0  0.13448178855E+02  0.47653711832E+01 -0.64499996558E+01  0.15657738426E+02  0.00000000000E+00 0. -1.
</event>
<event>
 7    1  0.1324280E-011  0.5930195E+02  0.7816164E-02  0.1266605E+00
        -11   -1    0    0    0    0  0.00000000000E+00  0.00000000000E+00  0.45593999997E+02  0.45594000000E+02  0.51100000000E-03 0.  1.
         11   -1    0    0    0    0 -0.00000000000E+00 -0.00000000000E+00 -0.45593999997E+02  0.45594000000E+02  0.51100000000E-03 0. -1.
    9900012    2    1    2    0    0 -0.11283575863E+02  0.27749841797E+02 -0.10924610597E+02  0.59301954138E+02  0.50000018439E+02 0.  0.
        -12    1    1    2    0    0  0.11283575863E+02 -0.27749841797E+02  0.10924610597E+02  0.31886045862E+02  0.00000000000E+00 0.  1.
         11    1    3    3    0    0 -0.16934826004E+02  0.10103601608E+02  0.13277813922E+02  0.23773334643E+02  0.51100000000E-03 0. -1.
        -11    1    3    3    0    0 -0.10260751852E+01  0.14421852310E+02 -0.56037456070E+01  0.15506276775E+02  0.51100000000E-03 0.  1.
        -12    1    3    3    0    0  0.66773253258E+01  0.32243878783E+01 -0.18598678913E+02  0.20022342720E+02  0.00000000000E+00 0.  1.
</event>
<event>
 7    1  0.1629064E-011  0.5930194E+02  0.7816164E-02  0.1266605E+00
        -11   -1    0    0    0    0  0.00000000000E+00  0.00000000000E+00  0.45593999997E+02  0.45594000000E+02  0.51100000000E-03 0. -1.
         11   -1    0    0    0    0 -0.00000000000E+00 -0.00000000000E+00 -0.45593999997E+02  0.45594000000E+02  0.51100000000E-03 0.  1.
    9900012    2    1    2    0    0 -0.24355768494E+02  0.15445938677E+02  0.13599266600E+02  0.59301944543E+02  0.50000000939E+02 0.  0.
        -12    1    1    2    0    0  0.24355768494E+02 -0.15445938677E+02 -0.13599266600E+02  0.31886055457E+02  0.00000000000E+00 0.  1.
         11    1    3    3    0    0 -0.25736716409E+02 -0.22425498112E+01  0.21953494024E+02  0.33902263956E+02  0.51100000000E-03 0. -1.
        -11    1    3    3    0    0  0.42671976500E+01  0.54372707794E+00 -0.66638679342E+01  0.79316928221E+01  0.51100000000E-03 0.  1.
        -12    1    3    3    0    0 -0.28862497350E+01  0.17144761410E+02 -0.16903594898E+01  0.17467987765E+02  0.00000000000E+00 0.  1.
</event>
<event>
 7    1  0.1324280E-011  0.5930195E+02  0.7816164E-02  0.1266605E+00
        -11   -1    0    0    0    0  0.00000000000E+00  0.00000000000E+00  0.45593999997E+02  0.45594000000E+02  0.51100000000E-03 0.  1.
         11   -1    0    0    0    0 -0.00000000000E+00 -0.00000000000E+00 -0.45593999997E+02  0.45594000000E+02  0.51100000000E-03 0. -1.
    9900012    2    1    2    0    0 -0.26642719104E+02  0.14732707375E+02 -0.94780452894E+01  0.59301945206E+02  0.50000002149E+02 0.  0.
        -12    1    1    2    0    0  0.26642719104E+02 -0.14732707375E+02  0.94780452894E+01  0.31886054794E+02  0.00000000000E+00 0.  1.
         11    1    3    3    0    0  0.14109173841E+01  0.91206206923E+01 -0.34299159199E+01  0.98458485239E+01  0.51100000000E-03 0. -1.
        -11    1    3    3    0    0 -0.22657990573E+02  0.12427747126E+02 -0.20232077182E+02  0.32820273959E+02  0.51100000000E-03 0.  1.
        -12    1    3    3    0    0 -0.53956459151E+01 -0.68156604433E+01  0.14183947812E+02  0.16635822723E+02  0.00000000000E+00 0.  1.
</event>
<event>
 7    1  0.1324280E-011  0.5930192E+02  0.7816164E-02  0.1266605E+00
        -11   -1    0    0    0    0  0.00000000000E+00  0.00000000000E+00  0.45593999997E+02  0.45594000000E+02  0.51100000000E-03 0.  1.
         11   -1    0    0    0    0 -0.00000000000E+00 -0.00000000000E+00 -0.45593999997E+02  0.45594000000E+02  0.51100000000E-03 0. -1.
    9900012    2    1    2    0    0 -0.66898341067E+01  0.29305001571E+02 -0.10638845812E+02  0.59301920942E+02  0.49999957898E+02 0.  0.
        -12    1    1    2    0    0  0.66898341067E+01 -0.29305001571E+02  0.10638845812E+02  0.31886079058E+02  0.00000000000E+00 0.  1.
         11    1    3    3    0    0 -0.54771036449E+01 -0.13635454381E+01  0.93469493695E+01  0.10918946070E+02  0.51100000000E-03 0. -1.
        -11    1    3    3    0    0 -0.13211659162E+02  0.83656892049E+01  0.74375571760E+00  0.15655218507E+02  0.51100000000E-03 0.  1.
         12    1    3    3    0    0  0.11998928700E+02  0.22302857804E+02 -0.20729550899E+02  0.32727756365E+02  0.00000000000E+00 0. -1.
</event>
<event>
 7    1  0.1324280E-011  0.5930188E+02  0.7816164E-02  0.1266605E+00
        -11   -1    0    0    0    0  0.00000000000E+00  0.00000000000E+00  0.45593999997E+02  0.45594000000E+02  0.51100000000E-03 0.  1.
         11   -1    0    0    0    0 -0.00000000000E+00 -0.00000000000E+00 -0.45593999997E+02  0.45594000000E+02  0.51100000000E-03 0. -1.
    9900012    2    1    2    0    0  0.29306758565E+02 -0.50540919571E+01  0.11501929731E+02  0.59301884987E+02  0.49999892324E+02 0.  0.
        -12    1    1    2    0    0 -0.29306758565E+02  0.50540919571E+01 -0.11501929731E+02  0.31886115013E+02  0.00000000000E+00 0.  1.
         11    1    3    3    0    0  0.19343273849E+02 -0.26522661548E+01  0.10227836260E+02  0.22040993484E+02  0.51100000000E-03 0. -1.
        -11    1    3    3    0    0  0.61647977890E+00 -0.75261458028E+01  0.16805112917E+02  0.18423754730E+02  0.51100000000E-03 0.  1.
        -12    1    3    3    0    0  0.93470049371E+01  0.51243200005E+01 -0.15531019446E+02  0.18837136773E+02  0.00000000000E+00 0.  1.
</event>
<event>
 7    1  0.1324280E-011  0.5930194E+02  0.7816164E-02  0.1266605E+00
        -11   -1    0    0    0    0  0.00000000000E+00  0.00000000000E+00  0.45593999997E+02  0.45594000000E+02  0.51100000000E-03 0.  1.
         11   -1    0    0    0    0 -0.00000000000E+00 -0.00000000000E+00 -0.45593999997E+02  0.45594000000E+02  0.51100000000E-03 0. -1.
    9900012    2    1    2    0    0 -0.25508481602E+02 -0.12420505787E+02 -0.14552290933E+02  0.59301940835E+02  0.49999994178E+02 0.  0.
        -12    1    1    2    0    0  0.25508481602E+02  0.12420505787E+02  0.14552290933E+02  0.31886059165E+02  0.00000000000E+00 0.  1.
         11    1    3    3    0    0 -0.22785557491E+02 -0.58311208789E+01 -0.20956983344E+02  0.31502043617E+02  0.51100000000E-03 0. -1.
        -11    1    3    3    0    0 -0.22683855523E+00  0.10037203254E+02  0.77559589382E+00  0.10069679943E+02  0.51100000000E-03 0.  1.
         12    1    3    3    0    0 -0.24960855558E+01 -0.16626588163E+02  0.56290965169E+01  0.17730217276E+02  0.00000000000E+00 0. -1.
</event>
<event>
 7    1  0.1324280E-011  0.5930196E+02  0.7816164E-02  0.1266605E+00
        -11   -1    0    0    0    0  0.00000000000E+00  0.00000000000E+00  0.45593999997E+02  0.45594000000E+02  0.51100000000E-03 0.  1.
         11   -1    0    0    0    0 -0.00000000000E+00 -0.00000000000E+00 -0.45593999997E+02  0.45594000000E+02  0.51100000000E-03 0. -1.
    9900012    2    1    2    0    0 -0.31445249303E+02 -0.12374557154E+01  0.51365750582E+01  0.59301962245E+02  0.50000033225E+02 0.  0.
        -12    1    1    2    0    0  0.31445249303E+02  0.12374557154E+01 -0.51365750582E+01  0.31886037755E+02  0.00000000000E+00 0.  1.
         11    1    3    3    0    0 -0.76165715053E+01 -0.73458149164E+01  0.83907260886E+01  0.13504719280E+02  0.51100000000E-03 0. -1.
        -11    1    3    3    0    0 -0.17255482180E+02  0.48881975311E+01  0.16851423402E+02  0.24609278967E+02  0.51100000000E-03 0.  1.
         12    1    3    3    0    0 -0.65731956177E+01  0.12201616699E+01 -0.20105574432E+02  0.21187963998E+02  0.00000000000E+00 0. -1.
</event>
<event>
 7    1  0.1324280E-011  0.5930199E+02  0.7816164E-02  0.1266605E+00
        -11   -1    0    0    0    0  0.00000000000E+00  0.00000000000E+00  0.45593999997E+02  0.45594000000E+02  0.51100000000E-03 0. -1.
         11   -1    0    0    0    0 -0.00000000000E+00 -0.00000000000E+00 -0.45593999997E+02  0.45594000000E+02  0.51100000000E-03 0.  1.
    9900012    2    1    2    0    0  0.30311687027E+02  0.95871697437E+01  0.24506158462E+01  0.59301988770E+02  0.50000081599E+02 0.  0.
        -12    1    1    2    0    0 -0.30311687027E+02 -0.95871697437E+01 -0.24506158462E+01  0.31886011230E+02  0.00000000000E+00 0.  1.
         11    1    3    3    0    0  0.33705017543E+01  0.89540569997E+01 -0.36909371392E+01  0.10254678740E+02  0.51100000000E-03 0. -1.
        -11    1    3    3    0    0  0.24105861819E+02 -0.16128342573E+00 -0.14543508600E+02  0.28153724958E+02  0.51100000000E-03 0.  1.
         12    1    3    3    0    0  0.28353234540E+01  0.79439616977E+00  0.20685061585E+02  0.20893585072E+02  0.00000000000E+00 0. -1.
</event>
<event>
 7    1  0.1324280E-011  0.5930192E+02  0.7816164E-02  0.1266605E+00
        -11   -1    0    0    0    0  0.00000000000E+00  0.00000000000E+00  0.45593999997E+02  0.45594000000E+02  0.51100000000E-03 0.  1.
         11   -1    0    0    0    0 -0.00000000000E+00 -0.00000000000E+00 -0.45593999997E+02  0.45594000000E+02  0.51100000000E-03 0. -1.
    9900012    2    1    2    0    0  0.15072719374E+02 -0.11873807968E+02 -0.25466600547E+02  0.59301922656E+02  0.49999961023E+02 0.  0.
        -12    1    1    2    0    0 -0.15072719374E+02  0.11873807968E+02  0.25466600547E+02  0.31886077344E+02  0.00000000000E+00 0.  1.
         11    1    3    3    0    0 -0.52127437692E+01 -0.93890512530E+01 -0.55233133821E+00  0.10753234453E+02  0.51100000000E-03 0. -1.
        -11    1    3    3    0    0  0.14554769440E+02 -0.75100150651E+01  0.54354921889E+01  0.17256483284E+02  0.51100000000E-03 0.  1.
         12    1    3    3    0    0  0.57306937026E+01  0.50252583497E+01 -0.30349761397E+02  0.31292204919E+02  0.00000000000E+00 0. -1.
</event>
<event>
 7    1  0.1324280E-011  0.5930198E+02  0.7816164E-02  0.1266605E+00
        -11   -1    0    0    0    0  0.00000000000E+00  0.00000000000E+00  0.45593999997E+02  0.45594000000E+02  0.51100000000E-03 0.  1.
         11   -1    0    0    0    0 -0.00000000000E+00 -0.00000000000E+00 -0.45593999997E+02  0.45594000000E+02  0.51100000000E-03 0. -1.
    9900012    2    1    2    0    0 -0.25882238830E+02  0.17179813444E+02 -0.71890072594E+01  0.59301982654E+02  0.50000070445E+02 0.  0.
        -12    1    1    2    0    0  0.25882238830E+02 -0.17179813444E+02  0.71890072594E+01  0.31886017346E+02  0.00000000000E+00 0.  1.
         11    1    3    3    0    0 -0.17759851065E+02  0.26427589260E+01 -0.12540629196E+01  0.17999143275E+02  0.51100000000E-03 0. -1.
        -11    1    3    3    0    0 -0.83219175851E+01 -0.33528010094E+01  0.12648151812E+02  0.15507138080E+02  0.51100000000E-03 0.  1.
        -12    1    3    3    0    0  0.19952981978E+00  0.17889855527E+02 -0.18583096152E+02  0.25795701299E+02  0.00000000000E+00 0.  1.
</event>
<event>
 7    1  0.1324280E-011  0.5930194E+02  0.7816164E-02  0.1266605E+00
        -11   -1    0    0    0    0  0.00000000000E+00  0.00000000000E+00  0.45593999997E+02  0.45594000000E+02  0.51100000000E-03 0.  1.
         11   -1    0    0    0    0 -0.00000000000E+00 -0.00000000000E+00 -0.45593999997E+02  0.45594000000E+02  0.51100000000E-03 0. -1.
    9900012    2    1    2    0    0  0.24132130252E+01 -0.31400933327E+02  0.49878590506E+01  0.59301938017E+02  0.49999989037E+02 0.  0.
        -12    1    1    2    0    0 -0.24132130252E+01  0.31400933327E+02 -0.49878590506E+01  0.31886061983E+02  0.00000000000E+00 0.  1.
         11    1    3    3    0    0  0.82099080513E+01 -0.10194873945E+02  0.95575552415E+01  0.16207557108E+02  0.51100000000E-03 0. -1.
        -11    1    3    3    0    0 -0.40043693871E+01 -0.31465081869E+02 -0.68101285647E+01  0.32441704680E+02  0.51100000000E-03 0.  1.
         12    1    3    3    0    0 -0.17923256389E+01  0.10259022488E+02  0.22404323737E+01  0.10652676228E+02  0.00000000000E+00 0. -1.
</event>
<event>
 7    1  0.1324280E-011  0.5930194E+02  0.7816164E-02  0.1266605E+00
        -11   -1    0    0    0    0  0.00000000000E+00  0.00000000000E+00  0.45593999997E+02  0.45594000000E+02  0.51100000000E-03 0. -1.
         11   -1    0    0    0    0 -0.00000000000E+00 -0.00000000000E+00 -0.45593999997E+02  0.45594000000E+02  0.51100000000E-03 0.  1.
    9900012    2    1    2    0    0 -0.16458375043E+02 -0.14582729338E+02  0.23090839816E+02  0.59301937412E+02  0.49999987934E+02 0.  0.
        -12    1    1    2    0    0  0.16458375043E+02  0.14582729338E+02 -0.23090839816E+02  0.31886062588E+02  0.00000000000E+00 0.  1.
         11    1    3    3    0    0 -0.22612882733E+00 -0.23357794124E+01 -0.56201631715E+01  0.60904214998E+01  0.51100000000E-03 0. -1.
        -11    1    3    3    0    0 -0.13971328885E+02  0.13993843710E+01 -0.64319651850E+01  0.15444302633E+02  0.51100000000E-03 0.  1.
         12    1    3    3    0    0 -0.22609173313E+01 -0.13646334296E+02  0.35142968172E+02  0.37767213279E+02  0.00000000000E+00 0. -1.
</event>
<event>
 7    1  0.1324280E-011  0.5930201E+02  0.7816164E-02  0.1266605E+00
        -11   -1    0    0    0    0  0.00000000000E+00  0.00000000000E+00  0.45593999997E+02  0.45594000000E+02  0.51100000000E-03 0.  1.
         11   -1    0    0    0    0 -0.00000000000E+00 -0.00000000000E+00 -0.45593999997E+02  0.45594000000E+02  0.51100000000E-03 0. -1.
    9900012    2    1    2    0    0  0.68598163556E+01  0.27234672589E+02 -0.15097419723E+02  0.59302006935E+02  0.50000114728E+02 0.  0.
        -12    1    1    2    0    0 -0.68598163556E+01 -0.27234672589E+02  0.15097419723E+02  0.31885993065E+02  0.00000000000E+00 0.  1.
         11    1    3    3    0    0 -0.14291929404E+01 -0.34377550582E+01 -0.70911087701E+01  0.80090309121E+01  0.51100000000E-03 0.  1.
        -11    1    3    3    0    0 -0.10155109392E+02  0.79355732888E+01 -0.16379555598E+02  0.20842010748E+02  0.51100000000E-03 0. -1.
        -12    1    3    3    0    0  0.18444118688E+02  0.22736854358E+02  0.83732446449E+01  0.30450965275E+02  0.00000000000E+00 0.  1.
</event>
<event>
 7    1  0.1324280E-011  0.5930195E+02  0.7816164E-02  0.1266605E+00
        -11   -1    0    0    0    0  0.00000000000E+00  0.00000000000E+00  0.45593999997E+02  0.45594000000E+02  0.51100000000E-03 0.  1.
         11   -1    0    0    0    0 -0.00000000000E+00 -0.00000000000E+00 -0.45593999997E+02  0.45594000000E+02  0.51100000000E-03 0. -1.
    9900012    2    1    2    0    0  0.24182259238E+02 -0.20192645892E+02 -0.49189234631E+01  0.59301946340E+02  0.50000004217E+02 0.  0.
        -12    1    1    2    0    0 -0.24182259238E+02  0.20192645892E+02  0.49189234631E+01  0.31886053660E+02  0.00000000000E+00 0.  1.
         11    1    3    3    0    0  0.15514291948E+02  0.76785381197E+01  0.19669795433E+01  0.17421888849E+02  0.51100000000E-03 0. -1.
        -11    1    3    3    0    0 -0.66505180299E+01 -0.23471752143E+00  0.47841961211E+01  0.81959145412E+01  0.51100000000E-03 0.  1.
        -12    1    3    3    0    0  0.15318485320E+02 -0.27636466490E+02 -0.11670099128E+02  0.33684142949E+02  0.00000000000E+00 0.  1.
</event>
<event>
 7    1  0.1324280E-011  0.5930205E+02  0.7816164E-02  0.1266604E+00
        -11   -1    0    0    0    0  0.00000000000E+00  0.00000000000E+00  0.45593999997E+02  0.45594000000E+02  0.51100000000E-03 0.  1.
         11   -1    0    0    0    0 -0.00000000000E+00 -0.00000000000E+00 -0.45593999997E+02  0.45594000000E+02  0.51100000000E-03 0. -1.
    9900012    2    1    2    0    0  0.19845112771E+02  0.13080473708E+02 -0.21255266471E+02  0.59302052530E+02  0.50000197882E+02 0.  0.
        -12    1    1    2    0    0 -0.19845112771E+02 -0.13080473708E+02  0.21255266471E+02  0.31885947470E+02  0.00000000000E+00 0.  1.
         11    1    3    3    0    0  0.55976685450E+01  0.63642399376E+01 -0.16714654127E+02  0.18740787230E+02  0.51100000000E-03 0. -1.
        -11    1    3    3    0    0  0.18359866572E+02 -0.92628332697E+01 -0.10409629784E+02  0.23048756435E+02  0.51100000000E-03 0.  1.
        -12    1    3    3    0    0 -0.41124223459E+01  0.15979067041E+02  0.58690174408E+01  0.17512508865E+02  0.00000000000E+00 0.  1.
</event>
<event>
 7    1  0.1324280E-011  0.5930193E+02  0.7816164E-02  0.1266605E+00
        -11   -1    0    0    0    0  0.00000000000E+00  0.00000000000E+00  0.45593999997E+02  0.45594000000E+02  0.51100000000E-03 0.  1.
         11   -1    0    0    0    0 -0.00000000000E+00 -0.00000000000E+00 -0.45593999997E+02  0.45594000000E+02  0.51100000000E-03 0. -1.
    9900012    2    1    2    0    0  0.22325811218E+02  0.13241193507E+02 -0.18518918075E+02  0.59301931276E+02  0.49999976743E+02 0.  0.
        -12    1    1    2    0    0 -0.22325811218E+02 -0.13241193507E+02  0.18518918075E+02  0.31886068724E+02  0.00000000000E+00 0.  1.
         11    1    3    3    0    0 -0.99679234333E+01  0.19863627736E+01 -0.13009702903E+02  0.16509315689E+02  0.51100000000E-03 0. -1.
        -11    1    3    3    0    0  0.68991821902E+01 -0.79861582391E+01 -0.77205553825E+00  0.10581753556E+02  0.51100000000E-03 0.  1.
        -12    1    3    3    0    0  0.25394552461E+02  0.19240988973E+02 -0.47371596345E+01  0.32210862030E+02  0.00000000000E+00 0.  1.
</event>
<event>
 7    1  0.1324280E-011  0.5930194E+02  0.7816164E-02  0.1266605E+00
        -11   -1    0    0    0    0  0.00000000000E+00  0.00000000000E+00  0.45593999997E+02  0.45594000000E+02  0.51100000000E-03 0. -1.
         11   -1    0    0    0    0 -0.00000000000E+00 -0.00000000000E+00 -0.45593999997E+02  0.45594000000E+02  0.51100000000E-03 0.  1.
    9900012    2    1    2    0    0  0.19850369682E+02  0.11842920032E+01  0.24925510204E+02  0.59301940617E+02  0.49999993780E+02 0.  0.
        -12    1    1    2    0    0 -0.19850369682E+02 -0.11842920032E+01 -0.24925510204E+02  0.31886059383E+02  0.00000000000E+00 0.  1.
         11    1    3    3    0    0  0.17383664694E+02  0.17906210684E+02  0.32241375063E+01  0.25163847921E+02  0.51100000000E-03 0. -1.
        -11    1    3    3    0    0  0.88925831293E+01 -0.51247645035E+00  0.69276889975E+01  0.11284216496E+02  0.51100000000E-03 0.  1.
        -12    1    3    3    0    0 -0.64258781416E+01 -0.16209442230E+02  0.14773683700E+02  0.22853876200E+02  0.00000000000E+00 0.  1.
</event>
<event>
 7    1  0.1324280E-011  0.5930191E+02  0.7816164E-02  0.1266605E+00
        -11   -1    0    0    0    0  0.00000000000E+00  0.00000000000E+00  0.45593999997E+02  0.45594000000E+02  0.51100000000E-03 0. -1.
         11   -1    0    0    0    0 -0.00000000000E+00 -0.00000000000E+00 -0.45593999997E+02  0.45594000000E+02  0.51100000000E-03 0.  1.
    9900012    2    1    2    0    0 -0.98147795405E+01  0.20792238899E+02  0.22092437809E+02  0.59301907354E+02  0.49999933117E+02 0.  0.
        -12    1    1    2    0    0  0.98147795405E+01 -0.20792238899E+02 -0.22092437809E+02  0.31886092646E+02  0.00000000000E+00 0.  1.
         11    1    3    3    0    0  0.76464461289E+01  0.68739001728E+01 -0.41996500738E+01  0.11106561259E+02  0.51100000000E-03 0. -1.
        -11    1    3    3    0    0  0.39193744950E+00  0.17819773148E+02  0.22041535221E+01  0.17959850306E+02  0.51100000000E-03 0.  1.
         12    1    3    3    0    0 -0.17853163119E+02 -0.39014344213E+01  0.24087934360E+02  0.30235495790E+02  0.00000000000E+00 0. -1.
</event>
<event>
 7    1  0.1324280E-011  0.5930192E+02  0.7816164E-02  0.1266605E+00
        -11   -1    0    0    0    0  0.00000000000E+00  0.00000000000E+00  0.45593999997E+02  0.45594000000E+02  0.51100000000E-03 0. -1.
         11   -1    0    0    0    0 -0.00000000000E+00 -0.00000000000E+00 -0.45593999997E+02  0.45594000000E+02  0.51100000000E-03 0.  1.
    9900012    2    1    2    0    0  0.29789138343E+02 -0.97231196000E+01  0.58983481858E+01  0.59301916369E+02  0.49999949557E+02 0.  0.
        -12    1    1    2    0    0 -0.29789138343E+02  0.97231196000E+01 -0.58983481858E+01  0.31886083631E+02  0.00000000000E+00 0.  1.
         11    1    3    3    0    0  0.21893110014E+02  0.42158704274E+01  0.18786089943E+01  0.22374338014E+02  0.51100000000E-03 0. -1.
        -11    1    3    3    0    0  0.80572578985E+00  0.85670853603E+00 -0.13136458016E+02  0.13188998181E+02  0.51100000000E-03 0.  1.
         12    1    3    3    0    0  0.70903025400E+01 -0.14795698563E+02  0.17156197207E+02  0.23738580174E+02  0.00000000000E+00 0. -1.
</event>
<event>
 7    1  0.1324280E-011  0.5930194E+02  0.7816164E-02  0.1266605E+00
        -11   -1    0    0    0    0  0.00000000000E+00  0.00000000000E+00  0.45593999997E+02  0.45594000000E+02  0.51100000000E-03 0.  1.
         11   -1    0    0    0    0 -0.00000000000E+00 -0.00000000000E+00 -0.45593999997E+02  0.45594000000E+02  0.51100000000E-03 0. -1.
    9900012    2    1    2    0    0 -0.15377297325E+02  0.11092949825E+02 -0.25636028559E+02  0.59301940835E+02  0.49999994177E+02 0.  0.
        -12    1    1    2    0    0  0.15377297325E+02 -0.11092949825E+02  0.25636028559E+02  0.31886059165E+02  0.00000000000E+00 0.  1.
         11    1    3    3    0    0  0.60764717647E+01  0.78364997690E+01 -0.41241854519E+01  0.10739792532E+02  0.51100000000E-03 0. -1.
        -11    1    3    3    0    0 -0.22056865435E+02 -0.12140754987E+02 -0.44422744028E+01  0.25566326420E+02  0.51100000000E-03 0.  1.
         12    1    3    3    0    0  0.60309634540E+00  0.15397205043E+02 -0.17069568704E+02  0.22995821883E+02  0.00000000000E+00 0. -1.
</event>
<event>
 7    1  0.1324280E-011  0.5930193E+02  0.7816164E-02  0.1266605E+00
        -11   -1    0    0    0    0  0.00000000000E+00  0.00000000000E+00  0.45593999997E+02  0.45594000000E+02  0.51100000000E-03 0.  1.
         11   -1    0    0    0    0 -0.00000000000E+00 -0.00000000000E+00 -0.45593999997E+02  0.45594000000E+02  0.51100000000E-03 0. -1.
    9900012    2    1    2    0    0  0.23417572932E+02  0.95883509756E+01 -0.19401095171E+02  0.59301926389E+02  0.49999967831E+02 0.  0.
        -12    1    1    2    0    0 -0.23417572932E+02 -0.95883509756E+01  0.19401095171E+02  0.31886073611E+02  0.00000000000E+00 0.  1.
         11    1    3    3    0    0 -0.79656864277E+01  0.61436600382E+00 -0.17676109753E+02  0.19397795290E+02  0.51100000000E-03 0. -1.
        -11    1    3    3    0    0 -0.30365844716E+01  0.31731628745E+01  0.19510326900E+01  0.48058648233E+01  0.51100000000E-03 0.  1.
        -12    1    3    3    0    0  0.34419843832E+02  0.58008220973E+01 -0.36760181082E+01  0.35098266275E+02  0.00000000000E+00 0.  1.
</event>
<event>
 7    1  0.1324280E-011  0.5930195E+02  0.7816164E-02  0.1266605E+00
        -11   -1    0    0    0    0  0.00000000000E+00  0.00000000000E+00  0.45593999997E+02  0.45594000000E+02  0.51100000000E-03 0.  1.
         11   -1    0    0    0    0 -0.00000000000E+00 -0.00000000000E+00 -0.45593999997E+02  0.45594000000E+02  0.51100000000E-03 0. -1.
    9900012    2    1    2    0    0  0.31896097075E+01 -0.16090006270E+02 -0.27343343105E+02  0.59301947813E+02  0.50000006904E+02 0.  0.
        -12    1    1    2    0    0 -0.31896097075E+01  0.16090006270E+02  0.27343343105E+02  0.31886052187E+02  0.00000000000E+00 0.  1.
         11    1    3    3    0    0 -0.11433339366E+02 -0.23454384839E+02 -0.26577704936E+02  0.37245185154E+02  0.51100000000E-03 0. -1.
        -11    1    3    3    0    0  0.56405551337E+01  0.29035335989E+00  0.64214944130E+01  0.85519446939E+01  0.51100000000E-03 0.  1.
        -12    1    3    3    0    0  0.89823939393E+01  0.70740252083E+01 -0.71871325825E+01  0.13504817966E+02  0.00000000000E+00 0.  1.
</event>
<event>
 7    1  0.1324280E-011  0.5930195E+02  0.7816164E-02  0.1266605E+00
        -11   -1    0    0    0    0  0.00000000000E+00  0.00000000000E+00  0.45593999997E+02  0.45594000000E+02  0.51100000000E-03 0.  1.
         11   -1    0    0    0    0 -0.00000000000E+00 -0.00000000000E+00 -0.45593999997E+02  0.45594000000E+02  0.51100000000E-03 0. -1.
    9900012    2    1    2    0    0  0.13044757829E+02 -0.27287177531E+02 -0.10097741975E+02  0.59301950427E+02  0.50000011670E+02 0.  0.
        -12    1    1    2    0    0 -0.13044757829E+02  0.27287177531E+02  0.10097741975E+02  0.31886049573E+02  0.00000000000E+00 0.  1.
         11    1    3    3    0    0 -0.42831503322E+01 -0.96864381331E+01 -0.13153251462E+02  0.16887287667E+02  0.51100000000E-03 0. -1.
        -11    1    3    3    0    0  0.98231254080E+01 -0.27885064669E+02  0.17488997565E+01  0.29616368363E+02  0.51100000000E-03 0.  1.
         12    1    3    3    0    0  0.75047827533E+01  0.10284325272E+02  0.13066097306E+01  0.12798294396E+02  0.00000000000E+00 0. -1.
</event>
<event>
 7    1  0.1324280E-011  0.5930223E+02  0.7816164E-02  0.1266604E+00
        -11   -1    0    0    0    0  0.00000000000E+00  0.00000000000E+00  0.45593999997E+02  0.45594000000E+02  0.51100000000E-03 0.  1.
         11   -1    0    0    0    0 -0.00000000000E+00 -0.00000000000E+00 -0.45593999997E+02  0.45594000000E+02  0.51100000000E-03 0. -1.
    9900012    2    1    2    0    0  0.40288275480E+00 -0.19585316012E+02 -0.25158606081E+02  0.59302229228E+02  0.50000520134E+02 0.  0.
        -12    1    1    2    0    0 -0.40288275480E+00  0.19585316012E+02  0.25158606081E+02  0.31885770772E+02  0.00000000000E+00 0.  1.
         11    1    3    3    0    0 -0.60549846721E+01 -0.18381160913E+02 -0.11330757434E+02  0.22425788285E+02  0.51100000000E-03 0. -1.
        -11    1    3    3    0    0  0.56311922743E+01 -0.83311408754E+01  0.86606090790E+01  0.13271186254E+02  0.51100000000E-03 0.  1.
         12    1    3    3    0    0  0.82667515262E+00  0.71269857770E+01 -0.22488457725E+02  0.23605254689E+02  0.00000000000E+00 0. -1.
</event>
<event>
 7    1  0.1324280E-011  0.5930197E+02  0.7816164E-02  0.1266605E+00
        -11   -1    0    0    0    0  0.00000000000E+00  0.00000000000E+00  0.45593999997E+02  0.45594000000E+02  0.51100000000E-03 0.  1.
         11   -1    0    0    0    0 -0.00000000000E+00 -0.00000000000E+00 -0.45593999997E+02  0.45594000000E+02  0.51100000000E-03 0. -1.
    9900012    2    1    2    0    0 -0.20212400643E+02  0.59372970518E+01 -0.23935883348E+02  0.59301966260E+02  0.50000040546E+02 0.  0.
        -12    1    1    2    0    0  0.20212400643E+02 -0.59372970518E+01  0.23935883348E+02  0.31886033740E+02  0.00000000000E+00 0.  1.
         11    1    3    3    0    0 -0.25841018042E+02 -0.39546972493E+01 -0.87162077078E+01  0.27556671077E+02  0.51100000000E-03 0. -1.
        -11    1    3    3    0    0  0.24413799527E+01  0.30773795867E+01  0.71425678381E+01  0.81514953706E+01  0.51100000000E-03 0.  1.
         12    1    3    3    0    0  0.31872374457E+01  0.68146147144E+01 -0.22362243478E+02  0.23593799813E+02  0.00000000000E+00 0. -1.
</event>
<event>
 7    1  0.1324280E-011  0.5930197E+02  0.7816164E-02  0.1266605E+00
        -11   -1    0    0    0    0  0.00000000000E+00  0.00000000000E+00  0.45593999997E+02  0.45594000000E+02  0.51100000000E-03 0.  1.
         11   -1    0    0    0    0 -0.00000000000E+00 -0.00000000000E+00 -0.45593999997E+02  0.45594000000E+02  0.51100000000E-03 0. -1.
    9900012    2    1    2    0    0 -0.26326872234E+02  0.16246054429E+02 -0.77253299514E+01  0.59301965298E+02  0.50000038792E+02 0.  0.
        -12    1    1    2    0    0  0.26326872234E+02 -0.16246054429E+02  0.77253299514E+01  0.31886034702E+02  0.00000000000E+00 0.  1.
         11    1    3    3    0    0 -0.15506233394E+02  0.11216969173E+02 -0.19682122802E+02  0.27452679828E+02  0.51100000000E-03 0. -1.
        -11    1    3    3    0    0 -0.18190446570E+02  0.73425368596E+01  0.27133256519E+01  0.19803215151E+02  0.51100000000E-03 0.  1.
        -12    1    3    3    0    0  0.73698077294E+01 -0.23134516033E+01  0.92434671987E+01  0.12046070319E+02  0.00000000000E+00 0.  1.
</event>
<event>
 7    1  0.1324280E-011  0.5930194E+02  0.7816164E-02  0.1266605E+00
        -11   -1    0    0    0    0  0.00000000000E+00  0.00000000000E+00  0.45593999997E+02  0.45594000000E+02  0.51100000000E-03 0. -1.
         11   -1    0    0    0    0 -0.00000000000E+00 -0.00000000000E+00 -0.45593999997E+02  0.45594000000E+02  0.51100000000E-03 0.  1.
    9900012    2    1    2    0    0  0.27022422100E+02  0.82391322497E+01 -0.14786011064E+02  0.59301941611E+02  0.49999995592E+02 0.  0.
        -12    1    1    2    0    0 -0.27022422100E+02 -0.82391322497E+01  0.14786011064E+02  0.31886058389E+02  0.00000000000E+00 0.  1.
         11    1    3    3    0    0  0.17593886688E+02  0.18498264765E+02 -0.10349096488E+02  0.27546949858E+02  0.51100000000E-03 0. -1.
        -11    1    3    3    0    0  0.11754458010E+02 -0.49524639512E+00 -0.13726722763E+02  0.18078591487E+02  0.51100000000E-03 0.  1.
        -12    1    3    3    0    0 -0.23259225979E+01 -0.97638861197E+01  0.92898081863E+01  0.13676400266E+02  0.00000000000E+00 0.  1.
</event>
<event>
 7    1  0.1324280E-011  0.5930192E+02  0.7816164E-02  0.1266605E+00
        -11   -1    0    0    0    0  0.00000000000E+00  0.00000000000E+00  0.45593999997E+02  0.45594000000E+02  0.51100000000E-03 0.  1.
         11   -1    0    0    0    0 -0.00000000000E+00 -0.00000000000E+00 -0.45593999997E+02  0.45594000000E+02  0.51100000000E-03 0. -1.
    9900012    2    1    2    0    0 -0.10070076306E+02 -0.29270153913E+01 -0.30112259732E+02  0.59301920873E+02  0.49999957772E+02 0.  0.
        -12    1    1    2    0    0  0.10070076306E+02  0.29270153913E+01  0.30112259732E+02  0.31886079127E+02  0.00000000000E+00 0.  1.
         11    1    3    3    0    0 -0.15515530366E+02 -0.89538268744E+01  0.36101157405E+01  0.18273905826E+02  0.51100000000E-03 0. -1.
        -11    1    3    3    0    0  0.56388786846E+00  0.26168730348E+01  0.28872521093E+01  0.39372857417E+01  0.51100000000E-03 0.  1.
         12    1    3    3    0    0  0.48815661912E+01  0.34099384483E+01 -0.36609627582E+02  0.37090729305E+02  0.00000000000E+00 0. -1.
</event>
<event>
 7    1  0.1324280E-011  0.5930208E+02  0.7816164E-02  0.1266604E+00
        -11   -1    0    0    0    0  0.00000000000E+00  0.00000000000E+00  0.45593999997E+02  0.45594000000E+02  0.51100000000E-03 0.  1.
         11   -1    0    0    0    0 -0.00000000000E+00 -0.00000000000E+00 -0.45593999997E+02  0.45594000000E+02  0.51100000000E-03 0. -1.
    9900012    2    1    2    0    0  0.13669164472E+02  0.28795342943E+02 -0.83307590831E+00  0.59302080725E+02  0.50000249302E+02 0.  0.
        -12    1    1    2    0    0 -0.13669164472E+02 -0.28795342943E+02  0.83307590831E+00  0.31885919275E+02  0.00000000000E+00 0.  1.
         11    1    3    3    0    0  0.17460901673E+02  0.69224785919E+00 -0.93902075476E+00  0.17499830130E+02  0.51100000000E-03 0. -1.
        -11    1    3    3    0    0 -0.18011519374E-01  0.11862498895E+02  0.15220933716E+02  0.19297565336E+02  0.51100000000E-03 0.  1.
         12    1    3    3    0    0 -0.37737256816E+01  0.16240596189E+02 -0.15114988870E+02  0.22504685259E+02  0.00000000000E+00 0. -1.
</event>
<event>
 7    1  0.1324280E-011  0.5930182E+02  0.7816164E-02  0.1266605E+00
        -11   -1    0    0    0    0  0.00000000000E+00  0.00000000000E+00  0.45593999997E+02  0.45594000000E+02  0.51100000000E-03 0. -1.
         11   -1    0    0    0    0 -0.00000000000E+00 -0.00000000000E+00 -0.45593999997E+02  0.45594000000E+02  0.51100000000E-03 0.  1.
    9900012    2    1    2    0    0  0.16787987516E+02  0.22635033323E+02 -0.14918024532E+02  0.59301816248E+02  0.49999766959E+02 0.  0.
        -12    1    1    2    0    0 -0.16787987516E+02 -0.22635033323E+02  0.14918024532E+02  0.31886183752E+02  0.00000000000E+00 0.  1.
         11    1    3    3    0    0  0.88845843210E+01  0.17757812391E+02 -0.14612166605E+02  0.24653420708E+02  0.51100000000E-03 0. -1.
        -11    1    3    3    0    0  0.80886456713E+01 -0.10654207220E+01 -0.15948404595E+02  0.17914042522E+02  0.51100000000E-03 0.  1.
         12    1    3    3    0    0 -0.18524247644E+00  0.59426416544E+01  0.15642546669E+02  0.16734353017E+02  0.00000000000E+00 0. -1.
</event>
<event>
 7    1  0.1324280E-011  0.5930191E+02  0.7816164E-02  0.1266605E+00
        -11   -1    0    0    0    0  0.00000000000E+00  0.00000000000E+00  0.45593999997E+02  0.45594000000E+02  0.51100000000E-03 0.  1.
         11   -1    0    0    0    0 -0.00000000000E+00 -0.00000000000E+00 -0.45593999997E+02  0.45594000000E+02  0.51100000000E-03 0. -1.
    9900012    2    1    2    0    0 -0.16519288323E+02  0.55436203814E+01 -0.26704004365E+02  0.59301914277E+02  0.49999945742E+02 0.  0.
        -12    1    1    2    0    0  0.16519288323E+02 -0.55436203814E+01  0.26704004365E+02  0.31886085723E+02  0.00000000000E+00 0.  1.
         11    1    3    3    0    0 -0.19944208264E+02  0.23910422484E+02 -0.14034902866E+02  0.34153451442E+02  0.51100000000E-03 0. -1.
        -11    1    3    3    0    0 -0.23429595693E+01 -0.36594426682E+01 -0.72396703072E+01  0.84435659886E+01  0.51100000000E-03 0.  1.
        -12    1    3    3    0    0  0.57678795108E+01 -0.14707359435E+02 -0.54294311915E+01  0.16704896847E+02  0.00000000000E+00 0.  1.
</event>
<event>
 7    1  0.1324280E-011  0.5930189E+02  0.7816164E-02  0.1266605E+00
        -11   -1    0    0    0    0  0.00000000000E+00  0.00000000000E+00  0.45593999997E+02  0.45594000000E+02  0.51100000000E-03 0.  1.
         11   -1    0    0    0    0 -0.00000000000E+00 -0.00000000000E+00 -0.45593999997E+02  0.45594000000E+02  0.51100000000E-03 0. -1.
    9900012    2    1    2    0    0 -0.24187021697E+02  0.11345875527E+02 -0.17406406145E+02  0.59301891976E+02  0.49999905070E+02 0.  0.
        -12    1    1    2    0    0  0.24187021697E+02 -0.11345875527E+02  0.17406406145E+02  0.31886108024E+02  0.00000000000E+00 0.  1.
         11    1    3    3    0    0 -0.11581181954E+02 -0.67906565929E+01  0.42160977778E+01  0.14071683380E+02  0.51100000000E-03 0. -1.
        -11    1    3    3    0    0 -0.10016655638E+02  0.69423632168E+01  0.72325282717E+01  0.14171776976E+02  0.51100000000E-03 0.  1.
         12    1    3    3    0    0 -0.25891841057E+01  0.11194168903E+02 -0.28855032194E+02  0.31058431620E+02  0.00000000000E+00 0. -1.
</event>
<event>
 7    1  0.1324280E-011  0.5930196E+02  0.7816164E-02  0.1266605E+00
        -11   -1    0    0    0    0  0.00000000000E+00  0.00000000000E+00  0.45593999997E+02  0.45594000000E+02  0.51100000000E-03 0.  1.
         11   -1    0    0    0    0 -0.00000000000E+00 -0.00000000000E+00 -0.45593999997E+02  0.45594000000E+02  0.51100000000E-03 0. -1.
    9900012    2    1    2    0    0 -0.20657248479E+01  0.24923569222E+01 -0.31721288906E+02  0.59301964937E+02  0.50000038133E+02 0.  0.
        -12    1    1    2    0    0  0.20657248479E+01 -0.24923569222E+01  0.31721288906E+02  0.31886035063E+02  0.00000000000E+00 0.  1.
         11    1    3    3    0    0  0.13913899946E+02 -0.11075296819E+02 -0.27946140295E+02  0.33124697266E+02  0.51100000000E-03 0. -1.
        -11    1    3    3    0    0 -0.71039292894E+00  0.66860666631E+01  0.38794697395E+01  0.77626304342E+01  0.51100000000E-03 0.  1.
        -12    1    3    3    0    0 -0.15269231865E+02  0.68815870779E+01 -0.76546183505E+01  0.18414637236E+02  0.00000000000E+00 0.  1.
</event>
<event>
 7    1  0.1324280E-011  0.5930194E+02  0.7816164E-02  0.1266605E+00
        -11   -1    0    0    0    0  0.00000000000E+00  0.00000000000E+00  0.45593999997E+02  0.45594000000E+02  0.51100000000E-03 0. -1.
         11   -1    0    0    0    0 -0.00000000000E+00 -0.00000000000E+00 -0.45593999997E+02  0.45594000000E+02  0.51100000000E-03 0.  1.
    9900012    2    1    2    0    0 -0.16665061488E+02  0.16361968406E+02  0.21709041979E+02  0.59301940536E+02  0.49999993632E+02 0.  0.
        -12    1    1    2    0    0  0.16665061488E+02 -0.16361968406E+02 -0.21709041979E+02  0.31886059464E+02  0.00000000000E+00 0.  1.
         11    1    3    3    0    0 -0.31429295718E+01 -0.13674898759E+02  0.59851404810E+01  0.15254598297E+02  0.51100000000E-03 0.  1.
        -11    1    3    3    0    0  0.39163963362E+01  0.63318502057E+01  0.12357545238E+02  0.14427037529E+02  0.51100000000E-03 0. -1.
        -12    1    3    3    0    0 -0.17438528253E+02  0.23705016959E+02  0.33663562597E+01  0.29620304710E+02  0.00000000000E+00 0.  1.
</event>
<event>
 7    1  0.1324280E-011  0.5930195E+02  0.7816164E-02  0.1266605E+00
        -11   -1    0    0    0    0  0.00000000000E+00  0.00000000000E+00  0.45593999997E+02  0.45594000000E+02  0.51100000000E-03 0.  1.
         11   -1    0    0    0    0 -0.00000000000E+00 -0.00000000000E+00 -0.45593999997E+02  0.45594000000E+02  0.51100000000E-03 0. -1.
    9900012    2    1    2    0    0  0.15632256748E+02 -0.24188388974E+02  0.13684821495E+02  0.59301953655E+02  0.50000017557E+02 0.  0.
        -12    1    1    2    0    0 -0.15632256748E+02  0.24188388974E+02 -0.13684821495E+02  0.31886046345E+02  0.00000000000E+00 0.  1.
         11    1    3    3    0    0 -0.38588718052E+01  0.59368064028E+01  0.49475838129E+01  0.86380060036E+01  0.51100000000E-03 0. -1.
        -11    1    3    3    0    0  0.15150110104E+02 -0.29541379671E+02  0.19876210486E+02  0.38694737273E+02  0.51100000000E-03 0.  1.
         12    1    3    3    0    0  0.43410184490E+01 -0.58381570535E+00 -0.11138972804E+02  0.11969210378E+02  0.00000000000E+00 0. -1.
</event>
<event>
 7    1  0.1324280E-011  0.5930196E+02  0.7816164E-02  0.1266605E+00
        -11   -1    0    0    0    0  0.00000000000E+00  0.00000000000E+00  0.45593999997E+02  0.45594000000E+02  0.51100000000E-03 0. -1.
         11   -1    0    0    0    0 -0.00000000000E+00 -0.00000000000E+00 -0.45593999997E+02  0.45594000000E+02  0.51100000000E-03 0.  1.
    9900012    2    1    2    0    0 -0.17189105408E+02  0.21396431904E+02  0.16231052865E+02  0.59301957284E+02  0.50000024177E+02 0.  0.
        -12    1    1    2    0    0  0.17189105408E+02 -0.21396431904E+02 -0.16231052865E+02  0.31886042716E+02  0.00000000000E+00 0.  1.
         11    1    3    3    0    0 -0.19896966968E+02 -0.33420878240E+01  0.14415616432E+02  0.24796549013E+02  0.51100000000E-03 0.  1.
        -11    1    3    3    0    0 -0.91879548956E+01  0.58155042992E+01 -0.36954093030E+01  0.11484539851E+02  0.51100000000E-03 0. -1.
        -12    1    3    3    0    0  0.11895816456E+02  0.18923015429E+02  0.55108457358E+01  0.23020868420E+02  0.00000000000E+00 0.  1.
</event>
<event>
 7    1  0.1324280E-011  0.5930192E+02  0.7816164E-02  0.1266605E+00
        -11   -1    0    0    0    0  0.00000000000E+00  0.00000000000E+00  0.45593999997E+02  0.45594000000E+02  0.51100000000E-03 0. -1.
         11   -1    0    0    0    0 -0.00000000000E+00 -0.00000000000E+00 -0.45593999997E+02  0.45594000000E+02  0.51100000000E-03 0.  1.
    9900012    2    1    2    0    0  0.57978945562E+01 -0.28225695129E+01  0.31227221443E+02  0.59301924058E+02  0.49999963580E+02 0.  0.
        -12    1    1    2    0    0 -0.57978945562E+01  0.28225695129E+01 -0.31227221443E+02  0.31886075942E+02  0.00000000000E+00 0.  1.
         11    1    3    3    0    0 -0.11222132720E+02 -0.47585297221E+01  0.62692971616E+01  0.13707076824E+02  0.51100000000E-03 0. -1.
        -11    1    3    3    0    0 -0.30597594897E+01 -0.47423893138E+00  0.25180053164E+02  0.25369708479E+02  0.51100000000E-03 0.  1.
        -12    1    3    3    0    0  0.20079786766E+02  0.24101991406E+01 -0.22212888271E+00  0.20225138756E+02  0.00000000000E+00 0.  1.
</event>
<event>
 7    1  0.1324280E-011  0.5930187E+02  0.7816164E-02  0.1266605E+00
        -11   -1    0    0    0    0  0.00000000000E+00  0.00000000000E+00  0.45593999997E+02  0.45594000000E+02  0.51100000000E-03 0. -1.
         11   -1    0    0    0    0 -0.00000000000E+00 -0.00000000000E+00 -0.45593999997E+02  0.45594000000E+02  0.51100000000E-03 0.  1.
    9900012    2    1    2    0    0 -0.28115080665E+02 -0.52024003066E+01  0.14113903002E+02  0.59301874683E+02  0.49999873532E+02 0.  0.
        -12    1    1    2    0    0  0.28115080665E+02  0.52024003066E+01 -0.14113903002E+02  0.31886125317E+02  0.00000000000E+00 0.  1.
         11    1    3    3    0    0 -0.13752444378E+02 -0.13480264580E+00  0.66607462397E+01  0.15281146516E+02  0.51100000000E-03 0. -1.
        -11    1    3    3    0    0  0.29230480181E+01  0.14266906462E+02 -0.48041361533E+01  0.15335206362E+02  0.51100000000E-03 0.  1.
         12    1    3    3    0    0 -0.17285684305E+02 -0.19334504123E+02  0.12257292916E+02  0.28685521805E+02  0.00000000000E+00 0. -1.
</event>
<event>
 7    1  0.1324280E-011  0.5930197E+02  0.7816164E-02  0.1266605E+00
        -11   -1    0    0    0    0  0.00000000000E+00  0.00000000000E+00  0.45593999997E+02  0.45594000000E+02  0.51100000000E-03 0.  1.
         11   -1    0    0    0    0 -0.00000000000E+00 -0.00000000000E+00 -0.45593999997E+02  0.45594000000E+02  0.51100000000E-03 0. -1.
    9900012    2    1    2    0    0 -0.20884978769E+02 -0.21028579708E+02 -0.11761606054E+02  0.59301970462E+02  0.50000048210E+02 0.  0.
        -12    1    1    2    0    0  0.20884978769E+02  0.21028579708E+02  0.11761606054E+02  0.31886029538E+02  0.00000000000E+00 0.  1.
         11    1    3    3    0    0 -0.33274136233E+02 -0.26595635149E+02 -0.40455536495E+01  0.42788578565E+02  0.51100000000E-03 0.  1.
        -11    1    3    3    0    0  0.69565534515E+01  0.22312174725E+00 -0.32601836013E+01  0.76858452114E+01  0.51100000000E-03 0. -1.
        -12    1    3    3    0    0  0.54326040129E+01  0.53439336936E+01 -0.44558688037E+01  0.88275466851E+01  0.00000000000E+00 0.  1.
</event>
<event>
 7    1  0.1324280E-011  0.5930194E+02  0.7816164E-02  0.1266605E+00
        -11   -1    0    0    0    0  0.00000000000E+00  0.00000000000E+00  0.45593999997E+02  0.45594000000E+02  0.51100000000E-03 0.  1.
         11   -1    0    0    0    0 -0.00000000000E+00 -0.00000000000E+00 -0.45593999997E+02  0.45594000000E+02  0.51100000000E-03 0. -1.
    9900012    2    1    2    0    0 -0.22443578677E+02  0.22612716242E+02  0.12928896413E+01  0.59301941553E+02  0.49999995486E+02 0.  0.
        -12    1    1    2    0    0  0.22443578677E+02 -0.22612716242E+02 -0.12928896413E+01  0.31886058447E+02  0.00000000000E+00 0.  1.
         11    1    3    3    0    0 -0.11092943966E+02  0.13839230137E+01 -0.70321330971E+00  0.11201033790E+02  0.51100000000E-03 0. -1.
        -11    1    3    3    0    0  0.15521816064E+01  0.61066484390E+01 -0.18502844606E+02  0.19546244695E+02  0.51100000000E-03 0.  1.
         12    1    3    3    0    0 -0.12902816318E+02  0.15122144790E+02  0.20498947557E+02  0.28554663068E+02  0.00000000000E+00 0. -1.
</event>
<event>
 7    1  0.1324280E-011  0.5930195E+02  0.7816164E-02  0.1266605E+00
        -11   -1    0    0    0    0  0.00000000000E+00  0.00000000000E+00  0.45593999997E+02  0.45594000000E+02  0.51100000000E-03 0.  1.
         11   -1    0    0    0    0 -0.00000000000E+00 -0.00000000000E+00 -0.45593999997E+02  0.45594000000E+02  0.51100000000E-03 0. -1.
    9900012    2    1    2    0    0 -0.31453607038E+02  0.52323109569E+01 -0.11736637979E+00  0.59301948998E+02  0.50000009065E+02 0.  0.
        -12    1    1    2    0    0  0.31453607038E+02 -0.52323109569E+01  0.11736637979E+00  0.31886051002E+02  0.00000000000E+00 0.  1.
         11    1    3    3    0    0  0.24200841417E+01 -0.41380674857E+00  0.12424178943E+01  0.27516623636E+01  0.51100000000E-03 0. -1.
        -11    1    3    3    0    0 -0.10941516096E+02  0.24369511092E+02 -0.31109512456E+01  0.26893639829E+02  0.51100000000E-03 0.  1.
         12    1    3    3    0    0 -0.22932175083E+02 -0.18723393387E+02  0.17511669714E+01  0.29656646805E+02  0.00000000000E+00 0. -1.
</event>
<event>
 7    1  0.1324280E-011  0.5930194E+02  0.7816164E-02  0.1266605E+00
        -11   -1    0    0    0    0  0.00000000000E+00  0.00000000000E+00  0.45593999997E+02  0.45594000000E+02  0.51100000000E-03 0.  1.
         11   -1    0    0    0    0 -0.00000000000E+00 -0.00000000000E+00 -0.45593999997E+02  0.45594000000E+02  0.51100000000E-03 0. -1.
    9900012    2    1    2    0    0 -0.10118876054E+02  0.74464926975E+01 -0.29306631989E+02  0.59301943727E+02  0.49999999452E+02 0.  0.
        -12    1    1    2    0    0  0.10118876054E+02 -0.74464926975E+01  0.29306631989E+02  0.31886056273E+02  0.00000000000E+00 0.  1.
         11    1    3    3    0    0 -0.29452940430E+01 -0.85533824312E+01 -0.63892217612E+01  0.11075073950E+02  0.51100000000E-03 0. -1.
        -11    1    3    3    0    0 -0.21814660324E+02  0.38130009788E+01 -0.65014861574E+01  0.23080028250E+02  0.51100000000E-03 0.  1.
         12    1    3    3    0    0  0.14641078313E+02  0.12186874150E+02 -0.16415924070E+02  0.25146841527E+02  0.00000000000E+00 0. -1.
</event>
<event>
 7    1  0.1324280E-011  0.5930196E+02  0.7816164E-02  0.1266605E+00
        -11   -1    0    0    0    0  0.00000000000E+00  0.00000000000E+00  0.45593999997E+02  0.45594000000E+02  0.51100000000E-03 0. -1.
         11   -1    0    0    0    0 -0.00000000000E+00 -0.00000000000E+00 -0.45593999997E+02  0.45594000000E+02  0.51100000000E-03 0.  1.
    9900012    2    1    2    0    0 -0.29453224494E+02  0.60908495419E+01  0.10589068551E+02  0.59301964592E+02  0.50000037505E+02 0.  0.
        -12    1    1    2    0    0  0.29453224494E+02 -0.60908495419E+01 -0.10589068551E+02  0.31886035408E+02  0.00000000000E+00 0.  1.
         11    1    3    3    0    0  0.70909169537E+01 -0.46009194935E+01 -0.55854024610E+01  0.10131450259E+02  0.51100000000E-03 0. -1.
        -11    1    3    3    0    0 -0.12961453765E+02  0.15218975889E+02 -0.39688411148E+00  0.19994349904E+02  0.51100000000E-03 0.  1.
         12    1    3    3    0    0 -0.23582687683E+02 -0.45272068536E+01  0.16571355123E+02  0.29176164430E+02  0.00000000000E+00 0. -1.
</event>
<event>
 7    1  0.1324280E-011  0.5930194E+02  0.7816164E-02  0.1266605E+00
        -11   -1    0    0    0    0  0.00000000000E+00  0.00000000000E+00  0.45593999997E+02  0.45594000000E+02  0.51100000000E-03 0.  1.
         11   -1    0    0    0    0 -0.00000000000E+00 -0.00000000000E+00 -0.45593999997E+02  0.45594000000E+02  0.51100000000E-03 0. -1.
    9900012    2    1    2    0    0  0.13324370097E+02 -0.14960966256E+02 -0.24806276293E+02  0.59301942023E+02  0.49999996343E+02 0.  0.
        -12    1    1    2    0    0 -0.13324370097E+02  0.14960966256E+02  0.24806276293E+02  0.31886057977E+02  0.00000000000E+00 0.  1.
         11    1    3    3    0    0 -0.36845550003E+01 -0.10401178109E+02 -0.14480295397E+02  0.18205477380E+02  0.51100000000E-03 0. -1.
        -11    1    3    3    0    0  0.22865589172E+02 -0.12839758156E+02 -0.14687024887E+02  0.30056667446E+02  0.51100000000E-03 0.  1.
        -12    1    3    3    0    0 -0.58566640747E+01  0.82799700093E+01  0.43610439904E+01  0.11039797196E+02  0.00000000000E+00 0.  1.
</event>
<event>
 7    1  0.1324280E-011  0.5930199E+02  0.7816164E-02  0.1266605E+00
        -11   -1    0    0    0    0  0.00000000000E+00  0.00000000000E+00  0.45593999997E+02  0.45594000000E+02  0.51100000000E-03 0. -1.
         11   -1    0    0    0    0 -0.00000000000E+00 -0.00000000000E+00 -0.45593999997E+02  0.45594000000E+02  0.51100000000E-03 0.  1.
    9900012    2    1    2    0    0  0.12093638090E+02  0.29495105883E+02  0.70714753755E+00  0.59301993493E+02  0.50000090213E+02 0.  0.
        -12    1    1    2    0    0 -0.12093638090E+02 -0.29495105883E+02 -0.70714753755E+00  0.31886006507E+02  0.00000000000E+00 0.  1.
         11    1    3    3    0    0  0.14583419688E+02  0.42253812000E+01  0.68670937654E+01  0.16663941705E+02  0.51100000000E-03 0. -1.
        -11    1    3    3    0    0  0.10048188758E+02  0.27439235006E+02 -0.21645942874E+01  0.29301248842E+02  0.51100000000E-03 0.  1.
         12    1    3    3    0    0 -0.12537970356E+02 -0.21695103224E+01 -0.39953519404E+01  0.13336802946E+02  0.00000000000E+00 0. -1.
</event>
<event>
 7    1  0.1324280E-011  0.5930191E+02  0.7816164E-02  0.1266605E+00
        -11   -1    0    0    0    0  0.00000000000E+00  0.00000000000E+00  0.45593999997E+02  0.45594000000E+02  0.51100000000E-03 0. -1.
         11   -1    0    0    0    0 -0.00000000000E+00 -0.00000000000E+00 -0.45593999997E+02  0.45594000000E+02  0.51100000000E-03 0.  1.
    9900012    2    1    2    0    0  0.24775731096E+02 -0.12835236485E+02  0.15431868051E+02  0.59301910580E+02  0.49999938999E+02 0.  0.
        -12    1    1    2    0    0 -0.24775731096E+02  0.12835236485E+02 -0.15431868051E+02  0.31886089420E+02  0.00000000000E+00 0.  1.
         11    1    3    3    0    0  0.21703171864E+02 -0.30887888850E+01  0.19836091078E+02  0.29564147125E+02  0.51100000000E-03 0. -1.
        -11    1    3    3    0    0  0.80811304156E+01 -0.15645568741E+02  0.42635657931E+01  0.18118125829E+02  0.51100000000E-03 0.  1.
        -12    1    3    3    0    0 -0.50085711838E+01  0.58991211405E+01 -0.86677888196E+01  0.11619637626E+02  0.00000000000E+00 0.  1.
</event>
<event>
 7    1  0.1324280E-011  0.5930200E+02  0.7816164E-02  0.1266605E+00
        -11   -1    0    0    0    0  0.00000000000E+00  0.00000000000E+00  0.45593999997E+02  0.45594000000E+02  0.51100000000E-03 0. -1.
         11   -1    0    0    0    0 -0.00000000000E+00 -0.00000000000E+00 -0.45593999997E+02  0.45594000000E+02  0.51100000000E-03 0.  1.
    9900012    2    1    2    0    0  0.22243602767E+02  0.21820364295E+02  0.67683723131E+01  0.59301999533E+02  0.50000101227E+02 0.  0.
        -12    1    1    2    0    0 -0.22243602767E+02 -0.21820364295E+02 -0.67683723131E+01  0.31886000467E+02  0.00000000000E+00 0.  1.
         11    1    3    3    0    0  0.71049090165E+01  0.17503830752E+02 -0.56110926717E+01  0.19706551813E+02  0.51100000000E-03 0. -1.
        -11    1    3    3    0    0  0.16931415203E+02  0.24308547376E+01 -0.81178878999E+01  0.18933620355E+02  0.51100000000E-03 0.  1.
         12    1    3    3    0    0 -0.17927214523E+01  0.18856788057E+01  0.20497352885E+02  0.20661827365E+02  0.00000000000E+00 0. -1.
</event>
<event>
 7    1  0.1324280E-011  0.5930195E+02  0.7816164E-02  0.1266605E+00
        -11   -1    0    0    0    0  0.00000000000E+00  0.00000000000E+00  0.45593999997E+02  0.45594000000E+02  0.51100000000E-03 0.  1.
         11   -1    0    0    0    0 -0.00000000000E+00 -0.00000000000E+00 -0.45593999997E+02  0.45594000000E+02  0.51100000000E-03 0. -1.
    9900012    2    1    2    0    0  0.14735163978E+02 -0.23634711320E+02 -0.15524031088E+02  0.59301950105E+02  0.50000011084E+02 0.  0.
        -12    1    1    2    0    0 -0.14735163978E+02  0.23634711320E+02  0.15524031088E+02  0.31886049895E+02  0.00000000000E+00 0.  1.
         11    1    3    3    0    0  0.10542918138E+02  0.11518429364E+01 -0.18137942575E+02  0.21011064374E+02  0.51100000000E-03 0. -1.
        -11    1    3    3    0    0 -0.10678335335E+02 -0.74215730232E+01 -0.53777897748E+01  0.14072214282E+02  0.51100000000E-03 0.  1.
        -12    1    3    3    0    0  0.14870581176E+02 -0.17364981233E+02  0.79917012613E+01  0.24218671450E+02  0.00000000000E+00 0.  1.
</event>
<event>
 7    1  0.1324280E-011  0.5930189E+02  0.7816164E-02  0.1266605E+00
        -11   -1    0    0    0    0  0.00000000000E+00  0.00000000000E+00  0.45593999997E+02  0.45594000000E+02  0.51100000000E-03 0. -1.
         11   -1    0    0    0    0 -0.00000000000E+00 -0.00000000000E+00 -0.45593999997E+02  0.45594000000E+02  0.51100000000E-03 0.  1.
    9900012    2    1    2    0    0  0.14653435194E+02  0.27434822563E+02  0.70236266480E+01  0.59301890433E+02  0.49999902256E+02 0.  0.
        -12    1    1    2    0    0 -0.14653435194E+02 -0.27434822563E+02 -0.70236266480E+01  0.31886109567E+02  0.00000000000E+00 0.  1.
         11    1    3    3    0    0  0.50585356468E+01  0.51312983815E+01  0.18695507164E+02  0.20035992473E+02  0.51100000000E-03 0. -1.
        -11    1    3    3    0    0  0.31214228661E+00 -0.64750742295E+01 -0.52759486131E+01  0.83582087263E+01  0.51100000000E-03 0.  1.
         12    1    3    3    0    0  0.92827572604E+01  0.28778598411E+02 -0.63959319034E+01  0.30907689234E+02  0.00000000000E+00 0. -1.
</event>
<event>
 7    1  0.1324280E-011  0.5930192E+02  0.7816164E-02  0.1266605E+00
        -11   -1    0    0    0    0  0.00000000000E+00  0.00000000000E+00  0.45593999997E+02  0.45594000000E+02  0.51100000000E-03 0. -1.
         11   -1    0    0    0    0 -0.00000000000E+00 -0.00000000000E+00 -0.45593999997E+02  0.45594000000E+02  0.51100000000E-03 0.  1.
    9900012    2    1    2    0    0  0.25041640614E+02 -0.41470441699E+01  0.19298709878E+02  0.59301922427E+02  0.49999960606E+02 0.  0.
        -12    1    1    2    0    0 -0.25041640614E+02  0.41470441699E+01 -0.19298709878E+02  0.31886077573E+02  0.00000000000E+00 0.  1.
         11    1    3    3    0    0  0.11687701125E+02  0.52864775375E+01 -0.15965973555E+01  0.12926651760E+02  0.51100000000E-03 0. -1.
        -11    1    3    3    0    0 -0.77767637869E+01  0.47818710873E+01 -0.47002654091E+01  0.10268244313E+02  0.51100000000E-03 0.  1.
        -12    1    3    3    0    0  0.21130703276E+02 -0.14215392795E+02  0.25595572643E+02  0.36107026354E+02  0.00000000000E+00 0.  1.
</event>
<event>
 7    1  0.1324280E-011  0.5930204E+02  0.7816164E-02  0.1266604E+00
        -11   -1    0    0    0    0  0.00000000000E+00  0.00000000000E+00  0.45593999997E+02  0.45594000000E+02  0.51100000000E-03 0. -1.
         11   -1    0    0    0    0 -0.00000000000E+00 -0.00000000000E+00 -0.45593999997E+02  0.45594000000E+02  0.51100000000E-03 0.  1.
    9900012    2    1    2    0    0  0.29765602880E+02 -0.82040982718E+01  0.79634219399E+01  0.59302040202E+02  0.50000175398E+02 0.  0.
        -12    1    1    2    0    0 -0.29765602880E+02  0.82040982718E+01 -0.79634219399E+01  0.31885959798E+02  0.00000000000E+00 0.  1.
         11    1    3    3    0    0  0.11737573062E+02  0.63190515146E+01 -0.79444589366E+01  0.15518229973E+02  0.51100000000E-03 0. -1.
        -11    1    3    3    0    0  0.93095194492E+01 -0.18135068117E+02 -0.48740158913E+01  0.20959577266E+02  0.51100000000E-03 0.  1.
         12    1    3    3    0    0  0.87185103687E+01  0.36119183307E+01  0.20781896768E+02  0.22824232963E+02  0.00000000000E+00 0. -1.
</event>
<event>
 7    1  0.1324280E-011  0.5930195E+02  0.7816164E-02  0.1266605E+00
        -11   -1    0    0    0    0  0.00000000000E+00  0.00000000000E+00  0.45593999997E+02  0.45594000000E+02  0.51100000000E-03 0.  1.
         11   -1    0    0    0    0 -0.00000000000E+00 -0.00000000000E+00 -0.45593999997E+02  0.45594000000E+02  0.51100000000E-03 0. -1.
    9900012    2    1    2    0    0 -0.98861311507E+01 -0.17336781834E+02 -0.24868068534E+02  0.59301946213E+02  0.50000003986E+02 0.  0.
        -12    1    1    2    0    0  0.98861311507E+01  0.17336781834E+02  0.24868068534E+02  0.31886053787E+02  0.00000000000E+00 0.  1.
         11    1    3    3    0    0 -0.12837499305E+02 -0.20662506682E+02  0.24795407442E+01  0.24451762582E+02  0.51100000000E-03 0. -1.
        -11    1    3    3    0    0  0.47900967035E+01  0.80966984857E+00  0.20608359099E+01  0.52770859953E+01  0.51100000000E-03 0.  1.
         12    1    3    3    0    0 -0.18387285497E+01  0.25160549993E+01 -0.29408445188E+02  0.29573097636E+02  0.00000000000E+00 0. -1.
</event>
<event>
 7    1  0.1324280E-011  0.5930197E+02  0.7816164E-02  0.1266605E+00
        -11   -1    0    0    0    0  0.00000000000E+00  0.00000000000E+00  0.45593999997E+02  0.45594000000E+02  0.51100000000E-03 0.  1.
         11   -1    0    0    0    0 -0.00000000000E+00 -0.00000000000E+00 -0.45593999997E+02  0.45594000000E+02  0.51100000000E-03 0. -1.
    9900012    2    1    2    0    0  0.23940621376E+02 -0.45929639934E+01  0.20554085922E+02  0.59301966722E+02  0.50000041389E+02 0.  0.
        -12    1    1    2    0    0 -0.23940621376E+02  0.45929639934E+01 -0.20554085922E+02  0.31886033278E+02  0.00000000000E+00 0.  1.
         11    1    3    3    0    0 -0.64834369558E+00  0.13441763538E+02  0.62670086349E+00  0.13471975014E+02  0.51100000000E-03 0. -1.
        -11    1    3    3    0    0  0.18352085113E+02  0.36460444083E+01  0.90891953505E+01  0.20801589848E+02  0.51100000000E-03 0.  1.
         12    1    3    3    0    0  0.62368799589E+01 -0.21680771939E+02  0.10838189708E+02  0.25028401860E+02  0.00000000000E+00 0. -1.
</event>
<event>
 7    1  0.1324280E-011  0.5930194E+02  0.7816164E-02  0.1266605E+00
        -11   -1    0    0    0    0  0.00000000000E+00  0.00000000000E+00  0.45593999997E+02  0.45594000000E+02  0.51100000000E-03 0.  1.
         11   -1    0    0    0    0 -0.00000000000E+00 -0.00000000000E+00 -0.45593999997E+02  0.45594000000E+02  0.51100000000E-03 0. -1.
    9900012    2    1    2    0    0 -0.22294780885E+02  0.63093834096E-01 -0.22796042740E+02  0.59301940348E+02  0.49999993288E+02 0.  0.
        -12    1    1    2    0    0  0.22294780885E+02 -0.63093834096E-01  0.22796042740E+02  0.31886059652E+02  0.00000000000E+00 0.  1.
         11    1    3    3    0    0 -0.66400960938E+01  0.13970168806E+02 -0.25622564012E+02  0.29929455047E+02  0.51100000000E-03 0. -1.
        -11    1    3    3    0    0 -0.68558054364E+01 -0.14110373875E+01 -0.80100782463E+01  0.10637407977E+02  0.51100000000E-03 0.  1.
        -12    1    3    3    0    0 -0.87988793551E+01 -0.12496037585E+02  0.10836599518E+02  0.18735077324E+02  0.00000000000E+00 0.  1.
</event>
<event>
 7    1  0.1324280E-011  0.5930192E+02  0.7816164E-02  0.1266605E+00
        -11   -1    0    0    0    0  0.00000000000E+00  0.00000000000E+00  0.45593999997E+02  0.45594000000E+02  0.51100000000E-03 0.  1.
         11   -1    0    0    0    0 -0.00000000000E+00 -0.00000000000E+00 -0.45593999997E+02  0.45594000000E+02  0.51100000000E-03 0. -1.
    9900012    2    1    2    0    0  0.30502563214E+02  0.89926812748E+01 -0.23339627045E+01  0.59301920576E+02  0.49999957230E+02 0.  0.
        -12    1    1    2    0    0 -0.30502563214E+02 -0.89926812748E+01  0.23339627045E+01  0.31886079424E+02  0.00000000000E+00 0.  1.
         11    1    3    3    0    0  0.95858963652E+01  0.39937923293E+01  0.12879506047E+01  0.10464158032E+02  0.51100000000E-03 0. -1.
        -11    1    3    3    0    0  0.23909769587E+02 -0.14402761142E+02 -0.73309018946E+01  0.28859291971E+02  0.51100000000E-03 0.  1.
        -12    1    3    3    0    0 -0.29931027380E+01  0.19401650088E+02  0.37089885854E+01  0.19978470573E+02  0.00000000000E+00 0.  1.
</event>
<event>
 7    1  0.1324280E-011  0.5930208E+02  0.7816164E-02  0.1266604E+00
        -11   -1    0    0    0    0  0.00000000000E+00  0.00000000000E+00  0.45593999997E+02  0.45594000000E+02  0.51100000000E-03 0.  1.
         11   -1    0    0    0    0 -0.00000000000E+00 -0.00000000000E+00 -0.45593999997E+02  0.45594000000E+02  0.51100000000E-03 0. -1.
    9900012    2    1    2    0    0 -0.20973881893E+02  0.20422531034E+02 -0.12638362488E+02  0.59302083017E+02  0.50000253482E+02 0.  0.
        -12    1    1    2    0    0  0.20973881893E+02 -0.20422531034E+02  0.12638362488E+02  0.31885916983E+02  0.00000000000E+00 0.  1.
         11    1    3    3    0    0 -0.54091927585E+01 -0.34557460475E+01  0.43630629390E+01  0.77613056578E+01  0.51100000000E-03 0. -1.
        -11    1    3    3    0    0  0.75507754641E+01 -0.40629720996E+01  0.41856863266E+01  0.95415891065E+01  0.51100000000E-03 0.  1.
         12    1    3    3    0    0 -0.23115464599E+02  0.27941249181E+02 -0.21187111754E+02  0.41999188252E+02  0.00000000000E+00 0. -1.
</event>
<event>
 7    1  0.1324280E-011  0.5930200E+02  0.7816164E-02  0.1266605E+00
        -11   -1    0    0    0    0  0.00000000000E+00  0.00000000000E+00  0.45593999997E+02  0.45594000000E+02  0.51100000000E-03 0.  1.
         11   -1    0    0    0    0 -0.00000000000E+00 -0.00000000000E+00 -0.45593999997E+02  0.45594000000E+02  0.51100000000E-03 0. -1.
    9900012    2    1    2    0    0  0.16913040299E+02 -0.27017452292E+02 -0.85041711465E+00  0.59302001980E+02  0.50000105691E+02 0.  0.
        -12    1    1    2    0    0 -0.16913040299E+02  0.27017452292E+02  0.85041711465E+00  0.31885998020E+02  0.00000000000E+00 0.  1.
         11    1    3    3    0    0 -0.46783688928E+01 -0.21482930548E+01 -0.13217873605E+01  0.53150184039E+01  0.51100000000E-03 0. -1.
        -11    1    3    3    0    0 -0.84029125141E+01 -0.14457254633E+02  0.11590694457E+02  0.20346138418E+02  0.51100000000E-03 0.  1.
        -12    1    3    3    0    0  0.29994321705E+02 -0.10411904604E+02 -0.11119324211E+02  0.33640845158E+02  0.00000000000E+00 0.  1.
</event>
<event>
 7    1  0.1324280E-011  0.5930193E+02  0.7816164E-02  0.1266605E+00
        -11   -1    0    0    0    0  0.00000000000E+00  0.00000000000E+00  0.45593999997E+02  0.45594000000E+02  0.51100000000E-03 0.  1.
         11   -1    0    0    0    0 -0.00000000000E+00 -0.00000000000E+00 -0.45593999997E+02  0.45594000000E+02  0.51100000000E-03 0. -1.
    9900012    2    1    2    0    0  0.64461591155E+01 -0.29501636134E+01 -0.31088015915E+02  0.59301934607E+02  0.49999982819E+02 0.  0.
        -12    1    1    2    0    0 -0.64461591155E+01  0.29501636134E+01  0.31088015915E+02  0.31886065393E+02  0.00000000000E+00 0.  1.
         11    1    3    3    0    0  0.10747159679E+01  0.24633914116E+01  0.22763625075E+01  0.35220928700E+01  0.51100000000E-03 0. -1.
        -11    1    3    3    0    0  0.21562517366E+02  0.53020489148E+01 -0.27805889236E+02  0.35584004191E+02  0.51100000000E-03 0.  1.
         12    1    3    3    0    0 -0.16191074218E+02 -0.10715603940E+02 -0.55584891871E+01  0.20195837546E+02  0.00000000000E+00 0. -1.
</event>
<event>
 7    1  0.1324280E-011  0.5930195E+02  0.7816164E-02  0.1266605E+00
        -11   -1    0    0    0    0  0.00000000000E+00  0.00000000000E+00  0.45593999997E+02  0.45594000000E+02  0.51100000000E-03 0. -1.
         11   -1    0    0    0    0 -0.00000000000E+00 -0.00000000000E+00 -0.45593999997E+02  0.45594000000E+02  0.51100000000E-03 0.  1.
    9900012    2    1    2    0    0 -0.24873785092E+02 -0.18983469175E+02  0.61353940970E+01  0.59301947447E+02  0.50000006236E+02 0.  0.
        -12    1    1    2    0    0  0.24873785092E+02  0.18983469175E+02 -0.61353940970E+01  0.31886052553E+02  0.00000000000E+00 0.  1.
         11    1    3    3    0    0 -0.27801866490E+01 -0.39350787792E+01  0.12770888567E+02  0.13649537643E+02  0.51100000000E-03 0. -1.
        -11    1    3    3    0    0 -0.16737345983E+02 -0.32264910187E+01  0.13467532418E+02  0.21723798575E+02  0.51100000000E-03 0.  1.
        -12    1    3    3    0    0 -0.53562524595E+01 -0.11821899377E+02 -0.20103026888E+02  0.23928611229E+02  0.00000000000E+00 0.  1.
</event>
<event>
 7    1  0.1324280E-011  0.5930191E+02  0.7816164E-02  0.1266605E+00
        -11   -1    0    0    0    0  0.00000000000E+00  0.00000000000E+00  0.45593999997E+02  0.45594000000E+02  0.51100000000E-03 0.  1.
         11   -1    0    0    0    0 -0.00000000000E+00 -0.00000000000E+00 -0.45593999997E+02  0.45594000000E+02  0.51100000000E-03 0. -1.
    9900012    2    1    2    0    0  0.25217227178E+02 -0.18458829866E+02 -0.63313538963E+01  0.59301906029E+02  0.49999930699E+02 0.  0.
        -12    1    1    2    0    0 -0.25217227178E+02  0.18458829866E+02  0.63313538963E+01  0.31886093971E+02  0.00000000000E+00 0.  1.
         11    1    3    3    0    0 -0.34968141748E+01 -0.61995102788E+01 -0.82209023463E+00  0.71650170750E+01  0.51100000000E-03 0. -1.
        -11    1    3    3    0    0 -0.11720092583E+01  0.51759919385E+01  0.12173603110E+02  0.13280102077E+02  0.51100000000E-03 0.  1.
         12    1    3    3    0    0  0.29886050611E+02 -0.17435311525E+02 -0.17682866771E+02  0.38856786877E+02  0.00000000000E+00 0. -1.
</event>
<event>
 7    1  0.1324280E-011  0.5930194E+02  0.7816164E-02  0.1266605E+00
        -11   -1    0    0    0    0  0.00000000000E+00  0.00000000000E+00  0.45593999997E+02  0.45594000000E+02  0.51100000000E-03 0.  1.
         11   -1    0    0    0    0 -0.00000000000E+00 -0.00000000000E+00 -0.45593999997E+02  0.45594000000E+02  0.51100000000E-03 0. -1.
    9900012    2    1    2    0    0  0.14585895798E+02 -0.17734981288E+02 -0.22123350281E+02  0.59301944346E+02  0.50000000580E+02 0.  0.
        -12    1    1    2    0    0 -0.14585895798E+02  0.17734981288E+02  0.22123350281E+02  0.31886055654E+02  0.00000000000E+00 0.  1.
         11    1    3    3    0    0  0.20455458754E+02 -0.73445403973E+01 -0.17712870187E+02  0.28037721680E+02  0.51100000000E-03 0. -1.
        -11    1    3    3    0    0  0.86566413798E+01 -0.13265405943E+02 -0.44606005617E+01  0.16456165788E+02  0.51100000000E-03 0.  1.
        -12    1    3    3    0    0 -0.14526204336E+02  0.28749650518E+01  0.50120467525E-01  0.14808056878E+02  0.00000000000E+00 0.  1.
</event>
<event>
 7    1  0.1324280E-011  0.5930195E+02  0.7816164E-02  0.1266605E+00
        -11   -1    0    0    0    0  0.00000000000E+00  0.00000000000E+00  0.45593999997E+02  0.45594000000E+02  0.51100000000E-03 0. -1.
         11   -1    0    0    0    0 -0.00000000000E+00 -0.00000000000E+00 -0.45593999997E+02  0.45594000000E+02  0.51100000000E-03 0.  1.
    9900012    2    1    2    0    0  0.18464499044E+02  0.13795999522E+02  0.22032993920E+02  0.59301950561E+02  0.50000011915E+02 0.  0.
        -12    1    1    2    0    0 -0.18464499044E+02 -0.13795999522E+02 -0.22032993920E+02  0.31886049439E+02  0.00000000000E+00 0.  1.
         11    1    3    3    0    0 -0.11072052953E+02  0.25957597358E+01  0.12569516563E+01  0.11441514451E+02  0.51100000000E-03 0.  1.
        -11    1    3    3    0    0  0.46251220333E+01 -0.35159600969E+01  0.17859050226E+02  0.18780292981E+02  0.51100000000E-03 0. -1.
        -12    1    3    3    0    0  0.24911429964E+02  0.14716199883E+02  0.29169920375E+01  0.29080143129E+02  0.00000000000E+00 0.  1.
</event>
<event>
 7    1  0.1324280E-011  0.5930195E+02  0.7816164E-02  0.1266605E+00
        -11   -1    0    0    0    0  0.00000000000E+00  0.00000000000E+00  0.45593999997E+02  0.45594000000E+02  0.51100000000E-03 0. -1.
         11   -1    0    0    0    0 -0.00000000000E+00 -0.00000000000E+00 -0.45593999997E+02  0.45594000000E+02  0.51100000000E-03 0.  1.
    9900012    2    1    2    0    0 -0.24477586895E+02  0.15151320392E+01  0.20378237917E+02  0.59301945589E+02  0.50000002848E+02 0.  0.
        -12    1    1    2    0    0  0.24477586895E+02 -0.15151320392E+01 -0.20378237917E+02  0.31886054411E+02  0.00000000000E+00 0.  1.
         11    1    3    3    0    0 -0.13725068352E+02 -0.10961019888E+02  0.90942175847E+01  0.19779440133E+02  0.51100000000E-03 0. -1.
        -11    1    3    3    0    0 -0.13354600438E+02  0.96739606869E+01 -0.90647369728E+01  0.18817553637E+02  0.51100000000E-03 0.  1.
         12    1    3    3    0    0  0.26020818955E+01  0.28021912403E+01  0.20348757305E+02  0.20704951819E+02  0.00000000000E+00 0. -1.
</event>
<event>
 7    1  0.1324280E-011  0.5930195E+02  0.7816164E-02  0.1266605E+00
        -11   -1    0    0    0    0  0.00000000000E+00  0.00000000000E+00  0.45593999997E+02  0.45594000000E+02  0.51100000000E-03 0.  1.
         11   -1    0    0    0    0 -0.00000000000E+00 -0.00000000000E+00 -0.45593999997E+02  0.45594000000E+02  0.51100000000E-03 0. -1.
    9900012    2    1    2    0    0 -0.97917844148E+00 -0.24017388499E+02 -0.20950564920E+02  0.59301954287E+02  0.50000018710E+02 0.  0.
        -12    1    1    2    0    0  0.97917844148E+00  0.24017388499E+02  0.20950564920E+02  0.31886045713E+02  0.00000000000E+00 0.  1.
         11    1    3    3    0    0  0.67750119388E+01 -0.10215518573E+02 -0.17443769080E+02  0.21320006718E+02  0.51100000000E-03 0. -1.
        -11    1    3    3    0    0 -0.88730952866E+01  0.21686039494E+00 -0.16563682338E+02  0.18791871148E+02  0.51100000000E-03 0.  1.
        -12    1    3    3    0    0  0.11189049064E+01 -0.14018730322E+02  0.13056886498E+02  0.19190076421E+02  0.00000000000E+00 0.  1.
</event>
<event>
 7    1  0.1324280E-011  0.5930194E+02  0.7816164E-02  0.1266605E+00
        -11   -1    0    0    0    0  0.00000000000E+00  0.00000000000E+00  0.45593999997E+02  0.45594000000E+02  0.51100000000E-03 0.  1.
         11   -1    0    0    0    0 -0.00000000000E+00 -0.00000000000E+00 -0.45593999997E+02  0.45594000000E+02  0.51100000000E-03 0. -1.
    9900012    2    1    2    0    0 -0.60555965828E+01 -0.94045428275E+01 -0.29859758958E+02  0.59301939083E+02  0.49999990982E+02 0.  0.
        -12    1    1    2    0    0  0.60555965828E+01  0.94045428275E+01  0.29859758958E+02  0.31886060917E+02  0.00000000000E+00 0.  1.
         11    1    3    3    0    0  0.45356561735E+01 -0.25687563343E+01 -0.12586059366E+02  0.13622759510E+02  0.51100000000E-03 0. -1.
        -11    1    3    3    0    0  0.16860789963E+01 -0.19457313083E+02 -0.19892974074E+02  0.27877595172E+02  0.51100000000E-03 0.  1.
        -12    1    3    3    0    0 -0.12277331753E+02  0.12621526589E+02  0.26192744823E+01  0.17801584402E+02  0.00000000000E+00 0.  1.
</event>
<event>
 7    1  0.1324280E-011  0.5930195E+02  0.7816164E-02  0.1266605E+00
        -11   -1    0    0    0    0  0.00000000000E+00  0.00000000000E+00  0.45593999997E+02  0.45594000000E+02  0.51100000000E-03 0. -1.
         11   -1    0    0    0    0 -0.00000000000E+00 -0.00000000000E+00 -0.45593999997E+02  0.45594000000E+02  0.51100000000E-03 0.  1.
    9900012    2    1    2    0    0  0.28954965109E-01 -0.45900250732E+01  0.31553942963E+02  0.59301945288E+02  0.50000002298E+02 0.  0.
        -12    1    1    2    0    0 -0.28954965109E-01  0.45900250732E+01 -0.31553942963E+02  0.31886054712E+02  0.00000000000E+00 0.  1.
         11    1    3    3    0    0  0.24138433470E+00  0.17918951823E+02  0.57275428558E+01  0.18813608060E+02  0.51100000000E-03 0. -1.
        -11    1    3    3    0    0 -0.41408945570E+01  0.30487202326E+01  0.27529434066E+01  0.58327009567E+01  0.51100000000E-03 0.  1.
        -12    1    3    3    0    0  0.39284651874E+01 -0.25557697128E+02  0.23073456701E+02  0.34655636271E+02  0.00000000000E+00 0.  1.
</event>
<event>
 7    1  0.1324280E-011  0.5930192E+02  0.7816164E-02  0.1266605E+00
        -11   -1    0    0    0    0  0.00000000000E+00  0.00000000000E+00  0.45593999997E+02  0.45594000000E+02  0.51100000000E-03 0.  1.
         11   -1    0    0    0    0 -0.00000000000E+00 -0.00000000000E+00 -0.45593999997E+02  0.45594000000E+02  0.51100000000E-03 0. -1.
    9900012    2    1    2    0    0 -0.25743022795E+02 -0.71171245478E+00 -0.18801920524E+02  0.59301921962E+02  0.49999959757E+02 0.  0.
        -12    1    1    2    0    0  0.25743022795E+02  0.71171245478E+00  0.18801920524E+02  0.31886078038E+02  0.00000000000E+00 0.  1.
         11    1    3    3    0    0 -0.14287376234E+02  0.12344859626E+01  0.12966380871E+02  0.19333393608E+02  0.51100000000E-03 0. -1.
        -11    1    3    3    0    0 -0.70461837432E+01 -0.11530150251E+01  0.71693174128E+00  0.71758024202E+01  0.51100000000E-03 0.  1.
         12    1    3    3    0    0 -0.44094628185E+01 -0.79318339236E+00 -0.32485233136E+02  0.32792725934E+02  0.00000000000E+00 0. -1.
</event>
<event>
 7    1  0.1324280E-011  0.5930193E+02  0.7816164E-02  0.1266605E+00
        -11   -1    0    0    0    0  0.00000000000E+00  0.00000000000E+00  0.45593999997E+02  0.45594000000E+02  0.51100000000E-03 0.  1.
         11   -1    0    0    0    0 -0.00000000000E+00 -0.00000000000E+00 -0.45593999997E+02  0.45594000000E+02  0.51100000000E-03 0. -1.
    9900012    2    1    2    0    0 -0.20820503594E+01  0.22031658574E+02 -0.22956320574E+02  0.59301928315E+02  0.49999971343E+02 0.  0.
        -12    1    1    2    0    0  0.20820503594E+01 -0.22031658574E+02  0.22956320574E+02  0.31886071685E+02  0.00000000000E+00 0.  1.
         11    1    3    3    0    0 -0.90653197342E+01  0.18652893355E+02  0.63676947878E+00  0.20748877754E+02  0.51100000000E-03 0.  1.
        -11    1    3    3    0    0  0.92711979488E+01 -0.88140503261E+01 -0.10668491700E+01  0.12836695913E+02  0.51100000000E-03 0. -1.
         12    1    3    3    0    0 -0.22879285739E+01  0.12192815545E+02 -0.22526240883E+02  0.25716354648E+02  0.00000000000E+00 0. -1.
</event>
<event>
 7    1  0.1324280E-011  0.5930195E+02  0.7816164E-02  0.1266605E+00
        -11   -1    0    0    0    0  0.00000000000E+00  0.00000000000E+00  0.45593999997E+02  0.45594000000E+02  0.51100000000E-03 0.  1.
         11   -1    0    0    0    0 -0.00000000000E+00 -0.00000000000E+00 -0.45593999997E+02  0.45594000000E+02  0.51100000000E-03 0. -1.
    9900012    2    1    2    0    0  0.62683285107E+01  0.31247848307E+02 -0.10001739830E+01  0.59301947969E+02  0.50000007188E+02 0.  0.
        -12    1    1    2    0    0 -0.62683285107E+01 -0.31247848307E+02  0.10001739830E+01  0.31886052031E+02  0.00000000000E+00 0.  1.
         11    1    3    3    0    0  0.16089977138E+02 -0.24756583518E+01 -0.29263555814E+00  0.16281949650E+02  0.51100000000E-03 0. -1.
        -11    1    3    3    0    0  0.78535918289E+01  0.62399420675E+01 -0.23492754948E+01  0.10302178276E+02  0.51100000000E-03 0.  1.
        -12    1    3    3    0    0 -0.17675240456E+02  0.27483564591E+02  0.16417370699E+01  0.32717820044E+02  0.00000000000E+00 0.  1.
</event>
<event>
 7    1  0.1324280E-011  0.5930194E+02  0.7816164E-02  0.1266605E+00
        -11   -1    0    0    0    0  0.00000000000E+00  0.00000000000E+00  0.45593999997E+02  0.45594000000E+02  0.51100000000E-03 0.  1.
         11   -1    0    0    0    0 -0.00000000000E+00 -0.00000000000E+00 -0.45593999997E+02  0.45594000000E+02  0.51100000000E-03 0. -1.
    9900012    2    1    2    0    0  0.22494907471E+02 -0.20893231701E+02  0.86123543778E+01  0.59301942844E+02  0.49999997842E+02 0.  0.
        -12    1    1    2    0    0 -0.22494907471E+02  0.20893231701E+02 -0.86123543778E+01  0.31886057156E+02  0.00000000000E+00 0.  1.
         11    1    3    3    0    0  0.22040698673E+01  0.82720471335E+01  0.45231950880E+01  0.96821475832E+01  0.51100000000E-03 0. -1.
        -11    1    3    3    0    0  0.29423460686E+02 -0.17997183098E+02 -0.45551751114E+00  0.34494146383E+02  0.51100000000E-03 0.  1.
        -12    1    3    3    0    0 -0.91326230831E+01 -0.11168095736E+02  0.45446768009E+01  0.15125648878E+02  0.00000000000E+00 0.  1.
</event>
<event>
 7    1  0.1324280E-011  0.5930194E+02  0.7816164E-02  0.1266605E+00
        -11   -1    0    0    0    0  0.00000000000E+00  0.00000000000E+00  0.45593999997E+02  0.45594000000E+02  0.51100000000E-03 0. -1.
         11   -1    0    0    0    0 -0.00000000000E+00 -0.00000000000E+00 -0.45593999997E+02  0.45594000000E+02  0.51100000000E-03 0.  1.
    9900012    2    1    2    0    0 -0.12750821393E+02 -0.18276133986E+02  0.22806141644E+02  0.59301943230E+02  0.49999998545E+02 0.  0.
        -12    1    1    2    0    0  0.12750821393E+02  0.18276133986E+02 -0.22806141644E+02  0.31886056770E+02  0.00000000000E+00 0.  1.
         11    1    3    3    0    0 -0.16877822804E+02  0.14008447802E+00  0.69078247258E+00  0.16892534059E+02  0.51100000000E-03 0. -1.
        -11    1    3    3    0    0  0.38991694302E+01 -0.32464074271E+00 -0.70643813816E+01  0.80755432277E+01  0.51100000000E-03 0.  1.
         12    1    3    3    0    0  0.22783198082E+00 -0.18091577721E+02  0.29179740553E+02  0.34333865943E+02  0.00000000000E+00 0. -1.
</event>
<event>
 7    1  0.1324280E-011  0.5930164E+02  0.7816164E-02  0.1266606E+00
        -11   -1    0    0    0    0  0.00000000000E+00  0.00000000000E+00  0.45593999997E+02  0.45594000000E+02  0.51100000000E-03 0.  1.
         11   -1    0    0    0    0 -0.00000000000E+00 -0.00000000000E+00 -0.45593999997E+02  0.45594000000E+02  0.51100000000E-03 0. -1.
    9900012    2    1    2    0    0 -0.25566868054E+02 -0.74063511151E+01 -0.17556226923E+02  0.59301641119E+02  0.49999447563E+02 0.  0.
        -12    1    1    2    0    0  0.25566868054E+02  0.74063511151E+01  0.17556226923E+02  0.31886358881E+02  0.00000000000E+00 0.  1.
         11    1    3    3    0    0 -0.54623712101E+01 -0.11045215741E+02 -0.51582801328E+01  0.13358223841E+02  0.51100000000E-03 0. -1.
        -11    1    3    3    0    0 -0.25453330456E+02 -0.45021616072E+01 -0.20722869233E+02  0.33129726832E+02  0.51100000000E-03 0.  1.
         12    1    3    3    0    0  0.53488336121E+01  0.81410262329E+01  0.83249224435E+01  0.12813690445E+02  0.00000000000E+00 0. -1.
</event>
<event>
 7    1  0.1324280E-011  0.5930193E+02  0.7816164E-02  0.1266605E+00
        -11   -1    0    0    0    0  0.00000000000E+00  0.00000000000E+00  0.45593999997E+02  0.45594000000E+02  0.51100000000E-03 0.  1.
         11   -1    0    0    0    0 -0.00000000000E+00 -0.00000000000E+00 -0.45593999997E+02  0.45594000000E+02  0.51100000000E-03 0. -1.
    9900012    2    1    2    0    0 -0.30716308420E+02 -0.39065540500E+01  0.76137079942E+01  0.59301932245E+02  0.49999978511E+02 0.  0.
        -12    1    1    2    0    0  0.30716308420E+02  0.39065540500E+01 -0.76137079942E+01  0.31886067755E+02  0.00000000000E+00 0.  1.
         11    1    3    3    0    0 -0.27228676721E+01  0.99589760947E+01 -0.77137078987E+01  0.12887843226E+02  0.51100000000E-03 0. -1.
        -11    1    3    3    0    0  0.49249236813E+01 -0.79247903826E+01  0.77191863300E+01  0.12109624839E+02  0.51100000000E-03 0.  1.
         12    1    3    3    0    0 -0.32918364429E+02 -0.59407397621E+01  0.76082295629E+01  0.34304464180E+02  0.00000000000E+00 0. -1.
</event>
<event>
 7    1  0.1324280E-011  0.5930188E+02  0.7816164E-02  0.1266605E+00
        -11   -1    0    0    0    0  0.00000000000E+00  0.00000000000E+00  0.45593999997E+02  0.45594000000E+02  0.51100000000E-03 0.  1.
         11   -1    0    0    0    0 -0.00000000000E+00 -0.00000000000E+00 -0.45593999997E+02  0.45594000000E+02  0.51100000000E-03 0. -1.
    9900012    2    1    2    0    0  0.24895496841E+02 -0.18448744813E+02 -0.75221278633E+01  0.59301884593E+02  0.49999891605E+02 0.  0.
        -12    1    1    2    0    0 -0.24895496841E+02  0.18448744813E+02  0.75221278633E+01  0.31886115407E+02  0.00000000000E+00 0.  1.
         11    1    3    3    0    0  0.15272401144E+02 -0.19958008776E+02 -0.79204404967E+01  0.26349605860E+02  0.51100000000E-03 0. -1.
        -11    1    3    3    0    0  0.13347372866E+01 -0.33663117176E+01 -0.14651668036E+02  0.15092546330E+02  0.51100000000E-03 0.  1.
        -12    1    3    3    0    0  0.82883584106E+01  0.48755756809E+01  0.15049980670E+02  0.17859732404E+02  0.00000000000E+00 0.  1.
</event>
<event>
 7    1  0.1324280E-011  0.5930194E+02  0.7816164E-02  0.1266605E+00
        -11   -1    0    0    0    0  0.00000000000E+00  0.00000000000E+00  0.45593999997E+02  0.45594000000E+02  0.51100000000E-03 0.  1.
         11   -1    0    0    0    0 -0.00000000000E+00 -0.00000000000E+00 -0.45593999997E+02  0.45594000000E+02  0.51100000000E-03 0. -1.
    9900012    2    1    2    0    0 -0.23545077238E+02  0.12541033802E+02 -0.17466319724E+02  0.59301944809E+02  0.50000001424E+02 0.  0.
        -12    1    1    2    0    0  0.23545077238E+02 -0.12541033802E+02  0.17466319724E+02  0.31886055191E+02  0.00000000000E+00 0.  1.
         11    1    3    3    0    0 -0.98327171526E+01  0.59487416463E+01 -0.77560410621E+01  0.13864560108E+02  0.51100000000E-03 0. -1.
        -11    1    3    3    0    0  0.12617954869E+02  0.11024248654E+02  0.72193856858E+00  0.16771047642E+02  0.51100000000E-03 0.  1.
         12    1    3    3    0    0 -0.26330314954E+02 -0.44319564990E+01 -0.10432217230E+02  0.28666337058E+02  0.00000000000E+00 0. -1.
</event>
<event>
 7    1  0.1324280E-011  0.5930192E+02  0.7816164E-02  0.1266605E+00
        -11   -1    0    0    0    0  0.00000000000E+00  0.00000000000E+00  0.45593999997E+02  0.45594000000E+02  0.51100000000E-03 0.  1.
         11   -1    0    0    0    0 -0.00000000000E+00 -0.00000000000E+00 -0.45593999997E+02  0.45594000000E+02  0.51100000000E-03 0. -1.
    9900012    2    1    2    0    0  0.24929747240E+02 -0.19197382925E+02  0.51662867161E+01  0.59301916405E+02  0.49999949622E+02 0.  0.
        -12    1    1    2    0    0 -0.24929747240E+02  0.19197382925E+02 -0.51662867161E+01  0.31886083595E+02  0.00000000000E+00 0.  1.
         11    1    3    3    0    0  0.12795811830E+02 -0.78592713567E+00  0.22394557839E+01  0.13014055645E+02  0.51100000000E-03 0. -1.
        -11    1    3    3    0    0  0.94918345187E+01 -0.71039530216E+01  0.21402029626E+02  0.24466465691E+02  0.51100000000E-03 0.  1.
         12    1    3    3    0    0  0.26421008912E+01 -0.11307502767E+02 -0.18475198694E+02  0.21821395068E+02  0.00000000000E+00 0. -1.
</event>
<event>
 7    1  0.1324280E-011  0.5930193E+02  0.7816164E-02  0.1266605E+00
        -11   -1    0    0    0    0  0.00000000000E+00  0.00000000000E+00  0.45593999997E+02  0.45594000000E+02  0.51100000000E-03 0.  1.
         11   -1    0    0    0    0 -0.00000000000E+00 -0.00000000000E+00 -0.45593999997E+02  0.45594000000E+02  0.51100000000E-03 0. -1.
    9900012    2    1    2    0    0 -0.18799337595E+02  0.22187303579E+02 -0.13077846471E+02  0.59301927767E+02  0.49999970345E+02 0.  0.
        -12    1    1    2    0    0  0.18799337595E+02 -0.22187303579E+02  0.13077846471E+02  0.31886072233E+02  0.00000000000E+00 0.  1.
         11    1    3    3    0    0  0.10594920383E+02  0.16692900872E+02  0.41477819174E+01  0.20201717069E+02  0.51100000000E-03 0. -1.
        -11    1    3    3    0    0 -0.11464298407E+02  0.11350886401E+02 -0.94601269150E+01  0.18702052336E+02  0.51100000000E-03 0.  1.
        -12    1    3    3    0    0 -0.17929959571E+02 -0.58564836940E+01 -0.77655014732E+01  0.20398158363E+02  0.00000000000E+00 0.  1.
</event>
<event>
 7    1  0.1324280E-011  0.5930196E+02  0.7816164E-02  0.1266605E+00
        -11   -1    0    0    0    0  0.00000000000E+00  0.00000000000E+00  0.45593999997E+02  0.45594000000E+02  0.51100000000E-03 0. -1.
         11   -1    0    0    0    0 -0.00000000000E+00 -0.00000000000E+00 -0.45593999997E+02  0.45594000000E+02  0.51100000000E-03 0.  1.
    9900012    2    1    2    0    0 -0.15652785320E+02  0.14174361009E+02  0.23891371401E+02  0.59301955628E+02  0.50000021155E+02 0.  0.
        -12    1    1    2    0    0  0.15652785320E+02 -0.14174361009E+02 -0.23891371401E+02  0.31886044372E+02  0.00000000000E+00 0.  1.
         11    1    3    3    0    0 -0.14878922805E+02 -0.49960448544E+01  0.57510510954E+01  0.16715782871E+02  0.51100000000E-03 0. -1.
        -11    1    3    3    0    0 -0.14663183468E+02  0.10085034618E+02 -0.27072400273E+00  0.17798600069E+02  0.51100000000E-03 0.  1.
        -12    1    3    3    0    0  0.13889320953E+02  0.90853712445E+01  0.18411044309E+02  0.24787572687E+02  0.00000000000E+00 0.  1.
</event>
<event>
 7    1  0.1324280E-011  0.5930201E+02  0.7816164E-02  0.1266605E+00
        -11   -1    0    0    0    0  0.00000000000E+00  0.00000000000E+00  0.45593999997E+02  0.45594000000E+02  0.51100000000E-03 0.  1.
         11   -1    0    0    0    0 -0.00000000000E+00 -0.00000000000E+00 -0.45593999997E+02  0.45594000000E+02  0.51100000000E-03 0. -1.
    9900012    2    1    2    0    0 -0.25633126639E+02  0.60284114070E+01 -0.17981036058E+02  0.59302006475E+02  0.50000113888E+02 0.  0.
        -12    1    1    2    0    0  0.25633126639E+02 -0.60284114070E+01  0.17981036058E+02  0.31885993525E+02  0.00000000000E+00 0.  1.
         11    1    3    3    0    0  0.85662361521E+01  0.94418525151E+01 -0.21943691941E+01  0.12936160062E+02  0.51100000000E-03 0. -1.
        -11    1    3    3    0    0  0.42108514182E+01 -0.29014068623E+01 -0.27106442937E+01  0.57876613752E+01  0.51100000000E-03 0.  1.
        -12    1    3    3    0    0 -0.38410214209E+02 -0.51203424582E+00 -0.13076022570E+02  0.40578185037E+02  0.00000000000E+00 0.  1.
</event>
<event>
 7    1  0.2000409E-011  0.5930184E+02  0.7816164E-02  0.1266605E+00
        -11   -1    0    0    0    0  0.00000000000E+00  0.00000000000E+00  0.45593999997E+02  0.45594000000E+02  0.51100000000E-03 0. -1.
         11   -1    0    0    0    0 -0.00000000000E+00 -0.00000000000E+00 -0.45593999997E+02  0.45594000000E+02  0.51100000000E-03 0.  1.
    9900012    2    1    2    0    0 -0.10525075608E+02  0.26960407748E+02  0.13382328486E+02  0.59301835003E+02  0.49999801164E+02 0.  0.
        -12    1    1    2    0    0  0.10525075608E+02 -0.26960407748E+02 -0.13382328486E+02  0.31886164997E+02  0.00000000000E+00 0.  1.
         11    1    3    3    0    0 -0.35987622011E+01  0.78317660291E+01  0.17005883875E+02  0.19065354314E+02  0.51100000000E-03 0. -1.
        -11    1    3    3    0    0 -0.67743653165E+01 -0.61674860145E+01 -0.10585490011E+02  0.13999375280E+02  0.51100000000E-03 0.  1.
         12    1    3    3    0    0 -0.15194809032E+00  0.25296127734E+02  0.69619346229E+01  0.26237105409E+02  0.00000000000E+00 0. -1.
</event>
<event>
 7    1  0.1324280E-011  0.5930195E+02  0.7816164E-02  0.1266605E+00
        -11   -1    0    0    0    0  0.00000000000E+00  0.00000000000E+00  0.45593999997E+02  0.45594000000E+02  0.51100000000E-03 0.  1.
         11   -1    0    0    0    0 -0.00000000000E+00 -0.00000000000E+00 -0.45593999997E+02  0.45594000000E+02  0.51100000000E-03 0. -1.
    9900012    2    1    2    0    0  0.21605108436E+02  0.97307537802E+01 -0.21336640065E+02  0.59301945228E+02  0.50000002189E+02 0.  0.
        -12    1    1    2    0    0 -0.21605108436E+02 -0.97307537802E+01  0.21336640065E+02  0.31886054772E+02  0.00000000000E+00 0.  1.
         11    1    3    3    0    0 -0.71935305438E+01 -0.28111675263E+01  0.99818410613E+01  0.12620883320E+02  0.51100000000E-03 0.  1.
        -11    1    3    3    0    0  0.64866869233E+01  0.93116578507E+01 -0.15191246864E+02  0.18962016262E+02  0.51100000000E-03 0. -1.
        -12    1    3    3    0    0  0.22311952057E+02  0.32302634557E+01 -0.16127234262E+02  0.27719045646E+02  0.00000000000E+00 0.  1.
</event>
<event>
 7    1  0.1324280E-011  0.5930197E+02  0.7816164E-02  0.1266605E+00
        -11   -1    0    0    0    0  0.00000000000E+00  0.00000000000E+00  0.45593999997E+02  0.45594000000E+02  0.51100000000E-03 0. -1.
         11   -1    0    0    0    0 -0.00000000000E+00 -0.00000000000E+00 -0.45593999997E+02  0.45594000000E+02  0.51100000000E-03 0.  1.
    9900012    2    1    2    0    0 -0.33760606874E+01 -0.31214904399E+02 -0.55633460707E+01  0.59301970741E+02  0.50000048718E+02 0.  0.
        -12    1    1    2    0    0  0.33760606874E+01  0.31214904399E+02  0.55633460707E+01  0.31886029259E+02  0.00000000000E+00 0.  1.
         11    1    3    3    0    0 -0.12855004447E+02 -0.21595705622E+02  0.11114307789E+02  0.27480056014E+02  0.51100000000E-03 0. -1.
        -11    1    3    3    0    0  0.60628948220E+01 -0.25565841902E+01  0.53235656221E+01  0.84637561129E+01  0.51100000000E-03 0.  1.
        -12    1    3    3    0    0  0.34160489378E+01 -0.70626145877E+01 -0.22001219482E+02  0.23358158614E+02  0.00000000000E+00 0.  1.
</event>
<event>
 7    1  0.1324280E-011  0.5930192E+02  0.7816164E-02  0.1266605E+00
        -11   -1    0    0    0    0  0.00000000000E+00  0.00000000000E+00  0.45593999997E+02  0.45594000000E+02  0.51100000000E-03 0.  1.
         11   -1    0    0    0    0 -0.00000000000E+00 -0.00000000000E+00 -0.45593999997E+02  0.45594000000E+02  0.51100000000E-03 0. -1.
    9900012    2    1    2    0    0  0.28309888911E+02 -0.55911554352E+01  0.13565070134E+02  0.59301922207E+02  0.49999960204E+02 0.  0.
        -12    1    1    2    0    0 -0.28309888911E+02  0.55911554352E+01 -0.13565070134E+02  0.31886077793E+02  0.00000000000E+00 0.  1.
         11    1    3    3    0    0  0.26476677619E+01 -0.10456747021E+02 -0.64339688116E+01  0.12559843063E+02  0.51100000000E-03 0. -1.
        -11    1    3    3    0    0  0.17750660867E+02 -0.10897947514E+02  0.10510012577E+01  0.20855594576E+02  0.51100000000E-03 0.  1.
        -12    1    3    3    0    0  0.79115602825E+01  0.15763539100E+02  0.18948037688E+02  0.25886484568E+02  0.00000000000E+00 0.  1.
</event>
<event>
 7    1  0.1324280E-011  0.5930189E+02  0.7816164E-02  0.1266605E+00
        -11   -1    0    0    0    0  0.00000000000E+00  0.00000000000E+00  0.45593999997E+02  0.45594000000E+02  0.51100000000E-03 0.  1.
         11   -1    0    0    0    0 -0.00000000000E+00 -0.00000000000E+00 -0.45593999997E+02  0.45594000000E+02  0.51100000000E-03 0. -1.
    9900012    2    1    2    0    0 -0.28093279966E+02 -0.80447768029E+01 -0.12758248986E+02  0.59301894402E+02  0.49999909494E+02 0.  0.
        -12    1    1    2    0    0  0.28093279966E+02  0.80447768029E+01  0.12758248986E+02  0.31886105598E+02  0.00000000000E+00 0.  1.
         11    1    3    3    0    0 -0.27912860378E+01  0.35327310525E+01 -0.15198390663E+02  0.15851263213E+02  0.51100000000E-03 0. -1.
        -11    1    3    3    0    0  0.25670249648E+01  0.54740724035E+01  0.82887918765E+01  0.10259588534E+02  0.51100000000E-03 0.  1.
         12    1    3    3    0    0 -0.27869018893E+02 -0.17051580259E+02 -0.58486501992E+01  0.33191042655E+02  0.00000000000E+00 0. -1.
</event>
<event>
 7    1  0.1324280E-011  0.5930194E+02  0.7816164E-02  0.1266605E+00
        -11   -1    0    0    0    0  0.00000000000E+00  0.00000000000E+00  0.45593999997E+02  0.45594000000E+02  0.51100000000E-03 0.  1.
         11   -1    0    0    0    0 -0.00000000000E+00 -0.00000000000E+00 -0.45593999997E+02  0.45594000000E+02  0.51100000000E-03 0. -1.
    9900012    2    1    2    0    0  0.14954552551E+02  0.14833093753E+02  0.23938705213E+02  0.59301938475E+02  0.49999989873E+02 0.  0.
        -12    1    1    2    0    0 -0.14954552551E+02 -0.14833093753E+02 -0.23938705213E+02  0.31886061525E+02  0.00000000000E+00 0.  1.
         11    1    3    3    0    0  0.43545422438E+01 -0.46621434134E+01  0.11887485009E+02  0.13491105198E+02  0.51100000000E-03 0. -1.
        -11    1    3    3    0    0  0.15228751741E+02  0.13196340606E+02  0.24121237017E+02  0.31430755009E+02  0.51100000000E-03 0.  1.
         12    1    3    3    0    0 -0.46287414335E+01  0.62988965610E+01 -0.12070016812E+02  0.14380078268E+02  0.00000000000E+00 0. -1.
</event>
<event>
 7    1  0.1324280E-011  0.5930193E+02  0.7816164E-02  0.1266605E+00
        -11   -1    0    0    0    0  0.00000000000E+00  0.00000000000E+00  0.45593999997E+02  0.45594000000E+02  0.51100000000E-03 0.  1.
         11   -1    0    0    0    0 -0.00000000000E+00 -0.00000000000E+00 -0.45593999997E+02  0.45594000000E+02  0.51100000000E-03 0. -1.
    9900012    2    1    2    0    0 -0.81228470548E+01  0.27384707554E+02 -0.14171040259E+02  0.59301933543E+02  0.49999980879E+02 0.  0.
        -12    1    1    2    0    0  0.81228470548E+01 -0.27384707554E+02  0.14171040259E+02  0.31886066457E+02  0.00000000000E+00 0.  1.
         11    1    3    3    0    0  0.39631396206E+01  0.59802615673E+01 -0.46643928458E+01  0.85572521844E+01  0.51100000000E-03 0. -1.
        -11    1    3    3    0    0  0.97019611201E+01  0.37886977582E+01  0.11656493741E+02  0.15631894539E+02  0.51100000000E-03 0.  1.
         12    1    3    3    0    0 -0.21787947795E+02  0.17615748228E+02 -0.21163141154E+02  0.35112786820E+02  0.00000000000E+00 0. -1.
</event>
<event>
 7    1  0.1324280E-011  0.5930194E+02  0.7816164E-02  0.1266605E+00
        -11   -1    0    0    0    0  0.00000000000E+00  0.00000000000E+00  0.45593999997E+02  0.45594000000E+02  0.51100000000E-03 0. -1.
         11   -1    0    0    0    0 -0.00000000000E+00 -0.00000000000E+00 -0.45593999997E+02  0.45594000000E+02  0.51100000000E-03 0.  1.
    9900012    2    1    2    0    0 -0.29044840066E+02  0.13006576449E+02  0.19867001942E+01  0.59301941244E+02  0.49999994922E+02 0.  0.
        -12    1    1    2    0    0  0.29044840066E+02 -0.13006576449E+02 -0.19867001942E+01  0.31886058756E+02  0.00000000000E+00 0.  1.
         11    1    3    3    0    0  0.29930254279E+01 -0.27456155638E+01 -0.23134808397E+01  0.46742699850E+01  0.51100000000E-03 0.  1.
        -11    1    3    3    0    0 -0.37875975731E+02  0.17507329405E+02 -0.64961500901E+01  0.42229090527E+02  0.51100000000E-03 0. -1.
         12    1    3    3    0    0  0.58381102379E+01 -0.17551373921E+01  0.10796331124E+02  0.12398580731E+02  0.00000000000E+00 0. -1.
</event>
<event>
 7    1  0.1324280E-011  0.5930195E+02  0.7816164E-02  0.1266605E+00
        -11   -1    0    0    0    0  0.00000000000E+00  0.00000000000E+00  0.45593999997E+02  0.45594000000E+02  0.51100000000E-03 0.  1.
         11   -1    0    0    0    0 -0.00000000000E+00 -0.00000000000E+00 -0.45593999997E+02  0.45594000000E+02  0.51100000000E-03 0. -1.
    9900012    2    1    2    0    0  0.68852335243E+01  0.24622918021E+02 -0.19053229417E+02  0.59301951582E+02  0.50000013776E+02 0.  0.
        -12    1    1    2    0    0 -0.68852335243E+01 -0.24622918021E+02  0.19053229417E+02  0.31886048418E+02  0.00000000000E+00 0.  1.
         11    1    3    3    0    0  0.18027099330E+01 -0.10351427253E+02 -0.93162371058E+01  0.14042581078E+02  0.51100000000E-03 0. -1.
        -11    1    3    3    0    0  0.13400030290E+02  0.20184967619E+02 -0.13702449392E+02  0.27834346573E+02  0.51100000000E-03 0.  1.
        -12    1    3    3    0    0 -0.83175066987E+01  0.14789377654E+02  0.39654570814E+01  0.17425023930E+02  0.00000000000E+00 0.  1.
</event>
<event>
 7    1  0.1324280E-011  0.5930196E+02  0.7816164E-02  0.1266605E+00
        -11   -1    0    0    0    0  0.00000000000E+00  0.00000000000E+00  0.45593999997E+02  0.45594000000E+02  0.51100000000E-03 0.  1.
         11   -1    0    0    0    0 -0.00000000000E+00 -0.00000000000E+00 -0.45593999997E+02  0.45594000000E+02  0.51100000000E-03 0. -1.
    9900012    2    1    2    0    0  0.27824230908E+02 -0.75414684177E+01 -0.13625633146E+02  0.59301961517E+02  0.50000031896E+02 0.  0.
        -12    1    1    2    0    0 -0.27824230908E+02  0.75414684177E+01  0.13625633146E+02  0.31886038483E+02  0.00000000000E+00 0.  1.
         11    1    3    3    0    0  0.39659656593E+01 -0.23879250546E+00  0.13404897334E+01  0.41931871480E+01  0.51100000000E-03 0. -1.
        -11    1    3    3    0    0 -0.34118851587E+01 -0.18585508552E+02  0.49148966298E+01  0.19524812358E+02  0.51100000000E-03 0.  1.
         12    1    3    3    0    0  0.27270150407E+02  0.11282832640E+02 -0.19881019509E+02  0.35583962010E+02  0.00000000000E+00 0. -1.
</event>
<event>
 7    1  0.1324280E-011  0.5930195E+02  0.7816164E-02  0.1266605E+00
        -11   -1    0    0    0    0  0.00000000000E+00  0.00000000000E+00  0.45593999997E+02  0.45594000000E+02  0.51100000000E-03 0.  1.
         11   -1    0    0    0    0 -0.00000000000E+00 -0.00000000000E+00 -0.45593999997E+02  0.45594000000E+02  0.51100000000E-03 0. -1.
    9900012    2    1    2    0    0 -0.48465984907E+01  0.49135062208E+01 -0.31130181697E+02  0.59301948617E+02  0.50000008369E+02 0.  0.
        -12    1    1    2    0    0  0.48465984907E+01 -0.49135062208E+01  0.31130181697E+02  0.31886051383E+02  0.00000000000E+00 0.  1.
         11    1    3    3    0    0 -0.29558542091E+01 -0.14996685912E+01  0.11940206529E+01  0.35230335749E+01  0.51100000000E-03 0. -1.
        -11    1    3    3    0    0  0.12769941400E+02  0.10270210281E+02  0.36078272996E+01  0.16779899900E+02  0.51100000000E-03 0.  1.
         12    1    3    3    0    0 -0.14660685682E+02 -0.38570354686E+01 -0.35932029650E+02  0.38999015142E+02  0.00000000000E+00 0. -1.
</event>
<event>
 7    1  0.1324280E-011  0.5930198E+02  0.7816164E-02  0.1266605E+00
        -11   -1    0    0    0    0  0.00000000000E+00  0.00000000000E+00  0.45593999997E+02  0.45594000000E+02  0.51100000000E-03 0. -1.
         11   -1    0    0    0    0 -0.00000000000E+00 -0.00000000000E+00 -0.45593999997E+02  0.45594000000E+02  0.51100000000E-03 0.  1.
    9900012    2    1    2    0    0  0.16230466767E+02  0.27443676868E+02 -0.36756151132E+00  0.59301975585E+02  0.50000057552E+02 0.  0.
        -12    1    1    2    0    0 -0.16230466767E+02 -0.27443676868E+02  0.36756151132E+00  0.31886024415E+02  0.00000000000E+00 0.  1.
         11    1    3    3    0    0  0.12948633801E+02  0.29447317185E+02 -0.46805973322E+01  0.32507223787E+02  0.51100000000E-03 0. -1.
        -11    1    3    3    0    0 -0.18567338623E+01  0.11036133119E+02 -0.20916096002E+01  0.11385013212E+02  0.51100000000E-03 0.  1.
         12    1    3    3    0    0  0.51385668289E+01 -0.13039773436E+02  0.64046454210E+01  0.15409738586E+02  0.00000000000E+00 0. -1.
</event>
<event>
 7    1  0.1324280E-011  0.5930190E+02  0.7816164E-02  0.1266605E+00
        -11   -1    0    0    0    0  0.00000000000E+00  0.00000000000E+00  0.45593999997E+02  0.45594000000E+02  0.51100000000E-03 0.  1.
         11   -1    0    0    0    0 -0.00000000000E+00 -0.00000000000E+00 -0.45593999997E+02  0.45594000000E+02  0.51100000000E-03 0. -1.
    9900012    2    1    2    0    0 -0.30402500686E+02  0.85868709388E+01 -0.43216954327E+01  0.59301898766E+02  0.49999917454E+02 0.  0.
        -12    1    1    2    0    0  0.30402500686E+02 -0.85868709388E+01  0.43216954327E+01  0.31886101234E+02  0.00000000000E+00 0.  1.
         11    1    3    3    0    0 -0.23449245058E+01  0.55269325424E+00 -0.16614783060E+02  0.16788542437E+02  0.51100000000E-03 0. -1.
        -11    1    3    3    0    0 -0.99575906196E+01  0.13802369052E+02 -0.40037960030E+01  0.17483975094E+02  0.51100000000E-03 0.  1.
        -12    1    3    3    0    0 -0.18099985560E+02 -0.57681913679E+01  0.16296883630E+02  0.25029381235E+02  0.00000000000E+00 0.  1.
</event>
<event>
 7    1  0.1324280E-011  0.5930196E+02  0.7816164E-02  0.1266605E+00
        -11   -1    0    0    0    0  0.00000000000E+00  0.00000000000E+00  0.45593999997E+02  0.45594000000E+02  0.51100000000E-03 0.  1.
         11   -1    0    0    0    0 -0.00000000000E+00 -0.00000000000E+00 -0.45593999997E+02  0.45594000000E+02  0.51100000000E-03 0. -1.
    9900012    2    1    2    0    0  0.36473941360E+01  0.28331779275E+02 -0.14167803213E+02  0.59301955266E+02  0.50000020496E+02 0.  0.
        -12    1    1    2    0    0 -0.36473941360E+01 -0.28331779275E+02  0.14167803213E+02  0.31886044734E+02  0.00000000000E+00 0.  1.
         11    1    3    3    0    0  0.55798351735E+00  0.44219851539E+01 -0.16921220577E+02  0.17498371478E+02  0.51100000000E-03 0. -1.
        -11    1    3    3    0    0  0.16420998622E+02  0.55339511360E+01 -0.46200149795E+01  0.17933721019E+02  0.51100000000E-03 0.  1.
        -12    1    3    3    0    0 -0.13331588003E+02  0.18375842985E+02  0.73734323435E+01  0.23869862769E+02  0.00000000000E+00 0.  1.
</event>
<event>
 7    1  0.1324280E-011  0.5930189E+02  0.7816164E-02  0.1266605E+00
        -11   -1    0    0    0    0  0.00000000000E+00  0.00000000000E+00  0.45593999997E+02  0.45594000000E+02  0.51100000000E-03 0. -1.
         11   -1    0    0    0    0 -0.00000000000E+00 -0.00000000000E+00 -0.45593999997E+02  0.45594000000E+02  0.51100000000E-03 0.  1.
    9900012    2    1    2    0    0  0.63568563566E+01  0.19539178126E+02  0.24383091731E+02  0.59301885985E+02  0.49999894144E+02 0.  0.
        -12    1    1    2    0    0 -0.63568563566E+01 -0.19539178126E+02 -0.24383091731E+02  0.31886114015E+02  0.00000000000E+00 0.  1.
         11    1    3    3    0    0 -0.38124934833E+01  0.55578698992E+01  0.15914433753E+02  0.17282772530E+02  0.51100000000E-03 0. -1.
        -11    1    3    3    0    0  0.79587993007E+01 -0.10660754033E+02  0.10845117084E+02  0.17164228141E+02  0.51100000000E-03 0.  1.
         12    1    3    3    0    0  0.22105505393E+01  0.24642062260E+02 -0.23764591060E+01  0.24854885314E+02  0.00000000000E+00 0. -1.
</event>
<event>
 7    1  0.1324280E-011  0.5930195E+02  0.7816164E-02  0.1266605E+00
        -11   -1    0    0    0    0  0.00000000000E+00  0.00000000000E+00  0.45593999997E+02  0.45594000000E+02  0.51100000000E-03 0.  1.
         11   -1    0    0    0    0 -0.00000000000E+00 -0.00000000000E+00 -0.45593999997E+02  0.45594000000E+02  0.51100000000E-03 0. -1.
    9900012    2    1    2    0    0 -0.11376004209E+02  0.63359229106E+01 -0.29106065140E+02  0.59301946328E+02  0.50000004194E+02 0.  0.
        -12    1    1    2    0    0  0.11376004209E+02 -0.63359229106E+01  0.29106065140E+02  0.31886053672E+02  0.00000000000E+00 0.  1.
         11    1    3    3    0    0 -0.96434583751E+01  0.28100697051E+02 -0.18181760604E+02  0.34831334788E+02  0.51100000000E-03 0. -1.
        -11    1    3    3    0    0  0.66459191030E-01 -0.89572557111E+00 -0.13356775087E+00  0.90806482588E+00  0.51100000000E-03 0.  1.
         12    1    3    3    0    0 -0.17990050246E+01 -0.20869048569E+02 -0.10790736785E+02  0.23562546714E+02  0.00000000000E+00 0. -1.
</event>
<event>
 7    1  0.1324280E-011  0.5930186E+02  0.7816164E-02  0.1266605E+00
        -11   -1    0    0    0    0  0.00000000000E+00  0.00000000000E+00  0.45593999997E+02  0.45594000000E+02  0.51100000000E-03 0. -1.
         11   -1    0    0    0    0 -0.00000000000E+00 -0.00000000000E+00 -0.45593999997E+02  0.45594000000E+02  0.51100000000E-03 0.  1.
    9900012    2    1    2    0    0  0.64237712710E+01 -0.17615854969E+02  0.25790355473E+02  0.59301864784E+02  0.49999855478E+02 0.  0.
        -12    1    1    2    0    0 -0.64237712710E+01  0.17615854969E+02 -0.25790355473E+02  0.31886135216E+02  0.00000000000E+00 0.  1.
         11    1    3    3    0    0  0.22552340872E+00  0.52860512915E+01  0.18866448951E+01  0.56171726238E+01  0.51100000000E-03 0. -1.
        -11    1    3    3    0    0 -0.45566048302E+00  0.85168510258E+01  0.19480637652E+02  0.21265926301E+02  0.51100000000E-03 0.  1.
         12    1    3    3    0    0  0.66539083453E+01 -0.31418757286E+02  0.44230729256E+01  0.32418765858E+02  0.00000000000E+00 0. -1.
</event>
<event>
 7    1  0.1324280E-011  0.5930194E+02  0.7816164E-02  0.1266605E+00
        -11   -1    0    0    0    0  0.00000000000E+00  0.00000000000E+00  0.45593999997E+02  0.45594000000E+02  0.51100000000E-03 0.  1.
         11   -1    0    0    0    0 -0.00000000000E+00 -0.00000000000E+00 -0.45593999997E+02  0.45594000000E+02  0.51100000000E-03 0. -1.
    9900012    2    1    2    0    0  0.16852812429E+02  0.81874211852E+01 -0.25800580480E+02  0.59301935559E+02  0.49999984556E+02 0.  0.
        -12    1    1    2    0    0 -0.16852812429E+02 -0.81874211852E+01  0.25800580480E+02  0.31886064441E+02  0.00000000000E+00 0.  1.
         11    1    3    3    0    0 -0.41704193325E+01 -0.15008149563E+02 -0.12040820096E+02  0.19688024268E+02  0.51100000000E-03 0. -1.
        -11    1    3    3    0    0  0.70217670816E-01  0.49921214496E+01 -0.10551586151E+02  0.11673139152E+02  0.51100000000E-03 0.  1.
        -12    1    3    3    0    0  0.20953014090E+02  0.18203449299E+02 -0.32081742325E+01  0.27940772140E+02  0.00000000000E+00 0.  1.
</event>
<event>
 7    1  0.1324280E-011  0.5930194E+02  0.7816164E-02  0.1266605E+00
        -11   -1    0    0    0    0  0.00000000000E+00  0.00000000000E+00  0.45593999997E+02  0.45594000000E+02  0.51100000000E-03 0. -1.
         11   -1    0    0    0    0 -0.00000000000E+00 -0.00000000000E+00 -0.45593999997E+02  0.45594000000E+02  0.51100000000E-03 0.  1.
    9900012    2    1    2    0    0 -0.11732750887E+02  0.62512728383E+01  0.28982489568E+02  0.59301944160E+02  0.50000000241E+02 0.  0.
        -12    1    1    2    0    0  0.11732750887E+02 -0.62512728383E+01 -0.28982489568E+02  0.31886055840E+02  0.00000000000E+00 0.  1.
         11    1    3    3    0    0 -0.12304293013E+02 -0.63994000867E+01  0.21047645272E+02  0.25206176222E+02  0.51100000000E-03 0. -1.
        -11    1    3    3    0    0  0.25058304648E+01  0.95669528154E+01  0.19557835390E+02  0.21916083087E+02  0.51100000000E-03 0.  1.
        -12    1    3    3    0    0 -0.19342883392E+01  0.30837201096E+01 -0.11622991093E+02  0.12179684850E+02  0.00000000000E+00 0.  1.
</event>
<event>
 7    1  0.1324280E-011  0.5930200E+02  0.7816164E-02  0.1266605E+00
        -11   -1    0    0    0    0  0.00000000000E+00  0.00000000000E+00  0.45593999997E+02  0.45594000000E+02  0.51100000000E-03 0.  1.
         11   -1    0    0    0    0 -0.00000000000E+00 -0.00000000000E+00 -0.45593999997E+02  0.45594000000E+02  0.51100000000E-03 0. -1.
    9900012    2    1    2    0    0 -0.76729611224E+01  0.90003568681E+01 -0.29611422192E+02  0.59301998677E+02  0.50000099666E+02 0.  0.
        -12    1    1    2    0    0  0.76729611224E+01 -0.90003568681E+01  0.29611422192E+02  0.31886001323E+02  0.00000000000E+00 0.  1.
         11    1    3    3    0    0 -0.11422362693E+02  0.76623432348E+01 -0.23774829048E+02  0.27466786668E+02  0.51100000000E-03 0. -1.
        -11    1    3    3    0    0  0.16696723799E+01  0.49456623137E+01 -0.18124336776E+02  0.18861043593E+02  0.51100000000E-03 0.  1.
        -12    1    3    3    0    0  0.20797291903E+01 -0.36076486804E+01  0.12287743632E+02  0.12974168416E+02  0.00000000000E+00 0.  1.
</event>
<event>
 7    1  0.1324280E-011  0.5930195E+02  0.7816164E-02  0.1266605E+00
        -11   -1    0    0    0    0  0.00000000000E+00  0.00000000000E+00  0.45593999997E+02  0.45594000000E+02  0.51100000000E-03 0. -1.
         11   -1    0    0    0    0 -0.00000000000E+00 -0.00000000000E+00 -0.45593999997E+02  0.45594000000E+02  0.51100000000E-03 0.  1.
    9900012    2    1    2    0    0  0.99747143110E+01 -0.17026254794E+02  0.25046595756E+02  0.59301949180E+02  0.50000009397E+02 0.  0.
        -12    1    1    2    0    0 -0.99747143110E+01  0.17026254794E+02 -0.25046595756E+02  0.31886050820E+02  0.00000000000E+00 0.  1.
         11    1    3    3    0    0  0.83133701303E+01 -0.80473124205E+01 -0.98495198572E+01  0.15194880776E+02  0.51100000000E-03 0. -1.
        -11    1    3    3    0    0 -0.96330961521E+00  0.25964579874E+01 -0.31840999090E+01  0.42199587660E+01  0.51100000000E-03 0.  1.
         12    1    3    3    0    0  0.26246537959E+01 -0.11575400361E+02  0.38080215522E+02  0.39887109638E+02  0.00000000000E+00 0. -1.
</event>
<event>
 7    1  0.1324280E-011  0.5930190E+02  0.7816164E-02  0.1266605E+00
        -11   -1    0    0    0    0  0.00000000000E+00  0.00000000000E+00  0.45593999997E+02  0.45594000000E+02  0.51100000000E-03 0. -1.
         11   -1    0    0    0    0 -0.00000000000E+00 -0.00000000000E+00 -0.45593999997E+02  0.45594000000E+02  0.51100000000E-03 0.  1.
    9900012    2    1    2    0    0 -0.10055351800E+02  0.17469453815E+02  0.24706911198E+02  0.59301899935E+02  0.49999919585E+02 0.  0.
        -12    1    1    2    0    0  0.10055351800E+02 -0.17469453815E+02 -0.24706911198E+02  0.31886100065E+02  0.00000000000E+00 0.  1.
         11    1    3    3    0    0 -0.72968309674E+00  0.14234028077E+02  0.19671231507E+02  0.24291919274E+02  0.51100000000E-03 0. -1.
        -11    1    3    3    0    0 -0.16528594252E+02  0.12061251472E+02  0.97689748507E+01  0.22673797320E+02  0.51100000000E-03 0.  1.
        -12    1    3    3    0    0  0.72029255485E+01 -0.88258257340E+01 -0.47332951599E+01  0.12336183341E+02  0.00000000000E+00 0.  1.
</event>
<event>
 7    1  0.1324280E-011  0.5930184E+02  0.7816164E-02  0.1266605E+00
        -11   -1    0    0    0    0  0.00000000000E+00  0.00000000000E+00  0.45593999997E+02  0.45594000000E+02  0.51100000000E-03 0.  1.
         11   -1    0    0    0    0 -0.00000000000E+00 -0.00000000000E+00 -0.45593999997E+02  0.45594000000E+02  0.51100000000E-03 0. -1.
    9900012    2    1    2    0    0 -0.47471835968E+01 -0.95103429189E+01 -0.30062344576E+02  0.59301844133E+02  0.49999817817E+02 0.  0.
        -12    1    1    2    0    0  0.47471835968E+01  0.95103429189E+01  0.30062344576E+02  0.31886155867E+02  0.00000000000E+00 0.  1.
         11    1    3    3    0    0 -0.32140675786E+01 -0.53119980739E+01  0.43288092880E+00  0.62237400409E+01  0.51100000000E-03 0. -1.
        -11    1    3    3    0    0 -0.94566224541E+01  0.10561154502E+02  0.40005621550E+01  0.14729908027E+02  0.51100000000E-03 0.  1.
         12    1    3    3    0    0  0.79235064359E+01 -0.14759499347E+02 -0.34495787660E+02  0.38348196066E+02  0.00000000000E+00 0. -1.
</event>
<event>
 7    1  0.1324280E-011  0.5930196E+02  0.7816164E-02  0.1266605E+00
        -11   -1    0    0    0    0  0.00000000000E+00  0.00000000000E+00  0.45593999997E+02  0.45594000000E+02  0.51100000000E-03 0.  1.
         11   -1    0    0    0    0 -0.00000000000E+00 -0.00000000000E+00 -0.45593999997E+02  0.45594000000E+02  0.51100000000E-03 0. -1.
    9900012    2    1    2    0    0 -0.90220452382E+01 -0.14645532074E+02 -0.26848284317E+02  0.59301964173E+02  0.50000036740E+02 0.  0.
        -12    1    1    2    0    0  0.90220452382E+01  0.14645532074E+02  0.26848284317E+02  0.31886035827E+02  0.00000000000E+00 0.  1.
         11    1    3    3    0    0  0.52619415859E+01  0.48423657091E+01 -0.15067985345E+02  0.16678750478E+02  0.51100000000E-03 0. -1.
        -11    1    3    3    0    0  0.60535500357E+01  0.36259300021E+01  0.39109699377E+01  0.80677458146E+01  0.51100000000E-03 0.  1.
         12    1    3    3    0    0 -0.20337536860E+02 -0.23113827785E+02 -0.15691268910E+02  0.34555467880E+02  0.00000000000E+00 0. -1.
</event>
<event>
 7    1  0.1324280E-011  0.5930208E+02  0.7816164E-02  0.1266604E+00
        -11   -1    0    0    0    0  0.00000000000E+00  0.00000000000E+00  0.45593999997E+02  0.45594000000E+02  0.51100000000E-03 0. -1.
         11   -1    0    0    0    0 -0.00000000000E+00 -0.00000000000E+00 -0.45593999997E+02  0.45594000000E+02  0.51100000000E-03 0.  1.
    9900012    2    1    2    0    0  0.10970206406E+02 -0.28114589162E+02  0.10292530688E+02  0.59302082414E+02  0.50000252383E+02 0.  0.
        -12    1    1    2    0    0 -0.10970206406E+02  0.28114589162E+02 -0.10292530688E+02  0.31885917586E+02  0.00000000000E+00 0.  1.
         11    1    3    3    0    0  0.44212494890E+01 -0.43739758853E+01  0.39078880199E+01  0.73451140989E+01  0.51100000000E-03 0. -1.
        -11    1    3    3    0    0  0.19263192431E+02  0.51533207992E+01  0.36422786433E+01  0.20270507933E+02  0.51100000000E-03 0.  1.
         12    1    3    3    0    0 -0.12714235514E+02 -0.28893934076E+02  0.27423640248E+01  0.31686460382E+02  0.00000000000E+00 0. -1.
</event>
<event>
 7    1  0.1324280E-011  0.5930196E+02  0.7816164E-02  0.1266605E+00
        -11   -1    0    0    0    0  0.00000000000E+00  0.00000000000E+00  0.45593999997E+02  0.45594000000E+02  0.51100000000E-03 0. -1.
         11   -1    0    0    0    0 -0.00000000000E+00 -0.00000000000E+00 -0.45593999997E+02  0.45594000000E+02  0.51100000000E-03 0.  1.
    9900012    2    1    2    0    0 -0.22825617433E+02 -0.22007482219E+02 -0.33736115794E+01  0.59301963246E+02  0.50000035050E+02 0.  0.
        -12    1    1    2    0    0  0.22825617433E+02  0.22007482219E+02  0.33736115794E+01  0.31886036754E+02  0.00000000000E+00 0.  1.
         11    1    3    3    0    0 -0.47612083085E+01 -0.46465379803E+01 -0.18704010938E+02  0.19851938072E+02  0.51100000000E-03 0.  1.
        -11    1    3    3    0    0 -0.19062705161E+02 -0.46350676643E+01  0.15357012607E+00  0.19618719743E+02  0.51100000000E-03 0. -1.
        -12    1    3    3    0    0  0.99829603647E+00 -0.12725876574E+02  0.15176829233E+02  0.19831305432E+02  0.00000000000E+00 0.  1.
</event>
<event>
 7    1  0.1324280E-011  0.5930189E+02  0.7816164E-02  0.1266605E+00
        -11   -1    0    0    0    0  0.00000000000E+00  0.00000000000E+00  0.45593999997E+02  0.45594000000E+02  0.51100000000E-03 0. -1.
         11   -1    0    0    0    0 -0.00000000000E+00 -0.00000000000E+00 -0.45593999997E+02  0.45594000000E+02  0.51100000000E-03 0.  1.
    9900012    2    1    2    0    0  0.23285991996E+02 -0.20612512893E+02 -0.70434966010E+01  0.59301890871E+02  0.49999903055E+02 0.  0.
        -12    1    1    2    0    0 -0.23285991996E+02  0.20612512893E+02  0.70434966010E+01  0.31886109129E+02  0.00000000000E+00 0.  1.
         11    1    3    3    0    0  0.21182195776E+02 -0.30652233538E+01 -0.46829543650E+01  0.21909155026E+02  0.51100000000E-03 0.  1.
        -11    1    3    3    0    0 -0.71441482203E+01 -0.23980726229E+01  0.12264416094E+02  0.14394634712E+02  0.51100000000E-03 0. -1.
         12    1    3    3    0    0  0.92479444402E+01 -0.15149216917E+02 -0.14624958330E+02  0.22998101133E+02  0.00000000000E+00 0. -1.
</event>
<event>
 7    1  0.1324280E-011  0.5930195E+02  0.7816164E-02  0.1266605E+00
        -11   -1    0    0    0    0  0.00000000000E+00  0.00000000000E+00  0.45593999997E+02  0.45594000000E+02  0.51100000000E-03 0. -1.
         11   -1    0    0    0    0 -0.00000000000E+00 -0.00000000000E+00 -0.45593999997E+02  0.45594000000E+02  0.51100000000E-03 0.  1.
    9900012    2    1    2    0    0  0.81354798606E+01 -0.24605445800E+02  0.18577041466E+02  0.59301945600E+02  0.50000002867E+02 0.  0.
        -12    1    1    2    0    0 -0.81354798606E+01  0.24605445800E+02 -0.18577041466E+02  0.31886054400E+02  0.00000000000E+00 0.  1.
         11    1    3    3    0    0  0.96149988140E+01 -0.18116512994E+02  0.18222725395E+02  0.27435815394E+02  0.51100000000E-03 0. -1.
        -11    1    3    3    0    0 -0.79255221666E+01 -0.16811289793E+02  0.42924630910E+01  0.19075078133E+02  0.51100000000E-03 0.  1.
        -12    1    3    3    0    0  0.64460032133E+01  0.10322356987E+02 -0.39381470201E+01  0.12791052073E+02  0.00000000000E+00 0.  1.
</event>
<event>
 7    1  0.1324280E-011  0.5930194E+02  0.7816164E-02  0.1266605E+00
        -11   -1    0    0    0    0  0.00000000000E+00  0.00000000000E+00  0.45593999997E+02  0.45594000000E+02  0.51100000000E-03 0.  1.
         11   -1    0    0    0    0 -0.00000000000E+00 -0.00000000000E+00 -0.45593999997E+02  0.45594000000E+02  0.51100000000E-03 0. -1.
    9900012    2    1    2    0    0  0.16993098143E+01 -0.28857060889E+02 -0.13457453066E+02  0.59301942545E+02  0.49999997297E+02 0.  0.
        -12    1    1    2    0    0 -0.16993098143E+01  0.28857060889E+02  0.13457453066E+02  0.31886057455E+02  0.00000000000E+00 0.  1.
         11    1    3    3    0    0  0.10367260004E+01 -0.26710288769E+01 -0.63387066492E+01  0.69561769894E+01  0.51100000000E-03 0. -1.
        -11    1    3    3    0    0  0.20328543040E+01 -0.37536813640E+02 -0.12625709368E+02  0.39655433577E+02  0.51100000000E-03 0.  1.
        -12    1    3    3    0    0 -0.13702704901E+01  0.11350781629E+02  0.55069629511E+01  0.12690331979E+02  0.00000000000E+00 0.  1.
</event>
<event>
 7    1  0.1324280E-011  0.5930182E+02  0.7816164E-02  0.1266605E+00
        -11   -1    0    0    0    0  0.00000000000E+00  0.00000000000E+00  0.45593999997E+02  0.45594000000E+02  0.51100000000E-03 0.  1.
         11   -1    0    0    0    0 -0.00000000000E+00 -0.00000000000E+00 -0.45593999997E+02  0.45594000000E+02  0.51100000000E-03 0. -1.
    9900012    2    1    2    0    0  0.22694086320E+02 -0.14263280681E+02 -0.17270369068E+02  0.59301821530E+02  0.49999776592E+02 0.  0.
        -12    1    1    2    0    0 -0.22694086320E+02  0.14263280681E+02  0.17270369068E+02  0.31886178470E+02  0.00000000000E+00 0.  1.
         11    1    3    3    0    0 -0.10498136140E+02 -0.29380122046E+01 -0.15464366774E+02  0.18920608291E+02  0.51100000000E-03 0.  1.
        -11    1    3    3    0    0  0.13868713872E+02 -0.21921100410E+01 -0.10267049230E+02  0.17394219472E+02  0.51100000000E-03 0. -1.
         12    1    3    3    0    0  0.19323508588E+02 -0.91331584351E+01  0.84610469354E+01  0.22986993766E+02  0.00000000000E+00 0. -1.
</event>
<event>
 7    1  0.1324280E-011  0.5930196E+02  0.7816164E-02  0.1266605E+00
        -11   -1    0    0    0    0  0.00000000000E+00  0.00000000000E+00  0.45593999997E+02  0.45594000000E+02  0.51100000000E-03 0.  1.
         11   -1    0    0    0    0 -0.00000000000E+00 -0.00000000000E+00 -0.45593999997E+02  0.45594000000E+02  0.51100000000E-03 0. -1.
    9900012    2    1    2    0    0 -0.10726753542E+02  0.65955164064E+01 -0.29294292348E+02  0.59301958502E+02  0.50000026398E+02 0.  0.
        -12    1    1    2    0    0  0.10726753542E+02 -0.65955164064E+01  0.29294292348E+02  0.31886041498E+02  0.00000000000E+00 0.  1.
         11    1    3    3    0    0  0.51933920346E+01  0.61004963183E+01 -0.11160162514E+01  0.80890585787E+01  0.51100000000E-03 0. -1.
        -11    1    3    3    0    0 -0.27966582167E+02  0.58728656480E+00 -0.10623403987E+02  0.29922087764E+02  0.51100000000E-03 0.  1.
         12    1    3    3    0    0  0.12046436591E+02 -0.92266476704E-01 -0.17554872110E+02  0.21290812160E+02  0.00000000000E+00 0. -1.
</event>
<event>
 7    1  0.1324280E-011  0.5930199E+02  0.7816164E-02  0.1266605E+00
        -11   -1    0    0    0    0  0.00000000000E+00  0.00000000000E+00  0.45593999997E+02  0.45594000000E+02  0.51100000000E-03 0.  1.
         11   -1    0    0    0    0 -0.00000000000E+00 -0.00000000000E+00 -0.45593999997E+02  0.45594000000E+02  0.51100000000E-03 0. -1.
    9900012    2    1    2    0    0  0.23773219808E+02 -0.63545200534E+01 -0.20277363202E+02  0.59301994236E+02  0.50000091568E+02 0.  0.
        -12    1    1    2    0    0 -0.23773219808E+02  0.63545200534E+01  0.20277363202E+02  0.31886005764E+02  0.00000000000E+00 0.  1.
         11    1    3    3    0    0  0.21404379140E+02 -0.86970625769E+01 -0.10268848601E+02  0.25283108900E+02  0.51100000000E-03 0. -1.
        -11    1    3    3    0    0  0.15273500568E+02 -0.31168946561E+00  0.29278720422E+01  0.15554722913E+02  0.51100000000E-03 0.  1.
         12    1    3    3    0    0 -0.12904659900E+02  0.26542319891E+01 -0.12936386643E+02  0.18464162423E+02  0.00000000000E+00 0. -1.
</event>
<event>
 7    1  0.1324280E-011  0.5930194E+02  0.7816164E-02  0.1266605E+00
        -11   -1    0    0    0    0  0.00000000000E+00  0.00000000000E+00  0.45593999997E+02  0.45594000000E+02  0.51100000000E-03 0. -1.
         11   -1    0    0    0    0 -0.00000000000E+00 -0.00000000000E+00 -0.45593999997E+02  0.45594000000E+02  0.51100000000E-03 0.  1.
    9900012    2    1    2    0    0 -0.29031553583E+02 -0.62884307066E+01  0.11590756685E+02  0.59301935571E+02  0.49999984578E+02 0.  0.
        -12    1    1    2    0    0  0.29031553583E+02  0.62884307066E+01 -0.11590756685E+02  0.31886064429E+02  0.00000000000E+00 0.  1.
         11    1    3    3    0    0 -0.34346381848E+02  0.90837411728E+01  0.61242281178E+01  0.36051275567E+02  0.51100000000E-03 0. -1.
        -11    1    3    3    0    0 -0.23817847894E+01 -0.10828495786E+02 -0.24000196798E+01  0.11344131280E+02  0.51100000000E-03 0.  1.
        -12    1    3    3    0    0  0.76966130539E+01 -0.45436760936E+01  0.78665482470E+01  0.11906528725E+02  0.00000000000E+00 0.  1.
</event>
<event>
 7    1  0.1324280E-011  0.5930194E+02  0.7816164E-02  0.1266605E+00
        -11   -1    0    0    0    0  0.00000000000E+00  0.00000000000E+00  0.45593999997E+02  0.45594000000E+02  0.51100000000E-03 0.  1.
         11   -1    0    0    0    0 -0.00000000000E+00 -0.00000000000E+00 -0.45593999997E+02  0.45594000000E+02  0.51100000000E-03 0. -1.
    9900012    2    1    2    0    0 -0.31533012777E+00 -0.26963485136E+02 -0.17017400039E+02  0.59301939286E+02  0.49999991352E+02 0.  0.
        -12    1    1    2    0    0  0.31533012777E+00  0.26963485136E+02  0.17017400039E+02  0.31886060714E+02  0.00000000000E+00 0.  1.
         11    1    3    3    0    0 -0.89393333225E+01 -0.23292701610E+02 -0.27623980099E+02  0.37222921773E+02  0.51100000000E-03 0. -1.
        -11    1    3    3    0    0 -0.38809175752E+01 -0.15280785128E+01  0.81513332541E+01  0.91564610656E+01  0.51100000000E-03 0.  1.
        -12    1    3    3    0    0  0.12504920770E+02 -0.21427050130E+01  0.24552468061E+01  0.12922556447E+02  0.00000000000E+00 0.  1.
</event>
<event>
 7    1  0.1324280E-011  0.5930193E+02  0.7816164E-02  0.1266605E+00
        -11   -1    0    0    0    0  0.00000000000E+00  0.00000000000E+00  0.45593999997E+02  0.45594000000E+02  0.51100000000E-03 0. -1.
         11   -1    0    0    0    0 -0.00000000000E+00 -0.00000000000E+00 -0.45593999997E+02  0.45594000000E+02  0.51100000000E-03 0.  1.
    9900012    2    1    2    0    0  0.11120236225E+02 -0.11618179456E+02  0.27533252259E+02  0.59301925805E+02  0.49999966767E+02 0.  0.
        -12    1    1    2    0    0 -0.11120236225E+02  0.11618179456E+02 -0.27533252259E+02  0.31886074195E+02  0.00000000000E+00 0.  1.
         11    1    3    3    0    0 -0.35961655479E+00  0.11866086301E+02  0.46578144966E+01  0.12752590494E+02  0.51100000000E-03 0. -1.
        -11    1    3    3    0    0 -0.76872437825E+01 -0.37035332933E+01 -0.27130321226E+01  0.89537935751E+01  0.51100000000E-03 0.  1.
         12    1    3    3    0    0  0.19167096562E+02 -0.19780732463E+02  0.25588469885E+02  0.37595541737E+02  0.00000000000E+00 0. -1.
</event>
<event>
 7    1  0.1324280E-011  0.5930195E+02  0.7816164E-02  0.1266605E+00
        -11   -1    0    0    0    0  0.00000000000E+00  0.00000000000E+00  0.45593999997E+02  0.45594000000E+02  0.51100000000E-03 0.  1.
         11   -1    0    0    0    0 -0.00000000000E+00 -0.00000000000E+00 -0.45593999997E+02  0.45594000000E+02  0.51100000000E-03 0. -1.
    9900012    2    1    2    0    0  0.26475443419E+02  0.17240801398E+02 -0.43041776832E+01  0.59301948463E+02  0.50000008089E+02 0.  0.
        -12    1    1    2    0    0 -0.26475443419E+02 -0.17240801398E+02  0.43041776832E+01  0.31886051537E+02  0.00000000000E+00 0.  1.
         11    1    3    3    0    0  0.21443286521E+02 -0.14967467069E+01 -0.11932179805E+02  0.24585192753E+02  0.51100000000E-03 0. -1.
        -11    1    3    3    0    0  0.11942164946E+02 -0.18354257634E+01  0.39017070656E+01  0.12696747993E+02  0.51100000000E-03 0.  1.
        -12    1    3    3    0    0 -0.69100080478E+01  0.20572973868E+02  0.37262950563E+01  0.22020007717E+02  0.00000000000E+00 0.  1.
</event>
<event>
 7    1  0.1324280E-011  0.5930199E+02  0.7816164E-02  0.1266605E+00
        -11   -1    0    0    0    0  0.00000000000E+00  0.00000000000E+00  0.45593999997E+02  0.45594000000E+02  0.51100000000E-03 0. -1.
         11   -1    0    0    0    0 -0.00000000000E+00 -0.00000000000E+00 -0.45593999997E+02  0.45594000000E+02  0.51100000000E-03 0.  1.
    9900012    2    1    2    0    0  0.30770208514E+02 -0.61638728056E+01 -0.56496297848E+01  0.59301994031E+02  0.50000091194E+02 0.  0.
        -12    1    1    2    0    0 -0.30770208514E+02  0.61638728056E+01  0.56496297848E+01  0.31886005969E+02  0.00000000000E+00 0.  1.
         11    1    3    3    0    0  0.51047360577E+01 -0.81619883730E+01 -0.23512619867E+02  0.25407079283E+02  0.51100000000E-03 0.  1.
        -11    1    3    3    0    0  0.22415575742E+01 -0.29116116790E+01  0.63506120204E+01  0.73370522843E+01  0.51100000000E-03 0. -1.
        -12    1    3    3    0    0  0.23423914882E+02  0.49097272464E+01  0.11512378061E+02  0.26557862464E+02  0.00000000000E+00 0.  1.
</event>
<event>
 7    1  0.1324280E-011  0.5930196E+02  0.7816164E-02  0.1266605E+00
        -11   -1    0    0    0    0  0.00000000000E+00  0.00000000000E+00  0.45593999997E+02  0.45594000000E+02  0.51100000000E-03 0. -1.
         11   -1    0    0    0    0 -0.00000000000E+00 -0.00000000000E+00 -0.45593999997E+02  0.45594000000E+02  0.51100000000E-03 0.  1.
    9900012    2    1    2    0    0  0.11878022759E+02  0.17413174242E+02  0.23925169549E+02  0.59301956034E+02  0.50000021897E+02 0.  0.
        -12    1    1    2    0    0 -0.11878022759E+02 -0.17413174242E+02 -0.23925169549E+02  0.31886043966E+02  0.00000000000E+00 0.  1.
         11    1    3    3    0    0  0.16869779861E+02  0.65423941635E+01  0.29862479404E+02  0.34916472765E+02  0.51100000000E-03 0. -1.
        -11    1    3    3    0    0 -0.14261755369E+01 -0.24301148914E+01  0.56985798509E+01  0.63571414666E+01  0.51100000000E-03 0.  1.
        -12    1    3    3    0    0 -0.35655815652E+01  0.13300894970E+02 -0.11635889706E+02  0.18028341802E+02  0.00000000000E+00 0.  1.
</event>
<event>
 7    1  0.1324280E-011  0.5930195E+02  0.7816164E-02  0.1266605E+00
        -11   -1    0    0    0    0  0.00000000000E+00  0.00000000000E+00  0.45593999997E+02  0.45594000000E+02  0.51100000000E-03 0.  1.
         11   -1    0    0    0    0 -0.00000000000E+00 -0.00000000000E+00 -0.45593999997E+02  0.45594000000E+02  0.51100000000E-03 0. -1.
    9900012    2    1    2    0    0 -0.47450129999E+01  0.49661087692E+01 -0.31137483151E+02  0.59301949105E+02  0.50000009260E+02 0.  0.
        -12    1    1    2    0    0  0.47450129999E+01 -0.49661087692E+01  0.31137483151E+02  0.31886050895E+02  0.00000000000E+00 0.  1.
         11    1    3    3    0    0 -0.85915636076E+01 -0.24952418570E+01  0.16865073091E+01  0.91041476434E+01  0.51100000000E-03 0. -1.
        -11    1    3    3    0    0  0.13155940129E+02 -0.82558150871E+01 -0.39427772405E+01  0.16024441833E+02  0.51100000000E-03 0.  1.
         12    1    3    3    0    0 -0.93093895210E+01  0.15717165713E+02 -0.28881213220E+02  0.34173359629E+02  0.00000000000E+00 0. -1.
</event>
<event>
 7    1  0.1324280E-011  0.5930193E+02  0.7816164E-02  0.1266605E+00
        -11   -1    0    0    0    0  0.00000000000E+00  0.00000000000E+00  0.45593999997E+02  0.45594000000E+02  0.51100000000E-03 0.  1.
         11   -1    0    0    0    0 -0.00000000000E+00 -0.00000000000E+00 -0.45593999997E+02  0.45594000000E+02  0.51100000000E-03 0. -1.
    9900012    2    1    2    0    0 -0.85750499491E+01  0.29401874495E+02 -0.88724283854E+01  0.59301926380E+02  0.49999967815E+02 0.  0.
        -12    1    1    2    0    0  0.85750499491E+01 -0.29401874495E+02  0.88724283854E+01  0.31886073620E+02  0.00000000000E+00 0.  1.
         11    1    3    3    0    0 -0.83962848616E+00 -0.21118363116E+01  0.33650870170E+01  0.40606205800E+01  0.51100000000E-03 0. -1.
        -11    1    3    3    0    0  0.15431579567E+02  0.23153980652E+02 -0.19544481863E+00  0.27825863274E+02  0.51100000000E-03 0.  1.
         12    1    3    3    0    0 -0.23167001030E+02  0.83597301542E+01 -0.12042070584E+02  0.27415442527E+02  0.00000000000E+00 0. -1.
</event>
<event>
 7    1  0.1324280E-011  0.5930195E+02  0.7816164E-02  0.1266605E+00
        -11   -1    0    0    0    0  0.00000000000E+00  0.00000000000E+00  0.45593999997E+02  0.45594000000E+02  0.51100000000E-03 0. -1.
         11   -1    0    0    0    0 -0.00000000000E+00 -0.00000000000E+00 -0.45593999997E+02  0.45594000000E+02  0.51100000000E-03 0.  1.
    9900012    2    1    2    0    0  0.16225840305E+02 -0.97503197639E+01  0.25658791849E+02  0.59301949316E+02  0.50000009644E+02 0.  0.
        -12    1    1    2    0    0 -0.16225840305E+02  0.97503197639E+01 -0.25658791849E+02  0.31886050684E+02  0.00000000000E+00 0.  1.
         11    1    3    3    0    0 -0.13657541370E+02 -0.12739088738E+02  0.13693541436E+02  0.23158711006E+02  0.51100000000E-03 0. -1.
        -11    1    3    3    0    0  0.18721557936E+01 -0.45979264560E+01  0.70263473143E+00  0.50139396523E+01  0.51100000000E-03 0.  1.
         12    1    3    3    0    0  0.28011225881E+02  0.75866954299E+01  0.11262615682E+02  0.31129298657E+02  0.00000000000E+00 0. -1.
</event>
<event>
 7    1  0.1324280E-011  0.5930202E+02  0.7816164E-02  0.1266604E+00
        -11   -1    0    0    0    0  0.00000000000E+00  0.00000000000E+00  0.45593999997E+02  0.45594000000E+02  0.51100000000E-03 0.  1.
         11   -1    0    0    0    0 -0.00000000000E+00 -0.00000000000E+00 -0.45593999997E+02  0.45594000000E+02  0.51100000000E-03 0. -1.
    9900012    2    1    2    0    0  0.60928015850E+01  0.31154262182E+02 -0.30009041960E+01  0.59302020178E+02  0.50000138879E+02 0.  0.
        -12    1    1    2    0    0 -0.60928015850E+01 -0.31154262182E+02  0.30009041960E+01  0.31885979822E+02  0.00000000000E+00 0.  1.
         11    1    3    3    0    0 -0.14566749875E+02  0.18449108675E+02  0.43122662256E+01  0.23898858824E+02  0.51100000000E-03 0. -1.
        -11    1    3    3    0    0  0.25733343656E+01 -0.70613538185E+01  0.38919835569E+00  0.75257054904E+01  0.51100000000E-03 0.  1.
         12    1    3    3    0    0  0.18086217094E+02  0.19766507325E+02 -0.77023687773E+01  0.27877455863E+02  0.00000000000E+00 0. -1.
</event>
<event>
 7    1  0.1324280E-011  0.5930196E+02  0.7816164E-02  0.1266605E+00
        -11   -1    0    0    0    0  0.00000000000E+00  0.00000000000E+00  0.45593999997E+02  0.45594000000E+02  0.51100000000E-03 0.  1.
         11   -1    0    0    0    0 -0.00000000000E+00 -0.00000000000E+00 -0.45593999997E+02  0.45594000000E+02  0.51100000000E-03 0. -1.
    9900012    2    1    2    0    0  0.31049012414E+02 -0.62630584578E+01 -0.36677691570E+01  0.59301959109E+02  0.50000027505E+02 0.  0.
        -12    1    1    2    0    0 -0.31049012414E+02  0.62630584578E+01  0.36677691570E+01  0.31886040891E+02  0.00000000000E+00 0.  1.
         11    1    3    3    0    0  0.22587608946E+02  0.11926764750E+02  0.18467937990E+01  0.25609733363E+02  0.51100000000E-03 0. -1.
        -11    1    3    3    0    0 -0.48101469976E+01 -0.79879780940E+00 -0.10212614383E+02  0.11316937964E+02  0.51100000000E-03 0.  1.
        -12    1    3    3    0    0  0.13271550465E+02 -0.17391025398E+02  0.46980514272E+01  0.22375287783E+02  0.00000000000E+00 0.  1.
</event>
<event>
 7    1  0.1324280E-011  0.5930197E+02  0.7816164E-02  0.1266605E+00
        -11   -1    0    0    0    0  0.00000000000E+00  0.00000000000E+00  0.45593999997E+02  0.45594000000E+02  0.51100000000E-03 0. -1.
         11   -1    0    0    0    0 -0.00000000000E+00 -0.00000000000E+00 -0.45593999997E+02  0.45594000000E+02  0.51100000000E-03 0.  1.
    9900012    2    1    2    0    0  0.15438759168E+02  0.19235672120E+02  0.20207731227E+02  0.59301972215E+02  0.50000051407E+02 0.  0.
        -12    1    1    2    0    0 -0.15438759168E+02 -0.19235672120E+02 -0.20207731227E+02  0.31886027785E+02  0.00000000000E+00 0.  1.
         11    1    3    3    0    0 -0.16070878680E+01 -0.78019164925E+00 -0.54820091304E+01  0.57657484156E+01  0.51100000000E-03 0. -1.
        -11    1    3    3    0    0  0.26977710387E+01 -0.11703067102E+02  0.47804912048E+01  0.12926439749E+02  0.51100000000E-03 0.  1.
         12    1    3    3    0    0  0.14348075997E+02  0.31718930872E+02  0.20909249153E+02  0.40609784050E+02  0.00000000000E+00 0. -1.
</event>
<event>
 7    1  0.1324280E-011  0.5930194E+02  0.7816164E-02  0.1266605E+00
        -11   -1    0    0    0    0  0.00000000000E+00  0.00000000000E+00  0.45593999997E+02  0.45594000000E+02  0.51100000000E-03 0. -1.
         11   -1    0    0    0    0 -0.00000000000E+00 -0.00000000000E+00 -0.45593999997E+02  0.45594000000E+02  0.51100000000E-03 0.  1.
    9900012    2    1    2    0    0  0.15566183536E+02  0.25131450667E+02 -0.11950937641E+02  0.59301940459E+02  0.49999993492E+02 0.  0.
        -12    1    1    2    0    0 -0.15566183536E+02 -0.25131450667E+02  0.11950937641E+02  0.31886059541E+02  0.00000000000E+00 0.  1.
         11    1    3    3    0    0  0.10984740227E+02  0.71086152347E+01 -0.97773563344E-01  0.13084589728E+02  0.51100000000E-03 0. -1.
        -11    1    3    3    0    0  0.15781623089E+02  0.15647850562E+02  0.77323000442E+01  0.23530901359E+02  0.51100000000E-03 0.  1.
        -12    1    3    3    0    0 -0.11200179781E+02  0.23749848707E+01 -0.19585464122E+02  0.22686449372E+02  0.00000000000E+00 0.  1.
</event>
<event>
 7    1  0.1324280E-011  0.5930195E+02  0.7816164E-02  0.1266605E+00
        -11   -1    0    0    0    0  0.00000000000E+00  0.00000000000E+00  0.45593999997E+02  0.45594000000E+02  0.51100000000E-03 0.  1.
         11   -1    0    0    0    0 -0.00000000000E+00 -0.00000000000E+00 -0.45593999997E+02  0.45594000000E+02  0.51100000000E-03 0. -1.
    9900012    2    1    2    0    0 -0.27829351334E+02  0.45756568573E+01 -0.14876519978E+02  0.59301948536E+02  0.50000008221E+02 0.  0.
        -12    1    1    2    0    0  0.27829351334E+02 -0.45756568573E+01  0.14876519978E+02  0.31886051464E+02  0.00000000000E+00 0.  1.
         11    1    3    3    0    0 -0.91825151109E+01 -0.34634818415E+01 -0.76711385195E-01  0.98142842391E+01  0.51100000000E-03 0. -1.
        -11    1    3    3    0    0 -0.23210420592E+02 -0.20368335206E+01  0.75981857662E+01  0.24507238564E+02  0.51100000000E-03 0.  1.
         12    1    3    3    0    0  0.45635843689E+01  0.10075972219E+02 -0.22397994359E+02  0.24980425733E+02  0.00000000000E+00 0. -1.
</event>
<event>
 7    1  0.1324280E-011  0.5930194E+02  0.7816164E-02  0.1266605E+00
        -11   -1    0    0    0    0  0.00000000000E+00  0.00000000000E+00  0.45593999997E+02  0.45594000000E+02  0.51100000000E-03 0.  1.
         11   -1    0    0    0    0 -0.00000000000E+00 -0.00000000000E+00 -0.45593999997E+02  0.45594000000E+02  0.51100000000E-03 0. -1.
    9900012    2    1    2    0    0 -0.10532464463E+02 -0.29890537814E+02 -0.35133507355E+01  0.59301942046E+02  0.49999996386E+02 0.  0.
        -12    1    1    2    0    0  0.10532464463E+02  0.29890537814E+02  0.35133507355E+01  0.31886057954E+02  0.00000000000E+00 0.  1.
         11    1    3    3    0    0 -0.28511507324E+01 -0.12223924632E+02  0.71344913676E+01  0.14437948651E+02  0.51100000000E-03 0. -1.
        -11    1    3    3    0    0  0.10931351226E+02 -0.19918026848E+02  0.10860739242E+01  0.22746467637E+02  0.51100000000E-03 0.  1.
         12    1    3    3    0    0 -0.18612664957E+02  0.22514136666E+01 -0.11733916027E+02  0.22117525758E+02  0.00000000000E+00 0. -1.
</event>
<event>
 7    1  0.1324280E-011  0.5930194E+02  0.7816164E-02  0.1266605E+00
        -11   -1    0    0    0    0  0.00000000000E+00  0.00000000000E+00  0.45593999997E+02  0.45594000000E+02  0.51100000000E-03 0.  1.
         11   -1    0    0    0    0 -0.00000000000E+00 -0.00000000000E+00 -0.45593999997E+02  0.45594000000E+02  0.51100000000E-03 0. -1.
    9900012    2    1    2    0    0 -0.29810951564E+02  0.14816854147E+01 -0.11217504497E+02  0.59301942985E+02  0.49999998099E+02 0.  0.
        -12    1    1    2    0    0  0.29810951564E+02 -0.14816854147E+01  0.11217504497E+02  0.31886057015E+02  0.00000000000E+00 0.  1.
         11    1    3    3    0    0 -0.37100309307E+01 -0.16810968981E+02  0.38438166538E+01  0.17639385883E+02  0.51100000000E-03 0. -1.
        -11    1    3    3    0    0 -0.18954919903E+02  0.23733624977E+00 -0.10674260035E+02  0.21755117664E+02  0.51100000000E-03 0.  1.
        -12    1    3    3    0    0 -0.71460007303E+01  0.18055318146E+02 -0.43870611158E+01  0.19907439439E+02  0.00000000000E+00 0.  1.
</event>
<event>
 7    1  0.1324280E-011  0.5930156E+02  0.7816164E-02  0.1266606E+00
        -11   -1    0    0    0    0  0.00000000000E+00  0.00000000000E+00  0.45593999997E+02  0.45594000000E+02  0.51100000000E-03 0. -1.
         11   -1    0    0    0    0 -0.00000000000E+00 -0.00000000000E+00 -0.45593999997E+02  0.45594000000E+02  0.51100000000E-03 0.  1.
    9900012    2    1    2    0    0 -0.95028721230E+00  0.27625067513E+02  0.15896473864E+02  0.59301556451E+02  0.49999293148E+02 0.  0.
        -12    1    1    2    0    0  0.95028721230E+00 -0.27625067513E+02 -0.15896473864E+02  0.31886443549E+02  0.00000000000E+00 0.  1.
         11    1    3    3    0    0 -0.16252697450E+02 -0.64781358272E+01  0.62410893562E+01  0.18575995662E+02  0.51100000000E-03 0. -1.
        -11    1    3    3    0    0 -0.20497000025E-01  0.25912773969E+01 -0.25355980020E+01  0.36255201232E+01  0.51100000000E-03 0.  1.
         12    1    3    3    0    0  0.15322907238E+02  0.31511925943E+02  0.12190982510E+02  0.37100040666E+02  0.00000000000E+00 0. -1.
</event>
<event>
 7    1  0.1324280E-011  0.5930193E+02  0.7816164E-02  0.1266605E+00
        -11   -1    0    0    0    0  0.00000000000E+00  0.00000000000E+00  0.45593999997E+02  0.45594000000E+02  0.51100000000E-03 0. -1.
         11   -1    0    0    0    0 -0.00000000000E+00 -0.00000000000E+00 -0.45593999997E+02  0.45594000000E+02  0.51100000000E-03 0.  1.
    9900012    2    1    2    0    0 -0.25142434417E+02 -0.19608491237E+02  0.29367018752E+00  0.59301934404E+02  0.49999982449E+02 0.  0.
        -12    1    1    2    0    0  0.25142434417E+02  0.19608491237E+02 -0.29367018752E+00  0.31886065596E+02  0.00000000000E+00 0.  1.
         11    1    3    3    0    0 -0.30432035434E+02 -0.22467820089E+01  0.67050699156E+01  0.31242835545E+02  0.51100000000E-03 0. -1.
        -11    1    3    3    0    0 -0.21128702542E+00 -0.12279449433E+02  0.59184280252E+01  0.13632949466E+02  0.51100000000E-03 0.  1.
        -12    1    3    3    0    0  0.55008880430E+01 -0.50822597956E+01 -0.12329827753E+02  0.14426149393E+02  0.00000000000E+00 0.  1.
</event>
<event>
 7    1  0.1324280E-011  0.5930195E+02  0.7816164E-02  0.1266605E+00
        -11   -1    0    0    0    0  0.00000000000E+00  0.00000000000E+00  0.45593999997E+02  0.45594000000E+02  0.51100000000E-03 0.  1.
         11   -1    0    0    0    0 -0.00000000000E+00 -0.00000000000E+00 -0.45593999997E+02  0.45594000000E+02  0.51100000000E-03 0. -1.
    9900012    2    1    2    0    0  0.11316860298E+02 -0.18861316639E+02 -0.23084617239E+02  0.59301950614E+02  0.50000012012E+02 0.  0.
        -12    1    1    2    0    0 -0.11316860298E+02  0.18861316639E+02  0.23084617239E+02  0.31886049386E+02  0.00000000000E+00 0.  1.
         11    1    3    3    0    0 -0.60363362091E+00 -0.44280528583E+01 -0.19441084230E+01  0.48735596319E+01  0.51100000000E-03 0. -1.
        -11    1    3    3    0    0  0.14300369057E+02 -0.80104053429E+01  0.12173708539E+02  0.20417304640E+02  0.51100000000E-03 0.  1.
         12    1    3    3    0    0 -0.23798751389E+01 -0.64228584379E+01 -0.33314217355E+02  0.34011086342E+02  0.00000000000E+00 0. -1.
</event>
<event>
 7    1  0.1324280E-011  0.5930192E+02  0.7816164E-02  0.1266605E+00
        -11   -1    0    0    0    0  0.00000000000E+00  0.00000000000E+00  0.45593999997E+02  0.45594000000E+02  0.51100000000E-03 0.  1.
         11   -1    0    0    0    0 -0.00000000000E+00 -0.00000000000E+00 -0.45593999997E+02  0.45594000000E+02  0.51100000000E-03 0. -1.
    9900012    2    1    2    0    0 -0.16904664844E+02  0.12798685487E+02 -0.23814864324E+02  0.59301924568E+02  0.49999964510E+02 0.  0.
        -12    1    1    2    0    0  0.16904664844E+02 -0.12798685487E+02  0.23814864324E+02  0.31886075432E+02  0.00000000000E+00 0.  1.
         11    1    3    3    0    0 -0.21182724820E+01 -0.43953026467E+01 -0.10744175996E+02  0.11800130582E+02  0.51100000000E-03 0. -1.
        -11    1    3    3    0    0  0.74324392181E+00  0.73734068373E+01 -0.24679092903E+02  0.25767754397E+02  0.51100000000E-03 0.  1.
        -12    1    3    3    0    0 -0.15529636284E+02  0.98205812963E+01  0.11608404574E+02  0.21734039589E+02  0.00000000000E+00 0.  1.
</event>
<event>
 7    1  0.1324280E-011  0.5930189E+02  0.7816164E-02  0.1266605E+00
        -11   -1    0    0    0    0  0.00000000000E+00  0.00000000000E+00  0.45593999997E+02  0.45594000000E+02  0.51100000000E-03 0.  1.
         11   -1    0    0    0    0 -0.00000000000E+00 -0.00000000000E+00 -0.45593999997E+02  0.45594000000E+02  0.51100000000E-03 0. -1.
    9900012    2    1    2    0    0 -0.37990246188E+01  0.10738331409E+02 -0.29782198527E+02  0.59301894898E+02  0.49999910399E+02 0.  0.
        -12    1    1    2    0    0  0.37990246188E+01 -0.10738331409E+02  0.29782198527E+02  0.31886105102E+02  0.00000000000E+00 0.  1.
         11    1    3    3    0    0 -0.37734210733E+01  0.56073683017E+01  0.44988114858E+01  0.81191496423E+01  0.51100000000E-03 0. -1.
        -11    1    3    3    0    0 -0.57714164330E+01 -0.13456138011E+02 -0.39785114358E+01  0.15172522906E+02  0.51100000000E-03 0.  1.
        -12    1    3    3    0    0  0.57458128874E+01  0.18587101118E+02 -0.30302498577E+02  0.36010222350E+02  0.00000000000E+00 0.  1.
</event>
<event>
 7    1  0.1324280E-011  0.5930187E+02  0.7816164E-02  0.1266605E+00
        -11   -1    0    0    0    0  0.00000000000E+00  0.00000000000E+00  0.45593999997E+02  0.45594000000E+02  0.51100000000E-03 0.  1.
         11   -1    0    0    0    0 -0.00000000000E+00 -0.00000000000E+00 -0.45593999997E+02  0.45594000000E+02  0.51100000000E-03 0. -1.
    9900012    2    1    2    0    0 -0.14990564511E+02 -0.20545311264E+02 -0.19232742047E+02  0.59301871262E+02  0.49999867292E+02 0.  0.
        -12    1    1    2    0    0  0.14990564511E+02  0.20545311264E+02  0.19232742047E+02  0.31886128738E+02  0.00000000000E+00 0.  1.
         11    1    3    3    0    0 -0.25305034245E+01  0.51989332798E+01  0.31937529618E+01  0.66054835608E+01  0.51100000000E-03 0.  1.
        -11    1    3    3    0    0  0.21733731068E+01  0.65807656468E+01 -0.14887162418E+02  0.16421255502E+02  0.51100000000E-03 0. -1.
         12    1    3    3    0    0 -0.14633434193E+02 -0.32325010191E+02 -0.75393325906E+01  0.36275132199E+02  0.00000000000E+00 0. -1.
</event>
<event>
 7    1  0.1324280E-011  0.5930211E+02  0.7816164E-02  0.1266604E+00
        -11   -1    0    0    0    0  0.00000000000E+00  0.00000000000E+00  0.45593999997E+02  0.45594000000E+02  0.51100000000E-03 0. -1.
         11   -1    0    0    0    0 -0.00000000000E+00 -0.00000000000E+00 -0.45593999997E+02  0.45594000000E+02  0.51100000000E-03 0.  1.
    9900012    2    1    2    0    0 -0.17018471383E+02 -0.35861361287E+00  0.26962065449E+02  0.59302110563E+02  0.50000303720E+02 0.  0.
        -12    1    1    2    0    0  0.17018471383E+02  0.35861361287E+00 -0.26962065449E+02  0.31885889437E+02  0.00000000000E+00 0.  1.
         11    1    3    3    0    0 -0.30572980160E+02  0.49932053094E+01  0.21999997159E+02  0.37995250893E+02  0.51100000000E-03 0. -1.
        -11    1    3    3    0    0  0.12660256920E+00 -0.17373688637E+01  0.70348952092E+01  0.72473601846E+01  0.51100000000E-03 0.  1.
         12    1    3    3    0    0  0.13427906208E+02 -0.36144500586E+01 -0.20728269200E+01  0.14059499486E+02  0.00000000000E+00 0. -1.
</event>
<event>
 7    1  0.1324280E-011  0.5930197E+02  0.7816164E-02  0.1266605E+00
        -11   -1    0    0    0    0  0.00000000000E+00  0.00000000000E+00  0.45593999997E+02  0.45594000000E+02  0.51100000000E-03 0.  1.
         11   -1    0    0    0    0 -0.00000000000E+00 -0.00000000000E+00 -0.45593999997E+02  0.45594000000E+02  0.51100000000E-03 0. -1.
    9900012    2    1    2    0    0  0.28198303519E+02  0.10646157129E+02 -0.10403540493E+02  0.59301974255E+02  0.50000055128E+02 0.  0.
        -12    1    1    2    0    0 -0.28198303519E+02 -0.10646157129E+02  0.10403540493E+02  0.31886025745E+02  0.00000000000E+00 0.  1.
         11    1    3    3    0    0 -0.63187788915E+01 -0.49319044520E+01 -0.83723534551E+01  0.11590813209E+02  0.51100000000E-03 0. -1.
        -11    1    3    3    0    0  0.23296153756E+01  0.50059607140E+01  0.10276266160E+02  0.11665693161E+02  0.51100000000E-03 0.  1.
         12    1    3    3    0    0  0.32187467035E+02  0.10572100867E+02 -0.12307453198E+02  0.36045467886E+02  0.00000000000E+00 0. -1.
</event>
<event>
 7    1  0.1324280E-011  0.5930193E+02  0.7816164E-02  0.1266605E+00
        -11   -1    0    0    0    0  0.00000000000E+00  0.00000000000E+00  0.45593999997E+02  0.45594000000E+02  0.51100000000E-03 0.  1.
         11   -1    0    0    0    0 -0.00000000000E+00 -0.00000000000E+00 -0.45593999997E+02  0.45594000000E+02  0.51100000000E-03 0. -1.
    9900012    2    1    2    0    0 -0.16946295245E+02 -0.86584088141E+01 -0.25584691341E+02  0.59301930993E+02  0.49999976227E+02 0.  0.
        -12    1    1    2    0    0  0.16946295245E+02  0.86584088141E+01  0.25584691341E+02  0.31886069007E+02  0.00000000000E+00 0.  1.
         11    1    3    3    0    0 -0.16173581604E+02  0.91243745533E+01 -0.13367765283E+02  0.22880911298E+02  0.51100000000E-03 0. -1.
        -11    1    3    3    0    0 -0.14057353569E+02 -0.28970614280E+01 -0.47617137536E+01  0.15122039294E+02  0.51100000000E-03 0.  1.
        -12    1    3    3    0    0  0.13284639927E+02 -0.14885721939E+02 -0.74552123042E+01  0.21298980401E+02  0.00000000000E+00 0.  1.
</event>
<event>
 7    1  0.1324280E-011  0.5930189E+02  0.7816164E-02  0.1266605E+00
        -11   -1    0    0    0    0  0.00000000000E+00  0.00000000000E+00  0.45593999997E+02  0.45594000000E+02  0.51100000000E-03 0.  1.
         11   -1    0    0    0    0 -0.00000000000E+00 -0.00000000000E+00 -0.45593999997E+02  0.45594000000E+02  0.51100000000E-03 0. -1.
    9900012    2    1    2    0    0 -0.59309588077E+01 -0.19763797941E+02 -0.24309252208E+02  0.59301894494E+02  0.49999909662E+02 0.  0.
        -12    1    1    2    0    0  0.59309588077E+01  0.19763797941E+02  0.24309252208E+02  0.31886105506E+02  0.00000000000E+00 0.  1.
         11    1    3    3    0    0 -0.64151515204E+01  0.58303721796E+00 -0.72833724199E+01  0.97232512821E+01  0.51100000000E-03 0. -1.
        -11    1    3    3    0    0 -0.13029245056E+02 -0.84212352945E+01 -0.25354487660E+02  0.29724206893E+02  0.51100000000E-03 0.  1.
        -12    1    3    3    0    0  0.13513437769E+02 -0.11925599865E+02  0.83286078723E+01  0.19854436319E+02  0.00000000000E+00 0.  1.
</event>
<event>
 7    1  0.1324280E-011  0.5930192E+02  0.7816164E-02  0.1266605E+00
        -11   -1    0    0    0    0  0.00000000000E+00  0.00000000000E+00  0.45593999997E+02  0.45594000000E+02  0.51100000000E-03 0.  1.
         11   -1    0    0    0    0 -0.00000000000E+00 -0.00000000000E+00 -0.45593999997E+02  0.45594000000E+02  0.51100000000E-03 0. -1.
    9900012    2    1    2    0    0  0.17822256927E+02  0.22484420966E+02  0.13911873537E+02  0.59301917559E+02  0.49999951727E+02 0.  0.
        -12    1    1    2    0    0 -0.17822256927E+02 -0.22484420966E+02 -0.13911873537E+02  0.31886082441E+02  0.00000000000E+00 0.  1.
         11    1    3    3    0    0  0.61199297550E+01  0.94464579890E+01 -0.11023996451E+02  0.15754923254E+02  0.51100000000E-03 0. -1.
        -11    1    3    3    0    0  0.87262780346E+01 -0.62301180669E+01 -0.13642084548E+01  0.10808485760E+02  0.51100000000E-03 0.  1.
        -12    1    3    3    0    0  0.29760491372E+01  0.19268081044E+02  0.26300078443E+02  0.32738508544E+02  0.00000000000E+00 0.  1.
</event>
<event>
 7    1  0.1324280E-011  0.5930192E+02  0.7816164E-02  0.1266605E+00
        -11   -1    0    0    0    0  0.00000000000E+00  0.00000000000E+00  0.45593999997E+02  0.45594000000E+02  0.51100000000E-03 0. -1.
         11   -1    0    0    0    0 -0.00000000000E+00 -0.00000000000E+00 -0.45593999997E+02  0.45594000000E+02  0.51100000000E-03 0.  1.
    9900012    2    1    2    0    0 -0.11839966437E+02 -0.19696074085E+02  0.22104344204E+02  0.59301918831E+02  0.49999954047E+02 0.  0.
        -12    1    1    2    0    0  0.11839966437E+02  0.19696074085E+02 -0.22104344204E+02  0.31886081169E+02  0.00000000000E+00 0.  1.
         11    1    3    3    0    0 -0.13990258720E+02  0.59867903390E+01  0.27633430742E+02  0.31546402211E+02  0.51100000000E-03 0. -1.
        -11    1    3    3    0    0  0.20421779662E+01 -0.14881397011E+02  0.11342834326E+01  0.15063633924E+02  0.51100000000E-03 0.  1.
        -12    1    3    3    0    0  0.10811431631E+00 -0.10801467414E+02 -0.66633699708E+01  0.12691882696E+02  0.00000000000E+00 0.  1.
</event>
<event>
 7    1  0.1324280E-011  0.5930194E+02  0.7816164E-02  0.1266605E+00
        -11   -1    0    0    0    0  0.00000000000E+00  0.00000000000E+00  0.45593999997E+02  0.45594000000E+02  0.51100000000E-03 0.  1.
         11   -1    0    0    0    0 -0.00000000000E+00 -0.00000000000E+00 -0.45593999997E+02  0.45594000000E+02  0.51100000000E-03 0. -1.
    9900012    2    1    2    0    0 -0.28373898299E+02 -0.89620256854E+01  0.11459694918E+02  0.59301943224E+02  0.49999998535E+02 0.  0.
        -12    1    1    2    0    0  0.28373898299E+02  0.89620256854E+01 -0.11459694918E+02  0.31886056776E+02  0.00000000000E+00 0.  1.
         11    1    3    3    0    0  0.42350299496E+01 -0.28488045213E-01 -0.45236753808E+01  0.61967676618E+01  0.51100000000E-03 0. -1.
        -11    1    3    3    0    0 -0.14512353337E+02  0.14763178739E+02  0.83883176208E+01  0.22336600427E+02  0.51100000000E-03 0.  1.
        -12    1    3    3    0    0 -0.18096574912E+02 -0.23696716379E+02  0.75950526780E+01  0.30768575136E+02  0.00000000000E+00 0.  1.
</event>
<event>
 7    1  0.1324280E-011  0.5930194E+02  0.7816164E-02  0.1266605E+00
        -11   -1    0    0    0    0  0.00000000000E+00  0.00000000000E+00  0.45593999997E+02  0.45594000000E+02  0.51100000000E-03 0. -1.
         11   -1    0    0    0    0 -0.00000000000E+00 -0.00000000000E+00 -0.45593999997E+02  0.45594000000E+02  0.51100000000E-03 0.  1.
    9900012    2    1    2    0    0 -0.69634845496E+01 -0.24601485137E+02  0.19052496369E+02  0.59301940257E+02  0.49999993123E+02 0.  0.
        -12    1    1    2    0    0  0.69634845496E+01  0.24601485137E+02 -0.19052496369E+02  0.31886059743E+02  0.00000000000E+00 0.  1.
         11    1    3    3    0    0  0.36945060605E+01 -0.32357753658E+02  0.19917771401E+02  0.38175793570E+02  0.51100000000E-03 0. -1.
        -11    1    3    3    0    0 -0.93502559236E+01  0.58612735354E+00  0.59904165793E+01  0.11120068442E+02  0.51100000000E-03 0.  1.
        -12    1    3    3    0    0 -0.13077346865E+01  0.71701411674E+01 -0.68556916113E+01  0.10006078245E+02  0.00000000000E+00 0.  1.
</event>
<event>
 7    1  0.1324280E-011  0.5930193E+02  0.7816164E-02  0.1266605E+00
        -11   -1    0    0    0    0  0.00000000000E+00  0.00000000000E+00  0.45593999997E+02  0.45594000000E+02  0.51100000000E-03 0. -1.
         11   -1    0    0    0    0 -0.00000000000E+00 -0.00000000000E+00 -0.45593999997E+02  0.45594000000E+02  0.51100000000E-03 0.  1.
    9900012    2    1    2    0    0  0.25515539699E+02  0.18597519601E+02 -0.44509223235E+01  0.59301933906E+02  0.49999981540E+02 0.  0.
        -12    1    1    2    0    0 -0.25515539699E+02 -0.18597519601E+02  0.44509223235E+01  0.31886066094E+02  0.00000000000E+00 0.  1.
         11    1    3    3    0    0  0.19299721982E+02 -0.91050150871E+01  0.10997544104E+02  0.24006802055E+02  0.51100000000E-03 0. -1.
        -11    1    3    3    0    0  0.33339747377E+01  0.91052559761E+01  0.16885938694E+01  0.98423789532E+01  0.51100000000E-03 0.  1.
        -12    1    3    3    0    0  0.28818429792E+01  0.18597278712E+02 -0.17137060297E+02  0.25452752898E+02  0.00000000000E+00 0.  1.
</event>
<event>
 7    1  0.1324280E-011  0.5930195E+02  0.7816164E-02  0.1266605E+00
        -11   -1    0    0    0    0  0.00000000000E+00  0.00000000000E+00  0.45593999997E+02  0.45594000000E+02  0.51100000000E-03 0.  1.
         11   -1    0    0    0    0 -0.00000000000E+00 -0.00000000000E+00 -0.45593999997E+02  0.45594000000E+02  0.51100000000E-03 0. -1.
    9900012    2    1    2    0    0 -0.57922571754E+00 -0.91760168214E+01 -0.30531706381E+02  0.59301954751E+02  0.50000019556E+02 0.  0.
        -12    1    1    2    0    0  0.57922571754E+00  0.91760168214E+01  0.30531706381E+02  0.31886045249E+02  0.00000000000E+00 0.  1.
         11    1    3    3    0    0  0.26101845949E+00 -0.97467625131E+01 -0.15679141145E+02  0.18463558092E+02  0.51100000000E-03 0. -1.
        -11    1    3    3    0    0 -0.38787928913E+01 -0.14091946677E+02 -0.20204130734E+02  0.24936617542E+02  0.51100000000E-03 0.  1.
        -12    1    3    3    0    0  0.30385487142E+01  0.14662692369E+02  0.53515654982E+01  0.15901779117E+02  0.00000000000E+00 0.  1.
</event>
<event>
 7    1  0.1324280E-011  0.5930195E+02  0.7816164E-02  0.1266605E+00
        -11   -1    0    0    0    0  0.00000000000E+00  0.00000000000E+00  0.45593999997E+02  0.45594000000E+02  0.51100000000E-03 0. -1.
         11   -1    0    0    0    0 -0.00000000000E+00 -0.00000000000E+00 -0.45593999997E+02  0.45594000000E+02  0.51100000000E-03 0.  1.
    9900012    2    1    2    0    0 -0.19904353308E+02 -0.22339876758E+02  0.11021186556E+02  0.59301954035E+02  0.50000018252E+02 0.  0.
        -12    1    1    2    0    0  0.19904353308E+02  0.22339876758E+02 -0.11021186556E+02  0.31886045965E+02  0.00000000000E+00 0.  1.
         11    1    3    3    0    0 -0.71398069643E+01 -0.14475505292E+00  0.16754582357E+02  0.18213012594E+02  0.51100000000E-03 0. -1.
        -11    1    3    3    0    0  0.78547472099E+01 -0.43618720862E+01  0.66191747470E+01  0.11159590334E+02  0.51100000000E-03 0.  1.
        -12    1    3    3    0    0 -0.20619293553E+02 -0.17833249619E+02 -0.12352570548E+02  0.29929351108E+02  0.00000000000E+00 0.  1.
</event>
<event>
 7    1  0.1324280E-011  0.5930195E+02  0.7816164E-02  0.1266605E+00
        -11   -1    0    0    0    0  0.00000000000E+00  0.00000000000E+00  0.45593999997E+02  0.45594000000E+02  0.51100000000E-03 0.  1.
         11   -1    0    0    0    0 -0.00000000000E+00 -0.00000000000E+00 -0.45593999997E+02  0.45594000000E+02  0.51100000000E-03 0. -1.
    9900012    2    1    2    0    0 -0.78825036983E+01  0.24518503293E+02 -0.18799716804E+02  0.59301949442E+02  0.50000009874E+02 0.  0.
        -12    1    1    2    0    0  0.78825036983E+01 -0.24518503293E+02  0.18799716804E+02  0.31886050558E+02  0.00000000000E+00 0.  1.
         11    1    3    3    0    0 -0.20261293428E-01  0.52994173007E+01  0.38451627368E+01  0.65474812700E+01  0.51100000000E-03 0.  1.
        -11    1    3    3    0    0  0.14447375913E+02 -0.43629813674E+01 -0.87321454162E+01  0.17435958276E+02  0.51100000000E-03 0. -1.
        -12    1    3    3    0    0 -0.22309618318E+02  0.23582067359E+02 -0.13912734125E+02  0.35318509896E+02  0.00000000000E+00 0.  1.
</event>
<event>
 7    1  0.1324280E-011  0.5930188E+02  0.7816164E-02  0.1266605E+00
        -11   -1    0    0    0    0  0.00000000000E+00  0.00000000000E+00  0.45593999997E+02  0.45594000000E+02  0.51100000000E-03 0. -1.
         11   -1    0    0    0    0 -0.00000000000E+00 -0.00000000000E+00 -0.45593999997E+02  0.45594000000E+02  0.51100000000E-03 0.  1.
    9900012    2    1    2    0    0  0.35758899107E+01  0.28388953224E+02 -0.14071422703E+02  0.59301880909E+02  0.49999884886E+02 0.  0.
        -12    1    1    2    0    0 -0.35758899107E+01 -0.28388953224E+02  0.14071422703E+02  0.31886119091E+02  0.00000000000E+00 0.  1.
         11    1    3    3    0    0 -0.98225744071E+00 -0.14434205677E+01 -0.15172202535E+01  0.23130607804E+01  0.51100000000E-03 0. -1.
        -11    1    3    3    0    0  0.44650279759E+01  0.31066113390E+01  0.16582125966E+02  0.17451487348E+02  0.51100000000E-03 0.  1.
         12    1    3    3    0    0  0.93119375454E-01  0.26725762453E+02 -0.29136328415E+02  0.39537332781E+02  0.00000000000E+00 0. -1.
</event>
<event>
 7    1  0.1324280E-011  0.5930194E+02  0.7816164E-02  0.1266605E+00
        -11   -1    0    0    0    0  0.00000000000E+00  0.00000000000E+00  0.45593999997E+02  0.45594000000E+02  0.51100000000E-03 0.  1.
         11   -1    0    0    0    0 -0.00000000000E+00 -0.00000000000E+00 -0.45593999997E+02  0.45594000000E+02  0.51100000000E-03 0. -1.
    9900012    2    1    2    0    0 -0.31599607724E+02 -0.41377758346E+01 -0.10318258048E+01  0.59301936247E+02  0.49999985810E+02 0.  0.
        -12    1    1    2    0    0  0.31599607724E+02  0.41377758346E+01  0.10318258048E+01  0.31886063753E+02  0.00000000000E+00 0.  1.
         11    1    3    3    0    0 -0.78763729924E+00  0.10992976832E+01 -0.58928887388E+01  0.60460702824E+01  0.51100000000E-03 0. -1.
        -11    1    3    3    0    0 -0.96371429000E+01  0.18070593908E+02  0.71269869751E+01  0.21684437532E+02  0.51100000000E-03 0.  1.
         12    1    3    3    0    0 -0.21174827524E+02 -0.23307667426E+02 -0.22659240411E+01  0.31571428433E+02  0.00000000000E+00 0. -1.
</event>
<event>
 7    1  0.1324280E-011  0.5930196E+02  0.7816164E-02  0.1266605E+00
        -11   -1    0    0    0    0  0.00000000000E+00  0.00000000000E+00  0.45593999997E+02  0.45594000000E+02  0.51100000000E-03 0. -1.
         11   -1    0    0    0    0 -0.00000000000E+00 -0.00000000000E+00 -0.45593999997E+02  0.45594000000E+02  0.51100000000E-03 0.  1.
    9900012    2    1    2    0    0 -0.79471644249E+01 -0.13050307414E+02  0.27986634926E+02  0.59301957906E+02  0.50000025310E+02 0.  0.
        -12    1    1    2    0    0  0.79471644249E+01  0.13050307414E+02 -0.27986634926E+02  0.31886042094E+02  0.00000000000E+00 0.  1.
         11    1    3    3    0    0 -0.63760169240E+01  0.39916720326E+01  0.14334072170E+02  0.16188040730E+02  0.51100000000E-03 0. -1.
        -11    1    3    3    0    0 -0.18769260711E+02 -0.85776072894E+01  0.12006810282E+02  0.23875175138E+02  0.51100000000E-03 0.  1.
         12    1    3    3    0    0  0.17198113210E+02 -0.84643721569E+01  0.16457524735E+01  0.19238742038E+02  0.00000000000E+00 0. -1.
</event>
<event>
 7    1  0.1324280E-011  0.5930195E+02  0.7816164E-02  0.1266605E+00
        -11   -1    0    0    0    0  0.00000000000E+00  0.00000000000E+00  0.45593999997E+02  0.45594000000E+02  0.51100000000E-03 0. -1.
         11   -1    0    0    0    0 -0.00000000000E+00 -0.00000000000E+00 -0.45593999997E+02  0.45594000000E+02  0.51100000000E-03 0.  1.
    9900012    2    1    2    0    0  0.27656050792E+02 -0.13271660979E+02  0.87020776897E+01  0.59301948400E+02  0.50000007973E+02 0.  0.
        -12    1    1    2    0    0 -0.27656050792E+02  0.13271660979E+02 -0.87020776897E+01  0.31886051600E+02  0.00000000000E+00 0.  1.
         11    1    3    3    0    0 -0.51345317261E+01  0.71772214491E+01  0.26189145194E+01  0.92051418944E+01  0.51100000000E-03 0. -1.
        -11    1    3    3    0    0  0.21203028481E+02 -0.10496211186E-01  0.13880115097E+02  0.25342180694E+02  0.51100000000E-03 0.  1.
        -12    1    3    3    0    0  0.11587554037E+02 -0.20438386217E+02 -0.77969519271E+01  0.24754625811E+02  0.00000000000E+00 0.  1.
</event>
<event>
 7    1  0.1324280E-011  0.5930198E+02  0.7816164E-02  0.1266605E+00
        -11   -1    0    0    0    0  0.00000000000E+00  0.00000000000E+00  0.45593999997E+02  0.45594000000E+02  0.51100000000E-03 0.  1.
         11   -1    0    0    0    0 -0.00000000000E+00 -0.00000000000E+00 -0.45593999997E+02  0.45594000000E+02  0.51100000000E-03 0. -1.
    9900012    2    1    2    0    0  0.15297323353E+02  0.27901048668E+02 -0.20594950689E+01  0.59301982085E+02  0.50000069408E+02 0.  0.
        -12    1    1    2    0    0 -0.15297323353E+02 -0.27901048668E+02  0.20594950689E+01  0.31886017915E+02  0.00000000000E+00 0.  1.
         11    1    3    3    0    0 -0.18044542435E+01 -0.16154960421E+01 -0.60044913857E+01  0.64745501497E+01  0.51100000000E-03 0. -1.
        -11    1    3    3    0    0 -0.30334873362E+01 -0.87836629646E+01  0.20459968912E+01  0.95152973697E+01  0.51100000000E-03 0.  1.
        -12    1    3    3    0    0  0.20135264932E+02  0.38300207675E+02  0.18989994256E+01  0.43312134566E+02  0.00000000000E+00 0.  1.
</event>
<event>
 7    1  0.1324280E-011  0.5930187E+02  0.7816164E-02  0.1266605E+00
        -11   -1    0    0    0    0  0.00000000000E+00  0.00000000000E+00  0.45593999997E+02  0.45594000000E+02  0.51100000000E-03 0. -1.
         11   -1    0    0    0    0 -0.00000000000E+00 -0.00000000000E+00 -0.45593999997E+02  0.45594000000E+02  0.51100000000E-03 0.  1.
    9900012    2    1    2    0    0 -0.90279538080E+01  0.12545134997E+02  0.27889795308E+02  0.59301873795E+02  0.49999871912E+02 0.  0.
        -12    1    1    2    0    0  0.90279538080E+01 -0.12545134997E+02 -0.27889795308E+02  0.31886126205E+02  0.00000000000E+00 0.  1.
         11    1    3    3    0    0 -0.21257383229E+02  0.13892690820E+02  0.12153716492E+02  0.28153081977E+02  0.51100000000E-03 0.  1.
        -11    1    3    3    0    0  0.38164034038E+01  0.10492781705E+02  0.23788703872E+01  0.11415884872E+02  0.51100000000E-03 0. -1.
        -12    1    3    3    0    0  0.84130260173E+01 -0.11840337527E+02  0.13357208429E+02  0.19732906946E+02  0.00000000000E+00 0.  1.
</event>
<event>
 7    1  0.1324280E-011  0.5930195E+02  0.7816164E-02  0.1266605E+00
        -11   -1    0    0    0    0  0.00000000000E+00  0.00000000000E+00  0.45593999997E+02  0.45594000000E+02  0.51100000000E-03 0.  1.
         11   -1    0    0    0    0 -0.00000000000E+00 -0.00000000000E+00 -0.45593999997E+02  0.45594000000E+02  0.51100000000E-03 0. -1.
    9900012    2    1    2    0    0  0.15346714112E+01  0.61869175086E+01 -0.31242386350E+02  0.59301954942E+02  0.50000019905E+02 0.  0.
        -12    1    1    2    0    0 -0.15346714112E+01 -0.61869175086E+01  0.31242386350E+02  0.31886045058E+02  0.00000000000E+00 0.  1.
         11    1    3    3    0    0  0.28715743920E+01  0.33252425999E+01 -0.16272703261E+02  0.16855386366E+02  0.51100000000E-03 0. -1.
        -11    1    3    3    0    0  0.14166166422E+02 -0.69802967616E+01 -0.17878134240E+02  0.23854402071E+02  0.51100000000E-03 0.  1.
        -12    1    3    3    0    0 -0.15503069403E+02  0.98419716703E+01  0.29084511514E+01  0.18592166506E+02  0.00000000000E+00 0.  1.
</event>
<event>
 7    1  0.1324280E-011  0.5930193E+02  0.7816164E-02  0.1266605E+00
        -11   -1    0    0    0    0  0.00000000000E+00  0.00000000000E+00  0.45593999997E+02  0.45594000000E+02  0.51100000000E-03 0.  1.
         11   -1    0    0    0    0 -0.00000000000E+00 -0.00000000000E+00 -0.45593999997E+02  0.45594000000E+02  0.51100000000E-03 0. -1.
    9900012    2    1    2    0    0 -0.30166260307E+02  0.98644904677E+01 -0.30676127650E+01  0.59301926533E+02  0.49999968093E+02 0.  0.
        -12    1    1    2    0    0  0.30166260307E+02 -0.98644904677E+01  0.30676127650E+01  0.31886073467E+02  0.00000000000E+00 0.  1.
         11    1    3    3    0    0 -0.60786821810E+00 -0.19487275482E+01 -0.10118280249E+01  0.22783412915E+01  0.51100000000E-03 0. -1.
        -11    1    3    3    0    0 -0.27220655768E+02 -0.22295039075E+01  0.17793750609E+02  0.32596815015E+02  0.51100000000E-03 0.  1.
         12    1    3    3    0    0 -0.23377363213E+01  0.14042721923E+02 -0.19849535349E+02  0.24426770227E+02  0.00000000000E+00 0. -1.
</event>
<event>
 7    1  0.1324280E-011  0.5930188E+02  0.7816164E-02  0.1266605E+00
        -11   -1    0    0    0    0  0.00000000000E+00  0.00000000000E+00  0.45593999997E+02  0.45594000000E+02  0.51100000000E-03 0. -1.
         11   -1    0    0    0    0 -0.00000000000E+00 -0.00000000000E+00 -0.45593999997E+02  0.45594000000E+02  0.51100000000E-03 0.  1.
    9900012    2    1    2    0    0  0.15578517547E+02 -0.20153431169E+02 -0.19180040931E+02  0.59301875009E+02  0.49999874126E+02 0.  0.
        -12    1    1    2    0    0 -0.15578517547E+02  0.20153431169E+02  0.19180040931E+02  0.31886124991E+02  0.00000000000E+00 0.  1.
         11    1    3    3    0    0  0.13957861986E+01 -0.31009790455E+02 -0.14949061483E+02  0.34453298284E+02  0.51100000000E-03 0.  1.
        -11    1    3    3    0    0 -0.16297014913E+01 -0.26089725946E+01  0.13249544061E+01  0.33493535778E+01  0.51100000000E-03 0. -1.
         12    1    3    3    0    0  0.15812432840E+02  0.13465331880E+02 -0.55559338539E+01  0.21499223147E+02  0.00000000000E+00 0. -1.
</event>
<event>
 7    1  0.1324280E-011  0.5930195E+02  0.7816164E-02  0.1266605E+00
        -11   -1    0    0    0    0  0.00000000000E+00  0.00000000000E+00  0.45593999997E+02  0.45594000000E+02  0.51100000000E-03 0.  1.
         11   -1    0    0    0    0 -0.00000000000E+00 -0.00000000000E+00 -0.45593999997E+02  0.45594000000E+02  0.51100000000E-03 0. -1.
    9900012    2    1    2    0    0  0.98164578134E+01 -0.71028866877E+01 -0.29494170014E+02  0.59301954336E+02  0.50000018800E+02 0.  0.
        -12    1    1    2    0    0 -0.98164578134E+01  0.71028866877E+01  0.29494170014E+02  0.31886045664E+02  0.00000000000E+00 0.  1.
         11    1    3    3    0    0 -0.78125487303E+00  0.76637884647E+01 -0.26534433335E+02  0.27630059093E+02  0.51100000000E-03 0. -1.
        -11    1    3    3    0    0  0.11053237935E+02  0.47334781139E+01 -0.13640745951E+01  0.12101263722E+02  0.51100000000E-03 0.  1.
        -12    1    3    3    0    0 -0.45552524827E+00 -0.19500153266E+02 -0.15956620833E+01  0.19570631521E+02  0.00000000000E+00 0.  1.
</event>
<event>
 7    1  0.1324280E-011  0.5930192E+02  0.7816164E-02  0.1266605E+00
        -11   -1    0    0    0    0  0.00000000000E+00  0.00000000000E+00  0.45593999997E+02  0.45594000000E+02  0.51100000000E-03 0.  1.
         11   -1    0    0    0    0 -0.00000000000E+00 -0.00000000000E+00 -0.45593999997E+02  0.45594000000E+02  0.51100000000E-03 0. -1.
    9900012    2    1    2    0    0  0.15270155040E+02  0.27990499223E+02 -0.27681783185E+00  0.59301916675E+02  0.49999950115E+02 0.  0.
        -12    1    1    2    0    0 -0.15270155040E+02 -0.27990499223E+02  0.27681783185E+00  0.31886083325E+02  0.00000000000E+00 0.  1.
         11    1    3    3    0    0  0.13843466108E+02  0.55023055799E+01  0.56656812652E+01  0.15937906545E+02  0.51100000000E-03 0. -1.
        -11    1    3    3    0    0  0.14443499308E+00  0.11080516890E+02  0.15493018094E+02  0.19048158072E+02  0.51100000000E-03 0.  1.
         12    1    3    3    0    0  0.12822539385E+01  0.11407676753E+02 -0.21435517191E+02  0.24315852058E+02  0.00000000000E+00 0. -1.
</event>
<event>
 7    1  0.1324280E-011  0.5930194E+02  0.7816164E-02  0.1266605E+00
        -11   -1    0    0    0    0  0.00000000000E+00  0.00000000000E+00  0.45593999997E+02  0.45594000000E+02  0.51100000000E-03 0.  1.
         11   -1    0    0    0    0 -0.00000000000E+00 -0.00000000000E+00 -0.45593999997E+02  0.45594000000E+02  0.51100000000E-03 0. -1.
    9900012    2    1    2    0    0 -0.24681901412E+02  0.14746179244E+02 -0.13786762151E+02  0.59301939249E+02  0.49999991285E+02 0.  0.
        -12    1    1    2    0    0  0.24681901412E+02 -0.14746179244E+02  0.13786762151E+02  0.31886060751E+02  0.00000000000E+00 0.  1.
         11    1    3    3    0    0 -0.30169859956E+02  0.29189174191E+01 -0.75703775937E+01  0.31241817262E+02  0.51100000000E-03 0. -1.
        -11    1    3    3    0    0 -0.42228042821E+00 -0.61218707485E+01 -0.67928924017E+01  0.91541799012E+01  0.51100000000E-03 0.  1.
         12    1    3    3    0    0  0.59102389721E+01  0.17949132574E+02  0.57650784470E+00  0.18905942086E+02  0.00000000000E+00 0. -1.
</event>
<event>
 7    1  0.1767347E-011  0.5930193E+02  0.7816164E-02  0.1266605E+00
        -11   -1    0    0    0    0  0.00000000000E+00  0.00000000000E+00  0.45593999997E+02  0.45594000000E+02  0.51100000000E-03 0. -1.
         11   -1    0    0    0    0 -0.00000000000E+00 -0.00000000000E+00 -0.45593999997E+02  0.45594000000E+02  0.51100000000E-03 0.  1.
    9900012    2    1    2    0    0 -0.14170256286E+02  0.20017544467E+02  0.20377029640E+02  0.59301928015E+02  0.49999970796E+02 0.  0.
        -12    1    1    2    0    0  0.14170256286E+02 -0.20017544467E+02 -0.20377029640E+02  0.31886071985E+02  0.00000000000E+00 0.  1.
         11    1    3    3    0    0  0.40589361297E+01 -0.63787155583E+01  0.13362687967E+02  0.15353319011E+02  0.51100000000E-03 0. -1.
        -11    1    3    3    0    0  0.55323750093E+01 -0.34607296946E+00 -0.36285665724E+01  0.66252121004E+01  0.51100000000E-03 0.  1.
         12    1    3    3    0    0 -0.23761567425E+02  0.26742332995E+02  0.10642908245E+02  0.37323396903E+02  0.00000000000E+00 0. -1.
</event>
<event>
 7    1  0.1324280E-011  0.5930209E+02  0.7816164E-02  0.1266604E+00
        -11   -1    0    0    0    0  0.00000000000E+00  0.00000000000E+00  0.45593999997E+02  0.45594000000E+02  0.51100000000E-03 0.  1.
         11   -1    0    0    0    0 -0.00000000000E+00 -0.00000000000E+00 -0.45593999997E+02  0.45594000000E+02  0.51100000000E-03 0. -1.
    9900012    2    1    2    0    0 -0.30953356608E+02 -0.23505315050E+01 -0.72853377276E+01  0.59302087288E+02  0.50000261272E+02 0.  0.
        -12    1    1    2    0    0  0.30953356608E+02  0.23505315050E+01  0.72853377276E+01  0.31885912712E+02  0.00000000000E+00 0.  1.
         11    1    3    3    0    0 -0.21767390080E+02 -0.13861579504E+02 -0.52212832154E+01  0.26329156004E+02  0.51100000000E-03 0. -1.
        -11    1    3    3    0    0 -0.31106585419E+01 -0.93800649746E+01 -0.49031763961E+01  0.11031906205E+02  0.51100000000E-03 0.  1.
        -12    1    3    3    0    0 -0.60753079865E+01  0.20891112974E+02  0.28391218839E+01  0.21941025078E+02  0.00000000000E+00 0.  1.
</event>
<event>
 7    1  0.1324280E-011  0.5930192E+02  0.7816164E-02  0.1266605E+00
        -11   -1    0    0    0    0  0.00000000000E+00  0.00000000000E+00  0.45593999997E+02  0.45594000000E+02  0.51100000000E-03 0.  1.
         11   -1    0    0    0    0 -0.00000000000E+00 -0.00000000000E+00 -0.45593999997E+02  0.45594000000E+02  0.51100000000E-03 0. -1.
    9900012    2    1    2    0    0 -0.27735372789E+01 -0.25177181477E+02 -0.19368513628E+02  0.59301916886E+02  0.49999950500E+02 0.  0.
        -12    1    1    2    0    0  0.27735372789E+01  0.25177181477E+02  0.19368513628E+02  0.31886083114E+02  0.00000000000E+00 0.  1.
         11    1    3    3    0    0  0.64098030487E+01 -0.20588653987E+02 -0.20015897189E+02  0.29421325406E+02  0.51100000000E-03 0. -1.
        -11    1    3    3    0    0  0.68401361224E+01 -0.10245591832E+02  0.31221579038E+01  0.12708559494E+02  0.51100000000E-03 0.  1.
        -12    1    3    3    0    0 -0.16023476450E+02  0.56570643416E+01 -0.24747743432E+01  0.17172031987E+02  0.00000000000E+00 0.  1.
</event>
<event>
 7    1  0.1324280E-011  0.5930194E+02  0.7816164E-02  0.1266605E+00
        -11   -1    0    0    0    0  0.00000000000E+00  0.00000000000E+00  0.45593999997E+02  0.45594000000E+02  0.51100000000E-03 0.  1.
         11   -1    0    0    0    0 -0.00000000000E+00 -0.00000000000E+00 -0.45593999997E+02  0.45594000000E+02  0.51100000000E-03 0. -1.
    9900012    2    1    2    0    0  0.13547046689E+02 -0.93653543629E+01 -0.27303636604E+02  0.59301938654E+02  0.49999990200E+02 0.  0.
        -12    1    1    2    0    0 -0.13547046689E+02  0.93653543629E+01  0.27303636604E+02  0.31886061346E+02  0.00000000000E+00 0.  1.
         11    1    3    3    0    0  0.20961214052E+02  0.57332684882E+01 -0.45256164925E+01  0.22197388742E+02  0.51100000000E-03 0. -1.
        -11    1    3    3    0    0 -0.77856313192E+01  0.34784715740E+01 -0.11716001716E+01  0.86074657567E+01  0.51100000000E-03 0.  1.
        -12    1    3    3    0    0  0.37146395679E+00 -0.18577094425E+02 -0.21606419940E+02  0.28497084155E+02  0.00000000000E+00 0.  1.
</event>
<event>
 7    1  0.1324280E-011  0.5930196E+02  0.7816164E-02  0.1266605E+00
        -11   -1    0    0    0    0  0.00000000000E+00  0.00000000000E+00  0.45593999997E+02  0.45594000000E+02  0.51100000000E-03 0. -1.
         11   -1    0    0    0    0 -0.00000000000E+00 -0.00000000000E+00 -0.45593999997E+02  0.45594000000E+02  0.51100000000E-03 0.  1.
    9900012    2    1    2    0    0 -0.17465104403E+01  0.31794479729E+02 -0.16673919000E+01  0.59301961744E+02  0.50000032310E+02 0.  0.
        -12    1    1    2    0    0  0.17465104403E+01 -0.31794479729E+02  0.16673919000E+01  0.31886038256E+02  0.00000000000E+00 0.  1.
         11    1    3    3    0    0 -0.13225816346E+02  0.13300166598E+02  0.12819678818E+01  0.18800534340E+02  0.51100000000E-03 0. -1.
        -11    1    3    3    0    0 -0.65740353995E+01  0.93889864862E+01  0.11040219021E+02  0.15914064376E+02  0.51100000000E-03 0.  1.
        -12    1    3    3    0    0  0.18053341305E+02  0.91053266443E+01 -0.13989578803E+02  0.24587363028E+02  0.00000000000E+00 0.  1.
</event>
<event>
 7    1  0.1324280E-011  0.5930199E+02  0.7816164E-02  0.1266605E+00
        -11   -1    0    0    0    0  0.00000000000E+00  0.00000000000E+00  0.45593999997E+02  0.45594000000E+02  0.51100000000E-03 0.  1.
         11   -1    0    0    0    0 -0.00000000000E+00 -0.00000000000E+00 -0.45593999997E+02  0.45594000000E+02  0.51100000000E-03 0. -1.
    9900012    2    1    2    0    0 -0.14019462320E+02  0.19680643263E+02 -0.20804924266E+02  0.59301985563E+02  0.50000075750E+02 0.  0.
        -12    1    1    2    0    0  0.14019462320E+02 -0.19680643263E+02  0.20804924266E+02  0.31886014437E+02  0.00000000000E+00 0.  1.
         11    1    3    3    0    0  0.41848017422E+01  0.15521217703E+02 -0.85775515973E+01  0.18220734241E+02  0.51100000000E-03 0. -1.
        -11    1    3    3    0    0  0.96354474320E+01 -0.36523637532E+01 -0.32017747010E+01  0.10790411007E+02  0.51100000000E-03 0.  1.
         12    1    3    3    0    0 -0.27839711494E+02  0.78117893133E+01 -0.90255979672E+01  0.30290840315E+02  0.00000000000E+00 0. -1.
</event>
<event>
 7    1  0.1324280E-011  0.5930196E+02  0.7816164E-02  0.1266605E+00
        -11   -1    0    0    0    0  0.00000000000E+00  0.00000000000E+00  0.45593999997E+02  0.45594000000E+02  0.51100000000E-03 0.  1.
         11   -1    0    0    0    0 -0.00000000000E+00 -0.00000000000E+00 -0.45593999997E+02  0.45594000000E+02  0.51100000000E-03 0. -1.
    9900012    2    1    2    0    0 -0.42023748216E+01 -0.19397755710E+02 -0.24955692090E+02  0.59301961544E+02  0.50000031945E+02 0.  0.
        -12    1    1    2    0    0  0.42023748216E+01  0.19397755710E+02  0.24955692090E+02  0.31886038456E+02  0.00000000000E+00 0.  1.
         11    1    3    3    0    0  0.10305606335E+02 -0.34490869481E+01 -0.20463727169E+02  0.23170365829E+02  0.51100000000E-03 0. -1.
        -11    1    3    3    0    0 -0.96935043442E+01  0.72810523443E+01 -0.17888933581E+01  0.12254708867E+02  0.51100000000E-03 0.  1.
        -12    1    3    3    0    0 -0.48144768125E+01 -0.23229721106E+02 -0.27030715628E+01  0.23876886848E+02  0.00000000000E+00 0.  1.
</event>
<event>
 7    1  0.1324280E-011  0.5930194E+02  0.7816164E-02  0.1266605E+00
        -11   -1    0    0    0    0  0.00000000000E+00  0.00000000000E+00  0.45593999997E+02  0.45594000000E+02  0.51100000000E-03 0. -1.
         11   -1    0    0    0    0 -0.00000000000E+00 -0.00000000000E+00 -0.45593999997E+02  0.45594000000E+02  0.51100000000E-03 0.  1.
    9900012    2    1    2    0    0 -0.18899725370E+02  0.14881418561E+02 -0.20929996173E+02  0.59301937571E+02  0.49999988224E+02 0.  0.
        -12    1    1    2    0    0  0.18899725370E+02 -0.14881418561E+02  0.20929996173E+02  0.31886062429E+02  0.00000000000E+00 0.  1.
         11    1    3    3    0    0 -0.19733104945E+02  0.13670404530E+02  0.10452718722E+02  0.26182717959E+02  0.51100000000E-03 0. -1.
        -11    1    3    3    0    0  0.16038402591E+01 -0.45158103572E+01 -0.13420378728E+02  0.14250312706E+02  0.51100000000E-03 0.  1.
        -12    1    3    3    0    0 -0.77046068449E+00  0.57268243874E+01 -0.17962336167E+02  0.18868906906E+02  0.00000000000E+00 0.  1.
</event>
<event>
 7    1  0.1324280E-011  0.5930190E+02  0.7816164E-02  0.1266605E+00
        -11   -1    0    0    0    0  0.00000000000E+00  0.00000000000E+00  0.45593999997E+02  0.45594000000E+02  0.51100000000E-03 0.  1.
         11   -1    0    0    0    0 -0.00000000000E+00 -0.00000000000E+00 -0.45593999997E+02  0.45594000000E+02  0.51100000000E-03 0. -1.
    9900012    2    1    2    0    0  0.18130333169E+02 -0.35407452034E+00 -0.26227638773E+02  0.59301899812E+02  0.49999919361E+02 0.  0.
        -12    1    1    2    0    0 -0.18130333169E+02  0.35407452034E+00  0.26227638773E+02  0.31886100188E+02  0.00000000000E+00 0.  1.
         11    1    3    3    0    0 -0.10245750776E+02 -0.57152113741E+01 -0.15122590966E+02  0.19139796441E+02  0.51100000000E-03 0. -1.
        -11    1    3    3    0    0  0.18037668538E+02 -0.90267182156E+01 -0.97225099274E+01  0.22391210945E+02  0.51100000000E-03 0.  1.
        -12    1    3    3    0    0  0.10338415408E+02  0.14387855069E+02 -0.13825378799E+01  0.17770892426E+02  0.00000000000E+00 0.  1.
</event>
<event>
 7    1  0.1324280E-011  0.5930190E+02  0.7816164E-02  0.1266605E+00
        -11   -1    0    0    0    0  0.00000000000E+00  0.00000000000E+00  0.45593999997E+02  0.45594000000E+02  0.51100000000E-03 0.  1.
         11   -1    0    0    0    0 -0.00000000000E+00 -0.00000000000E+00 -0.45593999997E+02  0.45594000000E+02  0.51100000000E-03 0. -1.
    9900012    2    1    2    0    0 -0.13997733969E+02  0.12338275771E+02 -0.25856402487E+02  0.59301903424E+02  0.49999925949E+02 0.  0.
        -12    1    1    2    0    0  0.13997733969E+02 -0.12338275771E+02  0.25856402487E+02  0.31886096576E+02  0.00000000000E+00 0.  1.
         11    1    3    3    0    0 -0.40851667559E+01  0.64415266767E+01  0.34566471347E+01  0.83743813518E+01  0.51100000000E-03 0. -1.
        -11    1    3    3    0    0  0.97620401913E+01  0.26327404338E+01  0.49694267752E+01  0.11266053152E+02  0.51100000000E-03 0.  1.
         12    1    3    3    0    0 -0.19674607405E+02  0.32640086607E+01 -0.34282476396E+02  0.39661468921E+02  0.00000000000E+00 0. -1.
</event>
<event>
 7    1  0.1324280E-011  0.5930195E+02  0.7816164E-02  0.1266605E+00
        -11   -1    0    0    0    0  0.00000000000E+00  0.00000000000E+00  0.45593999997E+02  0.45594000000E+02  0.51100000000E-03 0. -1.
         11   -1    0    0    0    0 -0.00000000000E+00 -0.00000000000E+00 -0.45593999997E+02  0.45594000000E+02  0.51100000000E-03 0.  1.
    9900012    2    1    2    0    0 -0.15800410375E+02  0.21203017866E+02  0.17818502666E+02  0.59301953336E+02  0.50000016976E+02 0.  0.
        -12    1    1    2    0    0  0.15800410375E+02 -0.21203017866E+02 -0.17818502666E+02  0.31886046664E+02  0.00000000000E+00 0.  1.
         11    1    3    3    0    0 -0.23155764859E+02 -0.35737918907E+01  0.50121243438E+01  0.23960025571E+02  0.51100000000E-03 0. -1.
        -11    1    3    3    0    0  0.58096874883E+01  0.11457803465E+01  0.98276577834E+01  0.11473802294E+02  0.51100000000E-03 0.  1.
         12    1    3    3    0    0  0.15456669958E+01  0.23631029410E+02  0.29787205387E+01  0.23868125470E+02  0.00000000000E+00 0. -1.
</event>
<event>
 7    1  0.1324280E-011  0.5930195E+02  0.7816164E-02  0.1266605E+00
        -11   -1    0    0    0    0  0.00000000000E+00  0.00000000000E+00  0.45593999997E+02  0.45594000000E+02  0.51100000000E-03 0.  1.
         11   -1    0    0    0    0 -0.00000000000E+00 -0.00000000000E+00 -0.45593999997E+02  0.45594000000E+02  0.51100000000E-03 0. -1.
    9900012    2    1    2    0    0 -0.23723020203E+02  0.20148556419E+02  0.69263478509E+01  0.59301948067E+02  0.50000007366E+02 0.  0.
        -12    1    1    2    0    0  0.23723020203E+02 -0.20148556419E+02 -0.69263478509E+01  0.31886051933E+02  0.00000000000E+00 0.  1.
         11    1    3    3    0    0 -0.28367318600E+02  0.22384672080E+02 -0.63769388695E+01  0.36693918547E+02  0.51100000000E-03 0. -1.
        -11    1    3    3    0    0  0.46799576403E+01  0.16613535433E+01 -0.30291022633E+01  0.58170060936E+01  0.51100000000E-03 0.  1.
        -12    1    3    3    0    0 -0.35659243296E-01 -0.38974692042E+01  0.16332388984E+02  0.16791023426E+02  0.00000000000E+00 0.  1.
</event>
<event>
 7    1  0.1324280E-011  0.5930195E+02  0.7816164E-02  0.1266605E+00
        -11   -1    0    0    0    0  0.00000000000E+00  0.00000000000E+00  0.45593999997E+02  0.45594000000E+02  0.51100000000E-03 0.  1.
         11   -1    0    0    0    0 -0.00000000000E+00 -0.00000000000E+00 -0.45593999997E+02  0.45594000000E+02  0.51100000000E-03 0. -1.
    9900012    2    1    2    0    0  0.29300253156E+02  0.54003677436E+00 -0.12566772681E+02  0.59301948969E+02  0.50000009012E+02 0.  0.
        -12    1    1    2    0    0 -0.29300253156E+02 -0.54003677436E+00  0.12566772681E+02  0.31886051031E+02  0.00000000000E+00 0.  1.
         11    1    3    3    0    0 -0.60327733147E+01 -0.64964603375E+01 -0.20246539646E+02  0.22102504805E+02  0.51100000000E-03 0. -1.
        -11    1    3    3    0    0  0.11280244112E+01  0.12844532028E+01  0.46801563021E+00  0.17723707269E+01  0.51100000000E-03 0.  1.
         12    1    3    3    0    0  0.34205002059E+02  0.57520439090E+01  0.72117513340E+01  0.35427073437E+02  0.00000000000E+00 0. -1.
</event>
<event>
 7    1  0.1324280E-011  0.5930195E+02  0.7816164E-02  0.1266605E+00
        -11   -1    0    0    0    0  0.00000000000E+00  0.00000000000E+00  0.45593999997E+02  0.45594000000E+02  0.51100000000E-03 0.  1.
         11   -1    0    0    0    0 -0.00000000000E+00 -0.00000000000E+00 -0.45593999997E+02  0.45594000000E+02  0.51100000000E-03 0. -1.
    9900012    2    1    2    0    0  0.26235040952E+02 -0.84499119268E+00 -0.18103286781E+02  0.59301946996E+02  0.50000005414E+02 0.  0.
        -12    1    1    2    0    0 -0.26235040952E+02  0.84499119268E+00  0.18103286781E+02  0.31886053004E+02  0.00000000000E+00 0.  1.
         11    1    3    3    0    0  0.10055407668E+02  0.84617123481E+01  0.39202368362E+01  0.13714228245E+02  0.51100000000E-03 0. -1.
        -11    1    3    3    0    0 -0.49347407309E+01 -0.14000977653E+02 -0.17895793938E+00  0.14846247591E+02  0.51100000000E-03 0.  1.
         12    1    3    3    0    0  0.21114374015E+02  0.46942741124E+01 -0.21844565678E+02  0.30741471161E+02  0.00000000000E+00 0. -1.
</event>
<event>
 7    1  0.1324280E-011  0.5930199E+02  0.7816164E-02  0.1266605E+00
        -11   -1    0    0    0    0  0.00000000000E+00  0.00000000000E+00  0.45593999997E+02  0.45594000000E+02  0.51100000000E-03 0. -1.
         11   -1    0    0    0    0 -0.00000000000E+00 -0.00000000000E+00 -0.45593999997E+02  0.45594000000E+02  0.51100000000E-03 0.  1.
    9900012    2    1    2    0    0  0.20655340272E+02  0.16969088793E+02  0.17381733304E+02  0.59301988822E+02  0.50000081694E+02 0.  0.
        -12    1    1    2    0    0 -0.20655340272E+02 -0.16969088793E+02 -0.17381733304E+02  0.31886011178E+02  0.00000000000E+00 0.  1.
         11    1    3    3    0    0  0.79673069386E+01  0.26784912298E+02  0.25079103240E+02  0.37548247979E+02  0.51100000000E-03 0. -1.
        -11    1    3    3    0    0  0.54800237738E+01 -0.11129735171E+01  0.28673114072E+01  0.62841742161E+01  0.51100000000E-03 0.  1.
        -12    1    3    3    0    0  0.72080095598E+01 -0.87028499882E+01 -0.10564681344E+02  0.15469566627E+02  0.00000000000E+00 0.  1.
</event>
<event>
 7    1  0.1324280E-011  0.5930199E+02  0.7816164E-02  0.1266605E+00
        -11   -1    0    0    0    0  0.00000000000E+00  0.00000000000E+00  0.45593999997E+02  0.45594000000E+02  0.51100000000E-03 0. -1.
         11   -1    0    0    0    0 -0.00000000000E+00 -0.00000000000E+00 -0.45593999997E+02  0.45594000000E+02  0.51100000000E-03 0.  1.
    9900012    2    1    2    0    0 -0.22320642543E+02  0.15924511207E+02  0.16276264404E+02  0.59301985453E+02  0.50000075550E+02 0.  0.
        -12    1    1    2    0    0  0.22320642543E+02 -0.15924511207E+02 -0.16276264404E+02  0.31886014547E+02  0.00000000000E+00 0.  1.
         11    1    3    3    0    0 -0.19719106782E+02 -0.13501654121E+02 -0.14613493225E+00  0.23898937047E+02  0.51100000000E-03 0.  1.
        -11    1    3    3    0    0  0.84702923772E-01  0.18174441419E+02  0.43601526522E+01  0.18690329769E+02  0.51100000000E-03 0. -1.
        -12    1    3    3    0    0 -0.26862386848E+01  0.11251723908E+02  0.12062246684E+02  0.16712718637E+02  0.00000000000E+00 0.  1.
</event>
<event>
 7    1  0.1324280E-011  0.5930194E+02  0.7816164E-02  0.1266605E+00
        -11   -1    0    0    0    0  0.00000000000E+00  0.00000000000E+00  0.45593999997E+02  0.45594000000E+02  0.51100000000E-03 0.  1.
         11   -1    0    0    0    0 -0.00000000000E+00 -0.00000000000E+00 -0.45593999997E+02  0.45594000000E+02  0.51100000000E-03 0. -1.
    9900012    2    1    2    0    0  0.22368532642E+02 -0.56520328130E+01 -0.22009642443E+02  0.59301935835E+02  0.49999985058E+02 0.  0.
        -12    1    1    2    0    0 -0.22368532642E+02  0.56520328130E+01  0.22009642443E+02  0.31886064165E+02  0.00000000000E+00 0.  1.
         11    1    3    3    0    0  0.13498016161E+02  0.57273680908E+01 -0.10569062536E+02  0.18074962481E+02  0.51100000000E-03 0. -1.
        -11    1    3    3    0    0  0.10562153720E+02  0.11618028490E+02 -0.88459731401E+01  0.18021901073E+02  0.51100000000E-03 0.  1.
         12    1    3    3    0    0 -0.16916372398E+01 -0.22997429394E+02 -0.25946067673E+01  0.23205072281E+02  0.00000000000E+00 0. -1.
</event>
<event>
 7    1  0.1324280E-011  0.5930195E+02  0.7816164E-02  0.1266605E+00
        -11   -1    0    0    0    0  0.00000000000E+00  0.00000000000E+00  0.45593999997E+02  0.45594000000E+02  0.51100000000E-03 0. -1.
         11   -1    0    0    0    0 -0.00000000000E+00 -0.00000000000E+00 -0.45593999997E+02  0.45594000000E+02  0.51100000000E-03 0.  1.
    9900012    2    1    2    0    0 -0.18995557956E+02 -0.49972600412E+01  0.25118053310E+02  0.59301946120E+02  0.50000003815E+02 0.  0.
        -12    1    1    2    0    0  0.18995557956E+02  0.49972600412E+01 -0.25118053310E+02  0.31886053880E+02  0.00000000000E+00 0.  1.
         11    1    3    3    0    0 -0.19298037658E+02  0.53121606464E+01  0.21643212836E+02  0.29479857026E+02  0.51100000000E-03 0. -1.
        -11    1    3    3    0    0 -0.92577814984E+01 -0.39831513842E+01 -0.85440745120E+01  0.13212616045E+02  0.51100000000E-03 0.  1.
         12    1    3    3    0    0  0.95602611998E+01 -0.63262693033E+01  0.12018914986E+02  0.16609473049E+02  0.00000000000E+00 0. -1.
</event>
<event>
 7    1  0.1324280E-011  0.5930200E+02  0.7816164E-02  0.1266605E+00
        -11   -1    0    0    0    0  0.00000000000E+00  0.00000000000E+00  0.45593999997E+02  0.45594000000E+02  0.51100000000E-03 0. -1.
         11   -1    0    0    0    0 -0.00000000000E+00 -0.00000000000E+00 -0.45593999997E+02  0.45594000000E+02  0.51100000000E-03 0.  1.
    9900012    2    1    2    0    0 -0.24593217029E+02 -0.20244422420E+02  0.14332808594E+01  0.59301995907E+02  0.50000094616E+02 0.  0.
        -12    1    1    2    0    0  0.24593217029E+02  0.20244422420E+02 -0.14332808594E+01  0.31886004093E+02  0.00000000000E+00 0.  1.
         11    1    3    3    0    0 -0.14835352422E+02 -0.84203434187E+00  0.13730926591E+02  0.20232030264E+02  0.51100000000E-03 0. -1.
        -11    1    3    3    0    0 -0.14760659067E+02 -0.12991163458E+02  0.47087196594E+01  0.20219283498E+02  0.51100000000E-03 0.  1.
        -12    1    3    3    0    0  0.50027944591E+01 -0.64112246205E+01 -0.17006365391E+02  0.18850682145E+02  0.00000000000E+00 0.  1.
</event>
<event>
 7    1  0.1324280E-011  0.5930198E+02  0.7816164E-02  0.1266605E+00
        -11   -1    0    0    0    0  0.00000000000E+00  0.00000000000E+00  0.45593999997E+02  0.45594000000E+02  0.51100000000E-03 0.  1.
         11   -1    0    0    0    0 -0.00000000000E+00 -0.00000000000E+00 -0.45593999997E+02  0.45594000000E+02  0.51100000000E-03 0. -1.
    9900012    2    1    2    0    0 -0.47561859028E+01 -0.31520612754E+02  0.74040037950E+00  0.59301976016E+02  0.50000058340E+02 0.  0.
        -12    1    1    2    0    0  0.47561859028E+01  0.31520612754E+02 -0.74040037950E+00  0.31886023984E+02  0.00000000000E+00 0.  1.
         11    1    3    3    0    0  0.65774945525E+01 -0.28087380880E+02 -0.12036595378E+02  0.31257703496E+02  0.51100000000E-03 0. -1.
        -11    1    3    3    0    0  0.11465839853E+00 -0.72433364268E+01  0.14154090263E+02  0.15900230834E+02  0.51100000000E-03 0.  1.
         12    1    3    3    0    0 -0.11448338854E+02  0.38101045527E+01 -0.13770945055E+01  0.12144041687E+02  0.00000000000E+00 0. -1.
</event>
<event>
 7    1  0.1324280E-011  0.5930194E+02  0.7816164E-02  0.1266605E+00
        -11   -1    0    0    0    0  0.00000000000E+00  0.00000000000E+00  0.45593999997E+02  0.45594000000E+02  0.51100000000E-03 0. -1.
         11   -1    0    0    0    0 -0.00000000000E+00 -0.00000000000E+00 -0.45593999997E+02  0.45594000000E+02  0.51100000000E-03 0.  1.
    9900012    2    1    2    0    0 -0.32447692745E+01 -0.29558010495E+02 -0.11511570617E+02  0.59301940819E+02  0.49999994147E+02 0.  0.
        -12    1    1    2    0    0  0.32447692745E+01  0.29558010495E+02  0.11511570617E+02  0.31886059181E+02  0.00000000000E+00 0.  1.
         11    1    3    3    0    0 -0.14102843649E+02 -0.36024979580E+02 -0.86267776383E+01  0.39637238115E+02  0.51100000000E-03 0. -1.
        -11    1    3    3    0    0  0.31045570421E+01 -0.31350609515E+01 -0.54979793791E+01  0.70494438867E+01  0.51100000000E-03 0.  1.
        -12    1    3    3    0    0  0.77535173324E+01  0.96020300366E+01  0.26131864006E+01  0.12615258817E+02  0.00000000000E+00 0.  1.
</event>
<event>
 7    1  0.1324280E-011  0.5930192E+02  0.7816164E-02  0.1266605E+00
        -11   -1    0    0    0    0  0.00000000000E+00  0.00000000000E+00  0.45593999997E+02  0.45594000000E+02  0.51100000000E-03 0.  1.
         11   -1    0    0    0    0 -0.00000000000E+00 -0.00000000000E+00 -0.45593999997E+02  0.45594000000E+02  0.51100000000E-03 0. -1.
    9900012    2    1    2    0    0 -0.10688858478E+02 -0.13218314662E+01 -0.30012054825E+02  0.59301915750E+02  0.49999948427E+02 0.  0.
        -12    1    1    2    0    0  0.10688858478E+02  0.13218314662E+01  0.30012054825E+02  0.31886084250E+02  0.00000000000E+00 0.  1.
         11    1    3    3    0    0  0.38605539017E+01  0.30435399656E+01  0.10984814538E+01  0.50372287734E+01  0.51100000000E-03 0.  1.
        -11    1    3    3    0    0 -0.22907570654E+02 -0.42192504178E+01 -0.37222055179E+02  0.43909455238E+02  0.51100000000E-03 0. -1.
         12    1    3    3    0    0  0.83581582740E+01 -0.14612101405E+00  0.61115188996E+01  0.10355231738E+02  0.00000000000E+00 0. -1.
</event>
<event>
 7    1  0.1324280E-011  0.5930194E+02  0.7816164E-02  0.1266605E+00
        -11   -1    0    0    0    0  0.00000000000E+00  0.00000000000E+00  0.45593999997E+02  0.45594000000E+02  0.51100000000E-03 0.  1.
         11   -1    0    0    0    0 -0.00000000000E+00 -0.00000000000E+00 -0.45593999997E+02  0.45594000000E+02  0.51100000000E-03 0. -1.
    9900012    2    1    2    0    0 -0.10805049839E+02  0.15281257895E+02 -0.25815789927E+02  0.59301937928E+02  0.49999988876E+02 0.  0.
        -12    1    1    2    0    0  0.10805049839E+02 -0.15281257895E+02  0.25815789927E+02  0.31886062072E+02  0.00000000000E+00 0.  1.
         11    1    3    3    0    0 -0.40521866664E+01  0.25311644352E+02 -0.17732556392E+02  0.31169586347E+02  0.51100000000E-03 0. -1.
        -11    1    3    3    0    0  0.63886512774E+01  0.39899096116E+01 -0.77015316341E+00  0.75714846635E+01  0.51100000000E-03 0.  1.
        -12    1    3    3    0    0 -0.13141514450E+02 -0.14020296069E+02 -0.73130803718E+01  0.20560866918E+02  0.00000000000E+00 0.  1.
</event>
<event>
 7    1  0.1324280E-011  0.5930184E+02  0.7816164E-02  0.1266605E+00
        -11   -1    0    0    0    0  0.00000000000E+00  0.00000000000E+00  0.45593999997E+02  0.45594000000E+02  0.51100000000E-03 0. -1.
         11   -1    0    0    0    0 -0.00000000000E+00 -0.00000000000E+00 -0.45593999997E+02  0.45594000000E+02  0.51100000000E-03 0.  1.
    9900012    2    1    2    0    0 -0.22854817315E+01  0.16420273101E+02  0.27237441173E+02  0.59301843174E+02  0.49999816067E+02 0.  0.
        -12    1    1    2    0    0  0.22854817315E+01 -0.16420273101E+02 -0.27237441173E+02  0.31886156826E+02  0.00000000000E+00 0.  1.
         11    1    3    3    0    0  0.15847612194E+02  0.11641789722E+02  0.32037847115E+01  0.19923411277E+02  0.51100000000E-03 0. -1.
        -11    1    3    3    0    0 -0.19572574221E+01 -0.28019232572E+01 -0.45384444038E+01  0.56814706215E+01  0.51100000000E-03 0.  1.
         12    1    3    3    0    0 -0.16175836503E+02  0.75804066358E+01  0.28572100866E+02  0.33696961276E+02  0.00000000000E+00 0. -1.
</event>
<event>
 7    1  0.1324280E-011  0.5930195E+02  0.7816164E-02  0.1266605E+00
        -11   -1    0    0    0    0  0.00000000000E+00  0.00000000000E+00  0.45593999997E+02  0.45594000000E+02  0.51100000000E-03 0. -1.
         11   -1    0    0    0    0 -0.00000000000E+00 -0.00000000000E+00 -0.45593999997E+02  0.45594000000E+02  0.51100000000E-03 0.  1.
    9900012    2    1    2    0    0 -0.24095267033E+02 -0.20751604473E+02  0.23472321527E+01  0.59301945362E+02  0.50000002434E+02 0.  0.
        -12    1    1    2    0    0  0.24095267033E+02  0.20751604473E+02 -0.23472321527E+01  0.31886054638E+02  0.00000000000E+00 0.  1.
         11    1    3    3    0    0 -0.26191271853E+02 -0.94801559635E+01  0.11016647373E+02  0.29953674198E+02  0.51100000000E-03 0. -1.
        -11    1    3    3    0    0 -0.37458635264E+01  0.48182683629E+01  0.46390121171E+01  0.76660052999E+01  0.51100000000E-03 0.  1.
        -12    1    3    3    0    0  0.58418683464E+01 -0.16089716873E+02 -0.13308427337E+02  0.21682265864E+02  0.00000000000E+00 0.  1.
</event>
<event>
 7    1  0.1324280E-011  0.5930195E+02  0.7816164E-02  0.1266605E+00
        -11   -1    0    0    0    0  0.00000000000E+00  0.00000000000E+00  0.45593999997E+02  0.45594000000E+02  0.51100000000E-03 0. -1.
         11   -1    0    0    0    0 -0.00000000000E+00 -0.00000000000E+00 -0.45593999997E+02  0.45594000000E+02  0.51100000000E-03 0.  1.
    9900012    2    1    2    0    0 -0.20181993957E+01  0.31485086606E+02 -0.46191380296E+01  0.59301949076E+02  0.50000009207E+02 0.  0.
        -12    1    1    2    0    0  0.20181993957E+01 -0.31485086606E+02  0.46191380296E+01  0.31886050924E+02  0.00000000000E+00 0.  1.
         11    1    3    3    0    0 -0.77341609859E+01  0.22135060552E+02 -0.51152234550E+01  0.23998826284E+02  0.51100000000E-03 0. -1.
        -11    1    3    3    0    0 -0.10464513946E+01  0.95884707078E+01 -0.15318219299E+02  0.18101979831E+02  0.51100000000E-03 0.  1.
         12    1    3    3    0    0  0.67624129848E+01 -0.23844465329E+00  0.15814304725E+02  0.17201142961E+02  0.00000000000E+00 0. -1.
</event>
<event>
 7    1  0.1324280E-011  0.5930194E+02  0.7816164E-02  0.1266605E+00
        -11   -1    0    0    0    0  0.00000000000E+00  0.00000000000E+00  0.45593999997E+02  0.45594000000E+02  0.51100000000E-03 0. -1.
         11   -1    0    0    0    0 -0.00000000000E+00 -0.00000000000E+00 -0.45593999997E+02  0.45594000000E+02  0.51100000000E-03 0.  1.
    9900012    2    1    2    0    0 -0.67020951755E+01  0.13313311377E+01  0.31145310687E+02  0.59301938780E+02  0.49999990430E+02 0.  0.
        -12    1    1    2    0    0  0.67020951755E+01 -0.13313311377E+01 -0.31145310687E+02  0.31886061220E+02  0.00000000000E+00 0.  1.
         11    1    3    3    0    0  0.36602521528E+01 -0.63676051220E+01  0.30410405350E+02  0.31284766175E+02  0.51100000000E-03 0. -1.
        -11    1    3    3    0    0  0.52179368665E+01 -0.38534599363E+01  0.49608888524E+01  0.81661764058E+01  0.51100000000E-03 0.  1.
         12    1    3    3    0    0 -0.15580284195E+02  0.11552396196E+02 -0.42259835152E+01  0.19850996200E+02  0.00000000000E+00 0. -1.
</event>
<event>
 7    1  0.1324280E-011  0.5930191E+02  0.7816164E-02  0.1266605E+00
        -11   -1    0    0    0    0  0.00000000000E+00  0.00000000000E+00  0.45593999997E+02  0.45594000000E+02  0.51100000000E-03 0.  1.
         11   -1    0    0    0    0 -0.00000000000E+00 -0.00000000000E+00 -0.45593999997E+02  0.45594000000E+02  0.51100000000E-03 0. -1.
    9900012    2    1    2    0    0 -0.30093143285E+01  0.19754911671E+02 -0.24847742663E+02  0.59301908623E+02  0.49999935430E+02 0.  0.
        -12    1    1    2    0    0  0.30093143285E+01 -0.19754911671E+02  0.24847742663E+02  0.31886091377E+02  0.00000000000E+00 0.  1.
         11    1    3    3    0    0  0.76941131956E+01  0.23135654477E+02  0.71217483312E-01  0.24381611066E+02  0.51100000000E-03 0.  1.
        -11    1    3    3    0    0 -0.13737031334E+02 -0.20164223812E+00 -0.51551310230E+01  0.14673856534E+02  0.51100000000E-03 0. -1.
        -12    1    3    3    0    0  0.30336038096E+01 -0.31791005681E+01 -0.19763829123E+02  0.20246441023E+02  0.00000000000E+00 0.  1.
</event>
<event>
 7    1  0.1324280E-011  0.5930194E+02  0.7816164E-02  0.1266605E+00
        -11   -1    0    0    0    0  0.00000000000E+00  0.00000000000E+00  0.45593999997E+02  0.45594000000E+02  0.51100000000E-03 0. -1.
         11   -1    0    0    0    0 -0.00000000000E+00 -0.00000000000E+00 -0.45593999997E+02  0.45594000000E+02  0.51100000000E-03 0.  1.
    9900012    2    1    2    0    0  0.18601440607E+02  0.14216364602E+02 -0.21647215412E+02  0.59301944266E+02  0.50000000435E+02 0.  0.
        -12    1    1    2    0    0 -0.18601440607E+02 -0.14216364602E+02  0.21647215412E+02  0.31886055734E+02  0.00000000000E+00 0.  1.
         11    1    3    3    0    0 -0.57137950068E+00  0.73862333949E+01 -0.10110755752E+01  0.74769774894E+01  0.51100000000E-03 0. -1.
        -11    1    3    3    0    0 -0.91554954857E+01 -0.40726832360E+00  0.70468435337E+01  0.11560578235E+02  0.51100000000E-03 0.  1.
         12    1    3    3    0    0  0.28328315594E+02  0.72373995308E+01 -0.27682983371E+02  0.40264388542E+02  0.00000000000E+00 0. -1.
</event>
<event>
 7    1  0.1324280E-011  0.5930187E+02  0.7816164E-02  0.1266605E+00
        -11   -1    0    0    0    0  0.00000000000E+00  0.00000000000E+00  0.45593999997E+02  0.45594000000E+02  0.51100000000E-03 0. -1.
         11   -1    0    0    0    0 -0.00000000000E+00 -0.00000000000E+00 -0.45593999997E+02  0.45594000000E+02  0.51100000000E-03 0.  1.
    9900012    2    1    2    0    0 -0.11475281147E+02  0.29282111973E+02  0.52536534682E+01  0.59301873961E+02  0.49999872216E+02 0.  0.
        -12    1    1    2    0    0  0.11475281147E+02 -0.29282111973E+02 -0.52536534682E+01  0.31886126039E+02  0.00000000000E+00 0.  1.
         11    1    3    3    0    0 -0.44933254228E+01  0.17438378450E+02  0.12268969183E+02  0.21790241426E+02  0.51100000000E-03 0. -1.
        -11    1    3    3    0    0 -0.34846614194E+01 -0.11832300200E+02 -0.55728988376E+01  0.13535264864E+02  0.51100000000E-03 0.  1.
         12    1    3    3    0    0 -0.34972943047E+01  0.23676033723E+02 -0.14424168776E+01  0.23976367672E+02  0.00000000000E+00 0. -1.
</event>
<event>
 7    1  0.1324280E-011  0.5930194E+02  0.7816164E-02  0.1266605E+00
        -11   -1    0    0    0    0  0.00000000000E+00  0.00000000000E+00  0.45593999997E+02  0.45594000000E+02  0.51100000000E-03 0. -1.
         11   -1    0    0    0    0 -0.00000000000E+00 -0.00000000000E+00 -0.45593999997E+02  0.45594000000E+02  0.51100000000E-03 0.  1.
    9900012    2    1    2    0    0 -0.18902568107E+02 -0.91844066122E+01  0.23980420645E+02  0.59301937524E+02  0.49999988139E+02 0.  0.
        -12    1    1    2    0    0  0.18902568107E+02  0.91844066122E+01 -0.23980420645E+02  0.31886062476E+02  0.00000000000E+00 0.  1.
         11    1    3    3    0    0 -0.19687797292E+02 -0.14350761675E+02  0.26908615806E+02  0.36299136734E+02  0.51100000000E-03 0. -1.
        -11    1    3    3    0    0 -0.82703751805E+01  0.53674349319E+01  0.49191178551E+01  0.11018447445E+02  0.51100000000E-03 0.  1.
        -12    1    3    3    0    0  0.90556043648E+01 -0.20107986959E+00 -0.78473130152E+01  0.11984353344E+02  0.00000000000E+00 0.  1.
</event>
<event>
 7    1  0.1324280E-011  0.5930183E+02  0.7816164E-02  0.1266605E+00
        -11   -1    0    0    0    0  0.00000000000E+00  0.00000000000E+00  0.45593999997E+02  0.45594000000E+02  0.51100000000E-03 0.  1.
         11   -1    0    0    0    0 -0.00000000000E+00 -0.00000000000E+00 -0.45593999997E+02  0.45594000000E+02  0.51100000000E-03 0. -1.
    9900012    2    1    2    0    0  0.18426608732E+02 -0.17084079400E+02  0.19629632453E+02  0.59301825119E+02  0.49999783138E+02 0.  0.
        -12    1    1    2    0    0 -0.18426608732E+02  0.17084079400E+02 -0.19629632453E+02  0.31886174881E+02  0.00000000000E+00 0.  1.
         11    1    3    3    0    0  0.15016967232E+02  0.35481769145E+01  0.23797376049E+02  0.28362192640E+02  0.51100000000E-03 0. -1.
        -11    1    3    3    0    0 -0.49140600894E+00 -0.22908407347E+01  0.81659050680E+01  0.84953773888E+01  0.51100000000E-03 0.  1.
         12    1    3    3    0    0  0.39010475091E+01 -0.18341415580E+02 -0.12333648664E+02  0.22444255090E+02  0.00000000000E+00 0. -1.
</event>
<event>
 7    1  0.1324280E-011  0.5930191E+02  0.7816164E-02  0.1266605E+00
        -11   -1    0    0    0    0  0.00000000000E+00  0.00000000000E+00  0.45593999997E+02  0.45594000000E+02  0.51100000000E-03 0. -1.
         11   -1    0    0    0    0 -0.00000000000E+00 -0.00000000000E+00 -0.45593999997E+02  0.45594000000E+02  0.51100000000E-03 0.  1.
    9900012    2    1    2    0    0 -0.28328696517E+02 -0.13832789526E+02  0.47814026192E+01  0.59301907053E+02  0.49999932567E+02 0.  0.
        -12    1    1    2    0    0  0.28328696517E+02  0.13832789526E+02 -0.47814026192E+01  0.31886092947E+02  0.00000000000E+00 0.  1.
         11    1    3    3    0    0 -0.17477808110E+02 -0.24750037550E+02 -0.24415190684E+01  0.30397354337E+02  0.51100000000E-03 0. -1.
        -11    1    3    3    0    0  0.45458252760E+01 -0.43591006624E+01  0.16619341351E+01  0.65137018166E+01  0.51100000000E-03 0.  1.
         12    1    3    3    0    0 -0.15396713683E+02  0.15276348687E+02  0.55609875525E+01  0.22390850899E+02  0.00000000000E+00 0. -1.
</event>
<event>
 7    1  0.1324280E-011  0.5930195E+02  0.7816164E-02  0.1266605E+00
        -11   -1    0    0    0    0  0.00000000000E+00  0.00000000000E+00  0.45593999997E+02  0.45594000000E+02  0.51100000000E-03 0.  1.
         11   -1    0    0    0    0 -0.00000000000E+00 -0.00000000000E+00 -0.45593999997E+02  0.45594000000E+02  0.51100000000E-03 0. -1.
    9900012    2    1    2    0    0  0.20851958018E+02  0.21921021825E+02  0.10069012606E+02  0.59301947157E+02  0.50000005707E+02 0.  0.
        -12    1    1    2    0    0 -0.20851958018E+02 -0.21921021825E+02 -0.10069012606E+02  0.31886052843E+02  0.00000000000E+00 0.  1.
         11    1    3    3    0    0  0.12373396033E+02  0.28372737720E+02  0.14950946138E+02  0.34375048593E+02  0.51100000000E-03 0. -1.
        -11    1    3    3    0    0  0.10385907981E+02  0.55995046576E+01 -0.37914420699E-01  0.11799278570E+02  0.51100000000E-03 0.  1.
        -12    1    3    3    0    0 -0.19073459955E+01 -0.12051220553E+02 -0.48440191110E+01  0.13127619994E+02  0.00000000000E+00 0.  1.
</event>
<event>
 7    1  0.1324280E-011  0.5930194E+02  0.7816164E-02  0.1266605E+00
        -11   -1    0    0    0    0  0.00000000000E+00  0.00000000000E+00  0.45593999997E+02  0.45594000000E+02  0.51100000000E-03 0. -1.
         11   -1    0    0    0    0 -0.00000000000E+00 -0.00000000000E+00 -0.45593999997E+02  0.45594000000E+02  0.51100000000E-03 0.  1.
    9900012    2    1    2    0    0  0.24997818627E+02 -0.10793101243E+02  0.16593335306E+02  0.59301941179E+02  0.49999994805E+02 0.  0.
        -12    1    1    2    0    0 -0.24997818627E+02  0.10793101243E+02 -0.16593335306E+02  0.31886058821E+02  0.00000000000E+00 0.  1.
         11    1    3    3    0    0  0.79510722782E+01  0.87289489737E+01  0.42060428099E+01  0.12534149231E+02  0.51100000000E-03 0. -1.
        -11    1    3    3    0    0  0.66991725703E+01 -0.25003687541E+02 -0.44435304489E+01  0.26264201242E+02  0.51100000000E-03 0.  1.
         12    1    3    3    0    0  0.10347573779E+02  0.54816373247E+01  0.16830822945E+02  0.20503590706E+02  0.00000000000E+00 0. -1.
</event>
<event>
 7    1  0.1324280E-011  0.5930192E+02  0.7816164E-02  0.1266605E+00
        -11   -1    0    0    0    0  0.00000000000E+00  0.00000000000E+00  0.45593999997E+02  0.45594000000E+02  0.51100000000E-03 0.  1.
         11   -1    0    0    0    0 -0.00000000000E+00 -0.00000000000E+00 -0.45593999997E+02  0.45594000000E+02  0.51100000000E-03 0. -1.
    9900012    2    1    2    0    0 -0.30991752059E+02 -0.42191236039E+01  0.61993616340E+01  0.59301924915E+02  0.49999965143E+02 0.  0.
        -12    1    1    2    0    0  0.30991752059E+02  0.42191236039E+01 -0.61993616340E+01  0.31886075085E+02  0.00000000000E+00 0.  1.
         11    1    3    3    0    0 -0.52196905298E+01 -0.10244648313E+02  0.85337347325E+01  0.14318610863E+02  0.51100000000E-03 0.  1.
        -11    1    3    3    0    0 -0.16404133483E+02  0.17913570691E+02  0.91792086258E+01  0.25966314361E+02  0.51100000000E-03 0. -1.
         12    1    3    3    0    0 -0.93679280459E+01 -0.11888045982E+02 -0.11513581724E+02  0.19016999692E+02  0.00000000000E+00 0. -1.
</event>
<event>
 7    1  0.1324280E-011  0.5930196E+02  0.7816164E-02  0.1266605E+00
        -11   -1    0    0    0    0  0.00000000000E+00  0.00000000000E+00  0.45593999997E+02  0.45594000000E+02  0.51100000000E-03 0.  1.
         11   -1    0    0    0    0 -0.00000000000E+00 -0.00000000000E+00 -0.45593999997E+02  0.45594000000E+02  0.51100000000E-03 0. -1.
    9900012    2    1    2    0    0 -0.16025063369E+02 -0.23907343379E+02 -0.13724271841E+02  0.59301962915E+02  0.50000034446E+02 0.  0.
        -12    1    1    2    0    0  0.16025063369E+02  0.23907343379E+02  0.13724271841E+02  0.31886037085E+02  0.00000000000E+00 0.  1.
         11    1    3    3    0    0 -0.86475509939E+01 -0.26387899086E+01  0.89649636659E+01  0.12732396639E+02  0.51100000000E-03 0. -1.
        -11    1    3    3    0    0 -0.50682495030E+01  0.88859442087E+01 -0.38013891707E+01  0.10913190065E+02  0.51100000000E-03 0.  1.
         12    1    3    3    0    0 -0.23092628721E+01 -0.30154497679E+02 -0.18887846336E+02  0.35656376211E+02  0.00000000000E+00 0. -1.
</event>
<event>
 7    1  0.1324280E-011  0.5930210E+02  0.7816164E-02  0.1266604E+00
        -11   -1    0    0    0    0  0.00000000000E+00  0.00000000000E+00  0.45593999997E+02  0.45594000000E+02  0.51100000000E-03 0. -1.
         11   -1    0    0    0    0 -0.00000000000E+00 -0.00000000000E+00 -0.45593999997E+02  0.45594000000E+02  0.51100000000E-03 0.  1.
    9900012    2    1    2    0    0 -0.10703264778E+02 -0.70965282416E+01  0.29185438340E+02  0.59302103414E+02  0.50000290681E+02 0.  0.
        -12    1    1    2    0    0  0.10703264778E+02  0.70965282416E+01 -0.29185438340E+02  0.31885896586E+02  0.00000000000E+00 0.  1.
         11    1    3    3    0    0  0.34856000559E+01  0.85001680810E+01  0.31090873290E+02  0.32419819052E+02  0.51100000000E-03 0. -1.
        -11    1    3    3    0    0 -0.82389637546E+00 -0.82994322003E+00 -0.63656392286E+01  0.64721691910E+01  0.51100000000E-03 0.  1.
        -12    1    3    3    0    0 -0.13364968458E+02 -0.14766753103E+02  0.44602042788E+01  0.20410115171E+02  0.00000000000E+00 0.  1.
</event>
<event>
 7    1  0.1324280E-011  0.5930193E+02  0.7816164E-02  0.1266605E+00
        -11   -1    0    0    0    0  0.00000000000E+00  0.00000000000E+00  0.45593999997E+02  0.45594000000E+02  0.51100000000E-03 0.  1.
         11   -1    0    0    0    0 -0.00000000000E+00 -0.00000000000E+00 -0.45593999997E+02  0.45594000000E+02  0.51100000000E-03 0. -1.
    9900012    2    1    2    0    0  0.33814787057E+01  0.28554926111E+02  0.13780536263E+02  0.59301931206E+02  0.49999976617E+02 0.  0.
        -12    1    1    2    0    0 -0.33814787057E+01 -0.28554926111E+02 -0.13780536263E+02  0.31886068794E+02  0.00000000000E+00 0.  1.
         11    1    3    3    0    0  0.20195133831E+01  0.81277286589E+01  0.44060114593E+01  0.94631572267E+01  0.51100000000E-03 0. -1.
        -11    1    3    3    0    0  0.19713965906E+02  0.56243561421E+01  0.15237014516E+02  0.25542913800E+02  0.51100000000E-03 0.  1.
        -12    1    3    3    0    0 -0.18352000584E+02  0.14802841309E+02 -0.58624897118E+01  0.24295860180E+02  0.00000000000E+00 0.  1.
</event>
<event>
 7    1  0.1324280E-011  0.5930193E+02  0.7816164E-02  0.1266605E+00
        -11   -1    0    0    0    0  0.00000000000E+00  0.00000000000E+00  0.45593999997E+02  0.45594000000E+02  0.51100000000E-03 0.  1.
         11   -1    0    0    0    0 -0.00000000000E+00 -0.00000000000E+00 -0.45593999997E+02  0.45594000000E+02  0.51100000000E-03 0. -1.
    9900012    2    1    2    0    0 -0.28064885264E+02 -0.15120217960E+02 -0.68021329161E+00  0.59301929904E+02  0.49999974242E+02 0.  0.
        -12    1    1    2    0    0  0.28064885264E+02  0.15120217960E+02  0.68021329161E+00  0.31886070096E+02  0.00000000000E+00 0.  1.
         11    1    3    3    0    0 -0.21850586619E+02  0.58803531855E+01  0.50210024633E+01  0.23178376888E+02  0.51100000000E-03 0. -1.
        -11    1    3    3    0    0 -0.88055409267E+01 -0.49824760750E+01  0.95077504241E+01  0.13883801253E+02  0.51100000000E-03 0.  1.
        -12    1    3    3    0    0  0.25912422815E+01 -0.16018095070E+02 -0.15208966179E+02  0.22239751763E+02  0.00000000000E+00 0.  1.
</event>
<event>
 7    1  0.1324280E-011  0.5930196E+02  0.7816164E-02  0.1266605E+00
        -11   -1    0    0    0    0  0.00000000000E+00  0.00000000000E+00  0.45593999997E+02  0.45594000000E+02  0.51100000000E-03 0. -1.
         11   -1    0    0    0    0 -0.00000000000E+00 -0.00000000000E+00 -0.45593999997E+02  0.45594000000E+02  0.51100000000E-03 0.  1.
    9900012    2    1    2    0    0 -0.27191385105E+02  0.96329081750E+01  0.13585116893E+02  0.59301956896E+02  0.50000023468E+02 0.  0.
        -12    1    1    2    0    0  0.27191385105E+02 -0.96329081750E+01 -0.13585116893E+02  0.31886043104E+02  0.00000000000E+00 0.  1.
         11    1    3    3    0    0 -0.25624924640E+02  0.20024111000E+02  0.72871006628E+01  0.33327220414E+02  0.51100000000E-03 0.  1.
        -11    1    3    3    0    0 -0.94245990536E+00 -0.33953702222E+01  0.14646679016E+02  0.15064593459E+02  0.51100000000E-03 0. -1.
        -12    1    3    3    0    0 -0.62400055898E+00 -0.69958326025E+01 -0.83486627852E+01  0.10910143024E+02  0.00000000000E+00 0.  1.
</event>
<event>
 7    1  0.1324280E-011  0.5930197E+02  0.7816164E-02  0.1266605E+00
        -11   -1    0    0    0    0  0.00000000000E+00  0.00000000000E+00  0.45593999997E+02  0.45594000000E+02  0.51100000000E-03 0. -1.
         11   -1    0    0    0    0 -0.00000000000E+00 -0.00000000000E+00 -0.45593999997E+02  0.45594000000E+02  0.51100000000E-03 0.  1.
    9900012    2    1    2    0    0  0.91591531706E+01 -0.35502788140E+01  0.30335200537E+02  0.59301969233E+02  0.50000045968E+02 0.  0.
        -12    1    1    2    0    0 -0.91591531706E+01  0.35502788140E+01 -0.30335200537E+02  0.31886030767E+02  0.00000000000E+00 0.  1.
         11    1    3    3    0    0 -0.60853985551E+01 -0.19339107138E+02  0.26019118658E+02  0.32985264535E+02  0.51100000000E-03 0. -1.
        -11    1    3    3    0    0  0.12721690611E+01  0.28638603441E+01  0.64428641681E+01  0.71645383062E+01  0.51100000000E-03 0.  1.
        -12    1    3    3    0    0  0.13972382665E+02  0.12924967980E+02 -0.21267822888E+01  0.19152166392E+02  0.00000000000E+00 0.  1.
</event>
<event>
 7    1  0.1324280E-011  0.5930194E+02  0.7816164E-02  0.1266605E+00
        -11   -1    0    0    0    0  0.00000000000E+00  0.00000000000E+00  0.45593999997E+02  0.45594000000E+02  0.51100000000E-03 0.  1.
         11   -1    0    0    0    0 -0.00000000000E+00 -0.00000000000E+00 -0.45593999997E+02  0.45594000000E+02  0.51100000000E-03 0. -1.
    9900012    2    1    2    0    0 -0.56464340647E+01 -0.24231496728E+02  0.19941739061E+02  0.59301943359E+02  0.49999998781E+02 0.  0.
        -12    1    1    2    0    0  0.56464340647E+01  0.24231496728E+02 -0.19941739061E+02  0.31886056641E+02  0.00000000000E+00 0.  1.
         11    1    3    3    0    0 -0.16138521793E+02  0.59195405271E+01  0.46955028838E+01  0.17819668720E+02  0.51100000000E-03 0. -1.
        -11    1    3    3    0    0 -0.35074838184E+01 -0.17768469723E+02  0.13736675185E+02  0.22731414484E+02  0.51100000000E-03 0.  1.
         12    1    3    3    0    0  0.13999571547E+02 -0.12382567531E+02  0.15095609925E+01  0.18750860155E+02  0.00000000000E+00 0. -1.
</event>
<event>
 7    1  0.1324280E-011  0.5930192E+02  0.7816164E-02  0.1266605E+00
        -11   -1    0    0    0    0  0.00000000000E+00  0.00000000000E+00  0.45593999997E+02  0.45594000000E+02  0.51100000000E-03 0. -1.
         11   -1    0    0    0    0 -0.00000000000E+00 -0.00000000000E+00 -0.45593999997E+02  0.45594000000E+02  0.51100000000E-03 0.  1.
    9900012    2    1    2    0    0  0.17496076660E+02  0.18549900998E+02  0.19144458654E+02  0.59301924314E+02  0.49999964046E+02 0.  0.
        -12    1    1    2    0    0 -0.17496076660E+02 -0.18549900998E+02 -0.19144458654E+02  0.31886075686E+02  0.00000000000E+00 0.  1.
         11    1    3    3    0    0  0.11485687951E+02  0.14110697965E+02  0.16959012782E+02  0.24872493634E+02  0.51100000000E-03 0. -1.
        -11    1    3    3    0    0  0.23395022309E+01 -0.14592258923E+02 -0.88681215967E+00  0.14805192577E+02  0.51100000000E-03 0.  1.
         12    1    3    3    0    0  0.36708864779E+01  0.19031461956E+02  0.30722580326E+01  0.19624238103E+02  0.00000000000E+00 0. -1.
</event>
<event>
 7    1  0.1324280E-011  0.5930192E+02  0.7816164E-02  0.1266605E+00
        -11   -1    0    0    0    0  0.00000000000E+00  0.00000000000E+00  0.45593999997E+02  0.45594000000E+02  0.51100000000E-03 0.  1.
         11   -1    0    0    0    0 -0.00000000000E+00 -0.00000000000E+00 -0.45593999997E+02  0.45594000000E+02  0.51100000000E-03 0. -1.
    9900012    2    1    2    0    0  0.88114366505E+01  0.26696195722E+02 -0.15046388663E+02  0.59301920064E+02  0.49999956296E+02 0.  0.
        -12    1    1    2    0    0 -0.88114366505E+01 -0.26696195722E+02  0.15046388663E+02  0.31886079936E+02  0.00000000000E+00 0.  1.
         11    1    3    3    0    0 -0.10616417078E+02  0.22875319462E+01 -0.36551246825E+01  0.11458667055E+02  0.51100000000E-03 0. -1.
        -11    1    3    3    0    0  0.17542728582E+02  0.10135435853E+02 -0.22039001256E+02  0.29936465434E+02  0.51100000000E-03 0.  1.
         12    1    3    3    0    0  0.18851251462E+01  0.14273227923E+02  0.10647737276E+02  0.17906787575E+02  0.00000000000E+00 0. -1.
</event>
<event>
 7    1  0.1324280E-011  0.5930194E+02  0.7816164E-02  0.1266605E+00
        -11   -1    0    0    0    0  0.00000000000E+00  0.00000000000E+00  0.45593999997E+02  0.45594000000E+02  0.51100000000E-03 0.  1.
         11   -1    0    0    0    0 -0.00000000000E+00 -0.00000000000E+00 -0.45593999997E+02  0.45594000000E+02  0.51100000000E-03 0. -1.
    9900012    2    1    2    0    0  0.54127918160E+01 -0.26190810019E+02 -0.17362716202E+02  0.59301941000E+02  0.49999994478E+02 0.  0.
        -12    1    1    2    0    0 -0.54127918160E+01  0.26190810019E+02  0.17362716202E+02  0.31886059000E+02  0.00000000000E+00 0.  1.
         11    1    3    3    0    0 -0.23467488329E+01 -0.60513459218E+01  0.55411656233E+01  0.85340807517E+01  0.51100000000E-03 0. -1.
        -11    1    3    3    0    0 -0.12337957596E+02 -0.11429563794E+02 -0.23449680779E+02  0.28857367431E+02  0.51100000000E-03 0.  1.
         12    1    3    3    0    0  0.20097498244E+02 -0.87099003031E+01  0.54579895451E+00  0.21910492817E+02  0.00000000000E+00 0. -1.
</event>
<event>
 7    1  0.1324280E-011  0.5930197E+02  0.7816164E-02  0.1266605E+00
        -11   -1    0    0    0    0  0.00000000000E+00  0.00000000000E+00  0.45593999997E+02  0.45594000000E+02  0.51100000000E-03 0. -1.
         11   -1    0    0    0    0 -0.00000000000E+00 -0.00000000000E+00 -0.45593999997E+02  0.45594000000E+02  0.51100000000E-03 0.  1.
    9900012    2    1    2    0    0  0.22246717163E+02  0.13195493496E+02  0.18646224346E+02  0.59301966137E+02  0.50000040322E+02 0.  0.
        -12    1    1    2    0    0 -0.22246717163E+02 -0.13195493496E+02 -0.18646224346E+02  0.31886033863E+02  0.00000000000E+00 0.  1.
         11    1    3    3    0    0  0.20073890517E+02  0.23136359892E+01 -0.52379428963E+01  0.20874626656E+02  0.51100000000E-03 0. -1.
        -11    1    3    3    0    0  0.12883567493E+02  0.74167820074E+01  0.37052028705E+01  0.15320688473E+02  0.51100000000E-03 0.  1.
         12    1    3    3    0    0 -0.10710740847E+02  0.34650754993E+01  0.20178964372E+02  0.23106651008E+02  0.00000000000E+00 0. -1.
</event>
<event>
 7    1  0.1324280E-011  0.5930195E+02  0.7816164E-02  0.1266605E+00
        -11   -1    0    0    0    0  0.00000000000E+00  0.00000000000E+00  0.45593999997E+02  0.45594000000E+02  0.51100000000E-03 0. -1.
         11   -1    0    0    0    0 -0.00000000000E+00 -0.00000000000E+00 -0.45593999997E+02  0.45594000000E+02  0.51100000000E-03 0.  1.
    9900012    2    1    2    0    0  0.16048435353E+02 -0.13648732165E+02  0.23934906220E+02  0.59301954419E+02  0.50000018951E+02 0.  0.
        -12    1    1    2    0    0 -0.16048435353E+02  0.13648732165E+02 -0.23934906220E+02  0.31886045581E+02  0.00000000000E+00 0.  1.
         11    1    3    3    0    0  0.25589894606E+01 -0.21700730251E+01  0.98974517006E+00  0.34981766331E+01  0.51100000000E-03 0. -1.
        -11    1    3    3    0    0 -0.13756991986E+02 -0.71103258162E+00 -0.56275896530E+01  0.14880529607E+02  0.51100000000E-03 0.  1.
         12    1    3    3    0    0  0.27246437879E+02 -0.10767626558E+02  0.28572750703E+02  0.40923248179E+02  0.00000000000E+00 0. -1.
</event>
<event>
 7    1  0.1324280E-011  0.5930186E+02  0.7816164E-02  0.1266605E+00
        -11   -1    0    0    0    0  0.00000000000E+00  0.00000000000E+00  0.45593999997E+02  0.45594000000E+02  0.51100000000E-03 0. -1.
         11   -1    0    0    0    0 -0.00000000000E+00 -0.00000000000E+00 -0.45593999997E+02  0.45594000000E+02  0.51100000000E-03 0.  1.
    9900012    2    1    2    0    0  0.18371242789E+02 -0.24444487544E+02 -0.90382687275E+01  0.59301861405E+02  0.49999849316E+02 0.  0.
        -12    1    1    2    0    0 -0.18371242789E+02  0.24444487544E+02  0.90382687275E+01  0.31886138595E+02  0.00000000000E+00 0.  1.
         11    1    3    3    0    0 -0.12616508979E+01 -0.21414807397E+01 -0.85085154909E+01  0.88641152331E+01  0.51100000000E-03 0. -1.
        -11    1    3    3    0    0  0.13866485325E+02 -0.67172400440E+01 -0.19737153385E+02  0.25039088503E+02  0.51100000000E-03 0.  1.
         12    1    3    3    0    0  0.57664083616E+01 -0.15585766760E+02  0.19207400148E+02  0.25398657669E+02  0.00000000000E+00 0. -1.
</event>
<event>
 7    1  0.1324280E-011  0.5930196E+02  0.7816164E-02  0.1266605E+00
        -11   -1    0    0    0    0  0.00000000000E+00  0.00000000000E+00  0.45593999997E+02  0.45594000000E+02  0.51100000000E-03 0.  1.
         11   -1    0    0    0    0 -0.00000000000E+00 -0.00000000000E+00 -0.45593999997E+02  0.45594000000E+02  0.51100000000E-03 0. -1.
    9900012    2    1    2    0    0  0.20773194748E+02 -0.24188602543E+02 -0.32475438034E+00  0.59301959505E+02  0.50000028227E+02 0.  0.
        -12    1    1    2    0    0 -0.20773194748E+02  0.24188602543E+02  0.32475438034E+00  0.31886040495E+02  0.00000000000E+00 0.  1.
         11    1    3    3    0    0  0.72904374211E+01 -0.85114821045E+01 -0.18902922206E+01  0.11365254522E+02  0.51100000000E-03 0. -1.
        -11    1    3    3    0    0  0.14761438546E+01 -0.29534964789E+02  0.12513249452E+01  0.29598293197E+02  0.51100000000E-03 0.  1.
        -12    1    3    3    0    0  0.12006613472E+02  0.13857844350E+02  0.31421289503E+00  0.18338411786E+02  0.00000000000E+00 0.  1.
</event>
<event>
 7    1  0.1324280E-011  0.5930201E+02  0.7816164E-02  0.1266605E+00
        -11   -1    0    0    0    0  0.00000000000E+00  0.00000000000E+00  0.45593999997E+02  0.45594000000E+02  0.51100000000E-03 0. -1.
         11   -1    0    0    0    0 -0.00000000000E+00 -0.00000000000E+00 -0.45593999997E+02  0.45594000000E+02  0.51100000000E-03 0.  1.
    9900012    2    1    2    0    0 -0.28360254526E+02 -0.12502554315E+02  0.74899044495E+01  0.59302006682E+02  0.50000114267E+02 0.  0.
        -12    1    1    2    0    0  0.28360254526E+02  0.12502554315E+02 -0.74899044495E+01  0.31885993318E+02  0.00000000000E+00 0.  1.
         11    1    3    3    0    0 -0.10549387653E+02 -0.12262690006E+02  0.57320706053E+01  0.17161578590E+02  0.51100000000E-03 0. -1.
        -11    1    3    3    0    0 -0.32419172356E+00 -0.74798561054E+01 -0.15062110976E+02  0.16820241822E+02  0.51100000000E-03 0.  1.
        -12    1    3    3    0    0 -0.17486675150E+02  0.72399917963E+01  0.16819944820E+02  0.25320186270E+02  0.00000000000E+00 0.  1.
</event>
<event>
 7    1  0.1324280E-011  0.5930228E+02  0.7816164E-02  0.1266604E+00
        -11   -1    0    0    0    0  0.00000000000E+00  0.00000000000E+00  0.45593999997E+02  0.45594000000E+02  0.51100000000E-03 0.  1.
         11   -1    0    0    0    0 -0.00000000000E+00 -0.00000000000E+00 -0.45593999997E+02  0.45594000000E+02  0.51100000000E-03 0. -1.
    9900012    2    1    2    0    0 -0.29089038567E+01 -0.13231420695E+02 -0.28864626463E+02  0.59302284137E+02  0.50000620274E+02 0.  0.
        -12    1    1    2    0    0  0.29089038567E+01  0.13231420695E+02  0.28864626463E+02  0.31885715863E+02  0.00000000000E+00 0.  1.
         11    1    3    3    0    0 -0.10483529834E+02 -0.77644894740E+01 -0.91718195152E+01  0.15947224462E+02  0.51100000000E-03 0. -1.
        -11    1    3    3    0    0 -0.32158372705E+00 -0.81971781962E+01  0.97544785259E+01  0.12745469707E+02  0.51100000000E-03 0.  1.
        -12    1    3    3    0    0  0.78962097043E+01  0.27302469747E+01 -0.29447285474E+02  0.30609589968E+02  0.00000000000E+00 0.  1.
</event>
<event>
 7    1  0.1324280E-011  0.5930194E+02  0.7816164E-02  0.1266605E+00
        -11   -1    0    0    0    0  0.00000000000E+00  0.00000000000E+00  0.45593999997E+02  0.45594000000E+02  0.51100000000E-03 0.  1.
         11   -1    0    0    0    0 -0.00000000000E+00 -0.00000000000E+00 -0.45593999997E+02  0.45594000000E+02  0.51100000000E-03 0. -1.
    9900012    2    1    2    0    0 -0.61287868179E+01 -0.63187480279E+01 -0.30646900042E+02  0.59301935854E+02  0.49999985094E+02 0.  0.
        -12    1    1    2    0    0  0.61287868179E+01  0.63187480279E+01  0.30646900042E+02  0.31886064146E+02  0.00000000000E+00 0.  1.
         11    1    3    3    0    0  0.82540717457E+01  0.58493129778E+00 -0.27261480272E+02  0.28489649908E+02  0.51100000000E-03 0. -1.
        -11    1    3    3    0    0  0.70655016238E+01  0.72151894022E+00  0.20825828299E+01  0.74012873395E+01  0.51100000000E-03 0.  1.
         12    1    3    3    0    0 -0.21448360187E+02 -0.76251982659E+01 -0.54680025998E+01  0.23410998607E+02  0.00000000000E+00 0. -1.
</event>
<event>
 7    1  0.1324280E-011  0.5930193E+02  0.7816164E-02  0.1266605E+00
        -11   -1    0    0    0    0  0.00000000000E+00  0.00000000000E+00  0.45593999997E+02  0.45594000000E+02  0.51100000000E-03 0.  1.
         11   -1    0    0    0    0 -0.00000000000E+00 -0.00000000000E+00 -0.45593999997E+02  0.45594000000E+02  0.51100000000E-03 0. -1.
    9900012    2    1    2    0    0 -0.14800388232E+01 -0.30945604247E+02 -0.75432440872E+01  0.59301929867E+02  0.49999974175E+02 0.  0.
        -12    1    1    2    0    0  0.14800388232E+01  0.30945604247E+02  0.75432440872E+01  0.31886070133E+02  0.00000000000E+00 0.  1.
         11    1    3    3    0    0  0.66868058218E+01 -0.79474306367E+01 -0.25805824109E+01  0.10702076045E+02  0.51100000000E-03 0. -1.
        -11    1    3    3    0    0 -0.24858222303E+01 -0.28419532088E+02  0.11186320991E+02  0.30642827771E+02  0.51100000000E-03 0.  1.
         12    1    3    3    0    0 -0.56810224148E+01  0.54213584774E+01 -0.16148982667E+02  0.17957026051E+02  0.00000000000E+00 0. -1.
</event>
<event>
 7    1  0.1324280E-011  0.5930195E+02  0.7816164E-02  0.1266605E+00
        -11   -1    0    0    0    0  0.00000000000E+00  0.00000000000E+00  0.45593999997E+02  0.45594000000E+02  0.51100000000E-03 0. -1.
         11   -1    0    0    0    0 -0.00000000000E+00 -0.00000000000E+00 -0.45593999997E+02  0.45594000000E+02  0.51100000000E-03 0.  1.
    9900012    2    1    2    0    0 -0.48654451231E+01 -0.19103396404E+02  0.25062084719E+02  0.59301946609E+02  0.50000004707E+02 0.  0.
        -12    1    1    2    0    0  0.48654451231E+01  0.19103396404E+02 -0.25062084719E+02  0.31886053391E+02  0.00000000000E+00 0.  1.
         11    1    3    3    0    0 -0.68956413882E+01 -0.14970930234E+02  0.15009234710E+00  0.16483359797E+02  0.51100000000E-03 0. -1.
        -11    1    3    3    0    0  0.15619026679E+02  0.67858378321E+01  0.92246175728E+01  0.19367373573E+02  0.51100000000E-03 0.  1.
         12    1    3    3    0    0 -0.13588830414E+02 -0.10918304002E+02  0.15687374799E+02  0.23451213239E+02  0.00000000000E+00 0. -1.
</event>
<event>
 7    1  0.1324280E-011  0.5930192E+02  0.7816164E-02  0.1266605E+00
        -11   -1    0    0    0    0  0.00000000000E+00  0.00000000000E+00  0.45593999997E+02  0.45594000000E+02  0.51100000000E-03 0.  1.
         11   -1    0    0    0    0 -0.00000000000E+00 -0.00000000000E+00 -0.45593999997E+02  0.45594000000E+02  0.51100000000E-03 0. -1.
    9900012    2    1    2    0    0 -0.19081435775E+02 -0.20961635358E+02 -0.14602414117E+02  0.59301923945E+02  0.49999963374E+02 0.  0.
        -12    1    1    2    0    0  0.19081435775E+02  0.20961635358E+02  0.14602414117E+02  0.31886076055E+02  0.00000000000E+00 0.  1.
         11    1    3    3    0    0  0.76514865019E+01 -0.45242478452E+01  0.79529257994E+01  0.11927409328E+02  0.51100000000E-03 0.  1.
        -11    1    3    3    0    0 -0.28147876984E+02 -0.49497598184E+01 -0.99524159538E+01  0.30263074605E+02  0.51100000000E-03 0. -1.
         12    1    3    3    0    0  0.14149547074E+01 -0.11487627695E+02 -0.12602923962E+02  0.17111440012E+02  0.00000000000E+00 0. -1.
</event>
<event>
 7    1  0.1324280E-011  0.5930194E+02  0.7816164E-02  0.1266605E+00
        -11   -1    0    0    0    0  0.00000000000E+00  0.00000000000E+00  0.45593999997E+02  0.45594000000E+02  0.51100000000E-03 0.  1.
         11   -1    0    0    0    0 -0.00000000000E+00 -0.00000000000E+00 -0.45593999997E+02  0.45594000000E+02  0.51100000000E-03 0. -1.
    9900012    2    1    2    0    0 -0.57256545842E+01 -0.16583335887E+02 -0.26625750148E+02  0.59301941596E+02  0.49999995566E+02 0.  0.
        -12    1    1    2    0    0  0.57256545842E+01  0.16583335887E+02  0.26625750148E+02  0.31886058404E+02  0.00000000000E+00 0.  1.
         11    1    3    3    0    0 -0.77052160432E+01 -0.17551344848E+02 -0.25679784959E+02  0.32044834467E+02  0.51100000000E-03 0. -1.
        -11    1    3    3    0    0  0.22093386463E+01 -0.12463418929E+02  0.34556794656E+01  0.13120964502E+02  0.51100000000E-03 0.  1.
        -12    1    3    3    0    0 -0.22977718729E+00  0.13431427889E+02 -0.44016446548E+01  0.14136142627E+02  0.00000000000E+00 0.  1.
</event>
<event>
 7    1  0.1324280E-011  0.5930193E+02  0.7816164E-02  0.1266605E+00
        -11   -1    0    0    0    0  0.00000000000E+00  0.00000000000E+00  0.45593999997E+02  0.45594000000E+02  0.51100000000E-03 0. -1.
         11   -1    0    0    0    0 -0.00000000000E+00 -0.00000000000E+00 -0.45593999997E+02  0.45594000000E+02  0.51100000000E-03 0.  1.
    9900012    2    1    2    0    0  0.21311663912E+02  0.16995864566E+02  0.16543134935E+02  0.59301925539E+02  0.49999966281E+02 0.  0.
        -12    1    1    2    0    0 -0.21311663912E+02 -0.16995864566E+02 -0.16543134935E+02  0.31886074461E+02  0.00000000000E+00 0.  1.
         11    1    3    3    0    0  0.16820035783E+02  0.16792713607E+02 -0.11659432353E+02  0.26473594337E+02  0.51100000000E-03 0. -1.
        -11    1    3    3    0    0 -0.10518905814E+01  0.68843845602E+01  0.68065198186E+01  0.97380663825E+01  0.51100000000E-03 0.  1.
        -12    1    3    3    0    0  0.55435187098E+01 -0.66812336015E+01  0.21396047470E+02  0.23090264820E+02  0.00000000000E+00 0.  1.
</event>
<event>
 7    1  0.1324280E-011  0.5930197E+02  0.7816164E-02  0.1266605E+00
        -11   -1    0    0    0    0  0.00000000000E+00  0.00000000000E+00  0.45593999997E+02  0.45594000000E+02  0.51100000000E-03 0. -1.
         11   -1    0    0    0    0 -0.00000000000E+00 -0.00000000000E+00 -0.45593999997E+02  0.45594000000E+02  0.51100000000E-03 0.  1.
    9900012    2    1    2    0    0 -0.17705773066E+02  0.17752760272E+02  0.19699333308E+02  0.59301974379E+02  0.50000055354E+02 0.  0.
        -12    1    1    2    0    0  0.17705773066E+02 -0.17752760272E+02 -0.19699333308E+02  0.31886025621E+02  0.00000000000E+00 0.  1.
         11    1    3    3    0    0 -0.30698512844E+01  0.20485774871E+02  0.47414586334E+01  0.21250232686E+02  0.51100000000E-03 0. -1.
        -11    1    3    3    0    0 -0.14334418552E+02  0.12596894679E+02  0.48587328233E+01  0.19691739275E+02  0.51100000000E-03 0.  1.
        -12    1    3    3    0    0 -0.30150322976E+00 -0.15329909278E+02  0.10099141851E+02  0.18360002418E+02  0.00000000000E+00 0.  1.
</event>
<event>
 7    1  0.1324280E-011  0.5930180E+02  0.7816164E-02  0.1266605E+00
        -11   -1    0    0    0    0  0.00000000000E+00  0.00000000000E+00  0.45593999997E+02  0.45594000000E+02  0.51100000000E-03 0.  1.
         11   -1    0    0    0    0 -0.00000000000E+00 -0.00000000000E+00 -0.45593999997E+02  0.45594000000E+02  0.51100000000E-03 0. -1.
    9900012    2    1    2    0    0 -0.12769422790E+02 -0.22935677539E+02 -0.18100444198E+02  0.59301803258E+02  0.49999743268E+02 0.  0.
        -12    1    1    2    0    0  0.12769422790E+02  0.22935677539E+02  0.18100444198E+02  0.31886196742E+02  0.00000000000E+00 0.  1.
         11    1    3    3    0    0 -0.51297955372E+01  0.61925041998E+01  0.69795671171E+00  0.80714964133E+01  0.51100000000E-03 0.  1.
        -11    1    3    3    0    0 -0.22021083389E+02 -0.13163960535E+02 -0.64743595080E+01  0.26460069953E+02  0.51100000000E-03 0. -1.
         12    1    3    3    0    0  0.14381456136E+02 -0.15964221203E+02 -0.12324041401E+02  0.24770236892E+02  0.00000000000E+00 0. -1.
</event>
<event>
 7    1  0.1324280E-011  0.5930192E+02  0.7816164E-02  0.1266605E+00
        -11   -1    0    0    0    0  0.00000000000E+00  0.00000000000E+00  0.45593999997E+02  0.45594000000E+02  0.51100000000E-03 0.  1.
         11   -1    0    0    0    0 -0.00000000000E+00 -0.00000000000E+00 -0.45593999997E+02  0.45594000000E+02  0.51100000000E-03 0. -1.
    9900012    2    1    2    0    0  0.84260675114E+01  0.21658359240E+02 -0.21832061348E+02  0.59301920884E+02  0.49999957792E+02 0.  0.
        -12    1    1    2    0    0 -0.84260675114E+01 -0.21658359240E+02  0.21832061348E+02  0.31886079116E+02  0.00000000000E+00 0.  1.
         11    1    3    3    0    0 -0.26120598281E+01  0.42984893555E+01  0.60964055751E+01  0.79035453110E+01  0.51100000000E-03 0. -1.
        -11    1    3    3    0    0 -0.11515578579E+02 -0.38852855818E+01 -0.83903192085E+01  0.14768258217E+02  0.51100000000E-03 0.  1.
         12    1    3    3    0    0  0.22553705919E+02  0.21245155466E+02 -0.19538147715E+02  0.36630117357E+02  0.00000000000E+00 0. -1.
</event>
<event>
 7    1  0.1324280E-011  0.5930194E+02  0.7816164E-02  0.1266605E+00
        -11   -1    0    0    0    0  0.00000000000E+00  0.00000000000E+00  0.45593999997E+02  0.45594000000E+02  0.51100000000E-03 0.  1.
         11   -1    0    0    0    0 -0.00000000000E+00 -0.00000000000E+00 -0.45593999997E+02  0.45594000000E+02  0.51100000000E-03 0. -1.
    9900012    2    1    2    0    0 -0.22442912254E+02  0.22614700264E+02  0.12695051582E+01  0.59301943144E+02  0.49999998388E+02 0.  0.
        -12    1    1    2    0    0  0.22442912254E+02 -0.22614700264E+02 -0.12695051582E+01  0.31886056856E+02  0.00000000000E+00 0.  1.
         11    1    3    3    0    0 -0.17277559619E+02  0.21057531110E+02 -0.73770312965E+01  0.28219749713E+02  0.51100000000E-03 0. -1.
        -11    1    3    3    0    0 -0.47302263481E+00  0.10032036233E+02  0.16020167158E+02  0.18907968093E+02  0.51100000000E-03 0.  1.
         12    1    3    3    0    0 -0.46923300000E+01 -0.84748670790E+01 -0.73736307030E+01  0.12174225338E+02  0.00000000000E+00 0. -1.
</event>
<event>
 7    1  0.1324280E-011  0.5930191E+02  0.7816164E-02  0.1266605E+00
        -11   -1    0    0    0    0  0.00000000000E+00  0.00000000000E+00  0.45593999997E+02  0.45594000000E+02  0.51100000000E-03 0.  1.
         11   -1    0    0    0    0 -0.00000000000E+00 -0.00000000000E+00 -0.45593999997E+02  0.45594000000E+02  0.51100000000E-03 0. -1.
    9900012    2    1    2    0    0 -0.26062189940E+02  0.18370767529E+02  0.10593527704E-01  0.59301906537E+02  0.49999931626E+02 0.  0.
        -12    1    1    2    0    0  0.26062189940E+02 -0.18370767529E+02 -0.10593527704E-01  0.31886093463E+02  0.00000000000E+00 0.  1.
         11    1    3    3    0    0 -0.92215515559E+01  0.31185991848E+02 -0.75666736564E+01  0.33389484140E+02  0.51100000000E-03 0. -1.
        -11    1    3    3    0    0 -0.26160031805E+01 -0.24024333677E+01 -0.35854450493E+01  0.50468381378E+01  0.51100000000E-03 0.  1.
        -12    1    3    3    0    0 -0.14224635204E+02 -0.10412790951E+02  0.11162712233E+02  0.20865584259E+02  0.00000000000E+00 0.  1.
</event>
<event>
 7    1  0.1324280E-011  0.5930191E+02  0.7816164E-02  0.1266605E+00
        -11   -1    0    0    0    0  0.00000000000E+00  0.00000000000E+00  0.45593999997E+02  0.45594000000E+02  0.51100000000E-03 0. -1.
         11   -1    0    0    0    0 -0.00000000000E+00 -0.00000000000E+00 -0.45593999997E+02  0.45594000000E+02  0.51100000000E-03 0.  1.
    9900012    2    1    2    0    0  0.20947455969E+02 -0.74956090952E+01  0.22841681760E+02  0.59301913804E+02  0.49999944879E+02 0.  0.
        -12    1    1    2    0    0 -0.20947455969E+02  0.74956090952E+01 -0.22841681760E+02  0.31886086196E+02  0.00000000000E+00 0.  1.
         11    1    3    3    0    0 -0.72748767566E+01  0.64938641933E+01  0.12534906880E+02  0.15881372571E+02  0.51100000000E-03 0. -1.
        -11    1    3    3    0    0  0.13143036053E+02  0.71702976054E+01 -0.11664398860E+01  0.15017095149E+02  0.51100000000E-03 0.  1.
         12    1    3    3    0    0  0.15079296672E+02 -0.21159770894E+02  0.11473214766E+02  0.28403446085E+02  0.00000000000E+00 0. -1.
</event>
<event>
 7    1  0.1324280E-011  0.5930180E+02  0.7816164E-02  0.1266605E+00
        -11   -1    0    0    0    0  0.00000000000E+00  0.00000000000E+00  0.45593999997E+02  0.45594000000E+02  0.51100000000E-03 0.  1.
         11   -1    0    0    0    0 -0.00000000000E+00 -0.00000000000E+00 -0.45593999997E+02  0.45594000000E+02  0.51100000000E-03 0. -1.
    9900012    2    1    2    0    0  0.22190724355E+02  0.79565436997E+00 -0.22883800157E+02  0.59301802000E+02  0.49999740974E+02 0.  0.
        -12    1    1    2    0    0 -0.22190724355E+02 -0.79565436997E+00  0.22883800157E+02  0.31886198000E+02  0.00000000000E+00 0.  1.
         11    1    3    3    0    0  0.19806685509E+02 -0.16319518566E+02 -0.86865892163E+01  0.27094064102E+02  0.51100000000E-03 0. -1.
        -11    1    3    3    0    0  0.47993547824E+01 -0.45066305611E+01 -0.73802528886E+00  0.66248175016E+01  0.51100000000E-03 0.  1.
        -12    1    3    3    0    0 -0.24153159364E+01  0.21621803497E+02 -0.13459185652E+02  0.25582920396E+02  0.00000000000E+00 0.  1.
</event>
<event>
 7    1  0.1324280E-011  0.5930190E+02  0.7816164E-02  0.1266605E+00
        -11   -1    0    0    0    0  0.00000000000E+00  0.00000000000E+00  0.45593999997E+02  0.45594000000E+02  0.51100000000E-03 0. -1.
         11   -1    0    0    0    0 -0.00000000000E+00 -0.00000000000E+00 -0.45593999997E+02  0.45594000000E+02  0.51100000000E-03 0.  1.
    9900012    2    1    2    0    0 -0.24404738433E+02 -0.80414125581E-01  0.20521348138E+02  0.59301898736E+02  0.49999917398E+02 0.  0.
        -12    1    1    2    0    0  0.24404738433E+02  0.80414125581E-01 -0.20521348138E+02  0.31886101264E+02  0.00000000000E+00 0.  1.
         11    1    3    3    0    0 -0.73312587277E+01  0.89879511591E+01 -0.26459816832E+01  0.11896715509E+02  0.51100000000E-03 0. -1.
        -11    1    3    3    0    0  0.71898012635E+01  0.86988876562E+01  0.63161461572E+01  0.12932810646E+02  0.51100000000E-03 0.  1.
         12    1    3    3    0    0 -0.24263280969E+02 -0.17767252941E+02  0.16851183664E+02  0.34472372581E+02  0.00000000000E+00 0. -1.
</event>
<event>
 7    1  0.1324280E-011  0.5930197E+02  0.7816164E-02  0.1266605E+00
        -11   -1    0    0    0    0  0.00000000000E+00  0.00000000000E+00  0.45593999997E+02  0.45594000000E+02  0.51100000000E-03 0.  1.
         11   -1    0    0    0    0 -0.00000000000E+00 -0.00000000000E+00 -0.45593999997E+02  0.45594000000E+02  0.51100000000E-03 0. -1.
    9900012    2    1    2    0    0 -0.20026072303E+02 -0.24338196742E+02 -0.48298849877E+01  0.59301965730E+02  0.50000039579E+02 0.  0.
        -12    1    1    2    0    0  0.20026072303E+02  0.24338196742E+02  0.48298849877E+01  0.31886034270E+02  0.00000000000E+00 0.  1.
         11    1    3    3    0    0  0.75089788356E+01  0.23788238165E+01 -0.11128223078E+01  0.79549946356E+01  0.51100000000E-03 0. -1.
        -11    1    3    3    0    0  0.39320280414E+00  0.46485310880E+01  0.66175782794E+01  0.80966531522E+01  0.51100000000E-03 0.  1.
         12    1    3    3    0    0 -0.27928253942E+02 -0.31365551646E+02 -0.10334640959E+02  0.43250317942E+02  0.00000000000E+00 0. -1.
</event>
<event>
 7    1  0.1324280E-011  0.5930192E+02  0.7816164E-02  0.1266605E+00
        -11   -1    0    0    0    0  0.00000000000E+00  0.00000000000E+00  0.45593999997E+02  0.45594000000E+02  0.51100000000E-03 0.  1.
         11   -1    0    0    0    0 -0.00000000000E+00 -0.00000000000E+00 -0.45593999997E+02  0.45594000000E+02  0.51100000000E-03 0. -1.
    9900012    2    1    2    0    0 -0.16036919337E+02  0.17421435311E+02 -0.21354932814E+02  0.59301916114E+02  0.49999949092E+02 0.  0.
        -12    1    1    2    0    0  0.16036919337E+02 -0.17421435311E+02  0.21354932814E+02  0.31886083886E+02  0.00000000000E+00 0.  1.
         11    1    3    3    0    0 -0.17704128562E+02 -0.45563423889E+01 -0.65696758296E+01  0.19425680551E+02  0.51100000000E-03 0. -1.
        -11    1    3    3    0    0 -0.11463696901E+01  0.24162608901E+02  0.48633724464E+00  0.24194676203E+02  0.51100000000E-03 0.  1.
         12    1    3    3    0    0  0.28135789145E+01 -0.21848312017E+01 -0.15271594229E+02  0.15681559360E+02  0.00000000000E+00 0. -1.
</event>
<event>
 7    1  0.1324280E-011  0.5930194E+02  0.7816164E-02  0.1266605E+00
        -11   -1    0    0    0    0  0.00000000000E+00  0.00000000000E+00  0.45593999997E+02  0.45594000000E+02  0.51100000000E-03 0.  1.
         11   -1    0    0    0    0 -0.00000000000E+00 -0.00000000000E+00 -0.45593999997E+02  0.45594000000E+02  0.51100000000E-03 0. -1.
    9900012    2    1    2    0    0  0.16665044236E+02  0.23026230288E+02 -0.14449556910E+02  0.59301942301E+02  0.49999996851E+02 0.  0.
        -12    1    1    2    0    0 -0.16665044236E+02 -0.23026230288E+02  0.14449556910E+02  0.31886057699E+02  0.00000000000E+00 0.  1.
         11    1    3    3    0    0 -0.15088115502E+02 -0.21546122397E+00 -0.35347853024E+00  0.15093793436E+02  0.51100000000E-03 0.  1.
        -11    1    3    3    0    0  0.30693608183E+01  0.86833187473E+01 -0.31974739837E+00  0.92153805651E+01  0.51100000000E-03 0. -1.
        -12    1    3    3    0    0  0.28683798919E+02  0.14558372765E+02 -0.13776330982E+02  0.34992768301E+02  0.00000000000E+00 0.  1.
</event>
<event>
 7    1  0.1324280E-011  0.5930195E+02  0.7816164E-02  0.1266605E+00
        -11   -1    0    0    0    0  0.00000000000E+00  0.00000000000E+00  0.45593999997E+02  0.45594000000E+02  0.51100000000E-03 0. -1.
         11   -1    0    0    0    0 -0.00000000000E+00 -0.00000000000E+00 -0.45593999997E+02  0.45594000000E+02  0.51100000000E-03 0.  1.
    9900012    2    1    2    0    0 -0.22932899377E+02  0.99385532413E+01  0.19799689395E+02  0.59301946395E+02  0.50000004317E+02 0.  0.
        -12    1    1    2    0    0  0.22932899377E+02 -0.99385532413E+01 -0.19799689395E+02  0.31886053605E+02  0.00000000000E+00 0.  1.
         11    1    3    3    0    0 -0.99446008460E+01  0.11497319814E+02  0.19147754778E+02  0.24448312052E+02  0.51100000000E-03 0.  1.
        -11    1    3    3    0    0  0.70458505144E+01  0.86571698135E+01  0.45061015287E+01  0.12037256743E+02  0.51100000000E-03 0. -1.
        -12    1    3    3    0    0 -0.20034149045E+02 -0.10215936386E+02 -0.38541669109E+01  0.22816377600E+02  0.00000000000E+00 0.  1.
</event>
<event>
 7    1  0.1324280E-011  0.5930198E+02  0.7816164E-02  0.1266605E+00
        -11   -1    0    0    0    0  0.00000000000E+00  0.00000000000E+00  0.45593999997E+02  0.45594000000E+02  0.51100000000E-03 0.  1.
         11   -1    0    0    0    0 -0.00000000000E+00 -0.00000000000E+00 -0.45593999997E+02  0.45594000000E+02  0.51100000000E-03 0. -1.
    9900012    2    1    2    0    0 -0.23582487745E+02 -0.25521428594E+01 -0.21308940201E+02  0.59301982784E+02  0.50000070682E+02 0.  0.
        -12    1    1    2    0    0  0.23582487745E+02  0.25521428594E+01  0.21308940201E+02  0.31886017216E+02  0.00000000000E+00 0.  1.
         11    1    3    3    0    0  0.23728916129E+00  0.64237345319E+01 -0.15575101220E+02  0.16849464376E+02  0.51100000000E-03 0. -1.
        -11    1    3    3    0    0  0.16360314422E+01 -0.69414109657E+01 -0.13915822555E+02  0.15636812422E+02  0.51100000000E-03 0.  1.
        -12    1    3    3    0    0 -0.25455808348E+02 -0.20344664255E+01  0.81819835744E+01  0.26815705986E+02  0.00000000000E+00 0.  1.
</event>
<event>
 7    1  0.1324280E-011  0.5930193E+02  0.7816164E-02  0.1266605E+00
        -11   -1    0    0    0    0  0.00000000000E+00  0.00000000000E+00  0.45593999997E+02  0.45594000000E+02  0.51100000000E-03 0.  1.
         11   -1    0    0    0    0 -0.00000000000E+00 -0.00000000000E+00 -0.45593999997E+02  0.45594000000E+02  0.51100000000E-03 0. -1.
    9900012    2    1    2    0    0 -0.16976856695E+01 -0.13415433420E+02 -0.28876733663E+02  0.59301925649E+02  0.49999966481E+02 0.  0.
        -12    1    1    2    0    0  0.16976856695E+01  0.13415433420E+02  0.28876733663E+02  0.31886074351E+02  0.00000000000E+00 0.  1.
         11    1    3    3    0    0 -0.16254461054E+01  0.52971923159E+00  0.52498829251E+01  0.55212270823E+01  0.51100000000E-03 0. -1.
        -11    1    3    3    0    0  0.10405730597E+02  0.45482574257E+01  0.23181249655E+01  0.11590495178E+02  0.51100000000E-03 0.  1.
         12    1    3    3    0    0 -0.10477970161E+02 -0.18493410077E+02 -0.36444741554E+02  0.42190203388E+02  0.00000000000E+00 0. -1.
</event>
<event>
 7    1  0.1324280E-011  0.5930198E+02  0.7816164E-02  0.1266605E+00
        -11   -1    0    0    0    0  0.00000000000E+00  0.00000000000E+00  0.45593999997E+02  0.45594000000E+02  0.51100000000E-03 0.  1.
         11   -1    0    0    0    0 -0.00000000000E+00 -0.00000000000E+00 -0.45593999997E+02  0.45594000000E+02  0.51100000000E-03 0. -1.
    9900012    2    1    2    0    0 -0.16988422173E+02  0.26871587930E+02  0.24555701423E+01  0.59301975623E+02  0.50000057623E+02 0.  0.
        -12    1    1    2    0    0  0.16988422173E+02 -0.26871587930E+02 -0.24555701423E+01  0.31886024377E+02  0.00000000000E+00 0.  1.
         11    1    3    3    0    0  0.72581512533E+01  0.14946113697E+02 -0.54850036890E+01  0.17497209491E+02  0.51100000000E-03 0. -1.
        -11    1    3    3    0    0 -0.30284174780E+00 -0.91004215402E+01  0.28099278889E+01  0.95291699709E+01  0.51100000000E-03 0.  1.
         12    1    3    3    0    0 -0.23943731679E+02  0.21025895774E+02  0.51306459424E+01  0.32275596161E+02  0.00000000000E+00 0. -1.
</event>
<event>
 7    1  0.1324280E-011  0.5930195E+02  0.7816164E-02  0.1266605E+00
        -11   -1    0    0    0    0  0.00000000000E+00  0.00000000000E+00  0.45593999997E+02  0.45594000000E+02  0.51100000000E-03 0.  1.
         11   -1    0    0    0    0 -0.00000000000E+00 -0.00000000000E+00 -0.45593999997E+02  0.45594000000E+02  0.51100000000E-03 0. -1.
    9900012    2    1    2    0    0  0.17520020020E+02  0.24746137931E+02 -0.98690411004E+01  0.59301946368E+02  0.50000004268E+02 0.  0.
        -12    1    1    2    0    0 -0.17520020020E+02 -0.24746137931E+02  0.98690411004E+01  0.31886053632E+02  0.00000000000E+00 0.  1.
         11    1    3    3    0    0  0.23572036784E+01  0.23471189592E+01 -0.15885807952E+02  0.16230350308E+02  0.51100000000E-03 0. -1.
        -11    1    3    3    0    0 -0.22404618353E+01  0.75644336616E+01 -0.11722434081E+02  0.14129960613E+02  0.51100000000E-03 0.  1.
        -12    1    3    3    0    0  0.17403278177E+02  0.14834585310E+02  0.17739200933E+02  0.28941635447E+02  0.00000000000E+00 0.  1.
</event>
<event>
 7    1  0.1324280E-011  0.5930204E+02  0.7816164E-02  0.1266604E+00
        -11   -1    0    0    0    0  0.00000000000E+00  0.00000000000E+00  0.45593999997E+02  0.45594000000E+02  0.51100000000E-03 0.  1.
         11   -1    0    0    0    0 -0.00000000000E+00 -0.00000000000E+00 -0.45593999997E+02  0.45594000000E+02  0.51100000000E-03 0. -1.
    9900012    2    1    2    0    0 -0.23198682208E+02 -0.94199503517E+01 -0.19743353905E+02  0.59302041582E+02  0.50000177915E+02 0.  0.
        -12    1    1    2    0    0  0.23198682208E+02  0.94199503517E+01  0.19743353905E+02  0.31885958418E+02  0.00000000000E+00 0.  1.
         11    1    3    3    0    0 -0.81309063377E+01  0.10360115947E+02 -0.10953803031E+01  0.13215275199E+02  0.51100000000E-03 0. -1.
        -11    1    3    3    0    0 -0.17875998483E+01 -0.91752850637E+01  0.94223660253E+01  0.13272616584E+02  0.51100000000E-03 0.  1.
         12    1    3    3    0    0 -0.13280176022E+02 -0.10604781235E+02 -0.28070339627E+02  0.32814149799E+02  0.00000000000E+00 0. -1.
</event>
<event>
 7    1  0.1324280E-011  0.5930194E+02  0.7816164E-02  0.1266605E+00
        -11   -1    0    0    0    0  0.00000000000E+00  0.00000000000E+00  0.45593999997E+02  0.45594000000E+02  0.51100000000E-03 0.  1.
         11   -1    0    0    0    0 -0.00000000000E+00 -0.00000000000E+00 -0.45593999997E+02  0.45594000000E+02  0.51100000000E-03 0. -1.
    9900012    2    1    2    0    0  0.18526053182E+02  0.12034613860E+02 -0.22992913899E+02  0.59301942438E+02  0.49999997102E+02 0.  0.
        -12    1    1    2    0    0 -0.18526053182E+02 -0.12034613860E+02  0.22992913899E+02  0.31886057562E+02  0.00000000000E+00 0.  1.
         11    1    3    3    0    0  0.51112291956E+00 -0.39288747671E+01  0.37947645170E+01  0.54861226358E+01  0.51100000000E-03 0. -1.
        -11    1    3    3    0    0  0.21150088154E+02  0.81826954859E+01  0.29946134215E+01  0.22874668175E+02  0.51100000000E-03 0.  1.
        -12    1    3    3    0    0 -0.31351578919E+01  0.77807931407E+01 -0.29782291838E+02  0.30941151627E+02  0.00000000000E+00 0.  1.
</event>
<event>
 7    1  0.1324280E-011  0.5930193E+02  0.7816164E-02  0.1266605E+00
        -11   -1    0    0    0    0  0.00000000000E+00  0.00000000000E+00  0.45593999997E+02  0.45594000000E+02  0.51100000000E-03 0.  1.
         11   -1    0    0    0    0 -0.00000000000E+00 -0.00000000000E+00 -0.45593999997E+02  0.45594000000E+02  0.51100000000E-03 0. -1.
    9900012    2    1    2    0    0  0.11082548538E+02  0.29730815337E+02  0.31586726768E+01  0.59301929753E+02  0.49999973967E+02 0.  0.
        -12    1    1    2    0    0 -0.11082548538E+02 -0.29730815337E+02 -0.31586726768E+01  0.31886070247E+02  0.00000000000E+00 0.  1.
         11    1    3    3    0    0  0.16227878425E+02  0.23949542494E+01 -0.50812653215E+01  0.17172626519E+02  0.51100000000E-03 0. -1.
        -11    1    3    3    0    0  0.33719002687E+01  0.17242443752E+01 -0.92309481529E+01  0.99776316905E+01  0.51100000000E-03 0.  1.
        -12    1    3    3    0    0 -0.85172301561E+01  0.25611616712E+02  0.17470886151E+02  0.32151671544E+02  0.00000000000E+00 0.  1.
</event>
<event>
 7    1  0.1324280E-011  0.5930194E+02  0.7816164E-02  0.1266605E+00
        -11   -1    0    0    0    0  0.00000000000E+00  0.00000000000E+00  0.45593999997E+02  0.45594000000E+02  0.51100000000E-03 0. -1.
         11   -1    0    0    0    0 -0.00000000000E+00 -0.00000000000E+00 -0.45593999997E+02  0.45594000000E+02  0.51100000000E-03 0.  1.
    9900012    2    1    2    0    0 -0.19253413590E+01  0.30841746091E+02  0.78613214627E+01  0.59301943229E+02  0.49999998543E+02 0.  0.
        -12    1    1    2    0    0  0.19253413590E+01 -0.30841746091E+02 -0.78613214627E+01  0.31886056771E+02  0.00000000000E+00 0.  1.
         11    1    3    3    0    0  0.30710481754E+01  0.34210876392E+02  0.16509744457E+02  0.38110196309E+02  0.51100000000E-03 0. -1.
        -11    1    3    3    0    0  0.60670908255E+01  0.27773307537E+01 -0.25543444620E+01  0.71447766300E+01  0.51100000000E-03 0.  1.
         12    1    3    3    0    0 -0.11063480360E+02 -0.61464610550E+01 -0.60940785319E+01  0.14046970290E+02  0.00000000000E+00 0. -1.
</event>
<event>
 7    1  0.1324280E-011  0.5930195E+02  0.7816164E-02  0.1266605E+00
        -11   -1    0    0    0    0  0.00000000000E+00  0.00000000000E+00  0.45593999997E+02  0.45594000000E+02  0.51100000000E-03 0. -1.
         11   -1    0    0    0    0 -0.00000000000E+00 -0.00000000000E+00 -0.45593999997E+02  0.45594000000E+02  0.51100000000E-03 0.  1.
    9900012    2    1    2    0    0 -0.37016094723E+01 -0.37061352493E+01  0.31452865553E+02  0.59301951284E+02  0.50000013234E+02 0.  0.
        -12    1    1    2    0    0  0.37016094723E+01  0.37061352493E+01 -0.31452865553E+02  0.31886048716E+02  0.00000000000E+00 0.  1.
         11    1    3    3    0    0 -0.81236040338E+01  0.27924579241E+01  0.87812853882E+01  0.12284206815E+02  0.51100000000E-03 0. -1.
        -11    1    3    3    0    0 -0.36112822032E+01 -0.22564339080E+02  0.15819560992E+02  0.27792971548E+02  0.51100000000E-03 0.  1.
         12    1    3    3    0    0  0.80332767647E+01  0.16065745906E+02  0.68520191733E+01  0.19224772921E+02  0.00000000000E+00 0. -1.
</event>
<event>
 7    1  0.1535360E-011  0.5930186E+02  0.7816164E-02  0.1266605E+00
        -11   -1    0    0    0    0  0.00000000000E+00  0.00000000000E+00  0.45593999997E+02  0.45594000000E+02  0.51100000000E-03 0. -1.
         11   -1    0    0    0    0 -0.00000000000E+00 -0.00000000000E+00 -0.45593999997E+02  0.45594000000E+02  0.51100000000E-03 0.  1.
    9900012    2    1    2    0    0 -0.70934064909E+01  0.14426360749E+02  0.27537056643E+02  0.59301862124E+02  0.49999850627E+02 0.  0.
        -12    1    1    2    0    0  0.70934064909E+01 -0.14426360749E+02 -0.27537056643E+02  0.31886137876E+02  0.00000000000E+00 0.  1.
         11    1    3    3    0    0  0.59735480903E+01  0.97018064737E+01 -0.12083306877E+01  0.11457241769E+02  0.51100000000E-03 0. -1.
        -11    1    3    3    0    0 -0.21540751543E+01 -0.10586148921E+02 -0.27648229248E+01  0.11151270547E+02  0.51100000000E-03 0.  1.
         12    1    3    3    0    0 -0.10912879427E+02  0.15310703197E+02  0.31510210255E+02  0.36693349807E+02  0.00000000000E+00 0. -1.
</event>
<event>
 7    1  0.1324280E-011  0.5930196E+02  0.7816164E-02  0.1266605E+00
        -11   -1    0    0    0    0  0.00000000000E+00  0.00000000000E+00  0.45593999997E+02  0.45594000000E+02  0.51100000000E-03 0. -1.
         11   -1    0    0    0    0 -0.00000000000E+00 -0.00000000000E+00 -0.45593999997E+02  0.45594000000E+02  0.51100000000E-03 0.  1.
    9900012    2    1    2    0    0  0.22885785219E+00 -0.27704740992E+02  0.15783354613E+02  0.59301963367E+02  0.50000035270E+02 0.  0.
        -12    1    1    2    0    0 -0.22885785219E+00  0.27704740992E+02 -0.15783354613E+02  0.31886036633E+02  0.00000000000E+00 0.  1.
         11    1    3    3    0    0 -0.15442078778E+02 -0.27352618179E-02  0.11893553428E+02  0.19491393431E+02  0.51100000000E-03 0.  1.
        -11    1    3    3    0    0  0.14179971471E+01  0.35833554280E+01  0.38274639395E+01  0.54314484718E+01  0.51100000000E-03 0. -1.
        -12    1    3    3    0    0  0.14252939483E+02 -0.31285361158E+02  0.62337245221E-01  0.34379121464E+02  0.00000000000E+00 0.  1.
</event>
<event>
 7    1  0.1324280E-011  0.5930211E+02  0.7816164E-02  0.1266604E+00
        -11   -1    0    0    0    0  0.00000000000E+00  0.00000000000E+00  0.45593999997E+02  0.45594000000E+02  0.51100000000E-03 0.  1.
         11   -1    0    0    0    0 -0.00000000000E+00 -0.00000000000E+00 -0.45593999997E+02  0.45594000000E+02  0.51100000000E-03 0. -1.
    9900012    2    1    2    0    0 -0.20072646122E+02 -0.17174442872E+02 -0.17856025350E+02  0.59302105758E+02  0.50000294956E+02 0.  0.
        -12    1    1    2    0    0  0.20072646122E+02  0.17174442872E+02  0.17856025350E+02  0.31885894242E+02  0.00000000000E+00 0.  1.
         11    1    3    3    0    0 -0.20696509898E+02 -0.25948645868E+02  0.43501891961E+01  0.33475392315E+02  0.51100000000E-03 0.  1.
        -11    1    3    3    0    0 -0.42092413887E+01  0.63408471619E+01 -0.10922039476E+02  0.13312212527E+02  0.51100000000E-03 0. -1.
        -12    1    3    3    0    0  0.48331051648E+01  0.24333558340E+01 -0.11284175070E+02  0.12514500916E+02  0.00000000000E+00 0.  1.
</event>
<event>
 7    1  0.1324280E-011  0.5930197E+02  0.7816164E-02  0.1266605E+00
        -11   -1    0    0    0    0  0.00000000000E+00  0.00000000000E+00  0.45593999997E+02  0.45594000000E+02  0.51100000000E-03 0.  1.
         11   -1    0    0    0    0 -0.00000000000E+00 -0.00000000000E+00 -0.45593999997E+02  0.45594000000E+02  0.51100000000E-03 0. -1.
    9900012    2    1    2    0    0 -0.13928475627E+02  0.55663177984E+01 -0.28137748333E+02  0.59301965309E+02  0.50000038811E+02 0.  0.
        -12    1    1    2    0    0  0.13928475627E+02 -0.55663177984E+01  0.28137748333E+02  0.31886034691E+02  0.00000000000E+00 0.  1.
         11    1    3    3    0    0 -0.19882726825E+02  0.14989257205E+00 -0.11772615962E+02  0.23107137007E+02  0.51100000000E-03 0. -1.
        -11    1    3    3    0    0  0.20292989541E+01 -0.13139567930E+02 -0.74032235871E+01  0.15217556288E+02  0.51100000000E-03 0.  1.
        -12    1    3    3    0    0  0.39249522446E+01  0.18555993156E+02 -0.89619087832E+01  0.20977272014E+02  0.00000000000E+00 0.  1.
</event>
<event>
 7    1  0.1324280E-011  0.5930196E+02  0.7816164E-02  0.1266605E+00
        -11   -1    0    0    0    0  0.00000000000E+00  0.00000000000E+00  0.45593999997E+02  0.45594000000E+02  0.51100000000E-03 0.  1.
         11   -1    0    0    0    0 -0.00000000000E+00 -0.00000000000E+00 -0.45593999997E+02  0.45594000000E+02  0.51100000000E-03 0. -1.
    9900012    2    1    2    0    0 -0.22677676381E+02  0.86455014117E+01 -0.20680851190E+02  0.59301963768E+02  0.50000036001E+02 0.  0.
        -12    1    1    2    0    0  0.22677676381E+02 -0.86455014117E+01  0.20680851190E+02  0.31886036232E+02  0.00000000000E+00 0.  1.
         11    1    3    3    0    0 -0.11636778149E+02 -0.13217672371E+02 -0.92209635845E+01  0.19878320812E+02  0.51100000000E-03 0.  1.
        -11    1    3    3    0    0  0.84182304966E+01 -0.40331734602E-01 -0.23158321185E+01  0.87310543467E+01  0.51100000000E-03 0. -1.
         12    1    3    3    0    0 -0.19459128728E+02  0.21903505517E+02 -0.91440554866E+01  0.30692588609E+02  0.00000000000E+00 0. -1.
</event>
<event>
 7    1  0.1324280E-011  0.5930193E+02  0.7816164E-02  0.1266605E+00
        -11   -1    0    0    0    0  0.00000000000E+00  0.00000000000E+00  0.45593999997E+02  0.45594000000E+02  0.51100000000E-03 0. -1.
         11   -1    0    0    0    0 -0.00000000000E+00 -0.00000000000E+00 -0.45593999997E+02  0.45594000000E+02  0.51100000000E-03 0.  1.
    9900012    2    1    2    0    0  0.25534294306E+02  0.16364341463E+02 -0.98452920748E+01  0.59301927284E+02  0.49999969463E+02 0.  0.
        -12    1    1    2    0    0 -0.25534294306E+02 -0.16364341463E+02  0.98452920748E+01  0.31886072716E+02  0.00000000000E+00 0.  1.
         11    1    3    3    0    0  0.18708506780E+01 -0.55814936175E+01 -0.12289239723E+02  0.13626392277E+02  0.51100000000E-03 0. -1.
        -11    1    3    3    0    0  0.30034779682E+01  0.40415655447E+01  0.14830345252E+02  0.15661873212E+02  0.51100000000E-03 0.  1.
         12    1    3    3    0    0  0.20659965660E+02  0.17904269536E+02 -0.12386397604E+02  0.30013661794E+02  0.00000000000E+00 0. -1.
</event>
<event>
 7    1  0.1324280E-011  0.5930194E+02  0.7816164E-02  0.1266605E+00
        -11   -1    0    0    0    0  0.00000000000E+00  0.00000000000E+00  0.45593999997E+02  0.45594000000E+02  0.51100000000E-03 0.  1.
         11   -1    0    0    0    0 -0.00000000000E+00 -0.00000000000E+00 -0.45593999997E+02  0.45594000000E+02  0.51100000000E-03 0. -1.
    9900012    2    1    2    0    0  0.27871263056E+00 -0.16521387999E+02 -0.27270617725E+02  0.59301944533E+02  0.50000000921E+02 0.  0.
        -12    1    1    2    0    0 -0.27871263056E+00  0.16521387999E+02  0.27270617725E+02  0.31886055467E+02  0.00000000000E+00 0.  1.
         11    1    3    3    0    0  0.67129089211E+01  0.77071064543E+01 -0.52292289211E+01  0.11480743506E+02  0.51100000000E-03 0. -1.
        -11    1    3    3    0    0 -0.33029474684E+01 -0.20701903813E+02 -0.31159765167E+02  0.37555415708E+02  0.51100000000E-03 0.  1.
         12    1    3    3    0    0 -0.31312488221E+01 -0.35265906401E+01  0.91183763626E+01  0.10265785319E+02  0.00000000000E+00 0. -1.
</event>
<event>
 7    1  0.1324280E-011  0.5930206E+02  0.7816164E-02  0.1266604E+00
        -11   -1    0    0    0    0  0.00000000000E+00  0.00000000000E+00  0.45593999997E+02  0.45594000000E+02  0.51100000000E-03 0.  1.
         11   -1    0    0    0    0 -0.00000000000E+00 -0.00000000000E+00 -0.45593999997E+02  0.45594000000E+02  0.51100000000E-03 0. -1.
    9900012    2    1    2    0    0  0.59512510966E+01  0.18991321222E+02 -0.24912362321E+02  0.59302055325E+02  0.50000202980E+02 0.  0.
        -12    1    1    2    0    0 -0.59512510966E+01 -0.18991321222E+02  0.24912362321E+02  0.31885944675E+02  0.00000000000E+00 0.  1.
         11    1    3    3    0    0 -0.13896105610E+02  0.47188197780E+01 -0.13926694334E+02  0.20231703501E+02  0.51100000000E-03 0. -1.
        -11    1    3    3    0    0  0.76713595722E+01  0.84894141115E+01 -0.19868129774E+02  0.22927330648E+02  0.51100000000E-03 0.  1.
        -12    1    3    3    0    0  0.12175997135E+02  0.57830873326E+01  0.88824617867E+01  0.16143021177E+02  0.00000000000E+00 0.  1.
</event>
<event>
 7    1  0.1324280E-011  0.5930233E+02  0.7816164E-02  0.1266603E+00
        -11   -1    0    0    0    0  0.00000000000E+00  0.00000000000E+00  0.45593999997E+02  0.45594000000E+02  0.51100000000E-03 0. -1.
         11   -1    0    0    0    0 -0.00000000000E+00 -0.00000000000E+00 -0.45593999997E+02  0.45594000000E+02  0.51100000000E-03 0.  1.
    9900012    2    1    2    0    0  0.24016375306E+02  0.20972191495E+02  0.27710460366E+00  0.59302331027E+02  0.50000705788E+02 0.  0.
        -12    1    1    2    0    0 -0.24016375306E+02 -0.20972191495E+02 -0.27710460366E+00  0.31885668973E+02  0.00000000000E+00 0.  1.
         11    1    3    3    0    0 -0.46965974230E+00  0.26400716359E+02  0.60289522609E+01  0.27084435939E+02  0.51100000000E-03 0. -1.
        -11    1    3    3    0    0  0.10985708766E+01 -0.65896733243E+01 -0.57304242296E+01  0.88016143181E+01  0.51100000000E-03 0.  1.
        -12    1    3    3    0    0  0.23387464171E+02  0.11611484603E+01 -0.21423427646E-01  0.23416280769E+02  0.00000000000E+00 0.  1.
</event>
<event>
 7    1  0.1324280E-011  0.5930198E+02  0.7816164E-02  0.1266605E+00
        -11   -1    0    0    0    0  0.00000000000E+00  0.00000000000E+00  0.45593999997E+02  0.45594000000E+02  0.51100000000E-03 0.  1.
         11   -1    0    0    0    0 -0.00000000000E+00 -0.00000000000E+00 -0.45593999997E+02  0.45594000000E+02  0.51100000000E-03 0. -1.
    9900012    2    1    2    0    0  0.50752267412E+00  0.13411714299E+02 -0.28923803835E+02  0.59301982877E+02  0.50000070851E+02 0.  0.
        -12    1    1    2    0    0 -0.50752267412E+00 -0.13411714299E+02  0.28923803835E+02  0.31886017123E+02  0.00000000000E+00 0.  1.
         11    1    3    3    0    0 -0.92651126739E+01 -0.34356906571E+01 -0.37588155215E+01  0.10572368587E+02  0.51100000000E-03 0. -1.
        -11    1    3    3    0    0  0.83817118437E+01 -0.91779409775E+01 -0.17683307969E+02  0.21614510751E+02  0.51100000000E-03 0.  1.
         12    1    3    3    0    0  0.13909235043E+01  0.26025345933E+02 -0.74816803447E+01  0.27115103539E+02  0.00000000000E+00 0. -1.
</event>
<event>
 7    1  0.1324280E-011  0.5930192E+02  0.7816164E-02  0.1266605E+00
        -11   -1    0    0    0    0  0.00000000000E+00  0.00000000000E+00  0.45593999997E+02  0.45594000000E+02  0.51100000000E-03 0.  1.
         11   -1    0    0    0    0 -0.00000000000E+00 -0.00000000000E+00 -0.45593999997E+02  0.45594000000E+02  0.51100000000E-03 0. -1.
    9900012    2    1    2    0    0  0.20520683215E+02  0.14274401212E+02 -0.19795590599E+02  0.59301915625E+02  0.49999948201E+02 0.  0.
        -12    1    1    2    0    0 -0.20520683215E+02 -0.14274401212E+02  0.19795590599E+02  0.31886084375E+02  0.00000000000E+00 0.  1.
         11    1    3    3    0    0  0.11251935701E+02 -0.28128946464E+01 -0.37768326029E+01  0.12197659533E+02  0.51100000000E-03 0. -1.
        -11    1    3    3    0    0  0.13797107175E+02 -0.97412159891E+01 -0.39809550308E+01  0.17352217684E+02  0.51100000000E-03 0.  1.
        -12    1    3    3    0    0 -0.45283596610E+01  0.26828511848E+02 -0.12037802966E+02  0.29752038408E+02  0.00000000000E+00 0.  1.
</event>
<event>
 7    1  0.1324280E-011  0.5930193E+02  0.7816164E-02  0.1266605E+00
        -11   -1    0    0    0    0  0.00000000000E+00  0.00000000000E+00  0.45593999997E+02  0.45594000000E+02  0.51100000000E-03 0.  1.
         11   -1    0    0    0    0 -0.00000000000E+00 -0.00000000000E+00 -0.45593999997E+02  0.45594000000E+02  0.51100000000E-03 0. -1.
    9900012    2    1    2    0    0 -0.60300843369E+01  0.14568870558E+02 -0.27714757668E+02  0.59301926252E+02  0.49999967582E+02 0.  0.
        -12    1    1    2    0    0  0.60300843369E+01 -0.14568870558E+02  0.27714757668E+02  0.31886073748E+02  0.00000000000E+00 0.  1.
         11    1    3    3    0    0 -0.15309085024E+02  0.18835305406E+02 -0.21023339249E+02  0.32111020031E+02  0.51100000000E-03 0. -1.
        -11    1    3    3    0    0 -0.47520616923E+01 -0.26038276424E+01  0.60805917506E+01  0.81446672748E+01  0.51100000000E-03 0.  1.
         12    1    3    3    0    0  0.14031062380E+02 -0.16626072058E+01 -0.12772010170E+02  0.19046238946E+02  0.00000000000E+00 0. -1.
</event>
<event>
 7    1  0.1324280E-011  0.5930192E+02  0.7816164E-02  0.1266605E+00
        -11   -1    0    0    0    0  0.00000000000E+00  0.00000000000E+00  0.45593999997E+02  0.45594000000E+02  0.51100000000E-03 0. -1.
         11   -1    0    0    0    0 -0.00000000000E+00 -0.00000000000E+00 -0.45593999997E+02  0.45594000000E+02  0.51100000000E-03 0.  1.
    9900012    2    1    2    0    0  0.17846822841E+02  0.15138273151E+02  0.21657461001E+02  0.59301921274E+02  0.49999958503E+02 0.  0.
        -12    1    1    2    0    0 -0.17846822841E+02 -0.15138273151E+02 -0.21657461001E+02  0.31886078726E+02  0.00000000000E+00 0.  1.
         11    1    3    3    0    0 -0.25130621297E+01  0.81492549343E+01 -0.46445439186E+01  0.97106964593E+01  0.51100000000E-03 0. -1.
        -11    1    3    3    0    0 -0.79211252586E+01  0.22455323734E+01  0.17911028049E+02  0.19712726017E+02  0.51100000000E-03 0.  1.
         12    1    3    3    0    0  0.28281010230E+02  0.47434858432E+01  0.83909768708E+01  0.29878498798E+02  0.00000000000E+00 0. -1.
</event>
<event>
 7    1  0.1324280E-011  0.5930185E+02  0.7816164E-02  0.1266605E+00
        -11   -1    0    0    0    0  0.00000000000E+00  0.00000000000E+00  0.45593999997E+02  0.45594000000E+02  0.51100000000E-03 0.  1.
         11   -1    0    0    0    0 -0.00000000000E+00 -0.00000000000E+00 -0.45593999997E+02  0.45594000000E+02  0.51100000000E-03 0. -1.
    9900012    2    1    2    0    0 -0.19040077108E+02 -0.25543577421E+02  0.13144026583E+01  0.59301850372E+02  0.49999829194E+02 0.  0.
        -12    1    1    2    0    0  0.19040077108E+02  0.25543577421E+02 -0.13144026583E+01  0.31886149628E+02  0.00000000000E+00 0.  1.
         11    1    3    3    0    0 -0.12027899761E+02 -0.12536522701E+02 -0.19328071554E+02  0.25988634523E+02  0.51100000000E-03 0. -1.
        -11    1    3    3    0    0 -0.54857281634E+01  0.40664204248E+01  0.47490298789E+00  0.68450362791E+01  0.51100000000E-03 0.  1.
         12    1    3    3    0    0 -0.15264491834E+01 -0.17073475145E+02  0.20167571225E+02  0.26468179570E+02  0.00000000000E+00 0. -1.
</event>
<event>
 7    1  0.1324280E-011  0.5930203E+02  0.7816164E-02  0.1266604E+00
        -11   -1    0    0    0    0  0.00000000000E+00  0.00000000000E+00  0.45593999997E+02  0.45594000000E+02  0.51100000000E-03 0. -1.
         11   -1    0    0    0    0 -0.00000000000E+00 -0.00000000000E+00 -0.45593999997E+02  0.45594000000E+02  0.51100000000E-03 0.  1.
    9900012    2    1    2    0    0 -0.17752800099E+02  0.35334717351E+01  0.26250095923E+02  0.59302033340E+02  0.50000162884E+02 0.  0.
        -12    1    1    2    0    0  0.17752800099E+02 -0.35334717351E+01 -0.26250095923E+02  0.31885966660E+02  0.00000000000E+00 0.  1.
         11    1    3    3    0    0  0.23641499744E+01  0.87786903745E+01  0.17129946080E+02  0.19393031293E+02  0.51100000000E-03 0. -1.
        -11    1    3    3    0    0 -0.53181180204E+01 -0.16519650882E+02  0.11977601421E+02  0.21086587695E+02  0.51100000000E-03 0.  1.
         12    1    3    3    0    0 -0.14798832053E+02  0.11274432243E+02 -0.28574515777E+01  0.18822414352E+02  0.00000000000E+00 0. -1.
</event>
<event>
 7    1  0.1324280E-011  0.5930200E+02  0.7816164E-02  0.1266605E+00
        -11   -1    0    0    0    0  0.00000000000E+00  0.00000000000E+00  0.45593999997E+02  0.45594000000E+02  0.51100000000E-03 0.  1.
         11   -1    0    0    0    0 -0.00000000000E+00 -0.00000000000E+00 -0.45593999997E+02  0.45594000000E+02  0.51100000000E-03 0. -1.
    9900012    2    1    2    0    0  0.30793133282E+01 -0.26026520151E+02 -0.18161907376E+02  0.59302003053E+02  0.50000107648E+02 0.  0.
        -12    1    1    2    0    0 -0.30793133282E+01  0.26026520151E+02  0.18161907376E+02  0.31885996947E+02  0.00000000000E+00 0.  1.
         11    1    3    3    0    0  0.28655521702E+01 -0.21281513987E+02 -0.18006118206E+02  0.28023820581E+02  0.51100000000E-03 0. -1.
        -11    1    3    3    0    0 -0.97639988066E+01 -0.14277417147E+02 -0.17587969902E+01  0.17386019677E+02  0.51100000000E-03 0.  1.
         12    1    3    3    0    0  0.99777599646E+01  0.95324109829E+01  0.16030078202E+01  0.13892162795E+02  0.00000000000E+00 0. -1.
</event>
<event>
 7    1  0.1324280E-011  0.5930193E+02  0.7816164E-02  0.1266605E+00
        -11   -1    0    0    0    0  0.00000000000E+00  0.00000000000E+00  0.45593999997E+02  0.45594000000E+02  0.51100000000E-03 0.  1.
         11   -1    0    0    0    0 -0.00000000000E+00 -0.00000000000E+00 -0.45593999997E+02  0.45594000000E+02  0.51100000000E-03 0. -1.
    9900012    2    1    2    0    0 -0.30357455511E+02  0.97017221744E+01 -0.10115436262E+01  0.59301925630E+02  0.49999966447E+02 0.  0.
        -12    1    1    2    0    0  0.30357455511E+02 -0.97017221744E+01  0.10115436262E+01  0.31886074370E+02  0.00000000000E+00 0.  1.
         11    1    3    3    0    0 -0.35761477459E+01  0.28746710223E+01 -0.27242023113E+01  0.53360888936E+01  0.51100000000E-03 0. -1.
        -11    1    3    3    0    0 -0.37771786898E+02 -0.42503915875E+01 -0.14762304602E+01  0.38038835034E+02  0.51100000000E-03 0.  1.
        -12    1    3    3    0    0  0.10990479134E+02  0.11077442740E+02  0.31888891452E+01  0.15927001702E+02  0.00000000000E+00 0.  1.
</event>
<event>
 7    1  0.1629889E-011  0.5930194E+02  0.7816164E-02  0.1266605E+00
        -11   -1    0    0    0    0  0.00000000000E+00  0.00000000000E+00  0.45593999997E+02  0.45594000000E+02  0.51100000000E-03 0.  1.
         11   -1    0    0    0    0 -0.00000000000E+00 -0.00000000000E+00 -0.45593999997E+02  0.45594000000E+02  0.51100000000E-03 0. -1.
    9900012    2    1    2    0    0 -0.17692683501E+02 -0.26467222182E+02 -0.17820571324E+01  0.59301943061E+02  0.49999998238E+02 0.  0.
        -12    1    1    2    0    0  0.17692683501E+02  0.26467222182E+02  0.17820571324E+01  0.31886056939E+02  0.00000000000E+00 0.  1.
         11    1    3    3    0    0 -0.99560050720E+01 -0.10151735093E+02  0.79747960371E+01  0.16302672618E+02  0.51100000000E-03 0. -1.
        -11    1    3    3    0    0 -0.13980058708E+01 -0.71284666004E+01  0.14544263022E+02  0.16257461167E+02  0.51100000000E-03 0.  1.
         12    1    3    3    0    0 -0.63386725577E+01 -0.91870204879E+01 -0.24301116191E+02  0.26741809276E+02  0.00000000000E+00 0. -1.
</event>
<event>
 7    1  0.1324280E-011  0.5930195E+02  0.7816164E-02  0.1266605E+00
        -11   -1    0    0    0    0  0.00000000000E+00  0.00000000000E+00  0.45593999997E+02  0.45594000000E+02  0.51100000000E-03 0. -1.
         11   -1    0    0    0    0 -0.00000000000E+00 -0.00000000000E+00 -0.45593999997E+02  0.45594000000E+02  0.51100000000E-03 0.  1.
    9900012    2    1    2    0    0  0.25043158794E+02  0.14035667832E+02  0.13876616640E+02  0.59301948767E+02  0.50000008643E+02 0.  0.
        -12    1    1    2    0    0 -0.25043158794E+02 -0.14035667832E+02 -0.13876616640E+02  0.31886051233E+02  0.00000000000E+00 0.  1.
         11    1    3    3    0    0 -0.86623314436E+01  0.12409187393E+02  0.60323448452E+01  0.16291503994E+02  0.51100000000E-03 0. -1.
        -11    1    3    3    0    0 -0.18864537708E+01 -0.32545136231E+01  0.59450475020E+01  0.70352083704E+01  0.51100000000E-03 0.  1.
        -12    1    3    3    0    0  0.35591944008E+02  0.48809940619E+01  0.18992242928E+01  0.35975236403E+02  0.00000000000E+00 0.  1.
</event>
<event>
 7    1  0.1324280E-011  0.5930193E+02  0.7816164E-02  0.1266605E+00
        -11   -1    0    0    0    0  0.00000000000E+00  0.00000000000E+00  0.45593999997E+02  0.45594000000E+02  0.51100000000E-03 0.  1.
         11   -1    0    0    0    0 -0.00000000000E+00 -0.00000000000E+00 -0.45593999997E+02  0.45594000000E+02  0.51100000000E-03 0. -1.
    9900012    2    1    2    0    0 -0.72813828424E+01 -0.31020265732E+02 -0.12024917803E+01  0.59301930806E+02  0.49999975887E+02 0.  0.
        -12    1    1    2    0    0  0.72813828424E+01  0.31020265732E+02  0.12024917803E+01  0.31886069194E+02  0.00000000000E+00 0.  1.
         11    1    3    3    0    0 -0.13467754537E+01  0.27078188324E+01 -0.18407963264E+01  0.35404262919E+01  0.51100000000E-03 0. -1.
        -11    1    3    3    0    0  0.97111953531E+01 -0.37285848398E+02 -0.47822754328E+01  0.38825403598E+02  0.51100000000E-03 0.  1.
         12    1    3    3    0    0 -0.15645802742E+02  0.35577638341E+01  0.54205799789E+01  0.16936100916E+02  0.00000000000E+00 0. -1.
</event>
<event>
 7    1  0.1893755E-011  0.5930193E+02  0.7816164E-02  0.1266605E+00
        -11   -1    0    0    0    0  0.00000000000E+00  0.00000000000E+00  0.45593999997E+02  0.45594000000E+02  0.51100000000E-03 0. -1.
         11   -1    0    0    0    0 -0.00000000000E+00 -0.00000000000E+00 -0.45593999997E+02  0.45594000000E+02  0.51100000000E-03 0.  1.
    9900012    2    1    2    0    0  0.19834677826E+02  0.19218052151E+02  0.15936551184E+02  0.59301927232E+02  0.49999969368E+02 0.  0.
        -12    1    1    2    0    0 -0.19834677826E+02 -0.19218052151E+02 -0.15936551184E+02  0.31886072768E+02  0.00000000000E+00 0.  1.
         11    1    3    3    0    0  0.14982664894E+02  0.71398208176E+01 -0.69357168667E+01  0.17987814135E+02  0.51100000000E-03 0. -1.
        -11    1    3    3    0    0  0.14120835376E+01 -0.26895860477E+01 -0.71011041536E+01  0.77235699962E+01  0.51100000000E-03 0.  1.
         12    1    3    3    0    0  0.34399293937E+01  0.14767817381E+02  0.29973372205E+02  0.33590543100E+02  0.00000000000E+00 0. -1.
</event>
<event>
 7    1  0.1324280E-011  0.5930196E+02  0.7816164E-02  0.1266605E+00
        -11   -1    0    0    0    0  0.00000000000E+00  0.00000000000E+00  0.45593999997E+02  0.45594000000E+02  0.51100000000E-03 0. -1.
         11   -1    0    0    0    0 -0.00000000000E+00 -0.00000000000E+00 -0.45593999997E+02  0.45594000000E+02  0.51100000000E-03 0.  1.
    9900012    2    1    2    0    0 -0.18185243911E+02 -0.49981477659E+01  0.25710601719E+02  0.59301958886E+02  0.50000027097E+02 0.  0.
        -12    1    1    2    0    0  0.18185243911E+02  0.49981477659E+01 -0.25710601719E+02  0.31886041114E+02  0.00000000000E+00 0.  1.
         11    1    3    3    0    0 -0.51969006667E+01 -0.70360282455E+01  0.12721354897E+02  0.15438469506E+02  0.51100000000E-03 0. -1.
        -11    1    3    3    0    0  0.44894443097E+01 -0.15450329847E+02  0.34463547431E+00  0.16093059885E+02  0.51100000000E-03 0.  1.
         12    1    3    3    0    0 -0.17477787554E+02  0.17488210326E+02  0.12644611348E+02  0.27770429495E+02  0.00000000000E+00 0. -1.
</event>
<event>
 7    1  0.1324280E-011  0.5930196E+02  0.7816164E-02  0.1266605E+00
        -11   -1    0    0    0    0  0.00000000000E+00  0.00000000000E+00  0.45593999997E+02  0.45594000000E+02  0.51100000000E-03 0.  1.
         11   -1    0    0    0    0 -0.00000000000E+00 -0.00000000000E+00 -0.45593999997E+02  0.45594000000E+02  0.51100000000E-03 0. -1.
    9900012    2    1    2    0    0 -0.26183602602E+02  0.17300962147E+02 -0.56404865596E+01  0.59301961910E+02  0.50000032613E+02 0.  0.
        -12    1    1    2    0    0  0.26183602602E+02 -0.17300962147E+02  0.56404865596E+01  0.31886038090E+02  0.00000000000E+00 0.  1.
         11    1    3    3    0    0 -0.26413890564E+02  0.41281381441E+01  0.29552922174E+01  0.26897377039E+02  0.51100000000E-03 0. -1.
        -11    1    3    3    0    0  0.15107469045E+01 -0.74207291976E+01 -0.90064880312E+01  0.11767174893E+02  0.51100000000E-03 0.  1.
        -12    1    3    3    0    0 -0.12804589431E+01  0.20593553200E+02  0.41070925432E+00  0.20637409978E+02  0.00000000000E+00 0.  1.
</event>
<event>
 7    1  0.1324280E-011  0.5930194E+02  0.7816164E-02  0.1266605E+00
        -11   -1    0    0    0    0  0.00000000000E+00  0.00000000000E+00  0.45593999997E+02  0.45594000000E+02  0.51100000000E-03 0. -1.
         11   -1    0    0    0    0 -0.00000000000E+00 -0.00000000000E+00 -0.45593999997E+02  0.45594000000E+02  0.51100000000E-03 0.  1.
    9900012    2    1    2    0    0 -0.12051304119E+02 -0.22260354386E+02  0.19389774914E+02  0.59301942238E+02  0.49999996736E+02 0.  0.
        -12    1    1    2    0    0  0.12051304119E+02  0.22260354386E+02 -0.19389774914E+02  0.31886057762E+02  0.00000000000E+00 0.  1.
         11    1    3    3    0    0 -0.13574578938E+02  0.10499365542E+01  0.72771233618E+01  0.15437878248E+02  0.51100000000E-03 0. -1.
        -11    1    3    3    0    0  0.64991063752E+00  0.82469886391E+00  0.18780404619E+02  0.18809734448E+02  0.51100000000E-03 0.  1.
        -12    1    3    3    0    0  0.87336418169E+00 -0.24134989805E+02 -0.66677530673E+01  0.25054329543E+02  0.00000000000E+00 0.  1.
</event>
<event>
 7    1  0.1324280E-011  0.5930195E+02  0.7816164E-02  0.1266605E+00
        -11   -1    0    0    0    0  0.00000000000E+00  0.00000000000E+00  0.45593999997E+02  0.45594000000E+02  0.51100000000E-03 0.  1.
         11   -1    0    0    0    0 -0.00000000000E+00 -0.00000000000E+00 -0.45593999997E+02  0.45594000000E+02  0.51100000000E-03 0. -1.
    9900012    2    1    2    0    0  0.13491711146E+02  0.21538760117E+02 -0.19255543394E+02  0.59301946490E+02  0.50000004491E+02 0.  0.
        -12    1    1    2    0    0 -0.13491711146E+02 -0.21538760117E+02  0.19255543394E+02  0.31886053510E+02  0.00000000000E+00 0.  1.
         11    1    3    3    0    0 -0.88062984182E+01  0.24727632204E+01 -0.20221958113E+01  0.93677492460E+01  0.51100000000E-03 0. -1.
        -11    1    3    3    0    0 -0.24952212297E+01  0.86026184135E+01  0.87535672054E+01  0.12524220999E+02  0.51100000000E-03 0.  1.
         12    1    3    3    0    0  0.24793230794E+02  0.10463378483E+02 -0.25986914788E+02  0.37409976245E+02  0.00000000000E+00 0. -1.
</event>
<event>
 7    1  0.1324280E-011  0.5930191E+02  0.7816164E-02  0.1266605E+00
        -11   -1    0    0    0    0  0.00000000000E+00  0.00000000000E+00  0.45593999997E+02  0.45594000000E+02  0.51100000000E-03 0.  1.
         11   -1    0    0    0    0 -0.00000000000E+00 -0.00000000000E+00 -0.45593999997E+02  0.45594000000E+02  0.51100000000E-03 0. -1.
    9900012    2    1    2    0    0 -0.16146329704E+02 -0.97261247667E+01 -0.25718111143E+02  0.59301910452E+02  0.49999938766E+02 0.  0.
        -12    1    1    2    0    0  0.16146329704E+02  0.97261247667E+01  0.25718111143E+02  0.31886089548E+02  0.00000000000E+00 0.  1.
         11    1    3    3    0    0 -0.14307490914E+02  0.12750543910E+02 -0.13844553020E+02  0.23642172380E+02  0.51100000000E-03 0. -1.
        -11    1    3    3    0    0  0.42170017822E+01  0.35786299681E+01  0.15316881723E+01  0.57389690187E+01  0.51100000000E-03 0.  1.
        -12    1    3    3    0    0 -0.60558405722E+01 -0.26055298645E+02 -0.13405246296E+02  0.29920769054E+02  0.00000000000E+00 0.  1.
</event>
<event>
 7    1  0.1324280E-011  0.5930203E+02  0.7816164E-02  0.1266604E+00
        -11   -1    0    0    0    0  0.00000000000E+00  0.00000000000E+00  0.45593999997E+02  0.45594000000E+02  0.51100000000E-03 0. -1.
         11   -1    0    0    0    0 -0.00000000000E+00 -0.00000000000E+00 -0.45593999997E+02  0.45594000000E+02  0.51100000000E-03 0.  1.
    9900012    2    1    2    0    0 -0.39042947544E+01  0.31614631798E+02  0.14095151683E+01  0.59302028253E+02  0.50000153606E+02 0.  0.
        -12    1    1    2    0    0  0.39042947544E+01 -0.31614631798E+02 -0.14095151683E+01  0.31885971747E+02  0.00000000000E+00 0.  1.
         11    1    3    3    0    0  0.12196944714E+02  0.26235193594E+02  0.76340135755E+01  0.29922048840E+02  0.51100000000E-03 0. -1.
        -11    1    3    3    0    0  0.15024338776E+01  0.40531932559E+01  0.63672011585E+01  0.76959037144E+01  0.51100000000E-03 0.  1.
        -12    1    3    3    0    0 -0.17603673346E+02  0.13262449488E+01 -0.12591699566E+02  0.21684075698E+02  0.00000000000E+00 0.  1.
</event>
<event>
 7    1  0.1324280E-011  0.5930176E+02  0.7816164E-02  0.1266605E+00
        -11   -1    0    0    0    0  0.00000000000E+00  0.00000000000E+00  0.45593999997E+02  0.45594000000E+02  0.51100000000E-03 0.  1.
         11   -1    0    0    0    0 -0.00000000000E+00 -0.00000000000E+00 -0.45593999997E+02  0.45594000000E+02  0.51100000000E-03 0. -1.
    9900012    2    1    2    0    0  0.16754049368E+02 -0.15678683485E+02 -0.22140748781E+02  0.59301764057E+02  0.49999671775E+02 0.  0.
        -12    1    1    2    0    0 -0.16754049368E+02  0.15678683485E+02  0.22140748781E+02  0.31886235943E+02  0.00000000000E+00 0.  1.
         11    1    3    3    0    0 -0.99977340031E+01  0.66454881018E+01 -0.17174777341E+02  0.20954478621E+02  0.51100000000E-03 0. -1.
        -11    1    3    3    0    0  0.74794304509E+00 -0.59207696545E+01 -0.47073613270E+01  0.76009330364E+01  0.51100000000E-03 0.  1.
         12    1    3    3    0    0  0.26003840326E+02 -0.16403401932E+02 -0.25861011287E+00  0.30746352399E+02  0.00000000000E+00 0. -1.
</event>
<event>
 7    1  0.1324280E-011  0.5930197E+02  0.7816164E-02  0.1266605E+00
        -11   -1    0    0    0    0  0.00000000000E+00  0.00000000000E+00  0.45593999997E+02  0.45594000000E+02  0.51100000000E-03 0. -1.
         11   -1    0    0    0    0 -0.00000000000E+00 -0.00000000000E+00 -0.45593999997E+02  0.45594000000E+02  0.51100000000E-03 0.  1.
    9900012    2    1    2    0    0  0.54965872498E+01  0.25231027296E+02  0.18705655165E+02  0.59301972575E+02  0.50000052063E+02 0.  0.
        -12    1    1    2    0    0 -0.54965872498E+01 -0.25231027296E+02 -0.18705655165E+02  0.31886027425E+02  0.00000000000E+00 0.  1.
         11    1    3    3    0    0 -0.90053859457E+01  0.16730198216E+02  0.24935462623E+01  0.19162835949E+02  0.51100000000E-03 0. -1.
        -11    1    3    3    0    0 -0.10540951566E+02  0.29268305682E+01  0.33588201858E+01  0.11443761199E+02  0.51100000000E-03 0.  1.
        -12    1    3    3    0    0  0.25042924761E+02  0.55739985113E+01  0.12853288717E+02  0.28695375426E+02  0.00000000000E+00 0.  1.
</event>
<event>
 7    1  0.1364256E-011  0.5930194E+02  0.7816164E-02  0.1266605E+00
        -11   -1    0    0    0    0  0.00000000000E+00  0.00000000000E+00  0.45593999997E+02  0.45594000000E+02  0.51100000000E-03 0.  1.
         11   -1    0    0    0    0 -0.00000000000E+00 -0.00000000000E+00 -0.45593999997E+02  0.45594000000E+02  0.51100000000E-03 0. -1.
    9900012    2    1    2    0    0 -0.20057603690E+02  0.24763571718E+02  0.10856716336E+01  0.59301942970E+02  0.49999998071E+02 0.  0.
        -12    1    1    2    0    0  0.20057603690E+02 -0.24763571718E+02 -0.10856716336E+01  0.31886057030E+02  0.00000000000E+00 0.  1.
         11    1    3    3    0    0 -0.73828065042E+01  0.34540324641E+01 -0.10476375574E+02  0.13273681388E+02  0.51100000000E-03 0. -1.
        -11    1    3    3    0    0  0.37041657199E+01 -0.41165175309E+01  0.14615658487E+02  0.15629588399E+02  0.51100000000E-03 0.  1.
         12    1    3    3    0    0 -0.16378962906E+02  0.25426056785E+02 -0.30536112786E+01  0.30398673184E+02  0.00000000000E+00 0. -1.
</event>
<event>
 7    1  0.1324280E-011  0.5930185E+02  0.7816164E-02  0.1266605E+00
        -11   -1    0    0    0    0  0.00000000000E+00  0.00000000000E+00  0.45593999997E+02  0.45594000000E+02  0.51100000000E-03 0.  1.
         11   -1    0    0    0    0 -0.00000000000E+00 -0.00000000000E+00 -0.45593999997E+02  0.45594000000E+02  0.51100000000E-03 0. -1.
    9900012    2    1    2    0    0  0.35786406904E+01  0.43819273490E+01 -0.31380230037E+02  0.59301846365E+02  0.49999821886E+02 0.  0.
        -12    1    1    2    0    0 -0.35786406904E+01 -0.43819273490E+01  0.31380230037E+02  0.31886153635E+02  0.00000000000E+00 0.  1.
         11    1    3    3    0    0 -0.17462389504E+02  0.37561584495E+01 -0.22856615172E+02  0.29008078717E+02  0.51100000000E-03 0. -1.
        -11    1    3    3    0    0  0.58363177765E+01 -0.20429890878E+01 -0.12851220593E+02  0.14261496436E+02  0.51100000000E-03 0.  1.
        -12    1    3    3    0    0  0.15204712418E+02  0.26687579873E+01  0.43276057276E+01  0.16032271213E+02  0.00000000000E+00 0.  1.
</event>
<event>
 7    1  0.1324280E-011  0.5930194E+02  0.7816164E-02  0.1266605E+00
        -11   -1    0    0    0    0  0.00000000000E+00  0.00000000000E+00  0.45593999997E+02  0.45594000000E+02  0.51100000000E-03 0. -1.
         11   -1    0    0    0    0 -0.00000000000E+00 -0.00000000000E+00 -0.45593999997E+02  0.45594000000E+02  0.51100000000E-03 0.  1.
    9900012    2    1    2    0    0 -0.26594062379E+02  0.17591484997E+02  0.12724021575E+00  0.59301942101E+02  0.49999996486E+02 0.  0.
        -12    1    1    2    0    0  0.26594062379E+02 -0.17591484997E+02 -0.12724021575E+00  0.31886057899E+02  0.00000000000E+00 0.  1.
         11    1    3    3    0    0 -0.18668766460E+02  0.10960336226E+01  0.21804845132E+01  0.18827603241E+02  0.51100000000E-03 0. -1.
        -11    1    3    3    0    0 -0.11446039367E+02  0.15821678922E+02 -0.16514941571E+02  0.25575000224E+02  0.51100000000E-03 0.  1.
         12    1    3    3    0    0  0.35207434475E+01  0.67377245274E+00  0.14461697274E+02  0.14899338636E+02  0.00000000000E+00 0. -1.
</event>
<event>
 7    1  0.1324280E-011  0.5930194E+02  0.7816164E-02  0.1266605E+00
        -11   -1    0    0    0    0  0.00000000000E+00  0.00000000000E+00  0.45593999997E+02  0.45594000000E+02  0.51100000000E-03 0.  1.
         11   -1    0    0    0    0 -0.00000000000E+00 -0.00000000000E+00 -0.45593999997E+02  0.45594000000E+02  0.51100000000E-03 0. -1.
    9900012    2    1    2    0    0  0.39498392930E+01  0.31152521295E+02 -0.55353672107E+01  0.59301935588E+02  0.49999984609E+02 0.  0.
        -12    1    1    2    0    0 -0.39498392930E+01 -0.31152521295E+02  0.55353672107E+01  0.31886064412E+02  0.00000000000E+00 0.  1.
         11    1    3    3    0    0  0.19862180338E+01  0.34789648693E+01 -0.22993940680E+02  0.23340299203E+02  0.51100000000E-03 0. -1.
        -11    1    3    3    0    0 -0.21184259504E+01  0.42467517479E+01 -0.20827615405E+01  0.51827140391E+01  0.51100000000E-03 0.  1.
        -12    1    3    3    0    0  0.40820472096E+01  0.23426804678E+02  0.19541335010E+02  0.30778922346E+02  0.00000000000E+00 0.  1.
</event>
<event>
 7    1  0.1324280E-011  0.5930197E+02  0.7816164E-02  0.1266605E+00
        -11   -1    0    0    0    0  0.00000000000E+00  0.00000000000E+00  0.45593999997E+02  0.45594000000E+02  0.51100000000E-03 0.  1.
         11   -1    0    0    0    0 -0.00000000000E+00 -0.00000000000E+00 -0.45593999997E+02  0.45594000000E+02  0.51100000000E-03 0. -1.
    9900012    2    1    2    0    0  0.10520882806E+02 -0.10880335954E+02 -0.28065073677E+02  0.59301967854E+02  0.50000043454E+02 0.  0.
        -12    1    1    2    0    0 -0.10520882806E+02  0.10880335954E+02  0.28065073677E+02  0.31886032146E+02  0.00000000000E+00 0.  1.
         11    1    3    3    0    0 -0.58454403633E+00 -0.14044803910E+02 -0.15381064690E+02  0.20836875003E+02  0.51100000000E-03 0. -1.
        -11    1    3    3    0    0  0.16334918350E+02  0.15314962066E+02 -0.42905781723E+01  0.22798830713E+02  0.51100000000E-03 0.  1.
         12    1    3    3    0    0 -0.52294915077E+01 -0.12150494110E+02 -0.83934308149E+01  0.15666262138E+02  0.00000000000E+00 0. -1.
</event>
<event>
 7    1  0.1324280E-011  0.5930196E+02  0.7816164E-02  0.1266605E+00
        -11   -1    0    0    0    0  0.00000000000E+00  0.00000000000E+00  0.45593999997E+02  0.45594000000E+02  0.51100000000E-03 0.  1.
         11   -1    0    0    0    0 -0.00000000000E+00 -0.00000000000E+00 -0.45593999997E+02  0.45594000000E+02  0.51100000000E-03 0. -1.
    9900012    2    1    2    0    0  0.65759216184E+01  0.28138997200E+02 -0.13478638311E+02  0.59301959179E+02  0.50000027632E+02 0.  0.
        -12    1    1    2    0    0 -0.65759216184E+01 -0.28138997200E+02  0.13478638311E+02  0.31886040821E+02  0.00000000000E+00 0.  1.
         11    1    3    3    0    0  0.56727370223E+01  0.35845209366E+02 -0.73640815417E+01  0.37030915152E+02  0.51100000000E-03 0. -1.
        -11    1    3    3    0    0  0.98548211936E+01 -0.40480614487E+00 -0.28808508183E+01  0.10275245519E+02  0.51100000000E-03 0.  1.
        -12    1    3    3    0    0 -0.89516365974E+01 -0.73014060211E+01 -0.32337059514E+01  0.11995798508E+02  0.00000000000E+00 0.  1.
</event>
<event>
 7    1  0.1324280E-011  0.5930194E+02  0.7816164E-02  0.1266605E+00
        -11   -1    0    0    0    0  0.00000000000E+00  0.00000000000E+00  0.45593999997E+02  0.45594000000E+02  0.51100000000E-03 0. -1.
         11   -1    0    0    0    0 -0.00000000000E+00 -0.00000000000E+00 -0.45593999997E+02  0.45594000000E+02  0.51100000000E-03 0.  1.
    9900012    2    1    2    0    0 -0.92557650457E+01 -0.25293426871E+02  0.17067348062E+02  0.59301937225E+02  0.49999987593E+02 0.  0.
        -12    1    1    2    0    0  0.92557650457E+01  0.25293426871E+02 -0.17067348062E+02  0.31886062775E+02  0.00000000000E+00 0.  1.
         11    1    3    3    0    0 -0.14122452550E+02 -0.20497289449E+02  0.15814164668E+02  0.29490173706E+02  0.51100000000E-03 0.  1.
        -11    1    3    3    0    0 -0.14180077777E+01 -0.60055418532E+01  0.14137476670E+02  0.15425483003E+02  0.51100000000E-03 0. -1.
        -12    1    3    3    0    0  0.62846952823E+01  0.12094044314E+01 -0.12884293276E+02  0.14386280516E+02  0.00000000000E+00 0.  1.
</event>
<event>
 7    1  0.1324280E-011  0.5930195E+02  0.7816164E-02  0.1266605E+00
        -11   -1    0    0    0    0  0.00000000000E+00  0.00000000000E+00  0.45593999997E+02  0.45594000000E+02  0.51100000000E-03 0.  1.
         11   -1    0    0    0    0 -0.00000000000E+00 -0.00000000000E+00 -0.45593999997E+02  0.45594000000E+02  0.51100000000E-03 0. -1.
    9900012    2    1    2    0    0 -0.15677029703E+02  0.14221775416E+02 -0.23847262161E+02  0.59301951815E+02  0.50000014202E+02 0.  0.
        -12    1    1    2    0    0  0.15677029703E+02 -0.14221775416E+02  0.23847262161E+02  0.31886048185E+02  0.00000000000E+00 0.  1.
         11    1    3    3    0    0  0.36642610973E+01 -0.14017085603E+01 -0.27265359174E+01  0.47776139073E+01  0.51100000000E-03 0. -1.
        -11    1    3    3    0    0 -0.70815422837E+01 -0.67492690929E+01  0.10196966210E+02  0.14130781810E+02  0.51100000000E-03 0.  1.
         12    1    3    3    0    0 -0.12259748516E+02  0.22372753070E+02 -0.31317692454E+02  0.40393556098E+02  0.00000000000E+00 0. -1.
</event>
<event>
 7    1  0.1324280E-011  0.5930194E+02  0.7816164E-02  0.1266605E+00
        -11   -1    0    0    0    0  0.00000000000E+00  0.00000000000E+00  0.45593999997E+02  0.45594000000E+02  0.51100000000E-03 0.  1.
         11   -1    0    0    0    0 -0.00000000000E+00 -0.00000000000E+00 -0.45593999997E+02  0.45594000000E+02  0.51100000000E-03 0. -1.
    9900012    2    1    2    0    0 -0.27125691883E+02 -0.15741233193E+02 -0.57559488513E+01  0.59301944588E+02  0.50000001022E+02 0.  0.
        -12    1    1    2    0    0  0.27125691883E+02  0.15741233193E+02  0.57559488513E+01  0.31886055412E+02  0.00000000000E+00 0.  1.
         11    1    3    3    0    0 -0.37275783532E+00  0.75669553871E+01 -0.62410242840E+01  0.98157091751E+01  0.51100000000E-03 0. -1.
        -11    1    3    3    0    0 -0.19899656207E+01  0.69476658337E+01  0.67510456433E+01  0.98897240228E+01  0.51100000000E-03 0.  1.
         12    1    3    3    0    0 -0.24762968427E+02 -0.30255854414E+02 -0.62659702106E+01  0.39596511390E+02  0.00000000000E+00 0. -1.
</event>
<event>
 7    1  0.1324280E-011  0.5930204E+02  0.7816164E-02  0.1266604E+00
        -11   -1    0    0    0    0  0.00000000000E+00  0.00000000000E+00  0.45593999997E+02  0.45594000000E+02  0.51100000000E-03 0.  1.
         11   -1    0    0    0    0 -0.00000000000E+00 -0.00000000000E+00 -0.45593999997E+02  0.45594000000E+02  0.51100000000E-03 0. -1.
    9900012    2    1    2    0    0  0.28111512408E+02  0.14628605747E+01 -0.14977234131E+02  0.59302037051E+02  0.50000169653E+02 0.  0.
        -12    1    1    2    0    0 -0.28111512408E+02 -0.14628605747E+01  0.14977234131E+02  0.31885962949E+02  0.00000000000E+00 0.  1.
         11    1    3    3    0    0  0.27057344089E+02  0.53947211776E+01 -0.11962560909E+02  0.30071676865E+02  0.51100000000E-03 0. -1.
        -11    1    3    3    0    0  0.14478092710E+02 -0.56425866763E+01 -0.18278289225E+01  0.15645923167E+02  0.51100000000E-03 0.  1.
        -12    1    3    3    0    0 -0.13423924390E+02  0.17107260734E+01 -0.11868442999E+01  0.13584437019E+02  0.00000000000E+00 0.  1.
</event>
<event>
 7    1  0.1324280E-011  0.5930193E+02  0.7816164E-02  0.1266605E+00
        -11   -1    0    0    0    0  0.00000000000E+00  0.00000000000E+00  0.45593999997E+02  0.45594000000E+02  0.51100000000E-03 0. -1.
         11   -1    0    0    0    0 -0.00000000000E+00 -0.00000000000E+00 -0.45593999997E+02  0.45594000000E+02  0.51100000000E-03 0.  1.
    9900012    2    1    2    0    0 -0.36614113158E+01 -0.21163882497E+02  0.23567042648E+02  0.59301931657E+02  0.49999977439E+02 0.  0.
        -12    1    1    2    0    0  0.36614113158E+01  0.21163882497E+02 -0.23567042648E+02  0.31886068343E+02  0.00000000000E+00 0.  1.
         11    1    3    3    0    0 -0.43453242581E+01 -0.15004677086E+02  0.28298498200E+01  0.15875459919E+02  0.51100000000E-03 0. -1.
        -11    1    3    3    0    0 -0.14597164219E+02 -0.46217601165E+00 -0.27215103119E+01  0.14855888682E+02  0.51100000000E-03 0.  1.
        -12    1    3    3    0    0  0.15281077161E+02 -0.56970293994E+01  0.23458703140E+02  0.28570583057E+02  0.00000000000E+00 0.  1.
</event>
<event>
 7    1  0.1324280E-011  0.5930194E+02  0.7816164E-02  0.1266605E+00
        -11   -1    0    0    0    0  0.00000000000E+00  0.00000000000E+00  0.45593999997E+02  0.45594000000E+02  0.51100000000E-03 0.  1.
         11   -1    0    0    0    0 -0.00000000000E+00 -0.00000000000E+00 -0.45593999997E+02  0.45594000000E+02  0.51100000000E-03 0. -1.
    9900012    2    1    2    0    0 -0.18082847433E+01 -0.98600639459E+01 -0.30269291474E+02  0.59301940960E+02  0.49999994406E+02 0.  0.
        -12    1    1    2    0    0  0.18082847433E+01  0.98600639459E+01  0.30269291474E+02  0.31886059040E+02  0.00000000000E+00 0.  1.
         11    1    3    3    0    0  0.12385218547E+02 -0.15578762668E+02 -0.17204805795E+02  0.26307733225E+02  0.51100000000E-03 0. -1.
        -11    1    3    3    0    0 -0.31364535613E+01  0.13086529373E+02  0.11873158064E+01  0.13509415645E+02  0.51100000000E-03 0.  1.
         12    1    3    3    0    0 -0.11057049729E+02 -0.73678306513E+01 -0.14251801486E+02  0.19484792091E+02  0.00000000000E+00 0. -1.
</event>
<event>
 7    1  0.1324280E-011  0.5930199E+02  0.7816164E-02  0.1266605E+00
        -11   -1    0    0    0    0  0.00000000000E+00  0.00000000000E+00  0.45593999997E+02  0.45594000000E+02  0.51100000000E-03 0.  1.
         11   -1    0    0    0    0 -0.00000000000E+00 -0.00000000000E+00 -0.45593999997E+02  0.45594000000E+02  0.51100000000E-03 0. -1.
    9900012    2    1    2    0    0 -0.12957832298E+02 -0.79304483532E+01 -0.28034265683E+02  0.59301992389E+02  0.50000088199E+02 0.  0.
        -12    1    1    2    0    0  0.12957832298E+02  0.79304483532E+01  0.28034265683E+02  0.31886007611E+02  0.00000000000E+00 0.  1.
         11    1    3    3    0    0 -0.18687820274E+02  0.13702443966E+02 -0.17010360397E+02  0.28746199024E+02  0.51100000000E-03 0. -1.
        -11    1    3    3    0    0  0.21008012068E+01 -0.10873260923E+02  0.39549203295E+01  0.11759360692E+02  0.51100000000E-03 0.  1.
        -12    1    3    3    0    0  0.36291867688E+01 -0.10759631396E+02 -0.14978825616E+02  0.18796432673E+02  0.00000000000E+00 0.  1.
</event>
<event>
 7    1  0.1324280E-011  0.5930195E+02  0.7816164E-02  0.1266605E+00
        -11   -1    0    0    0    0  0.00000000000E+00  0.00000000000E+00  0.45593999997E+02  0.45594000000E+02  0.51100000000E-03 0.  1.
         11   -1    0    0    0    0 -0.00000000000E+00 -0.00000000000E+00 -0.45593999997E+02  0.45594000000E+02  0.51100000000E-03 0. -1.
    9900012    2    1    2    0    0  0.15805088173E+01 -0.28321425730E+02 -0.14564307976E+02  0.59301949283E+02  0.50000009585E+02 0.  0.
        -12    1    1    2    0    0 -0.15805088173E+01  0.28321425730E+02  0.14564307976E+02  0.31886050717E+02  0.00000000000E+00 0.  1.
         11    1    3    3    0    0  0.76148516305E+00 -0.88058746793E+00 -0.10384279024E+02  0.10449332278E+02  0.51100000000E-03 0. -1.
        -11    1    3    3    0    0  0.17449638170E+02 -0.25643293918E+01  0.34507171353E+01  0.17971452543E+02  0.51100000000E-03 0.  1.
         12    1    3    3    0    0 -0.16630614516E+02 -0.24876508870E+02 -0.76307460868E+01  0.30881164463E+02  0.00000000000E+00 0. -1.
</event>
<event>
 7    1  0.1324280E-011  0.5930194E+02  0.7816164E-02  0.1266605E+00
        -11   -1    0    0    0    0  0.00000000000E+00  0.00000000000E+00  0.45593999997E+02  0.45594000000E+02  0.51100000000E-03 0.  1.
         11   -1    0    0    0    0 -0.00000000000E+00 -0.00000000000E+00 -0.45593999997E+02  0.45594000000E+02  0.51100000000E-03 0. -1.
    9900012    2    1    2    0    0 -0.16313802750E+02  0.88580471412E+01 -0.25925197598E+02  0.59301936747E+02  0.49999986721E+02 0.  0.
        -12    1    1    2    0    0  0.16313802750E+02 -0.88580471412E+01  0.25925197598E+02  0.31886063253E+02  0.00000000000E+00 0.  1.
         11    1    3    3    0    0 -0.55834219696E+01 -0.53094934349E+01 -0.44665044712E+01  0.89058960177E+01  0.51100000000E-03 0. -1.
        -11    1    3    3    0    0  0.78864186513E+01 -0.70873786782E+01 -0.19347008548E+02  0.22062032447E+02  0.51100000000E-03 0.  1.
         12    1    3    3    0    0 -0.18616799431E+02  0.21254919254E+02 -0.21116845788E+01  0.28334008282E+02  0.00000000000E+00 0. -1.
</event>
<event>
 7    1  0.1324280E-011  0.5930228E+02  0.7816164E-02  0.1266604E+00
        -11   -1    0    0    0    0  0.00000000000E+00  0.00000000000E+00  0.45593999997E+02  0.45594000000E+02  0.51100000000E-03 0.  1.
         11   -1    0    0    0    0 -0.00000000000E+00 -0.00000000000E+00 -0.45593999997E+02  0.45594000000E+02  0.51100000000E-03 0. -1.
    9900012    2    1    2    0    0 -0.28197315402E+02  0.14093809787E+01 -0.14819720141E+02  0.59302281320E+02  0.50000615137E+02 0.  0.
        -12    1    1    2    0    0  0.28197315402E+02 -0.14093809787E+01  0.14819720141E+02  0.31885718680E+02  0.00000000000E+00 0.  1.
         11    1    3    3    0    0 -0.10174749392E+02  0.16969168766E+01 -0.30330640823E+01  0.10751954709E+02  0.51100000000E-03 0. -1.
        -11    1    3    3    0    0 -0.12636880889E+02  0.20847648395E+02 -0.10946898843E+02  0.26723581286E+02  0.51100000000E-03 0.  1.
        -12    1    3    3    0    0 -0.53856851221E+01 -0.21135184293E+02 -0.83975721596E+00  0.21826745326E+02  0.00000000000E+00 0.  1.
</event>
<event>
 7    1  0.1324280E-011  0.5930198E+02  0.7816164E-02  0.1266605E+00
        -11   -1    0    0    0    0  0.00000000000E+00  0.00000000000E+00  0.45593999997E+02  0.45594000000E+02  0.51100000000E-03 0.  1.
         11   -1    0    0    0    0 -0.00000000000E+00 -0.00000000000E+00 -0.45593999997E+02  0.45594000000E+02  0.51100000000E-03 0. -1.
    9900012    2    1    2    0    0  0.17807765350E+02  0.20024567353E+02 -0.17280579094E+02  0.59301980834E+02  0.50000067126E+02 0.  0.
        -12    1    1    2    0    0 -0.17807765350E+02 -0.20024567353E+02  0.17280579094E+02  0.31886019166E+02  0.00000000000E+00 0.  1.
         11    1    3    3    0    0 -0.57657268721E+01  0.10803316710E+01 -0.68636503540E+01  0.90288658937E+01  0.51100000000E-03 0. -1.
        -11    1    3    3    0    0  0.28436169525E+01  0.24253882267E+02  0.36115828995E+01  0.24685633346E+02  0.51100000000E-03 0.  1.
         12    1    3    3    0    0  0.20729875269E+02 -0.53096465845E+01 -0.14028511639E+02  0.25587481594E+02  0.00000000000E+00 0. -1.
</event>
<event>
 7    1  0.1324280E-011  0.5930170E+02  0.7816164E-02  0.1266606E+00
        -11   -1    0    0    0    0  0.00000000000E+00  0.00000000000E+00  0.45593999997E+02  0.45594000000E+02  0.51100000000E-03 0. -1.
         11   -1    0    0    0    0 -0.00000000000E+00 -0.00000000000E+00 -0.45593999997E+02  0.45594000000E+02  0.51100000000E-03 0.  1.
    9900012    2    1    2    0    0  0.47310444681E+01 -0.28610139018E+02 -0.13259459596E+02  0.59301700353E+02  0.49999555594E+02 0.  0.
        -12    1    1    2    0    0 -0.47310444681E+01  0.28610139018E+02  0.13259459596E+02  0.31886299647E+02  0.00000000000E+00 0.  1.
         11    1    3    3    0    0  0.45594470653E+01  0.38400071610E+01  0.75788490005E+01  0.96422593292E+01  0.51100000000E-03 0. -1.
        -11    1    3    3    0    0  0.40539651542E+01  0.34541493755E+01 -0.11012858777E+02  0.12233104270E+02  0.51100000000E-03 0.  1.
         12    1    3    3    0    0 -0.38823677514E+01 -0.35904295555E+02 -0.98254498196E+01  0.37426336754E+02  0.00000000000E+00 0. -1.
</event>
<event>
 7    1  0.1324280E-011  0.5930197E+02  0.7816164E-02  0.1266605E+00
        -11   -1    0    0    0    0  0.00000000000E+00  0.00000000000E+00  0.45593999997E+02  0.45594000000E+02  0.51100000000E-03 0.  1.
         11   -1    0    0    0    0 -0.00000000000E+00 -0.00000000000E+00 -0.45593999997E+02  0.45594000000E+02  0.51100000000E-03 0. -1.
    9900012    2    1    2    0    0  0.19000106302E+02  0.23716830992E+02  0.96554032204E+01  0.59301969781E+02  0.50000046967E+02 0.  0.
        -12    1    1    2    0    0 -0.19000106302E+02 -0.23716830992E+02 -0.96554032204E+01  0.31886030219E+02  0.00000000000E+00 0.  1.
         11    1    3    3    0    0  0.32964299175E+01  0.26334080284E+02 -0.34713660499E+01  0.26765661156E+02  0.51100000000E-03 0. -1.
        -11    1    3    3    0    0 -0.57611650807E+01 -0.51349480539E+01  0.10772948858E+01  0.77922576405E+01  0.51100000000E-03 0.  1.
        -12    1    3    3    0    0  0.21464841465E+02  0.25176987629E+01  0.12049474385E+02  0.24744050985E+02  0.00000000000E+00 0.  1.
</event>
<event>
 7    1  0.1324280E-011  0.5930191E+02  0.7816164E-02  0.1266605E+00
        -11   -1    0    0    0    0  0.00000000000E+00  0.00000000000E+00  0.45593999997E+02  0.45594000000E+02  0.51100000000E-03 0.  1.
         11   -1    0    0    0    0 -0.00000000000E+00 -0.00000000000E+00 -0.45593999997E+02  0.45594000000E+02  0.51100000000E-03 0. -1.
    9900012    2    1    2    0    0  0.15945527374E+02 -0.33701891056E+01 -0.27406286700E+02  0.59301912618E+02  0.49999942716E+02 0.  0.
        -12    1    1    2    0    0 -0.15945527374E+02  0.33701891056E+01  0.27406286700E+02  0.31886087382E+02  0.00000000000E+00 0.  1.
         11    1    3    3    0    0  0.17896127895E+02 -0.43095404433E+01 -0.78810942236E+01  0.20023865234E+02  0.51100000000E-03 0. -1.
        -11    1    3    3    0    0  0.49540425717E+01 -0.12981909516E+02 -0.19243854214E+02  0.23736015625E+02  0.51100000000E-03 0.  1.
         12    1    3    3    0    0 -0.69046430924E+01  0.13921260854E+02 -0.28133826288E+00  0.15542031759E+02  0.00000000000E+00 0. -1.
</event>
<event>
 7    1  0.1324280E-011  0.5930195E+02  0.7816164E-02  0.1266605E+00
        -11   -1    0    0    0    0  0.00000000000E+00  0.00000000000E+00  0.45593999997E+02  0.45594000000E+02  0.51100000000E-03 0. -1.
         11   -1    0    0    0    0 -0.00000000000E+00 -0.00000000000E+00 -0.45593999997E+02  0.45594000000E+02  0.51100000000E-03 0.  1.
    9900012    2    1    2    0    0 -0.19499279055E+02 -0.23997710529E+02 -0.77851210460E+01  0.59301951264E+02  0.50000013197E+02 0.  0.
        -12    1    1    2    0    0  0.19499279055E+02  0.23997710529E+02  0.77851210460E+01  0.31886048736E+02  0.00000000000E+00 0.  1.
         11    1    3    3    0    0 -0.15835690444E+02 -0.16033430014E+02 -0.92005592145E+01  0.24341122817E+02  0.51100000000E-03 0. -1.
        -11    1    3    3    0    0 -0.27657283385E+01 -0.19426251958E+02 -0.68692308497E+01  0.20789777563E+02  0.51100000000E-03 0.  1.
         12    1    3    3    0    0 -0.89786027239E+00  0.11461971443E+02  0.82846690182E+01  0.14171050885E+02  0.00000000000E+00 0. -1.
</event>
<event>
 7    1  0.1324280E-011  0.5930195E+02  0.7816164E-02  0.1266605E+00
        -11   -1    0    0    0    0  0.00000000000E+00  0.00000000000E+00  0.45593999997E+02  0.45594000000E+02  0.51100000000E-03 0.  1.
         11   -1    0    0    0    0 -0.00000000000E+00 -0.00000000000E+00 -0.45593999997E+02  0.45594000000E+02  0.51100000000E-03 0. -1.
    9900012    2    1    2    0    0  0.10115387400E+02 -0.29088607365E+02 -0.82614740563E+01  0.59301951416E+02  0.50000013475E+02 0.  0.
        -12    1    1    2    0    0 -0.10115387400E+02  0.29088607365E+02  0.82614740563E+01  0.31886048584E+02  0.00000000000E+00 0.  1.
         11    1    3    3    0    0  0.21163328659E+02 -0.12489374996E+01  0.10126261327E+02  0.23494414092E+02  0.51100000000E-03 0.  1.
        -11    1    3    3    0    0 -0.41237563060E+01 -0.13344256185E+02 -0.48040982266E+01  0.14770033826E+02  0.51100000000E-03 0. -1.
        -12    1    3    3    0    0 -0.69241849530E+01 -0.14495413681E+02 -0.13583637157E+02  0.21037503498E+02  0.00000000000E+00 0.  1.
</event>
<event>
 7    1  0.1324280E-011  0.5930193E+02  0.7816164E-02  0.1266605E+00
        -11   -1    0    0    0    0  0.00000000000E+00  0.00000000000E+00  0.45593999997E+02  0.45594000000E+02  0.51100000000E-03 0.  1.
         11   -1    0    0    0    0 -0.00000000000E+00 -0.00000000000E+00 -0.45593999997E+02  0.45594000000E+02  0.51100000000E-03 0. -1.
    9900012    2    1    2    0    0 -0.27830485269E+02 -0.13688175344E+02 -0.74040327985E+01  0.59301925356E+02  0.49999965947E+02 0.  0.
        -12    1    1    2    0    0  0.27830485269E+02  0.13688175344E+02  0.74040327985E+01  0.31886074644E+02  0.00000000000E+00 0.  1.
         11    1    3    3    0    0 -0.63464089384E+01  0.64427728324E+01  0.48100001502E+01  0.10243160152E+02  0.51100000000E-03 0. -1.
        -11    1    3    3    0    0 -0.80499049753E+00 -0.10285757900E+02  0.11934997990E+02  0.15776216357E+02  0.51100000000E-03 0.  1.
         12    1    3    3    0    0 -0.20679085833E+02 -0.98451902770E+01 -0.24149030939E+02  0.33282548847E+02  0.00000000000E+00 0. -1.
</event>
<event>
 7    1  0.1324280E-011  0.5930199E+02  0.7816164E-02  0.1266605E+00
        -11   -1    0    0    0    0  0.00000000000E+00  0.00000000000E+00  0.45593999997E+02  0.45594000000E+02  0.51100000000E-03 0. -1.
         11   -1    0    0    0    0 -0.00000000000E+00 -0.00000000000E+00 -0.45593999997E+02  0.45594000000E+02  0.51100000000E-03 0.  1.
    9900012    2    1    2    0    0 -0.29346975422E+02 -0.90888487621E+01 -0.85361421475E+01  0.59301986436E+02  0.50000077342E+02 0.  0.
        -12    1    1    2    0    0  0.29346975422E+02  0.90888487621E+01  0.85361421475E+01  0.31886013564E+02  0.00000000000E+00 0.  1.
         11    1    3    3    0    0 -0.23334511463E+02  0.16749576382E+02 -0.59771710341E+01  0.29338955469E+02  0.51100000000E-03 0.  1.
        -11    1    3    3    0    0  0.35036953301E+01 -0.60248525417E+01 -0.38177341692E+01  0.79466863260E+01  0.51100000000E-03 0. -1.
        -12    1    3    3    0    0 -0.95161592896E+01 -0.19813572603E+02  0.12587630558E+01  0.22016344641E+02  0.00000000000E+00 0.  1.
</event>
<event>
 7    1  0.1324280E-011  0.5930194E+02  0.7816164E-02  0.1266605E+00
        -11   -1    0    0    0    0  0.00000000000E+00  0.00000000000E+00  0.45593999997E+02  0.45594000000E+02  0.51100000000E-03 0. -1.
         11   -1    0    0    0    0 -0.00000000000E+00 -0.00000000000E+00 -0.45593999997E+02  0.45594000000E+02  0.51100000000E-03 0.  1.
    9900012    2    1    2    0    0 -0.19418278994E+02 -0.25270956698E+02  0.10150179583E+01  0.59301936070E+02  0.49999985486E+02 0.  0.
        -12    1    1    2    0    0  0.19418278994E+02  0.25270956698E+02 -0.10150179583E+01  0.31886063930E+02  0.00000000000E+00 0.  1.
         11    1    3    3    0    0 -0.20786707273E+01 -0.64724684454E+01 -0.18551075625E+02  0.19757432193E+02  0.51100000000E-03 0.  1.
        -11    1    3    3    0    0 -0.73778591212E+00  0.51313279873E+01  0.21705619298E+01  0.56201596345E+01  0.51100000000E-03 0. -1.
         12    1    3    3    0    0 -0.16601822355E+02 -0.23929816240E+02  0.17395531653E+02  0.33924344242E+02  0.00000000000E+00 0. -1.
</event>
<event>
 7    1  0.1324280E-011  0.5930196E+02  0.7816164E-02  0.1266605E+00
        -11   -1    0    0    0    0  0.00000000000E+00  0.00000000000E+00  0.45593999997E+02  0.45594000000E+02  0.51100000000E-03 0.  1.
         11   -1    0    0    0    0 -0.00000000000E+00 -0.00000000000E+00 -0.45593999997E+02  0.45594000000E+02  0.51100000000E-03 0. -1.
    9900012    2    1    2    0    0  0.10726042569E+02  0.28825063829E+02 -0.84135329002E+01  0.59301955564E+02  0.50000021039E+02 0.  0.
        -12    1    1    2    0    0 -0.10726042569E+02 -0.28825063829E+02  0.84135329002E+01  0.31886044436E+02  0.00000000000E+00 0.  1.
         11    1    3    3    0    0  0.90853403852E+01  0.14913500509E+02  0.62443034513E+01  0.18545814438E+02  0.51100000000E-03 0. -1.
        -11    1    3    3    0    0  0.41478646514E+01  0.23207943329E+02 -0.43384128663E+00  0.23579686878E+02  0.51100000000E-03 0.  1.
         12    1    3    3    0    0 -0.25071624678E+01 -0.92963800085E+01 -0.14223995065E+02  0.17176454247E+02  0.00000000000E+00 0. -1.
</event>
<event>
 7    1  0.1324280E-011  0.5930196E+02  0.7816164E-02  0.1266605E+00
        -11   -1    0    0    0    0  0.00000000000E+00  0.00000000000E+00  0.45593999997E+02  0.45594000000E+02  0.51100000000E-03 0. -1.
         11   -1    0    0    0    0 -0.00000000000E+00 -0.00000000000E+00 -0.45593999997E+02  0.45594000000E+02  0.51100000000E-03 0.  1.
    9900012    2    1    2    0    0  0.72821955508E+01 -0.77782463250E+01  0.30053092465E+02  0.59301955174E+02  0.50000020328E+02 0.  0.
        -12    1    1    2    0    0 -0.72821955508E+01  0.77782463250E+01 -0.30053092465E+02  0.31886044826E+02  0.00000000000E+00 0.  1.
         11    1    3    3    0    0  0.13744040757E+02 -0.87906881271E+01  0.22618295331E+02  0.27888387153E+02  0.51100000000E-03 0. -1.
        -11    1    3    3    0    0 -0.59857831363E+01 -0.14120347086E+02  0.28970818647E+01  0.15607910980E+02  0.51100000000E-03 0.  1.
        -12    1    3    3    0    0 -0.47606207008E+00  0.15132788888E+02  0.45377152700E+01  0.15805657041E+02  0.00000000000E+00 0.  1.
</event>
<event>
 7    1  0.1324280E-011  0.5930195E+02  0.7816164E-02  0.1266605E+00
        -11   -1    0    0    0    0  0.00000000000E+00  0.00000000000E+00  0.45593999997E+02  0.45594000000E+02  0.51100000000E-03 0.  1.
         11   -1    0    0    0    0 -0.00000000000E+00 -0.00000000000E+00 -0.45593999997E+02  0.45594000000E+02  0.51100000000E-03 0. -1.
    9900012    2    1    2    0    0  0.13133412206E+02  0.24060114998E+02 -0.16289408239E+02  0.59301945514E+02  0.50000002711E+02 0.  0.
        -12    1    1    2    0    0 -0.13133412206E+02 -0.24060114998E+02  0.16289408239E+02  0.31886054486E+02  0.00000000000E+00 0.  1.
         11    1    3    3    0    0 -0.33653933511E+01  0.38575937625E+01 -0.79292053696E+01  0.94381777954E+01  0.51100000000E-03 0. -1.
        -11    1    3    3    0    0 -0.13505513620E+02  0.21849497262E+01  0.74143972396E+00  0.13701191064E+02  0.51100000000E-03 0.  1.
        -12    1    3    3    0    0  0.30004319178E+02  0.18017571509E+02 -0.91016425933E+01  0.36162576655E+02  0.00000000000E+00 0.  1.
</event>
<event>
 7    1  0.2297519E-011  0.5930214E+02  0.7816164E-02  0.1266604E+00
        -11   -1    0    0    0    0  0.00000000000E+00  0.00000000000E+00  0.45593999997E+02  0.45594000000E+02  0.51100000000E-03 0.  1.
         11   -1    0    0    0    0 -0.00000000000E+00 -0.00000000000E+00 -0.45593999997E+02  0.45594000000E+02  0.51100000000E-03 0. -1.
    9900012    2    1    2    0    0 -0.17797077728E+02  0.22497751744E+02 -0.13922033812E+02  0.59302143659E+02  0.50000364077E+02 0.  0.
        -12    1    1    2    0    0  0.17797077728E+02 -0.22497751744E+02  0.13922033812E+02  0.31885856341E+02  0.00000000000E+00 0.  1.
         11    1    3    3    0    0 -0.18582310188E+02 -0.32676907990E+00 -0.80627070474E+00  0.18602663859E+02  0.51100000000E-03 0. -1.
        -11    1    3    3    0    0  0.75438819072E+01  0.53977403463E+00  0.67140521709E+01  0.10113357853E+02  0.51100000000E-03 0.  1.
         12    1    3    3    0    0 -0.67586494473E+01  0.22284746789E+02 -0.19829815278E+02  0.30586121947E+02  0.00000000000E+00 0. -1.
</event>
<event>
 7    1  0.1324280E-011  0.5930194E+02  0.7816164E-02  0.1266605E+00
        -11   -1    0    0    0    0  0.00000000000E+00  0.00000000000E+00  0.45593999997E+02  0.45594000000E+02  0.51100000000E-03 0.  1.
         11   -1    0    0    0    0 -0.00000000000E+00 -0.00000000000E+00 -0.45593999997E+02  0.45594000000E+02  0.51100000000E-03 0. -1.
    9900012    2    1    2    0    0 -0.28792725317E+01  0.23615652238E+02 -0.21230434453E+02  0.59301943674E+02  0.49999999355E+02 0.  0.
        -12    1    1    2    0    0  0.28792725317E+01 -0.23615652238E+02  0.21230434453E+02  0.31886056326E+02  0.00000000000E+00 0.  1.
         11    1    3    3    0    0  0.19688684621E+02  0.15666211074E+02 -0.93920915025E+01  0.26856765527E+02  0.51100000000E-03 0. -1.
        -11    1    3    3    0    0 -0.11377126986E+01  0.37501290083E+01  0.38986357874E+01  0.55278584486E+01  0.51100000000E-03 0.  1.
         12    1    3    3    0    0 -0.21430244454E+02  0.41993121563E+01 -0.15736978738E+02  0.26917319699E+02  0.00000000000E+00 0. -1.
</event>
<event>
 7    1  0.1324280E-011  0.5930195E+02  0.7816164E-02  0.1266605E+00
        -11   -1    0    0    0    0  0.00000000000E+00  0.00000000000E+00  0.45593999997E+02  0.45594000000E+02  0.51100000000E-03 0.  1.
         11   -1    0    0    0    0 -0.00000000000E+00 -0.00000000000E+00 -0.45593999997E+02  0.45594000000E+02  0.51100000000E-03 0. -1.
    9900012    2    1    2    0    0 -0.16913546367E+01  0.21613243165E+02 -0.23382201827E+02  0.59301947832E+02  0.50000006937E+02 0.  0.
        -12    1    1    2    0    0  0.16913546367E+01 -0.21613243165E+02  0.23382201827E+02  0.31886052168E+02  0.00000000000E+00 0.  1.
         11    1    3    3    0    0  0.10849255994E+02  0.24160883461E+02 -0.16435139893E+02  0.31169993083E+02  0.51100000000E-03 0. -1.
        -11    1    3    3    0    0 -0.14441240863E+02  0.79900700671E+01 -0.33897318377E+01  0.16848766707E+02  0.51100000000E-03 0.  1.
        -12    1    3    3    0    0  0.19006302323E+01 -0.10537710363E+02 -0.35573300961E+01  0.11283188042E+02  0.00000000000E+00 0.  1.
</event>
<event>
 7    1  0.1324280E-011  0.5930196E+02  0.7816164E-02  0.1266605E+00
        -11   -1    0    0    0    0  0.00000000000E+00  0.00000000000E+00  0.45593999997E+02  0.45594000000E+02  0.51100000000E-03 0. -1.
         11   -1    0    0    0    0 -0.00000000000E+00 -0.00000000000E+00 -0.45593999997E+02  0.45594000000E+02  0.51100000000E-03 0.  1.
    9900012    2    1    2    0    0  0.12633038994E+02 -0.28957710132E+02  0.43101074101E+01  0.59301957972E+02  0.50000025431E+02 0.  0.
        -12    1    1    2    0    0 -0.12633038994E+02  0.28957710132E+02 -0.43101074101E+01  0.31886042028E+02  0.00000000000E+00 0.  1.
         11    1    3    3    0    0 -0.51681323493E+01 -0.18793089101E+02 -0.14573154234E+02  0.24336528399E+02  0.51100000000E-03 0. -1.
        -11    1    3    3    0    0  0.35463022339E+01  0.17164137225E+01 -0.39253015123E+01  0.55615040974E+01  0.51100000000E-03 0.  1.
        -12    1    3    3    0    0  0.14254869109E+02 -0.11881034754E+02  0.22808563156E+02  0.29403925476E+02  0.00000000000E+00 0.  1.
</event>
<event>
 7    1  0.1324280E-011  0.5930195E+02  0.7816164E-02  0.1266605E+00
        -11   -1    0    0    0    0  0.00000000000E+00  0.00000000000E+00  0.45593999997E+02  0.45594000000E+02  0.51100000000E-03 0.  1.
         11   -1    0    0    0    0 -0.00000000000E+00 -0.00000000000E+00 -0.45593999997E+02  0.45594000000E+02  0.51100000000E-03 0. -1.
    9900012    2    1    2    0    0  0.10259647804E+02 -0.57190596045E+01 -0.29643758070E+02  0.59301946491E+02  0.50000004493E+02 0.  0.
        -12    1    1    2    0    0 -0.10259647804E+02  0.57190596045E+01  0.29643758070E+02  0.31886053509E+02  0.00000000000E+00 0.  1.
         11    1    3    3    0    0  0.26145963349E+01 -0.78181304457E+01  0.51712279212E+01  0.97314375164E+01  0.51100000000E-03 0. -1.
        -11    1    3    3    0    0  0.20394421602E+02  0.52489469868E+01 -0.15226543405E+02  0.25987141076E+02  0.51100000000E-03 0.  1.
         12    1    3    3    0    0 -0.12749370133E+02 -0.31498761455E+01 -0.19588442586E+02  0.23583367899E+02  0.00000000000E+00 0. -1.
</event>
<event>
 7    1  0.1324280E-011  0.5930190E+02  0.7816164E-02  0.1266605E+00
        -11   -1    0    0    0    0  0.00000000000E+00  0.00000000000E+00  0.45593999997E+02  0.45594000000E+02  0.51100000000E-03 0.  1.
         11   -1    0    0    0    0 -0.00000000000E+00 -0.00000000000E+00 -0.45593999997E+02  0.45594000000E+02  0.51100000000E-03 0. -1.
    9900012    2    1    2    0    0 -0.22254766951E+02  0.28041310047E+01  0.22662421144E+02  0.59301903738E+02  0.49999926522E+02 0.  0.
        -12    1    1    2    0    0  0.22254766951E+02 -0.28041310047E+01 -0.22662421144E+02  0.31886096262E+02  0.00000000000E+00 0.  1.
         11    1    3    3    0    0  0.30810429395E+01 -0.33256397159E+01 -0.77750736840E+01  0.90002486725E+01  0.51100000000E-03 0. -1.
        -11    1    3    3    0    0  0.49545933492E+01  0.48604305295E+01  0.14443222526E+02  0.16024308328E+02  0.51100000000E-03 0.  1.
         12    1    3    3    0    0 -0.30290403239E+02  0.12693401912E+01  0.15994272301E+02  0.34277346738E+02  0.00000000000E+00 0. -1.
</event>
<event>
 7    1  0.1324280E-011  0.5930195E+02  0.7816164E-02  0.1266605E+00
        -11   -1    0    0    0    0  0.00000000000E+00  0.00000000000E+00  0.45593999997E+02  0.45594000000E+02  0.51100000000E-03 0. -1.
         11   -1    0    0    0    0 -0.00000000000E+00 -0.00000000000E+00 -0.45593999997E+02  0.45594000000E+02  0.51100000000E-03 0.  1.
    9900012    2    1    2    0    0  0.15921865859E+02 -0.18415945943E+02  0.20592890621E+02  0.59301952557E+02  0.50000015556E+02 0.  0.
        -12    1    1    2    0    0 -0.15921865859E+02  0.18415945943E+02 -0.20592890621E+02  0.31886047443E+02  0.00000000000E+00 0.  1.
         11    1    3    3    0    0 -0.11275069292E+02 -0.34611025008E+01  0.59803275054E+01  0.13223869910E+02  0.51100000000E-03 0. -1.
        -11    1    3    3    0    0 -0.23812801922E+00  0.44491140978E+01  0.11497365053E+02  0.12330479497E+02  0.51100000000E-03 0.  1.
        -12    1    3    3    0    0  0.27435063170E+02 -0.19403957540E+02  0.31151980624E+01  0.33747603150E+02  0.00000000000E+00 0.  1.
</event>
<event>
 7    1  0.1324280E-011  0.5930195E+02  0.7816164E-02  0.1266605E+00
        -11   -1    0    0    0    0  0.00000000000E+00  0.00000000000E+00  0.45593999997E+02  0.45594000000E+02  0.51100000000E-03 0. -1.
         11   -1    0    0    0    0 -0.00000000000E+00 -0.00000000000E+00 -0.45593999997E+02  0.45594000000E+02  0.51100000000E-03 0.  1.
    9900012    2    1    2    0    0 -0.17681698829E+02 -0.95817975202E+01  0.24744029479E+02  0.59301948002E+02  0.50000007247E+02 0.  0.
        -12    1    1    2    0    0  0.17681698829E+02  0.95817975202E+01 -0.24744029479E+02  0.31886051998E+02  0.00000000000E+00 0.  1.
         11    1    3    3    0    0 -0.52262830917E+01 -0.66850981231E+00  0.19648429064E+02  0.20342608124E+02  0.51100000000E-03 0. -1.
        -11    1    3    3    0    0  0.54253465339E+01 -0.12569926964E+02 -0.85765992568E+01  0.16155355272E+02  0.51100000000E-03 0.  1.
         12    1    3    3    0    0 -0.17880762271E+02  0.36566392559E+01  0.13672199671E+02  0.22803984606E+02  0.00000000000E+00 0. -1.
</event>
<event>
 7    1  0.1324280E-011  0.5930195E+02  0.7816164E-02  0.1266605E+00
        -11   -1    0    0    0    0  0.00000000000E+00  0.00000000000E+00  0.45593999997E+02  0.45594000000E+02  0.51100000000E-03 0.  1.
         11   -1    0    0    0    0 -0.00000000000E+00 -0.00000000000E+00 -0.45593999997E+02  0.45594000000E+02  0.51100000000E-03 0. -1.
    9900012    2    1    2    0    0  0.20317443214E+02 -0.24276510177E+01 -0.24454613256E+02  0.59301951363E+02  0.50000013377E+02 0.  0.
        -12    1    1    2    0    0 -0.20317443214E+02  0.24276510177E+01  0.24454613256E+02  0.31886048637E+02  0.00000000000E+00 0.  1.
         11    1    3    3    0    0  0.23722269706E+02 -0.24715469799E+01 -0.18793590006E+02  0.30365336324E+02  0.51100000000E-03 0. -1.
        -11    1    3    3    0    0 -0.43479246105E+00 -0.61660158189E+01 -0.15638023692E+02  0.16815367401E+02  0.51100000000E-03 0.  1.
        -12    1    3    3    0    0 -0.29700340309E+01  0.62099117811E+01  0.99770004429E+01  0.12121247638E+02  0.00000000000E+00 0.  1.
</event>
<event>
 7    1  0.1324280E-011  0.5930195E+02  0.7816164E-02  0.1266605E+00
        -11   -1    0    0    0    0  0.00000000000E+00  0.00000000000E+00  0.45593999997E+02  0.45594000000E+02  0.51100000000E-03 0. -1.
         11   -1    0    0    0    0 -0.00000000000E+00 -0.00000000000E+00 -0.45593999997E+02  0.45594000000E+02  0.51100000000E-03 0.  1.
    9900012    2    1    2    0    0  0.18974858738E+02 -0.24125854445E+02  0.86381909084E+01  0.59301945697E+02  0.50000003045E+02 0.  0.
        -12    1    1    2    0    0 -0.18974858738E+02  0.24125854445E+02 -0.86381909084E+01  0.31886054303E+02  0.00000000000E+00 0.  1.
         11    1    3    3    0    0  0.88806284843E+01 -0.11843148946E+02  0.12895896756E+02  0.19632368493E+02  0.51100000000E-03 0. -1.
        -11    1    3    3    0    0  0.18925716691E+01  0.89505866853E+01  0.94059385233E+01  0.13121223621E+02  0.51100000000E-03 0.  1.
        -12    1    3    3    0    0  0.82016585844E+01 -0.21233292184E+02 -0.13663644371E+02  0.26548353584E+02  0.00000000000E+00 0.  1.
</event>
<event>
 7    1  0.1324280E-011  0.5930196E+02  0.7816164E-02  0.1266605E+00
        -11   -1    0    0    0    0  0.00000000000E+00  0.00000000000E+00  0.45593999997E+02  0.45594000000E+02  0.51100000000E-03 0.  1.
         11   -1    0    0    0    0 -0.00000000000E+00 -0.00000000000E+00 -0.45593999997E+02  0.45594000000E+02  0.51100000000E-03 0. -1.
    9900012    2    1    2    0    0 -0.93410604857E+01 -0.70352023504E+00 -0.30478995312E+02  0.59301960626E+02  0.50000030271E+02 0.  0.
        -12    1    1    2    0    0  0.93410604857E+01  0.70352023504E+00  0.30478995312E+02  0.31886039374E+02  0.00000000000E+00 0.  1.
         11    1    3    3    0    0 -0.59793529109E+01 -0.13437826420E+02 -0.17147309024E+02  0.22591105487E+02  0.51100000000E-03 0. -1.
        -11    1    3    3    0    0 -0.10659254510E+02 -0.62020929105E+01  0.17432714332E+00  0.12333533695E+02  0.51100000000E-03 0.  1.
        -12    1    3    3    0    0  0.72975469354E+01  0.18936399095E+02 -0.13506013432E+02  0.24377321444E+02  0.00000000000E+00 0.  1.
</event>
<event>
 7    1  0.1324280E-011  0.5930200E+02  0.7816164E-02  0.1266605E+00
        -11   -1    0    0    0    0  0.00000000000E+00  0.00000000000E+00  0.45593999997E+02  0.45594000000E+02  0.51100000000E-03 0.  1.
         11   -1    0    0    0    0 -0.00000000000E+00 -0.00000000000E+00 -0.45593999997E+02  0.45594000000E+02  0.51100000000E-03 0. -1.
    9900012    2    1    2    0    0  0.75853736607E+01 -0.28155718831E+02 -0.12900963991E+02  0.59301995730E+02  0.50000094292E+02 0.  0.
        -12    1    1    2    0    0 -0.75853736607E+01  0.28155718831E+02  0.12900963991E+02  0.31886004270E+02  0.00000000000E+00 0.  1.
         11    1    3    3    0    0  0.91764696462E+01 -0.59516358604E+01 -0.12855980531E+01  0.11012825577E+02  0.51100000000E-03 0. -1.
        -11    1    3    3    0    0  0.43002528749E+01  0.11569709297E+02 -0.52800906301E+01  0.13424965748E+02  0.51100000000E-03 0.  1.
         12    1    3    3    0    0 -0.58913488604E+01 -0.33773792267E+02 -0.63352753078E+01  0.34864204404E+02  0.00000000000E+00 0. -1.
</event>
<event>
 7    1  0.1324280E-011  0.5930186E+02  0.7816164E-02  0.1266605E+00
        -11   -1    0    0    0    0  0.00000000000E+00  0.00000000000E+00  0.45593999997E+02  0.45594000000E+02  0.51100000000E-03 0.  1.
         11   -1    0    0    0    0 -0.00000000000E+00 -0.00000000000E+00 -0.45593999997E+02  0.45594000000E+02  0.51100000000E-03 0. -1.
    9900012    2    1    2    0    0  0.12851779611E+02  0.25123862223E+02 -0.14844168834E+02  0.59301858174E+02  0.49999843423E+02 0.  0.
        -12    1    1    2    0    0 -0.12851779611E+02 -0.25123862223E+02  0.14844168834E+02  0.31886141826E+02  0.00000000000E+00 0.  1.
         11    1    3    3    0    0  0.72273781021E+01  0.93780583545E+01  0.44537349124E+00  0.11848262765E+02  0.51100000000E-03 0. -1.
        -11    1    3    3    0    0  0.87327060522E+01 -0.13039090653E+02 -0.79182048401E+01  0.17577713395E+02  0.51100000000E-03 0.  1.
         12    1    3    3    0    0 -0.31083045435E+01  0.28784894522E+02 -0.73713374851E+01  0.29875882014E+02  0.00000000000E+00 0. -1.
</event>
<event>
 7    1  0.1324280E-011  0.5930189E+02  0.7816164E-02  0.1266605E+00
        -11   -1    0    0    0    0  0.00000000000E+00  0.00000000000E+00  0.45593999997E+02  0.45594000000E+02  0.51100000000E-03 0.  1.
         11   -1    0    0    0    0 -0.00000000000E+00 -0.00000000000E+00 -0.45593999997E+02  0.45594000000E+02  0.51100000000E-03 0. -1.
    9900012    2    1    2    0    0 -0.21254737080E+02 -0.22367659389E+02  0.80404085608E+01  0.59301886961E+02  0.49999895924E+02 0.  0.
        -12    1    1    2    0    0  0.21254737080E+02  0.22367659389E+02 -0.80404085608E+01  0.31886113039E+02  0.00000000000E+00 0.  1.
         11    1    3    3    0    0 -0.10529376664E+01 -0.25906461783E+02 -0.36982200488E+01  0.26190270553E+02  0.51100000000E-03 0. -1.
        -11    1    3    3    0    0  0.32810533754E+01  0.39638233163E+01 -0.24211251353E+01  0.56867436831E+01  0.51100000000E-03 0.  1.
        -12    1    3    3    0    0 -0.23482852789E+02 -0.42502092275E+00  0.14159753745E+02  0.27424872726E+02  0.00000000000E+00 0.  1.
</event>
<event>
 7    1  0.1324280E-011  0.5930188E+02  0.7816164E-02  0.1266605E+00
        -11   -1    0    0    0    0  0.00000000000E+00  0.00000000000E+00  0.45593999997E+02  0.45594000000E+02  0.51100000000E-03 0. -1.
         11   -1    0    0    0    0 -0.00000000000E+00 -0.00000000000E+00 -0.45593999997E+02  0.45594000000E+02  0.51100000000E-03 0.  1.
    9900012    2    1    2    0    0 -0.35072450502E+01  0.11683999530E+02  0.29460282664E+02  0.59301876568E+02  0.49999876969E+02 0.  0.
        -12    1    1    2    0    0  0.35072450502E+01 -0.11683999530E+02 -0.29460282664E+02  0.31886123432E+02  0.00000000000E+00 0.  1.
         11    1    3    3    0    0  0.22265010860E+01 -0.56031591609E+01 -0.35227308337E+00  0.60396023259E+01  0.51100000000E-03 0. -1.
        -11    1    3    3    0    0 -0.21204227871E+02  0.13945999989E+01  0.98477456940E+01  0.23420979576E+02  0.51100000000E-03 0.  1.
         12    1    3    3    0    0  0.15470481735E+02  0.15892558692E+02  0.19964810054E+02  0.29841294666E+02  0.00000000000E+00 0. -1.
</event>
<event>
 7    1  0.1324280E-011  0.5930190E+02  0.7816164E-02  0.1266605E+00
        -11   -1    0    0    0    0  0.00000000000E+00  0.00000000000E+00  0.45593999997E+02  0.45594000000E+02  0.51100000000E-03 0. -1.
         11   -1    0    0    0    0 -0.00000000000E+00 -0.00000000000E+00 -0.45593999997E+02  0.45594000000E+02  0.51100000000E-03 0.  1.
    9900012    2    1    2    0    0 -0.17262471859E+02  0.22622756525E+02  0.14385465091E+02  0.59301895607E+02  0.49999911692E+02 0.  0.
        -12    1    1    2    0    0  0.17262471859E+02 -0.22622756525E+02 -0.14385465091E+02  0.31886104393E+02  0.00000000000E+00 0.  1.
         11    1    3    3    0    0  0.39748920377E+01 -0.16164900213E+01  0.55302747435E+01  0.69997675461E+01  0.51100000000E-03 0. -1.
        -11    1    3    3    0    0 -0.19520349953E+02  0.21838386923E+02 -0.11696226387E+02  0.31539830654E+02  0.51100000000E-03 0.  1.
         12    1    3    3    0    0 -0.17170139435E+01  0.24008596228E+01  0.20551416735E+02  0.20762297407E+02  0.00000000000E+00 0. -1.
</event>
<event>
 7    1  0.1324280E-011  0.5930178E+02  0.7816164E-02  0.1266605E+00
        -11   -1    0    0    0    0  0.00000000000E+00  0.00000000000E+00  0.45593999997E+02  0.45594000000E+02  0.51100000000E-03 0. -1.
         11   -1    0    0    0    0 -0.00000000000E+00 -0.00000000000E+00 -0.45593999997E+02  0.45594000000E+02  0.51100000000E-03 0.  1.
    9900012    2    1    2    0    0  0.31820569974E+02  0.18435198946E+01  0.88530284524E+00  0.59301780402E+02  0.49999701586E+02 0.  0.
        -12    1    1    2    0    0 -0.31820569974E+02 -0.18435198946E+01 -0.88530284524E+00  0.31886219598E+02  0.00000000000E+00 0.  1.
         11    1    3    3    0    0  0.25200648269E+02  0.63412754458E+01  0.68724335549E+01  0.26879635241E+02  0.51100000000E-03 0. -1.
        -11    1    3    3    0    0  0.10459921175E+02  0.10881722714E+02  0.94006119944E+00  0.15123014102E+02  0.51100000000E-03 0.  1.
         12    1    3    3    0    0 -0.38399994702E+01 -0.15379478265E+02 -0.69271919091E+01  0.17299131059E+02  0.00000000000E+00 0. -1.
</event>
<event>
 7    1  0.1324280E-011  0.5930199E+02  0.7816164E-02  0.1266605E+00
        -11   -1    0    0    0    0  0.00000000000E+00  0.00000000000E+00  0.45593999997E+02  0.45594000000E+02  0.51100000000E-03 0. -1.
         11   -1    0    0    0    0 -0.00000000000E+00 -0.00000000000E+00 -0.45593999997E+02  0.45594000000E+02  0.51100000000E-03 0.  1.
    9900012    2    1    2    0    0 -0.13745252366E+02  0.28736546497E+02  0.14130830550E+01  0.59301986281E+02  0.50000077059E+02 0.  0.
        -12    1    1    2    0    0  0.13745252366E+02 -0.28736546497E+02 -0.14130830550E+01  0.31886013719E+02  0.00000000000E+00 0.  1.
         11    1    3    3    0    0 -0.11821012539E+02  0.18392927219E+01 -0.94840750987E+01  0.15266532544E+02  0.51100000000E-03 0. -1.
        -11    1    3    3    0    0 -0.64005224911E+01  0.16129294837E+02 -0.10055883462E+02  0.20055962518E+02  0.51100000000E-03 0.  1.
         12    1    3    3    0    0  0.44762826642E+01  0.10767958939E+02  0.20953041615E+02  0.23979491219E+02  0.00000000000E+00 0. -1.
</event>
<event>
 7    1  0.1324280E-011  0.5930202E+02  0.7816164E-02  0.1266605E+00
        -11   -1    0    0    0    0  0.00000000000E+00  0.00000000000E+00  0.45593999997E+02  0.45594000000E+02  0.51100000000E-03 0.  1.
         11   -1    0    0    0    0 -0.00000000000E+00 -0.00000000000E+00 -0.45593999997E+02  0.45594000000E+02  0.51100000000E-03 0. -1.
    9900012    2    1    2    0    0  0.23085536929E+02 -0.20595640950E+02 -0.77196765557E+01  0.59302018009E+02  0.50000134924E+02 0.  0.
        -12    1    1    2    0    0 -0.23085536929E+02  0.20595640950E+02  0.77196765557E+01  0.31885981991E+02  0.00000000000E+00 0.  1.
         11    1    3    3    0    0  0.25920295625E+02 -0.12203635308E+02  0.51102358406E+01  0.29101631408E+02  0.51100000000E-03 0. -1.
        -11    1    3    3    0    0  0.44576259373E+01 -0.18037439215E+01  0.67527733971E+01  0.82899861245E+01  0.51100000000E-03 0.  1.
        -12    1    3    3    0    0 -0.72923846336E+01 -0.65882617206E+01 -0.19582685793E+02  0.21910400476E+02  0.00000000000E+00 0.  1.
</event>
<event>
 7    1  0.1324280E-011  0.5930191E+02  0.7816164E-02  0.1266605E+00
        -11   -1    0    0    0    0  0.00000000000E+00  0.00000000000E+00  0.45593999997E+02  0.45594000000E+02  0.51100000000E-03 0.  1.
         11   -1    0    0    0    0 -0.00000000000E+00 -0.00000000000E+00 -0.45593999997E+02  0.45594000000E+02  0.51100000000E-03 0. -1.
    9900012    2    1    2    0    0  0.18688561782E+02  0.87157699211E+01 -0.24320690396E+02  0.59301906352E+02  0.49999931289E+02 0.  0.
        -12    1    1    2    0    0 -0.18688561782E+02 -0.87157699211E+01  0.24320690396E+02  0.31886093648E+02  0.00000000000E+00 0.  1.
         11    1    3    3    0    0 -0.76314726378E+01  0.53248718473E+01 -0.80645079030E+01  0.12313810247E+02  0.51100000000E-03 0. -1.
        -11    1    3    3    0    0 -0.48538683942E+01  0.27399853487E+01  0.63690550245E+01  0.84635938150E+01  0.51100000000E-03 0.  1.
         12    1    3    3    0    0  0.31173902814E+02  0.65091272511E+00 -0.22625237517E+02  0.38524502291E+02  0.00000000000E+00 0. -1.
</event>
<event>
 7    1  0.1324280E-011  0.5930193E+02  0.7816164E-02  0.1266605E+00
        -11   -1    0    0    0    0  0.00000000000E+00  0.00000000000E+00  0.45593999997E+02  0.45594000000E+02  0.51100000000E-03 0.  1.
         11   -1    0    0    0    0 -0.00000000000E+00 -0.00000000000E+00 -0.45593999997E+02  0.45594000000E+02  0.51100000000E-03 0. -1.
    9900012    2    1    2    0    0 -0.20525489504E+02 -0.32356167902E+01 -0.24185872305E+02  0.59301931654E+02  0.49999977433E+02 0.  0.
        -12    1    1    2    0    0  0.20525489504E+02  0.32356167902E+01  0.24185872305E+02  0.31886068346E+02  0.00000000000E+00 0.  1.
         11    1    3    3    0    0 -0.15031286279E+02 -0.47273424674E+01  0.49467353159E+01  0.16515372371E+02  0.51100000000E-03 0. -1.
        -11    1    3    3    0    0 -0.52464233232E+00 -0.81461145732E+01  0.31360444380E+01  0.87446673576E+01  0.51100000000E-03 0.  1.
         12    1    3    3    0    0 -0.49695608928E+01  0.96378402503E+01 -0.32268652059E+02  0.34041891926E+02  0.00000000000E+00 0. -1.
</event>
<event>
 7    1  0.1559766E-011  0.5930195E+02  0.7816164E-02  0.1266605E+00
        -11   -1    0    0    0    0  0.00000000000E+00  0.00000000000E+00  0.45593999997E+02  0.45594000000E+02  0.51100000000E-03 0. -1.
         11   -1    0    0    0    0 -0.00000000000E+00 -0.00000000000E+00 -0.45593999997E+02  0.45594000000E+02  0.51100000000E-03 0.  1.
    9900012    2    1    2    0    0  0.20500525771E+02 -0.13055744420E+02  0.20639675963E+02  0.59301949083E+02  0.50000009219E+02 0.  0.
        -12    1    1    2    0    0 -0.20500525771E+02  0.13055744420E+02 -0.20639675963E+02  0.31886050917E+02  0.00000000000E+00 0.  1.
         11    1    3    3    0    0 -0.72853032624E+00  0.44747554153E+01 -0.57380854023E+00  0.45698412407E+01  0.51100000000E-03 0. -1.
        -11    1    3    3    0    0 -0.27273905279E+00 -0.11811308020E+02 -0.10625285484E+02  0.15889558698E+02  0.51100000000E-03 0.  1.
         12    1    3    3    0    0  0.21501795150E+02 -0.57191918150E+01  0.31838769987E+02  0.38842549144E+02  0.00000000000E+00 0. -1.
</event>
<event>
 7    1  0.1324280E-011  0.5930196E+02  0.7816164E-02  0.1266605E+00
        -11   -1    0    0    0    0  0.00000000000E+00  0.00000000000E+00  0.45593999997E+02  0.45594000000E+02  0.51100000000E-03 0.  1.
         11   -1    0    0    0    0 -0.00000000000E+00 -0.00000000000E+00 -0.45593999997E+02  0.45594000000E+02  0.51100000000E-03 0. -1.
    9900012    2    1    2    0    0 -0.41594930309E+01 -0.15699276688E+02 -0.27439955214E+02  0.59301955828E+02  0.50000021521E+02 0.  0.
        -12    1    1    2    0    0  0.41594930309E+01  0.15699276688E+02  0.27439955214E+02  0.31886044172E+02  0.00000000000E+00 0.  1.
         11    1    3    3    0    0  0.20798962028E+01 -0.30736516486E+01  0.38750232795E+01  0.53655482803E+01  0.51100000000E-03 0. -1.
        -11    1    3    3    0    0  0.47639266728E+01 -0.62620277719E+01  0.88301276545E+01  0.11827051358E+02  0.51100000000E-03 0.  1.
         12    1    3    3    0    0 -0.11003315907E+02 -0.63635972671E+01 -0.40145106148E+02  0.42109356190E+02  0.00000000000E+00 0. -1.
</event>
<event>
 7    1  0.1324280E-011  0.5930197E+02  0.7816164E-02  0.1266605E+00
        -11   -1    0    0    0    0  0.00000000000E+00  0.00000000000E+00  0.45593999997E+02  0.45594000000E+02  0.51100000000E-03 0.  1.
         11   -1    0    0    0    0 -0.00000000000E+00 -0.00000000000E+00 -0.45593999997E+02  0.45594000000E+02  0.51100000000E-03 0. -1.
    9900012    2    1    2    0    0  0.23026543483E+02 -0.83934090238E+01 -0.20397259734E+02  0.59301965055E+02  0.50000038349E+02 0.  0.
        -12    1    1    2    0    0 -0.23026543483E+02  0.83934090238E+01  0.20397259734E+02  0.31886034945E+02  0.00000000000E+00 0.  1.
         11    1    3    3    0    0 -0.59311462706E+01 -0.63986453113E+01 -0.68456585839E+00  0.87515592084E+01  0.51100000000E-03 0. -1.
        -11    1    3    3    0    0 -0.73611093990E+01  0.13926633035E+01 -0.10552402838E+02  0.12941354202E+02  0.51100000000E-03 0.  1.
         12    1    3    3    0    0  0.36318799153E+02 -0.33874270160E+01 -0.91602910377E+01  0.37609051644E+02  0.00000000000E+00 0. -1.
</event>
<event>
 7    1  0.1324280E-011  0.5930188E+02  0.7816164E-02  0.1266605E+00
        -11   -1    0    0    0    0  0.00000000000E+00  0.00000000000E+00  0.45593999997E+02  0.45594000000E+02  0.51100000000E-03 0.  1.
         11   -1    0    0    0    0 -0.00000000000E+00 -0.00000000000E+00 -0.45593999997E+02  0.45594000000E+02  0.51100000000E-03 0. -1.
    9900012    2    1    2    0    0  0.18257682790E+02 -0.46412365379E+01 -0.25726262671E+02  0.59301880002E+02  0.49999883233E+02 0.  0.
        -12    1    1    2    0    0 -0.18257682790E+02  0.46412365379E+01  0.25726262671E+02  0.31886119998E+02  0.00000000000E+00 0.  1.
         11    1    3    3    0    0  0.17487086775E+02 -0.87087825235E+01 -0.13778799085E+02  0.23905990911E+02  0.51100000000E-03 0. -1.
        -11    1    3    3    0    0  0.13462677278E+02  0.11352089345E+02 -0.10930656399E+02  0.20726622049E+02  0.51100000000E-03 0.  1.
        -12    1    3    3    0    0 -0.12692081263E+02 -0.72845433591E+01 -0.10168071867E+01  0.14669267043E+02  0.00000000000E+00 0.  1.
</event>
<event>
 7    1  0.1324280E-011  0.5930203E+02  0.7816164E-02  0.1266604E+00
        -11   -1    0    0    0    0  0.00000000000E+00  0.00000000000E+00  0.45593999997E+02  0.45594000000E+02  0.51100000000E-03 0. -1.
         11   -1    0    0    0    0 -0.00000000000E+00 -0.00000000000E+00 -0.45593999997E+02  0.45594000000E+02  0.51100000000E-03 0.  1.
    9900012    2    1    2    0    0 -0.30393118680E+02  0.28864888610E+01  0.92000751316E+01  0.59302033440E+02  0.50000163066E+02 0.  0.
        -12    1    1    2    0    0  0.30393118680E+02 -0.28864888610E+01 -0.92000751316E+01  0.31885966560E+02  0.00000000000E+00 0.  1.
         11    1    3    3    0    0 -0.20770312416E+02 -0.45305365923E+01 -0.60466023181E+01  0.22101878643E+02  0.51100000000E-03 0. -1.
        -11    1    3    3    0    0 -0.72791849303E+01 -0.95214508999E+01  0.16109150276E+02  0.20078577723E+02  0.51100000000E-03 0.  1.
        -12    1    3    3    0    0 -0.23436213337E+01  0.16938476353E+02 -0.86247282657E+00  0.17121577074E+02  0.00000000000E+00 0.  1.
</event>
<event>
 7    1  0.1630808E-011  0.5930194E+02  0.7816164E-02  0.1266605E+00
        -11   -1    0    0    0    0  0.00000000000E+00  0.00000000000E+00  0.45593999997E+02  0.45594000000E+02  0.51100000000E-03 0.  1.
         11   -1    0    0    0    0 -0.00000000000E+00 -0.00000000000E+00 -0.45593999997E+02  0.45594000000E+02  0.51100000000E-03 0. -1.
    9900012    2    1    2    0    0  0.31847560073E+02  0.14443993676E+01  0.60615270940E+00  0.59301940456E+02  0.49999993485E+02 0.  0.
        -12    1    1    2    0    0 -0.31847560073E+02 -0.14443993676E+01 -0.60615270940E+00  0.31886059544E+02  0.00000000000E+00 0.  1.
         11    1    3    3    0    0  0.12800633305E+02 -0.95737705237E+01 -0.73491963159E+01  0.17593293660E+02  0.51100000000E-03 0. -1.
        -11    1    3    3    0    0 -0.27871511387E+01 -0.77922720432E+00  0.15501469649E+02  0.15769304615E+02  0.51100000000E-03 0.  1.
         12    1    3    3    0    0  0.21834077907E+02  0.11797397096E+02 -0.75461206239E+01  0.25939342181E+02  0.00000000000E+00 0. -1.
</event>
<event>
 7    1  0.1324280E-011  0.5930197E+02  0.7816164E-02  0.1266605E+00
        -11   -1    0    0    0    0  0.00000000000E+00  0.00000000000E+00  0.45593999997E+02  0.45594000000E+02  0.51100000000E-03 0.  1.
         11   -1    0    0    0    0 -0.00000000000E+00 -0.00000000000E+00 -0.45593999997E+02  0.45594000000E+02  0.51100000000E-03 0. -1.
    9900012    2    1    2    0    0  0.18602160285E+02 -0.14182313486E+02 -0.21668889379E+02  0.59301966223E+02  0.50000040479E+02 0.  0.
        -12    1    1    2    0    0 -0.18602160285E+02  0.14182313486E+02  0.21668889379E+02  0.31886033777E+02  0.00000000000E+00 0.  1.
         11    1    3    3    0    0  0.46804244312E+01 -0.34408623558E+01  0.91517085136E+01  0.10839726730E+02  0.51100000000E-03 0. -1.
        -11    1    3    3    0    0  0.21785273843E+02 -0.13730251287E+02 -0.13201379470E+02  0.28937767312E+02  0.51100000000E-03 0.  1.
         12    1    3    3    0    0 -0.78635379898E+01  0.29888001569E+01 -0.17619218423E+02  0.19524472181E+02  0.00000000000E+00 0. -1.
</event>
<event>
 7    1  0.1324280E-011  0.5930195E+02  0.7816164E-02  0.1266605E+00
        -11   -1    0    0    0    0  0.00000000000E+00  0.00000000000E+00  0.45593999997E+02  0.45594000000E+02  0.51100000000E-03 0.  1.
         11   -1    0    0    0    0 -0.00000000000E+00 -0.00000000000E+00 -0.45593999997E+02  0.45594000000E+02  0.51100000000E-03 0. -1.
    9900012    2    1    2    0    0  0.19173973762E+02  0.89055071324E+01 -0.23869867429E+02  0.59301954491E+02  0.50000019083E+02 0.  0.
        -12    1    1    2    0    0 -0.19173973762E+02 -0.89055071324E+01  0.23869867429E+02  0.31886045509E+02  0.00000000000E+00 0.  1.
         11    1    3    3    0    0 -0.25465245461E+01 -0.88594564503E+01 -0.18461603742E+02  0.20635056793E+02  0.51100000000E-03 0. -1.
        -11    1    3    3    0    0  0.10415053459E+02 -0.27935813273E+01 -0.10061063594E+02  0.14747963795E+02  0.51100000000E-03 0.  1.
        -12    1    3    3    0    0  0.11305444849E+02  0.20558544910E+02  0.46527999081E+01  0.23918933903E+02  0.00000000000E+00 0.  1.
</event>
<event>
 7    1  0.1324280E-011  0.5930193E+02  0.7816164E-02  0.1266605E+00
        -11   -1    0    0    0    0  0.00000000000E+00  0.00000000000E+00  0.45593999997E+02  0.45594000000E+02  0.51100000000E-03 0.  1.
         11   -1    0    0    0    0 -0.00000000000E+00 -0.00000000000E+00 -0.45593999997E+02  0.45594000000E+02  0.51100000000E-03 0. -1.
    9900012    2    1    2    0    0 -0.24748704482E+02  0.12766206995E+02 -0.15532138991E+02  0.59301925356E+02  0.49999965947E+02 0.  0.
        -12    1    1    2    0    0  0.24748704482E+02 -0.12766206995E+02  0.15532138991E+02  0.31886074644E+02  0.00000000000E+00 0.  1.
         11    1    3    3    0    0  0.44383422316E+01 -0.52058042880E+00 -0.36206508120E+01  0.57514344569E+01  0.51100000000E-03 0.  1.
        -11    1    3    3    0    0 -0.35755408603E+01  0.24162325555E+01 -0.23146073656E+02  0.23544922981E+02  0.51100000000E-03 0. -1.
         12    1    3    3    0    0 -0.25611505854E+02  0.10870554868E+02  0.11234585477E+02  0.30005567918E+02  0.00000000000E+00 0. -1.
</event>
<event>
 7    1  0.1324280E-011  0.5930203E+02  0.7816164E-02  0.1266604E+00
        -11   -1    0    0    0    0  0.00000000000E+00  0.00000000000E+00  0.45593999997E+02  0.45594000000E+02  0.51100000000E-03 0.  1.
         11   -1    0    0    0    0 -0.00000000000E+00 -0.00000000000E+00 -0.45593999997E+02  0.45594000000E+02  0.51100000000E-03 0. -1.
    9900012    2    1    2    0    0 -0.30257594582E+02 -0.81743838440E+01 -0.58628110380E+01  0.59302029192E+02  0.50000155319E+02 0.  0.
        -12    1    1    2    0    0  0.30257594582E+02  0.81743838440E+01  0.58628110380E+01  0.31885970808E+02  0.00000000000E+00 0.  1.
         11    1    3    3    0    0 -0.22493701558E+02  0.65549599242E+01 -0.10245659824E+02  0.25571618151E+02  0.51100000000E-03 0. -1.
        -11    1    3    3    0    0 -0.63952002697E+01 -0.12253540533E+02  0.16363730026E+02  0.21420072425E+02  0.51100000000E-03 0.  1.
         12    1    3    3    0    0 -0.13686927541E+01 -0.24758032354E+01 -0.11980881241E+02  0.12310338615E+02  0.00000000000E+00 0. -1.
</event>
<event>
 7    1  0.1324280E-011  0.5930195E+02  0.7816164E-02  0.1266605E+00
        -11   -1    0    0    0    0  0.00000000000E+00  0.00000000000E+00  0.45593999997E+02  0.45594000000E+02  0.51100000000E-03 0.  1.
         11   -1    0    0    0    0 -0.00000000000E+00 -0.00000000000E+00 -0.45593999997E+02  0.45594000000E+02  0.51100000000E-03 0. -1.
    9900012    2    1    2    0    0  0.79221799281E+01  0.19828923698E+02 -0.23680650944E+02  0.59301946952E+02  0.50000005333E+02 0.  0.
        -12    1    1    2    0    0 -0.79221799281E+01 -0.19828923698E+02  0.23680650944E+02  0.31886053048E+02  0.00000000000E+00 0.  1.
         11    1    3    3    0    0 -0.63891297353E+01  0.18489181627E+02 -0.88875660369E+01  0.21486266458E+02  0.51100000000E-03 0. -1.
        -11    1    3    3    0    0  0.58522252604E+01  0.70589160238E+01  0.84245202515E+01  0.12451882495E+02  0.51100000000E-03 0.  1.
         12    1    3    3    0    0  0.84590844029E+01 -0.57191739525E+01 -0.23217605159E+02  0.25363797999E+02  0.00000000000E+00 0. -1.
</event>
<event>
 7    1  0.1324280E-011  0.5930191E+02  0.7816164E-02  0.1266605E+00
        -11   -1    0    0    0    0  0.00000000000E+00  0.00000000000E+00  0.45593999997E+02  0.45594000000E+02  0.51100000000E-03 0.  1.
         11   -1    0    0    0    0 -0.00000000000E+00 -0.00000000000E+00 -0.45593999997E+02  0.45594000000E+02  0.51100000000E-03 0. -1.
    9900012    2    1    2    0    0 -0.59696209194E+01 -0.26115668064E+02 -0.17293298444E+02  0.59301911130E+02  0.49999940002E+02 0.  0.
        -12    1    1    2    0    0  0.59696209194E+01  0.26115668064E+02  0.17293298444E+02  0.31886088870E+02  0.00000000000E+00 0.  1.
         11    1    3    3    0    0  0.37518253587E+00  0.52898650295E+01 -0.12994439558E+01  0.54600356061E+01  0.51100000000E-03 0. -1.
        -11    1    3    3    0    0 -0.93496055449E+01  0.69518504058E+00 -0.19275122360E+02  0.21434289079E+02  0.51100000000E-03 0.  1.
         12    1    3    3    0    0  0.30048020896E+01 -0.32100718134E+02  0.32812678712E+01  0.32407586445E+02  0.00000000000E+00 0. -1.
</event>
<event>
 7    1  0.1324280E-011  0.5930196E+02  0.7816164E-02  0.1266605E+00
        -11   -1    0    0    0    0  0.00000000000E+00  0.00000000000E+00  0.45593999997E+02  0.45594000000E+02  0.51100000000E-03 0. -1.
         11   -1    0    0    0    0 -0.00000000000E+00 -0.00000000000E+00 -0.45593999997E+02  0.45594000000E+02  0.51100000000E-03 0.  1.
    9900012    2    1    2    0    0 -0.13973664204E+02 -0.26239801393E+02  0.11529478666E+02  0.59301963139E+02  0.50000034854E+02 0.  0.
        -12    1    1    2    0    0  0.13973664204E+02  0.26239801393E+02 -0.11529478666E+02  0.31886036861E+02  0.00000000000E+00 0.  1.
         11    1    3    3    0    0  0.12622015033E+02  0.14639505299E+01 -0.33001488622E+00  0.12710913607E+02  0.51100000000E-03 0. -1.
        -11    1    3    3    0    0  0.26702562236E+01 -0.10937267941E+02  0.18567825776E+01  0.11410597711E+02  0.51100000000E-03 0.  1.
         12    1    3    3    0    0 -0.29265935460E+02 -0.16766483981E+02  0.10002710975E+02  0.35180451821E+02  0.00000000000E+00 0. -1.
</event>
<event>
 7    1  0.1324280E-011  0.5930201E+02  0.7816164E-02  0.1266605E+00
        -11   -1    0    0    0    0  0.00000000000E+00  0.00000000000E+00  0.45593999997E+02  0.45594000000E+02  0.51100000000E-03 0.  1.
         11   -1    0    0    0    0 -0.00000000000E+00 -0.00000000000E+00 -0.45593999997E+02  0.45594000000E+02  0.51100000000E-03 0. -1.
    9900012    2    1    2    0    0  0.80237442479E+01 -0.20848469931E+02 -0.22752523704E+02  0.59302007697E+02  0.50000116118E+02 0.  0.
        -12    1    1    2    0    0 -0.80237442479E+01  0.20848469931E+02  0.22752523704E+02  0.31885992303E+02  0.00000000000E+00 0.  1.
         11    1    3    3    0    0 -0.12007606796E+02 -0.94243294271E+01 -0.23270544892E+01  0.15440718538E+02  0.51100000000E-03 0. -1.
        -11    1    3    3    0    0 -0.17373846074E+01  0.54552544870E+01  0.40495973065E+01  0.70126703471E+01  0.51100000000E-03 0.  1.
         12    1    3    3    0    0  0.21768735651E+02 -0.16879394991E+02 -0.24475066521E+02  0.36848618812E+02  0.00000000000E+00 0. -1.
</event>
<event>
 7    1  0.1324280E-011  0.5930196E+02  0.7816164E-02  0.1266605E+00
        -11   -1    0    0    0    0  0.00000000000E+00  0.00000000000E+00  0.45593999997E+02  0.45594000000E+02  0.51100000000E-03 0.  1.
         11   -1    0    0    0    0 -0.00000000000E+00 -0.00000000000E+00 -0.45593999997E+02  0.45594000000E+02  0.51100000000E-03 0. -1.
    9900012    2    1    2    0    0 -0.10563943039E+01 -0.17782360693E+02 -0.26446007698E+02  0.59301958478E+02  0.50000026354E+02 0.  0.
        -12    1    1    2    0    0  0.10563943039E+01  0.17782360693E+02  0.26446007698E+02  0.31886041522E+02  0.00000000000E+00 0.  1.
         11    1    3    3    0    0 -0.12400215161E+02 -0.80626879665E+01  0.67317741057E+01  0.16250817092E+02  0.51100000000E-03 0. -1.
        -11    1    3    3    0    0  0.18825119022E+01 -0.12637189249E+02 -0.59791544240E+01  0.14106476919E+02  0.51100000000E-03 0.  1.
        -12    1    3    3    0    0  0.94613089544E+01  0.29175165225E+01 -0.27198627380E+02  0.28944664468E+02  0.00000000000E+00 0.  1.
</event>
<event>
 7    1  0.1324280E-011  0.5930204E+02  0.7816164E-02  0.1266604E+00
        -11   -1    0    0    0    0  0.00000000000E+00  0.00000000000E+00  0.45593999997E+02  0.45594000000E+02  0.51100000000E-03 0.  1.
         11   -1    0    0    0    0 -0.00000000000E+00 -0.00000000000E+00 -0.45593999997E+02  0.45594000000E+02  0.51100000000E-03 0. -1.
    9900012    2    1    2    0    0  0.25561710888E+02  0.58961281887E+01 -0.18125924871E+02  0.59302038457E+02  0.50000172216E+02 0.  0.
        -12    1    1    2    0    0 -0.25561710888E+02 -0.58961281887E+01  0.18125924871E+02  0.31885961543E+02  0.00000000000E+00 0.  1.
         11    1    3    3    0    0  0.11951834980E+02  0.18427456276E+02 -0.18836524021E+01  0.22044628616E+02  0.51100000000E-03 0. -1.
        -11    1    3    3    0    0 -0.57186102225E+01 -0.67936069198E+01  0.30134102809E+01  0.93774324652E+01  0.51100000000E-03 0.  1.
        -12    1    3    3    0    0  0.19328486130E+02 -0.57377211679E+01 -0.19255682749E+02  0.27879977375E+02  0.00000000000E+00 0.  1.
</event>
<event>
 7    1  0.1324280E-011  0.5930212E+02  0.7816164E-02  0.1266604E+00
        -11   -1    0    0    0    0  0.00000000000E+00  0.00000000000E+00  0.45593999997E+02  0.45594000000E+02  0.51100000000E-03 0.  1.
         11   -1    0    0    0    0 -0.00000000000E+00 -0.00000000000E+00 -0.45593999997E+02  0.45594000000E+02  0.51100000000E-03 0. -1.
    9900012    2    1    2    0    0  0.25551453303E+02  0.17079961433E+02  0.84916168798E+01  0.59302119023E+02  0.50000319148E+02 0.  0.
        -12    1    1    2    0    0 -0.25551453303E+02 -0.17079961433E+02 -0.84916168798E+01  0.31885880977E+02  0.00000000000E+00 0.  1.
         11    1    3    3    0    0 -0.16195685549E+00 -0.38567166262E+01 -0.65652450372E+01  0.76159658492E+01  0.51100000000E-03 0. -1.
        -11    1    3    3    0    0 -0.67155498922E+01  0.12678477065E+02  0.10788948277E+02  0.17951150276E+02  0.51100000000E-03 0.  1.
        -12    1    3    3    0    0  0.32428960051E+02  0.82582009950E+01  0.42679136396E+01  0.33735002897E+02  0.00000000000E+00 0.  1.
</event>
<event>
 7    1  0.1324280E-011  0.5930196E+02  0.7816164E-02  0.1266605E+00
        -11   -1    0    0    0    0  0.00000000000E+00  0.00000000000E+00  0.45593999997E+02  0.45594000000E+02  0.51100000000E-03 0.  1.
         11   -1    0    0    0    0 -0.00000000000E+00 -0.00000000000E+00 -0.45593999997E+02  0.45594000000E+02  0.51100000000E-03 0. -1.
    9900012    2    1    2    0    0  0.25628598213E+02 -0.13188789871E+02 -0.13636350368E+02  0.59301964248E+02  0.50000036877E+02 0.  0.
        -12    1    1    2    0    0 -0.25628598213E+02  0.13188789871E+02  0.13636350368E+02  0.31886035752E+02  0.00000000000E+00 0.  1.
         11    1    3    3    0    0  0.16034909338E+01 -0.13175681058E+02 -0.87850556398E+01  0.15916876496E+02  0.51100000000E-03 0. -1.
        -11    1    3    3    0    0  0.12029882436E+01  0.30904593994E+01 -0.17017132055E+02  0.17337269210E+02  0.51100000000E-03 0.  1.
         12    1    3    3    0    0  0.22822119036E+02 -0.31035682122E+01  0.12165837327E+02  0.26047818542E+02  0.00000000000E+00 0. -1.
</event>
<event>
 7    1  0.1324280E-011  0.5930194E+02  0.7816164E-02  0.1266605E+00
        -11   -1    0    0    0    0  0.00000000000E+00  0.00000000000E+00  0.45593999997E+02  0.45594000000E+02  0.51100000000E-03 0.  1.
         11   -1    0    0    0    0 -0.00000000000E+00 -0.00000000000E+00 -0.45593999997E+02  0.45594000000E+02  0.51100000000E-03 0. -1.
    9900012    2    1    2    0    0  0.89200055198E+01  0.29997228747E+02 -0.61090654709E+01  0.59301938595E+02  0.49999990093E+02 0.  0.
        -12    1    1    2    0    0 -0.89200055198E+01 -0.29997228747E+02  0.61090654709E+01  0.31886061405E+02  0.00000000000E+00 0.  1.
         11    1    3    3    0    0 -0.85589611021E+00  0.37118011870E+02  0.17009701481E+01  0.37166822073E+02  0.51100000000E-03 0.  1.
        -11    1    3    3    0    0  0.81046734450E+01  0.21325134764E+01  0.19267646318E+01  0.85991724942E+01  0.51100000000E-03 0. -1.
         12    1    3    3    0    0  0.16712281850E+01 -0.92532965994E+01 -0.97368002508E+01  0.13535944028E+02  0.00000000000E+00 0. -1.
</event>
<event>
 7    1  0.1324280E-011  0.5930199E+02  0.7816164E-02  0.1266605E+00
        -11   -1    0    0    0    0  0.00000000000E+00  0.00000000000E+00  0.45593999997E+02  0.45594000000E+02  0.51100000000E-03 0.  1.
         11   -1    0    0    0    0 -0.00000000000E+00 -0.00000000000E+00 -0.45593999997E+02  0.45594000000E+02  0.51100000000E-03 0. -1.
    9900012    2    1    2    0    0  0.18752940638E+02  0.17720973602E+02 -0.18735318871E+02  0.59301986433E+02  0.50000077338E+02 0.  0.
        -12    1    1    2    0    0 -0.18752940638E+02 -0.17720973602E+02  0.18735318871E+02  0.31886013567E+02  0.00000000000E+00 0.  1.
         11    1    3    3    0    0 -0.71615127882E+01  0.50486782054E+01 -0.17305215438E+01  0.89314680827E+01  0.51100000000E-03 0. -1.
        -11    1    3    3    0    0  0.10564831766E+02 -0.13288814744E+02 -0.35398632652E+01  0.17341825156E+02  0.51100000000E-03 0.  1.
         12    1    3    3    0    0  0.15349621660E+02  0.25961110141E+02 -0.13464934062E+02  0.33028693195E+02  0.00000000000E+00 0. -1.
</event>
<event>
 7    1  0.1324280E-011  0.5930195E+02  0.7816164E-02  0.1266605E+00
        -11   -1    0    0    0    0  0.00000000000E+00  0.00000000000E+00  0.45593999997E+02  0.45594000000E+02  0.51100000000E-03 0. -1.
         11   -1    0    0    0    0 -0.00000000000E+00 -0.00000000000E+00 -0.45593999997E+02  0.45594000000E+02  0.51100000000E-03 0.  1.
    9900012    2    1    2    0    0 -0.57082853675E+01  0.30130592792E+02 -0.87340278037E+01  0.59301946849E+02  0.50000005146E+02 0.  0.
        -12    1    1    2    0    0  0.57082853675E+01 -0.30130592792E+02  0.87340278037E+01  0.31886053151E+02  0.00000000000E+00 0.  1.
         11    1    3    3    0    0 -0.18850959522E+01 -0.73575778143E+01  0.96175142546E+01  0.12254963025E+02  0.51100000000E-03 0. -1.
        -11    1    3    3    0    0  0.34710190777E+01  0.16851959523E+02 -0.18356678538E+02  0.25159573931E+02  0.51100000000E-03 0.  1.
         12    1    3    3    0    0 -0.72942084930E+01  0.20636211084E+02  0.51364794905E-02  0.21887409893E+02  0.00000000000E+00 0. -1.
</event>
<event>
 7    1  0.1324280E-011  0.5930194E+02  0.7816164E-02  0.1266605E+00
        -11   -1    0    0    0    0  0.00000000000E+00  0.00000000000E+00  0.45593999997E+02  0.45594000000E+02  0.51100000000E-03 0. -1.
         11   -1    0    0    0    0 -0.00000000000E+00 -0.00000000000E+00 -0.45593999997E+02  0.45594000000E+02  0.51100000000E-03 0.  1.
    9900012    2    1    2    0    0 -0.18956634715E+02 -0.11598793983E+02  0.22865580224E+02  0.59301940655E+02  0.49999993849E+02 0.  0.
        -12    1    1    2    0    0  0.18956634715E+02  0.11598793983E+02 -0.22865580224E+02  0.31886059345E+02  0.00000000000E+00 0.  1.
         11    1    3    3    0    0  0.28099372999E+01  0.40453723737E+01  0.12108012799E+01  0.50721617947E+01  0.51100000000E-03 0. -1.
        -11    1    3    3    0    0 -0.23230763738E+02 -0.59608345828E+01 -0.61427845228E+01  0.24757498556E+02  0.51100000000E-03 0.  1.
         12    1    3    3    0    0  0.14641917233E+01 -0.96833317742E+01  0.27797563467E+02  0.29472280305E+02  0.00000000000E+00 0. -1.
</event>
<event>
 7    1  0.1324280E-011  0.5930192E+02  0.7816164E-02  0.1266605E+00
        -11   -1    0    0    0    0  0.00000000000E+00  0.00000000000E+00  0.45593999997E+02  0.45594000000E+02  0.51100000000E-03 0.  1.
         11   -1    0    0    0    0 -0.00000000000E+00 -0.00000000000E+00 -0.45593999997E+02  0.45594000000E+02  0.51100000000E-03 0. -1.
    9900012    2    1    2    0    0 -0.12307318646E+02  0.21400488885E+02  0.20180956308E+02  0.59301921309E+02  0.49999958567E+02 0.  0.
        -12    1    1    2    0    0  0.12307318646E+02 -0.21400488885E+02 -0.20180956308E+02  0.31886078691E+02  0.00000000000E+00 0.  1.
         11    1    3    3    0    0 -0.80331622697E+01 -0.57873381168E+01  0.73926806133E+01  0.12356241558E+02  0.51100000000E-03 0.  1.
        -11    1    3    3    0    0 -0.11556503967E+02  0.29644021179E+02  0.19004805156E+02  0.37060806722E+02  0.51100000000E-03 0. -1.
         12    1    3    3    0    0  0.72823475905E+01 -0.24561941768E+01 -0.62165294616E+01  0.98848730295E+01  0.00000000000E+00 0. -1.
</event>
<event>
 7    1  0.1324280E-011  0.5930191E+02  0.7816164E-02  0.1266605E+00
        -11   -1    0    0    0    0  0.00000000000E+00  0.00000000000E+00  0.45593999997E+02  0.45594000000E+02  0.51100000000E-03 0. -1.
         11   -1    0    0    0    0 -0.00000000000E+00 -0.00000000000E+00 -0.45593999997E+02  0.45594000000E+02  0.51100000000E-03 0.  1.
    9900012    2    1    2    0    0 -0.28507498567E+02 -0.14100829248E+02  0.22829364369E+01  0.59301911202E+02  0.49999940134E+02 0.  0.
        -12    1    1    2    0    0  0.28507498567E+02  0.14100829248E+02 -0.22829364369E+01  0.31886088798E+02  0.00000000000E+00 0.  1.
         11    1    3    3    0    0 -0.18205565380E+00 -0.18865035881E+02 -0.11717077728E+02  0.22208391067E+02  0.51100000000E-03 0. -1.
        -11    1    3    3    0    0  0.26411250091E+01 -0.10192670806E+01  0.14824616184E+01  0.31956438172E+01  0.51100000000E-03 0.  1.
        -12    1    3    3    0    0 -0.30966567923E+02  0.57834737132E+01  0.12517552547E+02  0.33897876318E+02  0.00000000000E+00 0.  1.
</event>
<event>
 7    1  0.1324280E-011  0.5930195E+02  0.7816164E-02  0.1266605E+00
        -11   -1    0    0    0    0  0.00000000000E+00  0.00000000000E+00  0.45593999997E+02  0.45594000000E+02  0.51100000000E-03 0.  1.
         11   -1    0    0    0    0 -0.00000000000E+00 -0.00000000000E+00 -0.45593999997E+02  0.45594000000E+02  0.51100000000E-03 0. -1.
    9900012    2    1    2    0    0  0.27962923978E+02  0.15067702989E+02 -0.27855942892E+01  0.59301947778E+02  0.50000006840E+02 0.  0.
        -12    1    1    2    0    0 -0.27962923978E+02 -0.15067702989E+02  0.27855942892E+01  0.31886052222E+02  0.00000000000E+00 0.  1.
         11    1    3    3    0    0  0.44424393846E+01  0.35362890082E+01 -0.12522996214E+02  0.13750128802E+02  0.51100000000E-03 0. -1.
        -11    1    3    3    0    0  0.24181312046E+02  0.26013411347E+01 -0.80658821453E+01  0.25623451817E+02  0.51100000000E-03 0.  1.
        -12    1    3    3    0    0 -0.66082745281E+00  0.89300728457E+01  0.17803284070E+02  0.19928367159E+02  0.00000000000E+00 0.  1.
</event>
<event>
 7    1  0.1324280E-011  0.5930191E+02  0.7816164E-02  0.1266605E+00
        -11   -1    0    0    0    0  0.00000000000E+00  0.00000000000E+00  0.45593999997E+02  0.45594000000E+02  0.51100000000E-03 0.  1.
         11   -1    0    0    0    0 -0.00000000000E+00 -0.00000000000E+00 -0.45593999997E+02  0.45594000000E+02  0.51100000000E-03 0. -1.
    9900012    2    1    2    0    0  0.84488634252E+01  0.29715368011E+02  0.78953427479E+01  0.59301908576E+02  0.49999935344E+02 0.  0.
        -12    1    1    2    0    0 -0.84488634252E+01 -0.29715368011E+02 -0.78953427479E+01  0.31886091424E+02  0.00000000000E+00 0.  1.
         11    1    3    3    0    0  0.13970096556E+02  0.24344288708E+02  0.20622900613E+02  0.34829757686E+02  0.51100000000E-03 0. -1.
        -11    1    3    3    0    0  0.71131881718E+01  0.13032090048E-01 -0.34410420206E+01  0.79017963940E+01  0.51100000000E-03 0.  1.
        -12    1    3    3    0    0 -0.12634421303E+02  0.53580472132E+01 -0.92865158446E+01  0.16570354496E+02  0.00000000000E+00 0.  1.
</event>
<event>
 7    1  0.1324280E-011  0.5930198E+02  0.7816164E-02  0.1266605E+00
        -11   -1    0    0    0    0  0.00000000000E+00  0.00000000000E+00  0.45593999997E+02  0.45594000000E+02  0.51100000000E-03 0.  1.
         11   -1    0    0    0    0 -0.00000000000E+00 -0.00000000000E+00 -0.45593999997E+02  0.45594000000E+02  0.51100000000E-03 0. -1.
    9900012    2    1    2    0    0 -0.35124673339E+01 -0.39802850160E+01 -0.31441029197E+02  0.59301977787E+02  0.50000061570E+02 0.  0.
        -12    1    1    2    0    0  0.35124673339E+01  0.39802850160E+01  0.31441029197E+02  0.31886022213E+02  0.00000000000E+00 0.  1.
         11    1    3    3    0    0 -0.25737645697E+01 -0.18180810062E+01 -0.51538354466E+01  0.60408362564E+01  0.51100000000E-03 0.  1.
        -11    1    3    3    0    0 -0.18243870773E+02  0.13410446599E+02 -0.94755618683E+01  0.24545165954E+02  0.51100000000E-03 0. -1.
        -12    1    3    3    0    0  0.17305168009E+02 -0.15572650608E+02 -0.16811631882E+02  0.28715975577E+02  0.00000000000E+00 0.  1.
</event>
<event>
 7    1  0.1324280E-011  0.5930194E+02  0.7816164E-02  0.1266605E+00
        -11   -1    0    0    0    0  0.00000000000E+00  0.00000000000E+00  0.45593999997E+02  0.45594000000E+02  0.51100000000E-03 0.  1.
         11   -1    0    0    0    0 -0.00000000000E+00 -0.00000000000E+00 -0.45593999997E+02  0.45594000000E+02  0.51100000000E-03 0. -1.
    9900012    2    1    2    0    0  0.18976782934E+00 -0.24911008132E+02 -0.19902918731E+02  0.59301944866E+02  0.50000001529E+02 0.  0.
        -12    1    1    2    0    0 -0.18976782934E+00  0.24911008132E+02  0.19902918731E+02  0.31886055134E+02  0.00000000000E+00 0.  1.
         11    1    3    3    0    0  0.17481358019E+02 -0.64097132282E+01 -0.12967641738E+02  0.22690130770E+02  0.51100000000E-03 0. -1.
        -11    1    3    3    0    0 -0.11600279298E+01 -0.58781032275E+01  0.88946475812E+01  0.10724388943E+02  0.51100000000E-03 0.  1.
        -12    1    3    3    0    0 -0.16131562260E+02 -0.12623191676E+02 -0.15829924574E+02  0.25887425153E+02  0.00000000000E+00 0.  1.
</event>
<event>
 7    1  0.1324280E-011  0.5930201E+02  0.7816164E-02  0.1266605E+00
        -11   -1    0    0    0    0  0.00000000000E+00  0.00000000000E+00  0.45593999997E+02  0.45594000000E+02  0.51100000000E-03 0.  1.
         11   -1    0    0    0    0 -0.00000000000E+00 -0.00000000000E+00 -0.45593999997E+02  0.45594000000E+02  0.51100000000E-03 0. -1.
    9900012    2    1    2    0    0 -0.80733421154E+01 -0.18491847386E+02 -0.24689853883E+02  0.59302013150E+02  0.50000126061E+02 0.  0.
        -12    1    1    2    0    0  0.80733421154E+01  0.18491847386E+02  0.24689853883E+02  0.31885986850E+02  0.00000000000E+00 0.  1.
         11    1    3    3    0    0  0.11718206083E+02  0.59060246846E+01  0.10263268310E+01  0.13162478050E+02  0.51100000000E-03 0. -1.
        -11    1    3    3    0    0 -0.18855384669E+02 -0.87906028565E+01 -0.74549560487E+01  0.22099244320E+02  0.51100000000E-03 0.  1.
         12    1    3    3    0    0 -0.93616352989E+00 -0.15607269214E+02 -0.18261224665E+02  0.24040290779E+02  0.00000000000E+00 0. -1.
</event>
<event>
 7    1  0.1324280E-011  0.5930195E+02  0.7816164E-02  0.1266605E+00
        -11   -1    0    0    0    0  0.00000000000E+00  0.00000000000E+00  0.45593999997E+02  0.45594000000E+02  0.51100000000E-03 0.  1.
         11   -1    0    0    0    0 -0.00000000000E+00 -0.00000000000E+00 -0.45593999997E+02  0.45594000000E+02  0.51100000000E-03 0. -1.
    9900012    2    1    2    0    0 -0.18337767180E+02  0.20999579216E+02 -0.15474624751E+02  0.59301952212E+02  0.50000014926E+02 0.  0.
        -12    1    1    2    0    0  0.18337767180E+02 -0.20999579216E+02  0.15474624751E+02  0.31886047788E+02  0.00000000000E+00 0.  1.
         11    1    3    3    0    0 -0.50982261450E+01  0.13959750740E+02 -0.13658542148E+02  0.20184705210E+02  0.51100000000E-03 0. -1.
        -11    1    3    3    0    0  0.47299041628E+01 -0.10090293619E+02 -0.77722345520E+01  0.13586524534E+02  0.51100000000E-03 0.  1.
         12    1    3    3    0    0 -0.17969445198E+02  0.17130122096E+02  0.59561519490E+01  0.25530722468E+02  0.00000000000E+00 0. -1.
</event>
<event>
 7    1  0.1324280E-011  0.5930193E+02  0.7816164E-02  0.1266605E+00
        -11   -1    0    0    0    0  0.00000000000E+00  0.00000000000E+00  0.45593999997E+02  0.45594000000E+02  0.51100000000E-03 0. -1.
         11   -1    0    0    0    0 -0.00000000000E+00 -0.00000000000E+00 -0.45593999997E+02  0.45594000000E+02  0.51100000000E-03 0.  1.
    9900012    2    1    2    0    0  0.85409614897E+01  0.29966262358E+02  0.67672947324E+01  0.59301934378E+02  0.49999982401E+02 0.  0.
        -12    1    1    2    0    0 -0.85409614897E+01 -0.29966262358E+02 -0.67672947324E+01  0.31886065622E+02  0.00000000000E+00 0.  1.
         11    1    3    3    0    0  0.10642439370E+02  0.26598263522E+02 -0.14429150518E+01  0.28684684803E+02  0.51100000000E-03 0. -1.
        -11    1    3    3    0    0  0.12193738091E+02  0.62802882802E+01  0.82929314263E+01  0.16028162135E+02  0.51100000000E-03 0.  1.
         12    1    3    3    0    0 -0.14295215971E+02 -0.29122894441E+01 -0.82721642105E-01  0.14589087440E+02  0.00000000000E+00 0. -1.
</event>
<event>
 7    1  0.1324280E-011  0.5930196E+02  0.7816164E-02  0.1266605E+00
        -11   -1    0    0    0    0  0.00000000000E+00  0.00000000000E+00  0.45593999997E+02  0.45594000000E+02  0.51100000000E-03 0. -1.
         11   -1    0    0    0    0 -0.00000000000E+00 -0.00000000000E+00 -0.45593999997E+02  0.45594000000E+02  0.51100000000E-03 0.  1.
    9900012    2    1    2    0    0 -0.69629069881E+01 -0.30982574401E+02 -0.28840362045E+01  0.59301958304E+02  0.50000026036E+02 0.  0.
        -12    1    1    2    0    0  0.69629069881E+01  0.30982574401E+02  0.28840362045E+01  0.31886041696E+02  0.00000000000E+00 0.  1.
         11    1    3    3    0    0 -0.31228915554E+01 -0.86561762654E+01 -0.74620332295E+01  0.11847522078E+02  0.51100000000E-03 0. -1.
        -11    1    3    3    0    0  0.17765525669E+02 -0.35369662152E+01  0.50942667823E+01  0.18816896307E+02  0.51100000000E-03 0.  1.
         12    1    3    3    0    0 -0.21605541102E+02 -0.18789431920E+02 -0.51626975734E+00  0.28637539919E+02  0.00000000000E+00 0. -1.
</event>
<event>
 7    1  0.1324280E-011  0.5930194E+02  0.7816164E-02  0.1266605E+00
        -11   -1    0    0    0    0  0.00000000000E+00  0.00000000000E+00  0.45593999997E+02  0.45594000000E+02  0.51100000000E-03 0.  1.
         11   -1    0    0    0    0 -0.00000000000E+00 -0.00000000000E+00 -0.45593999997E+02  0.45594000000E+02  0.51100000000E-03 0. -1.
    9900012    2    1    2    0    0 -0.29247456809E+02  0.10369742204E+02 -0.73331722723E+01  0.59301941937E+02  0.49999996188E+02 0.  0.
        -12    1    1    2    0    0  0.29247456809E+02 -0.10369742204E+02  0.73331722723E+01  0.31886058063E+02  0.00000000000E+00 0.  1.
         11    1    3    3    0    0  0.30927658936E+01  0.67637027821E+01 -0.65509331154E+01  0.99109838634E+01  0.51100000000E-03 0. -1.
        -11    1    3    3    0    0  0.41298053661E+01  0.38388343168E+01  0.98955657799E+01  0.11389212600E+02  0.51100000000E-03 0.  1.
         12    1    3    3    0    0 -0.36470028069E+02 -0.23279489465E+00 -0.10677804937E+02  0.38001745474E+02  0.00000000000E+00 0. -1.
</event>
<event>
 7    1  0.1324280E-011  0.5930195E+02  0.7816164E-02  0.1266605E+00
        -11   -1    0    0    0    0  0.00000000000E+00  0.00000000000E+00  0.45593999997E+02  0.45594000000E+02  0.51100000000E-03 0. -1.
         11   -1    0    0    0    0 -0.00000000000E+00 -0.00000000000E+00 -0.45593999997E+02  0.45594000000E+02  0.51100000000E-03 0.  1.
    9900012    2    1    2    0    0  0.30061623195E+02 -0.42450104885E+01 -0.97467323368E+01  0.59301951414E+02  0.50000013471E+02 0.  0.
        -12    1    1    2    0    0 -0.30061623195E+02  0.42450104885E+01  0.97467323368E+01  0.31886048586E+02  0.00000000000E+00 0.  1.
         11    1    3    3    0    0 -0.13533005726E+01  0.79486721679E+01  0.37056144921E-01  0.80631374224E+01  0.51100000000E-03 0. -1.
        -11    1    3    3    0    0  0.15580999692E+02 -0.63918401192E+01 -0.23906456318E+02  0.29242808098E+02  0.51100000000E-03 0.  1.
         12    1    3    3    0    0  0.15833924076E+02 -0.58018425372E+01  0.14122667836E+02  0.21996005894E+02  0.00000000000E+00 0. -1.
</event>
<event>
 7    1  0.1324280E-011  0.5930197E+02  0.7816164E-02  0.1266605E+00
        -11   -1    0    0    0    0  0.00000000000E+00  0.00000000000E+00  0.45593999997E+02  0.45594000000E+02  0.51100000000E-03 0. -1.
         11   -1    0    0    0    0 -0.00000000000E+00 -0.00000000000E+00 -0.45593999997E+02  0.45594000000E+02  0.51100000000E-03 0.  1.
    9900012    2    1    2    0    0  0.93369876902E+01 -0.30156045386E+02  0.44891575123E+01  0.59301969397E+02  0.50000046268E+02 0.  0.
        -12    1    1    2    0    0 -0.93369876902E+01  0.30156045386E+02 -0.44891575123E+01  0.31886030603E+02  0.00000000000E+00 0.  1.
         11    1    3    3    0    0 -0.85636683409E+00 -0.10123552761E+02  0.71213351585E+01  0.12406977849E+02  0.51100000000E-03 0. -1.
        -11    1    3    3    0    0  0.17030043270E+01 -0.23981488846E+01 -0.20309767396E+02  0.20521646955E+02  0.51100000000E-03 0.  1.
         12    1    3    3    0    0  0.84903501973E+01 -0.17634343740E+02  0.17677589750E+02  0.26373344592E+02  0.00000000000E+00 0. -1.
</event>
<event>
 7    1  0.1324280E-011  0.5930209E+02  0.7816164E-02  0.1266604E+00
        -11   -1    0    0    0    0  0.00000000000E+00  0.00000000000E+00  0.45593999997E+02  0.45594000000E+02  0.51100000000E-03 0.  1.
         11   -1    0    0    0    0 -0.00000000000E+00 -0.00000000000E+00 -0.45593999997E+02  0.45594000000E+02  0.51100000000E-03 0. -1.
    9900012    2    1    2    0    0 -0.17772633855E+02  0.11186399219E+02 -0.23993935387E+02  0.59302094384E+02  0.50000274213E+02 0.  0.
        -12    1    1    2    0    0  0.17772633855E+02 -0.11186399219E+02  0.23993935387E+02  0.31885905616E+02  0.00000000000E+00 0.  1.
         11    1    3    3    0    0 -0.25051721181E+02  0.85137818238E+01 -0.19541969900E+02  0.32893187789E+02  0.51100000000E-03 0. -1.
        -11    1    3    3    0    0  0.35374668933E+01  0.26606393899E+00 -0.14760810279E+02  0.15181106100E+02  0.51100000000E-03 0.  1.
        -12    1    3    3    0    0  0.37416204327E+01  0.24065534558E+01  0.10308844793E+02  0.11227800495E+02  0.00000000000E+00 0.  1.
</event>
<event>
 7    1  0.1324280E-011  0.5930194E+02  0.7816164E-02  0.1266605E+00
        -11   -1    0    0    0    0  0.00000000000E+00  0.00000000000E+00  0.45593999997E+02  0.45594000000E+02  0.51100000000E-03 0.  1.
         11   -1    0    0    0    0 -0.00000000000E+00 -0.00000000000E+00 -0.45593999997E+02  0.45594000000E+02  0.51100000000E-03 0. -1.
    9900012    2    1    2    0    0  0.24499850890E+01 -0.31728107489E+02 -0.20114366787E+01  0.59301935500E+02  0.49999984447E+02 0.  0.
        -12    1    1    2    0    0 -0.24499850890E+01  0.31728107489E+02  0.20114366787E+01  0.31886064500E+02  0.00000000000E+00 0.  1.
         11    1    3    3    0    0  0.81941940646E+00  0.10384891009E+01 -0.12572470872E+02  0.12641872166E+02  0.51100000000E-03 0. -1.
        -11    1    3    3    0    0 -0.85876120686E+01 -0.36224227472E+01 -0.65134939705E+01  0.11370779726E+02  0.51100000000E-03 0.  1.
        -12    1    3    3    0    0  0.10218177751E+02 -0.29144173843E+02  0.17074528164E+02  0.35289283608E+02  0.00000000000E+00 0.  1.
</event>
<event>
 7    1  0.1324280E-011  0.5930194E+02  0.7816164E-02  0.1266605E+00
        -11   -1    0    0    0    0  0.00000000000E+00  0.00000000000E+00  0.45593999997E+02  0.45594000000E+02  0.51100000000E-03 0. -1.
         11   -1    0    0    0    0 -0.00000000000E+00 -0.00000000000E+00 -0.45593999997E+02  0.45594000000E+02  0.51100000000E-03 0.  1.
    9900012    2    1    2    0    0  0.28200277949E+02  0.47589028992E+01  0.14100289600E+02  0.59301937214E+02  0.49999987573E+02 0.  0.
        -12    1    1    2    0    0 -0.28200277949E+02 -0.47589028992E+01 -0.14100289600E+02  0.31886062786E+02  0.00000000000E+00 0.  1.
         11    1    3    3    0    0 -0.66437161188E+01  0.21446202033E-01 -0.68780813335E+01  0.95628147999E+01  0.51100000000E-03 0. -1.
        -11    1    3    3    0    0  0.30775771167E+02  0.26888168590E+01  0.28237212177E+01  0.31021786358E+02  0.51100000000E-03 0.  1.
         12    1    3    3    0    0  0.40682229005E+01  0.20486398382E+01  0.18154649715E+02  0.18717336056E+02  0.00000000000E+00 0. -1.
</event>
<event>
 7    1  0.1324280E-011  0.5930189E+02  0.7816164E-02  0.1266605E+00
        -11   -1    0    0    0    0  0.00000000000E+00  0.00000000000E+00  0.45593999997E+02  0.45594000000E+02  0.51100000000E-03 0.  1.
         11   -1    0    0    0    0 -0.00000000000E+00 -0.00000000000E+00 -0.45593999997E+02  0.45594000000E+02  0.51100000000E-03 0. -1.
    9900012    2    1    2    0    0  0.15506319046E+01  0.25229774904E+02 -0.19436508212E+02  0.59301892484E+02  0.49999905997E+02 0.  0.
        -12    1    1    2    0    0 -0.15506319046E+01 -0.25229774904E+02  0.19436508212E+02  0.31886107516E+02  0.00000000000E+00 0.  1.
         11    1    3    3    0    0  0.13776378708E+02  0.10745873049E+02 -0.10862535037E+02  0.20573212330E+02  0.51100000000E-03 0. -1.
        -11    1    3    3    0    0  0.42828263976E+01  0.13440355483E+02  0.72298908223E+01  0.15851090784E+02  0.51100000000E-03 0.  1.
        -12    1    3    3    0    0 -0.16508573201E+02  0.10435463724E+01 -0.15803863997E+02  0.22877589370E+02  0.00000000000E+00 0.  1.
</event>
<event>
 7    1  0.1324280E-011  0.5930194E+02  0.7816164E-02  0.1266605E+00
        -11   -1    0    0    0    0  0.00000000000E+00  0.00000000000E+00  0.45593999997E+02  0.45594000000E+02  0.51100000000E-03 0.  1.
         11   -1    0    0    0    0 -0.00000000000E+00 -0.00000000000E+00 -0.45593999997E+02  0.45594000000E+02  0.51100000000E-03 0. -1.
    9900012    2    1    2    0    0 -0.27572487983E+02 -0.10694819327E+02 -0.11920557113E+02  0.59301938219E+02  0.49999989407E+02 0.  0.
        -12    1    1    2    0    0  0.27572487983E+02  0.10694819327E+02  0.11920557113E+02  0.31886061781E+02  0.00000000000E+00 0.  1.
         11    1    3    3    0    0 -0.14552133006E+01 -0.40839508798E+01 -0.11672002922E+02  0.12451182796E+02  0.51100000000E-03 0. -1.
        -11    1    3    3    0    0 -0.12739419185E+02  0.15114145712E+02 -0.60768991181E+01  0.20679915496E+02  0.51100000000E-03 0.  1.
         12    1    3    3    0    0 -0.13377855497E+02 -0.21725014159E+02  0.58283449276E+01  0.26170839927E+02  0.00000000000E+00 0. -1.
</event>
<event>
 7    1  0.1324280E-011  0.5930193E+02  0.7816164E-02  0.1266605E+00
        -11   -1    0    0    0    0  0.00000000000E+00  0.00000000000E+00  0.45593999997E+02  0.45594000000E+02  0.51100000000E-03 0. -1.
         11   -1    0    0    0    0 -0.00000000000E+00 -0.00000000000E+00 -0.45593999997E+02  0.45594000000E+02  0.51100000000E-03 0.  1.
    9900012    2    1    2    0    0 -0.18118712999E+02  0.25132455391E+02  0.75361485329E+01  0.59301927658E+02  0.49999970145E+02 0.  0.
        -12    1    1    2    0    0  0.18118712999E+02 -0.25132455391E+02 -0.75361485329E+01  0.31886072342E+02  0.00000000000E+00 0.  1.
         11    1    3    3    0    0 -0.15888402347E+02 -0.32726540384E-01  0.66670592952E+01  0.17230556581E+02  0.51100000000E-03 0. -1.
        -11    1    3    3    0    0 -0.46797232093E+01  0.33229125361E+01  0.14919232406E+02  0.15985151012E+02  0.51100000000E-03 0.  1.
        -12    1    3    3    0    0  0.24494125577E+01  0.21842269395E+02 -0.14050143168E+02  0.26086220064E+02  0.00000000000E+00 0.  1.
</event>
<event>
 7    1  0.1324280E-011  0.5930196E+02  0.7816164E-02  0.1266605E+00
        -11   -1    0    0    0    0  0.00000000000E+00  0.00000000000E+00  0.45593999997E+02  0.45594000000E+02  0.51100000000E-03 0. -1.
         11   -1    0    0    0    0 -0.00000000000E+00 -0.00000000000E+00 -0.45593999997E+02  0.45594000000E+02  0.51100000000E-03 0.  1.
    9900012    2    1    2    0    0 -0.21585043032E+02  0.89793544133E+01  0.21683551905E+02  0.59301963689E+02  0.50000035858E+02 0.  0.
        -12    1    1    2    0    0  0.21585043032E+02 -0.89793544133E+01 -0.21683551905E+02  0.31886036311E+02  0.00000000000E+00 0.  1.
         11    1    3    3    0    0 -0.51051551365E+01  0.29903319505E+01  0.27000377128E+02  0.27641003228E+02  0.51100000000E-03 0. -1.
        -11    1    3    3    0    0 -0.11234145907E+02 -0.42426413906E+01  0.77216257635E+01  0.14276888488E+02  0.51100000000E-03 0.  1.
        -12    1    3    3    0    0 -0.52457419888E+01  0.10231663853E+02 -0.13038450986E+02  0.17384071972E+02  0.00000000000E+00 0.  1.
</event>
<event>
 7    1  0.1324280E-011  0.5930194E+02  0.7816164E-02  0.1266605E+00
        -11   -1    0    0    0    0  0.00000000000E+00  0.00000000000E+00  0.45593999997E+02  0.45594000000E+02  0.51100000000E-03 0.  1.
         11   -1    0    0    0    0 -0.00000000000E+00 -0.00000000000E+00 -0.45593999997E+02  0.45594000000E+02  0.51100000000E-03 0. -1.
    9900012    2    1    2    0    0  0.30026190964E+02  0.41996928069E+01 -0.98747658368E+01  0.59301944054E+02  0.50000000047E+02 0.  0.
        -12    1    1    2    0    0 -0.30026190964E+02 -0.41996928069E+01  0.98747658368E+01  0.31886055946E+02  0.00000000000E+00 0.  1.
         11    1    3    3    0    0  0.22442506269E+02  0.17914411812E+02 -0.17629643592E+02  0.33695646182E+02  0.51100000000E-03 0. -1.
        -11    1    3    3    0    0 -0.27767934888E+01  0.32334764992E+01 -0.53906252702E-01  0.42624943983E+01  0.51100000000E-03 0.  1.
         12    1    3    3    0    0  0.10360478184E+02 -0.16948195504E+02  0.78087840074E+01  0.21343803474E+02  0.00000000000E+00 0. -1.
</event>
<event>
 7    1  0.1324280E-011  0.5930196E+02  0.7816164E-02  0.1266605E+00
        -11   -1    0    0    0    0  0.00000000000E+00  0.00000000000E+00  0.45593999997E+02  0.45594000000E+02  0.51100000000E-03 0. -1.
         11   -1    0    0    0    0 -0.00000000000E+00 -0.00000000000E+00 -0.45593999997E+02  0.45594000000E+02  0.51100000000E-03 0.  1.
    9900012    2    1    2    0    0  0.14627131915E+02  0.41494387405E+01  0.28027636344E+02  0.59301964985E+02  0.50000038222E+02 0.  0.
        -12    1    1    2    0    0 -0.14627131915E+02 -0.41494387405E+01 -0.28027636344E+02  0.31886035015E+02  0.00000000000E+00 0.  1.
         11    1    3    3    0    0  0.81611670547E+01 -0.62729887363E+00  0.15729507162E+02  0.17731766618E+02  0.51100000000E-03 0.  1.
        -11    1    3    3    0    0  0.33266410698E+01 -0.17193270707E+02  0.51275150773E+01  0.18247369934E+02  0.51100000000E-03 0. -1.
        -12    1    3    3    0    0  0.31393237902E+01  0.21970008321E+02  0.71706141052E+01  0.23322828433E+02  0.00000000000E+00 0.  1.
</event>
<event>
 7    1  0.1324280E-011  0.5930199E+02  0.7816164E-02  0.1266605E+00
        -11   -1    0    0    0    0  0.00000000000E+00  0.00000000000E+00  0.45593999997E+02  0.45594000000E+02  0.51100000000E-03 0.  1.
         11   -1    0    0    0    0 -0.00000000000E+00 -0.00000000000E+00 -0.45593999997E+02  0.45594000000E+02  0.51100000000E-03 0. -1.
    9900012    2    1    2    0    0  0.90158938530E+01  0.38162369814E+01 -0.30345806044E+02  0.59301985023E+02  0.50000074765E+02 0.  0.
        -12    1    1    2    0    0 -0.90158938530E+01 -0.38162369814E+01  0.30345806044E+02  0.31886014977E+02  0.00000000000E+00 0.  1.
         11    1    3    3    0    0 -0.46005621778E+01 -0.15289690811E+02 -0.14554907948E+02  0.21605211480E+02  0.51100000000E-03 0. -1.
        -11    1    3    3    0    0  0.89271910203E+00  0.63996240433E+01 -0.18423093770E+02  0.19523383918E+02  0.51100000000E-03 0.  1.
         12    1    3    3    0    0  0.12723736929E+02  0.12706303749E+02  0.26321956740E+01  0.18173389625E+02  0.00000000000E+00 0. -1.
</event>
<event>
 7    1  0.1324280E-011  0.5930195E+02  0.7816164E-02  0.1266605E+00
        -11   -1    0    0    0    0  0.00000000000E+00  0.00000000000E+00  0.45593999997E+02  0.45594000000E+02  0.51100000000E-03 0. -1.
         11   -1    0    0    0    0 -0.00000000000E+00 -0.00000000000E+00 -0.45593999997E+02  0.45594000000E+02  0.51100000000E-03 0.  1.
    9900012    2    1    2    0    0 -0.27226437134E+02 -0.73691309162E+01  0.14870690114E+02  0.59301946717E+02  0.50000004905E+02 0.  0.
        -12    1    1    2    0    0  0.27226437134E+02  0.73691309162E+01 -0.14870690114E+02  0.31886053283E+02  0.00000000000E+00 0.  1.
         11    1    3    3    0    0 -0.61877807429E+01  0.10104816793E+02 -0.71976476829E+01  0.13863696671E+02  0.51100000000E-03 0. -1.
        -11    1    3    3    0    0  0.41636427323E+01 -0.21869181079E+00  0.12887064567E+02  0.13544747333E+02  0.51100000000E-03 0.  1.
        -12    1    3    3    0    0 -0.25202299123E+02 -0.17255255899E+02  0.91812732302E+01  0.31893502714E+02  0.00000000000E+00 0.  1.
</event>
<event>
 7    1  0.1324280E-011  0.5930195E+02  0.7816164E-02  0.1266605E+00
        -11   -1    0    0    0    0  0.00000000000E+00  0.00000000000E+00  0.45593999997E+02  0.45594000000E+02  0.51100000000E-03 0.  1.
         11   -1    0    0    0    0 -0.00000000000E+00 -0.00000000000E+00 -0.45593999997E+02  0.45594000000E+02  0.51100000000E-03 0. -1.
    9900012    2    1    2    0    0  0.14142181453E+02 -0.61564849751E+01 -0.27907289132E+02  0.59301946776E+02  0.50000005012E+02 0.  0.
        -12    1    1    2    0    0 -0.14142181453E+02  0.61564849751E+01  0.27907289132E+02  0.31886053224E+02  0.00000000000E+00 0.  1.
         11    1    3    3    0    0 -0.21326453558E+01  0.18165627319E+01  0.38802470241E+01  0.47858534873E+01  0.51100000000E-03 0. -1.
        -11    1    3    3    0    0  0.17373605176E+02  0.44963077480E+01  0.24029704989E+01  0.18106164907E+02  0.51100000000E-03 0.  1.
         12    1    3    3    0    0 -0.10987783670E+01 -0.12469355455E+02 -0.34190506655E+02  0.36409928381E+02  0.00000000000E+00 0. -1.
</event>
<event>
 7    1  0.1324280E-011  0.5930196E+02  0.7816164E-02  0.1266605E+00
        -11   -1    0    0    0    0  0.00000000000E+00  0.00000000000E+00  0.45593999997E+02  0.45594000000E+02  0.51100000000E-03 0. -1.
         11   -1    0    0    0    0 -0.00000000000E+00 -0.00000000000E+00 -0.45593999997E+02  0.45594000000E+02  0.51100000000E-03 0.  1.
    9900012    2    1    2    0    0  0.26508963953E+02  0.91370874575E+01  0.15182495170E+02  0.59301957652E+02  0.50000024847E+02 0.  0.
        -12    1    1    2    0    0 -0.26508963953E+02 -0.91370874575E+01 -0.15182495170E+02  0.31886042348E+02  0.00000000000E+00 0.  1.
         11    1    3    3    0    0  0.31959761799E+01  0.46664373997E+01  0.21875061547E+02  0.22594428953E+02  0.51100000000E-03 0. -1.
        -11    1    3    3    0    0 -0.16110072900E+01  0.10260937762E+02 -0.59717361163E+00  0.10403788004E+02  0.51100000000E-03 0.  1.
         12    1    3    3    0    0  0.24923995063E+02 -0.57902877045E+01 -0.60953927651E+01  0.26303740695E+02  0.00000000000E+00 0. -1.
</event>
<event>
 7    1  0.1643502E-011  0.5930192E+02  0.7816164E-02  0.1266605E+00
        -11   -1    0    0    0    0  0.00000000000E+00  0.00000000000E+00  0.45593999997E+02  0.45594000000E+02  0.51100000000E-03 0. -1.
         11   -1    0    0    0    0 -0.00000000000E+00 -0.00000000000E+00 -0.45593999997E+02  0.45594000000E+02  0.51100000000E-03 0.  1.
    9900012    2    1    2    0    0  0.73365099297E+01  0.59461013028E+01  0.30455566809E+02  0.59301920776E+02  0.49999957594E+02 0.  0.
        -12    1    1    2    0    0 -0.73365099297E+01 -0.59461013028E+01 -0.30455566809E+02  0.31886079224E+02  0.00000000000E+00 0.  1.
         11    1    3    3    0    0 -0.73818987049E+01  0.12578123151E+02  0.61153207070E+01  0.15814510998E+02  0.51100000000E-03 0. -1.
        -11    1    3    3    0    0  0.10197148467E+02 -0.53472083027E+01 -0.58628171794E+01  0.12920801021E+02  0.51100000000E-03 0.  1.
         12    1    3    3    0    0  0.45212601677E+01 -0.12848135457E+01  0.30203063281E+02  0.30566608757E+02  0.00000000000E+00 0. -1.
</event>
<event>
 7    1  0.1324280E-011  0.5930195E+02  0.7816164E-02  0.1266605E+00
        -11   -1    0    0    0    0  0.00000000000E+00  0.00000000000E+00  0.45593999997E+02  0.45594000000E+02  0.51100000000E-03 0.  1.
         11   -1    0    0    0    0 -0.00000000000E+00 -0.00000000000E+00 -0.45593999997E+02  0.45594000000E+02  0.51100000000E-03 0. -1.
    9900012    2    1    2    0    0 -0.17581524640E+02  0.60271277539E+01 -0.25909145531E+02  0.59301951330E+02  0.50000013317E+02 0.  0.
        -12    1    1    2    0    0  0.17581524640E+02 -0.60271277539E+01  0.25909145531E+02  0.31886048670E+02  0.00000000000E+00 0.  1.
         11    1    3    3    0    0 -0.59822733533E+01 -0.75412553405E+01 -0.79225867619E+01  0.12466976692E+02  0.51100000000E-03 0. -1.
        -11    1    3    3    0    0 -0.26182407836E+02  0.11099868932E+02 -0.11249770936E+02  0.30582395537E+02  0.51100000000E-03 0.  1.
        -12    1    3    3    0    0  0.14583156549E+02  0.24685141624E+01 -0.67367878336E+01  0.16252579101E+02  0.00000000000E+00 0.  1.
</event>
<event>
 7    1  0.1324280E-011  0.5930199E+02  0.7816164E-02  0.1266605E+00
        -11   -1    0    0    0    0  0.00000000000E+00  0.00000000000E+00  0.45593999997E+02  0.45594000000E+02  0.51100000000E-03 0. -1.
         11   -1    0    0    0    0 -0.00000000000E+00 -0.00000000000E+00 -0.45593999997E+02  0.45594000000E+02  0.51100000000E-03 0.  1.
    9900012    2    1    2    0    0 -0.80807491953E+01 -0.26560459214E+02  0.15683147579E+02  0.59301990228E+02  0.50000084258E+02 0.  0.
        -12    1    1    2    0    0  0.80807491953E+01  0.26560459214E+02 -0.15683147579E+02  0.31886009772E+02  0.00000000000E+00 0.  1.
         11    1    3    3    0    0 -0.80609453914E+01 -0.28287243536E+02  0.17322701762E+02  0.34135362662E+02  0.51100000000E-03 0. -1.
        -11    1    3    3    0    0  0.71492433414E+01 -0.53249308627E+01 -0.90285793626E+01  0.12687860916E+02  0.51100000000E-03 0.  1.
        -12    1    3    3    0    0 -0.71690471453E+01  0.70517151843E+01  0.73890251792E+01  0.12478766650E+02  0.00000000000E+00 0.  1.
</event>
<event>
 7    1  0.1324280E-011  0.5930195E+02  0.7816164E-02  0.1266605E+00
        -11   -1    0    0    0    0  0.00000000000E+00  0.00000000000E+00  0.45593999997E+02  0.45594000000E+02  0.51100000000E-03 0.  1.
         11   -1    0    0    0    0 -0.00000000000E+00 -0.00000000000E+00 -0.45593999997E+02  0.45594000000E+02  0.51100000000E-03 0. -1.
    9900012    2    1    2    0    0  0.54462118206E+01 -0.19677354943E+02 -0.24492047927E+02  0.59301953955E+02  0.50000018105E+02 0.  0.
        -12    1    1    2    0    0 -0.54462118206E+01  0.19677354943E+02  0.24492047927E+02  0.31886046045E+02  0.00000000000E+00 0.  1.
         11    1    3    3    0    0  0.11220635600E+02 -0.49814223842E+01 -0.19146652223E+02  0.22744483372E+02  0.51100000000E-03 0. -1.
        -11    1    3    3    0    0  0.89315189158E+01  0.55365677715E+01  0.15255767575E+01  0.10618521438E+02  0.51100000000E-03 0.  1.
         12    1    3    3    0    0 -0.14705942695E+02 -0.20232500330E+02 -0.68709724615E+01  0.25938949145E+02  0.00000000000E+00 0. -1.
</event>
<event>
 7    1  0.1324280E-011  0.5930201E+02  0.7816164E-02  0.1266605E+00
        -11   -1    0    0    0    0  0.00000000000E+00  0.00000000000E+00  0.45593999997E+02  0.45594000000E+02  0.51100000000E-03 0.  1.
         11   -1    0    0    0    0 -0.00000000000E+00 -0.00000000000E+00 -0.45593999997E+02  0.45594000000E+02  0.51100000000E-03 0. -1.
    9900012    2    1    2    0    0 -0.14590942810E+02 -0.24883310422E+02 -0.13588277661E+02  0.59302015000E+02  0.50000129436E+02 0.  0.
        -12    1    1    2    0    0  0.14590942810E+02  0.24883310422E+02  0.13588277661E+02  0.31885985000E+02  0.00000000000E+00 0.  1.
         11    1    3    3    0    0 -0.41422401971E+01  0.29753044691E+00 -0.52324444586E+01  0.66802060964E+01  0.51100000000E-03 0. -1.
        -11    1    3    3    0    0 -0.12236793233E+02 -0.30639785705E+02  0.91165889624E+01  0.34229340795E+02  0.51100000000E-03 0.  1.
         12    1    3    3    0    0  0.17880906210E+01  0.54589448362E+01 -0.17472422165E+02  0.18392468108E+02  0.00000000000E+00 0. -1.
</event>
<event>
 7    1  0.1324280E-011  0.5930205E+02  0.7816164E-02  0.1266604E+00
        -11   -1    0    0    0    0  0.00000000000E+00  0.00000000000E+00  0.45593999997E+02  0.45594000000E+02  0.51100000000E-03 0. -1.
         11   -1    0    0    0    0 -0.00000000000E+00 -0.00000000000E+00 -0.45593999997E+02  0.45594000000E+02  0.51100000000E-03 0.  1.
    9900012    2    1    2    0    0 -0.15621708236E+02  0.48344182235E+00  0.27792850845E+02  0.59302046316E+02  0.50000186550E+02 0.  0.
        -12    1    1    2    0    0  0.15621708236E+02 -0.48344182235E+00 -0.27792850845E+02  0.31885953684E+02  0.00000000000E+00 0.  1.
         11    1    3    3    0    0 -0.53168832155E+01 -0.33109121070E+01  0.29014344773E+01  0.69028768202E+01  0.51100000000E-03 0. -1.
        -11    1    3    3    0    0 -0.24154303773E+02  0.33965175691E+01  0.29050866491E+02  0.37933093290E+02  0.51100000000E-03 0.  1.
        -12    1    3    3    0    0  0.13849478753E+02  0.39783636029E+00 -0.41594501233E+01  0.14466076207E+02  0.00000000000E+00 0.  1.
</event>
<event>
 7    1  0.1324280E-011  0.5930193E+02  0.7816164E-02  0.1266605E+00
        -11   -1    0    0    0    0  0.00000000000E+00  0.00000000000E+00  0.45593999997E+02  0.45594000000E+02  0.51100000000E-03 0.  1.
         11   -1    0    0    0    0 -0.00000000000E+00 -0.00000000000E+00 -0.45593999997E+02  0.45594000000E+02  0.51100000000E-03 0. -1.
    9900012    2    1    2    0    0 -0.22289217030E+02 -0.15760394310E+02 -0.16477938175E+02  0.59301926690E+02  0.49999968381E+02 0.  0.
        -12    1    1    2    0    0  0.22289217030E+02  0.15760394310E+02  0.16477938175E+02  0.31886073310E+02  0.00000000000E+00 0.  1.
         11    1    3    3    0    0 -0.11294040857E+02 -0.21529421850E+01 -0.57214257057E+01  0.12842321881E+02  0.51100000000E-03 0. -1.
        -11    1    3    3    0    0  0.43215007145E+01  0.82428910498E+01  0.92397331815E+01  0.13114621261E+02  0.51100000000E-03 0.  1.
         12    1    3    3    0    0 -0.15316676887E+02 -0.21850343175E+02 -0.19996245650E+02  0.33344983548E+02  0.00000000000E+00 0. -1.
</event>
<event>
 7    1  0.1324280E-011  0.5930190E+02  0.7816164E-02  0.1266605E+00
        -11   -1    0    0    0    0  0.00000000000E+00  0.00000000000E+00  0.45593999997E+02  0.45594000000E+02  0.51100000000E-03 0. -1.
         11   -1    0    0    0    0 -0.00000000000E+00 -0.00000000000E+00 -0.45593999997E+02  0.45594000000E+02  0.51100000000E-03 0.  1.
    9900012    2    1    2    0    0 -0.40571339355E+01 -0.26036460030E+02  0.17954549848E+02  0.59301898844E+02  0.49999917596E+02 0.  0.
        -12    1    1    2    0    0  0.40571339355E+01  0.26036460030E+02 -0.17954549848E+02  0.31886101156E+02  0.00000000000E+00 0.  1.
         11    1    3    3    0    0  0.14770424756E+02 -0.27002507633E+02  0.69115918242E+01  0.31544745486E+02  0.51100000000E-03 0. -1.
        -11    1    3    3    0    0  0.19406051301E+01 -0.35828904990E+01  0.77804743976E+00  0.41483021441E+01  0.51100000000E-03 0.  1.
        -12    1    3    3    0    0 -0.20768163821E+02  0.45489381019E+01  0.10264910584E+02  0.23608851214E+02  0.00000000000E+00 0.  1.
</event>
<event>
 7    1  0.1324280E-011  0.5930193E+02  0.7816164E-02  0.1266605E+00
        -11   -1    0    0    0    0  0.00000000000E+00  0.00000000000E+00  0.45593999997E+02  0.45594000000E+02  0.51100000000E-03 0.  1.
         11   -1    0    0    0    0 -0.00000000000E+00 -0.00000000000E+00 -0.45593999997E+02  0.45594000000E+02  0.51100000000E-03 0. -1.
    9900012    2    1    2    0    0 -0.12469192013E+02  0.25081382002E+02 -0.15236967568E+02  0.59301926970E+02  0.49999968891E+02 0.  0.
        -12    1    1    2    0    0  0.12469192013E+02 -0.25081382002E+02  0.15236967568E+02  0.31886073030E+02  0.00000000000E+00 0.  1.
         11    1    3    3    0    0  0.28843734869E+01  0.21255759181E+02 -0.94472448924E+01  0.23438799992E+02  0.51100000000E-03 0. -1.
        -11    1    3    3    0    0  0.45408141600E+01  0.41812430187E+01  0.91106819142E+01  0.11004831285E+02  0.51100000000E-03 0.  1.
         12    1    3    3    0    0 -0.19894379660E+02 -0.35562019702E+00 -0.14900404590E+02  0.24858295692E+02  0.00000000000E+00 0. -1.
</event>
<event>
 7    1  0.1324280E-011  0.5930194E+02  0.7816164E-02  0.1266605E+00
        -11   -1    0    0    0    0  0.00000000000E+00  0.00000000000E+00  0.45593999997E+02  0.45594000000E+02  0.51100000000E-03 0.  1.
         11   -1    0    0    0    0 -0.00000000000E+00 -0.00000000000E+00 -0.45593999997E+02  0.45594000000E+02  0.51100000000E-03 0. -1.
    9900012    2    1    2    0    0  0.27524524721E+01 -0.27572572429E+02 -0.15776505472E+02  0.59301939255E+02  0.49999991296E+02 0.  0.
        -12    1    1    2    0    0 -0.27524524721E+01  0.27572572429E+02  0.15776505472E+02  0.31886060745E+02  0.00000000000E+00 0.  1.
         11    1    3    3    0    0  0.22052415423E+01 -0.14935807630E+02 -0.28869030378E+01  0.15371260496E+02  0.51100000000E-03 0.  1.
        -11    1    3    3    0    0 -0.78752301490E+01 -0.19871022401E+02 -0.21167063914E+02  0.30081911112E+02  0.51100000000E-03 0. -1.
        -12    1    3    3    0    0  0.84224410788E+01  0.72342576024E+01  0.82774614802E+01  0.13848767647E+02  0.00000000000E+00 0.  1.
</event>
<event>
 7    1  0.1324280E-011  0.5930195E+02  0.7816164E-02  0.1266605E+00
        -11   -1    0    0    0    0  0.00000000000E+00  0.00000000000E+00  0.45593999997E+02  0.45594000000E+02  0.51100000000E-03 0.  1.
         11   -1    0    0    0    0 -0.00000000000E+00 -0.00000000000E+00 -0.45593999997E+02  0.45594000000E+02  0.51100000000E-03 0. -1.
    9900012    2    1    2    0    0 -0.24921639219E+02 -0.96022350593E+01 -0.17419220513E+02  0.59301948774E+02  0.50000008657E+02 0.  0.
        -12    1    1    2    0    0  0.24921639219E+02  0.96022350593E+01  0.17419220513E+02  0.31886051226E+02  0.00000000000E+00 0.  1.
         11    1    3    3    0    0 -0.12969138887E+02  0.58966044174E+01 -0.72077537587E+01  0.15966221269E+02  0.51100000000E-03 0. -1.
        -11    1    3    3    0    0 -0.18767548881E+02 -0.51170649469E+01  0.82140608768E+01  0.21115777064E+02  0.51100000000E-03 0.  1.
         12    1    3    3    0    0  0.68150485487E+01 -0.10381774530E+02 -0.18425527632E+02  0.22219950441E+02  0.00000000000E+00 0. -1.
</event>
<event>
 7    1  0.1324280E-011  0.5930192E+02  0.7816164E-02  0.1266605E+00
        -11   -1    0    0    0    0  0.00000000000E+00  0.00000000000E+00  0.45593999997E+02  0.45594000000E+02  0.51100000000E-03 0.  1.
         11   -1    0    0    0    0 -0.00000000000E+00 -0.00000000000E+00 -0.45593999997E+02  0.45594000000E+02  0.51100000000E-03 0. -1.
    9900012    2    1    2    0    0  0.72993404449E+00 -0.28264751147E+02 -0.14740876828E+02  0.59301915092E+02  0.49999947228E+02 0.  0.
        -12    1    1    2    0    0 -0.72993404449E+00  0.28264751147E+02  0.14740876828E+02  0.31886084908E+02  0.00000000000E+00 0.  1.
         11    1    3    3    0    0  0.14660707783E+02 -0.54614438198E+01  0.99307642151E+01  0.18530617892E+02  0.51100000000E-03 0. -1.
        -11    1    3    3    0    0 -0.49093861579E+01  0.38980552187E+00  0.99136724183E+00  0.50236271818E+01  0.51100000000E-03 0.  1.
        -12    1    3    3    0    0 -0.90213875810E+01 -0.23193112849E+02 -0.25663008285E+02  0.35747670018E+02  0.00000000000E+00 0.  1.
</event>
<event>
 7    1  0.1324280E-011  0.5930194E+02  0.7816164E-02  0.1266605E+00
        -11   -1    0    0    0    0  0.00000000000E+00  0.00000000000E+00  0.45593999997E+02  0.45594000000E+02  0.51100000000E-03 0.  1.
         11   -1    0    0    0    0 -0.00000000000E+00 -0.00000000000E+00 -0.45593999997E+02  0.45594000000E+02  0.51100000000E-03 0. -1.
    9900012    2    1    2    0    0  0.57987979192E+01  0.10659413088E+02 -0.29486804661E+02  0.59301940447E+02  0.49999993470E+02 0.  0.
        -12    1    1    2    0    0 -0.57987979192E+01 -0.10659413088E+02  0.29486804661E+02  0.31886059553E+02  0.00000000000E+00 0.  1.
         11    1    3    3    0    0 -0.41411407877E+01  0.18151386410E+02 -0.77037254872E+01  0.20148678922E+02  0.51100000000E-03 0. -1.
        -11    1    3    3    0    0 -0.38339814791E+01  0.52071141512E+01  0.37570590019E+01  0.74785656626E+01  0.51100000000E-03 0.  1.
        -12    1    3    3    0    0  0.13773920186E+02 -0.12699087474E+02 -0.25540138176E+02  0.31674695863E+02  0.00000000000E+00 0.  1.
</event>
<event>
 7    1  0.1324280E-011  0.5930202E+02  0.7816164E-02  0.1266605E+00
        -11   -1    0    0    0    0  0.00000000000E+00  0.00000000000E+00  0.45593999997E+02  0.45594000000E+02  0.51100000000E-03 0. -1.
         11   -1    0    0    0    0 -0.00000000000E+00 -0.00000000000E+00 -0.45593999997E+02  0.45594000000E+02  0.51100000000E-03 0.  1.
    9900012    2    1    2    0    0  0.17611711368E+01 -0.16414737348E+02  0.27279490028E+02  0.59302017152E+02  0.50000133362E+02 0.  0.
        -12    1    1    2    0    0 -0.17611711368E+01  0.16414737348E+02 -0.27279490028E+02  0.31885982848E+02  0.00000000000E+00 0.  1.
         11    1    3    3    0    0 -0.11213914265E+02 -0.12589928799E+02 -0.33585600512E+01  0.17191221777E+02  0.51100000000E-03 0.  1.
        -11    1    3    3    0    0  0.57519861171E+01  0.75182799740E+01  0.94347740418E+00  0.95131502633E+01  0.51100000000E-03 0. -1.
         12    1    3    3    0    0  0.72230992845E+01 -0.11343088523E+02  0.29694572675E+02  0.32597645112E+02  0.00000000000E+00 0. -1.
</event>
<event>
 7    1  0.1324280E-011  0.5930195E+02  0.7816164E-02  0.1266605E+00
        -11   -1    0    0    0    0  0.00000000000E+00  0.00000000000E+00  0.45593999997E+02  0.45594000000E+02  0.51100000000E-03 0.  1.
         11   -1    0    0    0    0 -0.00000000000E+00 -0.00000000000E+00 -0.45593999997E+02  0.45594000000E+02  0.51100000000E-03 0. -1.
    9900012    2    1    2    0    0 -0.18470039382E+02 -0.16154026028E+02 -0.20362356442E+02  0.59301945501E+02  0.50000002686E+02 0.  0.
        -12    1    1    2    0    0  0.18470039382E+02  0.16154026028E+02  0.20362356442E+02  0.31886054499E+02  0.00000000000E+00 0.  1.
         11    1    3    3    0    0 -0.24153122964E+02 -0.89708494809E+01 -0.24890056089E+02  0.35824075448E+02  0.51100000000E-03 0. -1.
        -11    1    3    3    0    0  0.14549634398E+01 -0.75819394739E+01 -0.74749408267E+01  0.10746044175E+02  0.51100000000E-03 0.  1.
        -12    1    3    3    0    0  0.42281201431E+01  0.39876292710E+00  0.12002640474E+02  0.12731825877E+02  0.00000000000E+00 0.  1.
</event>
<event>
 7    1  0.1324280E-011  0.5930195E+02  0.7816164E-02  0.1266605E+00
        -11   -1    0    0    0    0  0.00000000000E+00  0.00000000000E+00  0.45593999997E+02  0.45594000000E+02  0.51100000000E-03 0.  1.
         11   -1    0    0    0    0 -0.00000000000E+00 -0.00000000000E+00 -0.45593999997E+02  0.45594000000E+02  0.51100000000E-03 0. -1.
    9900012    2    1    2    0    0  0.56333637868E+01 -0.13657274893E+02 -0.28257106794E+02  0.59301952433E+02  0.50000015330E+02 0.  0.
        -12    1    1    2    0    0 -0.56333637868E+01  0.13657274893E+02  0.28257106794E+02  0.31886047567E+02  0.00000000000E+00 0.  1.
         11    1    3    3    0    0  0.15862844133E+02 -0.63842778314E+01 -0.11796386726E+02  0.20773626728E+02  0.51100000000E-03 0. -1.
        -11    1    3    3    0    0 -0.40159252187E+01  0.13001787309E+02 -0.57748067237E+01  0.14782507282E+02  0.51100000000E-03 0.  1.
        -12    1    3    3    0    0 -0.62135551270E+01 -0.20274784370E+02 -0.10685913345E+02  0.23745818423E+02  0.00000000000E+00 0.  1.
</event>
<event>
 7    1  0.1324280E-011  0.5930196E+02  0.7816164E-02  0.1266605E+00
        -11   -1    0    0    0    0  0.00000000000E+00  0.00000000000E+00  0.45593999997E+02  0.45594000000E+02  0.51100000000E-03 0.  1.
         11   -1    0    0    0    0 -0.00000000000E+00 -0.00000000000E+00 -0.45593999997E+02  0.45594000000E+02  0.51100000000E-03 0. -1.
    9900012    2    1    2    0    0 -0.13276043323E+02  0.60134516788E+01 -0.28360261560E+02  0.59301962881E+02  0.50000034385E+02 0.  0.
        -12    1    1    2    0    0  0.13276043323E+02 -0.60134516788E+01  0.28360261560E+02  0.31886037119E+02  0.00000000000E+00 0.  1.
         11    1    3    3    0    0  0.33642416864E+01  0.11827317682E+01 -0.34007648948E+02  0.34194110075E+02  0.51100000000E-03 0. -1.
        -11    1    3    3    0    0  0.21776321206E+01  0.10567514746E+01 -0.31685578666E+01  0.39873004084E+01  0.51100000000E-03 0.  1.
        -12    1    3    3    0    0 -0.18817917130E+02  0.37739684360E+01  0.88159452553E+01  0.21120552398E+02  0.00000000000E+00 0.  1.
</event>
<event>
 7    1  0.1324280E-011  0.5930196E+02  0.7816164E-02  0.1266605E+00
        -11   -1    0    0    0    0  0.00000000000E+00  0.00000000000E+00  0.45593999997E+02  0.45594000000E+02  0.51100000000E-03 0. -1.
         11   -1    0    0    0    0 -0.00000000000E+00 -0.00000000000E+00 -0.45593999997E+02  0.45594000000E+02  0.51100000000E-03 0.  1.
    9900012    2    1    2    0    0  0.71905074993E+01  0.30307948972E+02  0.68150274190E+01  0.59301956538E+02  0.50000022815E+02 0.  0.
        -12    1    1    2    0    0 -0.71905074993E+01 -0.30307948972E+02 -0.68150274190E+01  0.31886043462E+02  0.00000000000E+00 0.  1.
         11    1    3    3    0    0  0.10874581995E+02  0.18941283407E+02  0.87488971710E+00  0.21858503676E+02  0.51100000000E-03 0. -1.
        -11    1    3    3    0    0 -0.12310119060E+01  0.24022115189E+02  0.32148422622E+01  0.24267521907E+02  0.51100000000E-03 0.  1.
        -12    1    3    3    0    0 -0.24530625899E+01 -0.12655449625E+02  0.27252954398E+01  0.13175930954E+02  0.00000000000E+00 0.  1.
</event>
<event>
 7    1  0.1324280E-011  0.5930193E+02  0.7816164E-02  0.1266605E+00
        -11   -1    0    0    0    0  0.00000000000E+00  0.00000000000E+00  0.45593999997E+02  0.45594000000E+02  0.51100000000E-03 0. -1.
         11   -1    0    0    0    0 -0.00000000000E+00 -0.00000000000E+00 -0.45593999997E+02  0.45594000000E+02  0.51100000000E-03 0.  1.
    9900012    2    1    2    0    0 -0.23981354123E+02  0.13138580771E+02  0.16401028118E+02  0.59301931356E+02  0.49999976890E+02 0.  0.
        -12    1    1    2    0    0  0.23981354123E+02 -0.13138580771E+02 -0.16401028118E+02  0.31886068644E+02  0.00000000000E+00 0.  1.
         11    1    3    3    0    0  0.12258969620E+01 -0.23650224705E+01  0.26417351668E+01  0.37516555812E+01  0.51100000000E-03 0. -1.
        -11    1    3    3    0    0  0.96545118630E+01  0.47438923559E+00  0.14678960931E+02  0.17575737218E+02  0.51100000000E-03 0.  1.
         12    1    3    3    0    0 -0.34861762948E+02  0.15029214006E+02 -0.91966798040E+00  0.37974538557E+02  0.00000000000E+00 0. -1.
</event>
<event>
 7    1  0.1324280E-011  0.5930194E+02  0.7816164E-02  0.1266605E+00
        -11   -1    0    0    0    0  0.00000000000E+00  0.00000000000E+00  0.45593999997E+02  0.45594000000E+02  0.51100000000E-03 0.  1.
         11   -1    0    0    0    0 -0.00000000000E+00 -0.00000000000E+00 -0.45593999997E+02  0.45594000000E+02  0.51100000000E-03 0. -1.
    9900012    2    1    2    0    0  0.28438553288E+02  0.11433393509E+01 -0.14375745882E+02  0.59301943366E+02  0.49999998794E+02 0.  0.
        -12    1    1    2    0    0 -0.28438553288E+02 -0.11433393509E+01  0.14375745882E+02  0.31886056634E+02  0.00000000000E+00 0.  1.
         11    1    3    3    0    0  0.20170455922E+01 -0.21097323344E+01 -0.90525183952E+01  0.95114422145E+01  0.51100000000E-03 0. -1.
        -11    1    3    3    0    0 -0.93367400169E+01 -0.76535750147E+01 -0.36245813550E+00  0.12078215961E+02  0.51100000000E-03 0.  1.
         12    1    3    3    0    0  0.35758247713E+02  0.10906646700E+02 -0.49607693512E+01  0.37712285190E+02  0.00000000000E+00 0. -1.
</event>
