<event>
 7    1  0.3910751E-009  0.4778727E+02  0.7816164E-02  0.1312668E+00
        -11   -1    0    0    0    0  0.00000000000E+00  0.00000000000E+00  0.45593999997E+02  0.45594000000E+02  0.51100000000E-03 0. -1.
         11   -1    0    0    0    0 -0.00000000000E+00 -0.00000000000E+00 -0.45593999997E+02  0.45594000000E+02  0.51100000000E-03 0.  1.
    9900012    2    1    2    0    0 -0.21489861565E+02  0.25902873151E+02  0.27401646739E+02  0.47787271532E+02  0.20000002224E+02 0.  0.
        -12    1    1    2    0    0  0.21489861565E+02 -0.25902873151E+02 -0.27401646739E+02  0.43400728468E+02  0.00000000000E+00 0.  1.
         11    1    3    3    0    0 -0.46397209112E+01  0.52201672568E+01  0.81056055413E+01  0.10699439134E+02  0.51100000000E-03 0. -1.
        -11    1    3    3    0    0 -0.19205273689E+02  0.21807737984E+02  0.17863993116E+02  0.34110734729E+02  0.51100000000E-03 0.  1.
        -12    1    3    3    0    0  0.23551330359E+01 -0.11250320907E+01  0.14320480822E+01  0.29770976691E+01  0.00000000000E+00 0.  1.
</event>
<event>
 7    1  0.3910751E-009  0.4778727E+02  0.7816164E-02  0.1312668E+00
        -11   -1    0    0    0    0  0.00000000000E+00  0.00000000000E+00  0.45593999997E+02  0.45594000000E+02  0.51100000000E-03 0.  1.
         11   -1    0    0    0    0 -0.00000000000E+00 -0.00000000000E+00 -0.45593999997E+02  0.45594000000E+02  0.51100000000E-03 0. -1.
    9900012    2    1    2    0    0  0.28411083198E+02  0.25698117934E+02  0.20397072271E+02  0.47787268773E+02  0.19999989642E+02 0.  0.
        -12    1    1    2    0    0 -0.28411083198E+02 -0.25698117934E+02 -0.20397072271E+02  0.43400731227E+02  0.00000000000E+00 0.  1.
         11    1    3    3    0    0  0.20259448575E+02  0.17230677694E+02  0.12389613435E+02  0.29340143689E+02  0.51100000000E-03 0. -1.
        -11    1    3    3    0    0  0.56445116581E+01  0.70641518551E+01  0.11039507612E+02  0.14270020388E+02  0.51100000000E-03 0.  1.
         12    1    3    3    0    0  0.25071229653E+01  0.14032883852E+01 -0.30320487770E+01  0.41771046960E+01  0.00000000000E+00 0. -1.
</event>
<event>
 7    1  0.3910751E-009  0.4778727E+02  0.7816164E-02  0.1312668E+00
        -11   -1    0    0    0    0  0.00000000000E+00  0.00000000000E+00  0.45593999997E+02  0.45594000000E+02  0.51100000000E-03 0. -1.
         11   -1    0    0    0    0 -0.00000000000E+00 -0.00000000000E+00 -0.45593999997E+02  0.45594000000E+02  0.51100000000E-03 0.  1.
    9900012    2    1    2    0    0  0.42977654668E+02 -0.48079272375E+01  0.36645294320E+01  0.47787265662E+02  0.19999975460E+02 0.  0.
        -12    1    1    2    0    0 -0.42977654668E+02  0.48079272375E+01 -0.36645294320E+01  0.43400734338E+02  0.00000000000E+00 0.  1.
         11    1    3    3    0    0  0.63454292058E+01 -0.21226209410E+01  0.17524304952E+01  0.69167191910E+01  0.51100000000E-03 0. -1.
        -11    1    3    3    0    0  0.21307785542E+01 -0.39840879460E+01 -0.37648026937E+01  0.58810639847E+01  0.51100000000E-03 0.  1.
        -12    1    3    3    0    0  0.34501446908E+02  0.12987816496E+01  0.56769016304E+01  0.34989482486E+02  0.00000000000E+00 0.  1.
</event>
<event>
 7    1  0.3910751E-009  0.4778727E+02  0.7816164E-02  0.1312668E+00
        -11   -1    0    0    0    0  0.00000000000E+00  0.00000000000E+00  0.45593999997E+02  0.45594000000E+02  0.51100000000E-03 0.  1.
         11   -1    0    0    0    0 -0.00000000000E+00 -0.00000000000E+00 -0.45593999997E+02  0.45594000000E+02  0.51100000000E-03 0. -1.
    9900012    2    1    2    0    0 -0.11615419616E+02  0.40524357648E+02  0.10318986026E+02  0.47787274105E+02  0.20000013954E+02 0.  0.
        -12    1    1    2    0    0  0.11615419616E+02 -0.40524357648E+02 -0.10318986026E+02  0.43400725895E+02  0.00000000000E+00 0.  1.
         11    1    3    3    0    0  0.36382498451E+01  0.57965298434E+01  0.27765110018E+01  0.73855015920E+01  0.51100000000E-03 0. -1.
        -11    1    3    3    0    0 -0.49394197725E+01  0.94792747521E+01  0.76210178072E+01  0.13127620889E+02  0.51100000000E-03 0.  1.
         12    1    3    3    0    0 -0.10314249689E+02  0.25248553052E+02 -0.78542783363E-01  0.27274151625E+02  0.00000000000E+00 0. -1.
</event>
<event>
 7    1  0.3910751E-009  0.4778727E+02  0.7816164E-02  0.1312668E+00
        -11   -1    0    0    0    0  0.00000000000E+00  0.00000000000E+00  0.45593999997E+02  0.45594000000E+02  0.51100000000E-03 0. -1.
         11   -1    0    0    0    0 -0.00000000000E+00 -0.00000000000E+00 -0.45593999997E+02  0.45594000000E+02  0.51100000000E-03 0.  1.
    9900012    2    1    2    0    0 -0.82138297565E+01  0.38149916940E+02  0.18993165661E+02  0.47787268397E+02  0.19999987931E+02 0.  0.
        -12    1    1    2    0    0  0.82138297565E+01 -0.38149916940E+02 -0.18993165661E+02  0.43400731603E+02  0.00000000000E+00 0.  1.
         11    1    3    3    0    0  0.24964198540E+01 -0.82064881239E-01 -0.80215493833E+00  0.26234137185E+01  0.51100000000E-03 0. -1.
        -11    1    3    3    0    0 -0.42271611596E+01  0.70770514650E+01  0.71811052100E+01  0.10932603588E+02  0.51100000000E-03 0.  1.
         12    1    3    3    0    0 -0.64830884510E+01  0.31154930357E+02  0.12614215389E+02  0.34231251091E+02  0.00000000000E+00 0. -1.
</event>
<event>
 7    1  0.3910751E-009  0.4778727E+02  0.7816164E-02  0.1312668E+00
        -11   -1    0    0    0    0  0.00000000000E+00  0.00000000000E+00  0.45593999997E+02  0.45594000000E+02  0.51100000000E-03 0.  1.
         11   -1    0    0    0    0 -0.00000000000E+00 -0.00000000000E+00 -0.45593999997E+02  0.45594000000E+02  0.51100000000E-03 0. -1.
    9900012    2    1    2    0    0  0.15647937688E+02 -0.22456824738E+02 -0.33681692395E+02  0.47787270354E+02  0.19999996854E+02 0.  0.
        -12    1    1    2    0    0 -0.15647937688E+02  0.22456824738E+02  0.33681692395E+02  0.43400729646E+02  0.00000000000E+00 0.  1.
         11    1    3    3    0    0 -0.14032220356E+01 -0.10378023331E+01  0.39303342161E+00  0.17890056722E+01  0.51100000000E-03 0. -1.
        -11    1    3    3    0    0  0.83798710347E+01 -0.10683268220E+01 -0.65709749291E+01  0.10702395645E+02  0.51100000000E-03 0.  1.
         12    1    3    3    0    0  0.86712886890E+01 -0.20350695583E+02 -0.27503750887E+02  0.35295869037E+02  0.00000000000E+00 0. -1.
</event>
<event>
 7    1  0.3910751E-009  0.4778727E+02  0.7816164E-02  0.1312668E+00
        -11   -1    0    0    0    0  0.00000000000E+00  0.00000000000E+00  0.45593999997E+02  0.45594000000E+02  0.51100000000E-03 0.  1.
         11   -1    0    0    0    0 -0.00000000000E+00 -0.00000000000E+00 -0.45593999997E+02  0.45594000000E+02  0.51100000000E-03 0. -1.
    9900012    2    1    2    0    0  0.21174638480E+02 -0.36586883221E+02 -0.98314752938E+01  0.47787271377E+02  0.20000001517E+02 0.  0.
        -12    1    1    2    0    0 -0.21174638480E+02  0.36586883221E+02  0.98314752938E+01  0.43400728623E+02  0.00000000000E+00 0.  1.
         11    1    3    3    0    0  0.60334129083E+01 -0.68726749244E+01  0.18631938657E+01  0.93331250705E+01  0.51100000000E-03 0. -1.
        -11    1    3    3    0    0  0.85372570485E+01 -0.11009679208E+02  0.23776537346E+01  0.14133330524E+02  0.51100000000E-03 0.  1.
        -12    1    3    3    0    0  0.66039685228E+01 -0.18704529089E+02 -0.14072322894E+02  0.24320815782E+02  0.00000000000E+00 0.  1.
</event>
<event>
 7    1  0.3910751E-009  0.4778727E+02  0.7816164E-02  0.1312668E+00
        -11   -1    0    0    0    0  0.00000000000E+00  0.00000000000E+00  0.45593999997E+02  0.45594000000E+02  0.51100000000E-03 0. -1.
         11   -1    0    0    0    0 -0.00000000000E+00 -0.00000000000E+00 -0.45593999997E+02  0.45594000000E+02  0.51100000000E-03 0.  1.
    9900012    2    1    2    0    0 -0.15600586804E+02 -0.39869335484E+02  0.71190515552E+01  0.47787272868E+02  0.20000008313E+02 0.  0.
        -12    1    1    2    0    0  0.15600586804E+02  0.39869335484E+02 -0.71190515552E+01  0.43400727132E+02  0.00000000000E+00 0.  1.
         11    1    3    3    0    0 -0.65294335373E+01 -0.25712856373E+02 -0.68835962060E+00  0.26537865860E+02  0.51100000000E-03 0. -1.
        -11    1    3    3    0    0 -0.60094880920E+01 -0.15324042023E+02  0.69113088345E+01  0.17852350017E+02  0.51100000000E-03 0.  1.
         12    1    3    3    0    0 -0.30616651744E+01  0.11675629118E+01  0.89610234129E+00  0.33970569909E+01  0.00000000000E+00 0. -1.
</event>
<event>
 7    1  0.3910751E-009  0.4778727E+02  0.7816164E-02  0.1312668E+00
        -11   -1    0    0    0    0  0.00000000000E+00  0.00000000000E+00  0.45593999997E+02  0.45594000000E+02  0.51100000000E-03 0. -1.
         11   -1    0    0    0    0 -0.00000000000E+00 -0.00000000000E+00 -0.45593999997E+02  0.45594000000E+02  0.51100000000E-03 0.  1.
    9900012    2    1    2    0    0 -0.96028017023E+01  0.36127992176E+02  0.22049436903E+02  0.47787270894E+02  0.19999999312E+02 0.  0.
        -12    1    1    2    0    0  0.96028017023E+01 -0.36127992176E+02 -0.22049436903E+02  0.43400729106E+02  0.00000000000E+00 0.  1.
         11    1    3    3    0    0 -0.14008764750E+02  0.20794344304E+02  0.16382635939E+02  0.29950642822E+02  0.51100000000E-03 0. -1.
        -11    1    3    3    0    0  0.13602282180E+01  0.17918453844E+01 -0.97190355308E+00  0.24506177719E+01  0.51100000000E-03 0.  1.
         12    1    3    3    0    0  0.30457348301E+01  0.13541802488E+02  0.66387045166E+01  0.15386010300E+02  0.00000000000E+00 0. -1.
</event>
<event>
 7    1  0.3910751E-009  0.4778728E+02  0.7816164E-02  0.1312668E+00
        -11   -1    0    0    0    0  0.00000000000E+00  0.00000000000E+00  0.45593999997E+02  0.45594000000E+02  0.51100000000E-03 0. -1.
         11   -1    0    0    0    0 -0.00000000000E+00 -0.00000000000E+00 -0.45593999997E+02  0.45594000000E+02  0.51100000000E-03 0.  1.
    9900012    2    1    2    0    0  0.34833214017E+02  0.16617545570E+02  0.19852632080E+02  0.47787278577E+02  0.20000034343E+02 0.  0.
        -12    1    1    2    0    0 -0.34833214017E+02 -0.16617545570E+02 -0.19852632080E+02  0.43400721423E+02  0.00000000000E+00 0.  1.
         11    1    3    3    0    0  0.13998520996E+01  0.33891855190E+01 -0.15684914245E+01  0.39882740619E+01  0.51100000000E-03 0.  1.
        -11    1    3    3    0    0  0.49108566434E+01 -0.87482105162E+00  0.76396118984E+01  0.91238969232E+01  0.51100000000E-03 0. -1.
        -12    1    3    3    0    0  0.28522505274E+02  0.14103181102E+02  0.13781511606E+02  0.34675107592E+02  0.00000000000E+00 0.  1.
</event>
<event>
 7    1  0.3910751E-009  0.4778727E+02  0.7816164E-02  0.1312668E+00
        -11   -1    0    0    0    0  0.00000000000E+00  0.00000000000E+00  0.45593999997E+02  0.45594000000E+02  0.51100000000E-03 0.  1.
         11   -1    0    0    0    0 -0.00000000000E+00 -0.00000000000E+00 -0.45593999997E+02  0.45594000000E+02  0.51100000000E-03 0. -1.
    9900012    2    1    2    0    0 -0.33343914337E+02  0.27774072188E+02  0.63845712819E+00  0.47787270321E+02  0.19999996700E+02 0.  0.
        -12    1    1    2    0    0  0.33343914337E+02 -0.27774072188E+02 -0.63845712819E+00  0.43400729679E+02  0.00000000000E+00 0.  1.
         11    1    3    3    0    0 -0.12618439712E+02  0.15782850951E+02 -0.45156024754E+00  0.20212058574E+02  0.51100000000E-03 0. -1.
        -11    1    3    3    0    0 -0.17201434956E+02  0.14157633209E+02 -0.20632298501E+01  0.22373753827E+02  0.51100000000E-03 0.  1.
        -12    1    3    3    0    0 -0.35240396691E+01 -0.21664119719E+01  0.31532472259E+01  0.52014579195E+01  0.00000000000E+00 0.  1.
</event>
<event>
 7    1  0.3910751E-009  0.4778727E+02  0.7816164E-02  0.1312668E+00
        -11   -1    0    0    0    0  0.00000000000E+00  0.00000000000E+00  0.45593999997E+02  0.45594000000E+02  0.51100000000E-03 0. -1.
         11   -1    0    0    0    0 -0.00000000000E+00 -0.00000000000E+00 -0.45593999997E+02  0.45594000000E+02  0.51100000000E-03 0.  1.
    9900012    2    1    2    0    0 -0.25519158162E+02  0.17125538164E+02  0.30644929893E+02  0.47787271678E+02  0.20000002890E+02 0.  0.
        -12    1    1    2    0    0  0.25519158162E+02 -0.17125538164E+02 -0.30644929893E+02  0.43400728322E+02  0.00000000000E+00 0.  1.
         11    1    3    3    0    0 -0.19751367881E+02  0.11540197697E+02  0.13491025178E+02  0.26557493418E+02  0.51100000000E-03 0. -1.
        -11    1    3    3    0    0 -0.47818919190E+01  0.81780553428E+01  0.11255316073E+02  0.14711533560E+02  0.51100000000E-03 0.  1.
        -12    1    3    3    0    0 -0.98589836233E+00 -0.25927148755E+01  0.58985886417E+01  0.65182447001E+01  0.00000000000E+00 0.  1.
</event>
<event>
 7    1  0.3910751E-009  0.4778727E+02  0.7816164E-02  0.1312668E+00
        -11   -1    0    0    0    0  0.00000000000E+00  0.00000000000E+00  0.45593999997E+02  0.45594000000E+02  0.51100000000E-03 0. -1.
         11   -1    0    0    0    0 -0.00000000000E+00 -0.00000000000E+00 -0.45593999997E+02  0.45594000000E+02  0.51100000000E-03 0.  1.
    9900012    2    1    2    0    0 -0.21361918731E+02 -0.37136154313E+02  0.69424697351E+01  0.47787269418E+02  0.19999992584E+02 0.  0.
        -12    1    1    2    0    0  0.21361918731E+02  0.37136154313E+02 -0.69424697351E+01  0.43400730582E+02  0.00000000000E+00 0.  1.
         11    1    3    3    0    0 -0.49815877661E+01 -0.26926076852E+02  0.43023779406E+01  0.27718951775E+02  0.51100000000E-03 0. -1.
        -11    1    3    3    0    0  0.25761878000E+00  0.13279131559E+00  0.12928191973E+00  0.31735633788E+00  0.51100000000E-03 0.  1.
        -12    1    3    3    0    0 -0.16637949745E+02 -0.10342868777E+02  0.25108098748E+01  0.19750961305E+02  0.00000000000E+00 0.  1.
</event>
<event>
 7    1  0.3910751E-009  0.4778728E+02  0.7816164E-02  0.1312668E+00
        -11   -1    0    0    0    0  0.00000000000E+00  0.00000000000E+00  0.45593999997E+02  0.45594000000E+02  0.51100000000E-03 0. -1.
         11   -1    0    0    0    0 -0.00000000000E+00 -0.00000000000E+00 -0.45593999997E+02  0.45594000000E+02  0.51100000000E-03 0.  1.
    9900012    2    1    2    0    0  0.60609746363E+01 -0.35473417524E+02  0.24259515194E+02  0.47787276022E+02  0.20000022696E+02 0.  0.
        -12    1    1    2    0    0 -0.60609746363E+01  0.35473417524E+02 -0.24259515194E+02  0.43400723978E+02  0.00000000000E+00 0.  1.
         11    1    3    3    0    0 -0.22654458695E+01 -0.47479275316E+01 -0.33296305782E+00  0.52712356703E+01  0.51100000000E-03 0. -1.
        -11    1    3    3    0    0  0.54753017995E+01 -0.23937236023E+02  0.10684162946E+02  0.26779125011E+02  0.51100000000E-03 0.  1.
         12    1    3    3    0    0  0.28511187063E+01 -0.67882539694E+01  0.13908315305E+02  0.15736915341E+02  0.00000000000E+00 0. -1.
</event>
<event>
 7    1  0.3910751E-009  0.4778727E+02  0.7816164E-02  0.1312668E+00
        -11   -1    0    0    0    0  0.00000000000E+00  0.00000000000E+00  0.45593999997E+02  0.45594000000E+02  0.51100000000E-03 0.  1.
         11   -1    0    0    0    0 -0.00000000000E+00 -0.00000000000E+00 -0.45593999997E+02  0.45594000000E+02  0.51100000000E-03 0. -1.
    9900012    2    1    2    0    0 -0.71656206361E+01  0.36994493518E+02 -0.21533343890E+02  0.47787267647E+02  0.19999984509E+02 0.  0.
        -12    1    1    2    0    0  0.71656206361E+01 -0.36994493518E+02  0.21533343890E+02  0.43400732353E+02  0.00000000000E+00 0.  1.
         11    1    3    3    0    0 -0.31106883264E+01  0.21514320286E+02 -0.14622360666E+02  0.26198392907E+02  0.51100000000E-03 0. -1.
        -11    1    3    3    0    0  0.34470229771E+01  0.31881155889E+01 -0.53279689128E+01  0.71016407548E+01  0.51100000000E-03 0.  1.
         12    1    3    3    0    0 -0.75019552867E+01  0.12292057643E+02 -0.15830143110E+01  0.14487233985E+02  0.00000000000E+00 0. -1.
</event>
<event>
 7    1  0.3910751E-009  0.4778727E+02  0.7816164E-02  0.1312668E+00
        -11   -1    0    0    0    0  0.00000000000E+00  0.00000000000E+00  0.45593999997E+02  0.45594000000E+02  0.51100000000E-03 0. -1.
         11   -1    0    0    0    0 -0.00000000000E+00 -0.00000000000E+00 -0.45593999997E+02  0.45594000000E+02  0.51100000000E-03 0.  1.
    9900012    2    1    2    0    0  0.20865041914E+02 -0.18369471111E+02  0.33329201309E+02  0.47787273015E+02  0.20000008983E+02 0.  0.
        -12    1    1    2    0    0 -0.20865041914E+02  0.18369471111E+02 -0.33329201309E+02  0.43400726985E+02  0.00000000000E+00 0.  1.
         11    1    3    3    0    0  0.18145564728E+02 -0.94073232631E+01  0.20465752229E+02  0.28924146744E+02  0.51100000000E-03 0. -1.
        -11    1    3    3    0    0  0.31258710003E+01 -0.33959929434E+01 -0.23879047964E+00  0.46217809053E+01  0.51100000000E-03 0.  1.
         12    1    3    3    0    0 -0.40639381446E+00 -0.55661549050E+01  0.13102239559E+02  0.14241345365E+02  0.00000000000E+00 0. -1.
</event>
<event>
 7    1  0.3910751E-009  0.4778727E+02  0.7816164E-02  0.1312668E+00
        -11   -1    0    0    0    0  0.00000000000E+00  0.00000000000E+00  0.45593999997E+02  0.45594000000E+02  0.51100000000E-03 0.  1.
         11   -1    0    0    0    0 -0.00000000000E+00 -0.00000000000E+00 -0.45593999997E+02  0.45594000000E+02  0.51100000000E-03 0. -1.
    9900012    2    1    2    0    0 -0.30291171420E+02 -0.21415445729E+02 -0.22526587793E+02  0.47787267986E+02  0.19999986055E+02 0.  0.
        -12    1    1    2    0    0  0.30291171420E+02  0.21415445729E+02  0.22526587793E+02  0.43400732014E+02  0.00000000000E+00 0.  1.
         11    1    3    3    0    0 -0.10248976509E+02 -0.72023456182E+01  0.31439111113E+00  0.12530528477E+02  0.51100000000E-03 0. -1.
        -11    1    3    3    0    0  0.12622418594E+01 -0.16834905752E+01 -0.13156554915E+01  0.24816012294E+01  0.51100000000E-03 0.  1.
         12    1    3    3    0    0 -0.21304436770E+02 -0.12529609536E+02 -0.21525323413E+02  0.32775138280E+02  0.00000000000E+00 0. -1.
</event>
<event>
 7    1  0.3910751E-009  0.4778727E+02  0.7816164E-02  0.1312668E+00
        -11   -1    0    0    0    0  0.00000000000E+00  0.00000000000E+00  0.45593999997E+02  0.45594000000E+02  0.51100000000E-03 0.  1.
         11   -1    0    0    0    0 -0.00000000000E+00 -0.00000000000E+00 -0.45593999997E+02  0.45594000000E+02  0.51100000000E-03 0. -1.
    9900012    2    1    2    0    0 -0.29548035682E+02 -0.31750131180E+02 -0.15703686277E+01  0.47787270741E+02  0.19999998616E+02 0.  0.
        -12    1    1    2    0    0  0.29548035682E+02  0.31750131180E+02  0.15703686277E+01  0.43400729259E+02  0.00000000000E+00 0.  1.
         11    1    3    3    0    0 -0.10750899796E+02 -0.50348505621E+01  0.28693700534E+00  0.11874927356E+02  0.51100000000E-03 0. -1.
        -11    1    3    3    0    0 -0.12705779502E+02 -0.70410759905E+01 -0.43568662321E+01  0.15165614643E+02  0.51100000000E-03 0.  1.
        -12    1    3    3    0    0 -0.60913563833E+01 -0.19674204627E+02  0.24995605991E+01  0.20746728742E+02  0.00000000000E+00 0.  1.
</event>
<event>
 7    1  0.3910751E-009  0.4778727E+02  0.7816164E-02  0.1312668E+00
        -11   -1    0    0    0    0  0.00000000000E+00  0.00000000000E+00  0.45593999997E+02  0.45594000000E+02  0.51100000000E-03 0.  1.
         11   -1    0    0    0    0 -0.00000000000E+00 -0.00000000000E+00 -0.45593999997E+02  0.45594000000E+02  0.51100000000E-03 0. -1.
    9900012    2    1    2    0    0 -0.36629653091E+02  0.58244863580E+01 -0.22538127174E+02  0.47787270704E+02  0.19999998450E+02 0.  0.
        -12    1    1    2    0    0  0.36629653091E+02 -0.58244863580E+01  0.22538127174E+02  0.43400729296E+02  0.00000000000E+00 0.  1.
         11    1    3    3    0    0 -0.39330266807E+01 -0.32247820806E+01 -0.80704399585E+01  0.95393878065E+01  0.51100000000E-03 0.  1.
        -11    1    3    3    0    0 -0.14666699630E+02  0.75649505467E+01 -0.10985779505E+02  0.19824931435E+02  0.51100000000E-03 0. -1.
         12    1    3    3    0    0 -0.18029926780E+02  0.14843178919E+01 -0.34819077106E+01  0.18422951463E+02  0.00000000000E+00 0. -1.
</event>
<event>
 7    1  0.3910751E-009  0.4778729E+02  0.7816164E-02  0.1312668E+00
        -11   -1    0    0    0    0  0.00000000000E+00  0.00000000000E+00  0.45593999997E+02  0.45594000000E+02  0.51100000000E-03 0. -1.
         11   -1    0    0    0    0 -0.00000000000E+00 -0.00000000000E+00 -0.45593999997E+02  0.45594000000E+02  0.51100000000E-03 0.  1.
    9900012    2    1    2    0    0  0.18164754645E+02  0.36043347528E+02  0.15954335642E+02  0.47787285281E+02  0.20000064909E+02 0.  0.
        -12    1    1    2    0    0 -0.18164754645E+02 -0.36043347528E+02 -0.15954335642E+02  0.43400714719E+02  0.00000000000E+00 0.  1.
         11    1    3    3    0    0  0.85644258757E+01  0.16230667140E+02  0.11841602125E+02  0.21840501083E+02  0.51100000000E-03 0. -1.
        -11    1    3    3    0    0  0.64284312016E+00  0.10248458994E+02  0.71284941019E+01  0.12500383492E+02  0.51100000000E-03 0.  1.
         12    1    3    3    0    0  0.89574856493E+01  0.95642213949E+01 -0.30157605852E+01  0.13446400706E+02  0.00000000000E+00 0. -1.
</event>
<event>
 7    1  0.3910751E-009  0.4778727E+02  0.7816164E-02  0.1312668E+00
        -11   -1    0    0    0    0  0.00000000000E+00  0.00000000000E+00  0.45593999997E+02  0.45594000000E+02  0.51100000000E-03 0. -1.
         11   -1    0    0    0    0 -0.00000000000E+00 -0.00000000000E+00 -0.45593999997E+02  0.45594000000E+02  0.51100000000E-03 0.  1.
    9900012    2    1    2    0    0  0.14025476972E+02  0.34872480856E+02  0.21698373852E+02  0.47787270131E+02  0.19999995836E+02 0.  0.
        -12    1    1    2    0    0 -0.14025476972E+02 -0.34872480856E+02 -0.21698373852E+02  0.43400729869E+02  0.00000000000E+00 0.  1.
         11    1    3    3    0    0  0.70170614538E+01  0.25033328276E+02  0.14850144059E+02  0.29940498574E+02  0.51100000000E-03 0. -1.
        -11    1    3    3    0    0  0.52448113392E+01  0.10687985932E+02  0.13153996162E+01  0.11977953318E+02  0.51100000000E-03 0.  1.
         12    1    3    3    0    0  0.17636041796E+01 -0.84883335252E+00  0.55328301768E+01  0.58688182395E+01  0.00000000000E+00 0. -1.
</event>
<event>
 7    1  0.3910751E-009  0.4778727E+02  0.7816164E-02  0.1312668E+00
        -11   -1    0    0    0    0  0.00000000000E+00  0.00000000000E+00  0.45593999997E+02  0.45594000000E+02  0.51100000000E-03 0.  1.
         11   -1    0    0    0    0 -0.00000000000E+00 -0.00000000000E+00 -0.45593999997E+02  0.45594000000E+02  0.51100000000E-03 0. -1.
    9900012    2    1    2    0    0  0.11015689820E+02 -0.36635949309E+02 -0.20495979133E+02  0.47787269999E+02  0.19999995235E+02 0.  0.
        -12    1    1    2    0    0 -0.11015689820E+02  0.36635949309E+02  0.20495979133E+02  0.43400730001E+02  0.00000000000E+00 0.  1.
         11    1    3    3    0    0  0.27298117547E+01 -0.66124240334E+01  0.33047985465E+01  0.78802104990E+01  0.51100000000E-03 0. -1.
        -11    1    3    3    0    0  0.25852538990E+01 -0.78268727371E+01 -0.10709922301E+02  0.13514655397E+02  0.51100000000E-03 0.  1.
        -12    1    3    3    0    0  0.57006241658E+01 -0.22196652538E+02 -0.13090855379E+02  0.26392404103E+02  0.00000000000E+00 0.  1.
</event>
<event>
 7    1  0.3910751E-009  0.4778727E+02  0.7816164E-02  0.1312668E+00
        -11   -1    0    0    0    0  0.00000000000E+00  0.00000000000E+00  0.45593999997E+02  0.45594000000E+02  0.51100000000E-03 0. -1.
         11   -1    0    0    0    0 -0.00000000000E+00 -0.00000000000E+00 -0.45593999997E+02  0.45594000000E+02  0.51100000000E-03 0.  1.
    9900012    2    1    2    0    0  0.27092986316E+02 -0.19708056341E+02 -0.27589600468E+02  0.47787269059E+02  0.19999990945E+02 0.  0.
        -12    1    1    2    0    0 -0.27092986316E+02  0.19708056341E+02  0.27589600468E+02  0.43400730941E+02  0.00000000000E+00 0.  1.
         11    1    3    3    0    0  0.80137629741E+01 -0.16147935320E+02 -0.16336721580E+02  0.24328269243E+02  0.51100000000E-03 0.  1.
        -11    1    3    3    0    0  0.10865051748E+02 -0.43137689464E+01 -0.94102529720E+01  0.15007025463E+02  0.51100000000E-03 0. -1.
         12    1    3    3    0    0  0.82141715946E+01  0.75364792591E+00 -0.18426259159E+01  0.84519743520E+01  0.00000000000E+00 0. -1.
</event>
<event>
 7    1  0.3910751E-009  0.4778727E+02  0.7816164E-02  0.1312668E+00
        -11   -1    0    0    0    0  0.00000000000E+00  0.00000000000E+00  0.45593999997E+02  0.45594000000E+02  0.51100000000E-03 0.  1.
         11   -1    0    0    0    0 -0.00000000000E+00 -0.00000000000E+00 -0.45593999997E+02  0.45594000000E+02  0.51100000000E-03 0. -1.
    9900012    2    1    2    0    0 -0.11905947545E+02  0.23266826523E+01 -0.41670828297E+02  0.47787274545E+02  0.20000015958E+02 0.  0.
        -12    1    1    2    0    0  0.11905947545E+02 -0.23266826523E+01  0.41670828297E+02  0.43400725455E+02  0.00000000000E+00 0.  1.
         11    1    3    3    0    0  0.10516057617E+01  0.13865730680E+01 -0.38338997862E+01  0.42103737818E+01  0.51100000000E-03 0. -1.
        -11    1    3    3    0    0 -0.34528195901E+01  0.50035238093E+01 -0.21903301191E+01  0.64617923151E+01  0.51100000000E-03 0.  1.
         12    1    3    3    0    0 -0.95047337171E+01 -0.40634142251E+01 -0.35646598391E+02  0.37115108448E+02  0.00000000000E+00 0. -1.
</event>
<event>
 7    1  0.3910751E-009  0.4778727E+02  0.7816164E-02  0.1312668E+00
        -11   -1    0    0    0    0  0.00000000000E+00  0.00000000000E+00  0.45593999997E+02  0.45594000000E+02  0.51100000000E-03 0.  1.
         11   -1    0    0    0    0 -0.00000000000E+00 -0.00000000000E+00 -0.45593999997E+02  0.45594000000E+02  0.51100000000E-03 0. -1.
    9900012    2    1    2    0    0  0.19184932042E+02 -0.16217698675E+02 -0.35391352791E+02  0.47787271663E+02  0.20000002819E+02 0.  0.
        -12    1    1    2    0    0 -0.19184932042E+02  0.16217698675E+02  0.35391352791E+02  0.43400728337E+02  0.00000000000E+00 0.  1.
         11    1    3    3    0    0  0.50933158103E+01 -0.36051760448E+01 -0.11240759076E+02  0.12856664619E+02  0.51100000000E-03 0. -1.
        -11    1    3    3    0    0  0.36976459782E+01 -0.29135351216E+01 -0.19367131377E+02  0.19931057441E+02  0.51100000000E-03 0.  1.
        -12    1    3    3    0    0  0.10393970254E+02 -0.96989875091E+01 -0.47834623380E+01  0.14999549603E+02  0.00000000000E+00 0.  1.
</event>
<event>
 7    1  0.3910751E-009  0.4778727E+02  0.7816164E-02  0.1312668E+00
        -11   -1    0    0    0    0  0.00000000000E+00  0.00000000000E+00  0.45593999997E+02  0.45594000000E+02  0.51100000000E-03 0. -1.
         11   -1    0    0    0    0 -0.00000000000E+00 -0.00000000000E+00 -0.45593999997E+02  0.45594000000E+02  0.51100000000E-03 0.  1.
    9900012    2    1    2    0    0  0.38447003615E+02  0.38952638404E+01  0.19755452109E+02  0.47787273562E+02  0.20000011478E+02 0.  0.
        -12    1    1    2    0    0 -0.38447003615E+02 -0.38952638404E+01 -0.19755452109E+02  0.43400726438E+02  0.00000000000E+00 0.  1.
         11    1    3    3    0    0  0.16089139034E+02 -0.55736615013E+01  0.87564300973E+01  0.19146831740E+02  0.51100000000E-03 0. -1.
        -11    1    3    3    0    0  0.62802810960E+01 -0.19411471476E+01  0.41298076053E+01  0.77630724595E+01  0.51100000000E-03 0.  1.
        -12    1    3    3    0    0  0.16077583485E+02  0.11410072489E+02  0.68692144065E+01  0.20877369362E+02  0.00000000000E+00 0.  1.
</event>
<event>
 7    1  0.3910751E-009  0.4778727E+02  0.7816164E-02  0.1312668E+00
        -11   -1    0    0    0    0  0.00000000000E+00  0.00000000000E+00  0.45593999997E+02  0.45594000000E+02  0.51100000000E-03 0.  1.
         11   -1    0    0    0    0 -0.00000000000E+00 -0.00000000000E+00 -0.45593999997E+02  0.45594000000E+02  0.51100000000E-03 0. -1.
    9900012    2    1    2    0    0 -0.76782047862E+01 -0.15123808749E+02 -0.39949200269E+02  0.47787273947E+02  0.20000013234E+02 0.  0.
        -12    1    1    2    0    0  0.76782047862E+01  0.15123808749E+02  0.39949200269E+02  0.43400726053E+02  0.00000000000E+00 0.  1.
         11    1    3    3    0    0  0.18937724549E+01 -0.84570000316E+01 -0.14336356062E+02  0.16752263400E+02  0.51100000000E-03 0. -1.
        -11    1    3    3    0    0 -0.62622300546E+01 -0.90127152911E+01 -0.98110678452E+01  0.14720788522E+02  0.51100000000E-03 0.  1.
         12    1    3    3    0    0 -0.33097471866E+01  0.23459065738E+01 -0.15801776362E+02  0.16314222025E+02  0.00000000000E+00 0. -1.
</event>
<event>
 7    1  0.3910751E-009  0.4778726E+02  0.7816164E-02  0.1312668E+00
        -11   -1    0    0    0    0  0.00000000000E+00  0.00000000000E+00  0.45593999997E+02  0.45594000000E+02  0.51100000000E-03 0.  1.
         11   -1    0    0    0    0 -0.00000000000E+00 -0.00000000000E+00 -0.45593999997E+02  0.45594000000E+02  0.51100000000E-03 0. -1.
    9900012    2    1    2    0    0 -0.28077057245E+02  0.13731218454E+02 -0.30112395597E+02  0.47787264150E+02  0.19999968564E+02 0.  0.
        -12    1    1    2    0    0  0.28077057245E+02 -0.13731218454E+02  0.30112395597E+02  0.43400735850E+02  0.00000000000E+00 0.  1.
         11    1    3    3    0    0 -0.74137733680E+01  0.14396868030E+01 -0.11465322744E+02  0.13729179128E+02  0.51100000000E-03 0. -1.
        -11    1    3    3    0    0  0.17615160923E+01  0.39150912434E+01 -0.12677832448E+01  0.44763995582E+01  0.51100000000E-03 0.  1.
         12    1    3    3    0    0 -0.22424799970E+02  0.83764404073E+01 -0.17379289607E+02  0.29581685463E+02  0.00000000000E+00 0. -1.
</event>
<event>
 7    1  0.3910751E-009  0.4778726E+02  0.7816164E-02  0.1312668E+00
        -11   -1    0    0    0    0  0.00000000000E+00  0.00000000000E+00  0.45593999997E+02  0.45594000000E+02  0.51100000000E-03 0.  1.
         11   -1    0    0    0    0 -0.00000000000E+00 -0.00000000000E+00 -0.45593999997E+02  0.45594000000E+02  0.51100000000E-03 0. -1.
    9900012    2    1    2    0    0 -0.18054596916E+01  0.86496000122E+00 -0.43354545624E+02  0.47787257302E+02  0.19999937341E+02 0.  0.
        -12    1    1    2    0    0  0.18054596916E+01 -0.86496000122E+00  0.43354545624E+02  0.43400742698E+02  0.00000000000E+00 0.  1.
         11    1    3    3    0    0  0.50070558207E+00  0.22037109420E+01 -0.11897596084E+02  0.12110319601E+02  0.51100000000E-03 0. -1.
        -11    1    3    3    0    0 -0.88171343901E+01 -0.29511595162E+00 -0.10538005136E+02  0.13743307636E+02  0.51100000000E-03 0.  1.
         12    1    3    3    0    0  0.65109691164E+01 -0.10436349891E+01 -0.20918944405E+02  0.21933630065E+02  0.00000000000E+00 0. -1.
</event>
<event>
 7    1  0.3910751E-009  0.4778727E+02  0.7816164E-02  0.1312668E+00
        -11   -1    0    0    0    0  0.00000000000E+00  0.00000000000E+00  0.45593999997E+02  0.45594000000E+02  0.51100000000E-03 0. -1.
         11   -1    0    0    0    0 -0.00000000000E+00 -0.00000000000E+00 -0.45593999997E+02  0.45594000000E+02  0.51100000000E-03 0.  1.
    9900012    2    1    2    0    0 -0.10716918206E+02 -0.38648562812E+02  0.16584916706E+02  0.47787271833E+02  0.20000003595E+02 0.  0.
        -12    1    1    2    0    0  0.10716918206E+02  0.38648562812E+02 -0.16584916706E+02  0.43400728167E+02  0.00000000000E+00 0.  1.
         11    1    3    3    0    0 -0.77944527735E+01 -0.11282255763E+02  0.96560852416E+00  0.13746824696E+02  0.51100000000E-03 0. -1.
        -11    1    3    3    0    0 -0.20833838740E+01  0.36984583787E+00 -0.15455997938E+00  0.21215945321E+01  0.51100000000E-03 0.  1.
        -12    1    3    3    0    0 -0.83908155843E+00 -0.27736152887E+02  0.15773868161E+02  0.31918852605E+02  0.00000000000E+00 0.  1.
</event>
<event>
 7    1  0.3910751E-009  0.4778727E+02  0.7816164E-02  0.1312668E+00
        -11   -1    0    0    0    0  0.00000000000E+00  0.00000000000E+00  0.45593999997E+02  0.45594000000E+02  0.51100000000E-03 0. -1.
         11   -1    0    0    0    0 -0.00000000000E+00 -0.00000000000E+00 -0.45593999997E+02  0.45594000000E+02  0.51100000000E-03 0.  1.
    9900012    2    1    2    0    0  0.33702313999E+02 -0.27213113025E+02 -0.26877207269E+01  0.47787270373E+02  0.19999996939E+02 0.  0.
        -12    1    1    2    0    0 -0.33702313999E+02  0.27213113025E+02  0.26877207269E+01  0.43400729627E+02  0.00000000000E+00 0.  1.
         11    1    3    3    0    0  0.12235086514E+02 -0.42415468743E+01  0.64551831711E+00  0.12965521819E+02  0.51100000000E-03 0.  1.
        -11    1    3    3    0    0  0.12619074066E+02 -0.10179549030E+02  0.52686495930E+01  0.17047666043E+02  0.51100000000E-03 0. -1.
        -12    1    3    3    0    0  0.88481534199E+01 -0.12792017121E+02 -0.86018886370E+01  0.17774082511E+02  0.00000000000E+00 0.  1.
</event>
<event>
 7    1  0.3910751E-009  0.4778727E+02  0.7816164E-02  0.1312668E+00
        -11   -1    0    0    0    0  0.00000000000E+00  0.00000000000E+00  0.45593999997E+02  0.45594000000E+02  0.51100000000E-03 0.  1.
         11   -1    0    0    0    0 -0.00000000000E+00 -0.00000000000E+00 -0.45593999997E+02  0.45594000000E+02  0.51100000000E-03 0. -1.
    9900012    2    1    2    0    0  0.41000627573E+02 -0.54939407665E+01 -0.13129678628E+02  0.47787270658E+02  0.19999998237E+02 0.  0.
        -12    1    1    2    0    0 -0.41000627573E+02  0.54939407665E+01  0.13129678628E+02  0.43400729342E+02  0.00000000000E+00 0.  1.
         11    1    3    3    0    0  0.17461316229E+02 -0.51993306563E+01 -0.92315568720E+00  0.18242335936E+02  0.51100000000E-03 0. -1.
        -11    1    3    3    0    0  0.16252880883E+01 -0.27808341287E+01  0.15262505360E+01  0.35642728264E+01  0.51100000000E-03 0.  1.
         12    1    3    3    0    0  0.21914023256E+02  0.24862240185E+01 -0.13732773477E+02  0.25980661895E+02  0.00000000000E+00 0. -1.
</event>
<event>
 7    1  0.3910751E-009  0.4778727E+02  0.7816164E-02  0.1312668E+00
        -11   -1    0    0    0    0  0.00000000000E+00  0.00000000000E+00  0.45593999997E+02  0.45594000000E+02  0.51100000000E-03 0.  1.
         11   -1    0    0    0    0 -0.00000000000E+00 -0.00000000000E+00 -0.45593999997E+02  0.45594000000E+02  0.51100000000E-03 0. -1.
    9900012    2    1    2    0    0 -0.35794607839E+02  0.24465961276E+02 -0.19457337533E+01  0.47787273147E+02  0.20000009588E+02 0.  0.
        -12    1    1    2    0    0  0.35794607839E+02 -0.24465961276E+02  0.19457337533E+01  0.43400726853E+02  0.00000000000E+00 0.  1.
         11    1    3    3    0    0 -0.28392541460E+02  0.89523570045E+01  0.14465097809E+01  0.29805595067E+02  0.51100000000E-03 0.  1.
        -11    1    3    3    0    0 -0.11000054389E+01  0.10329907504E+01 -0.14099907036E+01  0.20652253876E+01  0.51100000000E-03 0. -1.
        -12    1    3    3    0    0 -0.63020609401E+01  0.14480613521E+02 -0.19822528305E+01  0.15916452692E+02  0.00000000000E+00 0.  1.
</event>
<event>
 7    1  0.3910751E-009  0.4778727E+02  0.7816164E-02  0.1312668E+00
        -11   -1    0    0    0    0  0.00000000000E+00  0.00000000000E+00  0.45593999997E+02  0.45594000000E+02  0.51100000000E-03 0.  1.
         11   -1    0    0    0    0 -0.00000000000E+00 -0.00000000000E+00 -0.45593999997E+02  0.45594000000E+02  0.51100000000E-03 0. -1.
    9900012    2    1    2    0    0 -0.17323573341E+02  0.21798186449E+01 -0.39733679378E+02  0.47787273283E+02  0.20000010207E+02 0.  0.
        -12    1    1    2    0    0  0.17323573341E+02 -0.21798186449E+01  0.39733679378E+02  0.43400726717E+02  0.00000000000E+00 0.  1.
         11    1    3    3    0    0 -0.19972604398E+02  0.45592066769E+01 -0.34022701722E+02  0.39714424642E+02  0.51100000000E-03 0. -1.
        -11    1    3    3    0    0  0.57148641648E+00 -0.26847904613E+01 -0.52480408837E+01  0.59225526526E+01  0.51100000000E-03 0.  1.
        -12    1    3    3    0    0  0.20775446412E+01  0.30540242921E+00 -0.46293677298E+00  0.21502959879E+01  0.00000000000E+00 0.  1.
</event>
<event>
 7    1  0.3910751E-009  0.4778727E+02  0.7816164E-02  0.1312668E+00
        -11   -1    0    0    0    0  0.00000000000E+00  0.00000000000E+00  0.45593999997E+02  0.45594000000E+02  0.51100000000E-03 0. -1.
         11   -1    0    0    0    0 -0.00000000000E+00 -0.00000000000E+00 -0.45593999997E+02  0.45594000000E+02  0.51100000000E-03 0.  1.
    9900012    2    1    2    0    0 -0.80909542677E+01  0.35652675188E+02  0.23389023403E+02  0.47787271841E+02  0.20000003630E+02 0.  0.
        -12    1    1    2    0    0  0.80909542677E+01 -0.35652675188E+02 -0.23389023403E+02  0.43400728159E+02  0.00000000000E+00 0.  1.
         11    1    3    3    0    0  0.16786196451E+01  0.51540547443E+01  0.11892575029E+01  0.55494484311E+01  0.51100000000E-03 0. -1.
        -11    1    3    3    0    0 -0.60527232348E+01  0.23982375929E+02  0.76878453345E+01  0.25901598018E+02  0.51100000000E-03 0.  1.
         12    1    3    3    0    0 -0.37168506779E+01  0.65162445151E+01  0.14511920565E+02  0.16336225391E+02  0.00000000000E+00 0. -1.
</event>
<event>
 7    1  0.3910751E-009  0.4778727E+02  0.7816164E-02  0.1312668E+00
        -11   -1    0    0    0    0  0.00000000000E+00  0.00000000000E+00  0.45593999997E+02  0.45594000000E+02  0.51100000000E-03 0.  1.
         11   -1    0    0    0    0 -0.00000000000E+00 -0.00000000000E+00 -0.45593999997E+02  0.45594000000E+02  0.51100000000E-03 0. -1.
    9900012    2    1    2    0    0 -0.12047743489E+02 -0.41572701337E+02  0.31914824809E+01  0.47787272125E+02  0.20000004926E+02 0.  0.
        -12    1    1    2    0    0  0.12047743489E+02  0.41572701337E+02 -0.31914824809E+01  0.43400727875E+02  0.00000000000E+00 0.  1.
         11    1    3    3    0    0  0.15689975380E+01 -0.14532252821E+02  0.12028776895E+01  0.14666118789E+02  0.51100000000E-03 0. -1.
        -11    1    3    3    0    0 -0.12098226626E+00 -0.14921511007E+02  0.77406951480E+00  0.14942065162E+02  0.51100000000E-03 0.  1.
        -12    1    3    3    0    0 -0.13495758761E+02 -0.12118937509E+02  0.12145352766E+01  0.18179088174E+02  0.00000000000E+00 0.  1.
</event>
<event>
 7    1  0.3910751E-009  0.4778727E+02  0.7816164E-02  0.1312668E+00
        -11   -1    0    0    0    0  0.00000000000E+00  0.00000000000E+00  0.45593999997E+02  0.45594000000E+02  0.51100000000E-03 0. -1.
         11   -1    0    0    0    0 -0.00000000000E+00 -0.00000000000E+00 -0.45593999997E+02  0.45594000000E+02  0.51100000000E-03 0.  1.
    9900012    2    1    2    0    0 -0.22675880794E+02 -0.24677351727E+02  0.27576371419E+02  0.47787268224E+02  0.19999987140E+02 0.  0.
        -12    1    1    2    0    0  0.22675880794E+02  0.24677351727E+02 -0.27576371419E+02  0.43400731776E+02  0.00000000000E+00 0.  1.
         11    1    3    3    0    0 -0.13355852311E+02 -0.10161762429E+02  0.11462632745E+02  0.20323192572E+02  0.51100000000E-03 0. -1.
        -11    1    3    3    0    0 -0.73268167718E+01 -0.55159010562E+01  0.15766473374E+02  0.18239766758E+02  0.51100000000E-03 0.  1.
        -12    1    3    3    0    0 -0.19932117112E+01 -0.89996882421E+01  0.34726530053E+00  0.92243088939E+01  0.00000000000E+00 0.  1.
</event>
<event>
 7    1  0.3910751E-009  0.4778727E+02  0.7816164E-02  0.1312668E+00
        -11   -1    0    0    0    0  0.00000000000E+00  0.00000000000E+00  0.45593999997E+02  0.45594000000E+02  0.51100000000E-03 0.  1.
         11   -1    0    0    0    0 -0.00000000000E+00 -0.00000000000E+00 -0.45593999997E+02  0.45594000000E+02  0.51100000000E-03 0. -1.
    9900012    2    1    2    0    0 -0.97551763669E+00  0.10996519470E+02 -0.41973182727E+02  0.47787272548E+02  0.20000006855E+02 0.  0.
        -12    1    1    2    0    0  0.97551763669E+00 -0.10996519470E+02  0.41973182727E+02  0.43400727452E+02  0.00000000000E+00 0.  1.
         11    1    3    3    0    0  0.30236446393E+01  0.10176486514E+01 -0.39327654470E+00  0.32144521126E+01  0.51100000000E-03 0. -1.
        -11    1    3    3    0    0  0.36157738914E+01  0.27396253206E+01 -0.20784815567E+02  0.21274113992E+02  0.51100000000E-03 0.  1.
         12    1    3    3    0    0 -0.76149361674E+01  0.72392454977E+01 -0.20795090616E+02  0.23298706443E+02  0.00000000000E+00 0. -1.
</event>
<event>
 7    1  0.3910751E-009  0.4778726E+02  0.7816164E-02  0.1312668E+00
        -11   -1    0    0    0    0  0.00000000000E+00  0.00000000000E+00  0.45593999997E+02  0.45594000000E+02  0.51100000000E-03 0.  1.
         11   -1    0    0    0    0 -0.00000000000E+00 -0.00000000000E+00 -0.45593999997E+02  0.45594000000E+02  0.51100000000E-03 0. -1.
    9900012    2    1    2    0    0 -0.17656039793E+02  0.43258827318E+00 -0.39644683589E+02  0.47787264861E+02  0.19999971806E+02 0.  0.
        -12    1    1    2    0    0  0.17656039793E+02 -0.43258827318E+00  0.39644683589E+02  0.43400735139E+02  0.00000000000E+00 0.  1.
         11    1    3    3    0    0 -0.70616698086E-01 -0.27109257050E+01 -0.46298159237E+01  0.53655661998E+01  0.51100000000E-03 0.  1.
        -11    1    3    3    0    0 -0.21474002879E+00 -0.14017012362E+01 -0.16747122931E+02  0.16807052281E+02  0.51100000000E-03 0. -1.
        -12    1    3    3    0    0 -0.17370683066E+02  0.45452152144E+01 -0.18267744734E+02  0.25614646380E+02  0.00000000000E+00 0.  1.
</event>
<event>
 7    1  0.3910751E-009  0.4778727E+02  0.7816164E-02  0.1312668E+00
        -11   -1    0    0    0    0  0.00000000000E+00  0.00000000000E+00  0.45593999997E+02  0.45594000000E+02  0.51100000000E-03 0.  1.
         11   -1    0    0    0    0 -0.00000000000E+00 -0.00000000000E+00 -0.45593999997E+02  0.45594000000E+02  0.51100000000E-03 0. -1.
    9900012    2    1    2    0    0 -0.16084704218E+01 -0.34793304237E+02 -0.25893282362E+02  0.47787271109E+02  0.20000000294E+02 0.  0.
        -12    1    1    2    0    0  0.16084704218E+01  0.34793304237E+02  0.25893282362E+02  0.43400728891E+02  0.00000000000E+00 0.  1.
         11    1    3    3    0    0 -0.27952063428E+01 -0.17606654546E+02 -0.11244673699E+02  0.21077242459E+02  0.51100000000E-03 0. -1.
        -11    1    3    3    0    0  0.28267857902E+01 -0.14602670294E+02 -0.17190239515E+02  0.22731762635E+02  0.51100000000E-03 0.  1.
        -12    1    3    3    0    0 -0.16400498692E+01 -0.25839793967E+01  0.25416308529E+01  0.39782660152E+01  0.00000000000E+00 0.  1.
</event>
<event>
 7    1  0.3910751E-009  0.4778728E+02  0.7816164E-02  0.1312668E+00
        -11   -1    0    0    0    0  0.00000000000E+00  0.00000000000E+00  0.45593999997E+02  0.45594000000E+02  0.51100000000E-03 0.  1.
         11   -1    0    0    0    0 -0.00000000000E+00 -0.00000000000E+00 -0.45593999997E+02  0.45594000000E+02  0.51100000000E-03 0. -1.
    9900012    2    1    2    0    0  0.24000038895E+02  0.57777264749E+01 -0.35696480458E+02  0.47787277572E+02  0.20000029760E+02 0.  0.
        -12    1    1    2    0    0 -0.24000038895E+02 -0.57777264749E+01  0.35696480458E+02  0.43400722428E+02  0.00000000000E+00 0.  1.
         11    1    3    3    0    0  0.27951928845E+01  0.25959460818E+01 -0.13693067546E+02  0.14214504508E+02  0.51100000000E-03 0. -1.
        -11    1    3    3    0    0  0.46234561393E+00  0.32650552933E+01 -0.77005935860E+01  0.83769619417E+01  0.51100000000E-03 0.  1.
        -12    1    3    3    0    0  0.20742500397E+02 -0.83274900168E-01 -0.14302819326E+02  0.25195811122E+02  0.00000000000E+00 0.  1.
</event>
<event>
 7    1  0.3910751E-009  0.4778727E+02  0.7816164E-02  0.1312668E+00
        -11   -1    0    0    0    0  0.00000000000E+00  0.00000000000E+00  0.45593999997E+02  0.45594000000E+02  0.51100000000E-03 0.  1.
         11   -1    0    0    0    0 -0.00000000000E+00 -0.00000000000E+00 -0.45593999997E+02  0.45594000000E+02  0.51100000000E-03 0. -1.
    9900012    2    1    2    0    0  0.35508797591E+02 -0.23357531108E+02 -0.87848767479E+01  0.47787273908E+02  0.20000013055E+02 0.  0.
        -12    1    1    2    0    0 -0.35508797591E+02  0.23357531108E+02  0.87848767479E+01  0.43400726092E+02  0.00000000000E+00 0.  1.
         11    1    3    3    0    0  0.14787928075E+01 -0.13517966953E+01 -0.37824668954E+01  0.42803315933E+01  0.51100000000E-03 0. -1.
        -11    1    3    3    0    0  0.12802026992E+02 -0.16909272344E+02 -0.49129193414E+00  0.21214541106E+02  0.51100000000E-03 0.  1.
         12    1    3    3    0    0  0.21227977792E+02 -0.50964620687E+01 -0.45111179184E+01  0.22292401209E+02  0.00000000000E+00 0. -1.
</event>
<event>
 7    1  0.3910751E-009  0.4778726E+02  0.7816164E-02  0.1312668E+00
        -11   -1    0    0    0    0  0.00000000000E+00  0.00000000000E+00  0.45593999997E+02  0.45594000000E+02  0.51100000000E-03 0.  1.
         11   -1    0    0    0    0 -0.00000000000E+00 -0.00000000000E+00 -0.45593999997E+02  0.45594000000E+02  0.51100000000E-03 0. -1.
    9900012    2    1    2    0    0  0.64608152562E+01 -0.40307936137E+02  0.14736094329E+02  0.47787258929E+02  0.19999944763E+02 0.  0.
        -12    1    1    2    0    0 -0.64608152562E+01  0.40307936137E+02 -0.14736094329E+02  0.43400741071E+02  0.00000000000E+00 0.  1.
         11    1    3    3    0    0 -0.43752073672E+01 -0.77270335270E+01 -0.94696531549E+00  0.89300744792E+01  0.51100000000E-03 0. -1.
        -11    1    3    3    0    0 -0.93213861981E+00 -0.43754082481E+00 -0.31003867899E+00  0.10753830125E+01  0.51100000000E-03 0.  1.
        -12    1    3    3    0    0  0.11768161243E+02 -0.32143361785E+02  0.15993098323E+02  0.37781801438E+02  0.00000000000E+00 0.  1.
</event>
<event>
 7    1  0.3910751E-009  0.4778727E+02  0.7816164E-02  0.1312668E+00
        -11   -1    0    0    0    0  0.00000000000E+00  0.00000000000E+00  0.45593999997E+02  0.45594000000E+02  0.51100000000E-03 0.  1.
         11   -1    0    0    0    0 -0.00000000000E+00 -0.00000000000E+00 -0.45593999997E+02  0.45594000000E+02  0.51100000000E-03 0. -1.
    9900012    2    1    2    0    0 -0.24758810718E+02 -0.10918975193E+02 -0.33932292984E+02  0.47787271497E+02  0.20000002061E+02 0.  0.
        -12    1    1    2    0    0  0.24758810718E+02  0.10918975193E+02  0.33932292984E+02  0.43400728503E+02  0.00000000000E+00 0.  1.
         11    1    3    3    0    0 -0.14311460812E+02 -0.11925790002E+02 -0.16565356901E+02  0.24928967633E+02  0.51100000000E-03 0.  1.
        -11    1    3    3    0    0 -0.11151036350E+01 -0.39434161356E+01 -0.32720952294E+01  0.52441009131E+01  0.51100000000E-03 0. -1.
        -12    1    3    3    0    0 -0.93322462713E+01  0.49502309443E+01 -0.14094840854E+02  0.17614202950E+02  0.00000000000E+00 0.  1.
</event>
<event>
 7    1  0.3910751E-009  0.4778727E+02  0.7816164E-02  0.1312668E+00
        -11   -1    0    0    0    0  0.00000000000E+00  0.00000000000E+00  0.45593999997E+02  0.45594000000E+02  0.51100000000E-03 0. -1.
         11   -1    0    0    0    0 -0.00000000000E+00 -0.00000000000E+00 -0.45593999997E+02  0.45594000000E+02  0.51100000000E-03 0.  1.
    9900012    2    1    2    0    0 -0.97384422058E+01 -0.42270490009E+02 -0.14113356008E+01  0.47787269011E+02  0.19999990729E+02 0.  0.
        -12    1    1    2    0    0  0.97384422058E+01  0.42270490009E+02  0.14113356008E+01  0.43400730989E+02  0.00000000000E+00 0.  1.
         11    1    3    3    0    0 -0.43708902538E+01 -0.23356523241E+02  0.13159351618E+01  0.23798393751E+02  0.51100000000E-03 0. -1.
        -11    1    3    3    0    0 -0.53045642847E+01 -0.19698971421E+02  0.75896518168E+00  0.20414796245E+02  0.51100000000E-03 0.  1.
        -12    1    3    3    0    0 -0.62987667376E-01  0.78500465270E+00 -0.34862359443E+01  0.35740790157E+01  0.00000000000E+00 0.  1.
</event>
<event>
 7    1  0.3910751E-009  0.4778727E+02  0.7816164E-02  0.1312668E+00
        -11   -1    0    0    0    0  0.00000000000E+00  0.00000000000E+00  0.45593999997E+02  0.45594000000E+02  0.51100000000E-03 0.  1.
         11   -1    0    0    0    0 -0.00000000000E+00 -0.00000000000E+00 -0.45593999997E+02  0.45594000000E+02  0.51100000000E-03 0. -1.
    9900012    2    1    2    0    0 -0.32586111278E+02 -0.24722825841E+02  0.14510353960E+02  0.47787272612E+02  0.20000007147E+02 0.  0.
        -12    1    1    2    0    0  0.32586111278E+02  0.24722825841E+02 -0.14510353960E+02  0.43400727388E+02  0.00000000000E+00 0.  1.
         11    1    3    3    0    0 -0.13987489254E+02 -0.79937863287E+01  0.19969298557E+01  0.16233859818E+02  0.51100000000E-03 0. -1.
        -11    1    3    3    0    0 -0.17807636356E+02 -0.97918083935E+01  0.42979217689E+01  0.20771700845E+02  0.51100000000E-03 0.  1.
         12    1    3    3    0    0 -0.79098566811E+00 -0.69372311191E+01  0.82155023352E+01  0.10781711949E+02  0.00000000000E+00 0. -1.
</event>
<event>
 7    1  0.3910751E-009  0.4778726E+02  0.7816164E-02  0.1312668E+00
        -11   -1    0    0    0    0  0.00000000000E+00  0.00000000000E+00  0.45593999997E+02  0.45594000000E+02  0.51100000000E-03 0.  1.
         11   -1    0    0    0    0 -0.00000000000E+00 -0.00000000000E+00 -0.45593999997E+02  0.45594000000E+02  0.51100000000E-03 0. -1.
    9900012    2    1    2    0    0  0.16151020991E+01  0.12285313588E+02 -0.41594312931E+02  0.47787258613E+02  0.19999943320E+02 0.  0.
        -12    1    1    2    0    0 -0.16151020991E+01 -0.12285313588E+02  0.41594312931E+02  0.43400741387E+02  0.00000000000E+00 0.  1.
         11    1    3    3    0    0  0.26127855483E+01  0.30839938356E+01 -0.50999885927E+01  0.65074995356E+01  0.51100000000E-03 0. -1.
        -11    1    3    3    0    0  0.62294219998E+01 -0.13856544075E+01 -0.14084010109E+02  0.15462376195E+02  0.51100000000E-03 0.  1.
         12    1    3    3    0    0 -0.72271054490E+01  0.10586974160E+02 -0.22410314229E+02  0.25817382882E+02  0.00000000000E+00 0. -1.
</event>
<event>
 7    1  0.3910751E-009  0.4778727E+02  0.7816164E-02  0.1312668E+00
        -11   -1    0    0    0    0  0.00000000000E+00  0.00000000000E+00  0.45593999997E+02  0.45594000000E+02  0.51100000000E-03 0.  1.
         11   -1    0    0    0    0 -0.00000000000E+00 -0.00000000000E+00 -0.45593999997E+02  0.45594000000E+02  0.51100000000E-03 0. -1.
    9900012    2    1    2    0    0 -0.26088707513E+02 -0.24955013424E+02 -0.24088380927E+02  0.47787269011E+02  0.19999990728E+02 0.  0.
        -12    1    1    2    0    0  0.26088707513E+02  0.24955013424E+02  0.24088380927E+02  0.43400730989E+02  0.00000000000E+00 0.  1.
         11    1    3    3    0    0 -0.71781033768E+01 -0.10108918181E+00 -0.77633313550E+00  0.72206703642E+01  0.51100000000E-03 0. -1.
        -11    1    3    3    0    0  0.94156998574E+00  0.31025386694E+00 -0.10900264367E+00  0.99734313927E+00  0.51100000000E-03 0.  1.
         12    1    3    3    0    0 -0.19852174122E+02 -0.25164178109E+02 -0.23203045148E+02  0.39569255507E+02  0.00000000000E+00 0. -1.
</event>
<event>
 7    1  0.3910751E-009  0.4778727E+02  0.7816164E-02  0.1312668E+00
        -11   -1    0    0    0    0  0.00000000000E+00  0.00000000000E+00  0.45593999997E+02  0.45594000000E+02  0.51100000000E-03 0. -1.
         11   -1    0    0    0    0 -0.00000000000E+00 -0.00000000000E+00 -0.45593999997E+02  0.45594000000E+02  0.51100000000E-03 0.  1.
    9900012    2    1    2    0    0  0.17554344996E+02 -0.87608454404E+01  0.38713255286E+02  0.47787267565E+02  0.19999984136E+02 0.  0.
        -12    1    1    2    0    0 -0.17554344996E+02  0.87608454404E+01 -0.38713255286E+02  0.43400732435E+02  0.00000000000E+00 0.  1.
         11    1    3    3    0    0  0.10931002977E+01 -0.45579935679E+01  0.11929982976E+02  0.12817748152E+02  0.51100000000E-03 0. -1.
        -11    1    3    3    0    0  0.14168648455E+02 -0.27976461853E+01  0.28379145760E+02  0.31842633961E+02  0.51100000000E-03 0.  1.
        -12    1    3    3    0    0  0.22925962438E+01 -0.14052056872E+01 -0.15958734505E+01  0.31268854521E+01  0.00000000000E+00 0.  1.
</event>
<event>
 7    1  0.3910751E-009  0.4778727E+02  0.7816164E-02  0.1312668E+00
        -11   -1    0    0    0    0  0.00000000000E+00  0.00000000000E+00  0.45593999997E+02  0.45594000000E+02  0.51100000000E-03 0.  1.
         11   -1    0    0    0    0 -0.00000000000E+00 -0.00000000000E+00 -0.45593999997E+02  0.45594000000E+02  0.51100000000E-03 0. -1.
    9900012    2    1    2    0    0  0.38956905078E+02 -0.14804293017E+02 -0.12116774695E+02  0.47787265283E+02  0.19999973731E+02 0.  0.
        -12    1    1    2    0    0 -0.38956905078E+02  0.14804293017E+02  0.12116774695E+02  0.43400734717E+02  0.00000000000E+00 0.  1.
         11    1    3    3    0    0  0.31251782254E+02 -0.42083681477E+01 -0.11949053425E+02  0.33721864339E+02  0.51100000000E-03 0. -1.
        -11    1    3    3    0    0  0.20885468040E+01 -0.55694514279E+00 -0.12738952243E+01  0.25089888298E+01  0.51100000000E-03 0.  1.
        -12    1    3    3    0    0  0.56165760198E+01 -0.10038979726E+02  0.11061739538E+01  0.11556412114E+02  0.00000000000E+00 0.  1.
</event>
<event>
 7    1  0.3910751E-009  0.4778727E+02  0.7816164E-02  0.1312668E+00
        -11   -1    0    0    0    0  0.00000000000E+00  0.00000000000E+00  0.45593999997E+02  0.45594000000E+02  0.51100000000E-03 0. -1.
         11   -1    0    0    0    0 -0.00000000000E+00 -0.00000000000E+00 -0.45593999997E+02  0.45594000000E+02  0.51100000000E-03 0.  1.
    9900012    2    1    2    0    0  0.20710548976E+02  0.16622353214E+02  0.34327742551E+02  0.47787269892E+02  0.19999994746E+02 0.  0.
        -12    1    1    2    0    0 -0.20710548976E+02 -0.16622353214E+02 -0.34327742551E+02  0.43400730108E+02  0.00000000000E+00 0.  1.
         11    1    3    3    0    0  0.29524496730E+01  0.11050115085E+02  0.10697384848E+02  0.15660652774E+02  0.51100000000E-03 0. -1.
        -11    1    3    3    0    0 -0.10687735501E+01  0.19026198944E+01  0.83901872695E+00  0.23379888899E+01  0.51100000000E-03 0.  1.
        -12    1    3    3    0    0  0.18826872853E+02  0.36696182352E+01  0.22791338976E+02  0.29788628228E+02  0.00000000000E+00 0.  1.
</event>
<event>
 7    1  0.3910751E-009  0.4778727E+02  0.7816164E-02  0.1312668E+00
        -11   -1    0    0    0    0  0.00000000000E+00  0.00000000000E+00  0.45593999997E+02  0.45594000000E+02  0.51100000000E-03 0.  1.
         11   -1    0    0    0    0 -0.00000000000E+00 -0.00000000000E+00 -0.45593999997E+02  0.45594000000E+02  0.51100000000E-03 0. -1.
    9900012    2    1    2    0    0 -0.10669109446E+02 -0.55467440802E+00 -0.42065255560E+02  0.47787270912E+02  0.19999999397E+02 0.  0.
        -12    1    1    2    0    0  0.10669109446E+02  0.55467440802E+00  0.42065255560E+02  0.43400729088E+02  0.00000000000E+00 0.  1.
         11    1    3    3    0    0 -0.49774750692E+01 -0.28160479629E+01 -0.49981666640E+01  0.75951994349E+01  0.51100000000E-03 0.  1.
        -11    1    3    3    0    0 -0.58451244812E+01 -0.50780402320E+01 -0.14176824393E+02  0.16153461639E+02  0.51100000000E-03 0. -1.
         12    1    3    3    0    0  0.15349010413E+00  0.73394137869E+01 -0.22890264502E+02  0.24038609838E+02  0.00000000000E+00 0. -1.
</event>
<event>
 7    1  0.3910751E-009  0.4778727E+02  0.7816164E-02  0.1312668E+00
        -11   -1    0    0    0    0  0.00000000000E+00  0.00000000000E+00  0.45593999997E+02  0.45594000000E+02  0.51100000000E-03 0.  1.
         11   -1    0    0    0    0 -0.00000000000E+00 -0.00000000000E+00 -0.45593999997E+02  0.45594000000E+02  0.51100000000E-03 0. -1.
    9900012    2    1    2    0    0 -0.21286799273E+02 -0.33050487779E+02 -0.18389144902E+02  0.47787271712E+02  0.20000003043E+02 0.  0.
        -12    1    1    2    0    0  0.21286799273E+02  0.33050487779E+02  0.18389144902E+02  0.43400728288E+02  0.00000000000E+00 0.  1.
         11    1    3    3    0    0  0.13430755852E+01  0.69512164487E+00 -0.15937936906E+01  0.21970946084E+01  0.51100000000E-03 0. -1.
        -11    1    3    3    0    0 -0.12124405823E+02 -0.81157290633E+01 -0.43599584088E+01  0.15227459157E+02  0.51100000000E-03 0.  1.
        -12    1    3    3    0    0 -0.10505469035E+02 -0.25629880360E+02 -0.12435392803E+02  0.30362717946E+02  0.00000000000E+00 0.  1.
</event>
<event>
 7    1  0.3910751E-009  0.4778727E+02  0.7816164E-02  0.1312668E+00
        -11   -1    0    0    0    0  0.00000000000E+00  0.00000000000E+00  0.45593999997E+02  0.45594000000E+02  0.51100000000E-03 0. -1.
         11   -1    0    0    0    0 -0.00000000000E+00 -0.00000000000E+00 -0.45593999997E+02  0.45594000000E+02  0.51100000000E-03 0.  1.
    9900012    2    1    2    0    0  0.26223313490E+02  0.14780911240E+02  0.31264767115E+02  0.47787272238E+02  0.20000005441E+02 0.  0.
        -12    1    1    2    0    0 -0.26223313490E+02 -0.14780911240E+02 -0.31264767115E+02  0.43400727762E+02  0.00000000000E+00 0.  1.
         11    1    3    3    0    0  0.15839549632E+02  0.50526559195E+01  0.15574623977E+02  0.22781342732E+02  0.51100000000E-03 0. -1.
        -11    1    3    3    0    0  0.56727694025E+01  0.20316332543E+00  0.12786626120E+02  0.13989974832E+02  0.51100000000E-03 0.  1.
        -12    1    3    3    0    0  0.47109944556E+01  0.95250919954E+01  0.29035170185E+01  0.11015954673E+02  0.00000000000E+00 0.  1.
</event>
<event>
 7    1  0.3910751E-009  0.4778727E+02  0.7816164E-02  0.1312668E+00
        -11   -1    0    0    0    0  0.00000000000E+00  0.00000000000E+00  0.45593999997E+02  0.45594000000E+02  0.51100000000E-03 0.  1.
         11   -1    0    0    0    0 -0.00000000000E+00 -0.00000000000E+00 -0.45593999997E+02  0.45594000000E+02  0.51100000000E-03 0. -1.
    9900012    2    1    2    0    0 -0.87892363029E+01  0.35450734533E+02 -0.23443932932E+02  0.47787271376E+02  0.20000001512E+02 0.  0.
        -12    1    1    2    0    0  0.87892363029E+01 -0.35450734533E+02  0.23443932932E+02  0.43400728624E+02  0.00000000000E+00 0.  1.
         11    1    3    3    0    0  0.14787782313E+00  0.18274731129E+02 -0.62606236155E+01  0.19317946941E+02  0.51100000000E-03 0. -1.
        -11    1    3    3    0    0 -0.28176825175E+00 -0.70935931169E+00  0.11854355100E+01  0.14099083624E+01  0.51100000000E-03 0.  1.
         12    1    3    3    0    0 -0.86553458743E+01  0.17885362716E+02 -0.18368744827E+02  0.27059416073E+02  0.00000000000E+00 0. -1.
</event>
<event>
 7    1  0.3910751E-009  0.4778726E+02  0.7816164E-02  0.1312668E+00
        -11   -1    0    0    0    0  0.00000000000E+00  0.00000000000E+00  0.45593999997E+02  0.45594000000E+02  0.51100000000E-03 0.  1.
         11   -1    0    0    0    0 -0.00000000000E+00 -0.00000000000E+00 -0.45593999997E+02  0.45594000000E+02  0.51100000000E-03 0. -1.
    9900012    2    1    2    0    0 -0.21424442377E+02  0.28523413619E+02 -0.24719063809E+02  0.47787263010E+02  0.19999963368E+02 0.  0.
        -12    1    1    2    0    0  0.21424442377E+02 -0.28523413619E+02  0.24719063809E+02  0.43400736990E+02  0.00000000000E+00 0.  1.
         11    1    3    3    0    0  0.30221915956E+00  0.69449332530E+01 -0.64410033907E+01  0.94768116605E+01  0.51100000000E-03 0. -1.
        -11    1    3    3    0    0 -0.47146513744E+01  0.71284576707E+00 -0.83516151036E+01  0.96169413937E+01  0.51100000000E-03 0.  1.
        -12    1    3    3    0    0 -0.17012010162E+02  0.20865634599E+02 -0.99264453151E+01  0.28693509956E+02  0.00000000000E+00 0.  1.
</event>
<event>
 7    1  0.3910751E-009  0.4778727E+02  0.7816164E-02  0.1312668E+00
        -11   -1    0    0    0    0  0.00000000000E+00  0.00000000000E+00  0.45593999997E+02  0.45594000000E+02  0.51100000000E-03 0.  1.
         11   -1    0    0    0    0 -0.00000000000E+00 -0.00000000000E+00 -0.45593999997E+02  0.45594000000E+02  0.51100000000E-03 0. -1.
    9900012    2    1    2    0    0  0.10449674327E+02  0.23163220031E+02 -0.35183705386E+02  0.47787267513E+02  0.19999983897E+02 0.  0.
        -12    1    1    2    0    0 -0.10449674327E+02 -0.23163220031E+02  0.35183705386E+02  0.43400732487E+02  0.00000000000E+00 0.  1.
         11    1    3    3    0    0  0.27450758348E+01  0.22741695540E+02 -0.25084634462E+02  0.33969972678E+02  0.51100000000E-03 0. -1.
        -11    1    3    3    0    0  0.26427487304E+01  0.34317956774E+00 -0.16786623082E+00  0.26702195416E+01  0.51100000000E-03 0.  1.
        -12    1    3    3    0    0  0.50618497616E+01  0.78344923567E-01 -0.99312046930E+01  0.11147075293E+02  0.00000000000E+00 0.  1.
</event>
<event>
 7    1  0.3910751E-009  0.4778727E+02  0.7816164E-02  0.1312668E+00
        -11   -1    0    0    0    0  0.00000000000E+00  0.00000000000E+00  0.45593999997E+02  0.45594000000E+02  0.51100000000E-03 0.  1.
         11   -1    0    0    0    0 -0.00000000000E+00 -0.00000000000E+00 -0.45593999997E+02  0.45594000000E+02  0.51100000000E-03 0. -1.
    9900012    2    1    2    0    0  0.38444713264E+02  0.91331443532E+00 -0.20119480895E+02  0.47787266911E+02  0.19999981153E+02 0.  0.
        -12    1    1    2    0    0 -0.38444713264E+02 -0.91331443532E+00  0.20119480895E+02  0.43400733089E+02  0.00000000000E+00 0.  1.
         11    1    3    3    0    0  0.19640913530E+01  0.24880388017E+01 -0.20120358457E+01  0.37545013553E+01  0.51100000000E-03 0. -1.
        -11    1    3    3    0    0  0.32196210720E+02 -0.59797336903E+01 -0.10792792803E+02  0.34479524018E+02  0.51100000000E-03 0.  1.
        -12    1    3    3    0    0  0.42844111906E+01  0.44050093240E+01 -0.73146522461E+01  0.95532415376E+01  0.00000000000E+00 0.  1.
</event>
<event>
 7    1  0.3910751E-009  0.4778727E+02  0.7816164E-02  0.1312668E+00
        -11   -1    0    0    0    0  0.00000000000E+00  0.00000000000E+00  0.45593999997E+02  0.45594000000E+02  0.51100000000E-03 0.  1.
         11   -1    0    0    0    0 -0.00000000000E+00 -0.00000000000E+00 -0.45593999997E+02  0.45594000000E+02  0.51100000000E-03 0. -1.
    9900012    2    1    2    0    0 -0.31383348485E+02  0.29371864333E+02 -0.60001848035E+01  0.47787271962E+02  0.20000004185E+02 0.  0.
        -12    1    1    2    0    0  0.31383348485E+02 -0.29371864333E+02  0.60001848035E+01  0.43400728038E+02  0.00000000000E+00 0.  1.
         11    1    3    3    0    0 -0.47491967471E+01  0.10107710417E+02  0.12351302170E+01  0.11235934609E+02  0.51100000000E-03 0. -1.
        -11    1    3    3    0    0 -0.68004330398E+01  0.11803268447E+02 -0.70975838724E+01  0.15360297284E+02  0.51100000000E-03 0.  1.
        -12    1    3    3    0    0 -0.19833718698E+02  0.74608854688E+01 -0.13773114808E+00  0.21191040070E+02  0.00000000000E+00 0.  1.
</event>
<event>
 7    1  0.3910751E-009  0.4778724E+02  0.7816164E-02  0.1312668E+00
        -11   -1    0    0    0    0  0.00000000000E+00  0.00000000000E+00  0.45593999997E+02  0.45594000000E+02  0.51100000000E-03 0.  1.
         11   -1    0    0    0    0 -0.00000000000E+00 -0.00000000000E+00 -0.45593999997E+02  0.45594000000E+02  0.51100000000E-03 0. -1.
    9900012    2    1    2    0    0  0.37394213905E+00  0.39839699998E+02 -0.17212909325E+02  0.47787242218E+02  0.19999868566E+02 0.  0.
        -12    1    1    2    0    0 -0.37394213905E+00 -0.39839699998E+02  0.17212909325E+02  0.43400757782E+02  0.00000000000E+00 0.  1.
         11    1    3    3    0    0  0.43566305139E+01  0.23072196099E+02 -0.14201337195E+02  0.27440561959E+02  0.51100000000E-03 0. -1.
        -11    1    3    3    0    0 -0.24765584316E+01  0.17888366564E+02 -0.35261136437E+01  0.18400012981E+02  0.51100000000E-03 0.  1.
        -12    1    3    3    0    0 -0.15061299432E+01 -0.11208626649E+01  0.51454151387E+00  0.19466672774E+01  0.00000000000E+00 0.  1.
</event>
<event>
 7    1  0.3910751E-009  0.4778727E+02  0.7816164E-02  0.1312668E+00
        -11   -1    0    0    0    0  0.00000000000E+00  0.00000000000E+00  0.45593999997E+02  0.45594000000E+02  0.51100000000E-03 0. -1.
         11   -1    0    0    0    0 -0.00000000000E+00 -0.00000000000E+00 -0.45593999997E+02  0.45594000000E+02  0.51100000000E-03 0.  1.
    9900012    2    1    2    0    0 -0.13322966010E+02 -0.23090812374E+02  0.34248156609E+02  0.47787271083E+02  0.20000000175E+02 0.  0.
        -12    1    1    2    0    0  0.13322966010E+02  0.23090812374E+02 -0.34248156609E+02  0.43400728917E+02  0.00000000000E+00 0.  1.
         11    1    3    3    0    0  0.10666677023E+01 -0.49248669309E+01  0.14766588612E+01  0.52509633333E+01  0.51100000000E-03 0.  1.
        -11    1    3    3    0    0 -0.25502470159E+01 -0.14497603449E+02  0.17487808245E+02  0.22858427397E+02  0.51100000000E-03 0. -1.
        -12    1    3    3    0    0 -0.11839386696E+02 -0.36683419946E+01  0.15283689503E+02  0.19677880352E+02  0.00000000000E+00 0.  1.
</event>
<event>
 7    1  0.3910751E-009  0.4778727E+02  0.7816164E-02  0.1312668E+00
        -11   -1    0    0    0    0  0.00000000000E+00  0.00000000000E+00  0.45593999997E+02  0.45594000000E+02  0.51100000000E-03 0.  1.
         11   -1    0    0    0    0 -0.00000000000E+00 -0.00000000000E+00 -0.45593999997E+02  0.45594000000E+02  0.51100000000E-03 0. -1.
    9900012    2    1    2    0    0  0.96217399171E+01 -0.84185724238E+01 -0.41474968379E+02  0.47787271403E+02  0.20000001636E+02 0.  0.
        -12    1    1    2    0    0 -0.96217399171E+01  0.84185724238E+01  0.41474968379E+02  0.43400728597E+02  0.00000000000E+00 0.  1.
         11    1    3    3    0    0  0.72467453357E+01  0.19049685785E+01 -0.11309977006E+02  0.13566864169E+02  0.51100000000E-03 0. -1.
        -11    1    3    3    0    0  0.52962157653E+01 -0.43735899261E+01 -0.24676659298E+02  0.25614755604E+02  0.51100000000E-03 0.  1.
        -12    1    3    3    0    0 -0.29212211840E+01 -0.59499510762E+01 -0.54883320744E+01  0.86056516298E+01  0.00000000000E+00 0.  1.
</event>
<event>
 7    1  0.3910751E-009  0.4778727E+02  0.7816164E-02  0.1312668E+00
        -11   -1    0    0    0    0  0.00000000000E+00  0.00000000000E+00  0.45593999997E+02  0.45594000000E+02  0.51100000000E-03 0.  1.
         11   -1    0    0    0    0 -0.00000000000E+00 -0.00000000000E+00 -0.45593999997E+02  0.45594000000E+02  0.51100000000E-03 0. -1.
    9900012    2    1    2    0    0 -0.41024842376E+02  0.55001587765E+01 -0.13051210297E+02  0.47787268108E+02  0.19999986613E+02 0.  0.
        -12    1    1    2    0    0  0.41024842376E+02 -0.55001587765E+01  0.13051210297E+02  0.43400731892E+02  0.00000000000E+00 0.  1.
         11    1    3    3    0    0 -0.97926842218E+01 -0.27418329221E+01  0.32640527726E+01  0.10680278686E+02  0.51100000000E-03 0. -1.
        -11    1    3    3    0    0 -0.48167107624E+00  0.99823657862E+00  0.61159349283E+00  0.12659108002E+01  0.51100000000E-03 0.  1.
         12    1    3    3    0    0 -0.30750487078E+02  0.72437551200E+01 -0.16926856562E+02  0.35841078622E+02  0.00000000000E+00 0. -1.
</event>
<event>
 7    1  0.3910751E-009  0.4778727E+02  0.7816164E-02  0.1312668E+00
        -11   -1    0    0    0    0  0.00000000000E+00  0.00000000000E+00  0.45593999997E+02  0.45594000000E+02  0.51100000000E-03 0.  1.
         11   -1    0    0    0    0 -0.00000000000E+00 -0.00000000000E+00 -0.45593999997E+02  0.45594000000E+02  0.51100000000E-03 0. -1.
    9900012    2    1    2    0    0 -0.24824637336E+02  0.52571494182E+01 -0.35209702982E+02  0.47787269328E+02  0.19999992172E+02 0.  0.
        -12    1    1    2    0    0  0.24824637336E+02 -0.52571494182E+01  0.35209702982E+02  0.43400730672E+02  0.00000000000E+00 0.  1.
         11    1    3    3    0    0 -0.79074537022E+01  0.94661438519E+00 -0.24953491464E+02  0.26193522851E+02  0.51100000000E-03 0. -1.
        -11    1    3    3    0    0 -0.18614919704E+01  0.34246238793E+01 -0.16838239832E+01  0.42459939399E+01  0.51100000000E-03 0.  1.
         12    1    3    3    0    0 -0.15055691663E+02  0.88591115371E+00 -0.85723875344E+01  0.17347752536E+02  0.00000000000E+00 0. -1.
</event>
<event>
 7    1  0.3910751E-009  0.4778721E+02  0.7816164E-02  0.1312668E+00
        -11   -1    0    0    0    0  0.00000000000E+00  0.00000000000E+00  0.45593999997E+02  0.45594000000E+02  0.51100000000E-03 0.  1.
         11   -1    0    0    0    0 -0.00000000000E+00 -0.00000000000E+00 -0.45593999997E+02  0.45594000000E+02  0.51100000000E-03 0. -1.
    9900012    2    1    2    0    0  0.45988201733E+01  0.21612769431E+02 -0.37354625020E+02  0.47787205539E+02  0.19999701334E+02 0.  0.
        -12    1    1    2    0    0 -0.45988201733E+01 -0.21612769431E+02  0.37354625020E+02  0.43400794461E+02  0.00000000000E+00 0.  1.
         11    1    3    3    0    0  0.44745182302E+01  0.78676369814E+01 -0.90417148481E+01  0.12793499627E+02  0.51100000000E-03 0. -1.
        -11    1    3    3    0    0 -0.17422338962E+01  0.14222233048E+01  0.14844676845E+01  0.26947620758E+01  0.51100000000E-03 0.  1.
         12    1    3    3    0    0  0.18665358392E+01  0.12322909145E+02 -0.29797377856E+02  0.32298943836E+02  0.00000000000E+00 0. -1.
</event>
<event>
 7    1  0.3910751E-009  0.4778727E+02  0.7816164E-02  0.1312668E+00
        -11   -1    0    0    0    0  0.00000000000E+00  0.00000000000E+00  0.45593999997E+02  0.45594000000E+02  0.51100000000E-03 0.  1.
         11   -1    0    0    0    0 -0.00000000000E+00 -0.00000000000E+00 -0.45593999997E+02  0.45594000000E+02  0.51100000000E-03 0. -1.
    9900012    2    1    2    0    0  0.15092096395E+02 -0.17718727149E+02 -0.36631936252E+02  0.47787269373E+02  0.19999992381E+02 0.  0.
        -12    1    1    2    0    0 -0.15092096395E+02  0.17718727149E+02  0.36631936252E+02  0.43400730627E+02  0.00000000000E+00 0.  1.
         11    1    3    3    0    0 -0.15347242327E+00  0.93181211142E+00 -0.48931564699E+01  0.49834534307E+01  0.51100000000E-03 0. -1.
        -11    1    3    3    0    0  0.20033105324E+01 -0.77030852861E+01 -0.16103578270E+01  0.81205928728E+01  0.51100000000E-03 0.  1.
         12    1    3    3    0    0  0.13242258286E+02 -0.10947453974E+02 -0.30128421955E+02  0.34683223070E+02  0.00000000000E+00 0. -1.
</event>
<event>
 7    1  0.3910751E-009  0.4778727E+02  0.7816164E-02  0.1312668E+00
        -11   -1    0    0    0    0  0.00000000000E+00  0.00000000000E+00  0.45593999997E+02  0.45594000000E+02  0.51100000000E-03 0.  1.
         11   -1    0    0    0    0 -0.00000000000E+00 -0.00000000000E+00 -0.45593999997E+02  0.45594000000E+02  0.51100000000E-03 0. -1.
    9900012    2    1    2    0    0 -0.26566550750E+02 -0.10832765927E+02 -0.32565212970E+02  0.47787268069E+02  0.19999986433E+02 0.  0.
        -12    1    1    2    0    0  0.26566550750E+02  0.10832765927E+02  0.32565212970E+02  0.43400731931E+02  0.00000000000E+00 0.  1.
         11    1    3    3    0    0 -0.15274790040E+02 -0.10756419248E+02 -0.89320862248E+01  0.20707533180E+02  0.51100000000E-03 0. -1.
        -11    1    3    3    0    0 -0.17178946631E+00  0.82080661693E+00 -0.70105450382E+01  0.70605224394E+01  0.51100000000E-03 0.  1.
        -12    1    3    3    0    0 -0.11119971244E+02 -0.89715329606E+00 -0.16622581707E+02  0.20019212450E+02  0.00000000000E+00 0.  1.
</event>
<event>
 7    1  0.3910751E-009  0.4778727E+02  0.7816164E-02  0.1312668E+00
        -11   -1    0    0    0    0  0.00000000000E+00  0.00000000000E+00  0.45593999997E+02  0.45594000000E+02  0.51100000000E-03 0.  1.
         11   -1    0    0    0    0 -0.00000000000E+00 -0.00000000000E+00 -0.45593999997E+02  0.45594000000E+02  0.51100000000E-03 0. -1.
    9900012    2    1    2    0    0  0.96336469257E+01  0.31556684117E+02 -0.28195598759E+02  0.47787271263E+02  0.20000000995E+02 0.  0.
        -12    1    1    2    0    0 -0.96336469257E+01 -0.31556684117E+02  0.28195598759E+02  0.43400728737E+02  0.00000000000E+00 0.  1.
         11    1    3    3    0    0  0.18976343501E+01 -0.42988522595E+00 -0.62379144837E+00  0.20432653931E+01  0.51100000000E-03 0.  1.
        -11    1    3    3    0    0  0.10795496083E+02  0.21772761038E+02 -0.12630294895E+02  0.27388322480E+02  0.51100000000E-03 0. -1.
         12    1    3    3    0    0 -0.30594835076E+01  0.10213808305E+02 -0.14941512415E+02  0.18355683389E+02  0.00000000000E+00 0. -1.
</event>
<event>
 7    1  0.3910751E-009  0.4778726E+02  0.7816164E-02  0.1312668E+00
        -11   -1    0    0    0    0  0.00000000000E+00  0.00000000000E+00  0.45593999997E+02  0.45594000000E+02  0.51100000000E-03 0.  1.
         11   -1    0    0    0    0 -0.00000000000E+00 -0.00000000000E+00 -0.45593999997E+02  0.45594000000E+02  0.51100000000E-03 0. -1.
    9900012    2    1    2    0    0 -0.65330218566E+01 -0.25301509910E+02 -0.34652237127E+02  0.47787259036E+02  0.19999945250E+02 0.  0.
        -12    1    1    2    0    0  0.65330218566E+01  0.25301509910E+02  0.34652237127E+02  0.43400740964E+02  0.00000000000E+00 0.  1.
         11    1    3    3    0    0  0.28726418585E+01 -0.37928753410E+01 -0.81355664818E+01  0.94247237010E+01  0.51100000000E-03 0. -1.
        -11    1    3    3    0    0 -0.14701675268E+01 -0.61771458400E+01  0.42556352879E+00  0.63639317928E+01  0.51100000000E-03 0.  1.
         12    1    3    3    0    0 -0.79354961883E+01 -0.15331488729E+02 -0.26942234174E+02  0.31998603543E+02  0.00000000000E+00 0. -1.
</event>
<event>
 7    1  0.3910751E-009  0.4778727E+02  0.7816164E-02  0.1312668E+00
        -11   -1    0    0    0    0  0.00000000000E+00  0.00000000000E+00  0.45593999997E+02  0.45594000000E+02  0.51100000000E-03 0.  1.
         11   -1    0    0    0    0 -0.00000000000E+00 -0.00000000000E+00 -0.45593999997E+02  0.45594000000E+02  0.51100000000E-03 0. -1.
    9900012    2    1    2    0    0 -0.10688183525E+02 -0.37221162150E+02 -0.19595179578E+02  0.47787271417E+02  0.20000001697E+02 0.  0.
        -12    1    1    2    0    0  0.10688183525E+02  0.37221162150E+02  0.19595179578E+02  0.43400728583E+02  0.00000000000E+00 0.  1.
         11    1    3    3    0    0 -0.57349316288E+00 -0.64575784012E+01 -0.65549072577E+01  0.92193287518E+01  0.51100000000E-03 0. -1.
        -11    1    3    3    0    0 -0.75663410927E+01 -0.27725721187E+01 -0.15650615982E+01  0.82089032003E+01  0.51100000000E-03 0.  1.
        -12    1    3    3    0    0 -0.25483492696E+01 -0.27991011630E+02 -0.11475210722E+02  0.30359039464E+02  0.00000000000E+00 0.  1.
</event>
<event>
 7    1  0.3910751E-009  0.4778727E+02  0.7816164E-02  0.1312668E+00
        -11   -1    0    0    0    0  0.00000000000E+00  0.00000000000E+00  0.45593999997E+02  0.45594000000E+02  0.51100000000E-03 0.  1.
         11   -1    0    0    0    0 -0.00000000000E+00 -0.00000000000E+00 -0.45593999997E+02  0.45594000000E+02  0.51100000000E-03 0. -1.
    9900012    2    1    2    0    0  0.13849522251E+02 -0.34445866207E+02 -0.22478793390E+02  0.47787272844E+02  0.20000008207E+02 0.  0.
        -12    1    1    2    0    0 -0.13849522251E+02  0.34445866207E+02  0.22478793390E+02  0.43400727156E+02  0.00000000000E+00 0.  1.
         11    1    3    3    0    0 -0.17936436707E+01 -0.84764765769E+01 -0.11256540186E+02  0.14204841076E+02  0.51100000000E-03 0. -1.
        -11    1    3    3    0    0  0.31510661600E+01 -0.10780560837E+02 -0.76634284892E+01  0.13596979311E+02  0.51100000000E-03 0.  1.
        -12    1    3    3    0    0  0.12492099762E+02 -0.15188828793E+02 -0.35588247143E+01  0.19985452457E+02  0.00000000000E+00 0.  1.
</event>
<event>
 7    1  0.3910751E-009  0.4778728E+02  0.7816164E-02  0.1312668E+00
        -11   -1    0    0    0    0  0.00000000000E+00  0.00000000000E+00  0.45593999997E+02  0.45594000000E+02  0.51100000000E-03 0. -1.
         11   -1    0    0    0    0 -0.00000000000E+00 -0.00000000000E+00 -0.45593999997E+02  0.45594000000E+02  0.51100000000E-03 0.  1.
    9900012    2    1    2    0    0 -0.25614787935E+02 -0.58502513336E+01  0.34543882197E+02  0.47787278821E+02  0.20000035457E+02 0.  0.
        -12    1    1    2    0    0  0.25614787935E+02  0.58502513336E+01 -0.34543882197E+02  0.43400721179E+02  0.00000000000E+00 0.  1.
         11    1    3    3    0    0 -0.65127158453E+00 -0.59005451128E+00  0.10908118251E+02  0.10943462114E+02  0.51100000000E-03 0. -1.
        -11    1    3    3    0    0 -0.89595299608E+01  0.28993356793E+01  0.12709002169E+02  0.15817650297E+02  0.51100000000E-03 0.  1.
         12    1    3    3    0    0 -0.16003986390E+02 -0.81595325016E+01  0.10926761777E+02  0.21026166411E+02  0.00000000000E+00 0. -1.
</event>
<event>
 7    1  0.3910751E-009  0.4778727E+02  0.7816164E-02  0.1312668E+00
        -11   -1    0    0    0    0  0.00000000000E+00  0.00000000000E+00  0.45593999997E+02  0.45594000000E+02  0.51100000000E-03 0.  1.
         11   -1    0    0    0    0 -0.00000000000E+00 -0.00000000000E+00 -0.45593999997E+02  0.45594000000E+02  0.51100000000E-03 0. -1.
    9900012    2    1    2    0    0  0.20826408810E+02  0.36818771791E+02 -0.97088654995E+01  0.47787270404E+02  0.19999997081E+02 0.  0.
        -12    1    1    2    0    0 -0.20826408810E+02 -0.36818771791E+02  0.97088654995E+01  0.43400729596E+02  0.00000000000E+00 0.  1.
         11    1    3    3    0    0  0.11199555919E+02  0.82931542902E+01 -0.18303134417E+01  0.14055479658E+02  0.51100000000E-03 0. -1.
        -11    1    3    3    0    0  0.18506031878E+01 -0.12521826516E+00  0.17217009232E+01  0.25307441796E+01  0.51100000000E-03 0.  1.
         12    1    3    3    0    0  0.77762497041E+01  0.28650835766E+02 -0.96002529809E+01  0.31201046567E+02  0.00000000000E+00 0. -1.
</event>
<event>
 7    1  0.3910751E-009  0.4778727E+02  0.7816164E-02  0.1312668E+00
        -11   -1    0    0    0    0  0.00000000000E+00  0.00000000000E+00  0.45593999997E+02  0.45594000000E+02  0.51100000000E-03 0.  1.
         11   -1    0    0    0    0 -0.00000000000E+00 -0.00000000000E+00 -0.45593999997E+02  0.45594000000E+02  0.51100000000E-03 0. -1.
    9900012    2    1    2    0    0  0.28684310900E+00  0.30796733877E+02 -0.30579440399E+02  0.47787271071E+02  0.20000000123E+02 0.  0.
        -12    1    1    2    0    0 -0.28684310900E+00 -0.30796733877E+02  0.30579440399E+02  0.43400728929E+02  0.00000000000E+00 0.  1.
         11    1    3    3    0    0 -0.47271193745E+01  0.32306339148E+01 -0.64345196972E+00  0.57616563392E+01  0.51100000000E-03 0.  1.
        -11    1    3    3    0    0 -0.21775106902E+01  0.13584162932E+02 -0.14640168509E+02  0.20089937023E+02  0.51100000000E-03 0. -1.
        -12    1    3    3    0    0  0.71914731738E+01  0.13981937030E+02 -0.15295819920E+02  0.21935677709E+02  0.00000000000E+00 0.  1.
</event>
<event>
 7    1  0.3910751E-009  0.4778727E+02  0.7816164E-02  0.1312668E+00
        -11   -1    0    0    0    0  0.00000000000E+00  0.00000000000E+00  0.45593999997E+02  0.45594000000E+02  0.51100000000E-03 0. -1.
         11   -1    0    0    0    0 -0.00000000000E+00 -0.00000000000E+00 -0.45593999997E+02  0.45594000000E+02  0.51100000000E-03 0.  1.
    9900012    2    1    2    0    0 -0.19886046375E+02  0.38130012197E+02  0.58541046540E+01  0.47787271759E+02  0.20000003256E+02 0.  0.
        -12    1    1    2    0    0  0.19886046375E+02 -0.38130012197E+02 -0.58541046540E+01  0.43400728241E+02  0.00000000000E+00 0.  1.
         11    1    3    3    0    0 -0.15378023656E+02  0.29286011363E+02  0.55827630305E+01  0.33545809223E+02  0.51100000000E-03 0. -1.
        -11    1    3    3    0    0 -0.43501086424E+01  0.40618665417E+01  0.48055848951E+01  0.76495654418E+01  0.51100000000E-03 0.  1.
        -12    1    3    3    0    0 -0.15791407652E+00  0.47821342930E+01 -0.45342432716E+01  0.65918970940E+01  0.00000000000E+00 0.  1.
</event>
<event>
 7    1  0.3910751E-009  0.4778727E+02  0.7816164E-02  0.1312668E+00
        -11   -1    0    0    0    0  0.00000000000E+00  0.00000000000E+00  0.45593999997E+02  0.45594000000E+02  0.51100000000E-03 0.  1.
         11   -1    0    0    0    0 -0.00000000000E+00 -0.00000000000E+00 -0.45593999997E+02  0.45594000000E+02  0.51100000000E-03 0. -1.
    9900012    2    1    2    0    0  0.22052830314E+02 -0.30375310040E+02 -0.21786151152E+02  0.47787272276E+02  0.20000005617E+02 0.  0.
        -12    1    1    2    0    0 -0.22052830314E+02  0.30375310040E+02  0.21786151152E+02  0.43400727724E+02  0.00000000000E+00 0.  1.
         11    1    3    3    0    0  0.14430123092E+02 -0.10670306022E+02 -0.96719746601E+01  0.20387029630E+02  0.51100000000E-03 0. -1.
        -11    1    3    3    0    0  0.10634425164E+02 -0.14607744705E+02 -0.63907828727E+01  0.19165576170E+02  0.51100000000E-03 0.  1.
        -12    1    3    3    0    0 -0.30117179413E+01 -0.50972593137E+01 -0.57233936190E+01  0.82346664770E+01  0.00000000000E+00 0.  1.
</event>
<event>
 7    1  0.3910751E-009  0.4778727E+02  0.7816164E-02  0.1312668E+00
        -11   -1    0    0    0    0  0.00000000000E+00  0.00000000000E+00  0.45593999997E+02  0.45594000000E+02  0.51100000000E-03 0.  1.
         11   -1    0    0    0    0 -0.00000000000E+00 -0.00000000000E+00 -0.45593999997E+02  0.45594000000E+02  0.51100000000E-03 0. -1.
    9900012    2    1    2    0    0 -0.73614902143E+00 -0.11919393991E+02 -0.41725408323E+02  0.47787267653E+02  0.19999984539E+02 0.  0.
        -12    1    1    2    0    0  0.73614902143E+00  0.11919393991E+02  0.41725408323E+02  0.43400732347E+02  0.00000000000E+00 0.  1.
         11    1    3    3    0    0 -0.35073647635E+01 -0.11401698264E+02 -0.25268027672E+02  0.27942325487E+02  0.51100000000E-03 0. -1.
        -11    1    3    3    0    0  0.51826886113E+01 -0.37443707850E+01 -0.13190736321E+02  0.14658652693E+02  0.51100000000E-03 0.  1.
         12    1    3    3    0    0 -0.24114728693E+01  0.32266750582E+01 -0.32666443293E+01  0.51862894737E+01  0.00000000000E+00 0. -1.
</event>
<event>
 7    1  0.3910751E-009  0.4778727E+02  0.7816164E-02  0.1312668E+00
        -11   -1    0    0    0    0  0.00000000000E+00  0.00000000000E+00  0.45593999997E+02  0.45594000000E+02  0.51100000000E-03 0. -1.
         11   -1    0    0    0    0 -0.00000000000E+00 -0.00000000000E+00 -0.45593999997E+02  0.45594000000E+02  0.51100000000E-03 0.  1.
    9900012    2    1    2    0    0  0.23962796203E+02  0.36177984729E+02  0.74898536063E+00  0.47787272356E+02  0.20000005982E+02 0.  0.
        -12    1    1    2    0    0 -0.23962796203E+02 -0.36177984729E+02 -0.74898536063E+00  0.43400727644E+02  0.00000000000E+00 0.  1.
         11    1    3    3    0    0 -0.11134765674E+01  0.14409263699E+01  0.37660778926E+01  0.41832334174E+01  0.51100000000E-03 0. -1.
        -11    1    3    3    0    0  0.29796593671E+00  0.38775151114E+01  0.22363923552E+00  0.38953718574E+01  0.51100000000E-03 0.  1.
         12    1    3    3    0    0  0.24778306834E+02  0.30859543248E+02 -0.32407317675E+01  0.39708667082E+02  0.00000000000E+00 0. -1.
</event>
<event>
 7    1  0.3910751E-009  0.4778727E+02  0.7816164E-02  0.1312668E+00
        -11   -1    0    0    0    0  0.00000000000E+00  0.00000000000E+00  0.45593999997E+02  0.45594000000E+02  0.51100000000E-03 0.  1.
         11   -1    0    0    0    0 -0.00000000000E+00 -0.00000000000E+00 -0.45593999997E+02  0.45594000000E+02  0.51100000000E-03 0. -1.
    9900012    2    1    2    0    0  0.35547659949E+02 -0.22250850682E+02 -0.11175278938E+02  0.47787270244E+02  0.19999996353E+02 0.  0.
        -12    1    1    2    0    0 -0.35547659949E+02  0.22250850682E+02  0.11175278938E+02  0.43400729756E+02  0.00000000000E+00 0.  1.
         11    1    3    3    0    0 -0.94929107179E+00 -0.17028704535E+01  0.15862877298E+01  0.25134101025E+01  0.51100000000E-03 0. -1.
        -11    1    3    3    0    0  0.79478857251E+01 -0.34537408950E+01  0.19639662964E+01  0.88856275830E+01  0.51100000000E-03 0.  1.
         12    1    3    3    0    0  0.28549065296E+02 -0.17094239334E+02 -0.14725532965E+02  0.36388232559E+02  0.00000000000E+00 0. -1.
</event>
<event>
 7    1  0.3910751E-009  0.4778727E+02  0.7816164E-02  0.1312668E+00
        -11   -1    0    0    0    0  0.00000000000E+00  0.00000000000E+00  0.45593999997E+02  0.45594000000E+02  0.51100000000E-03 0. -1.
         11   -1    0    0    0    0 -0.00000000000E+00 -0.00000000000E+00 -0.45593999997E+02  0.45594000000E+02  0.51100000000E-03 0.  1.
    9900012    2    1    2    0    0  0.16527410929E+01 -0.43312983252E+02  0.22084442539E+01  0.47787270775E+02  0.19999998770E+02 0.  0.
        -12    1    1    2    0    0 -0.16527410929E+01  0.43312983252E+02 -0.22084442539E+01  0.43400729225E+02  0.00000000000E+00 0.  1.
         11    1    3    3    0    0  0.37094245934E+01 -0.26216111041E+02  0.58126384164E+01  0.27107767790E+02  0.51100000000E-03 0. -1.
        -11    1    3    3    0    0  0.25127134549E+01 -0.13716482363E+02  0.83741646144E-02  0.13944736918E+02  0.51100000000E-03 0.  1.
        -12    1    3    3    0    0 -0.45693969555E+01 -0.33803898476E+01 -0.36125683271E+01  0.67347660669E+01  0.00000000000E+00 0.  1.
</event>
<event>
 7    1  0.3910751E-009  0.4778727E+02  0.7816164E-02  0.1312668E+00
        -11   -1    0    0    0    0  0.00000000000E+00  0.00000000000E+00  0.45593999997E+02  0.45594000000E+02  0.51100000000E-03 0.  1.
         11   -1    0    0    0    0 -0.00000000000E+00 -0.00000000000E+00 -0.45593999997E+02  0.45594000000E+02  0.51100000000E-03 0. -1.
    9900012    2    1    2    0    0 -0.14071306563E+02  0.13332925597E+02 -0.38831104332E+02  0.47787271469E+02  0.20000001935E+02 0.  0.
        -12    1    1    2    0    0  0.14071306563E+02 -0.13332925597E+02  0.38831104332E+02  0.43400728531E+02  0.00000000000E+00 0.  1.
         11    1    3    3    0    0 -0.47431124036E+01  0.91730031786E-01 -0.27530718895E+01  0.54849735425E+01  0.51100000000E-03 0. -1.
        -11    1    3    3    0    0 -0.27358822636E-01  0.69461492705E+00 -0.19550558106E+02  0.19562912895E+02  0.51100000000E-03 0.  1.
         12    1    3    3    0    0 -0.93008353367E+01  0.12546580638E+02 -0.16527474336E+02  0.22739385031E+02  0.00000000000E+00 0. -1.
</event>
<event>
 7    1  0.3910751E-009  0.4778726E+02  0.7816164E-02  0.1312668E+00
        -11   -1    0    0    0    0  0.00000000000E+00  0.00000000000E+00  0.45593999997E+02  0.45594000000E+02  0.51100000000E-03 0. -1.
         11   -1    0    0    0    0 -0.00000000000E+00 -0.00000000000E+00 -0.45593999997E+02  0.45594000000E+02  0.51100000000E-03 0.  1.
    9900012    2    1    2    0    0 -0.38220001391E+01  0.39761395726E+02  0.16971987019E+02  0.47787255554E+02  0.19999929371E+02 0.  0.
        -12    1    1    2    0    0  0.38220001391E+01 -0.39761395726E+02 -0.16971987019E+02  0.43400744446E+02  0.00000000000E+00 0.  1.
         11    1    3    3    0    0 -0.18737894509E+01  0.41558732141E+01  0.47330841794E+01  0.65714880498E+01  0.51100000000E-03 0. -1.
        -11    1    3    3    0    0  0.61136736903E+00  0.15640006487E+02  0.14013719303E+02  0.21008757744E+02  0.51100000000E-03 0.  1.
         12    1    3    3    0    0 -0.25595780572E+01  0.19965516025E+02 -0.17748164636E+01  0.20207009760E+02  0.00000000000E+00 0. -1.
</event>
<event>
 7    1  0.3910751E-009  0.4778727E+02  0.7816164E-02  0.1312668E+00
        -11   -1    0    0    0    0  0.00000000000E+00  0.00000000000E+00  0.45593999997E+02  0.45594000000E+02  0.51100000000E-03 0. -1.
         11   -1    0    0    0    0 -0.00000000000E+00 -0.00000000000E+00 -0.45593999997E+02  0.45594000000E+02  0.51100000000E-03 0.  1.
    9900012    2    1    2    0    0  0.55354820632E+01 -0.43037910977E+02  0.84871048531E+00  0.47787266684E+02  0.19999980117E+02 0.  0.
        -12    1    1    2    0    0 -0.55354820632E+01  0.43037910977E+02 -0.84871048531E+00  0.43400733316E+02  0.00000000000E+00 0.  1.
         11    1    3    3    0    0  0.41226508211E+01 -0.13962272839E+02 -0.45877116809E+01  0.15263957919E+02  0.51100000000E-03 0.  1.
        -11    1    3    3    0    0  0.42851047275E+01 -0.21339045233E+01 -0.41252805940E+00  0.48047737409E+01  0.51100000000E-03 0. -1.
        -12    1    3    3    0    0 -0.28722734854E+01 -0.26941733614E+02  0.58489502256E+01  0.27718535023E+02  0.00000000000E+00 0.  1.
</event>
<event>
 7    1  0.3910751E-009  0.4778728E+02  0.7816164E-02  0.1312668E+00
        -11   -1    0    0    0    0  0.00000000000E+00  0.00000000000E+00  0.45593999997E+02  0.45594000000E+02  0.51100000000E-03 0.  1.
         11   -1    0    0    0    0 -0.00000000000E+00 -0.00000000000E+00 -0.45593999997E+02  0.45594000000E+02  0.51100000000E-03 0. -1.
    9900012    2    1    2    0    0 -0.26920397883E+02  0.19241811034E+02 -0.28083226803E+02  0.47787277176E+02  0.20000027955E+02 0.  0.
        -12    1    1    2    0    0  0.26920397883E+02 -0.19241811034E+02  0.28083226803E+02  0.43400722824E+02  0.00000000000E+00 0.  1.
         11    1    3    3    0    0 -0.10066986760E+02  0.29454152058E+01 -0.12071757468E+01  0.10558265327E+02  0.51100000000E-03 0. -1.
        -11    1    3    3    0    0  0.15330938729E+01  0.11355303408E+01 -0.24268337977E+01  0.30869610495E+01  0.51100000000E-03 0.  1.
        -12    1    3    3    0    0 -0.18386504995E+02  0.15160865487E+02 -0.24449217258E+02  0.34142050800E+02  0.00000000000E+00 0.  1.
</event>
<event>
 7    1  0.3910751E-009  0.4778727E+02  0.7816164E-02  0.1312668E+00
        -11   -1    0    0    0    0  0.00000000000E+00  0.00000000000E+00  0.45593999997E+02  0.45594000000E+02  0.51100000000E-03 0. -1.
         11   -1    0    0    0    0 -0.00000000000E+00 -0.00000000000E+00 -0.45593999997E+02  0.45594000000E+02  0.51100000000E-03 0.  1.
    9900012    2    1    2    0    0 -0.25436765018E+02 -0.34237247023E+02  0.80253157236E+01  0.47787265090E+02  0.19999972850E+02 0.  0.
        -12    1    1    2    0    0  0.25436765018E+02  0.34237247023E+02 -0.80253157236E+01  0.43400734910E+02  0.00000000000E+00 0.  1.
         11    1    3    3    0    0 -0.20160956718E+02 -0.15788311708E+02  0.86734705041E+01  0.27036346891E+02  0.51100000000E-03 0. -1.
        -11    1    3    3    0    0 -0.63336734660E+01 -0.17346634384E+02  0.10123684949E+01  0.18494486591E+02  0.51100000000E-03 0.  1.
        -12    1    3    3    0    0  0.10578651662E+01 -0.11023009309E+01 -0.16605232754E+01  0.22564316077E+01  0.00000000000E+00 0.  1.
</event>
<event>
 7    1  0.3910751E-009  0.4778727E+02  0.7816164E-02  0.1312668E+00
        -11   -1    0    0    0    0  0.00000000000E+00  0.00000000000E+00  0.45593999997E+02  0.45594000000E+02  0.51100000000E-03 0.  1.
         11   -1    0    0    0    0 -0.00000000000E+00 -0.00000000000E+00 -0.45593999997E+02  0.45594000000E+02  0.51100000000E-03 0. -1.
    9900012    2    1    2    0    0  0.34824226810E+02  0.25843946294E+02 -0.17282665397E+01  0.47787271456E+02  0.20000001875E+02 0.  0.
        -12    1    1    2    0    0 -0.34824226810E+02 -0.25843946294E+02  0.17282665397E+01  0.43400728544E+02  0.00000000000E+00 0.  1.
         11    1    3    3    0    0  0.24258558165E+01  0.40538220770E+00  0.47196038951E+00  0.25043677939E+01  0.51100000000E-03 0. -1.
        -11    1    3    3    0    0  0.16203488195E+02  0.46152897664E+01 -0.73903468471E+01  0.18397585605E+02  0.51100000000E-03 0.  1.
         12    1    3    3    0    0  0.16194882799E+02  0.20823274320E+02  0.51901199180E+01  0.26885318057E+02  0.00000000000E+00 0. -1.
</event>
<event>
 7    1  0.3910751E-009  0.4778727E+02  0.7816164E-02  0.1312668E+00
        -11   -1    0    0    0    0  0.00000000000E+00  0.00000000000E+00  0.45593999997E+02  0.45594000000E+02  0.51100000000E-03 0. -1.
         11   -1    0    0    0    0 -0.00000000000E+00 -0.00000000000E+00 -0.45593999997E+02  0.45594000000E+02  0.51100000000E-03 0.  1.
    9900012    2    1    2    0    0 -0.39470528040E+01  0.21668057317E+02  0.37397052575E+02  0.47787268727E+02  0.19999989435E+02 0.  0.
        -12    1    1    2    0    0  0.39470528040E+01 -0.21668057317E+02 -0.37397052575E+02  0.43400731273E+02  0.00000000000E+00 0.  1.
         11    1    3    3    0    0  0.23577081221E+01  0.46214195921E+01  0.16160942759E+02  0.16973284236E+02  0.51100000000E-03 0. -1.
        -11    1    3    3    0    0  0.33022279035E+01  0.59177150667E+01  0.30581147751E+01  0.74347916565E+01  0.51100000000E-03 0.  1.
        -12    1    3    3    0    0 -0.96069888296E+01  0.11128922658E+02  0.18177995041E+02  0.23379192835E+02  0.00000000000E+00 0.  1.
</event>
<event>
 7    1  0.3910751E-009  0.4778727E+02  0.7816164E-02  0.1312668E+00
        -11   -1    0    0    0    0  0.00000000000E+00  0.00000000000E+00  0.45593999997E+02  0.45594000000E+02  0.51100000000E-03 0.  1.
         11   -1    0    0    0    0 -0.00000000000E+00 -0.00000000000E+00 -0.45593999997E+02  0.45594000000E+02  0.51100000000E-03 0. -1.
    9900012    2    1    2    0    0 -0.17057253756E+02  0.37396774142E+02 -0.13933947227E+02  0.47787268356E+02  0.19999987741E+02 0.  0.
        -12    1    1    2    0    0  0.17057253756E+02 -0.37396774142E+02  0.13933947227E+02  0.43400731644E+02  0.00000000000E+00 0.  1.
         11    1    3    3    0    0 -0.60775149654E+01  0.25203195367E+02 -0.66842913118E+01  0.26773438245E+02  0.51100000000E-03 0. -1.
        -11    1    3    3    0    0 -0.18446979512E+01  0.32117349439E+01  0.28719991210E+01  0.46868466044E+01  0.51100000000E-03 0.  1.
        -12    1    3    3    0    0 -0.91350408398E+01  0.89818438314E+01 -0.10121655036E+02  0.16326983507E+02  0.00000000000E+00 0.  1.
</event>
<event>
 7    1  0.3910751E-009  0.4778727E+02  0.7816164E-02  0.1312668E+00
        -11   -1    0    0    0    0  0.00000000000E+00  0.00000000000E+00  0.45593999997E+02  0.45594000000E+02  0.51100000000E-03 0.  1.
         11   -1    0    0    0    0 -0.00000000000E+00 -0.00000000000E+00 -0.45593999997E+02  0.45594000000E+02  0.51100000000E-03 0. -1.
    9900012    2    1    2    0    0 -0.25276557130E+02  0.18468673565E+02 -0.30060388692E+02  0.47787271758E+02  0.20000003255E+02 0.  0.
        -12    1    1    2    0    0  0.25276557130E+02 -0.18468673565E+02  0.30060388692E+02  0.43400728242E+02  0.00000000000E+00 0.  1.
         11    1    3    3    0    0 -0.51088922436E+00  0.22509353488E+01  0.81651919977E+00  0.24483507936E+01  0.51100000000E-03 0. -1.
        -11    1    3    3    0    0 -0.75405300793E+00  0.54908311822E+00  0.17015969519E+01  0.19404949517E+01  0.51100000000E-03 0.  1.
         12    1    3    3    0    0 -0.24011614898E+02  0.15668655098E+02 -0.32578504843E+02  0.43398426013E+02  0.00000000000E+00 0. -1.
</event>
<event>
 7    1  0.3910751E-009  0.4778727E+02  0.7816164E-02  0.1312668E+00
        -11   -1    0    0    0    0  0.00000000000E+00  0.00000000000E+00  0.45593999997E+02  0.45594000000E+02  0.51100000000E-03 0.  1.
         11   -1    0    0    0    0 -0.00000000000E+00 -0.00000000000E+00 -0.45593999997E+02  0.45594000000E+02  0.51100000000E-03 0. -1.
    9900012    2    1    2    0    0 -0.21336342868E+02  0.35038985824E+02 -0.14165203036E+02  0.47787273836E+02  0.20000012727E+02 0.  0.
        -12    1    1    2    0    0  0.21336342868E+02 -0.35038985824E+02  0.14165203036E+02  0.43400726164E+02  0.00000000000E+00 0.  1.
         11    1    3    3    0    0 -0.82930265827E+01  0.85863541191E+01  0.10654272025E+01  0.11984777943E+02  0.51100000000E-03 0. -1.
        -11    1    3    3    0    0 -0.17565023001E+01  0.80385138583E+01  0.16479389663E+01  0.83915855759E+01  0.51100000000E-03 0.  1.
        -12    1    3    3    0    0 -0.11286813985E+02  0.18414117846E+02 -0.16878569205E+02  0.27410910317E+02  0.00000000000E+00 0.  1.
</event>
<event>
 7    1  0.3910751E-009  0.4778727E+02  0.7816164E-02  0.1312668E+00
        -11   -1    0    0    0    0  0.00000000000E+00  0.00000000000E+00  0.45593999997E+02  0.45594000000E+02  0.51100000000E-03 0. -1.
         11   -1    0    0    0    0 -0.00000000000E+00 -0.00000000000E+00 -0.45593999997E+02  0.45594000000E+02  0.51100000000E-03 0.  1.
    9900012    2    1    2    0    0 -0.20981283975E+02 -0.11345808003E+01  0.37975278733E+02  0.47787270217E+02  0.19999996228E+02 0.  0.
        -12    1    1    2    0    0  0.20981283975E+02  0.11345808003E+01 -0.37975278733E+02  0.43400729783E+02  0.00000000000E+00 0.  1.
         11    1    3    3    0    0 -0.16459321160E+02 -0.27560239448E+01  0.26506265601E+02  0.31322308941E+02  0.51100000000E-03 0. -1.
        -11    1    3    3    0    0 -0.77666622603E+01 -0.73573070742E+00  0.76966441391E+01  0.10959045287E+02  0.51100000000E-03 0.  1.
        -12    1    3    3    0    0  0.32446994452E+01  0.23571738520E+01  0.37723689928E+01  0.55059159888E+01  0.00000000000E+00 0.  1.
</event>
<event>
 7    1  0.3910751E-009  0.4778727E+02  0.7816164E-02  0.1312668E+00
        -11   -1    0    0    0    0  0.00000000000E+00  0.00000000000E+00  0.45593999997E+02  0.45594000000E+02  0.51100000000E-03 0. -1.
         11   -1    0    0    0    0 -0.00000000000E+00 -0.00000000000E+00 -0.45593999997E+02  0.45594000000E+02  0.51100000000E-03 0.  1.
    9900012    2    1    2    0    0 -0.24436841093E+02  0.31480514886E+02 -0.17188410208E+02  0.47787268836E+02  0.19999989931E+02 0.  0.
        -12    1    1    2    0    0  0.24436841093E+02 -0.31480514886E+02  0.17188410208E+02  0.43400731164E+02  0.00000000000E+00 0.  1.
         11    1    3    3    0    0 -0.88781582321E+01  0.21022896408E+02 -0.12187424398E+02  0.25871165044E+02  0.51100000000E-03 0. -1.
        -11    1    3    3    0    0 -0.64554451570E+01  0.44782421084E+01 -0.73674135434E+01  0.10770617770E+02  0.51100000000E-03 0.  1.
         12    1    3    3    0    0 -0.91032377042E+01  0.59793763693E+01  0.23664277340E+01  0.11145486023E+02  0.00000000000E+00 0. -1.
</event>
<event>
 7    1  0.3910751E-009  0.4778727E+02  0.7816164E-02  0.1312668E+00
        -11   -1    0    0    0    0  0.00000000000E+00  0.00000000000E+00  0.45593999997E+02  0.45594000000E+02  0.51100000000E-03 0.  1.
         11   -1    0    0    0    0 -0.00000000000E+00 -0.00000000000E+00 -0.45593999997E+02  0.45594000000E+02  0.51100000000E-03 0. -1.
    9900012    2    1    2    0    0  0.16162752272E+02 -0.35030794998E+02 -0.19880442150E+02  0.47787272595E+02  0.20000007070E+02 0.  0.
        -12    1    1    2    0    0 -0.16162752272E+02  0.35030794998E+02  0.19880442150E+02  0.43400727405E+02  0.00000000000E+00 0.  1.
         11    1    3    3    0    0 -0.59920450038E+00 -0.32220281116E+00 -0.12257541863E+01  0.14019038024E+01  0.51100000000E-03 0. -1.
        -11    1    3    3    0    0 -0.30405469724E+01 -0.10860915823E+01 -0.27746812199E+01  0.42571559697E+01  0.51100000000E-03 0.  1.
         12    1    3    3    0    0  0.19802503745E+02 -0.33622500604E+02 -0.15880006744E+02  0.42128212823E+02  0.00000000000E+00 0. -1.
</event>
<event>
 7    1  0.3910751E-009  0.4778727E+02  0.7816164E-02  0.1312668E+00
        -11   -1    0    0    0    0  0.00000000000E+00  0.00000000000E+00  0.45593999997E+02  0.45594000000E+02  0.51100000000E-03 0.  1.
         11   -1    0    0    0    0 -0.00000000000E+00 -0.00000000000E+00 -0.45593999997E+02  0.45594000000E+02  0.51100000000E-03 0. -1.
    9900012    2    1    2    0    0  0.79934657795E+01  0.11554680528E+02 -0.41063574006E+02  0.47787271349E+02  0.20000001388E+02 0.  0.
        -12    1    1    2    0    0 -0.79934657795E+01 -0.11554680528E+02  0.41063574006E+02  0.43400728651E+02  0.00000000000E+00 0.  1.
         11    1    3    3    0    0 -0.32023201592E+01  0.47736663027E+01 -0.18625691272E+02  0.19492540112E+02  0.51100000000E-03 0. -1.
        -11    1    3    3    0    0  0.91674612032E+00 -0.14302334728E+01 -0.10154787275E+02  0.10295906764E+02  0.51100000000E-03 0.  1.
         12    1    3    3    0    0  0.10279039818E+02  0.82112476981E+01 -0.12283095459E+02  0.17998824473E+02  0.00000000000E+00 0. -1.
</event>
<event>
 7    1  0.3910751E-009  0.4778728E+02  0.7816164E-02  0.1312668E+00
        -11   -1    0    0    0    0  0.00000000000E+00  0.00000000000E+00  0.45593999997E+02  0.45594000000E+02  0.51100000000E-03 0.  1.
         11   -1    0    0    0    0 -0.00000000000E+00 -0.00000000000E+00 -0.45593999997E+02  0.45594000000E+02  0.51100000000E-03 0. -1.
    9900012    2    1    2    0    0 -0.16074597651E+02  0.15399195546E+02 -0.37257146256E+02  0.47787275810E+02  0.20000021729E+02 0.  0.
        -12    1    1    2    0    0  0.16074597651E+02 -0.15399195546E+02  0.37257146256E+02  0.43400724190E+02  0.00000000000E+00 0.  1.
         11    1    3    3    0    0  0.20388556159E+01  0.47812233546E+01 -0.20180560883E+01  0.55758030476E+01  0.51100000000E-03 0.  1.
        -11    1    3    3    0    0 -0.85464649255E+01  0.62840341847E+01 -0.88703867240E+01  0.13828047919E+02  0.51100000000E-03 0. -1.
         12    1    3    3    0    0 -0.95669883409E+01  0.43339380067E+01 -0.26368703443E+02  0.28383424843E+02  0.00000000000E+00 0. -1.
</event>
<event>
 7    1  0.3910751E-009  0.4778727E+02  0.7816164E-02  0.1312668E+00
        -11   -1    0    0    0    0  0.00000000000E+00  0.00000000000E+00  0.45593999997E+02  0.45594000000E+02  0.51100000000E-03 0.  1.
         11   -1    0    0    0    0 -0.00000000000E+00 -0.00000000000E+00 -0.45593999997E+02  0.45594000000E+02  0.51100000000E-03 0. -1.
    9900012    2    1    2    0    0  0.66426595349E+01  0.42884179230E+02  0.66758983433E+00  0.47787269245E+02  0.19999991794E+02 0.  0.
        -12    1    1    2    0    0 -0.66426595349E+01 -0.42884179230E+02 -0.66758983433E+00  0.43400730755E+02  0.00000000000E+00 0.  1.
         11    1    3    3    0    0  0.15487634892E+01  0.33941599084E+02 -0.89360433549E+00  0.33988664959E+02  0.51100000000E-03 0. -1.
        -11    1    3    3    0    0 -0.15327598677E+01 -0.42923827783E+00 -0.11997655006E+01  0.19932475584E+01  0.51100000000E-03 0.  1.
        -12    1    3    3    0    0  0.66266559134E+01  0.93718184235E+01  0.27609596705E+01  0.11805356727E+02  0.00000000000E+00 0.  1.
</event>
<event>
 7    1  0.3910751E-009  0.4778727E+02  0.7816164E-02  0.1312668E+00
        -11   -1    0    0    0    0  0.00000000000E+00  0.00000000000E+00  0.45593999997E+02  0.45594000000E+02  0.51100000000E-03 0.  1.
         11   -1    0    0    0    0 -0.00000000000E+00 -0.00000000000E+00 -0.45593999997E+02  0.45594000000E+02  0.51100000000E-03 0. -1.
    9900012    2    1    2    0    0  0.30454618720E+01  0.38951272300E+02 -0.18898327217E+02  0.47787271625E+02  0.20000002649E+02 0.  0.
        -12    1    1    2    0    0 -0.30454618720E+01 -0.38951272300E+02  0.18898327217E+02  0.43400728375E+02  0.00000000000E+00 0.  1.
         11    1    3    3    0    0  0.19269608401E+01  0.16450988014E+01  0.12784430149E+01  0.28379473127E+01  0.51100000000E-03 0. -1.
        -11    1    3    3    0    0 -0.33088055249E+01  0.58772881831E+01 -0.91122501568E+01  0.11336834372E+02  0.51100000000E-03 0.  1.
         12    1    3    3    0    0  0.44273065568E+01  0.31428885316E+02 -0.11064520075E+02  0.33612489941E+02  0.00000000000E+00 0. -1.
</event>
<event>
 7    1  0.3910751E-009  0.4778727E+02  0.7816164E-02  0.1312668E+00
        -11   -1    0    0    0    0  0.00000000000E+00  0.00000000000E+00  0.45593999997E+02  0.45594000000E+02  0.51100000000E-03 0.  1.
         11   -1    0    0    0    0 -0.00000000000E+00 -0.00000000000E+00 -0.45593999997E+02  0.45594000000E+02  0.51100000000E-03 0. -1.
    9900012    2    1    2    0    0  0.77174557514E+01  0.32345989699E+02 -0.27889088856E+02  0.47787269014E+02  0.19999990743E+02 0.  0.
        -12    1    1    2    0    0 -0.77174557514E+01 -0.32345989699E+02  0.27889088856E+02  0.43400730986E+02  0.00000000000E+00 0.  1.
         11    1    3    3    0    0  0.50113799269E+00  0.74416056882E+01 -0.11955947796E+02  0.14091604681E+02  0.51100000000E-03 0. -1.
        -11    1    3    3    0    0 -0.19042406526E+01  0.16246849617E+01 -0.65128255216E+01  0.69772939041E+01  0.51100000000E-03 0.  1.
        -12    1    3    3    0    0  0.91205584113E+01  0.23279699049E+02 -0.94203155379E+01  0.26718370429E+02  0.00000000000E+00 0.  1.
</event>
<event>
 7    1  0.3910751E-009  0.4778726E+02  0.7816164E-02  0.1312668E+00
        -11   -1    0    0    0    0  0.00000000000E+00  0.00000000000E+00  0.45593999997E+02  0.45594000000E+02  0.51100000000E-03 0.  1.
         11   -1    0    0    0    0 -0.00000000000E+00 -0.00000000000E+00 -0.45593999997E+02  0.45594000000E+02  0.51100000000E-03 0. -1.
    9900012    2    1    2    0    0  0.27527894140E+02  0.29384321391E+02 -0.16198796750E+02  0.47787259044E+02  0.19999945285E+02 0.  0.
        -12    1    1    2    0    0 -0.27527894140E+02 -0.29384321391E+02  0.16198796750E+02  0.43400740956E+02  0.00000000000E+00 0.  1.
         11    1    3    3    0    0  0.86851588196E+01  0.11569780574E+02 -0.10871413688E+02  0.18096393068E+02  0.51100000000E-03 0. -1.
        -11    1    3    3    0    0  0.32086981960E+01 -0.82184697432E+00 -0.41866518108E+01  0.53384670280E+01  0.51100000000E-03 0.  1.
        -12    1    3    3    0    0  0.15634037124E+02  0.18636387792E+02 -0.11407312514E+01  0.24352398948E+02  0.00000000000E+00 0.  1.
</event>
<event>
 7    1  0.3910751E-009  0.4778727E+02  0.7816164E-02  0.1312668E+00
        -11   -1    0    0    0    0  0.00000000000E+00  0.00000000000E+00  0.45593999997E+02  0.45594000000E+02  0.51100000000E-03 0.  1.
         11   -1    0    0    0    0 -0.00000000000E+00 -0.00000000000E+00 -0.45593999997E+02  0.45594000000E+02  0.51100000000E-03 0. -1.
    9900012    2    1    2    0    0 -0.86216424042E+01  0.17755401263E+02 -0.38652764348E+02  0.47787272086E+02  0.20000004749E+02 0.  0.
        -12    1    1    2    0    0  0.86216424042E+01 -0.17755401263E+02  0.38652764348E+02  0.43400727914E+02  0.00000000000E+00 0.  1.
         11    1    3    3    0    0 -0.38522120267E+01  0.73113183632E+01 -0.15630792975E+02  0.17680967253E+02  0.51100000000E-03 0. -1.
        -11    1    3    3    0    0  0.16967274267E+01 -0.24422634410E+01 -0.10810755867E+02  0.11212313649E+02  0.51100000000E-03 0.  1.
        -12    1    3    3    0    0 -0.64661578042E+01  0.12886346341E+02 -0.12211215506E+02  0.18893991185E+02  0.00000000000E+00 0.  1.
</event>
<event>
 7    1  0.3910751E-009  0.4778730E+02  0.7816164E-02  0.1312668E+00
        -11   -1    0    0    0    0  0.00000000000E+00  0.00000000000E+00  0.45593999997E+02  0.45594000000E+02  0.51100000000E-03 0.  1.
         11   -1    0    0    0    0 -0.00000000000E+00 -0.00000000000E+00 -0.45593999997E+02  0.45594000000E+02  0.51100000000E-03 0. -1.
    9900012    2    1    2    0    0  0.46194084079E+01  0.24601786622E+02 -0.35454671397E+02  0.47787302277E+02  0.20000142401E+02 0.  0.
        -12    1    1    2    0    0 -0.46194084079E+01 -0.24601786622E+02  0.35454671397E+02  0.43400697723E+02  0.00000000000E+00 0.  1.
         11    1    3    3    0    0 -0.11553847117E+00  0.15737128143E+01  0.22204730554E+01  0.27240451559E+01  0.51100000000E-03 0. -1.
        -11    1    3    3    0    0  0.19899510828E+01  0.86635918980E+01 -0.79079395470E+01  0.11897614804E+02  0.51100000000E-03 0.  1.
         12    1    3    3    0    0  0.27449957962E+01  0.14364481909E+02 -0.29767204905E+02  0.33165642317E+02  0.00000000000E+00 0. -1.
</event>
<event>
 7    1  0.3910751E-009  0.4778728E+02  0.7816164E-02  0.1312668E+00
        -11   -1    0    0    0    0  0.00000000000E+00  0.00000000000E+00  0.45593999997E+02  0.45594000000E+02  0.51100000000E-03 0.  1.
         11   -1    0    0    0    0 -0.00000000000E+00 -0.00000000000E+00 -0.45593999997E+02  0.45594000000E+02  0.51100000000E-03 0. -1.
    9900012    2    1    2    0    0 -0.17580469479E+02 -0.27923179471E+02 -0.28193014342E+02  0.47787275161E+02  0.20000018768E+02 0.  0.
        -12    1    1    2    0    0  0.17580469479E+02  0.27923179471E+02  0.28193014342E+02  0.43400724839E+02  0.00000000000E+00 0.  1.
         11    1    3    3    0    0 -0.55230780614E+01 -0.92544774347E+01 -0.68717656458E+01  0.12781662928E+02  0.51100000000E-03 0. -1.
        -11    1    3    3    0    0 -0.25542869821E+01 -0.17419676546E+02 -0.10291933638E+02  0.20393464914E+02  0.51100000000E-03 0.  1.
         12    1    3    3    0    0 -0.95031044355E+01 -0.12490254907E+01 -0.11029315058E+02  0.14612147318E+02  0.00000000000E+00 0. -1.
</event>
<event>
 7    1  0.3910751E-009  0.4778727E+02  0.7816164E-02  0.1312668E+00
        -11   -1    0    0    0    0  0.00000000000E+00  0.00000000000E+00  0.45593999997E+02  0.45594000000E+02  0.51100000000E-03 0.  1.
         11   -1    0    0    0    0 -0.00000000000E+00 -0.00000000000E+00 -0.45593999997E+02  0.45594000000E+02  0.51100000000E-03 0. -1.
    9900012    2    1    2    0    0  0.20641310850E+02 -0.17431987845E+02 -0.33965943158E+02  0.47787271798E+02  0.20000003436E+02 0.  0.
        -12    1    1    2    0    0 -0.20641310850E+02  0.17431987845E+02  0.33965943158E+02  0.43400728202E+02  0.00000000000E+00 0.  1.
         11    1    3    3    0    0  0.46634587672E+01 -0.73266584009E+01 -0.10416566398E+02  0.13562176329E+02  0.51100000000E-03 0. -1.
        -11    1    3    3    0    0  0.59888021755E+01 -0.60374187369E+01 -0.20138640373E+00  0.85062761092E+01  0.51100000000E-03 0.  1.
         12    1    3    3    0    0  0.99890499078E+01 -0.40679107070E+01 -0.23347990356E+02  0.25718819360E+02  0.00000000000E+00 0. -1.
</event>
<event>
 7    1  0.3910751E-009  0.4778727E+02  0.7816164E-02  0.1312668E+00
        -11   -1    0    0    0    0  0.00000000000E+00  0.00000000000E+00  0.45593999997E+02  0.45594000000E+02  0.51100000000E-03 0. -1.
         11   -1    0    0    0    0 -0.00000000000E+00 -0.00000000000E+00 -0.45593999997E+02  0.45594000000E+02  0.51100000000E-03 0.  1.
    9900012    2    1    2    0    0 -0.19746995128E+02 -0.37021760549E+02  0.11093639813E+02  0.47787269419E+02  0.19999992588E+02 0.  0.
        -12    1    1    2    0    0  0.19746995128E+02  0.37021760549E+02 -0.11093639813E+02  0.43400730581E+02  0.00000000000E+00 0.  1.
         11    1    3    3    0    0 -0.19704823472E+01 -0.61487249669E+01 -0.21630563203E+01  0.68094370035E+01  0.51100000000E-03 0. -1.
        -11    1    3    3    0    0 -0.30793646995E+01  0.76840156179E+00  0.35554646318E+01  0.47659476415E+01  0.51100000000E-03 0.  1.
         12    1    3    3    0    0 -0.14697148081E+02 -0.31641437143E+02  0.97012315015E+01  0.36211884774E+02  0.00000000000E+00 0. -1.
</event>
<event>
 7    1  0.3910751E-009  0.4778727E+02  0.7816164E-02  0.1312668E+00
        -11   -1    0    0    0    0  0.00000000000E+00  0.00000000000E+00  0.45593999997E+02  0.45594000000E+02  0.51100000000E-03 0. -1.
         11   -1    0    0    0    0 -0.00000000000E+00 -0.00000000000E+00 -0.45593999997E+02  0.45594000000E+02  0.51100000000E-03 0.  1.
    9900012    2    1    2    0    0  0.27603626903E+02 -0.61604960704E+01  0.32919776645E+02  0.47787267006E+02  0.19999981587E+02 0.  0.
        -12    1    1    2    0    0 -0.27603626903E+02  0.61604960704E+01 -0.32919776645E+02  0.43400732994E+02  0.00000000000E+00 0.  1.
         11    1    3    3    0    0  0.14507118720E+02 -0.95919478411E+00  0.77554540897E+01  0.16477973680E+02  0.51100000000E-03 0. -1.
        -11    1    3    3    0    0  0.15454508815E+02 -0.46080804299E+01  0.20875965550E+02  0.26379578955E+02  0.51100000000E-03 0.  1.
        -12    1    3    3    0    0 -0.23580006321E+01 -0.59322085644E+00  0.42883570056E+01  0.49297143703E+01  0.00000000000E+00 0.  1.
</event>
<event>
 7    1  0.3910751E-009  0.4778727E+02  0.7816164E-02  0.1312668E+00
        -11   -1    0    0    0    0  0.00000000000E+00  0.00000000000E+00  0.45593999997E+02  0.45594000000E+02  0.51100000000E-03 0.  1.
         11   -1    0    0    0    0 -0.00000000000E+00 -0.00000000000E+00 -0.45593999997E+02  0.45594000000E+02  0.51100000000E-03 0. -1.
    9900012    2    1    2    0    0 -0.18870578492E+02 -0.22910029876E+02 -0.31664734043E+02  0.47787267477E+02  0.19999983734E+02 0.  0.
        -12    1    1    2    0    0  0.18870578492E+02  0.22910029876E+02  0.31664734043E+02  0.43400732523E+02  0.00000000000E+00 0.  1.
         11    1    3    3    0    0 -0.87835806721E+01 -0.72378073156E+01 -0.15343414686E+02  0.19103861355E+02  0.51100000000E-03 0. -1.
        -11    1    3    3    0    0  0.11984992894E+01 -0.73771121872E+01 -0.11796001718E+02  0.13964377593E+02  0.51100000000E-03 0.  1.
        -12    1    3    3    0    0 -0.11285497109E+02 -0.82951103735E+01 -0.45253176382E+01  0.14719028529E+02  0.00000000000E+00 0.  1.
</event>
<event>
 7    1  0.3910751E-009  0.4778726E+02  0.7816164E-02  0.1312668E+00
        -11   -1    0    0    0    0  0.00000000000E+00  0.00000000000E+00  0.45593999997E+02  0.45594000000E+02  0.51100000000E-03 0. -1.
         11   -1    0    0    0    0 -0.00000000000E+00 -0.00000000000E+00 -0.45593999997E+02  0.45594000000E+02  0.51100000000E-03 0.  1.
    9900012    2    1    2    0    0  0.30166250817E+02 -0.27324480817E+02  0.15066323550E+02  0.47787262154E+02  0.19999959466E+02 0.  0.
        -12    1    1    2    0    0 -0.30166250817E+02  0.27324480817E+02 -0.15066323550E+02  0.43400737846E+02  0.00000000000E+00 0.  1.
         11    1    3    3    0    0  0.13702031555E+02 -0.53870975835E+01 -0.12464636003E+01  0.14775661098E+02  0.51100000000E-03 0. -1.
        -11    1    3    3    0    0  0.11316319002E+01  0.10631632100E+00 -0.59218516075E+00  0.12816307750E+01  0.51100000000E-03 0.  1.
        -12    1    3    3    0    0  0.15332587362E+02 -0.22043699554E+02  0.16904972311E+02  0.31729970282E+02  0.00000000000E+00 0.  1.
</event>
<event>
 7    1  0.3910751E-009  0.4778727E+02  0.7816164E-02  0.1312668E+00
        -11   -1    0    0    0    0  0.00000000000E+00  0.00000000000E+00  0.45593999997E+02  0.45594000000E+02  0.51100000000E-03 0.  1.
         11   -1    0    0    0    0 -0.00000000000E+00 -0.00000000000E+00 -0.45593999997E+02  0.45594000000E+02  0.51100000000E-03 0. -1.
    9900012    2    1    2    0    0 -0.13721907431E+02  0.16644761325E+02 -0.37660115955E+02  0.47787272392E+02  0.20000006145E+02 0.  0.
        -12    1    1    2    0    0  0.13721907431E+02 -0.16644761325E+02  0.37660115955E+02  0.43400727608E+02  0.00000000000E+00 0.  1.
         11    1    3    3    0    0 -0.67590912778E+01  0.59864540459E+01 -0.10259874860E+02  0.13667039890E+02  0.51100000000E-03 0. -1.
        -11    1    3    3    0    0 -0.66826654601E+01  0.47801652256E+01 -0.25799744790E+01  0.86118677306E+01  0.51100000000E-03 0.  1.
         12    1    3    3    0    0 -0.28015069298E+00  0.58781420535E+01 -0.24820266617E+02  0.25508364772E+02  0.00000000000E+00 0. -1.
</event>
<event>
 7    1  0.3910751E-009  0.4778729E+02  0.7816164E-02  0.1312668E+00
        -11   -1    0    0    0    0  0.00000000000E+00  0.00000000000E+00  0.45593999997E+02  0.45594000000E+02  0.51100000000E-03 0. -1.
         11   -1    0    0    0    0 -0.00000000000E+00 -0.00000000000E+00 -0.45593999997E+02  0.45594000000E+02  0.51100000000E-03 0.  1.
    9900012    2    1    2    0    0 -0.17034848624E+01 -0.22148018010E+02  0.37285190249E+02  0.47787286015E+02  0.20000068257E+02 0.  0.
        -12    1    1    2    0    0  0.17034848624E+01  0.22148018010E+02 -0.37285190249E+02  0.43400713985E+02  0.00000000000E+00 0.  1.
         11    1    3    3    0    0  0.36623404711E+01 -0.72948393243E+01  0.12618747523E+02  0.15028646240E+02  0.51100000000E-03 0. -1.
        -11    1    3    3    0    0 -0.65122565254E+01 -0.85911761605E+01  0.46254482596E+01  0.11730838194E+02  0.51100000000E-03 0.  1.
        -12    1    3    3    0    0  0.11464311920E+01 -0.62620025254E+01  0.20040994467E+02  0.21027801581E+02  0.00000000000E+00 0.  1.
</event>
<event>
 7    1  0.3910751E-009  0.4778727E+02  0.7816164E-02  0.1312668E+00
        -11   -1    0    0    0    0  0.00000000000E+00  0.00000000000E+00  0.45593999997E+02  0.45594000000E+02  0.51100000000E-03 0.  1.
         11   -1    0    0    0    0 -0.00000000000E+00 -0.00000000000E+00 -0.45593999997E+02  0.45594000000E+02  0.51100000000E-03 0. -1.
    9900012    2    1    2    0    0  0.54724328968E+01  0.18913961806E+02 -0.38677359632E+02  0.47787267044E+02  0.19999981759E+02 0.  0.
        -12    1    1    2    0    0 -0.54724328968E+01 -0.18913961806E+02  0.38677359632E+02  0.43400732956E+02  0.00000000000E+00 0.  1.
         11    1    3    3    0    0 -0.13066620560E+00 -0.22770434890E+01 -0.73885459991E+01  0.77325683282E+01  0.51100000000E-03 0. -1.
        -11    1    3    3    0    0  0.64865361042E+01  0.41515575094E+01 -0.72569915030E+01  0.10581800713E+02  0.51100000000E-03 0.  1.
         12    1    3    3    0    0 -0.88343700181E+00  0.17039447786E+02 -0.24031822130E+02  0.29472898003E+02  0.00000000000E+00 0. -1.
</event>
<event>
 7    1  0.3910751E-009  0.4778728E+02  0.7816164E-02  0.1312668E+00
        -11   -1    0    0    0    0  0.00000000000E+00  0.00000000000E+00  0.45593999997E+02  0.45594000000E+02  0.51100000000E-03 0.  1.
         11   -1    0    0    0    0 -0.00000000000E+00 -0.00000000000E+00 -0.45593999997E+02  0.45594000000E+02  0.51100000000E-03 0. -1.
    9900012    2    1    2    0    0 -0.40599847923E+02  0.12693756073E+02 -0.86106810413E+01  0.47787275091E+02  0.20000018449E+02 0.  0.
        -12    1    1    2    0    0  0.40599847923E+02 -0.12693756073E+02  0.86106810413E+01  0.43400724909E+02  0.00000000000E+00 0.  1.
         11    1    3    3    0    0 -0.15112436426E+02  0.95794056015E+00  0.42509581244E+00  0.15148732342E+02  0.51100000000E-03 0. -1.
        -11    1    3    3    0    0 -0.24264424150E+02  0.72795815027E+01 -0.37356569503E+01  0.25606829544E+02  0.51100000000E-03 0.  1.
        -12    1    3    3    0    0 -0.12229873473E+01  0.44562340103E+01 -0.53001199034E+01  0.70317132050E+01  0.00000000000E+00 0.  1.
</event>
<event>
 7    1  0.3910751E-009  0.4778727E+02  0.7816164E-02  0.1312668E+00
        -11   -1    0    0    0    0  0.00000000000E+00  0.00000000000E+00  0.45593999997E+02  0.45594000000E+02  0.51100000000E-03 0.  1.
         11   -1    0    0    0    0 -0.00000000000E+00 -0.00000000000E+00 -0.45593999997E+02  0.45594000000E+02  0.51100000000E-03 0. -1.
    9900012    2    1    2    0    0  0.89768842870E+01 -0.16895425940E+02 -0.38956175593E+02  0.47787268600E+02  0.19999988857E+02 0.  0.
        -12    1    1    2    0    0 -0.89768842870E+01  0.16895425940E+02  0.38956175593E+02  0.43400731400E+02  0.00000000000E+00 0.  1.
         11    1    3    3    0    0  0.45716142222E+00 -0.14490797538E+01 -0.14307976541E+01  0.20871058639E+01  0.51100000000E-03 0. -1.
        -11    1    3    3    0    0  0.13890034942E+02 -0.15284168285E+02 -0.28495829835E+02  0.35193055978E+02  0.51100000000E-03 0.  1.
        -12    1    3    3    0    0 -0.53703120768E+01 -0.16217790130E+00 -0.90295481036E+01  0.10507106758E+02  0.00000000000E+00 0.  1.
</event>
<event>
 7    1  0.3910751E-009  0.4778727E+02  0.7816164E-02  0.1312668E+00
        -11   -1    0    0    0    0  0.00000000000E+00  0.00000000000E+00  0.45593999997E+02  0.45594000000E+02  0.51100000000E-03 0.  1.
         11   -1    0    0    0    0 -0.00000000000E+00 -0.00000000000E+00 -0.45593999997E+02  0.45594000000E+02  0.51100000000E-03 0. -1.
    9900012    2    1    2    0    0  0.31240067878E+02 -0.19246743711E+02  0.23178536735E+02  0.47787267867E+02  0.19999985512E+02 0.  0.
        -12    1    1    2    0    0 -0.31240067878E+02  0.19246743711E+02 -0.23178536735E+02  0.43400732133E+02  0.00000000000E+00 0.  1.
         11    1    3    3    0    0  0.73807078181E+01 -0.42998113321E+01  0.19609871792E+01  0.87640570723E+01  0.51100000000E-03 0. -1.
        -11    1    3    3    0    0  0.17774088351E+02 -0.15718460458E+02  0.22563896779E+02  0.32743207753E+02  0.51100000000E-03 0.  1.
        -12    1    3    3    0    0  0.60852717094E+01  0.77152807883E+00 -0.13463472228E+01  0.62800030413E+01  0.00000000000E+00 0.  1.
</event>
<event>
 7    1  0.3910751E-009  0.4778727E+02  0.7816164E-02  0.1312668E+00
        -11   -1    0    0    0    0  0.00000000000E+00  0.00000000000E+00  0.45593999997E+02  0.45594000000E+02  0.51100000000E-03 0.  1.
         11   -1    0    0    0    0 -0.00000000000E+00 -0.00000000000E+00 -0.45593999997E+02  0.45594000000E+02  0.51100000000E-03 0. -1.
    9900012    2    1    2    0    0  0.37736828940E+02 -0.20043648036E+02  0.76031010025E+01  0.47787271551E+02  0.20000002308E+02 0.  0.
        -12    1    1    2    0    0 -0.37736828940E+02  0.20043648036E+02 -0.76031010025E+01  0.43400728449E+02  0.00000000000E+00 0.  1.
         11    1    3    3    0    0  0.19404165917E+02 -0.61908780567E+01  0.43923579404E+01  0.20836060919E+02  0.51100000000E-03 0. -1.
        -11    1    3    3    0    0  0.38549988983E+01  0.26123111053E+01  0.17604364234E+01  0.49783855293E+01  0.51100000000E-03 0.  1.
         12    1    3    3    0    0  0.14477664125E+02 -0.16465081085E+02  0.14503066387E+01  0.21972825103E+02  0.00000000000E+00 0. -1.
</event>
<event>
 7    1  0.3910751E-009  0.4778727E+02  0.7816164E-02  0.1312668E+00
        -11   -1    0    0    0    0  0.00000000000E+00  0.00000000000E+00  0.45593999997E+02  0.45594000000E+02  0.51100000000E-03 0.  1.
         11   -1    0    0    0    0 -0.00000000000E+00 -0.00000000000E+00 -0.45593999997E+02  0.45594000000E+02  0.51100000000E-03 0. -1.
    9900012    2    1    2    0    0  0.30065920358E+02 -0.93101830799E+01 -0.29882842300E+02  0.47787270284E+02  0.19999996534E+02 0.  0.
        -12    1    1    2    0    0 -0.30065920358E+02  0.93101830799E+01  0.29882842300E+02  0.43400729716E+02  0.00000000000E+00 0.  1.
         11    1    3    3    0    0  0.39541176399E+00 -0.14008590994E+01 -0.33617590291E+01  0.36633564815E+01  0.51100000000E-03 0. -1.
        -11    1    3    3    0    0  0.90904970382E+00 -0.52196025504E+01 -0.86872183794E+01  0.10175381348E+02  0.51100000000E-03 0.  1.
         12    1    3    3    0    0  0.28761458890E+02 -0.26897214301E+01 -0.17833864891E+02  0.33948532455E+02  0.00000000000E+00 0. -1.
</event>
<event>
 7    1  0.3910751E-009  0.4778727E+02  0.7816164E-02  0.1312668E+00
        -11   -1    0    0    0    0  0.00000000000E+00  0.00000000000E+00  0.45593999997E+02  0.45594000000E+02  0.51100000000E-03 0.  1.
         11   -1    0    0    0    0 -0.00000000000E+00 -0.00000000000E+00 -0.45593999997E+02  0.45594000000E+02  0.51100000000E-03 0. -1.
    9900012    2    1    2    0    0 -0.23787160089E+02 -0.33152848704E+02  0.14787934662E+02  0.47787269893E+02  0.19999994750E+02 0.  0.
        -12    1    1    2    0    0  0.23787160089E+02  0.33152848704E+02 -0.14787934662E+02  0.43400730107E+02  0.00000000000E+00 0.  1.
         11    1    3    3    0    0 -0.68056599081E+01 -0.10472220107E+02  0.45735843654E+01  0.13300453938E+02  0.51100000000E-03 0. -1.
        -11    1    3    3    0    0  0.13736359848E+00 -0.22591489598E+01  0.73443078486E+01  0.76851467661E+01  0.51100000000E-03 0.  1.
        -12    1    3    3    0    0 -0.17118863779E+02 -0.20421479637E+02  0.28700424480E+01  0.26801669189E+02  0.00000000000E+00 0.  1.
</event>
<event>
 7    1  0.3910751E-009  0.4778727E+02  0.7816164E-02  0.1312668E+00
        -11   -1    0    0    0    0  0.00000000000E+00  0.00000000000E+00  0.45593999997E+02  0.45594000000E+02  0.51100000000E-03 0.  1.
         11   -1    0    0    0    0 -0.00000000000E+00 -0.00000000000E+00 -0.45593999997E+02  0.45594000000E+02  0.51100000000E-03 0. -1.
    9900012    2    1    2    0    0  0.21745980638E+02  0.37041622071E+02  0.62172232186E+01  0.47787270696E+02  0.19999998413E+02 0.  0.
        -12    1    1    2    0    0 -0.21745980638E+02 -0.37041622071E+02 -0.62172232186E+01  0.43400729304E+02  0.00000000000E+00 0.  1.
         11    1    3    3    0    0  0.14112935421E+02  0.13353869995E+02  0.10596549726E+02  0.22131146749E+02  0.51100000000E-03 0.  1.
        -11    1    3    3    0    0  0.26286343268E+01  0.71652881285E+01  0.69039893009E+00  0.76634015510E+01  0.51100000000E-03 0. -1.
        -12    1    3    3    0    0  0.50044108899E+01  0.16522463947E+02 -0.50697254376E+01  0.17992722397E+02  0.00000000000E+00 0.  1.
</event>
<event>
 7    1  0.3910751E-009  0.4778727E+02  0.7816164E-02  0.1312668E+00
        -11   -1    0    0    0    0  0.00000000000E+00  0.00000000000E+00  0.45593999997E+02  0.45594000000E+02  0.51100000000E-03 0.  1.
         11   -1    0    0    0    0 -0.00000000000E+00 -0.00000000000E+00 -0.45593999997E+02  0.45594000000E+02  0.51100000000E-03 0. -1.
    9900012    2    1    2    0    0 -0.34991236954E+02 -0.10554031989E+02 -0.23406174902E+02  0.47787270993E+02  0.19999999766E+02 0.  0.
        -12    1    1    2    0    0  0.34991236954E+02  0.10554031989E+02  0.23406174902E+02  0.43400729007E+02  0.00000000000E+00 0.  1.
         11    1    3    3    0    0 -0.32811231559E+02 -0.12078430678E+02 -0.16626898236E+02  0.38715877224E+02  0.51100000000E-03 0. -1.
        -11    1    3    3    0    0  0.18389492360E+00  0.14196830241E+01  0.42109229479E+00  0.14921917483E+01  0.51100000000E-03 0.  1.
        -12    1    3    3    0    0 -0.23639003186E+01  0.10471566516E+00 -0.72003689614E+01  0.75792020204E+01  0.00000000000E+00 0.  1.
</event>
<event>
 7    1  0.3910751E-009  0.4778727E+02  0.7816164E-02  0.1312668E+00
        -11   -1    0    0    0    0  0.00000000000E+00  0.00000000000E+00  0.45593999997E+02  0.45594000000E+02  0.51100000000E-03 0.  1.
         11   -1    0    0    0    0 -0.00000000000E+00 -0.00000000000E+00 -0.45593999997E+02  0.45594000000E+02  0.51100000000E-03 0. -1.
    9900012    2    1    2    0    0 -0.24685028708E+02  0.18495922578E+02 -0.30531517717E+02  0.47787269955E+02  0.19999995035E+02 0.  0.
        -12    1    1    2    0    0  0.24685028708E+02 -0.18495922578E+02  0.30531517717E+02  0.43400730045E+02  0.00000000000E+00 0.  1.
         11    1    3    3    0    0 -0.13301860704E+01  0.86993793144E+01 -0.25044817269E+01  0.91499193668E+01  0.51100000000E-03 0. -1.
        -11    1    3    3    0    0 -0.98584986328E+01  0.59004287196E+01 -0.73474257575E+01  0.13637804805E+02  0.51100000000E-03 0.  1.
        -12    1    3    3    0    0 -0.13496344004E+02  0.38961145436E+01 -0.20679610233E+02  0.24999545784E+02  0.00000000000E+00 0.  1.
</event>
<event>
 7    1  0.3910751E-009  0.4778723E+02  0.7816164E-02  0.1312668E+00
        -11   -1    0    0    0    0  0.00000000000E+00  0.00000000000E+00  0.45593999997E+02  0.45594000000E+02  0.51100000000E-03 0. -1.
         11   -1    0    0    0    0 -0.00000000000E+00 -0.00000000000E+00 -0.45593999997E+02  0.45594000000E+02  0.51100000000E-03 0.  1.
    9900012    2    1    2    0    0  0.21956084607E+02  0.33644555394E+02  0.16419526203E+02  0.47787232729E+02  0.19999825305E+02 0.  0.
        -12    1    1    2    0    0 -0.21956084607E+02 -0.33644555394E+02 -0.16419526203E+02  0.43400767271E+02  0.00000000000E+00 0.  1.
         11    1    3    3    0    0  0.81745838669E+01  0.16090831795E+02  0.68079089301E+01  0.19289538966E+02  0.51100000000E-03 0. -1.
        -11    1    3    3    0    0  0.16537417333E+02  0.14511973408E+02  0.54805718035E+01  0.22674219100E+02  0.51100000000E-03 0.  1.
        -12    1    3    3    0    0 -0.27559165924E+01  0.30417501909E+01  0.41310454693E+01  0.58234746636E+01  0.00000000000E+00 0.  1.
</event>
<event>
 7    1  0.3910751E-009  0.4778727E+02  0.7816164E-02  0.1312668E+00
        -11   -1    0    0    0    0  0.00000000000E+00  0.00000000000E+00  0.45593999997E+02  0.45594000000E+02  0.51100000000E-03 0.  1.
         11   -1    0    0    0    0 -0.00000000000E+00 -0.00000000000E+00 -0.45593999997E+02  0.45594000000E+02  0.51100000000E-03 0. -1.
    9900012    2    1    2    0    0  0.40611015453E+02  0.29355273968E+01 -0.15025022553E+02  0.47787271897E+02  0.20000003885E+02 0.  0.
        -12    1    1    2    0    0 -0.40611015453E+02 -0.29355273968E+01  0.15025022553E+02  0.43400728103E+02  0.00000000000E+00 0.  1.
         11    1    3    3    0    0  0.88656456136E+01  0.76699494892E+01 -0.90150073880E+00  0.11757572077E+02  0.51100000000E-03 0. -1.
        -11    1    3    3    0    0  0.10235747463E+02  0.19056608365E+01 -0.25578884108E+01  0.10721234198E+02  0.51100000000E-03 0.  1.
        -12    1    3    3    0    0  0.21509622377E+02 -0.66400829290E+01 -0.11565633403E+02  0.25308465621E+02  0.00000000000E+00 0.  1.
</event>
<event>
 7    1  0.3910751E-009  0.4778727E+02  0.7816164E-02  0.1312668E+00
        -11   -1    0    0    0    0  0.00000000000E+00  0.00000000000E+00  0.45593999997E+02  0.45594000000E+02  0.51100000000E-03 0.  1.
         11   -1    0    0    0    0 -0.00000000000E+00 -0.00000000000E+00 -0.45593999997E+02  0.45594000000E+02  0.51100000000E-03 0. -1.
    9900012    2    1    2    0    0 -0.34683614490E+02 -0.21156063966E+02 -0.15267315224E+02  0.47787273384E+02  0.20000010669E+02 0.  0.
        -12    1    1    2    0    0  0.34683614490E+02  0.21156063966E+02  0.15267315224E+02  0.43400726616E+02  0.00000000000E+00 0.  1.
         11    1    3    3    0    0 -0.20079134275E+01 -0.30510966603E+01 -0.27025171015E+01  0.45436225754E+01  0.51100000000E-03 0. -1.
        -11    1    3    3    0    0 -0.19438595112E+02 -0.11843466680E+02  0.16675407237E+01  0.22823395349E+02  0.51100000000E-03 0.  1.
        -12    1    3    3    0    0 -0.13237105950E+02 -0.62615006260E+01 -0.14232338846E+02  0.20420255460E+02  0.00000000000E+00 0.  1.
</event>
<event>
 7    1  0.3910751E-009  0.4778727E+02  0.7816164E-02  0.1312668E+00
        -11   -1    0    0    0    0  0.00000000000E+00  0.00000000000E+00  0.45593999997E+02  0.45594000000E+02  0.51100000000E-03 0.  1.
         11   -1    0    0    0    0 -0.00000000000E+00 -0.00000000000E+00 -0.45593999997E+02  0.45594000000E+02  0.51100000000E-03 0. -1.
    9900012    2    1    2    0    0  0.23551999565E+01  0.89795999524E+00 -0.43327471661E+02  0.47787273053E+02  0.20000009159E+02 0.  0.
        -12    1    1    2    0    0 -0.23551999565E+01 -0.89795999524E+00  0.43327471661E+02  0.43400726947E+02  0.00000000000E+00 0.  1.
         11    1    3    3    0    0  0.51981314694E+01  0.14271805966E+01 -0.15304821185E+02  0.16226366413E+02  0.51100000000E-03 0. -1.
        -11    1    3    3    0    0  0.16054538435E+01 -0.61078480660E+01 -0.19212820517E+02  0.20224138115E+02  0.51100000000E-03 0.  1.
         12    1    3    3    0    0 -0.44483853563E+01  0.55786274647E+01 -0.88098299597E+01  0.11336768525E+02  0.00000000000E+00 0. -1.
</event>
<event>
 7    1  0.3910751E-009  0.4778728E+02  0.7816164E-02  0.1312668E+00
        -11   -1    0    0    0    0  0.00000000000E+00  0.00000000000E+00  0.45593999997E+02  0.45594000000E+02  0.51100000000E-03 0.  1.
         11   -1    0    0    0    0 -0.00000000000E+00 -0.00000000000E+00 -0.45593999997E+02  0.45594000000E+02  0.51100000000E-03 0. -1.
    9900012    2    1    2    0    0  0.14130252072E+02 -0.13853559475E+02 -0.38626904919E+02  0.47787275152E+02  0.20000018727E+02 0.  0.
        -12    1    1    2    0    0 -0.14130252072E+02  0.13853559475E+02  0.38626904919E+02  0.43400724848E+02  0.00000000000E+00 0.  1.
         11    1    3    3    0    0  0.19897169495E+01 -0.90986745216E+01 -0.23273862748E+02  0.25068257599E+02  0.51100000000E-03 0. -1.
        -11    1    3    3    0    0  0.25633515571E+01 -0.57752449341E+01 -0.28372525734E+01  0.69263430236E+01  0.51100000000E-03 0.  1.
        -12    1    3    3    0    0  0.95771835653E+01  0.10203599808E+01 -0.12515789598E+02  0.15792674529E+02  0.00000000000E+00 0.  1.
</event>
<event>
 7    1  0.3910751E-009  0.4778727E+02  0.7816164E-02  0.1312668E+00
        -11   -1    0    0    0    0  0.00000000000E+00  0.00000000000E+00  0.45593999997E+02  0.45594000000E+02  0.51100000000E-03 0.  1.
         11   -1    0    0    0    0 -0.00000000000E+00 -0.00000000000E+00 -0.45593999997E+02  0.45594000000E+02  0.51100000000E-03 0. -1.
    9900012    2    1    2    0    0 -0.35644657551E+01 -0.41791721603E+01 -0.43051740681E+02  0.47787271070E+02  0.20000000114E+02 0.  0.
        -12    1    1    2    0    0  0.35644657551E+01  0.41791721603E+01  0.43051740681E+02  0.43400728930E+02  0.00000000000E+00 0.  1.
         11    1    3    3    0    0  0.30653193466E+01  0.35825851056E+01 -0.14054724719E+02  0.14824519754E+02  0.51100000000E-03 0. -1.
        -11    1    3    3    0    0  0.17543084295E+01 -0.55827559521E+01 -0.18214686532E+02  0.19131637876E+02  0.51100000000E-03 0.  1.
        -12    1    3    3    0    0 -0.83840935313E+01 -0.21790013138E+01 -0.10782329429E+02  0.13831113440E+02  0.00000000000E+00 0.  1.
</event>
<event>
 7    1  0.3910751E-009  0.4778728E+02  0.7816164E-02  0.1312668E+00
        -11   -1    0    0    0    0  0.00000000000E+00  0.00000000000E+00  0.45593999997E+02  0.45594000000E+02  0.51100000000E-03 0. -1.
         11   -1    0    0    0    0 -0.00000000000E+00 -0.00000000000E+00 -0.45593999997E+02  0.45594000000E+02  0.51100000000E-03 0.  1.
    9900012    2    1    2    0    0  0.23489982846E+02  0.24203934212E+02  0.27313234792E+02  0.47787279727E+02  0.20000039585E+02 0.  0.
        -12    1    1    2    0    0 -0.23489982846E+02 -0.24203934212E+02 -0.27313234792E+02  0.43400720273E+02  0.00000000000E+00 0.  1.
         11    1    3    3    0    0  0.14270776748E+02  0.22372306033E+02  0.20404829326E+02  0.33474351470E+02  0.51100000000E-03 0. -1.
        -11    1    3    3    0    0  0.49653676847E+01  0.49842999474E+01  0.26493876447E+01  0.75178040253E+01  0.51100000000E-03 0.  1.
        -12    1    3    3    0    0  0.42538384130E+01 -0.31526717680E+01  0.42590178214E+01  0.67951242317E+01  0.00000000000E+00 0.  1.
</event>
<event>
 7    1  0.3910751E-009  0.4778727E+02  0.7816164E-02  0.1312668E+00
        -11   -1    0    0    0    0  0.00000000000E+00  0.00000000000E+00  0.45593999997E+02  0.45594000000E+02  0.51100000000E-03 0.  1.
         11   -1    0    0    0    0 -0.00000000000E+00 -0.00000000000E+00 -0.45593999997E+02  0.45594000000E+02  0.51100000000E-03 0. -1.
    9900012    2    1    2    0    0  0.11679340983E+02  0.60661563344E+01 -0.41357196814E+02  0.47787274352E+02  0.20000015081E+02 0.  0.
        -12    1    1    2    0    0 -0.11679340983E+02 -0.60661563344E+01  0.41357196814E+02  0.43400725648E+02  0.00000000000E+00 0.  1.
         11    1    3    3    0    0  0.34285069363E+01  0.52575091854E+00 -0.22440116501E+02  0.22706604825E+02  0.51100000000E-03 0. -1.
        -11    1    3    3    0    0 -0.22009841446E+01  0.25885389065E+01 -0.11339965357E+02  0.11838060628E+02  0.51100000000E-03 0.  1.
         12    1    3    3    0    0  0.10451818192E+02  0.29518665093E+01 -0.75771149560E+01  0.13242608899E+02  0.00000000000E+00 0. -1.
</event>
<event>
 7    1  0.3910751E-009  0.4778727E+02  0.7816164E-02  0.1312668E+00
        -11   -1    0    0    0    0  0.00000000000E+00  0.00000000000E+00  0.45593999997E+02  0.45594000000E+02  0.51100000000E-03 0. -1.
         11   -1    0    0    0    0 -0.00000000000E+00 -0.00000000000E+00 -0.45593999997E+02  0.45594000000E+02  0.51100000000E-03 0.  1.
    9900012    2    1    2    0    0  0.29495050387E+02 -0.31043404365E+02  0.70691254074E+01  0.47787268602E+02  0.19999988864E+02 0.  0.
        -12    1    1    2    0    0 -0.29495050387E+02  0.31043404365E+02 -0.70691254074E+01  0.43400731398E+02  0.00000000000E+00 0.  1.
         11    1    3    3    0    0  0.15963240314E+02 -0.12704910610E+02  0.38712762066E+01  0.20765995634E+02  0.51100000000E-03 0.  1.
        -11    1    3    3    0    0  0.75444025469E+01 -0.18162284467E+02  0.57796496767E+01  0.20498559400E+02  0.51100000000E-03 0. -1.
        -12    1    3    3    0    0  0.59874075256E+01 -0.17620928755E+00 -0.25818004759E+01  0.65227135678E+01  0.00000000000E+00 0.  1.
</event>
<event>
 7    1  0.3910751E-009  0.4778728E+02  0.7816164E-02  0.1312668E+00
        -11   -1    0    0    0    0  0.00000000000E+00  0.00000000000E+00  0.45593999997E+02  0.45594000000E+02  0.51100000000E-03 0.  1.
         11   -1    0    0    0    0 -0.00000000000E+00 -0.00000000000E+00 -0.45593999997E+02  0.45594000000E+02  0.51100000000E-03 0. -1.
    9900012    2    1    2    0    0  0.16539582718E+02  0.21662688738E+02 -0.33775624501E+02  0.47787277768E+02  0.20000030655E+02 0.  0.
        -12    1    1    2    0    0 -0.16539582718E+02 -0.21662688738E+02  0.33775624501E+02  0.43400722232E+02  0.00000000000E+00 0.  1.
         11    1    3    3    0    0  0.14838339700E+01  0.30555314982E+01 -0.23719601022E+01  0.41429736875E+01  0.51100000000E-03 0. -1.
        -11    1    3    3    0    0  0.87875322637E+01  0.21628034696E+02 -0.24546849794E+02  0.33875366317E+02  0.51100000000E-03 0.  1.
        -12    1    3    3    0    0  0.62682164838E+01 -0.30208774559E+01 -0.68568146053E+01  0.97689377633E+01  0.00000000000E+00 0.  1.
</event>
<event>
 7    1  0.3910751E-009  0.4778726E+02  0.7816164E-02  0.1312668E+00
        -11   -1    0    0    0    0  0.00000000000E+00  0.00000000000E+00  0.45593999997E+02  0.45594000000E+02  0.51100000000E-03 0.  1.
         11   -1    0    0    0    0 -0.00000000000E+00 -0.00000000000E+00 -0.45593999997E+02  0.45594000000E+02  0.51100000000E-03 0. -1.
    9900012    2    1    2    0    0 -0.20387464472E+02 -0.24834661082E+02 -0.29175587744E+02  0.47787262462E+02  0.19999960869E+02 0.  0.
        -12    1    1    2    0    0  0.20387464472E+02  0.24834661082E+02  0.29175587744E+02  0.43400737538E+02  0.00000000000E+00 0.  1.
         11    1    3    3    0    0 -0.21793023489E+01 -0.14994805820E+02 -0.56259756511E+01  0.16163080232E+02  0.51100000000E-03 0. -1.
        -11    1    3    3    0    0 -0.15903505527E+01 -0.55329167955E+00 -0.39864875085E+01  0.43275200150E+01  0.51100000000E-03 0.  1.
         12    1    3    3    0    0 -0.16617811570E+02 -0.92865635819E+01 -0.19563124585E+02  0.27296662215E+02  0.00000000000E+00 0. -1.
</event>
<event>
 7    1  0.3910751E-009  0.4778725E+02  0.7816164E-02  0.1312668E+00
        -11   -1    0    0    0    0  0.00000000000E+00  0.00000000000E+00  0.45593999997E+02  0.45594000000E+02  0.51100000000E-03 0.  1.
         11   -1    0    0    0    0 -0.00000000000E+00 -0.00000000000E+00 -0.45593999997E+02  0.45594000000E+02  0.51100000000E-03 0. -1.
    9900012    2    1    2    0    0 -0.16080854297E+02  0.18273568841E+02 -0.35931985796E+02  0.47787253505E+02  0.19999920029E+02 0.  0.
        -12    1    1    2    0    0  0.16080854297E+02 -0.18273568841E+02  0.35931985796E+02  0.43400746495E+02  0.00000000000E+00 0.  1.
         11    1    3    3    0    0 -0.97416867705E+00  0.34629119962E+01 -0.13976677701E+01  0.38593055802E+01  0.51100000000E-03 0. -1.
        -11    1    3    3    0    0 -0.31323604932E+00  0.11114486963E+02 -0.95453639390E+01  0.14654143109E+02  0.51100000000E-03 0.  1.
         12    1    3    3    0    0 -0.14793449571E+02  0.36961698817E+01 -0.24988954087E+02  0.29273804815E+02  0.00000000000E+00 0. -1.
</event>
<event>
 7    1  0.3910751E-009  0.4778727E+02  0.7816164E-02  0.1312668E+00
        -11   -1    0    0    0    0  0.00000000000E+00  0.00000000000E+00  0.45593999997E+02  0.45594000000E+02  0.51100000000E-03 0.  1.
         11   -1    0    0    0    0 -0.00000000000E+00 -0.00000000000E+00 -0.45593999997E+02  0.45594000000E+02  0.51100000000E-03 0. -1.
    9900012    2    1    2    0    0  0.17425977301E+02 -0.83648863499E+01 -0.38858556551E+02  0.47787269294E+02  0.19999992019E+02 0.  0.
        -12    1    1    2    0    0 -0.17425977301E+02  0.83648863499E+01  0.38858556551E+02  0.43400730706E+02  0.00000000000E+00 0.  1.
         11    1    3    3    0    0  0.11843110272E+02 -0.91428249895E+01 -0.23123736281E+02  0.27541926032E+02  0.51100000000E-03 0. -1.
        -11    1    3    3    0    0 -0.79023249873E+00 -0.41606275225E+01 -0.30653215306E+01  0.52279522885E+01  0.51100000000E-03 0.  1.
         12    1    3    3    0    0  0.63730995286E+01  0.49385661622E+01 -0.12669498740E+02  0.15017390973E+02  0.00000000000E+00 0. -1.
</event>
<event>
 7    1  0.3910751E-009  0.4778728E+02  0.7816164E-02  0.1312668E+00
        -11   -1    0    0    0    0  0.00000000000E+00  0.00000000000E+00  0.45593999997E+02  0.45594000000E+02  0.51100000000E-03 0. -1.
         11   -1    0    0    0    0 -0.00000000000E+00 -0.00000000000E+00 -0.45593999997E+02  0.45594000000E+02  0.51100000000E-03 0.  1.
    9900012    2    1    2    0    0  0.11116980506E+02  0.30075306028E+02  0.29249128617E+02  0.47787276353E+02  0.20000024203E+02 0.  0.
        -12    1    1    2    0    0 -0.11116980506E+02 -0.30075306028E+02 -0.29249128617E+02  0.43400723647E+02  0.00000000000E+00 0.  1.
         11    1    3    3    0    0  0.72466918046E+01  0.22345711015E+02  0.21316448974E+02  0.31721228539E+02  0.51100000000E-03 0. -1.
        -11    1    3    3    0    0 -0.22546299976E+00  0.36973444661E+01  0.94259666900E+01  0.10127686704E+02  0.51100000000E-03 0.  1.
        -12    1    3    3    0    0  0.40957517015E+01  0.40322505470E+01 -0.14932870474E+01  0.59383611106E+01  0.00000000000E+00 0.  1.
</event>
<event>
 7    1  0.3910751E-009  0.4778727E+02  0.7816164E-02  0.1312668E+00
        -11   -1    0    0    0    0  0.00000000000E+00  0.00000000000E+00  0.45593999997E+02  0.45594000000E+02  0.51100000000E-03 0.  1.
         11   -1    0    0    0    0 -0.00000000000E+00 -0.00000000000E+00 -0.45593999997E+02  0.45594000000E+02  0.51100000000E-03 0. -1.
    9900012    2    1    2    0    0 -0.41215689763E+02  0.12843528670E+02  0.44647346383E+01  0.47787272279E+02  0.20000005627E+02 0.  0.
        -12    1    1    2    0    0  0.41215689763E+02 -0.12843528670E+02 -0.44647346383E+01  0.43400727721E+02  0.00000000000E+00 0.  1.
         11    1    3    3    0    0 -0.97274781683E+01 -0.34882362312E+01  0.30781107610E+00  0.10338586530E+02  0.51100000000E-03 0. -1.
        -11    1    3    3    0    0 -0.23626400588E+01 -0.17242059306E+01 -0.33815762804E-01  0.29250808374E+01  0.51100000000E-03 0.  1.
        -12    1    3    3    0    0 -0.29125571536E+02  0.18055970831E+02  0.41907393250E+01  0.34523604911E+02  0.00000000000E+00 0.  1.
</event>
<event>
 7    1  0.3910751E-009  0.4778727E+02  0.7816164E-02  0.1312668E+00
        -11   -1    0    0    0    0  0.00000000000E+00  0.00000000000E+00  0.45593999997E+02  0.45594000000E+02  0.51100000000E-03 0.  1.
         11   -1    0    0    0    0 -0.00000000000E+00 -0.00000000000E+00 -0.45593999997E+02  0.45594000000E+02  0.51100000000E-03 0. -1.
    9900012    2    1    2    0    0 -0.42577884434E+02 -0.26914544438E+00 -0.84068161421E+01  0.47787271437E+02  0.20000001792E+02 0.  0.
        -12    1    1    2    0    0  0.42577884434E+02  0.26914544438E+00  0.84068161421E+01  0.43400728563E+02  0.00000000000E+00 0.  1.
         11    1    3    3    0    0 -0.16057254009E+02  0.63992252567E+01 -0.87673428456E+01  0.19381738597E+02  0.51100000000E-03 0. -1.
        -11    1    3    3    0    0 -0.83523333623E+01 -0.10124152695E+01  0.35137448407E+01  0.91177223219E+01  0.51100000000E-03 0.  1.
        -12    1    3    3    0    0 -0.18168297062E+02 -0.56559554316E+01 -0.31532181372E+01  0.19287810519E+02  0.00000000000E+00 0.  1.
</event>
<event>
 7    1  0.3910751E-009  0.4778727E+02  0.7816164E-02  0.1312668E+00
        -11   -1    0    0    0    0  0.00000000000E+00  0.00000000000E+00  0.45593999997E+02  0.45594000000E+02  0.51100000000E-03 0.  1.
         11   -1    0    0    0    0 -0.00000000000E+00 -0.00000000000E+00 -0.45593999997E+02  0.45594000000E+02  0.51100000000E-03 0. -1.
    9900012    2    1    2    0    0  0.47000080050E+01  0.41744265139E+02  0.10906407787E+02  0.47787268692E+02  0.19999989274E+02 0.  0.
        -12    1    1    2    0    0 -0.47000080050E+01 -0.41744265139E+02 -0.10906407787E+02  0.43400731308E+02  0.00000000000E+00 0.  1.
         11    1    3    3    0    0  0.10354895080E+01  0.16153404982E+02  0.50775633513E+01  0.16964267768E+02  0.51100000000E-03 0. -1.
        -11    1    3    3    0    0  0.82828885423E+01  0.10004351251E+02  0.65587661816E+01  0.14550281806E+02  0.51100000000E-03 0.  1.
         12    1    3    3    0    0 -0.46183700453E+01  0.15586508906E+02 -0.72992174536E+00  0.16272719118E+02  0.00000000000E+00 0. -1.
</event>
<event>
 7    1  0.3910751E-009  0.4778727E+02  0.7816164E-02  0.1312668E+00
        -11   -1    0    0    0    0  0.00000000000E+00  0.00000000000E+00  0.45593999997E+02  0.45594000000E+02  0.51100000000E-03 0.  1.
         11   -1    0    0    0    0 -0.00000000000E+00 -0.00000000000E+00 -0.45593999997E+02  0.45594000000E+02  0.51100000000E-03 0. -1.
    9900012    2    1    2    0    0  0.11177729795E+02 -0.34939764511E+02 -0.23192549256E+02  0.47787272720E+02  0.20000007641E+02 0.  0.
        -12    1    1    2    0    0 -0.11177729795E+02  0.34939764511E+02  0.23192549256E+02  0.43400727280E+02  0.00000000000E+00 0.  1.
         11    1    3    3    0    0  0.22476862042E+01 -0.34510312751E+01 -0.68354568155E+01  0.79802995102E+01  0.51100000000E-03 0. -1.
        -11    1    3    3    0    0  0.37371552416E+00 -0.15459705428E+02 -0.15068278497E+02  0.21591553264E+02  0.51100000000E-03 0.  1.
         12    1    3    3    0    0  0.85563280666E+01 -0.16029027807E+02 -0.12888139429E+01  0.18215419946E+02  0.00000000000E+00 0. -1.
</event>
<event>
 7    1  0.3910751E-009  0.4778727E+02  0.7816164E-02  0.1312668E+00
        -11   -1    0    0    0    0  0.00000000000E+00  0.00000000000E+00  0.45593999997E+02  0.45594000000E+02  0.51100000000E-03 0.  1.
         11   -1    0    0    0    0 -0.00000000000E+00 -0.00000000000E+00 -0.45593999997E+02  0.45594000000E+02  0.51100000000E-03 0. -1.
    9900012    2    1    2    0    0 -0.20432042855E+02 -0.85976368650E+01 -0.37312679276E+02  0.47787265332E+02  0.19999973957E+02 0.  0.
        -12    1    1    2    0    0  0.20432042855E+02  0.85976368650E+01  0.37312679276E+02  0.43400734668E+02  0.00000000000E+00 0.  1.
         11    1    3    3    0    0 -0.60385645895E+01 -0.68928740385E+01 -0.13863650014E+02  0.16618566930E+02  0.51100000000E-03 0. -1.
        -11    1    3    3    0    0 -0.15595889998E+02 -0.16972334860E+01 -0.24809237271E+02  0.29353204945E+02  0.51100000000E-03 0.  1.
        -12    1    3    3    0    0  0.12024117324E+01 -0.75293404724E-02  0.13602080092E+01  0.18154934573E+01  0.00000000000E+00 0.  1.
</event>
<event>
 7    1  0.3910751E-009  0.4778727E+02  0.7816164E-02  0.1312668E+00
        -11   -1    0    0    0    0  0.00000000000E+00  0.00000000000E+00  0.45593999997E+02  0.45594000000E+02  0.51100000000E-03 0. -1.
         11   -1    0    0    0    0 -0.00000000000E+00 -0.00000000000E+00 -0.45593999997E+02  0.45594000000E+02  0.51100000000E-03 0.  1.
    9900012    2    1    2    0    0 -0.12069133058E+02 -0.21467688419E+02  0.35736508361E+02  0.47787266727E+02  0.19999980314E+02 0.  0.
        -12    1    1    2    0    0  0.12069133058E+02  0.21467688419E+02 -0.35736508361E+02  0.43400733273E+02  0.00000000000E+00 0.  1.
         11    1    3    3    0    0 -0.21504890793E+01 -0.14277280767E+02  0.14290475535E+02  0.20314601661E+02  0.51100000000E-03 0. -1.
        -11    1    3    3    0    0 -0.76827292885E+01 -0.10530341914E+02  0.14959682519E+02  0.19841989101E+02  0.51100000000E-03 0.  1.
        -12    1    3    3    0    0 -0.22359146906E+01  0.33399342618E+01  0.64863503065E+01  0.76306759645E+01  0.00000000000E+00 0.  1.
</event>
<event>
 7    1  0.3910751E-009  0.4778727E+02  0.7816164E-02  0.1312668E+00
        -11   -1    0    0    0    0  0.00000000000E+00  0.00000000000E+00  0.45593999997E+02  0.45594000000E+02  0.51100000000E-03 0. -1.
         11   -1    0    0    0    0 -0.00000000000E+00 -0.00000000000E+00 -0.45593999997E+02  0.45594000000E+02  0.51100000000E-03 0.  1.
    9900012    2    1    2    0    0 -0.20839854925E+02  0.55882025076E+01  0.37657611510E+02  0.47787271145E+02  0.20000000457E+02 0.  0.
        -12    1    1    2    0    0  0.20839854925E+02 -0.55882025076E+01 -0.37657611510E+02  0.43400728855E+02  0.00000000000E+00 0.  1.
         11    1    3    3    0    0 -0.13697900307E-01  0.53447870800E+01  0.72687785983E+01  0.90223100776E+01  0.51100000000E-03 0.  1.
        -11    1    3    3    0    0 -0.64684044289E+01  0.51788994074E+01  0.15065729971E+02  0.17194111630E+02  0.51100000000E-03 0. -1.
        -12    1    3    3    0    0 -0.14357752595E+02 -0.49354839799E+01  0.15323102941E+02  0.21570849437E+02  0.00000000000E+00 0.  1.
</event>
<event>
 7    1  0.3910751E-009  0.4778728E+02  0.7816164E-02  0.1312668E+00
        -11   -1    0    0    0    0  0.00000000000E+00  0.00000000000E+00  0.45593999997E+02  0.45594000000E+02  0.51100000000E-03 0.  1.
         11   -1    0    0    0    0 -0.00000000000E+00 -0.00000000000E+00 -0.45593999997E+02  0.45594000000E+02  0.51100000000E-03 0. -1.
    9900012    2    1    2    0    0  0.75461782270E+01  0.28011299974E+02 -0.32280717545E+02  0.47787280452E+02  0.20000042893E+02 0.  0.
        -12    1    1    2    0    0 -0.75461782270E+01 -0.28011299974E+02  0.32280717545E+02  0.43400719548E+02  0.00000000000E+00 0.  1.
         11    1    3    3    0    0  0.57846854007E+01  0.24055743038E+02 -0.26001777433E+02  0.35891973869E+02  0.51100000000E-03 0. -1.
        -11    1    3    3    0    0  0.44712214938E+01  0.31376514768E+01 -0.70907416665E+01  0.89507148362E+01  0.51100000000E-03 0.  1.
        -12    1    3    3    0    0 -0.27097286675E+01  0.81790545893E+00  0.81180155419E+00  0.29445917467E+01  0.00000000000E+00 0.  1.
</event>
<event>
 7    1  0.6072156E-009  0.4778727E+02  0.7816164E-02  0.1312668E+00
        -11   -1    0    0    0    0  0.00000000000E+00  0.00000000000E+00  0.45593999997E+02  0.45594000000E+02  0.51100000000E-03 0.  1.
         11   -1    0    0    0    0 -0.00000000000E+00 -0.00000000000E+00 -0.45593999997E+02  0.45594000000E+02  0.51100000000E-03 0. -1.
    9900012    2    1    2    0    0  0.38834909321E+02 -0.18100769996E+02 -0.69163068560E+01  0.47787270087E+02  0.19999995636E+02 0.  0.
        -12    1    1    2    0    0 -0.38834909321E+02  0.18100769996E+02  0.69163068560E+01  0.43400729913E+02  0.00000000000E+00 0.  1.
         11    1    3    3    0    0  0.16770674553E+02 -0.12057540002E+02 -0.29496766872E+01  0.20864812213E+02  0.51100000000E-03 0. -1.
        -11    1    3    3    0    0  0.20763663129E+02 -0.46146377419E+01 -0.77793239354E+01  0.22648233247E+02  0.51100000000E-03 0.  1.
        -12    1    3    3    0    0  0.13005716391E+01 -0.14285922519E+01  0.38126937666E+01  0.42742246277E+01  0.00000000000E+00 0.  1.
</event>
<event>
 7    1  0.3910751E-009  0.4778726E+02  0.7816164E-02  0.1312668E+00
        -11   -1    0    0    0    0  0.00000000000E+00  0.00000000000E+00  0.45593999997E+02  0.45594000000E+02  0.51100000000E-03 0.  1.
         11   -1    0    0    0    0 -0.00000000000E+00 -0.00000000000E+00 -0.45593999997E+02  0.45594000000E+02  0.51100000000E-03 0. -1.
    9900012    2    1    2    0    0  0.42356148395E+02 -0.33120829809E+01 -0.88662881083E+01  0.47787259622E+02  0.19999947922E+02 0.  0.
        -12    1    1    2    0    0 -0.42356148395E+02  0.33120829809E+01  0.88662881083E+01  0.43400740378E+02  0.00000000000E+00 0.  1.
         11    1    3    3    0    0  0.89992906056E+01 -0.24120330847E+00 -0.47704980828E+01  0.10188378804E+02  0.51100000000E-03 0. -1.
        -11    1    3    3    0    0  0.28955406202E+02  0.17874668015E+01  0.14000903060E+01  0.29044290988E+02  0.51100000000E-03 0.  1.
         12    1    3    3    0    0  0.44014515871E+01 -0.48583464740E+01 -0.54958803316E+01  0.85545898297E+01  0.00000000000E+00 0. -1.
</event>
<event>
 7    1  0.3910751E-009  0.4778725E+02  0.7816164E-02  0.1312668E+00
        -11   -1    0    0    0    0  0.00000000000E+00  0.00000000000E+00  0.45593999997E+02  0.45594000000E+02  0.51100000000E-03 0. -1.
         11   -1    0    0    0    0 -0.00000000000E+00 -0.00000000000E+00 -0.45593999997E+02  0.45594000000E+02  0.51100000000E-03 0.  1.
    9900012    2    1    2    0    0  0.41970118158E+02  0.97664532140E+01 -0.51721259922E+01  0.47787247542E+02  0.19999892844E+02 0.  0.
        -12    1    1    2    0    0 -0.41970118158E+02 -0.97664532140E+01  0.51721259922E+01  0.43400752458E+02  0.00000000000E+00 0.  1.
         11    1    3    3    0    0  0.87171718780E+01  0.49403886045E+01  0.63681259138E-01  0.10020009016E+02  0.51100000000E-03 0. -1.
        -11    1    3    3    0    0  0.33296183703E+02  0.85504182933E+00 -0.56179736133E+01  0.33777634220E+02  0.51100000000E-03 0.  1.
        -12    1    3    3    0    0 -0.43237422514E-01  0.39710227801E+01  0.38216636198E+00  0.39896043066E+01  0.00000000000E+00 0.  1.
</event>
<event>
 7    1  0.3910751E-009  0.4778727E+02  0.7816164E-02  0.1312668E+00
        -11   -1    0    0    0    0  0.00000000000E+00  0.00000000000E+00  0.45593999997E+02  0.45594000000E+02  0.51100000000E-03 0.  1.
         11   -1    0    0    0    0 -0.00000000000E+00 -0.00000000000E+00 -0.45593999997E+02  0.45594000000E+02  0.51100000000E-03 0. -1.
    9900012    2    1    2    0    0 -0.28008697543E+02  0.30590433175E+02  0.12781289087E+02  0.47787273156E+02  0.20000009626E+02 0.  0.
        -12    1    1    2    0    0  0.28008697543E+02 -0.30590433175E+02 -0.12781289087E+02  0.43400726844E+02  0.00000000000E+00 0.  1.
         11    1    3    3    0    0 -0.88165052430E+01  0.13119693317E+02  0.66712177941E+00  0.15820940843E+02  0.51100000000E-03 0. -1.
        -11    1    3    3    0    0 -0.18559811540E+02  0.19718669410E+02  0.10164359095E+02  0.28924154677E+02  0.51100000000E-03 0.  1.
         12    1    3    3    0    0 -0.63238076002E+00 -0.22479295526E+01  0.19498082128E+01  0.30421776355E+01  0.00000000000E+00 0. -1.
</event>
<event>
 7    1  0.3910751E-009  0.4778727E+02  0.7816164E-02  0.1312668E+00
        -11   -1    0    0    0    0  0.00000000000E+00  0.00000000000E+00  0.45593999997E+02  0.45594000000E+02  0.51100000000E-03 0. -1.
         11   -1    0    0    0    0 -0.00000000000E+00 -0.00000000000E+00 -0.45593999997E+02  0.45594000000E+02  0.51100000000E-03 0.  1.
    9900012    2    1    2    0    0 -0.73758468970E+01  0.23946076342E+02  0.35437346640E+02  0.47787271590E+02  0.20000002489E+02 0.  0.
        -12    1    1    2    0    0  0.73758468970E+01 -0.23946076342E+02 -0.35437346640E+02  0.43400728410E+02  0.00000000000E+00 0.  1.
         11    1    3    3    0    0 -0.14557161059E+01  0.24791510743E+01 -0.14137807659E+01  0.32037596267E+01  0.51100000000E-03 0. -1.
        -11    1    3    3    0    0  0.18791074679E+01 -0.26226968919E+00  0.18195202096E+01  0.26287800060E+01  0.51100000000E-03 0.  1.
         12    1    3    3    0    0 -0.77992382590E+01  0.21729194957E+02  0.35031607196E+02  0.41954731958E+02  0.00000000000E+00 0. -1.
</event>
<event>
 7    1  0.3910751E-009  0.4778727E+02  0.7816164E-02  0.1312668E+00
        -11   -1    0    0    0    0  0.00000000000E+00  0.00000000000E+00  0.45593999997E+02  0.45594000000E+02  0.51100000000E-03 0.  1.
         11   -1    0    0    0    0 -0.00000000000E+00 -0.00000000000E+00 -0.45593999997E+02  0.45594000000E+02  0.51100000000E-03 0. -1.
    9900012    2    1    2    0    0  0.28943818666E+02 -0.15165347532E+02 -0.28563805007E+02  0.47787270038E+02  0.19999995409E+02 0.  0.
        -12    1    1    2    0    0 -0.28943818666E+02  0.15165347532E+02  0.28563805007E+02  0.43400729962E+02  0.00000000000E+00 0.  1.
         11    1    3    3    0    0 -0.36531492079E+00  0.14338137940E+01 -0.15856916346E+00  0.14880932188E+01  0.51100000000E-03 0.  1.
        -11    1    3    3    0    0 -0.78826010356E-01 -0.37748232138E+01 -0.63304101475E+01  0.73708613290E+01  0.51100000000E-03 0. -1.
        -12    1    3    3    0    0  0.29387959598E+02 -0.12824338112E+02 -0.22074825697E+02  0.38928315490E+02  0.00000000000E+00 0.  1.
</event>
<event>
 7    1  0.3910751E-009  0.4778727E+02  0.7816164E-02  0.1312668E+00
        -11   -1    0    0    0    0  0.00000000000E+00  0.00000000000E+00  0.45593999997E+02  0.45594000000E+02  0.51100000000E-03 0.  1.
         11   -1    0    0    0    0 -0.00000000000E+00 -0.00000000000E+00 -0.45593999997E+02  0.45594000000E+02  0.51100000000E-03 0. -1.
    9900012    2    1    2    0    0 -0.30433995188E+02  0.67637488662E+01 -0.30193493734E+02  0.47787269296E+02  0.19999992026E+02 0.  0.
        -12    1    1    2    0    0  0.30433995188E+02 -0.67637488662E+01  0.30193493734E+02  0.43400730704E+02  0.00000000000E+00 0.  1.
         11    1    3    3    0    0 -0.59050274138E+01  0.43038336681E+00 -0.11675006829E+02  0.13090468415E+02  0.51100000000E-03 0. -1.
        -11    1    3    3    0    0  0.17441337061E+01  0.85165537409E+00 -0.33404617691E+01  0.38634187390E+01  0.51100000000E-03 0.  1.
        -12    1    3    3    0    0 -0.26273101480E+02  0.54817101253E+01 -0.15178025136E+02  0.30833382142E+02  0.00000000000E+00 0.  1.
</event>
<event>
 7    1  0.3910751E-009  0.4778727E+02  0.7816164E-02  0.1312668E+00
        -11   -1    0    0    0    0  0.00000000000E+00  0.00000000000E+00  0.45593999997E+02  0.45594000000E+02  0.51100000000E-03 0.  1.
         11   -1    0    0    0    0 -0.00000000000E+00 -0.00000000000E+00 -0.45593999997E+02  0.45594000000E+02  0.51100000000E-03 0. -1.
    9900012    2    1    2    0    0  0.35979071388E+02 -0.23512804137E+02 -0.60231206418E+01  0.47787268225E+02  0.19999987146E+02 0.  0.
        -12    1    1    2    0    0 -0.35979071388E+02  0.23512804137E+02  0.60231206418E+01  0.43400731775E+02  0.00000000000E+00 0.  1.
         11    1    3    3    0    0  0.14888623673E+02 -0.16995431402E+01 -0.70673704136E+01  0.16568261423E+02  0.51100000000E-03 0. -1.
        -11    1    3    3    0    0  0.90945994193E+01 -0.58146768306E+01 -0.20416328113E+01  0.10985921447E+02  0.51100000000E-03 0.  1.
        -12    1    3    3    0    0  0.11995848295E+02 -0.15998584166E+02  0.30858825831E+01  0.20233085355E+02  0.00000000000E+00 0.  1.
</event>
<event>
 7    1  0.3910751E-009  0.4778728E+02  0.7816164E-02  0.1312668E+00
        -11   -1    0    0    0    0  0.00000000000E+00  0.00000000000E+00  0.45593999997E+02  0.45594000000E+02  0.51100000000E-03 0.  1.
         11   -1    0    0    0    0 -0.00000000000E+00 -0.00000000000E+00 -0.45593999997E+02  0.45594000000E+02  0.51100000000E-03 0. -1.
    9900012    2    1    2    0    0 -0.39402834528E+02  0.62718835471E+01 -0.17079303447E+02  0.47787279979E+02  0.20000040738E+02 0.  0.
        -12    1    1    2    0    0  0.39402834528E+02 -0.62718835471E+01  0.17079303447E+02  0.43400720021E+02  0.00000000000E+00 0.  1.
         11    1    3    3    0    0 -0.14333666557E+02  0.73802278421E+00 -0.76762305361E+01  0.16276461228E+02  0.51100000000E-03 0. -1.
        -11    1    3    3    0    0 -0.23599644224E+02  0.24965157630E+01 -0.25446931823E+01  0.23867368144E+02  0.51100000000E-03 0.  1.
        -12    1    3    3    0    0 -0.14695237472E+01  0.30373449998E+01 -0.68583797289E+01  0.76434506080E+01  0.00000000000E+00 0.  1.
</event>
<event>
 7    1  0.3910751E-009  0.4778727E+02  0.7816164E-02  0.1312668E+00
        -11   -1    0    0    0    0  0.00000000000E+00  0.00000000000E+00  0.45593999997E+02  0.45594000000E+02  0.51100000000E-03 0. -1.
         11   -1    0    0    0    0 -0.00000000000E+00 -0.00000000000E+00 -0.45593999997E+02  0.45594000000E+02  0.51100000000E-03 0.  1.
    9900012    2    1    2    0    0 -0.37454201362E+02  0.81867376565E+01  0.20341666420E+02  0.47787271137E+02  0.20000000420E+02 0.  0.
        -12    1    1    2    0    0  0.37454201362E+02 -0.81867376565E+01 -0.20341666420E+02  0.43400728863E+02  0.00000000000E+00 0.  1.
         11    1    3    3    0    0 -0.16995683768E+02  0.40647787739E+01  0.10645224515E+02  0.20462074637E+02  0.51100000000E-03 0. -1.
        -11    1    3    3    0    0 -0.12250894660E+02  0.96260567501E+01  0.70071989091E+01  0.17083507407E+02  0.51100000000E-03 0.  1.
        -12    1    3    3    0    0 -0.82076229343E+01 -0.55040978675E+01  0.26892429961E+01  0.10241689092E+02  0.00000000000E+00 0.  1.
</event>
<event>
 7    1  0.3910751E-009  0.4778727E+02  0.7816164E-02  0.1312668E+00
        -11   -1    0    0    0    0  0.00000000000E+00  0.00000000000E+00  0.45593999997E+02  0.45594000000E+02  0.51100000000E-03 0.  1.
         11   -1    0    0    0    0 -0.00000000000E+00 -0.00000000000E+00 -0.45593999997E+02  0.45594000000E+02  0.51100000000E-03 0. -1.
    9900012    2    1    2    0    0  0.14415892599E+02 -0.23581930514E+02 -0.33461883644E+02  0.47787273472E+02  0.20000011066E+02 0.  0.
        -12    1    1    2    0    0 -0.14415892599E+02  0.23581930514E+02  0.33461883644E+02  0.43400726528E+02  0.00000000000E+00 0.  1.
         11    1    3    3    0    0  0.14453806596E+02 -0.12890627698E+02 -0.16531870974E+02  0.25463376950E+02  0.51100000000E-03 0. -1.
        -11    1    3    3    0    0  0.45463788212E+01 -0.35242422323E+01 -0.90743299859E+01  0.10743989420E+02  0.51100000000E-03 0.  1.
        -12    1    3    3    0    0 -0.45842928176E+01 -0.71670605842E+01 -0.78556826833E+01  0.11579907101E+02  0.00000000000E+00 0.  1.
</event>
<event>
 7    1  0.3910751E-009  0.4778726E+02  0.7816164E-02  0.1312668E+00
        -11   -1    0    0    0    0  0.00000000000E+00  0.00000000000E+00  0.45593999997E+02  0.45594000000E+02  0.51100000000E-03 0.  1.
         11   -1    0    0    0    0 -0.00000000000E+00 -0.00000000000E+00 -0.45593999997E+02  0.45594000000E+02  0.51100000000E-03 0. -1.
    9900012    2    1    2    0    0  0.28741293879E+02  0.72627923204E+01 -0.31698801079E+02  0.47787261343E+02  0.19999955768E+02 0.  0.
        -12    1    1    2    0    0 -0.28741293879E+02 -0.72627923204E+01  0.31698801079E+02  0.43400738657E+02  0.00000000000E+00 0.  1.
         11    1    3    3    0    0  0.35737123925E+01 -0.35402645109E+01 -0.26565958597E+01  0.56887955575E+01  0.51100000000E-03 0. -1.
        -11    1    3    3    0    0  0.14960273888E+01 -0.15902739744E+01  0.52621616180E+00  0.22458791090E+01  0.51100000000E-03 0.  1.
         12    1    3    3    0    0  0.23671554098E+02  0.12393330806E+02 -0.29568421381E+02  0.39852586677E+02  0.00000000000E+00 0. -1.
</event>
<event>
 7    1  0.3910751E-009  0.4778730E+02  0.7816164E-02  0.1312668E+00
        -11   -1    0    0    0    0  0.00000000000E+00  0.00000000000E+00  0.45593999997E+02  0.45594000000E+02  0.51100000000E-03 0.  1.
         11   -1    0    0    0    0 -0.00000000000E+00 -0.00000000000E+00 -0.45593999997E+02  0.45594000000E+02  0.51100000000E-03 0. -1.
    9900012    2    1    2    0    0  0.23124544432E+02 -0.13930023779E+02 -0.33982793704E+02  0.47787304319E+02  0.20000151710E+02 0.  0.
        -12    1    1    2    0    0 -0.23124544432E+02  0.13930023779E+02  0.33982793704E+02  0.43400695681E+02  0.00000000000E+00 0.  1.
         11    1    3    3    0    0  0.20898017279E+02 -0.15727033085E+02 -0.25559780661E+02  0.36570057199E+02  0.51100000000E-03 0. -1.
        -11    1    3    3    0    0  0.44913174805E+01  0.95282028229E+00 -0.36433466018E+01  0.58612092543E+01  0.51100000000E-03 0.  1.
         12    1    3    3    0    0 -0.22647903266E+01  0.84418902343E+00 -0.47796664409E+01  0.53560378656E+01  0.00000000000E+00 0. -1.
</event>
<event>
 7    1  0.3910751E-009  0.4778727E+02  0.7816164E-02  0.1312668E+00
        -11   -1    0    0    0    0  0.00000000000E+00  0.00000000000E+00  0.45593999997E+02  0.45594000000E+02  0.51100000000E-03 0.  1.
         11   -1    0    0    0    0 -0.00000000000E+00 -0.00000000000E+00 -0.45593999997E+02  0.45594000000E+02  0.51100000000E-03 0. -1.
    9900012    2    1    2    0    0  0.38701092741E+02  0.11728855659E+01 -0.19607987499E+02  0.47787269434E+02  0.19999992658E+02 0.  0.
        -12    1    1    2    0    0 -0.38701092741E+02 -0.11728855659E+01  0.19607987499E+02  0.43400730566E+02  0.00000000000E+00 0.  1.
         11    1    3    3    0    0  0.20047384214E+02  0.28615057768E+01 -0.10540906336E+02  0.22829729209E+02  0.51100000000E-03 0. -1.
        -11    1    3    3    0    0  0.14609262905E+02  0.46091002935E+01 -0.83282913480E+01  0.17436593853E+02  0.51100000000E-03 0.  1.
         12    1    3    3    0    0  0.40444456214E+01 -0.62977205044E+01 -0.73878981572E+00  0.75209463719E+01  0.00000000000E+00 0. -1.
</event>
<event>
 7    1  0.3910751E-009  0.4778726E+02  0.7816164E-02  0.1312668E+00
        -11   -1    0    0    0    0  0.00000000000E+00  0.00000000000E+00  0.45593999997E+02  0.45594000000E+02  0.51100000000E-03 0. -1.
         11   -1    0    0    0    0 -0.00000000000E+00 -0.00000000000E+00 -0.45593999997E+02  0.45594000000E+02  0.51100000000E-03 0.  1.
    9900012    2    1    2    0    0 -0.22893911534E+00 -0.31474600507E+02 -0.29881785644E+02  0.47787262639E+02  0.19999961676E+02 0.  0.
        -12    1    1    2    0    0  0.22893911534E+00  0.31474600507E+02  0.29881785644E+02  0.43400737361E+02  0.00000000000E+00 0.  1.
         11    1    3    3    0    0 -0.46181405483E+01 -0.13814466100E+02 -0.10850920731E+02  0.18163402124E+02  0.51100000000E-03 0. -1.
        -11    1    3    3    0    0  0.30915759803E+01 -0.19179172832E+02 -0.13269962862E+02  0.23526377265E+02  0.51100000000E-03 0.  1.
        -12    1    3    3    0    0  0.12976254527E+01  0.15190384246E+01 -0.57609020503E+01  0.60974832500E+01  0.00000000000E+00 0.  1.
</event>
<event>
 7    1  0.3910751E-009  0.4778727E+02  0.7816164E-02  0.1312668E+00
        -11   -1    0    0    0    0  0.00000000000E+00  0.00000000000E+00  0.45593999997E+02  0.45594000000E+02  0.51100000000E-03 0.  1.
         11   -1    0    0    0    0 -0.00000000000E+00 -0.00000000000E+00 -0.45593999997E+02  0.45594000000E+02  0.51100000000E-03 0. -1.
    9900012    2    1    2    0    0  0.15623841458E+01  0.13485773379E+02 -0.41222764527E+02  0.47787269095E+02  0.19999991110E+02 0.  0.
        -12    1    1    2    0    0 -0.15623841458E+01 -0.13485773379E+02  0.41222764527E+02  0.43400730905E+02  0.00000000000E+00 0.  1.
         11    1    3    3    0    0  0.22100464028E+01  0.57227014138E+01 -0.38575719151E+02  0.39060462425E+02  0.51100000000E-03 0. -1.
        -11    1    3    3    0    0 -0.13123264278E+01  0.27371403365E+01 -0.19538586349E+01  0.36099448335E+01  0.51100000000E-03 0.  1.
         12    1    3    3    0    0  0.66466417085E+00  0.50259316286E+01 -0.69318674164E+00  0.51168618365E+01  0.00000000000E+00 0. -1.
</event>
<event>
 7    1  0.3910751E-009  0.4778726E+02  0.7816164E-02  0.1312668E+00
        -11   -1    0    0    0    0  0.00000000000E+00  0.00000000000E+00  0.45593999997E+02  0.45594000000E+02  0.51100000000E-03 0.  1.
         11   -1    0    0    0    0 -0.00000000000E+00 -0.00000000000E+00 -0.45593999997E+02  0.45594000000E+02  0.51100000000E-03 0. -1.
    9900012    2    1    2    0    0 -0.74290781361E+01 -0.14451807641E+02 -0.40243980055E+02  0.47787264100E+02  0.19999968337E+02 0.  0.
        -12    1    1    2    0    0  0.74290781361E+01  0.14451807641E+02  0.40243980055E+02  0.43400735900E+02  0.00000000000E+00 0.  1.
         11    1    3    3    0    0 -0.94682129566E+01 -0.12437702711E+02 -0.30120065253E+02  0.33934670124E+02  0.51100000000E-03 0. -1.
        -11    1    3    3    0    0  0.63733421374E+00 -0.55327887697E+01 -0.69836600560E+01  0.89324943050E+01  0.51100000000E-03 0.  1.
        -12    1    3    3    0    0  0.14018006068E+01  0.35186838396E+01 -0.31402547460E+01  0.49200996712E+01  0.00000000000E+00 0.  1.
</event>
<event>
 7    1  0.3910751E-009  0.4778727E+02  0.7816164E-02  0.1312668E+00
        -11   -1    0    0    0    0  0.00000000000E+00  0.00000000000E+00  0.45593999997E+02  0.45594000000E+02  0.51100000000E-03 0.  1.
         11   -1    0    0    0    0 -0.00000000000E+00 -0.00000000000E+00 -0.45593999997E+02  0.45594000000E+02  0.51100000000E-03 0. -1.
    9900012    2    1    2    0    0  0.40505312373E+02  0.15586452589E+02 -0.76361579268E-01  0.47787266529E+02  0.19999979412E+02 0.  0.
        -12    1    1    2    0    0 -0.40505312373E+02 -0.15586452589E+02  0.76361579268E-01  0.43400733471E+02  0.00000000000E+00 0.  1.
         11    1    3    3    0    0  0.18538405737E+02  0.82758198579E+01  0.24070042387E+01  0.20443956350E+02  0.51100000000E-03 0. -1.
        -11    1    3    3    0    0  0.13391307884E+02  0.17140539390E+01  0.52764842387E+01  0.14495047221E+02  0.51100000000E-03 0.  1.
         12    1    3    3    0    0  0.85755987523E+01  0.55965787922E+01 -0.77598500567E+01  0.12848262958E+02  0.00000000000E+00 0. -1.
</event>
<event>
 7    1  0.3910751E-009  0.4778727E+02  0.7816164E-02  0.1312668E+00
        -11   -1    0    0    0    0  0.00000000000E+00  0.00000000000E+00  0.45593999997E+02  0.45594000000E+02  0.51100000000E-03 0.  1.
         11   -1    0    0    0    0 -0.00000000000E+00 -0.00000000000E+00 -0.45593999997E+02  0.45594000000E+02  0.51100000000E-03 0. -1.
    9900012    2    1    2    0    0  0.28218686900E+01  0.32754946629E+02 -0.28333262120E+02  0.47787271734E+02  0.20000003146E+02 0.  0.
        -12    1    1    2    0    0 -0.28218686900E+01 -0.32754946629E+02  0.28333262120E+02  0.43400728266E+02  0.00000000000E+00 0.  1.
         11    1    3    3    0    0  0.53655874143E+01  0.69975471058E+01 -0.10547116880E+02  0.13747613194E+02  0.51100000000E-03 0. -1.
        -11    1    3    3    0    0 -0.93458456707E+00 -0.14240458016E+01 -0.45555882397E+00  0.17632041463E+01  0.51100000000E-03 0.  1.
        -12    1    3    3    0    0 -0.16091341573E+01  0.27181445325E+02 -0.17330586416E+02  0.32276454394E+02  0.00000000000E+00 0.  1.
</event>
<event>
 7    1  0.3910751E-009  0.4778727E+02  0.7816164E-02  0.1312668E+00
        -11   -1    0    0    0    0  0.00000000000E+00  0.00000000000E+00  0.45593999997E+02  0.45594000000E+02  0.51100000000E-03 0.  1.
         11   -1    0    0    0    0 -0.00000000000E+00 -0.00000000000E+00 -0.45593999997E+02  0.45594000000E+02  0.51100000000E-03 0. -1.
    9900012    2    1    2    0    0  0.38620759654E+01 -0.40051508673E+02 -0.16266042137E+02  0.47787272995E+02  0.20000008893E+02 0.  0.
        -12    1    1    2    0    0 -0.38620759654E+01  0.40051508673E+02  0.16266042137E+02  0.43400727005E+02  0.00000000000E+00 0.  1.
         11    1    3    3    0    0  0.13187111398E+01 -0.17275620549E+02 -0.28190332381E+01  0.17553717928E+02  0.51100000000E-03 0. -1.
        -11    1    3    3    0    0 -0.36929618328E+01 -0.83415201774E+01  0.60926149916E+00  0.91427635759E+01  0.51100000000E-03 0.  1.
        -12    1    3    3    0    0  0.62363266584E+01 -0.14434367946E+02 -0.14056270399E+02  0.21090791491E+02  0.00000000000E+00 0.  1.
</event>
<event>
 7    1  0.3910751E-009  0.4778727E+02  0.7816164E-02  0.1312668E+00
        -11   -1    0    0    0    0  0.00000000000E+00  0.00000000000E+00  0.45593999997E+02  0.45594000000E+02  0.51100000000E-03 0.  1.
         11   -1    0    0    0    0 -0.00000000000E+00 -0.00000000000E+00 -0.45593999997E+02  0.45594000000E+02  0.51100000000E-03 0. -1.
    9900012    2    1    2    0    0  0.92492189382E+01  0.37560799609E+02  0.19678964027E+02  0.47787270244E+02  0.19999996350E+02 0.  0.
        -12    1    1    2    0    0 -0.92492189382E+01 -0.37560799609E+02 -0.19678964027E+02  0.43400729756E+02  0.00000000000E+00 0.  1.
         11    1    3    3    0    0 -0.18800882587E+01  0.40984115980E+01  0.30943513468E+01  0.54687036860E+01  0.51100000000E-03 0. -1.
        -11    1    3    3    0    0  0.17007656089E+01  0.14919251497E+02 -0.10425985056E+01  0.15052032447E+02  0.51100000000E-03 0.  1.
         12    1    3    3    0    0  0.94285415880E+01  0.18543136513E+02  0.17627211185E+02  0.27266534111E+02  0.00000000000E+00 0. -1.
</event>
<event>
 7    1  0.3910751E-009  0.4778727E+02  0.7816164E-02  0.1312668E+00
        -11   -1    0    0    0    0  0.00000000000E+00  0.00000000000E+00  0.45593999997E+02  0.45594000000E+02  0.51100000000E-03 0.  1.
         11   -1    0    0    0    0 -0.00000000000E+00 -0.00000000000E+00 -0.45593999997E+02  0.45594000000E+02  0.51100000000E-03 0. -1.
    9900012    2    1    2    0    0 -0.28546279310E+02  0.24350536632E+02 -0.21812497534E+02  0.47787265613E+02  0.19999975235E+02 0.  0.
        -12    1    1    2    0    0  0.28546279310E+02 -0.24350536632E+02  0.21812497534E+02  0.43400734387E+02  0.00000000000E+00 0.  1.
         11    1    3    3    0    0 -0.56926840254E+01  0.91721252729E+01 -0.87935362637E+01  0.13923390884E+02  0.51100000000E-03 0. -1.
        -11    1    3    3    0    0  0.15552742422E+01  0.19813809477E+01 -0.39248004379E+01  0.46635616396E+01  0.51100000000E-03 0.  1.
        -12    1    3    3    0    0 -0.24408869526E+02  0.13197030412E+02 -0.90941608321E+01  0.29200313089E+02  0.00000000000E+00 0.  1.
</event>
<event>
 7    1  0.3910751E-009  0.4778727E+02  0.7816164E-02  0.1312668E+00
        -11   -1    0    0    0    0  0.00000000000E+00  0.00000000000E+00  0.45593999997E+02  0.45594000000E+02  0.51100000000E-03 0.  1.
         11   -1    0    0    0    0 -0.00000000000E+00 -0.00000000000E+00 -0.45593999997E+02  0.45594000000E+02  0.51100000000E-03 0. -1.
    9900012    2    1    2    0    0 -0.20343660351E+02  0.22857504494E+02 -0.30778136938E+02  0.47787265657E+02  0.19999975437E+02 0.  0.
        -12    1    1    2    0    0  0.20343660351E+02 -0.22857504494E+02  0.30778136938E+02  0.43400734343E+02  0.00000000000E+00 0.  1.
         11    1    3    3    0    0 -0.11227426354E+02  0.11914114910E+02 -0.26016477539E+02  0.30738548118E+02  0.51100000000E-03 0. -1.
        -11    1    3    3    0    0 -0.29521279328E+00  0.32064385546E+01 -0.42129418186E+01  0.53025727554E+01  0.51100000000E-03 0.  1.
        -12    1    3    3    0    0 -0.88210212033E+01  0.77369510291E+01 -0.54871758026E+00  0.11746144784E+02  0.00000000000E+00 0.  1.
</event>
<event>
 7    1  0.3910751E-009  0.4778727E+02  0.7816164E-02  0.1312668E+00
        -11   -1    0    0    0    0  0.00000000000E+00  0.00000000000E+00  0.45593999997E+02  0.45594000000E+02  0.51100000000E-03 0. -1.
         11   -1    0    0    0    0 -0.00000000000E+00 -0.00000000000E+00 -0.45593999997E+02  0.45594000000E+02  0.51100000000E-03 0.  1.
    9900012    2    1    2    0    0  0.10053544719E+02 -0.25540484641E+02  0.33618944735E+02  0.47787267723E+02  0.19999984855E+02 0.  0.
        -12    1    1    2    0    0 -0.10053544719E+02  0.25540484641E+02 -0.33618944735E+02  0.43400732277E+02  0.00000000000E+00 0.  1.
         11    1    3    3    0    0 -0.43581934347E+00  0.14819787981E+01  0.45057024448E+01  0.47631454356E+01  0.51100000000E-03 0. -1.
        -11    1    3    3    0    0 -0.20612566049E+01 -0.77031032650E+01  0.11639149040E+02  0.14108733796E+02  0.51100000000E-03 0.  1.
        -12    1    3    3    0    0  0.12550620667E+02 -0.19319360174E+02  0.17474093250E+02  0.28915388491E+02  0.00000000000E+00 0.  1.
</event>
<event>
 7    1  0.3910751E-009  0.4778727E+02  0.7816164E-02  0.1312668E+00
        -11   -1    0    0    0    0  0.00000000000E+00  0.00000000000E+00  0.45593999997E+02  0.45594000000E+02  0.51100000000E-03 0.  1.
         11   -1    0    0    0    0 -0.00000000000E+00 -0.00000000000E+00 -0.45593999997E+02  0.45594000000E+02  0.51100000000E-03 0. -1.
    9900012    2    1    2    0    0  0.17764563716E+02 -0.36028400863E+02 -0.16431611865E+02  0.47787271190E+02  0.20000000662E+02 0.  0.
        -12    1    1    2    0    0 -0.17764563716E+02  0.36028400863E+02  0.16431611865E+02  0.43400728810E+02  0.00000000000E+00 0.  1.
         11    1    3    3    0    0  0.63526660880E+01 -0.20463855005E+02 -0.34857835041E+01  0.21708901745E+02  0.51100000000E-03 0. -1.
        -11    1    3    3    0    0  0.27929316825E+01 -0.12424099054E+02 -0.42129180452E+01  0.13412955804E+02  0.51100000000E-03 0.  1.
         12    1    3    3    0    0  0.86189659459E+01 -0.31404468046E+01 -0.87329103155E+01  0.12665413641E+02  0.00000000000E+00 0. -1.
</event>
<event>
 7    1  0.3910751E-009  0.4778727E+02  0.7816164E-02  0.1312668E+00
        -11   -1    0    0    0    0  0.00000000000E+00  0.00000000000E+00  0.45593999997E+02  0.45594000000E+02  0.51100000000E-03 0. -1.
         11   -1    0    0    0    0 -0.00000000000E+00 -0.00000000000E+00 -0.45593999997E+02  0.45594000000E+02  0.51100000000E-03 0.  1.
    9900012    2    1    2    0    0  0.38475206008E+02  0.14931443013E+00  0.20081316912E+02  0.47787273497E+02  0.20000011180E+02 0.  0.
        -12    1    1    2    0    0 -0.38475206008E+02 -0.14931443013E+00 -0.20081316912E+02  0.43400726503E+02  0.00000000000E+00 0.  1.
         11    1    3    3    0    0  0.24513276022E+02 -0.86094197568E+00  0.70007778431E+01  0.25507897073E+02  0.51100000000E-03 0. -1.
        -11    1    3    3    0    0  0.14522332875E+02  0.25042110870E+01  0.76193555889E+01  0.16589870559E+02  0.51100000000E-03 0.  1.
        -12    1    3    3    0    0 -0.56040288961E+00 -0.14939546812E+01  0.54611834795E+01  0.56895058647E+01  0.00000000000E+00 0.  1.
</event>
<event>
 7    1  0.3910751E-009  0.4778727E+02  0.7816164E-02  0.1312668E+00
        -11   -1    0    0    0    0  0.00000000000E+00  0.00000000000E+00  0.45593999997E+02  0.45594000000E+02  0.51100000000E-03 0.  1.
         11   -1    0    0    0    0 -0.00000000000E+00 -0.00000000000E+00 -0.45593999997E+02  0.45594000000E+02  0.51100000000E-03 0. -1.
    9900012    2    1    2    0    0  0.17517892856E+02 -0.22321347242E+02 -0.32840583395E+02  0.47787273848E+02  0.20000012783E+02 0.  0.
        -12    1    1    2    0    0 -0.17517892856E+02  0.22321347242E+02  0.32840583395E+02  0.43400726152E+02  0.00000000000E+00 0.  1.
         11    1    3    3    0    0  0.11175660290E+02 -0.12223750804E+02 -0.30814953474E+02  0.34983950956E+02  0.51100000000E-03 0. -1.
        -11    1    3    3    0    0  0.39762814904E+01 -0.27024924033E+01 -0.14312316577E+01  0.50162440132E+01  0.51100000000E-03 0.  1.
         12    1    3    3    0    0  0.23659510755E+01 -0.73951040343E+01 -0.59439826331E+00  0.77870788788E+01  0.00000000000E+00 0. -1.
</event>
<event>
 7    1  0.3910751E-009  0.4778728E+02  0.7816164E-02  0.1312668E+00
        -11   -1    0    0    0    0  0.00000000000E+00  0.00000000000E+00  0.45593999997E+02  0.45594000000E+02  0.51100000000E-03 0. -1.
         11   -1    0    0    0    0 -0.00000000000E+00 -0.00000000000E+00 -0.45593999997E+02  0.45594000000E+02  0.51100000000E-03 0.  1.
    9900012    2    1    2    0    0  0.39990559969E+02 -0.10254309864E+02 -0.13387567992E+02  0.47787277262E+02  0.20000028348E+02 0.  0.
        -12    1    1    2    0    0 -0.39990559969E+02  0.10254309864E+02  0.13387567992E+02  0.43400722738E+02  0.00000000000E+00 0.  1.
         11    1    3    3    0    0  0.46920351761E+01 -0.49563938974E+01 -0.20442497441E+01  0.71246046794E+01  0.51100000000E-03 0. -1.
        -11    1    3    3    0    0  0.34994415532E+02 -0.75205159404E+01 -0.80657639716E+01  0.36690922953E+02  0.51100000000E-03 0.  1.
        -12    1    3    3    0    0  0.30410926084E+00  0.22225999735E+01 -0.32775542761E+01  0.39717496292E+01  0.00000000000E+00 0.  1.
</event>
<event>
 7    1  0.3910751E-009  0.4778727E+02  0.7816164E-02  0.1312668E+00
        -11   -1    0    0    0    0  0.00000000000E+00  0.00000000000E+00  0.45593999997E+02  0.45594000000E+02  0.51100000000E-03 0. -1.
         11   -1    0    0    0    0 -0.00000000000E+00 -0.00000000000E+00 -0.45593999997E+02  0.45594000000E+02  0.51100000000E-03 0.  1.
    9900012    2    1    2    0    0  0.41461481971E+01  0.23528044253E+02  0.36233461863E+02  0.47787272243E+02  0.20000005466E+02 0.  0.
        -12    1    1    2    0    0 -0.41461481971E+01 -0.23528044253E+02 -0.36233461863E+02  0.43400727757E+02  0.00000000000E+00 0.  1.
         11    1    3    3    0    0  0.40072425685E+01  0.18193142537E+02  0.36732497785E+02  0.41186464065E+02  0.51100000000E-03 0. -1.
        -11    1    3    3    0    0  0.16193642673E+01  0.31162618998E+01  0.84785196951E+00  0.36127942208E+01  0.51100000000E-03 0.  1.
         12    1    3    3    0    0 -0.14804586388E+01  0.22186398168E+01 -0.13468878921E+01  0.29880139577E+01  0.00000000000E+00 0. -1.
</event>
<event>
 7    1  0.3910751E-009  0.4778727E+02  0.7816164E-02  0.1312668E+00
        -11   -1    0    0    0    0  0.00000000000E+00  0.00000000000E+00  0.45593999997E+02  0.45594000000E+02  0.51100000000E-03 0. -1.
         11   -1    0    0    0    0 -0.00000000000E+00 -0.00000000000E+00 -0.45593999997E+02  0.45594000000E+02  0.51100000000E-03 0.  1.
    9900012    2    1    2    0    0  0.17740035776E+01 -0.42758072709E+02  0.72265906162E+01  0.47787268642E+02  0.19999989046E+02 0.  0.
        -12    1    1    2    0    0 -0.17740035776E+01  0.42758072709E+02 -0.72265906162E+01  0.43400731358E+02  0.00000000000E+00 0.  1.
         11    1    3    3    0    0 -0.65269032456E+00 -0.48923488133E+01 -0.20209716939E+01  0.53334237053E+01  0.51100000000E-03 0. -1.
        -11    1    3    3    0    0  0.26935439626E+01 -0.15085071554E+01 -0.27835253803E+01  0.41567760007E+01  0.51100000000E-03 0.  1.
         12    1    3    3    0    0 -0.26685006043E+00 -0.36357216740E+02  0.12031087690E+02  0.38297068936E+02  0.00000000000E+00 0. -1.
</event>
<event>
 7    1  0.3910751E-009  0.4778726E+02  0.7816164E-02  0.1312668E+00
        -11   -1    0    0    0    0  0.00000000000E+00  0.00000000000E+00  0.45593999997E+02  0.45594000000E+02  0.51100000000E-03 0. -1.
         11   -1    0    0    0    0 -0.00000000000E+00 -0.00000000000E+00 -0.45593999997E+02  0.45594000000E+02  0.51100000000E-03 0.  1.
    9900012    2    1    2    0    0  0.33925120973E+02  0.22591097971E+02 -0.14911481585E+02  0.47787264711E+02  0.19999971126E+02 0.  0.
        -12    1    1    2    0    0 -0.33925120973E+02 -0.22591097971E+02  0.14911481585E+02  0.43400735289E+02  0.00000000000E+00 0.  1.
         11    1    3    3    0    0  0.22445545365E+02  0.22125798203E+02 -0.60553700109E+01  0.32093939601E+02  0.51100000000E-03 0. -1.
        -11    1    3    3    0    0  0.71805195057E+01  0.31232068668E+01 -0.45703475737E+01  0.90665516438E+01  0.51100000000E-03 0.  1.
        -12    1    3    3    0    0  0.42990561019E+01 -0.26579070994E+01 -0.42857640003E+01  0.66267734669E+01  0.00000000000E+00 0.  1.
</event>
<event>
 7    1  0.3910751E-009  0.4778725E+02  0.7816164E-02  0.1312668E+00
        -11   -1    0    0    0    0  0.00000000000E+00  0.00000000000E+00  0.45593999997E+02  0.45594000000E+02  0.51100000000E-03 0.  1.
         11   -1    0    0    0    0 -0.00000000000E+00 -0.00000000000E+00 -0.45593999997E+02  0.45594000000E+02  0.51100000000E-03 0. -1.
    9900012    2    1    2    0    0  0.83241781797E+01 -0.16499061678E+02 -0.39269764103E+02  0.47787247111E+02  0.19999890876E+02 0.  0.
        -12    1    1    2    0    0 -0.83241781797E+01  0.16499061678E+02  0.39269764103E+02  0.43400752889E+02  0.00000000000E+00 0.  1.
         11    1    3    3    0    0 -0.16778597277E+01 -0.28463336383E+01 -0.21604360307E+01  0.39476971198E+01  0.51100000000E-03 0. -1.
        -11    1    3    3    0    0 -0.30742647317E+01  0.58812552848E+00 -0.18729692504E+01  0.36476032339E+01  0.51100000000E-03 0.  1.
         12    1    3    3    0    0  0.13076302639E+02 -0.14240853568E+02 -0.35236358822E+02  0.40191946757E+02  0.00000000000E+00 0. -1.
</event>
<event>
 7    1  0.3910751E-009  0.4778727E+02  0.7816164E-02  0.1312668E+00
        -11   -1    0    0    0    0  0.00000000000E+00  0.00000000000E+00  0.45593999997E+02  0.45594000000E+02  0.51100000000E-03 0.  1.
         11   -1    0    0    0    0 -0.00000000000E+00 -0.00000000000E+00 -0.45593999997E+02  0.45594000000E+02  0.51100000000E-03 0. -1.
    9900012    2    1    2    0    0  0.16218014069E+02  0.19792638953E+02 -0.35054970778E+02  0.47787268286E+02  0.19999987422E+02 0.  0.
        -12    1    1    2    0    0 -0.16218014069E+02 -0.19792638953E+02  0.35054970778E+02  0.43400731714E+02  0.00000000000E+00 0.  1.
         11    1    3    3    0    0  0.48965797757E+01  0.97233729396E+01 -0.15256122431E+02  0.18742191620E+02  0.51100000000E-03 0. -1.
        -11    1    3    3    0    0  0.63714153526E+01  0.13678264280E+02 -0.13301262780E+02  0.20115005322E+02  0.51100000000E-03 0.  1.
         12    1    3    3    0    0  0.49500189408E+01 -0.36089982664E+01 -0.64975855676E+01  0.89300713440E+01  0.00000000000E+00 0. -1.
</event>
<event>
 7    1  0.3910751E-009  0.4778727E+02  0.7816164E-02  0.1312668E+00
        -11   -1    0    0    0    0  0.00000000000E+00  0.00000000000E+00  0.45593999997E+02  0.45594000000E+02  0.51100000000E-03 0.  1.
         11   -1    0    0    0    0 -0.00000000000E+00 -0.00000000000E+00 -0.45593999997E+02  0.45594000000E+02  0.51100000000E-03 0. -1.
    9900012    2    1    2    0    0 -0.20056536821E+01 -0.36078581347E+02 -0.24040315018E+02  0.47787269305E+02  0.19999992069E+02 0.  0.
        -12    1    1    2    0    0  0.20056536821E+01  0.36078581347E+02  0.24040315018E+02  0.43400730695E+02  0.00000000000E+00 0.  1.
         11    1    3    3    0    0  0.69580107463E+00 -0.31421206146E+01  0.37456026271E+00  0.32399624602E+01  0.51100000000E-03 0. -1.
        -11    1    3    3    0    0 -0.76830190124E+01 -0.19850130428E+02 -0.21481562863E+02  0.30240932566E+02  0.51100000000E-03 0.  1.
         12    1    3    3    0    0  0.49815642557E+01 -0.13086330304E+02 -0.29333124178E+01  0.14306374278E+02  0.00000000000E+00 0. -1.
</event>
<event>
 7    1  0.3910751E-009  0.4778725E+02  0.7816164E-02  0.1312668E+00
        -11   -1    0    0    0    0  0.00000000000E+00  0.00000000000E+00  0.45593999997E+02  0.45594000000E+02  0.51100000000E-03 0.  1.
         11   -1    0    0    0    0 -0.00000000000E+00 -0.00000000000E+00 -0.45593999997E+02  0.45594000000E+02  0.51100000000E-03 0. -1.
    9900012    2    1    2    0    0  0.59518375617E+01  0.32094809333E+02 -0.28602860937E+02  0.47787253344E+02  0.19999919298E+02 0.  0.
        -12    1    1    2    0    0 -0.59518375617E+01 -0.32094809333E+02  0.28602860937E+02  0.43400746656E+02  0.00000000000E+00 0.  1.
         11    1    3    3    0    0 -0.35038437579E+01  0.10121202763E+02 -0.93625373602E+01  0.14225778451E+02  0.51100000000E-03 0. -1.
        -11    1    3    3    0    0  0.32732603018E+00  0.50035144828E+01  0.15170742862E+01  0.52386843921E+01  0.51100000000E-03 0.  1.
         12    1    3    3    0    0  0.91283552894E+01  0.16970092087E+02 -0.20757397863E+02  0.28322790501E+02  0.00000000000E+00 0. -1.
</event>
<event>
 7    1  0.3910751E-009  0.4778727E+02  0.7816164E-02  0.1312668E+00
        -11   -1    0    0    0    0  0.00000000000E+00  0.00000000000E+00  0.45593999997E+02  0.45594000000E+02  0.51100000000E-03 0. -1.
         11   -1    0    0    0    0 -0.00000000000E+00 -0.00000000000E+00 -0.45593999997E+02  0.45594000000E+02  0.51100000000E-03 0.  1.
    9900012    2    1    2    0    0 -0.23967750380E+02  0.24835812848E+02  0.26312597158E+02  0.47787269277E+02  0.19999991941E+02 0.  0.
        -12    1    1    2    0    0  0.23967750380E+02 -0.24835812848E+02 -0.26312597158E+02  0.43400730723E+02  0.00000000000E+00 0.  1.
         11    1    3    3    0    0 -0.14887862349E+02  0.17975896229E+02  0.12903672698E+02  0.26669946755E+02  0.51100000000E-03 0. -1.
        -11    1    3    3    0    0 -0.18878249155E+01  0.35807651686E+01 -0.14393424379E+01  0.42962156625E+01  0.51100000000E-03 0.  1.
         12    1    3    3    0    0 -0.71920631161E+01  0.32791514504E+01  0.14848266898E+02  0.16821106860E+02  0.00000000000E+00 0. -1.
</event>
<event>
 7    1  0.3910751E-009  0.4778729E+02  0.7816164E-02  0.1312668E+00
        -11   -1    0    0    0    0  0.00000000000E+00  0.00000000000E+00  0.45593999997E+02  0.45594000000E+02  0.51100000000E-03 0.  1.
         11   -1    0    0    0    0 -0.00000000000E+00 -0.00000000000E+00 -0.45593999997E+02  0.45594000000E+02  0.51100000000E-03 0. -1.
    9900012    2    1    2    0    0  0.36583642386E+01  0.30696936732E+02  0.30462047680E+02  0.47787286844E+02  0.20000072037E+02 0.  0.
        -12    1    1    2    0    0 -0.36583642386E+01 -0.30696936732E+02 -0.30462047680E+02  0.43400713156E+02  0.00000000000E+00 0.  1.
         11    1    3    3    0    0 -0.24979926600E+01  0.30089068503E+01  0.63963556049E+01  0.74971229848E+01  0.51100000000E-03 0. -1.
        -11    1    3    3    0    0 -0.45422447390E+01  0.32422992357E+01  0.50179104998E+01  0.75049262254E+01  0.51100000000E-03 0.  1.
         12    1    3    3    0    0  0.10698601638E+02  0.24445730646E+02  0.19047781575E+02  0.32785237634E+02  0.00000000000E+00 0. -1.
</event>
<event>
 7    1  0.3910751E-009  0.4778727E+02  0.7816164E-02  0.1312668E+00
        -11   -1    0    0    0    0  0.00000000000E+00  0.00000000000E+00  0.45593999997E+02  0.45594000000E+02  0.51100000000E-03 0.  1.
         11   -1    0    0    0    0 -0.00000000000E+00 -0.00000000000E+00 -0.45593999997E+02  0.45594000000E+02  0.51100000000E-03 0. -1.
    9900012    2    1    2    0    0 -0.18100113168E+02  0.38400857061E+01 -0.39258921181E+02  0.47787271352E+02  0.20000001400E+02 0.  0.
        -12    1    1    2    0    0  0.18100113168E+02 -0.38400857061E+01  0.39258921181E+02  0.43400728648E+02  0.00000000000E+00 0.  1.
         11    1    3    3    0    0 -0.94140934958E+01  0.52911830176E+01 -0.33623729445E+02  0.35315392623E+02  0.51100000000E-03 0. -1.
        -11    1    3    3    0    0 -0.22984435255E+00  0.16791763262E+01 -0.23019098280E+01  0.28585399557E+01  0.51100000000E-03 0.  1.
        -12    1    3    3    0    0 -0.84561753194E+01 -0.31302736377E+01 -0.33332819079E+01  0.96133387726E+01  0.00000000000E+00 0.  1.
</event>
<event>
 7    1  0.3910751E-009  0.4778727E+02  0.7816164E-02  0.1312668E+00
        -11   -1    0    0    0    0  0.00000000000E+00  0.00000000000E+00  0.45593999997E+02  0.45594000000E+02  0.51100000000E-03 0.  1.
         11   -1    0    0    0    0 -0.00000000000E+00 -0.00000000000E+00 -0.45593999997E+02  0.45594000000E+02  0.51100000000E-03 0. -1.
    9900012    2    1    2    0    0 -0.11371510473E+02 -0.40350220016E+02 -0.11232615518E+02  0.47787272389E+02  0.20000006130E+02 0.  0.
        -12    1    1    2    0    0  0.11371510473E+02  0.40350220016E+02  0.11232615518E+02  0.43400727611E+02  0.00000000000E+00 0.  1.
         11    1    3    3    0    0 -0.92993595000E+01 -0.17579210818E+02 -0.88459097789E+00  0.19907014883E+02  0.51100000000E-03 0. -1.
        -11    1    3    3    0    0  0.25444564227E+01 -0.95752065015E+01  0.88421871840E+00  0.99468930344E+01  0.51100000000E-03 0.  1.
         12    1    3    3    0    0 -0.46166073962E+01 -0.13195802696E+02 -0.11232243258E+02  0.17933364471E+02  0.00000000000E+00 0. -1.
</event>
<event>
 7    1  0.3910751E-009  0.4778722E+02  0.7816164E-02  0.1312668E+00
        -11   -1    0    0    0    0  0.00000000000E+00  0.00000000000E+00  0.45593999997E+02  0.45594000000E+02  0.51100000000E-03 0.  1.
         11   -1    0    0    0    0 -0.00000000000E+00 -0.00000000000E+00 -0.45593999997E+02  0.45594000000E+02  0.51100000000E-03 0. -1.
    9900012    2    1    2    0    0  0.20670720133E+02 -0.10995905019E+02 -0.36543656157E+02  0.47787223471E+02  0.19999783091E+02 0.  0.
        -12    1    1    2    0    0 -0.20670720133E+02  0.10995905019E+02  0.36543656157E+02  0.43400776529E+02  0.00000000000E+00 0.  1.
         11    1    3    3    0    0  0.75123566471E+01 -0.34254082125E+01 -0.58160225060E+01  0.10099259471E+02  0.51100000000E-03 0.  1.
        -11    1    3    3    0    0  0.10531354587E+02  0.16194638680E+01 -0.23171350190E+02  0.25503795062E+02  0.51100000000E-03 0. -1.
        -12    1    3    3    0    0  0.26270088990E+01 -0.91899606748E+01 -0.75562834609E+01  0.12184168938E+02  0.00000000000E+00 0.  1.
</event>
<event>
 7    1  0.3910751E-009  0.4778727E+02  0.7816164E-02  0.1312668E+00
        -11   -1    0    0    0    0  0.00000000000E+00  0.00000000000E+00  0.45593999997E+02  0.45594000000E+02  0.51100000000E-03 0. -1.
         11   -1    0    0    0    0 -0.00000000000E+00 -0.00000000000E+00 -0.45593999997E+02  0.45594000000E+02  0.51100000000E-03 0.  1.
    9900012    2    1    2    0    0 -0.35584668805E+02  0.10250722100E+02  0.22633547388E+02  0.47787269305E+02  0.19999992068E+02 0.  0.
        -12    1    1    2    0    0  0.35584668805E+02 -0.10250722100E+02 -0.22633547388E+02  0.43400730695E+02  0.00000000000E+00 0.  1.
         11    1    3    3    0    0 -0.50532605351E+01 -0.40969290467E+00 -0.17771761067E+01  0.53723035550E+01  0.51100000000E-03 0.  1.
        -11    1    3    3    0    0 -0.75883837383E+01 -0.91962309782E+00  0.11085166377E+01  0.77238645637E+01  0.51100000000E-03 0. -1.
         12    1    3    3    0    0 -0.22943024531E+02  0.11580038102E+02  0.23302206857E+02  0.34691101186E+02  0.00000000000E+00 0. -1.
</event>
<event>
 7    1  0.3910751E-009  0.4778727E+02  0.7816164E-02  0.1312668E+00
        -11   -1    0    0    0    0  0.00000000000E+00  0.00000000000E+00  0.45593999997E+02  0.45594000000E+02  0.51100000000E-03 0. -1.
         11   -1    0    0    0    0 -0.00000000000E+00 -0.00000000000E+00 -0.45593999997E+02  0.45594000000E+02  0.51100000000E-03 0.  1.
    9900012    2    1    2    0    0 -0.59334780976E+00  0.51271942211E+01  0.43092729982E+02  0.47787267753E+02  0.19999984995E+02 0.  0.
        -12    1    1    2    0    0  0.59334780976E+00 -0.51271942211E+01 -0.43092729982E+02  0.43400732247E+02  0.00000000000E+00 0.  1.
         11    1    3    3    0    0 -0.48695274914E+01 -0.39494438211E+00  0.14214354730E+02  0.15030507633E+02  0.51100000000E-03 0. -1.
        -11    1    3    3    0    0  0.35418642853E+01 -0.40603910905E+01  0.14437946008E+02  0.15410576356E+02  0.51100000000E-03 0.  1.
        -12    1    3    3    0    0  0.73431539641E+00  0.95825296938E+01  0.14440429244E+02  0.17346183764E+02  0.00000000000E+00 0.  1.
</event>
<event>
 7    1  0.3910751E-009  0.4778728E+02  0.7816164E-02  0.1312668E+00
        -11   -1    0    0    0    0  0.00000000000E+00  0.00000000000E+00  0.45593999997E+02  0.45594000000E+02  0.51100000000E-03 0.  1.
         11   -1    0    0    0    0 -0.00000000000E+00 -0.00000000000E+00 -0.45593999997E+02  0.45594000000E+02  0.51100000000E-03 0. -1.
    9900012    2    1    2    0    0  0.40477090008E+02  0.15338361761E+02  0.31563589281E+01  0.47787276979E+02  0.20000027060E+02 0.  0.
        -12    1    1    2    0    0 -0.40477090008E+02 -0.15338361761E+02 -0.31563589281E+01  0.43400723021E+02  0.00000000000E+00 0.  1.
         11    1    3    3    0    0  0.12109750183E+02  0.90684465617E+01 -0.16413792899E+01  0.15217650895E+02  0.51100000000E-03 0. -1.
        -11    1    3    3    0    0  0.19741573907E+02  0.94932910102E+01  0.71904527061E+01  0.23055474945E+02  0.51100000000E-03 0.  1.
         12    1    3    3    0    0  0.86257659177E+01 -0.32233758109E+01 -0.23927144881E+01  0.95141511396E+01  0.00000000000E+00 0. -1.
</event>
<event>
 7    1  0.3910751E-009  0.4778727E+02  0.7816164E-02  0.1312668E+00
        -11   -1    0    0    0    0  0.00000000000E+00  0.00000000000E+00  0.45593999997E+02  0.45594000000E+02  0.51100000000E-03 0.  1.
         11   -1    0    0    0    0 -0.00000000000E+00 -0.00000000000E+00 -0.45593999997E+02  0.45594000000E+02  0.51100000000E-03 0. -1.
    9900012    2    1    2    0    0  0.26588301366E+02  0.63037750106E+01 -0.33718656770E+02  0.47787272319E+02  0.20000005809E+02 0.  0.
        -12    1    1    2    0    0 -0.26588301366E+02 -0.63037750106E+01  0.33718656770E+02  0.43400727681E+02  0.00000000000E+00 0.  1.
         11    1    3    3    0    0  0.57936470022E+00 -0.92068242640E-01 -0.71998214439E+01  0.72236811324E+01  0.51100000000E-03 0. -1.
        -11    1    3    3    0    0  0.92176209235E+01  0.64325212414E+01 -0.19196407004E+02  0.22245087258E+02  0.51100000000E-03 0.  1.
        -12    1    3    3    0    0  0.16791315742E+02 -0.36677988139E-01 -0.73224283224E+01  0.18318503928E+02  0.00000000000E+00 0.  1.
</event>
<event>
 7    1  0.3910751E-009  0.4778727E+02  0.7816164E-02  0.1312668E+00
        -11   -1    0    0    0    0  0.00000000000E+00  0.00000000000E+00  0.45593999997E+02  0.45594000000E+02  0.51100000000E-03 0.  1.
         11   -1    0    0    0    0 -0.00000000000E+00 -0.00000000000E+00 -0.45593999997E+02  0.45594000000E+02  0.51100000000E-03 0. -1.
    9900012    2    1    2    0    0  0.73072385540E+01 -0.21417870810E+02 -0.37033800809E+02  0.47787270424E+02  0.19999997172E+02 0.  0.
        -12    1    1    2    0    0 -0.73072385540E+01  0.21417870810E+02  0.37033800809E+02  0.43400729576E+02  0.00000000000E+00 0.  1.
         11    1    3    3    0    0  0.36916752734E+01 -0.13446983746E+02 -0.25368833463E+02  0.28948705493E+02  0.51100000000E-03 0. -1.
        -11    1    3    3    0    0  0.31231892706E+01 -0.11029515914E+02 -0.77105087610E+01  0.13815081547E+02  0.51100000000E-03 0.  1.
         12    1    3    3    0    0  0.49237400995E+00  0.30586288503E+01 -0.39544585854E+01  0.50234833844E+01  0.00000000000E+00 0. -1.
</event>
<event>
 7    1  0.3985509E-009  0.4778727E+02  0.7816164E-02  0.1312668E+00
        -11   -1    0    0    0    0  0.00000000000E+00  0.00000000000E+00  0.45593999997E+02  0.45594000000E+02  0.51100000000E-03 0. -1.
         11   -1    0    0    0    0 -0.00000000000E+00 -0.00000000000E+00 -0.45593999997E+02  0.45594000000E+02  0.51100000000E-03 0.  1.
    9900012    2    1    2    0    0 -0.30105272002E+02  0.11596046681E+02  0.29031490985E+02  0.47787272244E+02  0.20000005468E+02 0.  0.
        -12    1    1    2    0    0  0.30105272002E+02 -0.11596046681E+02 -0.29031490985E+02  0.43400727756E+02  0.00000000000E+00 0.  1.
         11    1    3    3    0    0 -0.11747755335E+02  0.63623025519E+01  0.63558080719E+01  0.14794760751E+02  0.51100000000E-03 0. -1.
        -11    1    3    3    0    0 -0.19365301133E+02  0.76268164507E+00  0.18197149798E+02  0.26584447188E+02  0.51100000000E-03 0.  1.
        -12    1    3    3    0    0  0.10077844662E+01  0.44710624838E+01  0.44785331153E+01  0.64080643043E+01  0.00000000000E+00 0.  1.
</event>
<event>
 7    1  0.3910751E-009  0.4778727E+02  0.7816164E-02  0.1312668E+00
        -11   -1    0    0    0    0  0.00000000000E+00  0.00000000000E+00  0.45593999997E+02  0.45594000000E+02  0.51100000000E-03 0.  1.
         11   -1    0    0    0    0 -0.00000000000E+00 -0.00000000000E+00 -0.45593999997E+02  0.45594000000E+02  0.51100000000E-03 0. -1.
    9900012    2    1    2    0    0 -0.25830645964E+02  0.25596034125E+01 -0.34782887374E+02  0.47787273110E+02  0.20000009416E+02 0.  0.
        -12    1    1    2    0    0  0.25830645964E+02 -0.25596034125E+01  0.34782887374E+02  0.43400726890E+02  0.00000000000E+00 0.  1.
         11    1    3    3    0    0  0.28990070989E+01 -0.12320702510E+00 -0.27614197763E+01  0.40056037713E+01  0.51100000000E-03 0. -1.
        -11    1    3    3    0    0 -0.47265008687E+01  0.28756215028E+01 -0.87267113686E+01  0.10332690892E+02  0.51100000000E-03 0.  1.
        -12    1    3    3    0    0 -0.24003152194E+02 -0.19281106519E+00 -0.23294756229E+02  0.33448978447E+02  0.00000000000E+00 0.  1.
</event>
<event>
 7    1  0.3910751E-009  0.4778727E+02  0.7816164E-02  0.1312668E+00
        -11   -1    0    0    0    0  0.00000000000E+00  0.00000000000E+00  0.45593999997E+02  0.45594000000E+02  0.51100000000E-03 0.  1.
         11   -1    0    0    0    0 -0.00000000000E+00 -0.00000000000E+00 -0.45593999997E+02  0.45594000000E+02  0.51100000000E-03 0. -1.
    9900012    2    1    2    0    0  0.33485128628E+02 -0.72143968943E+01 -0.26651864562E+02  0.47787271360E+02  0.20000001440E+02 0.  0.
        -12    1    1    2    0    0 -0.33485128628E+02  0.72143968943E+01  0.26651864562E+02  0.43400728640E+02  0.00000000000E+00 0.  1.
         11    1    3    3    0    0  0.62672656569E+01 -0.32005405545E+01 -0.13251388464E+02  0.15004045292E+02  0.51100000000E-03 0. -1.
        -11    1    3    3    0    0  0.87019232098E+01  0.39112056975E+01 -0.62755832998E+01  0.11419454609E+02  0.51100000000E-03 0.  1.
         12    1    3    3    0    0  0.18515939762E+02 -0.79250620373E+01 -0.71248927988E+01  0.21363771459E+02  0.00000000000E+00 0. -1.
</event>
<event>
 7    1  0.3910751E-009  0.4778728E+02  0.7816164E-02  0.1312668E+00
        -11   -1    0    0    0    0  0.00000000000E+00  0.00000000000E+00  0.45593999997E+02  0.45594000000E+02  0.51100000000E-03 0.  1.
         11   -1    0    0    0    0 -0.00000000000E+00 -0.00000000000E+00 -0.45593999997E+02  0.45594000000E+02  0.51100000000E-03 0. -1.
    9900012    2    1    2    0    0 -0.38561361133E+02 -0.19623286925E+02  0.34015230293E+01  0.47787282022E+02  0.20000050049E+02 0.  0.
        -12    1    1    2    0    0  0.38561361133E+02  0.19623286925E+02 -0.34015230293E+01  0.43400717978E+02  0.00000000000E+00 0.  1.
         11    1    3    3    0    0 -0.20978564244E+02 -0.19808591156E+02  0.25065129922E+01  0.28961406198E+02  0.51100000000E-03 0. -1.
        -11    1    3    3    0    0 -0.31648368764E+01 -0.14748784064E+01 -0.20041316360E+01  0.40259163731E+01  0.51100000000E-03 0.  1.
        -12    1    3    3    0    0 -0.14417960012E+02  0.16601826374E+01  0.28991416731E+01  0.14799959450E+02  0.00000000000E+00 0.  1.
</event>
<event>
 7    1  0.3910751E-009  0.4778727E+02  0.7816164E-02  0.1312668E+00
        -11   -1    0    0    0    0  0.00000000000E+00  0.00000000000E+00  0.45593999997E+02  0.45594000000E+02  0.51100000000E-03 0.  1.
         11   -1    0    0    0    0 -0.00000000000E+00 -0.00000000000E+00 -0.45593999997E+02  0.45594000000E+02  0.51100000000E-03 0. -1.
    9900012    2    1    2    0    0 -0.25259269786E+02  0.33849017191E+02 -0.99918497149E+01  0.47787265725E+02  0.19999975745E+02 0.  0.
        -12    1    1    2    0    0  0.25259269786E+02 -0.33849017191E+02  0.99918497149E+01  0.43400734275E+02  0.00000000000E+00 0.  1.
         11    1    3    3    0    0 -0.17498910588E+02  0.10428282213E+02 -0.38262194643E+01  0.20726815899E+02  0.51100000000E-03 0. -1.
        -11    1    3    3    0    0 -0.52746735908E+01  0.14133450328E+02 -0.82914128555E+01  0.17214067708E+02  0.51100000000E-03 0.  1.
        -12    1    3    3    0    0 -0.24856856074E+01  0.92872846504E+01  0.21257826048E+01  0.98463821173E+01  0.00000000000E+00 0.  1.
</event>
<event>
 7    1  0.3910751E-009  0.4778727E+02  0.7816164E-02  0.1312668E+00
        -11   -1    0    0    0    0  0.00000000000E+00  0.00000000000E+00  0.45593999997E+02  0.45594000000E+02  0.51100000000E-03 0.  1.
         11   -1    0    0    0    0 -0.00000000000E+00 -0.00000000000E+00 -0.45593999997E+02  0.45594000000E+02  0.51100000000E-03 0. -1.
    9900012    2    1    2    0    0 -0.23443588336E+01  0.23390031865E+01 -0.43274196466E+02  0.47787273808E+02  0.20000012599E+02 0.  0.
        -12    1    1    2    0    0  0.23443588336E+01 -0.23390031865E+01  0.43274196466E+02  0.43400726192E+02  0.00000000000E+00 0.  1.
         11    1    3    3    0    0 -0.36560764424E+01 -0.30540900931E+01 -0.99714379718E+01  0.11050969945E+02  0.51100000000E-03 0. -1.
        -11    1    3    3    0    0 -0.19751829106E+01  0.21811229239E+01  0.17197069212E+00  0.29475784840E+01  0.51100000000E-03 0.  1.
         12    1    3    3    0    0  0.32869005194E+01  0.32119703558E+01 -0.33474729186E+02  0.33788725378E+02  0.00000000000E+00 0. -1.
</event>
<event>
 7    1  0.3910751E-009  0.4778731E+02  0.7816164E-02  0.1312668E+00
        -11   -1    0    0    0    0  0.00000000000E+00  0.00000000000E+00  0.45593999997E+02  0.45594000000E+02  0.51100000000E-03 0.  1.
         11   -1    0    0    0    0 -0.00000000000E+00 -0.00000000000E+00 -0.45593999997E+02  0.45594000000E+02  0.51100000000E-03 0. -1.
    9900012    2    1    2    0    0  0.42007580861E+02  0.10834188432E+02 -0.12662095316E+01  0.47787311350E+02  0.20000183767E+02 0.  0.
        -12    1    1    2    0    0 -0.42007580861E+02 -0.10834188432E+02  0.12662095316E+01  0.43400688650E+02  0.00000000000E+00 0.  1.
         11    1    3    3    0    0  0.12028500866E+02 -0.12207703483E+01 -0.53885630850E+01  0.13236756616E+02  0.51100000000E-03 0. -1.
        -11    1    3    3    0    0  0.10333468246E+02  0.72791554869E+01 -0.32153066464E+01  0.13042425682E+02  0.51100000000E-03 0.  1.
         12    1    3    3    0    0  0.19645611749E+02  0.47758032930E+01  0.73376601998E+01  0.21508129051E+02  0.00000000000E+00 0. -1.
</event>
<event>
 7    1  0.3910751E-009  0.4778727E+02  0.7816164E-02  0.1312668E+00
        -11   -1    0    0    0    0  0.00000000000E+00  0.00000000000E+00  0.45593999997E+02  0.45594000000E+02  0.51100000000E-03 0. -1.
         11   -1    0    0    0    0 -0.00000000000E+00 -0.00000000000E+00 -0.45593999997E+02  0.45594000000E+02  0.51100000000E-03 0.  1.
    9900012    2    1    2    0    0  0.39308216062E+02 -0.28060072009E+01  0.18182789371E+02  0.47787270101E+02  0.19999995699E+02 0.  0.
        -12    1    1    2    0    0 -0.39308216062E+02  0.28060072009E+01 -0.18182789371E+02  0.43400729899E+02  0.00000000000E+00 0.  1.
         11    1    3    3    0    0  0.85252757142E+01 -0.17556789517E+01  0.61587467549E+01  0.10662687111E+02  0.51100000000E-03 0. -1.
        -11    1    3    3    0    0  0.11682554689E+02  0.60277681852E+01 -0.60101881537E+00  0.13159684542E+02  0.51100000000E-03 0.  1.
        -12    1    3    3    0    0  0.19100385659E+02 -0.70780964344E+01  0.12625061432E+02  0.23964898448E+02  0.00000000000E+00 0.  1.
</event>
<event>
 7    1  0.3910751E-009  0.4778728E+02  0.7816164E-02  0.1312668E+00
        -11   -1    0    0    0    0  0.00000000000E+00  0.00000000000E+00  0.45593999997E+02  0.45594000000E+02  0.51100000000E-03 0.  1.
         11   -1    0    0    0    0 -0.00000000000E+00 -0.00000000000E+00 -0.45593999997E+02  0.45594000000E+02  0.51100000000E-03 0. -1.
    9900012    2    1    2    0    0 -0.31917876836E+02  0.23179844598E+02  0.18098802072E+02  0.47787277728E+02  0.20000030472E+02 0.  0.
        -12    1    1    2    0    0  0.31917876836E+02 -0.23179844598E+02 -0.18098802072E+02  0.43400722272E+02  0.00000000000E+00 0.  1.
         11    1    3    3    0    0 -0.25161606677E+01  0.15588415296E+01 -0.25221894525E+01  0.38887647545E+01  0.51100000000E-03 0. -1.
        -11    1    3    3    0    0 -0.42587561068E+00 -0.14598640246E+01  0.17684288982E+01  0.23323623294E+01  0.51100000000E-03 0.  1.
         12    1    3    3    0    0 -0.28975840557E+02  0.23080867093E+02  0.18852562627E+02  0.41566150644E+02  0.00000000000E+00 0. -1.
</event>
<event>
 7    1  0.3910751E-009  0.4778727E+02  0.7816164E-02  0.1312668E+00
        -11   -1    0    0    0    0  0.00000000000E+00  0.00000000000E+00  0.45593999997E+02  0.45594000000E+02  0.51100000000E-03 0. -1.
         11   -1    0    0    0    0 -0.00000000000E+00 -0.00000000000E+00 -0.45593999997E+02  0.45594000000E+02  0.51100000000E-03 0.  1.
    9900012    2    1    2    0    0  0.36510899759E+02  0.22523048244E+02 -0.65795063546E+01  0.47787269507E+02  0.19999992990E+02 0.  0.
        -12    1    1    2    0    0 -0.36510899759E+02 -0.22523048244E+02  0.65795063546E+01  0.43400730493E+02  0.00000000000E+00 0.  1.
         11    1    3    3    0    0  0.27910360978E+02  0.90843352688E+01 -0.10995215551E+01  0.29372135522E+02  0.51100000000E-03 0. -1.
        -11    1    3    3    0    0  0.82769782767E+01  0.77270373332E+01 -0.14462609834E+01  0.11415215567E+02  0.51100000000E-03 0.  1.
        -12    1    3    3    0    0  0.32356050488E+00  0.57116756423E+01 -0.40337238161E+01  0.69999184187E+01  0.00000000000E+00 0.  1.
</event>
<event>
 7    1  0.3910751E-009  0.4778727E+02  0.7816164E-02  0.1312668E+00
        -11   -1    0    0    0    0  0.00000000000E+00  0.00000000000E+00  0.45593999997E+02  0.45594000000E+02  0.51100000000E-03 0.  1.
         11   -1    0    0    0    0 -0.00000000000E+00 -0.00000000000E+00 -0.45593999997E+02  0.45594000000E+02  0.51100000000E-03 0. -1.
    9900012    2    1    2    0    0 -0.29547418927E+02  0.26700980035E+02 -0.17251988596E+02  0.47787269469E+02  0.19999992819E+02 0.  0.
        -12    1    1    2    0    0  0.29547418927E+02 -0.26700980035E+02  0.17251988596E+02  0.43400730531E+02  0.00000000000E+00 0.  1.
         11    1    3    3    0    0 -0.18221495899E+02  0.23758185730E+02 -0.12484128931E+02  0.32439601992E+02  0.51100000000E-03 0. -1.
        -11    1    3    3    0    0 -0.31684261626E+01  0.33415660696E+01 -0.54700783136E+01  0.71502968584E+01  0.51100000000E-03 0.  1.
        -12    1    3    3    0    0 -0.81574968653E+01 -0.39877176513E+00  0.70221864879E+00  0.81973706186E+01  0.00000000000E+00 0.  1.
</event>
<event>
 7    1  0.3910751E-009  0.4778727E+02  0.7816164E-02  0.1312668E+00
        -11   -1    0    0    0    0  0.00000000000E+00  0.00000000000E+00  0.45593999997E+02  0.45594000000E+02  0.51100000000E-03 0.  1.
         11   -1    0    0    0    0 -0.00000000000E+00 -0.00000000000E+00 -0.45593999997E+02  0.45594000000E+02  0.51100000000E-03 0. -1.
    9900012    2    1    2    0    0  0.72556497495E+01 -0.30817137313E+02 -0.29686409354E+02  0.47787270677E+02  0.19999998324E+02 0.  0.
        -12    1    1    2    0    0 -0.72556497495E+01  0.30817137313E+02  0.29686409354E+02  0.43400729323E+02  0.00000000000E+00 0.  1.
         11    1    3    3    0    0  0.29082401973E+01 -0.64869494198E+01 -0.36359725441E+01  0.79849026558E+01  0.51100000000E-03 0. -1.
        -11    1    3    3    0    0  0.15406435179E+01  0.22569375848E+01 -0.41715537305E+00  0.27643025481E+01  0.51100000000E-03 0.  1.
         12    1    3    3    0    0  0.28067660344E+01 -0.26587125478E+02 -0.25633281437E+02  0.37038065473E+02  0.00000000000E+00 0. -1.
</event>
<event>
 7    1  0.3910751E-009  0.4778727E+02  0.7816164E-02  0.1312668E+00
        -11   -1    0    0    0    0  0.00000000000E+00  0.00000000000E+00  0.45593999997E+02  0.45594000000E+02  0.51100000000E-03 0.  1.
         11   -1    0    0    0    0 -0.00000000000E+00 -0.00000000000E+00 -0.45593999997E+02  0.45594000000E+02  0.51100000000E-03 0. -1.
    9900012    2    1    2    0    0 -0.62868999358E+01 -0.25778419301E+02 -0.34344886488E+02  0.47787271431E+02  0.20000001761E+02 0.  0.
        -12    1    1    2    0    0  0.62868999358E+01  0.25778419301E+02  0.34344886488E+02  0.43400728569E+02  0.00000000000E+00 0.  1.
         11    1    3    3    0    0 -0.36699717271E+00 -0.17840440151E+02 -0.17688440237E+02  0.25125622579E+02  0.51100000000E-03 0. -1.
        -11    1    3    3    0    0 -0.85448943228E+00 -0.85656622641E+01 -0.50443555331E+01  0.99772864657E+01  0.51100000000E-03 0.  1.
         12    1    3    3    0    0 -0.50654133308E+01  0.62768311373E+00 -0.11612090718E+02  0.12684362386E+02  0.00000000000E+00 0. -1.
</event>
<event>
 7    1  0.3910751E-009  0.4778727E+02  0.7816164E-02  0.1312668E+00
        -11   -1    0    0    0    0  0.00000000000E+00  0.00000000000E+00  0.45593999997E+02  0.45594000000E+02  0.51100000000E-03 0.  1.
         11   -1    0    0    0    0 -0.00000000000E+00 -0.00000000000E+00 -0.45593999997E+02  0.45594000000E+02  0.51100000000E-03 0. -1.
    9900012    2    1    2    0    0  0.28796888578E+02  0.11540551911E+02 -0.30350912681E+02  0.47787273846E+02  0.20000012773E+02 0.  0.
        -12    1    1    2    0    0 -0.28796888578E+02 -0.11540551911E+02  0.30350912681E+02  0.43400726154E+02  0.00000000000E+00 0.  1.
         11    1    3    3    0    0  0.28990947431E+01  0.48669197400E+01 -0.52424456534E+01  0.77184774908E+01  0.51100000000E-03 0. -1.
        -11    1    3    3    0    0  0.16656894063E+01 -0.26028920911E+01 -0.90295782950E+01  0.95437336972E+01  0.51100000000E-03 0.  1.
        -12    1    3    3    0    0  0.24232104428E+02  0.92765242618E+01 -0.16078888732E+02  0.30525062658E+02  0.00000000000E+00 0.  1.
</event>
<event>
 7    1  0.3910751E-009  0.4778727E+02  0.7816164E-02  0.1312668E+00
        -11   -1    0    0    0    0  0.00000000000E+00  0.00000000000E+00  0.45593999997E+02  0.45594000000E+02  0.51100000000E-03 0.  1.
         11   -1    0    0    0    0 -0.00000000000E+00 -0.00000000000E+00 -0.45593999997E+02  0.45594000000E+02  0.51100000000E-03 0. -1.
    9900012    2    1    2    0    0  0.12218793521E+02  0.37759819761E+02 -0.17564758932E+02  0.47787266598E+02  0.19999979728E+02 0.  0.
        -12    1    1    2    0    0 -0.12218793521E+02 -0.37759819761E+02  0.17564758932E+02  0.43400733402E+02  0.00000000000E+00 0.  1.
         11    1    3    3    0    0  0.68073549051E+01  0.20296596569E+02 -0.12465526383E+02  0.24772590930E+02  0.51100000000E-03 0. -1.
        -11    1    3    3    0    0 -0.29908069144E+01  0.41687722345E+01 -0.51752484833E+01  0.72874402274E+01  0.51100000000E-03 0.  1.
        -12    1    3    3    0    0  0.84022455305E+01  0.13294450957E+02  0.76015934534E-01  0.15727235441E+02  0.00000000000E+00 0.  1.
</event>
<event>
 7    1  0.3910751E-009  0.4778729E+02  0.7816164E-02  0.1312668E+00
        -11   -1    0    0    0    0  0.00000000000E+00  0.00000000000E+00  0.45593999997E+02  0.45594000000E+02  0.51100000000E-03 0. -1.
         11   -1    0    0    0    0 -0.00000000000E+00 -0.00000000000E+00 -0.45593999997E+02  0.45594000000E+02  0.51100000000E-03 0.  1.
    9900012    2    1    2    0    0 -0.31112679071E+02  0.13663484929E+02  0.26998738616E+02  0.47787291408E+02  0.20000092847E+02 0.  0.
        -12    1    1    2    0    0  0.31112679071E+02 -0.13663484929E+02 -0.26998738616E+02  0.43400708592E+02  0.00000000000E+00 0.  1.
         11    1    3    3    0    0 -0.17935227065E+02  0.65252063887E+01  0.15654901849E+02  0.24684542541E+02  0.51100000000E-03 0. -1.
        -11    1    3    3    0    0 -0.75735012186E+01  0.98948528768E+01  0.11353829875E+02  0.16857505369E+02  0.51100000000E-03 0.  1.
         12    1    3    3    0    0 -0.56039507872E+01 -0.27565743360E+01 -0.99931080676E-02  0.62452434986E+01  0.00000000000E+00 0. -1.
</event>
<event>
 7    1  0.3910751E-009  0.4778728E+02  0.7816164E-02  0.1312668E+00
        -11   -1    0    0    0    0  0.00000000000E+00  0.00000000000E+00  0.45593999997E+02  0.45594000000E+02  0.51100000000E-03 0.  1.
         11   -1    0    0    0    0 -0.00000000000E+00 -0.00000000000E+00 -0.45593999997E+02  0.45594000000E+02  0.51100000000E-03 0. -1.
    9900012    2    1    2    0    0 -0.41736043784E+02 -0.75410220105E+01  0.92118505338E+01  0.47787279338E+02  0.20000037813E+02 0.  0.
        -12    1    1    2    0    0  0.41736043784E+02  0.75410220105E+01 -0.92118505338E+01  0.43400720662E+02  0.00000000000E+00 0.  1.
         11    1    3    3    0    0 -0.15529576135E+01  0.20465948165E+01 -0.10432024928E+01  0.27728143454E+01  0.51100000000E-03 0. -1.
        -11    1    3    3    0    0 -0.14326242533E+02  0.35263066897E+01  0.21427372048E+01  0.14908634645E+02  0.51100000000E-03 0.  1.
        -12    1    3    3    0    0 -0.25856843638E+02 -0.13113923517E+02  0.81123158217E+01  0.30105830347E+02  0.00000000000E+00 0.  1.
</event>
<event>
 7    1  0.3910751E-009  0.4778724E+02  0.7816164E-02  0.1312668E+00
        -11   -1    0    0    0    0  0.00000000000E+00  0.00000000000E+00  0.45593999997E+02  0.45594000000E+02  0.51100000000E-03 0.  1.
         11   -1    0    0    0    0 -0.00000000000E+00 -0.00000000000E+00 -0.45593999997E+02  0.45594000000E+02  0.51100000000E-03 0. -1.
    9900012    2    1    2    0    0 -0.33632459890E+02 -0.27268394449E+02 -0.29863984019E+01  0.47787236533E+02  0.19999842647E+02 0.  0.
        -12    1    1    2    0    0  0.33632459890E+02  0.27268394449E+02  0.29863984019E+01  0.43400763467E+02  0.00000000000E+00 0.  1.
         11    1    3    3    0    0 -0.13515930077E+02 -0.17191429119E+02 -0.14650864878E+01  0.21917392173E+02  0.51100000000E-03 0. -1.
        -11    1    3    3    0    0 -0.78891166982E+01 -0.11000050414E+02 -0.13808036593E+01  0.13606832489E+02  0.51100000000E-03 0.  1.
        -12    1    3    3    0    0 -0.12227413116E+02  0.92308508313E+00 -0.14050825482E+00  0.12263011871E+02  0.00000000000E+00 0.  1.
</event>
<event>
 7    1  0.3910751E-009  0.4778722E+02  0.7816164E-02  0.1312668E+00
        -11   -1    0    0    0    0  0.00000000000E+00  0.00000000000E+00  0.45593999997E+02  0.45594000000E+02  0.51100000000E-03 0.  1.
         11   -1    0    0    0    0 -0.00000000000E+00 -0.00000000000E+00 -0.45593999997E+02  0.45594000000E+02  0.51100000000E-03 0. -1.
    9900012    2    1    2    0    0 -0.30175349873E+02 -0.15703384322E+02 -0.26953280259E+02  0.47787224248E+02  0.19999786636E+02 0.  0.
        -12    1    1    2    0    0  0.30175349873E+02  0.15703384322E+02  0.26953280259E+02  0.43400775752E+02  0.00000000000E+00 0.  1.
         11    1    3    3    0    0 -0.19823651437E+02 -0.10992538234E+02 -0.15562896805E+02  0.27495759861E+02  0.51100000000E-03 0. -1.
        -11    1    3    3    0    0 -0.11782158307E+02 -0.69747851082E+01 -0.76279990766E+01  0.15673329316E+02  0.51100000000E-03 0.  1.
        -12    1    3    3    0    0  0.14304598709E+01  0.22639390202E+01 -0.37623843774E+01  0.46181350709E+01  0.00000000000E+00 0.  1.
</event>
<event>
 7    1  0.3910751E-009  0.4778727E+02  0.7816164E-02  0.1312668E+00
        -11   -1    0    0    0    0  0.00000000000E+00  0.00000000000E+00  0.45593999997E+02  0.45594000000E+02  0.51100000000E-03 0. -1.
         11   -1    0    0    0    0 -0.00000000000E+00 -0.00000000000E+00 -0.45593999997E+02  0.45594000000E+02  0.51100000000E-03 0.  1.
    9900012    2    1    2    0    0 -0.28700230554E+02  0.32143448862E+02  0.51690244396E+01  0.47787270141E+02  0.19999995883E+02 0.  0.
        -12    1    1    2    0    0  0.28700230554E+02 -0.32143448862E+02 -0.51690244396E+01  0.43400729859E+02  0.00000000000E+00 0.  1.
         11    1    3    3    0    0 -0.70416986268E+01  0.91159797587E+01  0.43503979856E+01  0.12313105596E+02  0.51100000000E-03 0. -1.
        -11    1    3    3    0    0 -0.57936449775E+01  0.17194161306E+02 -0.22880826119E+01  0.18287723408E+02  0.51100000000E-03 0.  1.
         12    1    3    3    0    0 -0.15864886949E+02  0.58333077977E+01  0.31067090659E+01  0.17186441138E+02  0.00000000000E+00 0. -1.
</event>
<event>
 7    1  0.3910751E-009  0.4778727E+02  0.7816164E-02  0.1312668E+00
        -11   -1    0    0    0    0  0.00000000000E+00  0.00000000000E+00  0.45593999997E+02  0.45594000000E+02  0.51100000000E-03 0. -1.
         11   -1    0    0    0    0 -0.00000000000E+00 -0.00000000000E+00 -0.45593999997E+02  0.45594000000E+02  0.51100000000E-03 0.  1.
    9900012    2    1    2    0    0 -0.16352412898E+01  0.15749359592E+02  0.40409242400E+02  0.47787271746E+02  0.20000003197E+02 0.  0.
        -12    1    1    2    0    0  0.16352412898E+01 -0.15749359592E+02 -0.40409242400E+02  0.43400728254E+02  0.00000000000E+00 0.  1.
         11    1    3    3    0    0  0.27116123104E+01  0.11575714896E+02  0.12108309419E+02  0.16969418786E+02  0.51100000000E-03 0. -1.
        -11    1    3    3    0    0 -0.38142017306E+01  0.21580175804E+01  0.27322950685E+01  0.51643597204E+01  0.51100000000E-03 0.  1.
         12    1    3    3    0    0 -0.53265186955E+00  0.20156271159E+01  0.25568637913E+02  0.25653493240E+02  0.00000000000E+00 0. -1.
</event>
<event>
 7    1  0.3910751E-009  0.4778727E+02  0.7816164E-02  0.1312668E+00
        -11   -1    0    0    0    0  0.00000000000E+00  0.00000000000E+00  0.45593999997E+02  0.45594000000E+02  0.51100000000E-03 0.  1.
         11   -1    0    0    0    0 -0.00000000000E+00 -0.00000000000E+00 -0.45593999997E+02  0.45594000000E+02  0.51100000000E-03 0. -1.
    9900012    2    1    2    0    0 -0.30279984821E+02  0.87033191064E+01 -0.29849591466E+02  0.47787270111E+02  0.19999995744E+02 0.  0.
        -12    1    1    2    0    0  0.30279984821E+02 -0.87033191064E+01  0.29849591466E+02  0.43400729889E+02  0.00000000000E+00 0.  1.
         11    1    3    3    0    0 -0.79497855095E+01 -0.35781490047E+01 -0.74101168264E+01  0.11441681327E+02  0.51100000000E-03 0. -1.
        -11    1    3    3    0    0 -0.13856589405E+02  0.37520734622E+00 -0.12561041514E+02  0.18706298797E+02  0.51100000000E-03 0.  1.
        -12    1    3    3    0    0 -0.84736099062E+01  0.11906260765E+02 -0.98784331254E+01  0.17639289987E+02  0.00000000000E+00 0.  1.
</event>
<event>
 7    1  0.3910751E-009  0.4778727E+02  0.7816164E-02  0.1312668E+00
        -11   -1    0    0    0    0  0.00000000000E+00  0.00000000000E+00  0.45593999997E+02  0.45594000000E+02  0.51100000000E-03 0.  1.
         11   -1    0    0    0    0 -0.00000000000E+00 -0.00000000000E+00 -0.45593999997E+02  0.45594000000E+02  0.51100000000E-03 0. -1.
    9900012    2    1    2    0    0  0.11671440377E+02 -0.19619431324E+02 -0.36911769344E+02  0.47787270489E+02  0.19999997469E+02 0.  0.
        -12    1    1    2    0    0 -0.11671440377E+02  0.19619431324E+02  0.36911769344E+02  0.43400729511E+02  0.00000000000E+00 0.  1.
         11    1    3    3    0    0 -0.13660196499E+01 -0.24665694362E+01 -0.23938912660E+01  0.36987416945E+01  0.51100000000E-03 0. -1.
        -11    1    3    3    0    0  0.99566079084E+00 -0.16603385137E+01  0.19052313237E+01  0.27162420821E+01  0.51100000000E-03 0.  1.
         12    1    3    3    0    0  0.12041799236E+02 -0.15492523374E+02 -0.36423109402E+02  0.41372286713E+02  0.00000000000E+00 0. -1.
</event>
<event>
 7    1  0.3910751E-009  0.4778727E+02  0.7816164E-02  0.1312668E+00
        -11   -1    0    0    0    0  0.00000000000E+00  0.00000000000E+00  0.45593999997E+02  0.45594000000E+02  0.51100000000E-03 0. -1.
         11   -1    0    0    0    0 -0.00000000000E+00 -0.00000000000E+00 -0.45593999997E+02  0.45594000000E+02  0.51100000000E-03 0.  1.
    9900012    2    1    2    0    0 -0.26511025703E+02 -0.31919076125E+02 -0.12726413053E+02  0.47787268512E+02  0.19999988455E+02 0.  0.
        -12    1    1    2    0    0  0.26511025703E+02  0.31919076125E+02  0.12726413053E+02  0.43400731488E+02  0.00000000000E+00 0.  1.
         11    1    3    3    0    0 -0.14593811928E+02 -0.14181282562E+02 -0.10925556283E+02  0.23096664306E+02  0.51100000000E-03 0. -1.
        -11    1    3    3    0    0 -0.10537268685E+02 -0.51672534824E+01 -0.25954669684E+01  0.12019608518E+02  0.51100000000E-03 0.  1.
        -12    1    3    3    0    0 -0.13799450896E+01 -0.12570540081E+02  0.79461019823E+00  0.12670995689E+02  0.00000000000E+00 0.  1.
</event>
<event>
 7    1  0.3910751E-009  0.4778727E+02  0.7816164E-02  0.1312668E+00
        -11   -1    0    0    0    0  0.00000000000E+00  0.00000000000E+00  0.45593999997E+02  0.45594000000E+02  0.51100000000E-03 0. -1.
         11   -1    0    0    0    0 -0.00000000000E+00 -0.00000000000E+00 -0.45593999997E+02  0.45594000000E+02  0.51100000000E-03 0.  1.
    9900012    2    1    2    0    0 -0.10200208802E+02  0.37691756247E+02  0.18944937320E+02  0.47787269607E+02  0.19999993446E+02 0.  0.
        -12    1    1    2    0    0  0.10200208802E+02 -0.37691756247E+02 -0.18944937320E+02  0.43400730393E+02  0.00000000000E+00 0.  1.
         11    1    3    3    0    0 -0.27332378729E+01  0.21731902164E+02  0.12584950478E+02  0.25261178510E+02  0.51100000000E-03 0.  1.
        -11    1    3    3    0    0  0.18223292246E+01  0.99578638429E+01  0.52701698260E+01  0.11412914894E+02  0.51100000000E-03 0. -1.
         12    1    3    3    0    0 -0.92893001534E+01  0.60019902407E+01  0.10898170155E+01  0.11113176203E+02  0.00000000000E+00 0. -1.
</event>
<event>
 7    1  0.3910751E-009  0.4778727E+02  0.7816164E-02  0.1312668E+00
        -11   -1    0    0    0    0  0.00000000000E+00  0.00000000000E+00  0.45593999997E+02  0.45594000000E+02  0.51100000000E-03 0. -1.
         11   -1    0    0    0    0 -0.00000000000E+00 -0.00000000000E+00 -0.45593999997E+02  0.45594000000E+02  0.51100000000E-03 0.  1.
    9900012    2    1    2    0    0  0.18455442710E+01  0.40648322843E+02 -0.15097389023E+02  0.47787270295E+02  0.19999996584E+02 0.  0.
        -12    1    1    2    0    0 -0.18455442710E+01 -0.40648322843E+02  0.15097389023E+02  0.43400729705E+02  0.00000000000E+00 0.  1.
         11    1    3    3    0    0 -0.25349576813E+01  0.12692767516E+02 -0.10170904031E+01  0.12983328957E+02  0.51100000000E-03 0.  1.
        -11    1    3    3    0    0 -0.23913598767E+01  0.16745913609E+01  0.17316317822E+01  0.33943198400E+01  0.51100000000E-03 0. -1.
        -12    1    3    3    0    0  0.67718618289E+01  0.26280963966E+02 -0.15811930402E+02  0.31409621498E+02  0.00000000000E+00 0.  1.
</event>
<event>
 7    1  0.3910751E-009  0.4778728E+02  0.7816164E-02  0.1312668E+00
        -11   -1    0    0    0    0  0.00000000000E+00  0.00000000000E+00  0.45593999997E+02  0.45594000000E+02  0.51100000000E-03 0.  1.
         11   -1    0    0    0    0 -0.00000000000E+00 -0.00000000000E+00 -0.45593999997E+02  0.45594000000E+02  0.51100000000E-03 0. -1.
    9900012    2    1    2    0    0 -0.13621046323E+02 -0.38734829138E+02 -0.14060666358E+02  0.47787283073E+02  0.20000054845E+02 0.  0.
        -12    1    1    2    0    0  0.13621046323E+02  0.38734829138E+02  0.14060666358E+02  0.43400716927E+02  0.00000000000E+00 0.  1.
         11    1    3    3    0    0 -0.51060832106E+01 -0.16345465424E+02 -0.84668648567E+00  0.17145355172E+02  0.51100000000E-03 0. -1.
        -11    1    3    3    0    0 -0.41575867027E+01  0.13761929202E+00  0.90119052530E-02  0.41598735240E+01  0.51100000000E-03 0.  1.
         12    1    3    3    0    0 -0.43573764096E+01 -0.22526983006E+02 -0.13222991777E+02  0.26482054378E+02  0.00000000000E+00 0. -1.
</event>
<event>
 7    1  0.3910751E-009  0.4778727E+02  0.7816164E-02  0.1312668E+00
        -11   -1    0    0    0    0  0.00000000000E+00  0.00000000000E+00  0.45593999997E+02  0.45594000000E+02  0.51100000000E-03 0.  1.
         11   -1    0    0    0    0 -0.00000000000E+00 -0.00000000000E+00 -0.45593999997E+02  0.45594000000E+02  0.51100000000E-03 0. -1.
    9900012    2    1    2    0    0 -0.14349257780E+02 -0.37589847516E+02 -0.16270393255E+02  0.47787268074E+02  0.19999986455E+02 0.  0.
        -12    1    1    2    0    0  0.14349257780E+02  0.37589847516E+02  0.16270393255E+02  0.43400731926E+02  0.00000000000E+00 0.  1.
         11    1    3    3    0    0  0.18597084202E+01 -0.16988635069E+01  0.40185543763E+00  0.25507137583E+01  0.51100000000E-03 0. -1.
        -11    1    3    3    0    0 -0.38833394377E+01 -0.24033567792E+02 -0.59895344908E+01  0.25071243082E+02  0.51100000000E-03 0.  1.
         12    1    3    3    0    0 -0.12325626762E+02 -0.11857416217E+02 -0.10682714202E+02  0.20165311234E+02  0.00000000000E+00 0. -1.
</event>
<event>
 7    1  0.3910751E-009  0.4778728E+02  0.7816164E-02  0.1312668E+00
        -11   -1    0    0    0    0  0.00000000000E+00  0.00000000000E+00  0.45593999997E+02  0.45594000000E+02  0.51100000000E-03 0.  1.
         11   -1    0    0    0    0 -0.00000000000E+00 -0.00000000000E+00 -0.45593999997E+02  0.45594000000E+02  0.51100000000E-03 0. -1.
    9900012    2    1    2    0    0 -0.19279547030E+02  0.22946347674E+02 -0.31390874254E+02  0.47787276600E+02  0.20000025328E+02 0.  0.
        -12    1    1    2    0    0  0.19279547030E+02 -0.22946347674E+02  0.31390874254E+02  0.43400723400E+02  0.00000000000E+00 0.  1.
         11    1    3    3    0    0 -0.79821517181E+01  0.14885216015E+02 -0.27836145915E+02  0.32559720845E+02  0.51100000000E-03 0. -1.
        -11    1    3    3    0    0 -0.91188119873E+01  0.40928405899E+01 -0.38018450324E+01  0.10693834769E+02  0.51100000000E-03 0.  1.
        -12    1    3    3    0    0 -0.21785833248E+01  0.39682910697E+01  0.24711669339E+00  0.45337209858E+01  0.00000000000E+00 0.  1.
</event>
<event>
 7    1  0.4637974E-009  0.4778727E+02  0.7816164E-02  0.1312668E+00
        -11   -1    0    0    0    0  0.00000000000E+00  0.00000000000E+00  0.45593999997E+02  0.45594000000E+02  0.51100000000E-03 0. -1.
         11   -1    0    0    0    0 -0.00000000000E+00 -0.00000000000E+00 -0.45593999997E+02  0.45594000000E+02  0.51100000000E-03 0.  1.
    9900012    2    1    2    0    0  0.14984713911E+02  0.16508843505E+02  0.37236270332E+02  0.47787269671E+02  0.19999993737E+02 0.  0.
        -12    1    1    2    0    0 -0.14984713911E+02 -0.16508843505E+02 -0.37236270332E+02  0.43400730329E+02  0.00000000000E+00 0.  1.
         11    1    3    3    0    0 -0.21845807517E+01  0.21442777380E-01  0.56232978341E+01  0.60327714730E+01  0.51100000000E-03 0. -1.
        -11    1    3    3    0    0 -0.11070600171E+00  0.23862557580E+01 -0.70218027305E+00  0.24898854910E+01  0.51100000000E-03 0.  1.
         12    1    3    3    0    0  0.17280000664E+02  0.14101144970E+02  0.32315152771E+02  0.39264612707E+02  0.00000000000E+00 0. -1.
</event>
<event>
 7    1  0.3910751E-009  0.4778727E+02  0.7816164E-02  0.1312668E+00
        -11   -1    0    0    0    0  0.00000000000E+00  0.00000000000E+00  0.45593999997E+02  0.45594000000E+02  0.51100000000E-03 0.  1.
         11   -1    0    0    0    0 -0.00000000000E+00 -0.00000000000E+00 -0.45593999997E+02  0.45594000000E+02  0.51100000000E-03 0. -1.
    9900012    2    1    2    0    0 -0.31659857168E+02  0.24937232584E+02 -0.16106244021E+02  0.47787271650E+02  0.20000002762E+02 0.  0.
        -12    1    1    2    0    0  0.31659857168E+02 -0.24937232584E+02  0.16106244021E+02  0.43400728350E+02  0.00000000000E+00 0.  1.
         11    1    3    3    0    0 -0.56668077860E+01  0.14231258838E+02 -0.90308085710E+01  0.17781927407E+02  0.51100000000E-03 0. -1.
        -11    1    3    3    0    0 -0.41694151742E+01  0.32415775813E+01 -0.42283654359E+01  0.67654210978E+01  0.51100000000E-03 0.  1.
        -12    1    3    3    0    0 -0.21823634208E+02  0.74643961648E+01 -0.28470700136E+01  0.23239923146E+02  0.00000000000E+00 0.  1.
</event>
<event>
 7    1  0.3910751E-009  0.4778727E+02  0.7816164E-02  0.1312668E+00
        -11   -1    0    0    0    0  0.00000000000E+00  0.00000000000E+00  0.45593999997E+02  0.45594000000E+02  0.51100000000E-03 0. -1.
         11   -1    0    0    0    0 -0.00000000000E+00 -0.00000000000E+00 -0.45593999997E+02  0.45594000000E+02  0.51100000000E-03 0.  1.
    9900012    2    1    2    0    0 -0.41491737130E+02  0.73722570135E+00  0.12708870315E+02  0.47787272628E+02  0.20000007219E+02 0.  0.
        -12    1    1    2    0    0  0.41491737130E+02 -0.73722570135E+00 -0.12708870315E+02  0.43400727372E+02  0.00000000000E+00 0.  1.
         11    1    3    3    0    0 -0.57230564272E+01  0.15153582103E+01  0.62997585482E+01  0.86450357663E+01  0.51100000000E-03 0. -1.
        -11    1    3    3    0    0 -0.32248526001E+01 -0.10054320625E+01 -0.37516820461E+01  0.50483350088E+01  0.51100000000E-03 0.  1.
         12    1    3    3    0    0 -0.32543828102E+02  0.22729955358E+00  0.10160793812E+02  0.34093901853E+02  0.00000000000E+00 0. -1.
</event>
<event>
 7    1  0.3910751E-009  0.4778727E+02  0.7816164E-02  0.1312668E+00
        -11   -1    0    0    0    0  0.00000000000E+00  0.00000000000E+00  0.45593999997E+02  0.45594000000E+02  0.51100000000E-03 0.  1.
         11   -1    0    0    0    0 -0.00000000000E+00 -0.00000000000E+00 -0.45593999997E+02  0.45594000000E+02  0.51100000000E-03 0. -1.
    9900012    2    1    2    0    0  0.43194272864E+02  0.14907036040E+01 -0.39567683830E+01  0.47787269343E+02  0.19999992243E+02 0.  0.
        -12    1    1    2    0    0 -0.43194272864E+02 -0.14907036040E+01  0.39567683830E+01  0.43400730657E+02  0.00000000000E+00 0.  1.
         11    1    3    3    0    0  0.11737678410E+02  0.44385564436E+01 -0.56141271872E+01  0.13747447112E+02  0.51100000000E-03 0.  1.
        -11    1    3    3    0    0  0.23631264748E+02 -0.28370727348E+01 -0.43229332840E+01  0.24190357743E+02  0.51100000000E-03 0. -1.
        -12    1    3    3    0    0  0.78253297062E+01 -0.11078010477E+00  0.59802920882E+01  0.98494644881E+01  0.00000000000E+00 0.  1.
</event>
<event>
 7    1  0.3910751E-009  0.4778727E+02  0.7816164E-02  0.1312668E+00
        -11   -1    0    0    0    0  0.00000000000E+00  0.00000000000E+00  0.45593999997E+02  0.45594000000E+02  0.51100000000E-03 0.  1.
         11   -1    0    0    0    0 -0.00000000000E+00 -0.00000000000E+00 -0.45593999997E+02  0.45594000000E+02  0.51100000000E-03 0. -1.
    9900012    2    1    2    0    0  0.18615591279E+02  0.29186840970E+02 -0.26176539220E+02  0.47787272702E+02  0.20000007557E+02 0.  0.
        -12    1    1    2    0    0 -0.18615591279E+02 -0.29186840970E+02  0.26176539220E+02  0.43400727298E+02  0.00000000000E+00 0.  1.
         11    1    3    3    0    0  0.10844132244E+02  0.15583796410E+02 -0.18265443124E+02  0.26345328380E+02  0.51100000000E-03 0. -1.
        -11    1    3    3    0    0  0.10277768321E+02  0.65802267846E+01 -0.65892781422E+01  0.13869048017E+02  0.51100000000E-03 0.  1.
         12    1    3    3    0    0 -0.25063092861E+01  0.70228177755E+01 -0.13218179540E+01  0.75728963051E+01  0.00000000000E+00 0. -1.
</event>
<event>
 7    1  0.3910751E-009  0.4778728E+02  0.7816164E-02  0.1312668E+00
        -11   -1    0    0    0    0  0.00000000000E+00  0.00000000000E+00  0.45593999997E+02  0.45594000000E+02  0.51100000000E-03 0.  1.
         11   -1    0    0    0    0 -0.00000000000E+00 -0.00000000000E+00 -0.45593999997E+02  0.45594000000E+02  0.51100000000E-03 0. -1.
    9900012    2    1    2    0    0  0.32875355353E+02 -0.29578730698E+01 -0.28179507094E+02  0.47787278546E+02  0.20000034201E+02 0.  0.
        -12    1    1    2    0    0 -0.32875355353E+02  0.29578730698E+01  0.28179507094E+02  0.43400721454E+02  0.00000000000E+00 0.  1.
         11    1    3    3    0    0  0.27468051497E+01 -0.29384054161E+00 -0.85352648013E+01  0.89711775305E+01  0.51100000000E-03 0. -1.
        -11    1    3    3    0    0  0.27249890753E+01  0.43851681828E+01 -0.35202430577E+01  0.62487900348E+01  0.51100000000E-03 0.  1.
        -12    1    3    3    0    0  0.27403561128E+02 -0.70492007110E+01 -0.16123999235E+02  0.32567310980E+02  0.00000000000E+00 0.  1.
</event>
<event>
 7    1  0.3910751E-009  0.4778729E+02  0.7816164E-02  0.1312668E+00
        -11   -1    0    0    0    0  0.00000000000E+00  0.00000000000E+00  0.45593999997E+02  0.45594000000E+02  0.51100000000E-03 0.  1.
         11   -1    0    0    0    0 -0.00000000000E+00 -0.00000000000E+00 -0.45593999997E+02  0.45594000000E+02  0.51100000000E-03 0. -1.
    9900012    2    1    2    0    0 -0.26011126805E+02  0.14583037428E+02 -0.31533753165E+02  0.47787293935E+02  0.20000104365E+02 0.  0.
        -12    1    1    2    0    0  0.26011126805E+02 -0.14583037428E+02  0.31533753165E+02  0.43400706065E+02  0.00000000000E+00 0.  1.
         11    1    3    3    0    0 -0.46919981824E+01  0.11159420546E+02 -0.76808203452E+01  0.14336754002E+02  0.51100000000E-03 0. -1.
        -11    1    3    3    0    0 -0.20281476066E+01 -0.17188627294E+01 -0.46277652285E+00  0.26985244427E+01  0.51100000000E-03 0.  1.
        -12    1    3    3    0    0 -0.19290981016E+02  0.51424796111E+01 -0.23390156297E+02  0.30752015490E+02  0.00000000000E+00 0.  1.
</event>
<event>
 7    1  0.3910751E-009  0.4778726E+02  0.7816164E-02  0.1312668E+00
        -11   -1    0    0    0    0  0.00000000000E+00  0.00000000000E+00  0.45593999997E+02  0.45594000000E+02  0.51100000000E-03 0.  1.
         11   -1    0    0    0    0 -0.00000000000E+00 -0.00000000000E+00 -0.45593999997E+02  0.45594000000E+02  0.51100000000E-03 0. -1.
    9900012    2    1    2    0    0  0.42670279564E+02 -0.97126100889E+00 -0.78694226256E+01  0.47787263618E+02  0.19999966141E+02 0.  0.
        -12    1    1    2    0    0 -0.42670279564E+02  0.97126100889E+00  0.78694226256E+01  0.43400736382E+02  0.00000000000E+00 0.  1.
         11    1    3    3    0    0  0.17117582151E+02 -0.20031321204E+00 -0.76689268740E+01  0.18758043175E+02  0.51100000000E-03 0. -1.
        -11    1    3    3    0    0  0.18194975270E+02  0.57869101148E+01 -0.11491797378E+01  0.19127625783E+02  0.51100000000E-03 0.  1.
         12    1    3    3    0    0  0.73577221428E+01 -0.65578579117E+01  0.94868398616E+00  0.99015946607E+01  0.00000000000E+00 0. -1.
</event>
<event>
 7    1  0.3910751E-009  0.4778727E+02  0.7816164E-02  0.1312668E+00
        -11   -1    0    0    0    0  0.00000000000E+00  0.00000000000E+00  0.45593999997E+02  0.45594000000E+02  0.51100000000E-03 0.  1.
         11   -1    0    0    0    0 -0.00000000000E+00 -0.00000000000E+00 -0.45593999997E+02  0.45594000000E+02  0.51100000000E-03 0. -1.
    9900012    2    1    2    0    0 -0.28250011579E+02 -0.30023498289E+02 -0.13570165269E+02  0.47787274325E+02  0.20000014957E+02 0.  0.
        -12    1    1    2    0    0  0.28250011579E+02  0.30023498289E+02  0.13570165269E+02  0.43400725675E+02  0.00000000000E+00 0.  1.
         11    1    3    3    0    0 -0.11012458165E+02 -0.11499117018E+02 -0.90565863746E+01  0.18317360182E+02  0.51100000000E-03 0. -1.
        -11    1    3    3    0    0 -0.14074696816E+02 -0.14805499650E+02 -0.94670689428E+01  0.22515001776E+02  0.51100000000E-03 0.  1.
        -12    1    3    3    0    0 -0.31628565984E+01 -0.37188816209E+01  0.49534900483E+01  0.69549123668E+01  0.00000000000E+00 0.  1.
</event>
<event>
 7    1  0.3910751E-009  0.4778727E+02  0.7816164E-02  0.1312668E+00
        -11   -1    0    0    0    0  0.00000000000E+00  0.00000000000E+00  0.45593999997E+02  0.45594000000E+02  0.51100000000E-03 0.  1.
         11   -1    0    0    0    0 -0.00000000000E+00 -0.00000000000E+00 -0.45593999997E+02  0.45594000000E+02  0.51100000000E-03 0. -1.
    9900012    2    1    2    0    0  0.57288067781E+01 -0.32682123850E+02 -0.27976469079E+02  0.47787271106E+02  0.20000000280E+02 0.  0.
        -12    1    1    2    0    0 -0.57288067781E+01  0.32682123850E+02  0.27976469079E+02  0.43400728894E+02  0.00000000000E+00 0.  1.
         11    1    3    3    0    0 -0.24312010582E+01 -0.39605973170E+01 -0.63093944378E+01  0.78361679490E+01  0.51100000000E-03 0. -1.
        -11    1    3    3    0    0  0.42326228856E+01 -0.22757614387E+02 -0.23061834799E+02  0.32675255678E+02  0.51100000000E-03 0.  1.
        -12    1    3    3    0    0  0.39273849507E+01 -0.59639121460E+01  0.13947601578E+01  0.72758474787E+01  0.00000000000E+00 0.  1.
</event>
<event>
 7    1  0.3910751E-009  0.4778727E+02  0.7816164E-02  0.1312668E+00
        -11   -1    0    0    0    0  0.00000000000E+00  0.00000000000E+00  0.45593999997E+02  0.45594000000E+02  0.51100000000E-03 0. -1.
         11   -1    0    0    0    0 -0.00000000000E+00 -0.00000000000E+00 -0.45593999997E+02  0.45594000000E+02  0.51100000000E-03 0.  1.
    9900012    2    1    2    0    0 -0.60454877472E+01 -0.86535401269E+01  0.42097406532E+02  0.47787270565E+02  0.19999997813E+02 0.  0.
        -12    1    1    2    0    0  0.60454877472E+01  0.86535401269E+01 -0.42097406532E+02  0.43400729435E+02  0.00000000000E+00 0.  1.
         11    1    3    3    0    0 -0.22912868972E+01 -0.12790965369E+01  0.33668476661E+01  0.42686938359E+01  0.51100000000E-03 0. -1.
        -11    1    3    3    0    0  0.67464307625E+01 -0.27889706898E+01  0.22472670618E+02  0.23628660785E+02  0.51100000000E-03 0.  1.
        -12    1    3    3    0    0 -0.10500631612E+02 -0.45854729002E+01  0.16257888247E+02  0.19889915944E+02  0.00000000000E+00 0.  1.
</event>
<event>
 7    1  0.3910751E-009  0.4778730E+02  0.7816164E-02  0.1312668E+00
        -11   -1    0    0    0    0  0.00000000000E+00  0.00000000000E+00  0.45593999997E+02  0.45594000000E+02  0.51100000000E-03 0.  1.
         11   -1    0    0    0    0 -0.00000000000E+00 -0.00000000000E+00 -0.45593999997E+02  0.45594000000E+02  0.51100000000E-03 0. -1.
    9900012    2    1    2    0    0  0.28006164932E+02 -0.31794254699E+02 -0.94021872288E+01  0.47787296887E+02  0.20000117825E+02 0.  0.
        -12    1    1    2    0    0 -0.28006164932E+02  0.31794254699E+02  0.94021872288E+01  0.43400703113E+02  0.00000000000E+00 0.  1.
         11    1    3    3    0    0  0.36750752106E+01 -0.56174281227E+01 -0.71015383535E+01  0.97720787841E+01  0.51100000000E-03 0. -1.
        -11    1    3    3    0    0  0.15674890844E+00 -0.20071958780E+01  0.28039040393E+01  0.34518522036E+01  0.51100000000E-03 0.  1.
         12    1    3    3    0    0  0.24174340813E+02 -0.24169630698E+02 -0.51045529147E+01  0.34563365899E+02  0.00000000000E+00 0. -1.
</event>
<event>
 7    1  0.3910751E-009  0.4778727E+02  0.7816164E-02  0.1312668E+00
        -11   -1    0    0    0    0  0.00000000000E+00  0.00000000000E+00  0.45593999997E+02  0.45594000000E+02  0.51100000000E-03 0.  1.
         11   -1    0    0    0    0 -0.00000000000E+00 -0.00000000000E+00 -0.45593999997E+02  0.45594000000E+02  0.51100000000E-03 0. -1.
    9900012    2    1    2    0    0 -0.13276224633E+02 -0.10398784574E+02 -0.39990379353E+02  0.47787270722E+02  0.19999998528E+02 0.  0.
        -12    1    1    2    0    0  0.13276224633E+02  0.10398784574E+02  0.39990379353E+02  0.43400729278E+02  0.00000000000E+00 0.  1.
         11    1    3    3    0    0 -0.12990628344E+01 -0.31794446387E+01 -0.58616759129E+01  0.67937969668E+01  0.51100000000E-03 0. -1.
        -11    1    3    3    0    0  0.22800845322E+01 -0.24580259934E+01  0.35956661574E+00  0.33719379696E+01  0.51100000000E-03 0.  1.
        -12    1    3    3    0    0 -0.14257246331E+02 -0.47613139418E+01 -0.34488270056E+02  0.37621535785E+02  0.00000000000E+00 0.  1.
</event>
<event>
 7    1  0.3910751E-009  0.4778727E+02  0.7816164E-02  0.1312668E+00
        -11   -1    0    0    0    0  0.00000000000E+00  0.00000000000E+00  0.45593999997E+02  0.45594000000E+02  0.51100000000E-03 0.  1.
         11   -1    0    0    0    0 -0.00000000000E+00 -0.00000000000E+00 -0.45593999997E+02  0.45594000000E+02  0.51100000000E-03 0. -1.
    9900012    2    1    2    0    0 -0.38099220121E+02 -0.16893163208E+02  0.12111706276E+02  0.47787274592E+02  0.20000016176E+02 0.  0.
        -12    1    1    2    0    0  0.38099220121E+02  0.16893163208E+02 -0.12111706276E+02  0.43400725408E+02  0.00000000000E+00 0.  1.
         11    1    3    3    0    0 -0.64683044885E+01 -0.76118030098E+01  0.20585269861E+00  0.99910401666E+01  0.51100000000E-03 0. -1.
        -11    1    3    3    0    0  0.11818803057E+01 -0.11771742689E+01 -0.57833896890E+00  0.17655187737E+01  0.51100000000E-03 0.  1.
         12    1    3    3    0    0 -0.32812795938E+02 -0.81041859295E+01  0.12484192547E+02  0.36030715652E+02  0.00000000000E+00 0. -1.
</event>
<event>
 7    1  0.3910751E-009  0.4778727E+02  0.7816164E-02  0.1312668E+00
        -11   -1    0    0    0    0  0.00000000000E+00  0.00000000000E+00  0.45593999997E+02  0.45594000000E+02  0.51100000000E-03 0. -1.
         11   -1    0    0    0    0 -0.00000000000E+00 -0.00000000000E+00 -0.45593999997E+02  0.45594000000E+02  0.51100000000E-03 0.  1.
    9900012    2    1    2    0    0  0.37854348409E+02 -0.28292223096E+01  0.21039654547E+02  0.47787271253E+02  0.20000000950E+02 0.  0.
        -12    1    1    2    0    0 -0.37854348409E+02  0.28292223096E+01 -0.21039654547E+02  0.43400728747E+02  0.00000000000E+00 0.  1.
         11    1    3    3    0    0  0.98812667915E+01 -0.18064718691E+01  0.50606125625E+01  0.11247780838E+02  0.51100000000E-03 0. -1.
        -11    1    3    3    0    0  0.45047667006E+01 -0.69871482313E+01  0.64315182486E+01  0.10510832064E+02  0.51100000000E-03 0.  1.
        -12    1    3    3    0    0  0.23468314917E+02  0.59643977909E+01  0.95475237359E+01  0.26028658350E+02  0.00000000000E+00 0.  1.
</event>
<event>
 7    1  0.3910751E-009  0.4778727E+02  0.7816164E-02  0.1312668E+00
        -11   -1    0    0    0    0  0.00000000000E+00  0.00000000000E+00  0.45593999997E+02  0.45594000000E+02  0.51100000000E-03 0. -1.
         11   -1    0    0    0    0 -0.00000000000E+00 -0.00000000000E+00 -0.45593999997E+02  0.45594000000E+02  0.51100000000E-03 0.  1.
    9900012    2    1    2    0    0 -0.82221561806E+01 -0.25949102534E+02  0.33803307649E+02  0.47787269792E+02  0.19999994288E+02 0.  0.
        -12    1    1    2    0    0  0.82221561806E+01  0.25949102534E+02 -0.33803307649E+02  0.43400730208E+02  0.00000000000E+00 0.  1.
         11    1    3    3    0    0 -0.54765408190E+01 -0.88777704788E+01  0.18663283101E+02  0.21380492146E+02  0.51100000000E-03 0. -1.
        -11    1    3    3    0    0  0.44388009991E+01 -0.70195557903E+01  0.10066457987E+02  0.13050313961E+02  0.51100000000E-03 0.  1.
        -12    1    3    3    0    0 -0.71844163607E+01 -0.10051776265E+02  0.50735665606E+01  0.13356463685E+02  0.00000000000E+00 0.  1.
</event>
<event>
 7    1  0.3910751E-009  0.4778727E+02  0.7816164E-02  0.1312668E+00
        -11   -1    0    0    0    0  0.00000000000E+00  0.00000000000E+00  0.45593999997E+02  0.45594000000E+02  0.51100000000E-03 0. -1.
         11   -1    0    0    0    0 -0.00000000000E+00 -0.00000000000E+00 -0.45593999997E+02  0.45594000000E+02  0.51100000000E-03 0.  1.
    9900012    2    1    2    0    0 -0.40358196962E+02  0.11494253416E+02 -0.11077972135E+02  0.47787269704E+02  0.19999993888E+02 0.  0.
        -12    1    1    2    0    0  0.40358196962E+02 -0.11494253416E+02  0.11077972135E+02  0.43400730296E+02  0.00000000000E+00 0.  1.
         11    1    3    3    0    0 -0.83529348814E+01  0.31231313655E+01 -0.70042053486E+01  0.11339504552E+02  0.51100000000E-03 0. -1.
        -11    1    3    3    0    0 -0.15244091009E+02  0.51096238119E+01 -0.93210044021E+01  0.18584178473E+02  0.51100000000E-03 0.  1.
         12    1    3    3    0    0 -0.16761171072E+02  0.32614982387E+01  0.52472376153E+01  0.17863586679E+02  0.00000000000E+00 0. -1.
</event>
<event>
 7    1  0.3910751E-009  0.4778727E+02  0.7816164E-02  0.1312668E+00
        -11   -1    0    0    0    0  0.00000000000E+00  0.00000000000E+00  0.45593999997E+02  0.45594000000E+02  0.51100000000E-03 0.  1.
         11   -1    0    0    0    0 -0.00000000000E+00 -0.00000000000E+00 -0.45593999997E+02  0.45594000000E+02  0.51100000000E-03 0. -1.
    9900012    2    1    2    0    0 -0.24006556028E+02  0.71736229190E+01 -0.35437942439E+02  0.47787270024E+02  0.19999995349E+02 0.  0.
        -12    1    1    2    0    0  0.24006556028E+02 -0.71736229190E+01  0.35437942439E+02  0.43400729976E+02  0.00000000000E+00 0.  1.
         11    1    3    3    0    0 -0.14317754312E+02  0.57930306822E+01 -0.10514599086E+02  0.18684594918E+02  0.51100000000E-03 0. -1.
        -11    1    3    3    0    0 -0.17927396962E-01  0.27674051929E+00  0.11964516551E+01  0.12281708068E+01  0.51100000000E-03 0.  1.
         12    1    3    3    0    0 -0.96708743189E+01  0.11038517175E+01 -0.26119795008E+02  0.27874504300E+02  0.00000000000E+00 0. -1.
</event>
<event>
 7    1  0.3910751E-009  0.4778727E+02  0.7816164E-02  0.1312668E+00
        -11   -1    0    0    0    0  0.00000000000E+00  0.00000000000E+00  0.45593999997E+02  0.45594000000E+02  0.51100000000E-03 0.  1.
         11   -1    0    0    0    0 -0.00000000000E+00 -0.00000000000E+00 -0.45593999997E+02  0.45594000000E+02  0.51100000000E-03 0. -1.
    9900012    2    1    2    0    0  0.20316092784E+02 -0.41709166727E+01 -0.38124577998E+02  0.47787267063E+02  0.19999981847E+02 0.  0.
        -12    1    1    2    0    0 -0.20316092784E+02  0.41709166727E+01  0.38124577998E+02  0.43400732937E+02  0.00000000000E+00 0.  1.
         11    1    3    3    0    0  0.70898224196E+01 -0.42750717519E+01 -0.37411076579E+01  0.90850265379E+01  0.51100000000E-03 0. -1.
        -11    1    3    3    0    0  0.75684862203E+01 -0.50741373065E+01 -0.12178724922E+02  0.15210200329E+02  0.51100000000E-03 0.  1.
        -12    1    3    3    0    0  0.56577841445E+01  0.51782923857E+01 -0.22204745418E+02  0.23492040196E+02  0.00000000000E+00 0.  1.
</event>
<event>
 7    1  0.3910751E-009  0.4778731E+02  0.7816164E-02  0.1312668E+00
        -11   -1    0    0    0    0  0.00000000000E+00  0.00000000000E+00  0.45593999997E+02  0.45594000000E+02  0.51100000000E-03 0.  1.
         11   -1    0    0    0    0 -0.00000000000E+00 -0.00000000000E+00 -0.45593999997E+02  0.45594000000E+02  0.51100000000E-03 0. -1.
    9900012    2    1    2    0    0  0.50075884429E+01 -0.16160107723E+02 -0.39967418852E+02  0.47787313447E+02  0.20000193328E+02 0.  0.
        -12    1    1    2    0    0 -0.50075884429E+01  0.16160107723E+02  0.39967418852E+02  0.43400686553E+02  0.00000000000E+00 0.  1.
         11    1    3    3    0    0 -0.38111642009E+01 -0.12089805259E+00 -0.22904598325E+01  0.44481226839E+01  0.51100000000E-03 0. -1.
        -11    1    3    3    0    0  0.30448348826E+00 -0.26303530540E+01 -0.17307467503E+02  0.17508852019E+02  0.51100000000E-03 0.  1.
        -12    1    3    3    0    0  0.85142691556E+01 -0.13408856617E+02 -0.20369491516E+02  0.25830338744E+02  0.00000000000E+00 0.  1.
</event>
<event>
 7    1  0.3910751E-009  0.4778727E+02  0.7816164E-02  0.1312668E+00
        -11   -1    0    0    0    0  0.00000000000E+00  0.00000000000E+00  0.45593999997E+02  0.45594000000E+02  0.51100000000E-03 0.  1.
         11   -1    0    0    0    0 -0.00000000000E+00 -0.00000000000E+00 -0.45593999997E+02  0.45594000000E+02  0.51100000000E-03 0. -1.
    9900012    2    1    2    0    0  0.82237088235E+01  0.40742761839E+02  0.12490834163E+02  0.47787274578E+02  0.20000016113E+02 0.  0.
        -12    1    1    2    0    0 -0.82237088235E+01 -0.40742761839E+02 -0.12490834163E+02  0.43400725422E+02  0.00000000000E+00 0.  1.
         11    1    3    3    0    0  0.30536745449E+01  0.12084201778E+02  0.66584563515E+01  0.14131096988E+02  0.51100000000E-03 0. -1.
        -11    1    3    3    0    0  0.45652310560E+01  0.15787120586E+01  0.43962777630E+01  0.65315331117E+01  0.51100000000E-03 0.  1.
        -12    1    3    3    0    0  0.60480322255E+00  0.27079848002E+02  0.14361000481E+01  0.27124644478E+02  0.00000000000E+00 0.  1.
</event>
<event>
 7    1  0.3910751E-009  0.4778729E+02  0.7816164E-02  0.1312668E+00
        -11   -1    0    0    0    0  0.00000000000E+00  0.00000000000E+00  0.45593999997E+02  0.45594000000E+02  0.51100000000E-03 0.  1.
         11   -1    0    0    0    0 -0.00000000000E+00 -0.00000000000E+00 -0.45593999997E+02  0.45594000000E+02  0.51100000000E-03 0. -1.
    9900012    2    1    2    0    0  0.10574733750E+02  0.26842485254E+02 -0.32423416927E+02  0.47787286024E+02  0.20000068296E+02 0.  0.
        -12    1    1    2    0    0 -0.10574733750E+02 -0.26842485254E+02  0.32423416927E+02  0.43400713976E+02  0.00000000000E+00 0.  1.
         11    1    3    3    0    0 -0.69368701086E+00  0.16122874749E+02 -0.10151737402E+02  0.19065310498E+02  0.51100000000E-03 0. -1.
        -11    1    3    3    0    0  0.59429849115E+01  0.60241228572E+01 -0.44994581700E+01  0.95840622880E+01  0.51100000000E-03 0.  1.
         12    1    3    3    0    0  0.53254358491E+01  0.46954876478E+01 -0.17772221354E+02  0.19137913238E+02  0.00000000000E+00 0. -1.
</event>
<event>
 7    1  0.3910751E-009  0.4778727E+02  0.7816164E-02  0.1312668E+00
        -11   -1    0    0    0    0  0.00000000000E+00  0.00000000000E+00  0.45593999997E+02  0.45594000000E+02  0.51100000000E-03 0. -1.
         11   -1    0    0    0    0 -0.00000000000E+00 -0.00000000000E+00 -0.45593999997E+02  0.45594000000E+02  0.51100000000E-03 0.  1.
    9900012    2    1    2    0    0  0.33525485385E+02  0.18370324235E+02  0.20547415203E+02  0.47787271269E+02  0.20000001025E+02 0.  0.
        -12    1    1    2    0    0 -0.33525485385E+02 -0.18370324235E+02 -0.20547415203E+02  0.43400728731E+02  0.00000000000E+00 0.  1.
         11    1    3    3    0    0  0.50724963927E+01  0.53079075053E+01  0.17582450038E+01  0.75495382304E+01  0.51100000000E-03 0. -1.
        -11    1    3    3    0    0  0.17438831675E+02  0.16293100632E+02  0.10468173441E+02  0.26060710539E+02  0.51100000000E-03 0.  1.
        -12    1    3    3    0    0  0.11014157318E+02 -0.32306839016E+01  0.83209967582E+01  0.14177022499E+02  0.00000000000E+00 0.  1.
</event>
<event>
 7    1  0.3910751E-009  0.4778727E+02  0.7816164E-02  0.1312668E+00
        -11   -1    0    0    0    0  0.00000000000E+00  0.00000000000E+00  0.45593999997E+02  0.45594000000E+02  0.51100000000E-03 0.  1.
         11   -1    0    0    0    0 -0.00000000000E+00 -0.00000000000E+00 -0.45593999997E+02  0.45594000000E+02  0.51100000000E-03 0. -1.
    9900012    2    1    2    0    0  0.42231338217E+02  0.99404818837E+01  0.11506184670E+01  0.47787273847E+02  0.20000012780E+02 0.  0.
        -12    1    1    2    0    0 -0.42231338217E+02 -0.99404818837E+01 -0.11506184670E+01  0.43400726153E+02  0.00000000000E+00 0.  1.
         11    1    3    3    0    0  0.16169320825E+02 -0.42842428534E+01 -0.17832323605E+01  0.16822056672E+02  0.51100000000E-03 0. -1.
        -11    1    3    3    0    0  0.89832978207E+01  0.88257158045E+01 -0.97785927123E+00  0.12631275003E+02  0.51100000000E-03 0.  1.
        -12    1    3    3    0    0  0.17078719572E+02  0.53990089326E+01  0.39117100988E+01  0.18333942172E+02  0.00000000000E+00 0.  1.
</event>
<event>
 7    1  0.3910751E-009  0.4778729E+02  0.7816164E-02  0.1312668E+00
        -11   -1    0    0    0    0  0.00000000000E+00  0.00000000000E+00  0.45593999997E+02  0.45594000000E+02  0.51100000000E-03 0.  1.
         11   -1    0    0    0    0 -0.00000000000E+00 -0.00000000000E+00 -0.45593999997E+02  0.45594000000E+02  0.51100000000E-03 0. -1.
    9900012    2    1    2    0    0 -0.12698581160E+02 -0.14746774354E+01 -0.41475210368E+02  0.47787289037E+02  0.20000082036E+02 0.  0.
        -12    1    1    2    0    0  0.12698581160E+02  0.14746774354E+01  0.41475210368E+02  0.43400710963E+02  0.00000000000E+00 0.  1.
         11    1    3    3    0    0  0.27425242674E+01 -0.10746246632E+01  0.32056375870E+00  0.29629409222E+01  0.51100000000E-03 0.  1.
        -11    1    3    3    0    0 -0.57300733023E+01 -0.22226454788E+01 -0.19282701323E+02  0.20238489656E+02  0.51100000000E-03 0. -1.
        -12    1    3    3    0    0 -0.97110321255E+01  0.18225927065E+01 -0.22513072804E+02  0.24585858459E+02  0.00000000000E+00 0.  1.
</event>
<event>
 7    1  0.3910751E-009  0.4778727E+02  0.7816164E-02  0.1312668E+00
        -11   -1    0    0    0    0  0.00000000000E+00  0.00000000000E+00  0.45593999997E+02  0.45594000000E+02  0.51100000000E-03 0.  1.
         11   -1    0    0    0    0 -0.00000000000E+00 -0.00000000000E+00 -0.45593999997E+02  0.45594000000E+02  0.51100000000E-03 0. -1.
    9900012    2    1    2    0    0 -0.52412909965E+01 -0.17830094236E+02 -0.39220405092E+02  0.47787267664E+02  0.19999984585E+02 0.  0.
        -12    1    1    2    0    0  0.52412909965E+01  0.17830094236E+02  0.39220405092E+02  0.43400732336E+02  0.00000000000E+00 0.  1.
         11    1    3    3    0    0 -0.11336040043E+02 -0.79988574422E+01 -0.24532061190E+02  0.28183497844E+02  0.51100000000E-03 0. -1.
        -11    1    3    3    0    0 -0.18426539964E+00 -0.36047707491E+01 -0.19661170392E+01  0.41102241258E+01  0.51100000000E-03 0.  1.
         12    1    3    3    0    0  0.62790144462E+01 -0.62264660442E+01 -0.12722226863E+02  0.15493545694E+02  0.00000000000E+00 0. -1.
</event>
<event>
 7    1  0.3910751E-009  0.4778728E+02  0.7816164E-02  0.1312668E+00
        -11   -1    0    0    0    0  0.00000000000E+00  0.00000000000E+00  0.45593999997E+02  0.45594000000E+02  0.51100000000E-03 0.  1.
         11   -1    0    0    0    0 -0.00000000000E+00 -0.00000000000E+00 -0.45593999997E+02  0.45594000000E+02  0.51100000000E-03 0. -1.
    9900012    2    1    2    0    0 -0.17819009720E+02  0.39500255777E+02 -0.24156906944E+01  0.47787275636E+02  0.20000020933E+02 0.  0.
        -12    1    1    2    0    0  0.17819009720E+02 -0.39500255777E+02  0.24156906944E+01  0.43400724364E+02  0.00000000000E+00 0.  1.
         11    1    3    3    0    0  0.62444111246E+00  0.50066320347E+01 -0.51371339380E+01  0.72004469578E+01  0.51100000000E-03 0. -1.
        -11    1    3    3    0    0  0.20178036127E+00  0.66310694964E+01  0.24143615100E+01  0.70598115940E+01  0.51100000000E-03 0.  1.
         12    1    3    3    0    0 -0.18645231193E+02  0.27862554246E+02  0.30708173356E+00  0.33527017084E+02  0.00000000000E+00 0. -1.
</event>
<event>
 7    1  0.3910751E-009  0.4778727E+02  0.7816164E-02  0.1312668E+00
        -11   -1    0    0    0    0  0.00000000000E+00  0.00000000000E+00  0.45593999997E+02  0.45594000000E+02  0.51100000000E-03 0.  1.
         11   -1    0    0    0    0 -0.00000000000E+00 -0.00000000000E+00 -0.45593999997E+02  0.45594000000E+02  0.51100000000E-03 0. -1.
    9900012    2    1    2    0    0 -0.15848208597E+01 -0.41587914866E+02 -0.12310847677E+02  0.47787270852E+02  0.19999999122E+02 0.  0.
        -12    1    1    2    0    0  0.15848208597E+01  0.41587914866E+02  0.12310847677E+02  0.43400729148E+02  0.00000000000E+00 0.  1.
         11    1    3    3    0    0 -0.74158318317E+00 -0.10381366732E+02 -0.64885310979E+01  0.12264736317E+02  0.51100000000E-03 0. -1.
        -11    1    3    3    0    0 -0.53554044609E+01 -0.40170588035E+01  0.17890956738E+01  0.69295008450E+01  0.51100000000E-03 0.  1.
         12    1    3    3    0    0  0.45121667844E+01 -0.27189489330E+02 -0.76114122532E+01  0.28593033690E+02  0.00000000000E+00 0. -1.
</event>
<event>
 7    1  0.3910751E-009  0.4778727E+02  0.7816164E-02  0.1312668E+00
        -11   -1    0    0    0    0  0.00000000000E+00  0.00000000000E+00  0.45593999997E+02  0.45594000000E+02  0.51100000000E-03 0. -1.
         11   -1    0    0    0    0 -0.00000000000E+00 -0.00000000000E+00 -0.45593999997E+02  0.45594000000E+02  0.51100000000E-03 0.  1.
    9900012    2    1    2    0    0 -0.16362925820E+02  0.26694287973E+01  0.40109252404E+02  0.47787270514E+02  0.19999997584E+02 0.  0.
        -12    1    1    2    0    0  0.16362925820E+02 -0.26694287973E+01 -0.40109252404E+02  0.43400729486E+02  0.00000000000E+00 0.  1.
         11    1    3    3    0    0 -0.79518351613E+00 -0.31502524239E+01  0.14624244692E+02  0.14980819077E+02  0.51100000000E-03 0. -1.
        -11    1    3    3    0    0 -0.99712656666E+00 -0.16093749861E+01 -0.62775702158E+00  0.19945998032E+01  0.51100000000E-03 0.  1.
         12    1    3    3    0    0 -0.14570615737E+02  0.74290562073E+01  0.26112764734E+02  0.30811851634E+02  0.00000000000E+00 0. -1.
</event>
<event>
 7    1  0.3910751E-009  0.4778727E+02  0.7816164E-02  0.1312668E+00
        -11   -1    0    0    0    0  0.00000000000E+00  0.00000000000E+00  0.45593999997E+02  0.45594000000E+02  0.51100000000E-03 0. -1.
         11   -1    0    0    0    0 -0.00000000000E+00 -0.00000000000E+00 -0.45593999997E+02  0.45594000000E+02  0.51100000000E-03 0.  1.
    9900012    2    1    2    0    0 -0.10732935255E+02 -0.39011462711E+02  0.15701376901E+02  0.47787270068E+02  0.19999995549E+02 0.  0.
        -12    1    1    2    0    0  0.10732935255E+02  0.39011462711E+02 -0.15701376901E+02  0.43400729932E+02  0.00000000000E+00 0.  1.
         11    1    3    3    0    0 -0.86861764977E+00 -0.79260699253E+01 -0.42786395592E+01  0.90489688816E+01  0.51100000000E-03 0. -1.
        -11    1    3    3    0    0 -0.71237736794E+00 -0.56829897035E+00 -0.31414837055E+00  0.96391633137E+00  0.51100000000E-03 0.  1.
         12    1    3    3    0    0 -0.91519402373E+01 -0.30517093815E+02  0.20294164830E+02  0.37774384855E+02  0.00000000000E+00 0. -1.
</event>
<event>
 7    1  0.3910751E-009  0.4778727E+02  0.7816164E-02  0.1312668E+00
        -11   -1    0    0    0    0  0.00000000000E+00  0.00000000000E+00  0.45593999997E+02  0.45594000000E+02  0.51100000000E-03 0. -1.
         11   -1    0    0    0    0 -0.00000000000E+00 -0.00000000000E+00 -0.45593999997E+02  0.45594000000E+02  0.51100000000E-03 0.  1.
    9900012    2    1    2    0    0 -0.29096522733E+02  0.31998063436E+02  0.36248327682E+01  0.47787272916E+02  0.20000008534E+02 0.  0.
        -12    1    1    2    0    0  0.29096522733E+02 -0.31998063436E+02 -0.36248327682E+01  0.43400727084E+02  0.00000000000E+00 0.  1.
         11    1    3    3    0    0 -0.30601829278E+01  0.68532935817E+01  0.59486242691E+01  0.95769767371E+01  0.51100000000E-03 0. -1.
        -11    1    3    3    0    0 -0.34343044824E+01 -0.40534187526E+00 -0.21980854403E+01  0.40976004171E+01  0.51100000000E-03 0.  1.
        -12    1    3    3    0    0 -0.22602035323E+02  0.25550111730E+02 -0.12570606062E+00  0.34112695762E+02  0.00000000000E+00 0.  1.
</event>
<event>
 7    1  0.3910751E-009  0.4778727E+02  0.7816164E-02  0.1312668E+00
        -11   -1    0    0    0    0  0.00000000000E+00  0.00000000000E+00  0.45593999997E+02  0.45594000000E+02  0.51100000000E-03 0.  1.
         11   -1    0    0    0    0 -0.00000000000E+00 -0.00000000000E+00 -0.45593999997E+02  0.45594000000E+02  0.51100000000E-03 0. -1.
    9900012    2    1    2    0    0  0.27238502945E+02 -0.32745177245E+02 -0.83331033327E+01  0.47787270898E+02  0.19999999332E+02 0.  0.
        -12    1    1    2    0    0 -0.27238502945E+02  0.32745177245E+02  0.83331033327E+01  0.43400729102E+02  0.00000000000E+00 0.  1.
         11    1    3    3    0    0  0.10581614768E+01  0.10842242270E+01  0.18592612892E+01  0.23983537454E+01  0.51100000000E-03 0. -1.
        -11    1    3    3    0    0  0.13960059833E+01 -0.68363642550E+01 -0.45033879304E+01  0.83045296101E+01  0.51100000000E-03 0.  1.
         12    1    3    3    0    0  0.24784335485E+02 -0.26993037217E+02 -0.56889766915E+01  0.37084387542E+02  0.00000000000E+00 0. -1.
</event>
<event>
 7    1  0.3910751E-009  0.4778727E+02  0.7816164E-02  0.1312668E+00
        -11   -1    0    0    0    0  0.00000000000E+00  0.00000000000E+00  0.45593999997E+02  0.45594000000E+02  0.51100000000E-03 0.  1.
         11   -1    0    0    0    0 -0.00000000000E+00 -0.00000000000E+00 -0.45593999997E+02  0.45594000000E+02  0.51100000000E-03 0. -1.
    9900012    2    1    2    0    0  0.13536307688E+02  0.39214974259E+02 -0.12750584516E+02  0.47787271464E+02  0.20000001912E+02 0.  0.
        -12    1    1    2    0    0 -0.13536307688E+02 -0.39214974259E+02  0.12750584516E+02  0.43400728536E+02  0.00000000000E+00 0.  1.
         11    1    3    3    0    0 -0.30132233457E+01  0.53385263003E+01 -0.33097825946E+01  0.69666375731E+01  0.51100000000E-03 0. -1.
        -11    1    3    3    0    0 -0.69919627663E+00  0.10607643373E+02 -0.39454447350E+01  0.11339202255E+02  0.51100000000E-03 0.  1.
        -12    1    3    3    0    0  0.17248727310E+02  0.23268804586E+02 -0.54953571863E+01  0.29481431636E+02  0.00000000000E+00 0.  1.
</event>
<event>
 7    1  0.3910751E-009  0.4778726E+02  0.7816164E-02  0.1312668E+00
        -11   -1    0    0    0    0  0.00000000000E+00  0.00000000000E+00  0.45593999997E+02  0.45594000000E+02  0.51100000000E-03 0. -1.
         11   -1    0    0    0    0 -0.00000000000E+00 -0.00000000000E+00 -0.45593999997E+02  0.45594000000E+02  0.51100000000E-03 0.  1.
    9900012    2    1    2    0    0 -0.31276929455E+02 -0.28976528244E+02  0.81079214692E+01  0.47787263880E+02  0.19999967333E+02 0.  0.
        -12    1    1    2    0    0  0.31276929455E+02  0.28976528244E+02 -0.81079214692E+01  0.43400736120E+02  0.00000000000E+00 0.  1.
         11    1    3    3    0    0 -0.17711996615E+02 -0.17920772861E+02  0.59111370462E+00  0.25203538238E+02  0.51100000000E-03 0. -1.
        -11    1    3    3    0    0 -0.58383421323E+01 -0.12152021420E+02  0.44210471266E+01  0.14188147215E+02  0.51100000000E-03 0.  1.
        -12    1    3    3    0    0 -0.77265907081E+01  0.10962660367E+01  0.30957606379E+01  0.83955784268E+01  0.00000000000E+00 0.  1.
</event>
<event>
 7    1  0.3910751E-009  0.4778727E+02  0.7816164E-02  0.1312668E+00
        -11   -1    0    0    0    0  0.00000000000E+00  0.00000000000E+00  0.45593999997E+02  0.45594000000E+02  0.51100000000E-03 0.  1.
         11   -1    0    0    0    0 -0.00000000000E+00 -0.00000000000E+00 -0.45593999997E+02  0.45594000000E+02  0.51100000000E-03 0. -1.
    9900012    2    1    2    0    0 -0.24602019039E+02 -0.58759292007E+00 -0.35749387988E+02  0.47787270194E+02  0.19999996120E+02 0.  0.
        -12    1    1    2    0    0  0.24602019039E+02  0.58759292007E+00  0.35749387988E+02  0.43400729806E+02  0.00000000000E+00 0.  1.
         11    1    3    3    0    0 -0.18889052798E+02 -0.22071181272E+01 -0.23159714105E+02  0.29967316258E+02  0.51100000000E-03 0. -1.
        -11    1    3    3    0    0 -0.44049076240E+01 -0.35668876786E+01 -0.20985689101E+01  0.60439962458E+01  0.51100000000E-03 0.  1.
         12    1    3    3    0    0 -0.13080586177E+01  0.51864128857E+01 -0.10491104972E+02  0.11775957689E+02  0.00000000000E+00 0. -1.
</event>
<event>
 7    1  0.3910751E-009  0.4778727E+02  0.7816164E-02  0.1312668E+00
        -11   -1    0    0    0    0  0.00000000000E+00  0.00000000000E+00  0.45593999997E+02  0.45594000000E+02  0.51100000000E-03 0.  1.
         11   -1    0    0    0    0 -0.00000000000E+00 -0.00000000000E+00 -0.45593999997E+02  0.45594000000E+02  0.51100000000E-03 0. -1.
    9900012    2    1    2    0    0  0.34549985268E+02  0.18632099364E+02 -0.18513968555E+02  0.47787266822E+02  0.19999980748E+02 0.  0.
        -12    1    1    2    0    0 -0.34549985268E+02 -0.18632099364E+02  0.18513968555E+02  0.43400733178E+02  0.00000000000E+00 0.  1.
         11    1    3    3    0    0  0.84353005522E+01  0.90042479543E-01 -0.78143423657E+01  0.11498971690E+02  0.51100000000E-03 0. -1.
        -11    1    3    3    0    0  0.24847738287E+02  0.11832381180E+02 -0.10502977380E+02  0.29457221126E+02  0.51100000000E-03 0.  1.
        -12    1    3    3    0    0  0.12669464290E+01  0.67096757052E+01 -0.19664880897E+00  0.68310740061E+01  0.00000000000E+00 0.  1.
</event>
<event>
 7    1  0.3910751E-009  0.4778727E+02  0.7816164E-02  0.1312668E+00
        -11   -1    0    0    0    0  0.00000000000E+00  0.00000000000E+00  0.45593999997E+02  0.45594000000E+02  0.51100000000E-03 0. -1.
         11   -1    0    0    0    0 -0.00000000000E+00 -0.00000000000E+00 -0.45593999997E+02  0.45594000000E+02  0.51100000000E-03 0.  1.
    9900012    2    1    2    0    0  0.22971673456E+02  0.34636559206E+02  0.12499360277E+02  0.47787273942E+02  0.20000013212E+02 0.  0.
        -12    1    1    2    0    0 -0.22971673456E+02 -0.34636559206E+02 -0.12499360277E+02  0.43400726058E+02  0.00000000000E+00 0.  1.
         11    1    3    3    0    0  0.90383926613E+01  0.13389848022E+02  0.96018562246E+01  0.18792983136E+02  0.51100000000E-03 0. -1.
        -11    1    3    3    0    0 -0.14336906688E+01  0.37776212706E+01  0.40218863371E+01  0.57010052945E+01  0.51100000000E-03 0.  1.
        -12    1    3    3    0    0  0.15366971464E+02  0.17469089914E+02 -0.11243822851E+01  0.23293285511E+02  0.00000000000E+00 0.  1.
</event>
<event>
 7    1  0.3910751E-009  0.4778728E+02  0.7816164E-02  0.1312668E+00
        -11   -1    0    0    0    0  0.00000000000E+00  0.00000000000E+00  0.45593999997E+02  0.45594000000E+02  0.51100000000E-03 0. -1.
         11   -1    0    0    0    0 -0.00000000000E+00 -0.00000000000E+00 -0.45593999997E+02  0.45594000000E+02  0.51100000000E-03 0.  1.
    9900012    2    1    2    0    0  0.41719997134E+01 -0.13233616128E+02  0.41122839327E+02  0.47787284663E+02  0.20000062094E+02 0.  0.
        -12    1    1    2    0    0 -0.41719997134E+01  0.13233616128E+02 -0.41122839327E+02  0.43400715337E+02  0.00000000000E+00 0.  1.
         11    1    3    3    0    0  0.53055084253E+01 -0.39303369962E+01  0.16542367222E+02  0.17811397534E+02  0.51100000000E-03 0. -1.
        -11    1    3    3    0    0  0.50721578047E+01  0.73775359193E+00  0.98093810372E+01  0.11067746914E+02  0.51100000000E-03 0.  1.
         12    1    3    3    0    0 -0.62056665166E+01 -0.10041032723E+02  0.14771091068E+02  0.18908140215E+02  0.00000000000E+00 0. -1.
</event>
<event>
 7    1  0.3910751E-009  0.4778728E+02  0.7816164E-02  0.1312668E+00
        -11   -1    0    0    0    0  0.00000000000E+00  0.00000000000E+00  0.45593999997E+02  0.45594000000E+02  0.51100000000E-03 0.  1.
         11   -1    0    0    0    0 -0.00000000000E+00 -0.00000000000E+00 -0.45593999997E+02  0.45594000000E+02  0.51100000000E-03 0. -1.
    9900012    2    1    2    0    0  0.14728805314E+00 -0.41533363614E+01 -0.43201283849E+02  0.47787276240E+02  0.20000023689E+02 0.  0.
        -12    1    1    2    0    0 -0.14728805314E+00  0.41533363614E+01  0.43201283849E+02  0.43400723760E+02  0.00000000000E+00 0.  1.
         11    1    3    3    0    0  0.44428660452E+01 -0.17904937575E+01 -0.24159208728E+02  0.24629500466E+02  0.51100000000E-03 0. -1.
        -11    1    3    3    0    0  0.38945975393E+00 -0.67281839023E+01 -0.10615903414E+02  0.12574479834E+02  0.51100000000E-03 0.  1.
        -12    1    3    3    0    0 -0.46850377460E+01  0.43653412983E+01 -0.84261717066E+01  0.10583295940E+02  0.00000000000E+00 0.  1.
</event>
<event>
 7    1  0.3910751E-009  0.4778727E+02  0.7816164E-02  0.1312668E+00
        -11   -1    0    0    0    0  0.00000000000E+00  0.00000000000E+00  0.45593999997E+02  0.45594000000E+02  0.51100000000E-03 0.  1.
         11   -1    0    0    0    0 -0.00000000000E+00 -0.00000000000E+00 -0.45593999997E+02  0.45594000000E+02  0.51100000000E-03 0. -1.
    9900012    2    1    2    0    0 -0.28209746392E+02 -0.26478376813E+01 -0.32875860768E+02  0.47787273542E+02  0.20000011388E+02 0.  0.
        -12    1    1    2    0    0  0.28209746392E+02  0.26478376813E+01  0.32875860768E+02  0.43400726458E+02  0.00000000000E+00 0.  1.
         11    1    3    3    0    0 -0.13536840238E+02 -0.77794251516E+00 -0.18039571221E+02  0.22567174575E+02  0.51100000000E-03 0. -1.
        -11    1    3    3    0    0 -0.54986284773E+01  0.38645539861E+01 -0.12439176491E+02  0.14138698832E+02  0.51100000000E-03 0.  1.
         12    1    3    3    0    0 -0.91742776757E+01 -0.57344491522E+01 -0.23971130562E+01  0.11081400135E+02  0.00000000000E+00 0. -1.
</event>
<event>
 7    1  0.3910751E-009  0.4778727E+02  0.7816164E-02  0.1312668E+00
        -11   -1    0    0    0    0  0.00000000000E+00  0.00000000000E+00  0.45593999997E+02  0.45594000000E+02  0.51100000000E-03 0.  1.
         11   -1    0    0    0    0 -0.00000000000E+00 -0.00000000000E+00 -0.45593999997E+02  0.45594000000E+02  0.51100000000E-03 0. -1.
    9900012    2    1    2    0    0 -0.27958125928E+02 -0.32914206155E+02 -0.43152547467E+01  0.47787271944E+02  0.20000004103E+02 0.  0.
        -12    1    1    2    0    0  0.27958125928E+02  0.32914206155E+02  0.43152547467E+01  0.43400728056E+02  0.00000000000E+00 0.  1.
         11    1    3    3    0    0 -0.14559581957E+02 -0.85052428051E+01 -0.36370482994E+01  0.17249600069E+02  0.51100000000E-03 0. -1.
        -11    1    3    3    0    0 -0.14986194294E+02 -0.15989073921E+02  0.27924182896E+00  0.21916078128E+02  0.51100000000E-03 0.  1.
         12    1    3    3    0    0  0.15876503228E+01 -0.84198894290E+01 -0.95744827627E+00  0.86215937474E+01  0.00000000000E+00 0. -1.
</event>
<event>
 7    1  0.3910751E-009  0.4778727E+02  0.7816164E-02  0.1312668E+00
        -11   -1    0    0    0    0  0.00000000000E+00  0.00000000000E+00  0.45593999997E+02  0.45594000000E+02  0.51100000000E-03 0.  1.
         11   -1    0    0    0    0 -0.00000000000E+00 -0.00000000000E+00 -0.45593999997E+02  0.45594000000E+02  0.51100000000E-03 0. -1.
    9900012    2    1    2    0    0 -0.14343679211E+02  0.40571065934E+02 -0.56453931890E+01  0.47787274331E+02  0.20000014986E+02 0.  0.
        -12    1    1    2    0    0  0.14343679211E+02 -0.40571065934E+02  0.56453931890E+01  0.43400725669E+02  0.00000000000E+00 0.  1.
         11    1    3    3    0    0 -0.14597402649E+00  0.11940728634E+02  0.34144868368E+01  0.12420186365E+02  0.51100000000E-03 0. -1.
        -11    1    3    3    0    0 -0.41365591053E+01  0.73712306617E+01  0.29575459898E+01  0.89550679083E+01  0.51100000000E-03 0.  1.
         12    1    3    3    0    0 -0.10061146079E+02  0.21259106638E+02 -0.12017426016E+02  0.26412020057E+02  0.00000000000E+00 0. -1.
</event>
<event>
 7    1  0.3910751E-009  0.4778727E+02  0.7816164E-02  0.1312668E+00
        -11   -1    0    0    0    0  0.00000000000E+00  0.00000000000E+00  0.45593999997E+02  0.45594000000E+02  0.51100000000E-03 0.  1.
         11   -1    0    0    0    0 -0.00000000000E+00 -0.00000000000E+00 -0.45593999997E+02  0.45594000000E+02  0.51100000000E-03 0. -1.
    9900012    2    1    2    0    0 -0.30119708533E+02 -0.19925480731E+02 -0.24070760282E+02  0.47787272759E+02  0.20000007817E+02 0.  0.
        -12    1    1    2    0    0  0.30119708533E+02  0.19925480731E+02  0.24070760282E+02  0.43400727241E+02  0.00000000000E+00 0.  1.
         11    1    3    3    0    0 -0.14901815588E+02 -0.11120733473E+02 -0.92125669023E+01  0.20751053226E+02  0.51100000000E-03 0. -1.
        -11    1    3    3    0    0 -0.19044774998E+01 -0.35988806134E+01  0.23214275692E+01  0.46870035670E+01  0.51100000000E-03 0.  1.
         12    1    3    3    0    0 -0.13313415446E+02 -0.52058666448E+01 -0.17179620949E+02  0.22349215966E+02  0.00000000000E+00 0. -1.
</event>
<event>
 7    1  0.3910751E-009  0.4778727E+02  0.7816164E-02  0.1312668E+00
        -11   -1    0    0    0    0  0.00000000000E+00  0.00000000000E+00  0.45593999997E+02  0.45594000000E+02  0.51100000000E-03 0.  1.
         11   -1    0    0    0    0 -0.00000000000E+00 -0.00000000000E+00 -0.45593999997E+02  0.45594000000E+02  0.51100000000E-03 0. -1.
    9900012    2    1    2    0    0 -0.25413484280E+02 -0.31363305763E+02 -0.15941187440E+02  0.47787267418E+02  0.19999983468E+02 0.  0.
        -12    1    1    2    0    0  0.25413484280E+02  0.31363305763E+02  0.15941187440E+02  0.43400732582E+02  0.00000000000E+00 0.  1.
         11    1    3    3    0    0  0.12761993386E+01 -0.49477717698E+01  0.22850266055E+01  0.55973634049E+01  0.51100000000E-03 0.  1.
        -11    1    3    3    0    0 -0.98439381873E+01 -0.85225362964E+01 -0.32829270404E+01  0.13428118043E+02  0.51100000000E-03 0. -1.
        -12    1    3    3    0    0 -0.16845745431E+02 -0.17892997697E+02 -0.14943287005E+02  0.28761785971E+02  0.00000000000E+00 0.  1.
</event>
<event>
 7    1  0.3910751E-009  0.4778730E+02  0.7816164E-02  0.1312668E+00
        -11   -1    0    0    0    0  0.00000000000E+00  0.00000000000E+00  0.45593999997E+02  0.45594000000E+02  0.51100000000E-03 0. -1.
         11   -1    0    0    0    0 -0.00000000000E+00 -0.00000000000E+00 -0.45593999997E+02  0.45594000000E+02  0.51100000000E-03 0.  1.
    9900012    2    1    2    0    0  0.27080371781E+02  0.26840098019E+02  0.20733621066E+02  0.47787303692E+02  0.20000148855E+02 0.  0.
        -12    1    1    2    0    0 -0.27080371781E+02 -0.26840098019E+02 -0.20733621066E+02  0.43400696308E+02  0.00000000000E+00 0.  1.
         11    1    3    3    0    0  0.56364680519E+01  0.25535013719E+01  0.67426818989E+01  0.91517157302E+01  0.51100000000E-03 0. -1.
        -11    1    3    3    0    0  0.45262833761E+01 -0.11655378106E+00 -0.19541699132E+01  0.49314912851E+01  0.51100000000E-03 0.  1.
         12    1    3    3    0    0  0.16917620353E+02  0.24403150428E+02  0.15945109081E+02  0.33704096677E+02  0.00000000000E+00 0. -1.
</event>
<event>
 7    1  0.3910751E-009  0.4778727E+02  0.7816164E-02  0.1312668E+00
        -11   -1    0    0    0    0  0.00000000000E+00  0.00000000000E+00  0.45593999997E+02  0.45594000000E+02  0.51100000000E-03 0.  1.
         11   -1    0    0    0    0 -0.00000000000E+00 -0.00000000000E+00 -0.45593999997E+02  0.45594000000E+02  0.51100000000E-03 0. -1.
    9900012    2    1    2    0    0 -0.28188347389E+02 -0.32833829134E+02 -0.33136151860E+01  0.47787270631E+02  0.19999998115E+02 0.  0.
        -12    1    1    2    0    0  0.28188347389E+02  0.32833829134E+02  0.33136151860E+01  0.43400729369E+02  0.00000000000E+00 0.  1.
         11    1    3    3    0    0 -0.21298794817E+02 -0.15871099182E+02  0.27551459817E+01  0.26704330726E+02  0.51100000000E-03 0. -1.
        -11    1    3    3    0    0 -0.81704687591E+00  0.78325795850E+00  0.46167485989E+00  0.12223757869E+01  0.51100000000E-03 0.  1.
        -12    1    3    3    0    0 -0.60725056964E+01 -0.17745987911E+02 -0.65304360276E+01  0.19860564118E+02  0.00000000000E+00 0.  1.
</event>
<event>
 7    1  0.3910751E-009  0.4778727E+02  0.7816164E-02  0.1312668E+00
        -11   -1    0    0    0    0  0.00000000000E+00  0.00000000000E+00  0.45593999997E+02  0.45594000000E+02  0.51100000000E-03 0. -1.
         11   -1    0    0    0    0 -0.00000000000E+00 -0.00000000000E+00 -0.45593999997E+02  0.45594000000E+02  0.51100000000E-03 0.  1.
    9900012    2    1    2    0    0  0.21407788921E+02  0.36914429174E+02  0.79154753562E+01  0.47787271229E+02  0.20000000840E+02 0.  0.
        -12    1    1    2    0    0 -0.21407788921E+02 -0.36914429174E+02 -0.79154753562E+01  0.43400728771E+02  0.00000000000E+00 0.  1.
         11    1    3    3    0    0  0.19339205659E+02  0.15498312750E+02  0.30530518455E+01  0.24970456532E+02  0.51100000000E-03 0. -1.
        -11    1    3    3    0    0 -0.10915027930E+01  0.55917583237E+01 -0.71796930515E+00  0.57423531485E+01  0.51100000000E-03 0.  1.
         12    1    3    3    0    0  0.31600860557E+01  0.15824358100E+02  0.55803928158E+01  0.17074461548E+02  0.00000000000E+00 0. -1.
</event>
<event>
 7    1  0.3938587E-009  0.4778727E+02  0.7816164E-02  0.1312668E+00
        -11   -1    0    0    0    0  0.00000000000E+00  0.00000000000E+00  0.45593999997E+02  0.45594000000E+02  0.51100000000E-03 0.  1.
         11   -1    0    0    0    0 -0.00000000000E+00 -0.00000000000E+00 -0.45593999997E+02  0.45594000000E+02  0.51100000000E-03 0. -1.
    9900012    2    1    2    0    0  0.39561805685E+02  0.10829611762E+02 -0.14184725849E+02  0.47787269506E+02  0.19999992987E+02 0.  0.
        -12    1    1    2    0    0 -0.39561805685E+02 -0.10829611762E+02  0.14184725849E+02  0.43400730494E+02  0.00000000000E+00 0.  1.
         11    1    3    3    0    0  0.21932068523E+02  0.80336840673E+01 -0.52520131357E+01  0.23940328979E+02  0.51100000000E-03 0. -1.
        -11    1    3    3    0    0  0.79594609711E+01 -0.26442347686E+00  0.27038256317E+01  0.84103277007E+01  0.51100000000E-03 0.  1.
        -12    1    3    3    0    0  0.96702761911E+01  0.30603511713E+01 -0.11636538345E+02  0.15436612827E+02  0.00000000000E+00 0.  1.
</event>
<event>
 7    1  0.3910751E-009  0.4778727E+02  0.7816164E-02  0.1312668E+00
        -11   -1    0    0    0    0  0.00000000000E+00  0.00000000000E+00  0.45593999997E+02  0.45594000000E+02  0.51100000000E-03 0.  1.
         11   -1    0    0    0    0 -0.00000000000E+00 -0.00000000000E+00 -0.45593999997E+02  0.45594000000E+02  0.51100000000E-03 0. -1.
    9900012    2    1    2    0    0 -0.81654860341E+01 -0.40008412556E+02 -0.14706295490E+02  0.47787270001E+02  0.19999995242E+02 0.  0.
        -12    1    1    2    0    0  0.81654860341E+01  0.40008412556E+02  0.14706295490E+02  0.43400729999E+02  0.00000000000E+00 0.  1.
         11    1    3    3    0    0 -0.11514998255E+02 -0.11949265207E+02 -0.88762961119E+01  0.18819371848E+02  0.51100000000E-03 0. -1.
        -11    1    3    3    0    0  0.83113475063E-01 -0.69961447457E+01 -0.60957063270E+00  0.70231421579E+01  0.51100000000E-03 0.  1.
         12    1    3    3    0    0  0.32663987458E+01 -0.21063002603E+02 -0.52204287458E+01  0.21944755995E+02  0.00000000000E+00 0. -1.
</event>
<event>
 7    1  0.3910751E-009  0.4778727E+02  0.7816164E-02  0.1312668E+00
        -11   -1    0    0    0    0  0.00000000000E+00  0.00000000000E+00  0.45593999997E+02  0.45594000000E+02  0.51100000000E-03 0.  1.
         11   -1    0    0    0    0 -0.00000000000E+00 -0.00000000000E+00 -0.45593999997E+02  0.45594000000E+02  0.51100000000E-03 0. -1.
    9900012    2    1    2    0    0 -0.16053739817E+01 -0.13589109981E+02 -0.41187160009E+02  0.47787270913E+02  0.19999999401E+02 0.  0.
        -12    1    1    2    0    0  0.16053739817E+01  0.13589109981E+02  0.41187160009E+02  0.43400729087E+02  0.00000000000E+00 0.  1.
         11    1    3    3    0    0 -0.22379538468E+01 -0.36910395877E+01 -0.22660089574E-01  0.43165639575E+01  0.51100000000E-03 0. -1.
        -11    1    3    3    0    0 -0.39953073328E+01 -0.54588049740E+01 -0.13853139403E+02  0.15416565895E+02  0.51100000000E-03 0.  1.
         12    1    3    3    0    0  0.46278871979E+01 -0.44392654197E+01 -0.27311360516E+02  0.28054141060E+02  0.00000000000E+00 0. -1.
</event>
<event>
 7    1  0.3910751E-009  0.4778727E+02  0.7816164E-02  0.1312668E+00
        -11   -1    0    0    0    0  0.00000000000E+00  0.00000000000E+00  0.45593999997E+02  0.45594000000E+02  0.51100000000E-03 0.  1.
         11   -1    0    0    0    0 -0.00000000000E+00 -0.00000000000E+00 -0.45593999997E+02  0.45594000000E+02  0.51100000000E-03 0. -1.
    9900012    2    1    2    0    0  0.30421967080E+02 -0.20929253367E+02 -0.22805564165E+02  0.47787268619E+02  0.19999988940E+02 0.  0.
        -12    1    1    2    0    0 -0.30421967080E+02  0.20929253367E+02  0.22805564165E+02  0.43400731381E+02  0.00000000000E+00 0.  1.
         11    1    3    3    0    0  0.22469932680E+02 -0.13349329193E+02 -0.13836936610E+02  0.29573016072E+02  0.51100000000E-03 0. -1.
        -11    1    3    3    0    0  0.64649194773E+01 -0.31603318798E+00 -0.86358096204E+01  0.10792231877E+02  0.51100000000E-03 0.  1.
         12    1    3    3    0    0  0.14871149227E+01 -0.72638909861E+01 -0.33281793521E+00  0.74220206702E+01  0.00000000000E+00 0. -1.
</event>
<event>
 7    1  0.3910751E-009  0.4778727E+02  0.7816164E-02  0.1312668E+00
        -11   -1    0    0    0    0  0.00000000000E+00  0.00000000000E+00  0.45593999997E+02  0.45594000000E+02  0.51100000000E-03 0.  1.
         11   -1    0    0    0    0 -0.00000000000E+00 -0.00000000000E+00 -0.45593999997E+02  0.45594000000E+02  0.51100000000E-03 0. -1.
    9900012    2    1    2    0    0 -0.12788292289E+02  0.32712749410E+01 -0.41344669101E+02  0.47787270484E+02  0.19999997445E+02 0.  0.
        -12    1    1    2    0    0  0.12788292289E+02 -0.32712749410E+01  0.41344669101E+02  0.43400729516E+02  0.00000000000E+00 0.  1.
         11    1    3    3    0    0  0.27739748789E+01  0.62236204258E+01 -0.67407443013E+01  0.95846764072E+01  0.51100000000E-03 0. -1.
        -11    1    3    3    0    0 -0.73570306669E+00 -0.78948925164E+00 -0.37614515698E+01  0.39131918499E+01  0.51100000000E-03 0.  1.
        -12    1    3    3    0    0 -0.14826564101E+02 -0.21628562332E+01 -0.30842473230E+02  0.34289402227E+02  0.00000000000E+00 0.  1.
</event>
<event>
 7    1  0.3910751E-009  0.4778727E+02  0.7816164E-02  0.1312668E+00
        -11   -1    0    0    0    0  0.00000000000E+00  0.00000000000E+00  0.45593999997E+02  0.45594000000E+02  0.51100000000E-03 0. -1.
         11   -1    0    0    0    0 -0.00000000000E+00 -0.00000000000E+00 -0.45593999997E+02  0.45594000000E+02  0.51100000000E-03 0.  1.
    9900012    2    1    2    0    0 -0.16163478358E+01  0.43225247778E+02  0.35480398126E+01  0.47787271754E+02  0.20000003234E+02 0.  0.
        -12    1    1    2    0    0  0.16163478358E+01 -0.43225247778E+02 -0.35480398126E+01  0.43400728246E+02  0.00000000000E+00 0.  1.
         11    1    3    3    0    0 -0.12638916854E+01  0.21878162738E+02  0.18282648230E+01  0.21990770325E+02  0.51100000000E-03 0. -1.
        -11    1    3    3    0    0 -0.27750025456E+01  0.96259484356E+01 -0.58824782158E+01  0.11617360829E+02  0.51100000000E-03 0.  1.
         12    1    3    3    0    0  0.24225463952E+01  0.11721136605E+02  0.76022532055E+01  0.14179140599E+02  0.00000000000E+00 0. -1.
</event>
<event>
 7    1  0.4062668E-009  0.4778727E+02  0.7816164E-02  0.1312668E+00
        -11   -1    0    0    0    0  0.00000000000E+00  0.00000000000E+00  0.45593999997E+02  0.45594000000E+02  0.51100000000E-03 0. -1.
         11   -1    0    0    0    0 -0.00000000000E+00 -0.00000000000E+00 -0.45593999997E+02  0.45594000000E+02  0.51100000000E-03 0.  1.
    9900012    2    1    2    0    0 -0.18810438094E+01  0.64040799538E+01  0.42884412832E+02  0.47787269248E+02  0.19999991809E+02 0.  0.
        -12    1    1    2    0    0  0.18810438094E+01 -0.64040799538E+01 -0.42884412832E+02  0.43400730752E+02  0.00000000000E+00 0.  1.
         11    1    3    3    0    0 -0.31692840910E+01  0.86966494190E+00  0.29839643887E+02  0.30020077054E+02  0.51100000000E-03 0. -1.
        -11    1    3    3    0    0  0.20593517344E+00 -0.14753839141E+01  0.98948361401E+01  0.10006345461E+02  0.51100000000E-03 0.  1.
        -12    1    3    3    0    0  0.10823051081E+01  0.70097989260E+01  0.31499328045E+01  0.77608467323E+01  0.00000000000E+00 0.  1.
</event>
<event>
 7    1  0.3910751E-009  0.4778731E+02  0.7816164E-02  0.1312668E+00
        -11   -1    0    0    0    0  0.00000000000E+00  0.00000000000E+00  0.45593999997E+02  0.45594000000E+02  0.51100000000E-03 0. -1.
         11   -1    0    0    0    0 -0.00000000000E+00 -0.00000000000E+00 -0.45593999997E+02  0.45594000000E+02  0.51100000000E-03 0.  1.
    9900012    2    1    2    0    0 -0.21541720946E+02  0.36812422169E+02  0.80261708994E+01  0.47787313525E+02  0.20000193683E+02 0.  0.
        -12    1    1    2    0    0  0.21541720946E+02 -0.36812422169E+02 -0.80261708994E+01  0.43400686475E+02  0.00000000000E+00 0.  1.
         11    1    3    3    0    0 -0.12300652602E+02  0.68007353770E+01  0.75503026252E+01  0.15955034506E+02  0.51100000000E-03 0. -1.
        -11    1    3    3    0    0 -0.20347418232E+01  0.18409264410E+01 -0.14514540175E+00  0.27477721698E+01  0.51100000000E-03 0.  1.
        -12    1    3    3    0    0 -0.72063265210E+01  0.28170760351E+02  0.62101367595E+00  0.29084506849E+02  0.00000000000E+00 0.  1.
</event>
<event>
 7    1  0.3910751E-009  0.4778727E+02  0.7816164E-02  0.1312668E+00
        -11   -1    0    0    0    0  0.00000000000E+00  0.00000000000E+00  0.45593999997E+02  0.45594000000E+02  0.51100000000E-03 0.  1.
         11   -1    0    0    0    0 -0.00000000000E+00 -0.00000000000E+00 -0.45593999997E+02  0.45594000000E+02  0.51100000000E-03 0. -1.
    9900012    2    1    2    0    0  0.52110971732E+01 -0.27544949931E+02 -0.33132216612E+02  0.47787267540E+02  0.19999984020E+02 0.  0.
        -12    1    1    2    0    0 -0.52110971732E+01  0.27544949931E+02  0.33132216612E+02  0.43400732460E+02  0.00000000000E+00 0.  1.
         11    1    3    3    0    0  0.94091852049E+01 -0.10843081288E+02 -0.10267154168E+02  0.17649918782E+02  0.51100000000E-03 0. -1.
        -11    1    3    3    0    0  0.12749119071E+01 -0.81628844503E+01 -0.51832054617E+01  0.97531380611E+01  0.51100000000E-03 0.  1.
        -12    1    3    3    0    0 -0.54729999388E+01 -0.85389841930E+01 -0.17681856983E+02  0.20384210697E+02  0.00000000000E+00 0.  1.
</event>
<event>
 7    1  0.3910751E-009  0.4778727E+02  0.7816164E-02  0.1312668E+00
        -11   -1    0    0    0    0  0.00000000000E+00  0.00000000000E+00  0.45593999997E+02  0.45594000000E+02  0.51100000000E-03 0.  1.
         11   -1    0    0    0    0 -0.00000000000E+00 -0.00000000000E+00 -0.45593999997E+02  0.45594000000E+02  0.51100000000E-03 0. -1.
    9900012    2    1    2    0    0 -0.41741016325E+02  0.52365542967E+01  0.10671887064E+02  0.47787272838E+02  0.20000008176E+02 0.  0.
        -12    1    1    2    0    0  0.41741016325E+02 -0.52365542967E+01 -0.10671887064E+02  0.43400727162E+02  0.00000000000E+00 0.  1.
         11    1    3    3    0    0 -0.19577051175E+02  0.80548134010E+01  0.55102392628E+01  0.21874727167E+02  0.51100000000E-03 0. -1.
        -11    1    3    3    0    0 -0.16920500943E+02 -0.17082019030E+01  0.90749202700E+01  0.19276293317E+02  0.51100000000E-03 0.  1.
        -12    1    3    3    0    0 -0.52434642068E+01 -0.11100572013E+01 -0.39132724690E+01  0.66362523532E+01  0.00000000000E+00 0.  1.
</event>
<event>
 7    1  0.3910751E-009  0.4778727E+02  0.7816164E-02  0.1312668E+00
        -11   -1    0    0    0    0  0.00000000000E+00  0.00000000000E+00  0.45593999997E+02  0.45594000000E+02  0.51100000000E-03 0. -1.
         11   -1    0    0    0    0 -0.00000000000E+00 -0.00000000000E+00 -0.45593999997E+02  0.45594000000E+02  0.51100000000E-03 0.  1.
    9900012    2    1    2    0    0  0.31609219488E+02 -0.23956434550E+02  0.17622987766E+02  0.47787271771E+02  0.20000003314E+02 0.  0.
        -12    1    1    2    0    0 -0.31609219488E+02  0.23956434550E+02 -0.17622987766E+02  0.43400728229E+02  0.00000000000E+00 0.  1.
         11    1    3    3    0    0  0.18160393038E+02 -0.17069877717E+02  0.44382062270E+01  0.25315573771E+02  0.51100000000E-03 0.  1.
        -11    1    3    3    0    0  0.84094295467E+01 -0.82216484497E+01  0.50261496945E+01  0.12789690753E+02  0.51100000000E-03 0. -1.
        -12    1    3    3    0    0  0.50393969029E+01  0.13350916170E+01  0.81586318442E+01  0.96820072475E+01  0.00000000000E+00 0.  1.
</event>
<event>
 7    1  0.3910751E-009  0.4778727E+02  0.7816164E-02  0.1312668E+00
        -11   -1    0    0    0    0  0.00000000000E+00  0.00000000000E+00  0.45593999997E+02  0.45594000000E+02  0.51100000000E-03 0. -1.
         11   -1    0    0    0    0 -0.00000000000E+00 -0.00000000000E+00 -0.45593999997E+02  0.45594000000E+02  0.51100000000E-03 0.  1.
    9900012    2    1    2    0    0 -0.79974798848E+01 -0.30317906422E+02 -0.30008141923E+02  0.47787265951E+02  0.19999976778E+02 0.  0.
        -12    1    1    2    0    0  0.79974798848E+01  0.30317906422E+02  0.30008141923E+02  0.43400734049E+02  0.00000000000E+00 0.  1.
         11    1    3    3    0    0 -0.33376318876E+01 -0.18840188021E+02 -0.28274753304E+02  0.34140213033E+02  0.51100000000E-03 0. -1.
        -11    1    3    3    0    0 -0.11288130494E+00  0.59066856405E+00  0.13373843549E+00  0.61605013741E+00  0.51100000000E-03 0.  1.
         12    1    3    3    0    0 -0.45469666922E+01 -0.12068386965E+02 -0.18671270546E+01  0.13031002781E+02  0.00000000000E+00 0. -1.
</event>
<event>
 7    1  0.3910751E-009  0.4778728E+02  0.7816164E-02  0.1312668E+00
        -11   -1    0    0    0    0  0.00000000000E+00  0.00000000000E+00  0.45593999997E+02  0.45594000000E+02  0.51100000000E-03 0.  1.
         11   -1    0    0    0    0 -0.00000000000E+00 -0.00000000000E+00 -0.45593999997E+02  0.45594000000E+02  0.51100000000E-03 0. -1.
    9900012    2    1    2    0    0 -0.11683032101E+02  0.36573106683E+02 -0.20237031621E+02  0.47787276269E+02  0.20000023822E+02 0.  0.
        -12    1    1    2    0    0  0.11683032101E+02 -0.36573106683E+02  0.20237031621E+02  0.43400723731E+02  0.00000000000E+00 0.  1.
         11    1    3    3    0    0  0.14737315642E+01  0.13993212275E+02 -0.11878132691E+02  0.18413905370E+02  0.51100000000E-03 0.  1.
        -11    1    3    3    0    0 -0.88157654637E+01  0.14902123177E+02 -0.10562909434E+02  0.20282160927E+02  0.51100000000E-03 0. -1.
         12    1    3    3    0    0 -0.43409982013E+01  0.76777712314E+01  0.22040105033E+01  0.90912099725E+01  0.00000000000E+00 0. -1.
</event>
<event>
 7    1  0.3910751E-009  0.4778731E+02  0.7816164E-02  0.1312668E+00
        -11   -1    0    0    0    0  0.00000000000E+00  0.00000000000E+00  0.45593999997E+02  0.45594000000E+02  0.51100000000E-03 0.  1.
         11   -1    0    0    0    0 -0.00000000000E+00 -0.00000000000E+00 -0.45593999997E+02  0.45594000000E+02  0.51100000000E-03 0. -1.
    9900012    2    1    2    0    0  0.39075272397E+02 -0.16867285950E+02 -0.84992905501E+01  0.47787306595E+02  0.20000162087E+02 0.  0.
        -12    1    1    2    0    0 -0.39075272397E+02  0.16867285950E+02  0.84992905501E+01  0.43400693405E+02  0.00000000000E+00 0.  1.
         11    1    3    3    0    0  0.50869795750E+01 -0.11051685045E+01 -0.55428500771E+01  0.76040742933E+01  0.51100000000E-03 0. -1.
        -11    1    3    3    0    0  0.83444215414E+01 -0.11292669893E+02 -0.81201457056E+00  0.14064605650E+02  0.51100000000E-03 0.  1.
        -12    1    3    3    0    0  0.25643871280E+02 -0.44694475524E+01 -0.21444259025E+01  0.26118626651E+02  0.00000000000E+00 0.  1.
</event>
<event>
 7    1  0.3910751E-009  0.4778727E+02  0.7816164E-02  0.1312668E+00
        -11   -1    0    0    0    0  0.00000000000E+00  0.00000000000E+00  0.45593999997E+02  0.45594000000E+02  0.51100000000E-03 0.  1.
         11   -1    0    0    0    0 -0.00000000000E+00 -0.00000000000E+00 -0.45593999997E+02  0.45594000000E+02  0.51100000000E-03 0. -1.
    9900012    2    1    2    0    0 -0.36650020873E+02  0.14973194750E+02 -0.17782092064E+02  0.47787269716E+02  0.19999993945E+02 0.  0.
        -12    1    1    2    0    0  0.36650020873E+02 -0.14973194750E+02  0.17782092064E+02  0.43400730284E+02  0.00000000000E+00 0.  1.
         11    1    3    3    0    0 -0.11984213521E+02  0.21230669843E+01 -0.19442312699E+01  0.12325129720E+02  0.51100000000E-03 0. -1.
        -11    1    3    3    0    0 -0.67028525180E+01  0.83183287402E+01  0.59360024474E+00  0.10699307754E+02  0.51100000000E-03 0.  1.
         12    1    3    3    0    0 -0.17962954834E+02  0.45317990250E+01 -0.16431461039E+02  0.24762832242E+02  0.00000000000E+00 0. -1.
</event>
<event>
 7    1  0.3910751E-009  0.4778727E+02  0.7816164E-02  0.1312668E+00
        -11   -1    0    0    0    0  0.00000000000E+00  0.00000000000E+00  0.45593999997E+02  0.45594000000E+02  0.51100000000E-03 0.  1.
         11   -1    0    0    0    0 -0.00000000000E+00 -0.00000000000E+00 -0.45593999997E+02  0.45594000000E+02  0.51100000000E-03 0. -1.
    9900012    2    1    2    0    0  0.27409299205E+02  0.30908756394E+02 -0.13304236143E+02  0.47787267240E+02  0.19999982656E+02 0.  0.
        -12    1    1    2    0    0 -0.27409299205E+02 -0.30908756394E+02  0.13304236143E+02  0.43400732760E+02  0.00000000000E+00 0.  1.
         11    1    3    3    0    0  0.14094183811E+02  0.18567240265E+02 -0.42492637247E+01  0.23694823714E+02  0.51100000000E-03 0. -1.
        -11    1    3    3    0    0  0.65660121310E+00  0.28067158531E+01  0.30153940127E+01  0.41714961759E+01  0.51100000000E-03 0.  1.
         12    1    3    3    0    0  0.12658514181E+02  0.95348002752E+01 -0.12070366431E+02  0.19920947351E+02  0.00000000000E+00 0. -1.
</event>
<event>
 7    1  0.3910751E-009  0.4778727E+02  0.7816164E-02  0.1312668E+00
        -11   -1    0    0    0    0  0.00000000000E+00  0.00000000000E+00  0.45593999997E+02  0.45594000000E+02  0.51100000000E-03 0. -1.
         11   -1    0    0    0    0 -0.00000000000E+00 -0.00000000000E+00 -0.45593999997E+02  0.45594000000E+02  0.51100000000E-03 0.  1.
    9900012    2    1    2    0    0  0.23142672119E+02  0.15269216559E+02  0.33389984544E+02  0.47787270570E+02  0.19999997839E+02 0.  0.
        -12    1    1    2    0    0 -0.23142672119E+02 -0.15269216559E+02 -0.33389984544E+02  0.43400729430E+02  0.00000000000E+00 0.  1.
         11    1    3    3    0    0  0.40798786133E+01  0.47735470035E+01  0.15413707846E+01  0.64659094218E+01  0.51100000000E-03 0. -1.
        -11    1    3    3    0    0  0.55980970717E+01  0.21715384833E+01  0.28582209397E+00  0.60113197170E+01  0.51100000000E-03 0.  1.
         12    1    3    3    0    0  0.13464696434E+02  0.83241310718E+01  0.31562791666E+02  0.35310041432E+02  0.00000000000E+00 0. -1.
</event>
<event>
 7    1  0.3910751E-009  0.4778727E+02  0.7816164E-02  0.1312668E+00
        -11   -1    0    0    0    0  0.00000000000E+00  0.00000000000E+00  0.45593999997E+02  0.45594000000E+02  0.51100000000E-03 0.  1.
         11   -1    0    0    0    0 -0.00000000000E+00 -0.00000000000E+00 -0.45593999997E+02  0.45594000000E+02  0.51100000000E-03 0. -1.
    9900012    2    1    2    0    0 -0.16873192236E+02 -0.21608325187E+02 -0.33645191227E+02  0.47787271593E+02  0.20000002500E+02 0.  0.
        -12    1    1    2    0    0  0.16873192236E+02  0.21608325187E+02  0.33645191227E+02  0.43400728407E+02  0.00000000000E+00 0.  1.
         11    1    3    3    0    0 -0.11374609241E+02 -0.18826035165E+02 -0.24493148457E+02  0.32919836832E+02  0.51100000000E-03 0. -1.
        -11    1    3    3    0    0 -0.11908836405E+01 -0.12927163450E+01 -0.10066366166E+02  0.10218661725E+02  0.51100000000E-03 0.  1.
        -12    1    3    3    0    0 -0.43076993544E+01 -0.14895736770E+01  0.91432339704E+00  0.46487730362E+01  0.00000000000E+00 0.  1.
</event>
<event>
 7    1  0.3910751E-009  0.4778727E+02  0.7816164E-02  0.1312668E+00
        -11   -1    0    0    0    0  0.00000000000E+00  0.00000000000E+00  0.45593999997E+02  0.45594000000E+02  0.51100000000E-03 0.  1.
         11   -1    0    0    0    0 -0.00000000000E+00 -0.00000000000E+00 -0.45593999997E+02  0.45594000000E+02  0.51100000000E-03 0. -1.
    9900012    2    1    2    0    0  0.15922306124E+02  0.12170555213E+02 -0.38496512119E+02  0.47787266229E+02  0.19999978046E+02 0.  0.
        -12    1    1    2    0    0 -0.15922306124E+02 -0.12170555213E+02  0.38496512119E+02  0.43400733771E+02  0.00000000000E+00 0.  1.
         11    1    3    3    0    0  0.14446720633E+02  0.11863999609E+02 -0.37895054617E+02  0.42255146296E+02  0.51100000000E-03 0. -1.
        -11    1    3    3    0    0 -0.57070284237E+00  0.17651884140E+01 -0.19405545681E+01  0.26846497284E+01  0.51100000000E-03 0.  1.
        -12    1    3    3    0    0  0.20462883335E+01 -0.14586328098E+01  0.13390970660E+01  0.28474702053E+01  0.00000000000E+00 0.  1.
</event>
<event>
 7    1  0.3910751E-009  0.4778726E+02  0.7816164E-02  0.1312668E+00
        -11   -1    0    0    0    0  0.00000000000E+00  0.00000000000E+00  0.45593999997E+02  0.45594000000E+02  0.51100000000E-03 0.  1.
         11   -1    0    0    0    0 -0.00000000000E+00 -0.00000000000E+00 -0.45593999997E+02  0.45594000000E+02  0.51100000000E-03 0. -1.
    9900012    2    1    2    0    0 -0.24277681670E+02 -0.65242657480E+00 -0.35969329285E+02  0.47787261101E+02  0.19999954666E+02 0.  0.
        -12    1    1    2    0    0  0.24277681670E+02  0.65242657480E+00  0.35969329285E+02  0.43400738899E+02  0.00000000000E+00 0.  1.
         11    1    3    3    0    0 -0.11590924041E+02  0.35001518508E+01 -0.17979018926E+02  0.21675924545E+02  0.51100000000E-03 0. -1.
        -11    1    3    3    0    0  0.35170113976E+00  0.25670666401E+00 -0.10369367724E+02  0.10378505637E+02  0.51100000000E-03 0.  1.
        -12    1    3    3    0    0 -0.13038458769E+02 -0.44092850896E+01 -0.76209426355E+01  0.15732830919E+02  0.00000000000E+00 0.  1.
</event>
<event>
 7    1  0.3910751E-009  0.4778727E+02  0.7816164E-02  0.1312668E+00
        -11   -1    0    0    0    0  0.00000000000E+00  0.00000000000E+00  0.45593999997E+02  0.45594000000E+02  0.51100000000E-03 0.  1.
         11   -1    0    0    0    0 -0.00000000000E+00 -0.00000000000E+00 -0.45593999997E+02  0.45594000000E+02  0.51100000000E-03 0. -1.
    9900012    2    1    2    0    0 -0.13523393903E+02  0.40762457356E+02 -0.62580443583E+01  0.47787271532E+02  0.20000002224E+02 0.  0.
        -12    1    1    2    0    0  0.13523393903E+02 -0.40762457356E+02  0.62580443583E+01  0.43400728468E+02  0.00000000000E+00 0.  1.
         11    1    3    3    0    0  0.14426787444E+01  0.38501074650E+01 -0.67959071972E+01  0.79428587011E+01  0.51100000000E-03 0.  1.
        -11    1    3    3    0    0 -0.62009391167E+01  0.15523329294E+02  0.65390011249E+00  0.16728807008E+02  0.51100000000E-03 0. -1.
        -12    1    3    3    0    0 -0.87651335304E+01  0.21389020597E+02 -0.11603727356E+00  0.23115605823E+02  0.00000000000E+00 0.  1.
</event>
<event>
 7    1  0.3910751E-009  0.4778727E+02  0.7816164E-02  0.1312668E+00
        -11   -1    0    0    0    0  0.00000000000E+00  0.00000000000E+00  0.45593999997E+02  0.45594000000E+02  0.51100000000E-03 0. -1.
         11   -1    0    0    0    0 -0.00000000000E+00 -0.00000000000E+00 -0.45593999997E+02  0.45594000000E+02  0.51100000000E-03 0.  1.
    9900012    2    1    2    0    0  0.35293935835E+02  0.13182390297E+02  0.21544984253E+02  0.47787266514E+02  0.19999979342E+02 0.  0.
        -12    1    1    2    0    0 -0.35293935835E+02 -0.13182390297E+02 -0.21544984253E+02  0.43400733486E+02  0.00000000000E+00 0.  1.
         11    1    3    3    0    0  0.30816477249E+02  0.37359432733E+01  0.12126211943E+02  0.33326529351E+02  0.51100000000E-03 0.  1.
        -11    1    3    3    0    0  0.29821845003E+01  0.28743244915E+01  0.27020271467E+01  0.49453125926E+01  0.51100000000E-03 0. -1.
        -12    1    3    3    0    0  0.14952740858E+01  0.65721225319E+01  0.67167451630E+01  0.95154245702E+01  0.00000000000E+00 0.  1.
</event>
<event>
 7    1  0.3910751E-009  0.4778727E+02  0.7816164E-02  0.1312668E+00
        -11   -1    0    0    0    0  0.00000000000E+00  0.00000000000E+00  0.45593999997E+02  0.45594000000E+02  0.51100000000E-03 0.  1.
         11   -1    0    0    0    0 -0.00000000000E+00 -0.00000000000E+00 -0.45593999997E+02  0.45594000000E+02  0.51100000000E-03 0. -1.
    9900012    2    1    2    0    0 -0.20010373217E+02 -0.18735694470E+02 -0.33647909469E+02  0.47787273103E+02  0.20000009386E+02 0.  0.
        -12    1    1    2    0    0  0.20010373217E+02  0.18735694470E+02  0.33647909469E+02  0.43400726897E+02  0.00000000000E+00 0.  1.
         11    1    3    3    0    0  0.28629226907E+01 -0.47086826723E+01 -0.88404637654E+01  0.10417380606E+02  0.51100000000E-03 0. -1.
        -11    1    3    3    0    0 -0.31841525455E+01  0.32016821799E+00 -0.11200949612E+01  0.33905675195E+01  0.51100000000E-03 0.  1.
        -12    1    3    3    0    0 -0.19689143362E+02 -0.14347180015E+02 -0.23687350743E+02  0.33979324978E+02  0.00000000000E+00 0.  1.
</event>
<event>
 7    1  0.3910751E-009  0.4778725E+02  0.7816164E-02  0.1312668E+00
        -11   -1    0    0    0    0  0.00000000000E+00  0.00000000000E+00  0.45593999997E+02  0.45594000000E+02  0.51100000000E-03 0. -1.
         11   -1    0    0    0    0 -0.00000000000E+00 -0.00000000000E+00 -0.45593999997E+02  0.45594000000E+02  0.51100000000E-03 0.  1.
    9900012    2    1    2    0    0  0.18039049864E+02 -0.31981753489E+02  0.23138394074E+02  0.47787249355E+02  0.19999901109E+02 0.  0.
        -12    1    1    2    0    0 -0.18039049864E+02  0.31981753489E+02 -0.23138394074E+02  0.43400750645E+02  0.00000000000E+00 0.  1.
         11    1    3    3    0    0 -0.18029060662E+00 -0.18492368919E+01 -0.17896609407E+01  0.25797419113E+01  0.51100000000E-03 0. -1.
        -11    1    3    3    0    0  0.28949808505E+01 -0.29372256525E+01 -0.14166998992E+01  0.43606476037E+01  0.51100000000E-03 0.  1.
         12    1    3    3    0    0  0.15324359620E+02 -0.27195290945E+02  0.26344754913E+02  0.40846859840E+02  0.00000000000E+00 0. -1.
</event>
<event>
 7    1  0.3910751E-009  0.4778727E+02  0.7816164E-02  0.1312668E+00
        -11   -1    0    0    0    0  0.00000000000E+00  0.00000000000E+00  0.45593999997E+02  0.45594000000E+02  0.51100000000E-03 0.  1.
         11   -1    0    0    0    0 -0.00000000000E+00 -0.00000000000E+00 -0.45593999997E+02  0.45594000000E+02  0.51100000000E-03 0. -1.
    9900012    2    1    2    0    0  0.40382085499E+02 -0.23499885096E+01 -0.15728565081E+02  0.47787273799E+02  0.20000012559E+02 0.  0.
        -12    1    1    2    0    0 -0.40382085499E+02  0.23499885096E+01  0.15728565081E+02  0.43400726201E+02  0.00000000000E+00 0.  1.
         11    1    3    3    0    0  0.19568822159E+02 -0.37371290166E+01 -0.41168010451E+01  0.20343376934E+02  0.51100000000E-03 0. -1.
        -11    1    3    3    0    0  0.19691386656E+02  0.56261466890E+01 -0.94300230794E+01  0.22546165318E+02  0.51100000000E-03 0.  1.
         12    1    3    3    0    0  0.11218766847E+01 -0.42390061821E+01 -0.21817409562E+01  0.48977315471E+01  0.00000000000E+00 0. -1.
</event>
<event>
 7    1  0.3910751E-009  0.4778727E+02  0.7816164E-02  0.1312668E+00
        -11   -1    0    0    0    0  0.00000000000E+00  0.00000000000E+00  0.45593999997E+02  0.45594000000E+02  0.51100000000E-03 0. -1.
         11   -1    0    0    0    0 -0.00000000000E+00 -0.00000000000E+00 -0.45593999997E+02  0.45594000000E+02  0.51100000000E-03 0.  1.
    9900012    2    1    2    0    0 -0.39267998034E+02 -0.18467236708E+02  0.78035205368E+00  0.47787269009E+02  0.19999990721E+02 0.  0.
        -12    1    1    2    0    0  0.39267998034E+02  0.18467236708E+02 -0.78035205368E+00  0.43400730991E+02  0.00000000000E+00 0.  1.
         11    1    3    3    0    0 -0.11757920109E+02 -0.58983899222E+01 -0.28364212231E+01  0.13456781732E+02  0.51100000000E-03 0. -1.
        -11    1    3    3    0    0 -0.14655596641E+02 -0.99376365497E+01 -0.52800241456E+01  0.18477602342E+02  0.51100000000E-03 0.  1.
         12    1    3    3    0    0 -0.12854481284E+02 -0.26312102360E+01  0.88967974224E+01  0.15852884935E+02  0.00000000000E+00 0. -1.
</event>
<event>
 7    1  0.3910751E-009  0.4778727E+02  0.7816164E-02  0.1312668E+00
        -11   -1    0    0    0    0  0.00000000000E+00  0.00000000000E+00  0.45593999997E+02  0.45594000000E+02  0.51100000000E-03 0. -1.
         11   -1    0    0    0    0 -0.00000000000E+00 -0.00000000000E+00 -0.45593999997E+02  0.45594000000E+02  0.51100000000E-03 0.  1.
    9900012    2    1    2    0    0 -0.94073581167E+01  0.40575236014E+02  0.12197357390E+02  0.47787266232E+02  0.19999978057E+02 0.  0.
        -12    1    1    2    0    0  0.94073581167E+01 -0.40575236014E+02 -0.12197357390E+02  0.43400733768E+02  0.00000000000E+00 0.  1.
         11    1    3    3    0    0  0.11627660259E+01  0.10393393528E+02  0.63175465652E-02  0.10458235703E+02  0.51100000000E-03 0. -1.
        -11    1    3    3    0    0 -0.80563338964E+01  0.25184659750E+02  0.30566871341E+01  0.26617943930E+02  0.51100000000E-03 0.  1.
         12    1    3    3    0    0 -0.25137902462E+01  0.49971827361E+01  0.91343527093E+01  0.10711086598E+02  0.00000000000E+00 0. -1.
</event>
<event>
 7    1  0.3910751E-009  0.4778727E+02  0.7816164E-02  0.1312668E+00
        -11   -1    0    0    0    0  0.00000000000E+00  0.00000000000E+00  0.45593999997E+02  0.45594000000E+02  0.51100000000E-03 0. -1.
         11   -1    0    0    0    0 -0.00000000000E+00 -0.00000000000E+00 -0.45593999997E+02  0.45594000000E+02  0.51100000000E-03 0.  1.
    9900012    2    1    2    0    0  0.58271512198E+01  0.26016135529E+01  0.42929002505E+02  0.47787270277E+02  0.19999996499E+02 0.  0.
        -12    1    1    2    0    0 -0.58271512198E+01 -0.26016135529E+01 -0.42929002505E+02  0.43400729723E+02  0.00000000000E+00 0.  1.
         11    1    3    3    0    0  0.11028111358E+02  0.33978013270E+01  0.22691801356E+02  0.25457457513E+02  0.51100000000E-03 0.  1.
        -11    1    3    3    0    0  0.14905582886E+01 -0.18348546879E+00  0.98150799148E+01  0.99293114023E+01  0.51100000000E-03 0. -1.
        -12    1    3    3    0    0 -0.66915184272E+01 -0.61270230532E+00  0.10422121235E+02  0.12400501361E+02  0.00000000000E+00 0.  1.
</event>
<event>
 7    1  0.3910751E-009  0.4778727E+02  0.7816164E-02  0.1312668E+00
        -11   -1    0    0    0    0  0.00000000000E+00  0.00000000000E+00  0.45593999997E+02  0.45594000000E+02  0.51100000000E-03 0.  1.
         11   -1    0    0    0    0 -0.00000000000E+00 -0.00000000000E+00 -0.45593999997E+02  0.45594000000E+02  0.51100000000E-03 0. -1.
    9900012    2    1    2    0    0  0.30676769774E+02 -0.22327210812E+02 -0.21072610207E+02  0.47787269046E+02  0.19999990888E+02 0.  0.
        -12    1    1    2    0    0 -0.30676769774E+02  0.22327210812E+02  0.21072610207E+02  0.43400730954E+02  0.00000000000E+00 0.  1.
         11    1    3    3    0    0  0.23333736576E+02 -0.10016175026E+02 -0.15178078320E+02  0.29583121649E+02  0.51100000000E-03 0. -1.
        -11    1    3    3    0    0  0.11019432865E+01  0.63168249817E+00 -0.33880038311E+01  0.36182692003E+01  0.51100000000E-03 0.  1.
         12    1    3    3    0    0  0.62410899115E+01 -0.12942718284E+02 -0.25065280556E+01  0.14585878196E+02  0.00000000000E+00 0. -1.
</event>
<event>
 7    1  0.3910751E-009  0.4778727E+02  0.7816164E-02  0.1312668E+00
        -11   -1    0    0    0    0  0.00000000000E+00  0.00000000000E+00  0.45593999997E+02  0.45594000000E+02  0.51100000000E-03 0.  1.
         11   -1    0    0    0    0 -0.00000000000E+00 -0.00000000000E+00 -0.45593999997E+02  0.45594000000E+02  0.51100000000E-03 0. -1.
    9900012    2    1    2    0    0  0.28426712769E+02 -0.97021725777E+00 -0.32781158725E+02  0.47787266276E+02  0.19999978259E+02 0.  0.
        -12    1    1    2    0    0 -0.28426712769E+02  0.97021725777E+00  0.32781158725E+02  0.43400733724E+02  0.00000000000E+00 0.  1.
         11    1    3    3    0    0  0.55713937278E+01  0.17211344553E+01 -0.13380585529E+02  0.14595985792E+02  0.51100000000E-03 0. -1.
        -11    1    3    3    0    0  0.16384142136E+02  0.35266801481E+01 -0.76955243989E+01  0.18441764623E+02  0.51100000000E-03 0.  1.
         12    1    3    3    0    0  0.64711769058E+01 -0.62180318612E+01 -0.11705048798E+02  0.14749515861E+02  0.00000000000E+00 0. -1.
</event>
<event>
 7    1  0.3910751E-009  0.4778727E+02  0.7816164E-02  0.1312668E+00
        -11   -1    0    0    0    0  0.00000000000E+00  0.00000000000E+00  0.45593999997E+02  0.45594000000E+02  0.51100000000E-03 0. -1.
         11   -1    0    0    0    0 -0.00000000000E+00 -0.00000000000E+00 -0.45593999997E+02  0.45594000000E+02  0.51100000000E-03 0.  1.
    9900012    2    1    2    0    0  0.13770163271E+02  0.24735481794E+02 -0.32896230593E+02  0.47787269092E+02  0.19999991099E+02 0.  0.
        -12    1    1    2    0    0 -0.13770163271E+02 -0.24735481794E+02  0.32896230593E+02  0.43400730908E+02  0.00000000000E+00 0.  1.
         11    1    3    3    0    0 -0.27328182137E+00 -0.93072041605E+00 -0.23709771496E+01  0.25617291722E+01  0.51100000000E-03 0. -1.
        -11    1    3    3    0    0  0.49018230622E+01 -0.66906897977E+00 -0.79064584048E+01  0.93267147163E+01  0.51100000000E-03 0.  1.
         12    1    3    3    0    0  0.91416220303E+01  0.26335271190E+02 -0.22618795039E+02  0.35898825204E+02  0.00000000000E+00 0. -1.
</event>
<event>
 7    1  0.3910751E-009  0.4778727E+02  0.7816164E-02  0.1312668E+00
        -11   -1    0    0    0    0  0.00000000000E+00  0.00000000000E+00  0.45593999997E+02  0.45594000000E+02  0.51100000000E-03 0. -1.
         11   -1    0    0    0    0 -0.00000000000E+00 -0.00000000000E+00 -0.45593999997E+02  0.45594000000E+02  0.51100000000E-03 0.  1.
    9900012    2    1    2    0    0 -0.25079440673E+02 -0.27279382978E+02 -0.22593812406E+02  0.47787269140E+02  0.19999991317E+02 0.  0.
        -12    1    1    2    0    0  0.25079440673E+02  0.27279382978E+02  0.22593812406E+02  0.43400730860E+02  0.00000000000E+00 0.  1.
         11    1    3    3    0    0 -0.10417606563E+02 -0.84369686211E+01 -0.43067915932E+01  0.14080391333E+02  0.51100000000E-03 0. -1.
        -11    1    3    3    0    0 -0.20065122799E+01  0.26089449402E+01 -0.12018183147E+01  0.35038625477E+01  0.51100000000E-03 0.  1.
        -12    1    3    3    0    0 -0.12655321831E+02 -0.21451359298E+02 -0.17085202498E+02  0.30203015259E+02  0.00000000000E+00 0.  1.
</event>
<event>
 7    1  0.3910751E-009  0.4778725E+02  0.7816164E-02  0.1312668E+00
        -11   -1    0    0    0    0  0.00000000000E+00  0.00000000000E+00  0.45593999997E+02  0.45594000000E+02  0.51100000000E-03 0. -1.
         11   -1    0    0    0    0 -0.00000000000E+00 -0.00000000000E+00 -0.45593999997E+02  0.45594000000E+02  0.51100000000E-03 0.  1.
    9900012    2    1    2    0    0  0.40920829365E+02 -0.85548532800E+01  0.11658719504E+02  0.47787245041E+02  0.19999881438E+02 0.  0.
        -12    1    1    2    0    0 -0.40920829365E+02  0.85548532800E+01 -0.11658719504E+02  0.43400754959E+02  0.00000000000E+00 0.  1.
         11    1    3    3    0    0  0.10457125501E+01 -0.25239051943E+01  0.22964020081E+01  0.35689038388E+01  0.51100000000E-03 0.  1.
        -11    1    3    3    0    0  0.13637503761E+02 -0.96467825781E+01  0.43648692641E+01  0.17265399124E+02  0.51100000000E-03 0. -1.
        -12    1    3    3    0    0  0.26237613054E+02  0.36158344924E+01  0.49974482319E+01  0.26952942078E+02  0.00000000000E+00 0.  1.
</event>
<event>
 7    1  0.3910751E-009  0.4778727E+02  0.7816164E-02  0.1312668E+00
        -11   -1    0    0    0    0  0.00000000000E+00  0.00000000000E+00  0.45593999997E+02  0.45594000000E+02  0.51100000000E-03 0.  1.
         11   -1    0    0    0    0 -0.00000000000E+00 -0.00000000000E+00 -0.45593999997E+02  0.45594000000E+02  0.51100000000E-03 0. -1.
    9900012    2    1    2    0    0 -0.32076244611E+02  0.22212126295E+02 -0.19009452554E+02  0.47787270637E+02  0.19999998141E+02 0.  0.
        -12    1    1    2    0    0  0.32076244611E+02 -0.22212126295E+02  0.19009452554E+02  0.43400729363E+02  0.00000000000E+00 0.  1.
         11    1    3    3    0    0 -0.44201203326E+01  0.35198327893E+01  0.19250411094E+01  0.59692939409E+01  0.51100000000E-03 0. -1.
        -11    1    3    3    0    0 -0.19928322613E+01  0.66326430845E+01 -0.65418714420E+00  0.69563852530E+01  0.51100000000E-03 0.  1.
         12    1    3    3    0    0 -0.25663292017E+02  0.12059650421E+02 -0.20280306519E+02  0.34861591443E+02  0.00000000000E+00 0. -1.
</event>
<event>
 7    1  0.3910751E-009  0.4778727E+02  0.7816164E-02  0.1312668E+00
        -11   -1    0    0    0    0  0.00000000000E+00  0.00000000000E+00  0.45593999997E+02  0.45594000000E+02  0.51100000000E-03 0.  1.
         11   -1    0    0    0    0 -0.00000000000E+00 -0.00000000000E+00 -0.45593999997E+02  0.45594000000E+02  0.51100000000E-03 0. -1.
    9900012    2    1    2    0    0 -0.22708932257E+02 -0.19163589752E+01 -0.36935824629E+02  0.47787272161E+02  0.20000005089E+02 0.  0.
        -12    1    1    2    0    0  0.22708932257E+02  0.19163589752E+01  0.36935824629E+02  0.43400727839E+02  0.00000000000E+00 0.  1.
         11    1    3    3    0    0 -0.27685634017E+01  0.24428723482E+01 -0.52939692254E+01  0.64543534951E+01  0.51100000000E-03 0. -1.
        -11    1    3    3    0    0 -0.10145556024E+02 -0.37591559640E+01 -0.32563254048E+01  0.11298991814E+02  0.51100000000E-03 0.  1.
         12    1    3    3    0    0 -0.97948128309E+01 -0.60007535948E+00 -0.28385529999E+02  0.30033926852E+02  0.00000000000E+00 0. -1.
</event>
<event>
 7    1  0.3910751E-009  0.4778727E+02  0.7816164E-02  0.1312668E+00
        -11   -1    0    0    0    0  0.00000000000E+00  0.00000000000E+00  0.45593999997E+02  0.45594000000E+02  0.51100000000E-03 0.  1.
         11   -1    0    0    0    0 -0.00000000000E+00 -0.00000000000E+00 -0.45593999997E+02  0.45594000000E+02  0.51100000000E-03 0. -1.
    9900012    2    1    2    0    0 -0.25871004701E+02  0.11797918830E+02 -0.32789074108E+02  0.47787272427E+02  0.20000006303E+02 0.  0.
        -12    1    1    2    0    0  0.25871004701E+02 -0.11797918830E+02  0.32789074108E+02  0.43400727573E+02  0.00000000000E+00 0.  1.
         11    1    3    3    0    0 -0.59805398106E+01  0.94586884277E+01 -0.50453902694E+01  0.12275569495E+02  0.51100000000E-03 0. -1.
        -11    1    3    3    0    0 -0.50736615542E+01  0.42388156669E+01 -0.12662985291E+02  0.14284985004E+02  0.51100000000E-03 0.  1.
        -12    1    3    3    0    0 -0.14816803337E+02 -0.18995852642E+01 -0.15080698548E+02  0.21226717928E+02  0.00000000000E+00 0.  1.
</event>
<event>
 7    1  0.3910751E-009  0.4778727E+02  0.7816164E-02  0.1312668E+00
        -11   -1    0    0    0    0  0.00000000000E+00  0.00000000000E+00  0.45593999997E+02  0.45594000000E+02  0.51100000000E-03 0.  1.
         11   -1    0    0    0    0 -0.00000000000E+00 -0.00000000000E+00 -0.45593999997E+02  0.45594000000E+02  0.51100000000E-03 0. -1.
    9900012    2    1    2    0    0 -0.32673848038E+02 -0.12977718281E+01 -0.28536972152E+02  0.47787270318E+02  0.19999996690E+02 0.  0.
        -12    1    1    2    0    0  0.32673848038E+02  0.12977718281E+01  0.28536972152E+02  0.43400729682E+02  0.00000000000E+00 0.  1.
         11    1    3    3    0    0 -0.19640059024E+02  0.15808459956E+01 -0.14482941192E+02  0.24453764094E+02  0.51100000000E-03 0. -1.
        -11    1    3    3    0    0 -0.79179400701E+01  0.41351961613E+01 -0.33234678774E+01  0.95309527981E+01  0.51100000000E-03 0.  1.
         12    1    3    3    0    0 -0.51158489438E+01 -0.70138139850E+01 -0.10730563082E+02  0.13802553427E+02  0.00000000000E+00 0. -1.
</event>
<event>
 7    1  0.3910751E-009  0.4778727E+02  0.7816164E-02  0.1312668E+00
        -11   -1    0    0    0    0  0.00000000000E+00  0.00000000000E+00  0.45593999997E+02  0.45594000000E+02  0.51100000000E-03 0.  1.
         11   -1    0    0    0    0 -0.00000000000E+00 -0.00000000000E+00 -0.45593999997E+02  0.45594000000E+02  0.51100000000E-03 0. -1.
    9900012    2    1    2    0    0  0.22769519222E+01  0.42013609333E+02  0.10644032416E+02  0.47787270682E+02  0.19999998346E+02 0.  0.
        -12    1    1    2    0    0 -0.22769519222E+01 -0.42013609333E+02 -0.10644032416E+02  0.43400729318E+02  0.00000000000E+00 0.  1.
         11    1    3    3    0    0 -0.35378093251E+01  0.58389855622E+01  0.29405457578E+00  0.68334702436E+01  0.51100000000E-03 0. -1.
        -11    1    3    3    0    0 -0.42212103263E+01  0.40920070820E+01  0.38242033239E+00  0.58914670626E+01  0.51100000000E-03 0.  1.
        -12    1    3    3    0    0  0.10035971574E+02  0.32082616689E+02  0.99675575082E+01  0.35062333376E+02  0.00000000000E+00 0.  1.
</event>
<event>
 7    1  0.3910751E-009  0.4778727E+02  0.7816164E-02  0.1312668E+00
        -11   -1    0    0    0    0  0.00000000000E+00  0.00000000000E+00  0.45593999997E+02  0.45594000000E+02  0.51100000000E-03 0.  1.
         11   -1    0    0    0    0 -0.00000000000E+00 -0.00000000000E+00 -0.45593999997E+02  0.45594000000E+02  0.51100000000E-03 0. -1.
    9900012    2    1    2    0    0 -0.32186112644E+02 -0.24665124004E+02 -0.15469619647E+02  0.47787270498E+02  0.19999997509E+02 0.  0.
        -12    1    1    2    0    0  0.32186112644E+02  0.24665124004E+02  0.15469619647E+02  0.43400729502E+02  0.00000000000E+00 0.  1.
         11    1    3    3    0    0 -0.61416096001E+01 -0.46824994975E+01 -0.40485471587E+01  0.87198569015E+01  0.51100000000E-03 0. -1.
        -11    1    3    3    0    0 -0.47963777615E+00 -0.85269531454E+01 -0.62423892019E+01  0.10578582398E+02  0.51100000000E-03 0.  1.
         12    1    3    3    0    0 -0.25564865268E+02 -0.11455671361E+02 -0.51786832865E+01  0.28488831199E+02  0.00000000000E+00 0. -1.
</event>
<event>
 7    1  0.3910751E-009  0.4778727E+02  0.7816164E-02  0.1312668E+00
        -11   -1    0    0    0    0  0.00000000000E+00  0.00000000000E+00  0.45593999997E+02  0.45594000000E+02  0.51100000000E-03 0.  1.
         11   -1    0    0    0    0 -0.00000000000E+00 -0.00000000000E+00 -0.45593999997E+02  0.45594000000E+02  0.51100000000E-03 0. -1.
    9900012    2    1    2    0    0  0.37750724565E+02  0.11737519085E+02 -0.17909115437E+02  0.47787274485E+02  0.20000015687E+02 0.  0.
        -12    1    1    2    0    0 -0.37750724565E+02 -0.11737519085E+02  0.17909115437E+02  0.43400725515E+02  0.00000000000E+00 0.  1.
         11    1    3    3    0    0  0.18227598611E+02  0.14373920284E+02 -0.93948922455E+01  0.25042342862E+02  0.51100000000E-03 0. -1.
        -11    1    3    3    0    0  0.67587057392E+01  0.91304162074E-01 -0.67866791333E+01  0.95784891104E+01  0.51100000000E-03 0.  1.
        -12    1    3    3    0    0  0.12764420215E+02 -0.27277053611E+01 -0.17275440585E+01  0.13166442513E+02  0.00000000000E+00 0.  1.
</event>
<event>
 7    1  0.3910751E-009  0.4778727E+02  0.7816164E-02  0.1312668E+00
        -11   -1    0    0    0    0  0.00000000000E+00  0.00000000000E+00  0.45593999997E+02  0.45594000000E+02  0.51100000000E-03 0.  1.
         11   -1    0    0    0    0 -0.00000000000E+00 -0.00000000000E+00 -0.45593999997E+02  0.45594000000E+02  0.51100000000E-03 0. -1.
    9900012    2    1    2    0    0  0.36499759087E+02  0.20229583676E+02 -0.11922862885E+02  0.47787272720E+02  0.20000007638E+02 0.  0.
        -12    1    1    2    0    0 -0.36499759087E+02 -0.20229583676E+02  0.11922862885E+02  0.43400727280E+02  0.00000000000E+00 0.  1.
         11    1    3    3    0    0  0.10741412357E+02  0.11823431963E+02 -0.13556437386E+01  0.16031508133E+02  0.51100000000E-03 0. -1.
        -11    1    3    3    0    0  0.22945102282E+02  0.11356715891E+02 -0.75756624166E+01  0.26699126874E+02  0.51100000000E-03 0.  1.
         12    1    3    3    0    0  0.28132444478E+01 -0.29505641776E+01 -0.29915567294E+01  0.50566377124E+01  0.00000000000E+00 0. -1.
</event>
<event>
 7    1  0.3910751E-009  0.4778727E+02  0.7816164E-02  0.1312668E+00
        -11   -1    0    0    0    0  0.00000000000E+00  0.00000000000E+00  0.45593999997E+02  0.45594000000E+02  0.51100000000E-03 0.  1.
         11   -1    0    0    0    0 -0.00000000000E+00 -0.00000000000E+00 -0.45593999997E+02  0.45594000000E+02  0.51100000000E-03 0. -1.
    9900012    2    1    2    0    0  0.31162980643E+02 -0.28673187077E+01 -0.30071086238E+02  0.47787272970E+02  0.20000008781E+02 0.  0.
        -12    1    1    2    0    0 -0.31162980643E+02  0.28673187077E+01  0.30071086238E+02  0.43400727030E+02  0.00000000000E+00 0.  1.
         11    1    3    3    0    0  0.14808859591E+02  0.35130671980E+01 -0.42745646320E+01  0.15808727545E+02  0.51100000000E-03 0. -1.
        -11    1    3    3    0    0  0.70952897762E+01  0.85622742452E+00 -0.98920422297E+01  0.12203637251E+02  0.51100000000E-03 0.  1.
         12    1    3    3    0    0  0.92588312758E+01 -0.72366133302E+01 -0.15904479377E+02  0.19774908175E+02  0.00000000000E+00 0. -1.
</event>
<event>
 7    1  0.3910751E-009  0.4778727E+02  0.7816164E-02  0.1312668E+00
        -11   -1    0    0    0    0  0.00000000000E+00  0.00000000000E+00  0.45593999997E+02  0.45594000000E+02  0.51100000000E-03 0.  1.
         11   -1    0    0    0    0 -0.00000000000E+00 -0.00000000000E+00 -0.45593999997E+02  0.45594000000E+02  0.51100000000E-03 0. -1.
    9900012    2    1    2    0    0  0.10606946860E+02  0.37366813139E+02  0.19360713442E+02  0.47787271080E+02  0.20000000161E+02 0.  0.
        -12    1    1    2    0    0 -0.10606946860E+02 -0.37366813139E+02 -0.19360713442E+02  0.43400728920E+02  0.00000000000E+00 0.  1.
         11    1    3    3    0    0  0.20101861497E+01  0.14035456871E+02  0.26950935616E+01  0.14432547505E+02  0.51100000000E-03 0. -1.
        -11    1    3    3    0    0  0.99331179533E+01  0.14918568979E+02  0.44581351333E+01  0.18469041713E+02  0.51100000000E-03 0.  1.
        -12    1    3    3    0    0 -0.13363572431E+01  0.84127872889E+01  0.12207484747E+02  0.14885681862E+02  0.00000000000E+00 0.  1.
</event>
<event>
 7    1  0.3910751E-009  0.4778727E+02  0.7816164E-02  0.1312668E+00
        -11   -1    0    0    0    0  0.00000000000E+00  0.00000000000E+00  0.45593999997E+02  0.45594000000E+02  0.51100000000E-03 0. -1.
         11   -1    0    0    0    0 -0.00000000000E+00 -0.00000000000E+00 -0.45593999997E+02  0.45594000000E+02  0.51100000000E-03 0.  1.
    9900012    2    1    2    0    0 -0.38352113716E+02 -0.20106138861E+02 -0.29123875392E+01  0.47787269043E+02  0.19999990876E+02 0.  0.
        -12    1    1    2    0    0  0.38352113716E+02  0.20106138861E+02  0.29123875392E+01  0.43400730957E+02  0.00000000000E+00 0.  1.
         11    1    3    3    0    0 -0.14109508042E+02 -0.10847091823E+01 -0.45407198742E+01  0.14861794926E+02  0.51100000000E-03 0. -1.
        -11    1    3    3    0    0 -0.15438100478E+02 -0.48396043631E+01  0.32688039241E+00  0.16182199103E+02  0.51100000000E-03 0.  1.
        -12    1    3    3    0    0 -0.88045051962E+01 -0.14181825316E+02  0.13014519427E+01  0.16743275014E+02  0.00000000000E+00 0.  1.
</event>
<event>
 7    1  0.3910751E-009  0.4778727E+02  0.7816164E-02  0.1312668E+00
        -11   -1    0    0    0    0  0.00000000000E+00  0.00000000000E+00  0.45593999997E+02  0.45594000000E+02  0.51100000000E-03 0.  1.
         11   -1    0    0    0    0 -0.00000000000E+00 -0.00000000000E+00 -0.45593999997E+02  0.45594000000E+02  0.51100000000E-03 0. -1.
    9900012    2    1    2    0    0  0.70674544649E+01  0.36279723650E+02 -0.22747656757E+02  0.47787272487E+02  0.20000006575E+02 0.  0.
        -12    1    1    2    0    0 -0.70674544649E+01 -0.36279723650E+02  0.22747656757E+02  0.43400727513E+02  0.00000000000E+00 0.  1.
         11    1    3    3    0    0  0.67685344264E+01  0.33534417414E+02 -0.13670936261E+02  0.36841073656E+02  0.51100000000E-03 0. -1.
        -11    1    3    3    0    0  0.25699972944E+01  0.92991155513E+00 -0.22998733088E+01  0.35719797160E+01  0.51100000000E-03 0.  1.
         12    1    3    3    0    0 -0.22710772559E+01  0.18153946808E+01 -0.67768471875E+01  0.73742191147E+01  0.00000000000E+00 0. -1.
</event>
<event>
 7    1  0.3910751E-009  0.4778727E+02  0.7816164E-02  0.1312668E+00
        -11   -1    0    0    0    0  0.00000000000E+00  0.00000000000E+00  0.45593999997E+02  0.45594000000E+02  0.51100000000E-03 0. -1.
         11   -1    0    0    0    0 -0.00000000000E+00 -0.00000000000E+00 -0.45593999997E+02  0.45594000000E+02  0.51100000000E-03 0.  1.
    9900012    2    1    2    0    0  0.33700790397E+02  0.27320755698E+02 -0.12068629165E+01  0.47787268630E+02  0.19999988993E+02 0.  0.
        -12    1    1    2    0    0 -0.33700790397E+02 -0.27320755698E+02  0.12068629165E+01  0.43400731370E+02  0.00000000000E+00 0.  1.
         11    1    3    3    0    0  0.46232263716E+01  0.46605607403E+01 -0.25398398015E+01  0.70388802359E+01  0.51100000000E-03 0.  1.
        -11    1    3    3    0    0  0.32363054524E+00  0.88005135189E+01  0.23226709453E+00  0.88095245724E+01  0.51100000000E-03 0. -1.
         12    1    3    3    0    0  0.28753933481E+02  0.13859681439E+02  0.11007097905E+01  0.31938863822E+02  0.00000000000E+00 0. -1.
</event>
<event>
 7    1  0.3910751E-009  0.4778726E+02  0.7816164E-02  0.1312668E+00
        -11   -1    0    0    0    0  0.00000000000E+00  0.00000000000E+00  0.45593999997E+02  0.45594000000E+02  0.51100000000E-03 0. -1.
         11   -1    0    0    0    0 -0.00000000000E+00 -0.00000000000E+00 -0.45593999997E+02  0.45594000000E+02  0.51100000000E-03 0.  1.
    9900012    2    1    2    0    0  0.67561804714E+01 -0.36294321509E+02  0.22818855016E+02  0.47787263916E+02  0.19999967499E+02 0.  0.
        -12    1    1    2    0    0 -0.67561804714E+01  0.36294321509E+02 -0.22818855016E+02  0.43400736084E+02  0.00000000000E+00 0.  1.
         11    1    3    3    0    0  0.13895066715E+01 -0.20787944683E+02  0.12616127823E+02  0.24356437638E+02  0.51100000000E-03 0. -1.
        -11    1    3    3    0    0  0.79558814464E+01 -0.14751417006E+02  0.11610182318E+02  0.20388641127E+02  0.51100000000E-03 0.  1.
        -12    1    3    3    0    0 -0.25892076466E+01 -0.75495982022E+00 -0.14074551241E+01  0.30421851511E+01  0.00000000000E+00 0.  1.
</event>
<event>
 7    1  0.3910751E-009  0.4778727E+02  0.7816164E-02  0.1312668E+00
        -11   -1    0    0    0    0  0.00000000000E+00  0.00000000000E+00  0.45593999997E+02  0.45594000000E+02  0.51100000000E-03 0.  1.
         11   -1    0    0    0    0 -0.00000000000E+00 -0.00000000000E+00 -0.45593999997E+02  0.45594000000E+02  0.51100000000E-03 0. -1.
    9900012    2    1    2    0    0  0.17678511094E+02  0.33421920857E+01 -0.39495863258E+02  0.47787271700E+02  0.20000002990E+02 0.  0.
        -12    1    1    2    0    0 -0.17678511094E+02 -0.33421920857E+01  0.39495863258E+02  0.43400728300E+02  0.00000000000E+00 0.  1.
         11    1    3    3    0    0  0.65872194014E+01  0.83072796368E+01 -0.16146544425E+02  0.19316139665E+02  0.51100000000E-03 0. -1.
        -11    1    3    3    0    0 -0.18538981463E+01  0.15789320429E+00 -0.56745027151E+01  0.59717543423E+01  0.51100000000E-03 0.  1.
         12    1    3    3    0    0  0.12945189839E+02 -0.51229807553E+01 -0.17674816118E+02  0.22499377693E+02  0.00000000000E+00 0. -1.
</event>
<event>
 7    1  0.3910751E-009  0.4778727E+02  0.7816164E-02  0.1312668E+00
        -11   -1    0    0    0    0  0.00000000000E+00  0.00000000000E+00  0.45593999997E+02  0.45594000000E+02  0.51100000000E-03 0.  1.
         11   -1    0    0    0    0 -0.00000000000E+00 -0.00000000000E+00 -0.45593999997E+02  0.45594000000E+02  0.51100000000E-03 0. -1.
    9900012    2    1    2    0    0  0.37132277201E+02 -0.21561229724E+02  0.63190956849E+01  0.47787267199E+02  0.19999982468E+02 0.  0.
        -12    1    1    2    0    0 -0.37132277201E+02  0.21561229724E+02 -0.63190956849E+01  0.43400732801E+02  0.00000000000E+00 0.  1.
         11    1    3    3    0    0  0.60175972430E+01 -0.78050011074E+01 -0.33669164525E+01  0.10414684130E+02  0.51100000000E-03 0. -1.
        -11    1    3    3    0    0  0.18167077845E+01 -0.37824244660E+01  0.42076315913E+01  0.59423333704E+01  0.51100000000E-03 0.  1.
         12    1    3    3    0    0  0.29297972174E+02 -0.99738041507E+01  0.54783805460E+01  0.31430249699E+02  0.00000000000E+00 0. -1.
</event>
<event>
 7    1  0.3910751E-009  0.4778727E+02  0.7816164E-02  0.1312668E+00
        -11   -1    0    0    0    0  0.00000000000E+00  0.00000000000E+00  0.45593999997E+02  0.45594000000E+02  0.51100000000E-03 0.  1.
         11   -1    0    0    0    0 -0.00000000000E+00 -0.00000000000E+00 -0.45593999997E+02  0.45594000000E+02  0.51100000000E-03 0. -1.
    9900012    2    1    2    0    0 -0.38818697056E+01  0.57787918010E+01 -0.42838766157E+02  0.47787271516E+02  0.20000002150E+02 0.  0.
        -12    1    1    2    0    0  0.38818697056E+01 -0.57787918010E+01  0.42838766157E+02  0.43400728484E+02  0.00000000000E+00 0.  1.
         11    1    3    3    0    0 -0.24296383405E+01 -0.84906586408E+00 -0.30920891286E+01  0.40230673307E+01  0.51100000000E-03 0. -1.
        -11    1    3    3    0    0  0.16633932396E+01 -0.41629209868E+01 -0.24043091274E+02  0.24457453394E+02  0.51100000000E-03 0.  1.
         12    1    3    3    0    0 -0.31156246046E+01  0.10790778652E+02 -0.15703585754E+02  0.19306750792E+02  0.00000000000E+00 0. -1.
</event>
<event>
 7    1  0.3910751E-009  0.4778728E+02  0.7816164E-02  0.1312668E+00
        -11   -1    0    0    0    0  0.00000000000E+00  0.00000000000E+00  0.45593999997E+02  0.45594000000E+02  0.51100000000E-03 0.  1.
         11   -1    0    0    0    0 -0.00000000000E+00 -0.00000000000E+00 -0.45593999997E+02  0.45594000000E+02  0.51100000000E-03 0. -1.
    9900012    2    1    2    0    0  0.67553204290E+01 -0.24540734946E+01 -0.42801470244E+02  0.47787277819E+02  0.20000030887E+02 0.  0.
        -12    1    1    2    0    0 -0.67553204290E+01  0.24540734946E+01  0.42801470244E+02  0.43400722181E+02  0.00000000000E+00 0.  1.
         11    1    3    3    0    0 -0.19767019914E+01 -0.21143624953E+01 -0.13718531304E+02  0.14020555657E+02  0.51100000000E-03 0. -1.
        -11    1    3    3    0    0 -0.39787774093E+01 -0.10607942975E-01 -0.10691805695E+02  0.11408132690E+02  0.51100000000E-03 0.  1.
         12    1    3    3    0    0  0.12710799830E+02 -0.32910305637E+00 -0.18391133245E+02  0.22358589472E+02  0.00000000000E+00 0. -1.
</event>
<event>
 7    1  0.3910751E-009  0.4778728E+02  0.7816164E-02  0.1312668E+00
        -11   -1    0    0    0    0  0.00000000000E+00  0.00000000000E+00  0.45593999997E+02  0.45594000000E+02  0.51100000000E-03 0. -1.
         11   -1    0    0    0    0 -0.00000000000E+00 -0.00000000000E+00 -0.45593999997E+02  0.45594000000E+02  0.51100000000E-03 0.  1.
    9900012    2    1    2    0    0  0.11305865345E+02 -0.27590423943E+02  0.31536777334E+02  0.47787281006E+02  0.20000045420E+02 0.  0.
        -12    1    1    2    0    0 -0.11305865345E+02  0.27590423943E+02 -0.31536777334E+02  0.43400718994E+02  0.00000000000E+00 0.  1.
         11    1    3    3    0    0  0.18435027092E+01 -0.13145342758E+02  0.12103932788E+02  0.17963956348E+02  0.51100000000E-03 0. -1.
        -11    1    3    3    0    0  0.34688865733E+01 -0.87352127801E+01  0.19387131909E+02  0.21545254705E+02  0.51100000000E-03 0.  1.
         12    1    3    3    0    0  0.59934760627E+01 -0.57098684044E+01  0.45712637062E-01  0.82780699535E+01  0.00000000000E+00 0. -1.
</event>
<event>
 7    1  0.3910751E-009  0.4778727E+02  0.7816164E-02  0.1312668E+00
        -11   -1    0    0    0    0  0.00000000000E+00  0.00000000000E+00  0.45593999997E+02  0.45594000000E+02  0.51100000000E-03 0. -1.
         11   -1    0    0    0    0 -0.00000000000E+00 -0.00000000000E+00 -0.45593999997E+02  0.45594000000E+02  0.51100000000E-03 0.  1.
    9900012    2    1    2    0    0  0.32340480322E+02  0.28245479584E+02  0.63174037790E+01  0.47787269881E+02  0.19999994694E+02 0.  0.
        -12    1    1    2    0    0 -0.32340480322E+02 -0.28245479584E+02 -0.63174037790E+01  0.43400730119E+02  0.00000000000E+00 0.  1.
         11    1    3    3    0    0  0.10049174526E+02  0.40422432713E+01  0.48715912467E+01  0.11876785797E+02  0.51100000000E-03 0. -1.
        -11    1    3    3    0    0  0.33576723257E+01 -0.14299168046E+01  0.17366424663E+01  0.40416027553E+01  0.51100000000E-03 0.  1.
         12    1    3    3    0    0  0.18933633470E+02  0.25633153117E+02 -0.29082993394E+00  0.31868881329E+02  0.00000000000E+00 0. -1.
</event>
<event>
 7    1  0.3910751E-009  0.4778727E+02  0.7816164E-02  0.1312668E+00
        -11   -1    0    0    0    0  0.00000000000E+00  0.00000000000E+00  0.45593999997E+02  0.45594000000E+02  0.51100000000E-03 0.  1.
         11   -1    0    0    0    0 -0.00000000000E+00 -0.00000000000E+00 -0.45593999997E+02  0.45594000000E+02  0.51100000000E-03 0. -1.
    9900012    2    1    2    0    0  0.33230144434E+02 -0.69583974774E+01 -0.27036300398E+02  0.47787270355E+02  0.19999996857E+02 0.  0.
        -12    1    1    2    0    0 -0.33230144434E+02  0.69583974774E+01  0.27036300398E+02  0.43400729645E+02  0.00000000000E+00 0.  1.
         11    1    3    3    0    0  0.21437064640E+02 -0.52339409230E+01 -0.17060877470E+02  0.27892927746E+02  0.51100000000E-03 0. -1.
        -11    1    3    3    0    0  0.11766584713E+02  0.62169482417E+00 -0.11983506390E+02  0.16806053848E+02  0.51100000000E-03 0.  1.
         12    1    3    3    0    0  0.26495080299E-01 -0.23461513786E+01  0.20080834623E+01  0.30882887611E+01  0.00000000000E+00 0. -1.
</event>
<event>
 7    1  0.3910751E-009  0.4778728E+02  0.7816164E-02  0.1312668E+00
        -11   -1    0    0    0    0  0.00000000000E+00  0.00000000000E+00  0.45593999997E+02  0.45594000000E+02  0.51100000000E-03 0.  1.
         11   -1    0    0    0    0 -0.00000000000E+00 -0.00000000000E+00 -0.45593999997E+02  0.45594000000E+02  0.51100000000E-03 0. -1.
    9900012    2    1    2    0    0  0.85383106933E+01  0.39854296715E+02 -0.14911577696E+02  0.47787275749E+02  0.20000021451E+02 0.  0.
        -12    1    1    2    0    0 -0.85383106933E+01 -0.39854296715E+02  0.14911577696E+02  0.43400724251E+02  0.00000000000E+00 0.  1.
         11    1    3    3    0    0  0.21171402212E+01  0.18078306861E+02 -0.87883041737E+01  0.20212415793E+02  0.51100000000E-03 0. -1.
        -11    1    3    3    0    0 -0.35165181309E+01  0.12925796021E+02 -0.46797966263E+01  0.14189524279E+02  0.51100000000E-03 0.  1.
        -12    1    3    3    0    0  0.99376886030E+01  0.88501938328E+01 -0.14434768955E+01  0.13385335677E+02  0.00000000000E+00 0.  1.
</event>
<event>
 7    1  0.3910751E-009  0.4778727E+02  0.7816164E-02  0.1312668E+00
        -11   -1    0    0    0    0  0.00000000000E+00  0.00000000000E+00  0.45593999997E+02  0.45594000000E+02  0.51100000000E-03 0.  1.
         11   -1    0    0    0    0 -0.00000000000E+00 -0.00000000000E+00 -0.45593999997E+02  0.45594000000E+02  0.51100000000E-03 0. -1.
    9900012    2    1    2    0    0  0.17173721247E+02  0.17258552466E+02 -0.35928107388E+02  0.47787271490E+02  0.20000002032E+02 0.  0.
        -12    1    1    2    0    0 -0.17173721247E+02 -0.17258552466E+02  0.35928107388E+02  0.43400728510E+02  0.00000000000E+00 0.  1.
         11    1    3    3    0    0  0.12379726468E+02  0.11900100197E+02 -0.22175478892E+02  0.28046780144E+02  0.51100000000E-03 0. -1.
        -11    1    3    3    0    0  0.27354903599E+01  0.81804902512E+01 -0.42494280943E+01  0.96156626214E+01  0.51100000000E-03 0.  1.
         12    1    3    3    0    0  0.20585044187E+01 -0.28220379818E+01 -0.95032004021E+01  0.10124828724E+02  0.00000000000E+00 0. -1.
</event>
<event>
 7    1  0.3910751E-009  0.4778727E+02  0.7816164E-02  0.1312668E+00
        -11   -1    0    0    0    0  0.00000000000E+00  0.00000000000E+00  0.45593999997E+02  0.45594000000E+02  0.51100000000E-03 0.  1.
         11   -1    0    0    0    0 -0.00000000000E+00 -0.00000000000E+00 -0.45593999997E+02  0.45594000000E+02  0.51100000000E-03 0. -1.
    9900012    2    1    2    0    0 -0.33231321669E+02  0.27521167005E+02  0.46784358437E+01  0.47787272642E+02  0.20000007286E+02 0.  0.
        -12    1    1    2    0    0  0.33231321669E+02 -0.27521167005E+02 -0.46784358437E+01  0.43400727358E+02  0.00000000000E+00 0.  1.
         11    1    3    3    0    0 -0.31242733221E+02  0.26163504014E+02  0.37347733749E+01  0.40921703946E+02  0.51100000000E-03 0. -1.
        -11    1    3    3    0    0 -0.34305527288E+01  0.29296516868E+01 -0.51785425635E-01  0.45115665819E+01  0.51100000000E-03 0.  1.
        -12    1    3    3    0    0  0.14419642806E+01 -0.15719886954E+01  0.99544789448E+00  0.23540021146E+01  0.00000000000E+00 0.  1.
</event>
<event>
 7    1  0.3910751E-009  0.4778727E+02  0.7816164E-02  0.1312668E+00
        -11   -1    0    0    0    0  0.00000000000E+00  0.00000000000E+00  0.45593999997E+02  0.45594000000E+02  0.51100000000E-03 0.  1.
         11   -1    0    0    0    0 -0.00000000000E+00 -0.00000000000E+00 -0.45593999997E+02  0.45594000000E+02  0.51100000000E-03 0. -1.
    9900012    2    1    2    0    0 -0.42063719580E+02  0.69226825423E+00 -0.10667122572E+02  0.47787271386E+02  0.20000001558E+02 0.  0.
        -12    1    1    2    0    0  0.42063719580E+02 -0.69226825423E+00  0.10667122572E+02  0.43400728614E+02  0.00000000000E+00 0.  1.
         11    1    3    3    0    0 -0.70662369565E+01 -0.21219017297E+01  0.91423711974E+00  0.74343796949E+01  0.51100000000E-03 0.  1.
        -11    1    3    3    0    0 -0.27924091007E+02  0.53925199832E+01 -0.24898202101E+01  0.28548788683E+02  0.51100000000E-03 0. -1.
         12    1    3    3    0    0 -0.70733916167E+01 -0.25783499992E+01 -0.90915394817E+01  0.11804103008E+02  0.00000000000E+00 0. -1.
</event>
<event>
 7    1  0.3910751E-009  0.4778727E+02  0.7816164E-02  0.1312668E+00
        -11   -1    0    0    0    0  0.00000000000E+00  0.00000000000E+00  0.45593999997E+02  0.45594000000E+02  0.51100000000E-03 0.  1.
         11   -1    0    0    0    0 -0.00000000000E+00 -0.00000000000E+00 -0.45593999997E+02  0.45594000000E+02  0.51100000000E-03 0. -1.
    9900012    2    1    2    0    0  0.28826523734E+02 -0.23208807815E+02 -0.22671695526E+02  0.47787274098E+02  0.20000013922E+02 0.  0.
        -12    1    1    2    0    0 -0.28826523734E+02  0.23208807815E+02  0.22671695526E+02  0.43400725902E+02  0.00000000000E+00 0.  1.
         11    1    3    3    0    0  0.20933901114E+02 -0.16800755738E+02 -0.21287647380E+02  0.34258685620E+02  0.51100000000E-03 0. -1.
        -11    1    3    3    0    0 -0.68321035332E+00 -0.17893696310E+01 -0.30942587296E+01  0.36391011816E+01  0.51100000000E-03 0.  1.
        -12    1    3    3    0    0  0.85758329741E+01 -0.46186824460E+01  0.17102105831E+01  0.98894872959E+01  0.00000000000E+00 0.  1.
</event>
<event>
 7    1  0.3910751E-009  0.4778727E+02  0.7816164E-02  0.1312668E+00
        -11   -1    0    0    0    0  0.00000000000E+00  0.00000000000E+00  0.45593999997E+02  0.45594000000E+02  0.51100000000E-03 0.  1.
         11   -1    0    0    0    0 -0.00000000000E+00 -0.00000000000E+00 -0.45593999997E+02  0.45594000000E+02  0.51100000000E-03 0. -1.
    9900012    2    1    2    0    0 -0.19250878192E+02 -0.18933215384E+02 -0.33978821438E+02  0.47787271179E+02  0.20000000613E+02 0.  0.
        -12    1    1    2    0    0  0.19250878192E+02  0.18933215384E+02  0.33978821438E+02  0.43400728821E+02  0.00000000000E+00 0.  1.
         11    1    3    3    0    0 -0.91578241777E+01 -0.16845428917E+02 -0.19019858491E+02  0.27007207118E+02  0.51100000000E-03 0. -1.
        -11    1    3    3    0    0 -0.35312510224E+01 -0.49277950302E+01 -0.28071506232E+01  0.66807928066E+01  0.51100000000E-03 0.  1.
         12    1    3    3    0    0 -0.65618029920E+01  0.28400085633E+01 -0.12151812323E+02  0.14099271254E+02  0.00000000000E+00 0. -1.
</event>
<event>
 7    1  0.3910751E-009  0.4778725E+02  0.7816164E-02  0.1312668E+00
        -11   -1    0    0    0    0  0.00000000000E+00  0.00000000000E+00  0.45593999997E+02  0.45594000000E+02  0.51100000000E-03 0.  1.
         11   -1    0    0    0    0 -0.00000000000E+00 -0.00000000000E+00 -0.45593999997E+02  0.45594000000E+02  0.51100000000E-03 0. -1.
    9900012    2    1    2    0    0 -0.41936527707E+02 -0.94943357211E+01 -0.59000038568E+01  0.47787253319E+02  0.19999919184E+02 0.  0.
        -12    1    1    2    0    0  0.41936527707E+02  0.94943357211E+01  0.59000038568E+01  0.43400746681E+02  0.00000000000E+00 0.  1.
         11    1    3    3    0    0 -0.13726137926E+02  0.41415990456E+01 -0.82176235777E+00  0.14360884327E+02  0.51100000000E-03 0. -1.
        -11    1    3    3    0    0 -0.12208676744E+02 -0.11132240629E+01  0.76627495950E+00  0.12283250108E+02  0.51100000000E-03 0.  1.
        -12    1    3    3    0    0 -0.16001713037E+02 -0.12522710704E+02 -0.58445164585E+01  0.21143118884E+02  0.00000000000E+00 0.  1.
</event>
<event>
 7    1  0.3910751E-009  0.4778726E+02  0.7816164E-02  0.1312668E+00
        -11   -1    0    0    0    0  0.00000000000E+00  0.00000000000E+00  0.45593999997E+02  0.45594000000E+02  0.51100000000E-03 0.  1.
         11   -1    0    0    0    0 -0.00000000000E+00 -0.00000000000E+00 -0.45593999997E+02  0.45594000000E+02  0.51100000000E-03 0. -1.
    9900012    2    1    2    0    0 -0.27453096688E+02 -0.76575967048E+01 -0.32730911488E+02  0.47787264156E+02  0.19999968591E+02 0.  0.
        -12    1    1    2    0    0  0.27453096688E+02  0.76575967048E+01  0.32730911488E+02  0.43400735844E+02  0.00000000000E+00 0.  1.
         11    1    3    3    0    0 -0.11195887510E+02 -0.20121980535E+00 -0.39276306916E+01  0.11866535706E+02  0.51100000000E-03 0.  1.
        -11    1    3    3    0    0 -0.44672739234E+01  0.31264612138E+01 -0.55239856500E+01  0.77618112417E+01  0.51100000000E-03 0. -1.
        -12    1    3    3    0    0 -0.11789935254E+02 -0.10582838113E+02 -0.23279295146E+02  0.28158917208E+02  0.00000000000E+00 0.  1.
</event>
<event>
 7    1  0.3910751E-009  0.4778727E+02  0.7816164E-02  0.1312668E+00
        -11   -1    0    0    0    0  0.00000000000E+00  0.00000000000E+00  0.45593999997E+02  0.45594000000E+02  0.51100000000E-03 0. -1.
         11   -1    0    0    0    0 -0.00000000000E+00 -0.00000000000E+00 -0.45593999997E+02  0.45594000000E+02  0.51100000000E-03 0.  1.
    9900012    2    1    2    0    0 -0.86433268591E+01  0.34366612141E+02  0.25056976795E+02  0.47787271718E+02  0.20000003072E+02 0.  0.
        -12    1    1    2    0    0  0.86433268591E+01 -0.34366612141E+02 -0.25056976795E+02  0.43400728282E+02  0.00000000000E+00 0.  1.
         11    1    3    3    0    0  0.76486962535E+00  0.51820920745E+00 -0.17651352230E+01  0.19923024226E+01  0.51100000000E-03 0. -1.
        -11    1    3    3    0    0  0.13796829855E+01  0.13571881092E+02  0.13743916679E+02  0.19364780595E+02  0.51100000000E-03 0.  1.
         12    1    3    3    0    0 -0.10787879470E+02  0.20276521841E+02  0.13078195339E+02  0.26430188701E+02  0.00000000000E+00 0. -1.
</event>
<event>
 7    1  0.3910751E-009  0.4778727E+02  0.7816164E-02  0.1312668E+00
        -11   -1    0    0    0    0  0.00000000000E+00  0.00000000000E+00  0.45593999997E+02  0.45594000000E+02  0.51100000000E-03 0.  1.
         11   -1    0    0    0    0 -0.00000000000E+00 -0.00000000000E+00 -0.45593999997E+02  0.45594000000E+02  0.51100000000E-03 0. -1.
    9900012    2    1    2    0    0  0.38324294033E+02 -0.29080658166E+01 -0.20159734697E+02  0.47787271170E+02  0.20000000574E+02 0.  0.
        -12    1    1    2    0    0 -0.38324294033E+02  0.29080658166E+01  0.20159734697E+02  0.43400728830E+02  0.00000000000E+00 0.  1.
         11    1    3    3    0    0  0.54269285211E+00 -0.30510297567E+01 -0.48928028676E+01  0.57916162054E+01  0.51100000000E-03 0.  1.
        -11    1    3    3    0    0  0.95612560021E+01  0.35091871456E+01 -0.71326484802E+01  0.12434093669E+02  0.51100000000E-03 0. -1.
        -12    1    3    3    0    0  0.28220345179E+02 -0.33662232054E+01 -0.81342833491E+01  0.29561561296E+02  0.00000000000E+00 0.  1.
</event>
<event>
 7    1  0.3910751E-009  0.4778727E+02  0.7816164E-02  0.1312668E+00
        -11   -1    0    0    0    0  0.00000000000E+00  0.00000000000E+00  0.45593999997E+02  0.45594000000E+02  0.51100000000E-03 0.  1.
         11   -1    0    0    0    0 -0.00000000000E+00 -0.00000000000E+00 -0.45593999997E+02  0.45594000000E+02  0.51100000000E-03 0. -1.
    9900012    2    1    2    0    0 -0.15651348933E+02  0.40355383459E+02  0.31782621891E+01  0.47787273646E+02  0.20000011860E+02 0.  0.
        -12    1    1    2    0    0  0.15651348933E+02 -0.40355383459E+02 -0.31782621891E+01  0.43400726354E+02  0.00000000000E+00 0.  1.
         11    1    3    3    0    0 -0.25304102244E+01  0.52521954571E+01 -0.34246505162E+01  0.67614173397E+01  0.51100000000E-03 0. -1.
        -11    1    3    3    0    0 -0.13338983778E+01  0.78641289591E+01 -0.47096383209E+01  0.92630719819E+01  0.51100000000E-03 0.  1.
         12    1    3    3    0    0 -0.11787040331E+02  0.27239059043E+02  0.11312551026E+02  0.31762784324E+02  0.00000000000E+00 0. -1.
</event>
<event>
 7    1  0.3910751E-009  0.4778728E+02  0.7816164E-02  0.1312668E+00
        -11   -1    0    0    0    0  0.00000000000E+00  0.00000000000E+00  0.45593999997E+02  0.45594000000E+02  0.51100000000E-03 0.  1.
         11   -1    0    0    0    0 -0.00000000000E+00 -0.00000000000E+00 -0.45593999997E+02  0.45594000000E+02  0.51100000000E-03 0. -1.
    9900012    2    1    2    0    0 -0.30695362034E+01  0.24952024272E+01 -0.43220072096E+02  0.47787277430E+02  0.20000029114E+02 0.  0.
        -12    1    1    2    0    0  0.30695362034E+01 -0.24952024272E+01  0.43220072096E+02  0.43400722570E+02  0.00000000000E+00 0.  1.
         11    1    3    3    0    0 -0.34563798649E+00 -0.44352648035E+01 -0.61055024868E+01  0.75543497650E+01  0.51100000000E-03 0.  1.
        -11    1    3    3    0    0  0.54627757733E+01  0.32731716462E+01 -0.12353053225E+02  0.13897967334E+02  0.51100000000E-03 0. -1.
        -12    1    3    3    0    0 -0.81866739901E+01  0.36572955845E+01 -0.24761516384E+02  0.26334960331E+02  0.00000000000E+00 0.  1.
</event>
<event>
 7    1  0.3910751E-009  0.4778728E+02  0.7816164E-02  0.1312668E+00
        -11   -1    0    0    0    0  0.00000000000E+00  0.00000000000E+00  0.45593999997E+02  0.45594000000E+02  0.51100000000E-03 0.  1.
         11   -1    0    0    0    0 -0.00000000000E+00 -0.00000000000E+00 -0.45593999997E+02  0.45594000000E+02  0.51100000000E-03 0. -1.
    9900012    2    1    2    0    0  0.41024737231E+01  0.30671931983E+02  0.30430652583E+02  0.47787282047E+02  0.20000050164E+02 0.  0.
        -12    1    1    2    0    0 -0.41024737231E+01 -0.30671931983E+02 -0.30430652583E+02  0.43400717953E+02  0.00000000000E+00 0.  1.
         11    1    3    3    0    0  0.17459397822E+01  0.63099802983E+00  0.43123017228E+01  0.46949345731E+01  0.51100000000E-03 0.  1.
        -11    1    3    3    0    0  0.31715449138E+01  0.37506981856E+01 -0.13168873893E+01  0.50853344706E+01  0.51100000000E-03 0. -1.
         12    1    3    3    0    0 -0.81501097300E+00  0.26290235768E+02  0.27435238249E+02  0.38007013003E+02  0.00000000000E+00 0. -1.
</event>
<event>
 7    1  0.3910751E-009  0.4778727E+02  0.7816164E-02  0.1312668E+00
        -11   -1    0    0    0    0  0.00000000000E+00  0.00000000000E+00  0.45593999997E+02  0.45594000000E+02  0.51100000000E-03 0.  1.
         11   -1    0    0    0    0 -0.00000000000E+00 -0.00000000000E+00 -0.45593999997E+02  0.45594000000E+02  0.51100000000E-03 0. -1.
    9900012    2    1    2    0    0 -0.40005337405E+02  0.63969984259E+01 -0.15565166596E+02  0.47787273959E+02  0.20000013288E+02 0.  0.
        -12    1    1    2    0    0  0.40005337405E+02 -0.63969984259E+01  0.15565166596E+02  0.43400726041E+02  0.00000000000E+00 0.  1.
         11    1    3    3    0    0 -0.20063760258E+01  0.86117932049E+00  0.29275558163E+01  0.36520895249E+01  0.51100000000E-03 0. -1.
        -11    1    3    3    0    0 -0.72124353057E+01  0.31642227834E+01  0.48635498990E+00  0.78910119947E+01  0.51100000000E-03 0.  1.
         12    1    3    3    0    0 -0.30786526073E+02  0.23715963220E+01 -0.18979077402E+02  0.36244172439E+02  0.00000000000E+00 0. -1.
</event>
<event>
 7    1  0.3910751E-009  0.4778727E+02  0.7816164E-02  0.1312668E+00
        -11   -1    0    0    0    0  0.00000000000E+00  0.00000000000E+00  0.45593999997E+02  0.45594000000E+02  0.51100000000E-03 0.  1.
         11   -1    0    0    0    0 -0.00000000000E+00 -0.00000000000E+00 -0.45593999997E+02  0.45594000000E+02  0.51100000000E-03 0. -1.
    9900012    2    1    2    0    0 -0.10450784509E+01  0.33462092994E+02 -0.27619190221E+02  0.47787268152E+02  0.19999986812E+02 0.  0.
        -12    1    1    2    0    0  0.10450784509E+01 -0.33462092994E+02  0.27619190221E+02  0.43400731848E+02  0.00000000000E+00 0.  1.
         11    1    3    3    0    0  0.27579347724E+01  0.14003200773E+02 -0.19653257101E+02  0.24288811232E+02  0.51100000000E-03 0. -1.
        -11    1    3    3    0    0 -0.36677861800E+01  0.10530725851E+02 -0.92360127653E+01  0.14479391371E+02  0.51100000000E-03 0.  1.
         12    1    3    3    0    0 -0.13522704325E+00  0.89281663696E+01  0.12700796457E+01  0.90190655494E+01  0.00000000000E+00 0. -1.
</event>
<event>
 7    1  0.3910751E-009  0.4778728E+02  0.7816164E-02  0.1312668E+00
        -11   -1    0    0    0    0  0.00000000000E+00  0.00000000000E+00  0.45593999997E+02  0.45594000000E+02  0.51100000000E-03 0.  1.
         11   -1    0    0    0    0 -0.00000000000E+00 -0.00000000000E+00 -0.45593999997E+02  0.45594000000E+02  0.51100000000E-03 0. -1.
    9900012    2    1    2    0    0  0.26058637543E+01  0.14709030288E+02 -0.40748945100E+02  0.47787278523E+02  0.20000034099E+02 0.  0.
        -12    1    1    2    0    0 -0.26058637543E+01 -0.14709030288E+02  0.40748945100E+02  0.43400721477E+02  0.00000000000E+00 0.  1.
         11    1    3    3    0    0 -0.74081282668E+01  0.50575662454E+01 -0.18725238997E+02  0.20762801268E+02  0.51100000000E-03 0.  1.
        -11    1    3    3    0    0  0.63322474150E+01  0.56689728504E+01 -0.19001543253E+02  0.20815697364E+02  0.51100000000E-03 0. -1.
        -12    1    3    3    0    0  0.36817446060E+01  0.39824911923E+01 -0.30221628507E+01  0.62087798912E+01  0.00000000000E+00 0.  1.
</event>
<event>
 7    1  0.3910751E-009  0.4778725E+02  0.7816164E-02  0.1312668E+00
        -11   -1    0    0    0    0  0.00000000000E+00  0.00000000000E+00  0.45593999997E+02  0.45594000000E+02  0.51100000000E-03 0.  1.
         11   -1    0    0    0    0 -0.00000000000E+00 -0.00000000000E+00 -0.45593999997E+02  0.45594000000E+02  0.51100000000E-03 0. -1.
    9900012    2    1    2    0    0  0.38947383987E+01 -0.28387173275E+02 -0.32597920601E+02  0.47787250914E+02  0.19999908215E+02 0.  0.
        -12    1    1    2    0    0 -0.38947383987E+01  0.28387173275E+02  0.32597920601E+02  0.43400749086E+02  0.00000000000E+00 0.  1.
         11    1    3    3    0    0  0.10290271971E+01 -0.12985877197E+02 -0.67053789715E+01  0.14651075420E+02  0.51100000000E-03 0. -1.
        -11    1    3    3    0    0 -0.64268939629E+00  0.32476250686E+00  0.13243401350E+01  0.15074473126E+01  0.51100000000E-03 0.  1.
         12    1    3    3    0    0  0.35084005979E+01 -0.15726058585E+02 -0.27216881765E+02  0.31628728181E+02  0.00000000000E+00 0. -1.
</event>
<event>
 7    1  0.3910751E-009  0.4778727E+02  0.7816164E-02  0.1312668E+00
        -11   -1    0    0    0    0  0.00000000000E+00  0.00000000000E+00  0.45593999997E+02  0.45594000000E+02  0.51100000000E-03 0.  1.
         11   -1    0    0    0    0 -0.00000000000E+00 -0.00000000000E+00 -0.45593999997E+02  0.45594000000E+02  0.51100000000E-03 0. -1.
    9900012    2    1    2    0    0 -0.10886736289E+02 -0.21763399417E+02 -0.35936843287E+02  0.47787270898E+02  0.19999999330E+02 0.  0.
        -12    1    1    2    0    0  0.10886736289E+02  0.21763399417E+02  0.35936843287E+02  0.43400729102E+02  0.00000000000E+00 0.  1.
         11    1    3    3    0    0 -0.91303192239E+01 -0.92173722310E+01 -0.16655905502E+02  0.21112599753E+02  0.51100000000E-03 0. -1.
        -11    1    3    3    0    0 -0.32477802226E+01 -0.30244852495E+01  0.69812111503E+00  0.44925450194E+01  0.51100000000E-03 0.  1.
         12    1    3    3    0    0  0.14913631578E+01 -0.95215419363E+01 -0.19979058900E+02  0.22182126125E+02  0.00000000000E+00 0. -1.
</event>
<event>
 7    1  0.3910751E-009  0.4778727E+02  0.7816164E-02  0.1312668E+00
        -11   -1    0    0    0    0  0.00000000000E+00  0.00000000000E+00  0.45593999997E+02  0.45594000000E+02  0.51100000000E-03 0. -1.
         11   -1    0    0    0    0 -0.00000000000E+00 -0.00000000000E+00 -0.45593999997E+02  0.45594000000E+02  0.51100000000E-03 0.  1.
    9900012    2    1    2    0    0  0.36974006190E+02  0.19903307732E+02  0.10972899027E+02  0.47787270681E+02  0.19999998342E+02 0.  0.
        -12    1    1    2    0    0 -0.36974006190E+02 -0.19903307732E+02 -0.10972899027E+02  0.43400729319E+02  0.00000000000E+00 0.  1.
         11    1    3    3    0    0  0.20310566498E+02  0.16182979943E+02  0.31827996701E+01  0.26163680271E+02  0.51100000000E-03 0.  1.
        -11    1    3    3    0    0  0.74574795265E+01  0.70373005674E+01  0.52224738669E+01  0.11507034097E+02  0.51100000000E-03 0. -1.
        -12    1    3    3    0    0  0.92059601646E+01 -0.33169727783E+01  0.25676254899E+01  0.10116556312E+02  0.00000000000E+00 0.  1.
</event>
<event>
 7    1  0.3910751E-009  0.4778727E+02  0.7816164E-02  0.1312668E+00
        -11   -1    0    0    0    0  0.00000000000E+00  0.00000000000E+00  0.45593999997E+02  0.45594000000E+02  0.51100000000E-03 0. -1.
         11   -1    0    0    0    0 -0.00000000000E+00 -0.00000000000E+00 -0.45593999997E+02  0.45594000000E+02  0.51100000000E-03 0.  1.
    9900012    2    1    2    0    0  0.35465106891E+02 -0.51596639919E+01 -0.24479119167E+02  0.47787271729E+02  0.20000003121E+02 0.  0.
        -12    1    1    2    0    0 -0.35465106891E+02  0.51596639919E+01  0.24479119167E+02  0.43400728271E+02  0.00000000000E+00 0.  1.
         11    1    3    3    0    0  0.71728438335E+01  0.52472114892E+00  0.16924737310E+01  0.73884699726E+01  0.51100000000E-03 0. -1.
        -11    1    3    3    0    0  0.62978347819E+01  0.30020586419E+01 -0.77108292267E+01  0.10398652156E+02  0.51100000000E-03 0.  1.
         12    1    3    3    0    0  0.21994428275E+02 -0.86864437827E+01 -0.18460763671E+02  0.30000149601E+02  0.00000000000E+00 0. -1.
</event>
<event>
 7    1  0.3910751E-009  0.4778730E+02  0.7816164E-02  0.1312668E+00
        -11   -1    0    0    0    0  0.00000000000E+00  0.00000000000E+00  0.45593999997E+02  0.45594000000E+02  0.51100000000E-03 0.  1.
         11   -1    0    0    0    0 -0.00000000000E+00 -0.00000000000E+00 -0.45593999997E+02  0.45594000000E+02  0.51100000000E-03 0. -1.
    9900012    2    1    2    0    0  0.12696992064E+02 -0.40570793377E+02 -0.87417483931E+01  0.47787296692E+02  0.20000116937E+02 0.  0.
        -12    1    1    2    0    0 -0.12696992064E+02  0.40570793377E+02  0.87417483931E+01  0.43400703308E+02  0.00000000000E+00 0.  1.
         11    1    3    3    0    0  0.71340754216E+01 -0.10867885276E+02 -0.10994557319E+02  0.17026046323E+02  0.51100000000E-03 0. -1.
        -11    1    3    3    0    0  0.99555906689E+00 -0.78688173370E+01 -0.16878920586E+01  0.81091555665E+01  0.51100000000E-03 0.  1.
        -12    1    3    3    0    0  0.45673575751E+01 -0.21834090763E+02  0.39407009846E+01  0.22652094802E+02  0.00000000000E+00 0.  1.
</event>
<event>
 7    1  0.3910751E-009  0.4778728E+02  0.7816164E-02  0.1312668E+00
        -11   -1    0    0    0    0  0.00000000000E+00  0.00000000000E+00  0.45593999997E+02  0.45594000000E+02  0.51100000000E-03 0.  1.
         11   -1    0    0    0    0 -0.00000000000E+00 -0.00000000000E+00 -0.45593999997E+02  0.45594000000E+02  0.51100000000E-03 0. -1.
    9900012    2    1    2    0    0 -0.11264948306E+02  0.95824875666E+00 -0.41902333451E+02  0.47787275932E+02  0.20000022283E+02 0.  0.
        -12    1    1    2    0    0  0.11264948306E+02 -0.95824875666E+00  0.41902333451E+02  0.43400724068E+02  0.00000000000E+00 0.  1.
         11    1    3    3    0    0 -0.15709282560E+00 -0.67553704384E+01 -0.93299070643E+01  0.11519846961E+02  0.51100000000E-03 0. -1.
        -11    1    3    3    0    0 -0.48616171511E+01  0.42756129860E+00 -0.46468281082E+01  0.67387789485E+01  0.51100000000E-03 0.  1.
        -12    1    3    3    0    0 -0.62462383296E+01  0.72860578965E+01 -0.27925598278E+02  0.29528650022E+02  0.00000000000E+00 0.  1.
</event>
<event>
 7    1  0.3910751E-009  0.4778728E+02  0.7816164E-02  0.1312668E+00
        -11   -1    0    0    0    0  0.00000000000E+00  0.00000000000E+00  0.45593999997E+02  0.45594000000E+02  0.51100000000E-03 0.  1.
         11   -1    0    0    0    0 -0.00000000000E+00 -0.00000000000E+00 -0.45593999997E+02  0.45594000000E+02  0.51100000000E-03 0. -1.
    9900012    2    1    2    0    0  0.36656721203E+02 -0.18221346651E+02  0.14418389279E+02  0.47787278433E+02  0.20000033686E+02 0.  0.
        -12    1    1    2    0    0 -0.36656721203E+02  0.18221346651E+02 -0.14418389279E+02  0.43400721567E+02  0.00000000000E+00 0.  1.
         11    1    3    3    0    0  0.16699677765E+02 -0.12706654796E+02 -0.58001751376E+00  0.20992254146E+02  0.51100000000E-03 0. -1.
        -11    1    3    3    0    0  0.86716733242E+01 -0.65552533876E+01  0.72769678688E+01  0.13081419145E+02  0.51100000000E-03 0.  1.
        -12    1    3    3    0    0  0.11285370114E+02  0.10405615332E+01  0.77214389241E+01  0.13713605142E+02  0.00000000000E+00 0.  1.
</event>
<event>
 7    1  0.3910751E-009  0.4778727E+02  0.7816164E-02  0.1312668E+00
        -11   -1    0    0    0    0  0.00000000000E+00  0.00000000000E+00  0.45593999997E+02  0.45594000000E+02  0.51100000000E-03 0.  1.
         11   -1    0    0    0    0 -0.00000000000E+00 -0.00000000000E+00 -0.45593999997E+02  0.45594000000E+02  0.51100000000E-03 0. -1.
    9900012    2    1    2    0    0  0.17455899485E+02 -0.10725371902E+02 -0.38260701257E+02  0.47787270859E+02  0.19999999153E+02 0.  0.
        -12    1    1    2    0    0 -0.17455899485E+02  0.10725371902E+02  0.38260701257E+02  0.43400729141E+02  0.00000000000E+00 0.  1.
         11    1    3    3    0    0  0.15977848105E+02 -0.10087366025E+02 -0.32927439796E+02  0.37963968117E+02  0.51100000000E-03 0. -1.
        -11    1    3    3    0    0  0.47725783974E+01  0.18937084506E+00 -0.24513556744E+01  0.53686600544E+01  0.51100000000E-03 0.  1.
        -12    1    3    3    0    0 -0.32945270172E+01 -0.82737672229E+00 -0.28819057870E+01  0.44546426874E+01  0.00000000000E+00 0.  1.
</event>
<event>
 7    1  0.3910751E-009  0.4778727E+02  0.7816164E-02  0.1312668E+00
        -11   -1    0    0    0    0  0.00000000000E+00  0.00000000000E+00  0.45593999997E+02  0.45594000000E+02  0.51100000000E-03 0.  1.
         11   -1    0    0    0    0 -0.00000000000E+00 -0.00000000000E+00 -0.45593999997E+02  0.45594000000E+02  0.51100000000E-03 0. -1.
    9900012    2    1    2    0    0  0.36380110384E+02 -0.11856796026E+02 -0.20482367591E+02  0.47787269296E+02  0.19999992028E+02 0.  0.
        -12    1    1    2    0    0 -0.36380110384E+02  0.11856796026E+02  0.20482367591E+02  0.43400730704E+02  0.00000000000E+00 0.  1.
         11    1    3    3    0    0  0.13500785724E+02 -0.11528855849E+02 -0.42660391213E+01  0.18258828615E+02  0.51100000000E-03 0. -1.
        -11    1    3    3    0    0  0.75483989585E+01 -0.40610447234E+01 -0.34812139762E+01  0.92514464864E+01  0.51100000000E-03 0.  1.
        -12    1    3    3    0    0  0.15330925701E+02  0.37331045466E+01 -0.12735114493E+02  0.20276994195E+02  0.00000000000E+00 0.  1.
</event>
<event>
 7    1  0.3910751E-009  0.4778727E+02  0.7816164E-02  0.1312668E+00
        -11   -1    0    0    0    0  0.00000000000E+00  0.00000000000E+00  0.45593999997E+02  0.45594000000E+02  0.51100000000E-03 0.  1.
         11   -1    0    0    0    0 -0.00000000000E+00 -0.00000000000E+00 -0.45593999997E+02  0.45594000000E+02  0.51100000000E-03 0. -1.
    9900012    2    1    2    0    0 -0.31610285575E+02 -0.13136733889E+02 -0.26680318409E+02  0.47787270492E+02  0.19999997482E+02 0.  0.
        -12    1    1    2    0    0  0.31610285575E+02  0.13136733889E+02  0.26680318409E+02  0.43400729508E+02  0.00000000000E+00 0.  1.
         11    1    3    3    0    0 -0.98977223646E+01 -0.10920061173E+02 -0.86215951731E+01  0.17074675623E+02  0.51100000000E-03 0. -1.
        -11    1    3    3    0    0 -0.11443432497E+02 -0.24951309964E+01 -0.23542098724E+01  0.11946553076E+02  0.51100000000E-03 0.  1.
         12    1    3    3    0    0 -0.10269130713E+02  0.27845828051E+00 -0.15704513364E+02  0.18766041794E+02  0.00000000000E+00 0. -1.
</event>
<event>
 7    1  0.3910751E-009  0.4778727E+02  0.7816164E-02  0.1312668E+00
        -11   -1    0    0    0    0  0.00000000000E+00  0.00000000000E+00  0.45593999997E+02  0.45594000000E+02  0.51100000000E-03 0. -1.
         11   -1    0    0    0    0 -0.00000000000E+00 -0.00000000000E+00 -0.45593999997E+02  0.45594000000E+02  0.51100000000E-03 0.  1.
    9900012    2    1    2    0    0 -0.77401410516E+01 -0.36198444795E+01  0.42551265634E+02  0.47787271151E+02  0.20000000485E+02 0.  0.
        -12    1    1    2    0    0  0.77401410516E+01  0.36198444795E+01 -0.42551265634E+02  0.43400728849E+02  0.00000000000E+00 0.  1.
         11    1    3    3    0    0 -0.11040065200E+01 -0.41339018131E+01  0.10217280844E+02  0.11077039438E+02  0.51100000000E-03 0. -1.
        -11    1    3    3    0    0 -0.11914174103E+01 -0.37556725992E+01  0.31558738148E+00  0.39527392748E+01  0.51100000000E-03 0.  1.
         12    1    3    3    0    0 -0.54447171213E+01  0.42697299328E+01  0.32018397409E+02  0.32757492438E+02  0.00000000000E+00 0. -1.
</event>
<event>
 7    1  0.3910751E-009  0.4778727E+02  0.7816164E-02  0.1312668E+00
        -11   -1    0    0    0    0  0.00000000000E+00  0.00000000000E+00  0.45593999997E+02  0.45594000000E+02  0.51100000000E-03 0. -1.
         11   -1    0    0    0    0 -0.00000000000E+00 -0.00000000000E+00 -0.45593999997E+02  0.45594000000E+02  0.51100000000E-03 0.  1.
    9900012    2    1    2    0    0 -0.12125041979E+02  0.31916318517E+02  0.26794687285E+02  0.47787270774E+02  0.19999998768E+02 0.  0.
        -12    1    1    2    0    0  0.12125041979E+02 -0.31916318517E+02 -0.26794687285E+02  0.43400729226E+02  0.00000000000E+00 0.  1.
         11    1    3    3    0    0 -0.10640382806E+02  0.15740746715E+02  0.15835336751E+02  0.24733514584E+02  0.51100000000E-03 0. -1.
        -11    1    3    3    0    0 -0.52430946935E+01  0.14947804639E+02  0.65781844506E+01  0.17152242315E+02  0.51100000000E-03 0.  1.
         12    1    3    3    0    0  0.37584355211E+01  0.12277671622E+01  0.43811660829E+01  0.59015138750E+01  0.00000000000E+00 0. -1.
</event>
<event>
 7    1  0.3910751E-009  0.4778727E+02  0.7816164E-02  0.1312668E+00
        -11   -1    0    0    0    0  0.00000000000E+00  0.00000000000E+00  0.45593999997E+02  0.45594000000E+02  0.51100000000E-03 0. -1.
         11   -1    0    0    0    0 -0.00000000000E+00 -0.00000000000E+00 -0.45593999997E+02  0.45594000000E+02  0.51100000000E-03 0.  1.
    9900012    2    1    2    0    0 -0.41039532674E+02 -0.84855212747E+01  0.11286098017E+02  0.47787270492E+02  0.19999997480E+02 0.  0.
        -12    1    1    2    0    0  0.41039532674E+02  0.84855212747E+01 -0.11286098017E+02  0.43400729508E+02  0.00000000000E+00 0.  1.
         11    1    3    3    0    0 -0.18026593406E+02 -0.53046427300E+01  0.11766080636E+01  0.18827684698E+02  0.51100000000E-03 0. -1.
        -11    1    3    3    0    0 -0.14580981301E+01 -0.12361562823E+01 -0.30725968177E+01  0.36186992106E+01  0.51100000000E-03 0.  1.
         12    1    3    3    0    0 -0.21554841138E+02 -0.19447222624E+01  0.13182086771E+02  0.25340886583E+02  0.00000000000E+00 0. -1.
</event>
<event>
 7    1  0.3910751E-009  0.4778728E+02  0.7816164E-02  0.1312668E+00
        -11   -1    0    0    0    0  0.00000000000E+00  0.00000000000E+00  0.45593999997E+02  0.45594000000E+02  0.51100000000E-03 0.  1.
         11   -1    0    0    0    0 -0.00000000000E+00 -0.00000000000E+00 -0.45593999997E+02  0.45594000000E+02  0.51100000000E-03 0. -1.
    9900012    2    1    2    0    0  0.36769526680E+02 -0.40688210429E+01 -0.22695141181E+02  0.47787276156E+02  0.20000023308E+02 0.  0.
        -12    1    1    2    0    0 -0.36769526680E+02  0.40688210429E+01  0.22695141181E+02  0.43400723844E+02  0.00000000000E+00 0.  1.
         11    1    3    3    0    0  0.28042315148E+02 -0.68894441996E+01 -0.13827620238E+02  0.32016229664E+02  0.51100000000E-03 0. -1.
        -11    1    3    3    0    0  0.10537498730E+02  0.29591175831E+01 -0.63072447842E+01  0.12632362938E+02  0.51100000000E-03 0.  1.
        -12    1    3    3    0    0 -0.18102871982E+01 -0.13849442633E+00 -0.25602761585E+01  0.31386835542E+01  0.00000000000E+00 0.  1.
</event>
<event>
 7    1  0.3910751E-009  0.4778727E+02  0.7816164E-02  0.1312668E+00
        -11   -1    0    0    0    0  0.00000000000E+00  0.00000000000E+00  0.45593999997E+02  0.45594000000E+02  0.51100000000E-03 0. -1.
         11   -1    0    0    0    0 -0.00000000000E+00 -0.00000000000E+00 -0.45593999997E+02  0.45594000000E+02  0.51100000000E-03 0.  1.
    9900012    2    1    2    0    0 -0.10481278564E+02  0.37046756323E+02  0.20032571657E+02  0.47787270956E+02  0.19999999596E+02 0.  0.
        -12    1    1    2    0    0  0.10481278564E+02 -0.37046756323E+02 -0.20032571657E+02  0.43400729044E+02  0.00000000000E+00 0.  1.
         11    1    3    3    0    0 -0.58689591767E+01  0.82347822750E+01  0.10483451017E+02  0.14565681118E+02  0.51100000000E-03 0. -1.
        -11    1    3    3    0    0 -0.11100189286E+01  0.14708857796E+02  0.11304798089E+02  0.18584431651E+02  0.51100000000E-03 0.  1.
        -12    1    3    3    0    0 -0.35023004583E+01  0.14103116251E+02 -0.17556774487E+01  0.14637158187E+02  0.00000000000E+00 0.  1.
</event>
<event>
 7    1  0.3910751E-009  0.4778727E+02  0.7816164E-02  0.1312668E+00
        -11   -1    0    0    0    0  0.00000000000E+00  0.00000000000E+00  0.45593999997E+02  0.45594000000E+02  0.51100000000E-03 0.  1.
         11   -1    0    0    0    0 -0.00000000000E+00 -0.00000000000E+00 -0.45593999997E+02  0.45594000000E+02  0.51100000000E-03 0. -1.
    9900012    2    1    2    0    0  0.81711617970E+00  0.42988107319E+02 -0.59142215370E+01  0.47787273437E+02  0.20000010911E+02 0.  0.
        -12    1    1    2    0    0 -0.81711617970E+00 -0.42988107319E+02  0.59142215370E+01  0.43400726563E+02  0.00000000000E+00 0.  1.
         11    1    3    3    0    0 -0.13639608446E+01  0.56378922646E+01 -0.37897630858E+01  0.69288182889E+01  0.51100000000E-03 0. -1.
        -11    1    3    3    0    0 -0.39725615739E+01  0.29974640983E+02  0.22158799364E+01  0.30317824323E+02  0.51100000000E-03 0.  1.
         12    1    3    3    0    0  0.61536385982E+01  0.73755740721E+01 -0.43403383876E+01  0.10540630826E+02  0.00000000000E+00 0. -1.
</event>
<event>
 7    1 -0.3910751E-009  0.4778732E+02  0.7816164E-02  0.1312668E+00
        -11   -1    0    0    0    0  0.00000000000E+00  0.00000000000E+00  0.45593999997E+02  0.45594000000E+02  0.51100000000E-03 0. -1.
         11   -1    0    0    0    0 -0.00000000000E+00 -0.00000000000E+00 -0.45593999997E+02  0.45594000000E+02  0.51100000000E-03 0.  1.
    9900012    2    1    2    0    0  0.16185505824E+02 -0.30060798062E+02  0.26795466093E+02  0.47787318185E+02  0.20000214932E+02 0.  0.
        -12    1    1    2    0    0 -0.16185505824E+02  0.30060798062E+02 -0.26795466093E+02  0.43400681815E+02  0.00000000000E+00 0.  1.
         11    1    3    3    0    0  0.88694048593E+01 -0.15767687618E+02  0.40670568967E+01  0.18542579849E+02  0.51100000000E-03 0. -1.
        -11    1    3    3    0    0  0.76236118340E+01 -0.66447579344E+01  0.90543134044E+01  0.13573977195E+02  0.51100000000E-03 0.  1.
         12    1    3    3    0    0 -0.30751086957E+00 -0.76483525087E+01  0.13674095792E+02  0.15670761141E+02  0.00000000000E+00 0. -1.
</event>
<event>
 7    1  0.3910751E-009  0.4778729E+02  0.7816164E-02  0.1312668E+00
        -11   -1    0    0    0    0  0.00000000000E+00  0.00000000000E+00  0.45593999997E+02  0.45594000000E+02  0.51100000000E-03 0.  1.
         11   -1    0    0    0    0 -0.00000000000E+00 -0.00000000000E+00 -0.45593999997E+02  0.45594000000E+02  0.51100000000E-03 0. -1.
    9900012    2    1    2    0    0 -0.30049735890E+02  0.53846122199E+01 -0.30848683754E+02  0.47787286122E+02  0.20000068744E+02 0.  0.
        -12    1    1    2    0    0  0.30049735890E+02 -0.53846122199E+01  0.30848683754E+02  0.43400713878E+02  0.00000000000E+00 0.  1.
         11    1    3    3    0    0 -0.69178502545E+01  0.90620974544E+01 -0.14333861642E+02  0.18314962524E+02  0.51100000000E-03 0.  1.
        -11    1    3    3    0    0 -0.17698392439E+02 -0.86386521412E+00 -0.14880900755E+02  0.23139156544E+02  0.51100000000E-03 0. -1.
        -12    1    3    3    0    0 -0.54334931964E+01 -0.28136200204E+01 -0.16339213570E+01  0.63331670541E+01  0.00000000000E+00 0.  1.
</event>
<event>
 7    1  0.3910751E-009  0.4778728E+02  0.7816164E-02  0.1312668E+00
        -11   -1    0    0    0    0  0.00000000000E+00  0.00000000000E+00  0.45593999997E+02  0.45594000000E+02  0.51100000000E-03 0. -1.
         11   -1    0    0    0    0 -0.00000000000E+00 -0.00000000000E+00 -0.45593999997E+02  0.45594000000E+02  0.51100000000E-03 0.  1.
    9900012    2    1    2    0    0  0.29139761536E+02  0.59013946925E+01  0.31617564806E+02  0.47787279200E+02  0.20000037184E+02 0.  0.
        -12    1    1    2    0    0 -0.29139761536E+02 -0.59013946925E+01 -0.31617564806E+02  0.43400720800E+02  0.00000000000E+00 0.  1.
         11    1    3    3    0    0  0.13376273822E+02 -0.21435261602E+01  0.63162309478E+01  0.14947045842E+02  0.51100000000E-03 0.  1.
        -11    1    3    3    0    0  0.14391190280E+02  0.18819889423E+01  0.19116451545E+02  0.24001811598E+02  0.51100000000E-03 0. -1.
         12    1    3    3    0    0  0.13722974343E+01  0.61629319103E+01  0.61848823131E+01  0.88384217599E+01  0.00000000000E+00 0. -1.
</event>
<event>
 7    1  0.4986121E-009  0.4778727E+02  0.7816164E-02  0.1312668E+00
        -11   -1    0    0    0    0  0.00000000000E+00  0.00000000000E+00  0.45593999997E+02  0.45594000000E+02  0.51100000000E-03 0.  1.
         11   -1    0    0    0    0 -0.00000000000E+00 -0.00000000000E+00 -0.45593999997E+02  0.45594000000E+02  0.51100000000E-03 0. -1.
    9900012    2    1    2    0    0  0.15466587824E+02 -0.34139553887E+02 -0.21883755415E+02  0.47787271555E+02  0.20000002327E+02 0.  0.
        -12    1    1    2    0    0 -0.15466587824E+02  0.34139553887E+02  0.21883755415E+02  0.43400728445E+02  0.00000000000E+00 0.  1.
         11    1    3    3    0    0  0.96778375603E+01 -0.13118084724E+02 -0.84728982524E+01  0.18372117236E+02  0.51100000000E-03 0. -1.
        -11    1    3    3    0    0  0.36385056838E+01 -0.11248520654E+02 -0.15193152686E+02  0.19250969569E+02  0.51100000000E-03 0.  1.
        -12    1    3    3    0    0  0.21502445800E+01 -0.97729485085E+01  0.17822955242E+01  0.10164184750E+02  0.00000000000E+00 0.  1.
</event>
<event>
 7    1  0.3910751E-009  0.4778727E+02  0.7816164E-02  0.1312668E+00
        -11   -1    0    0    0    0  0.00000000000E+00  0.00000000000E+00  0.45593999997E+02  0.45594000000E+02  0.51100000000E-03 0.  1.
         11   -1    0    0    0    0 -0.00000000000E+00 -0.00000000000E+00 -0.45593999997E+02  0.45594000000E+02  0.51100000000E-03 0. -1.
    9900012    2    1    2    0    0 -0.42938805531E+02  0.51238969302E+01 -0.36915598147E+01  0.47787274729E+02  0.20000016801E+02 0.  0.
        -12    1    1    2    0    0  0.42938805531E+02 -0.51238969302E+01  0.36915598147E+01  0.43400725271E+02  0.00000000000E+00 0.  1.
         11    1    3    3    0    0 -0.13265036279E+02  0.12114243852E+01 -0.16552890161E+01  0.13422694160E+02  0.51100000000E-03 0. -1.
        -11    1    3    3    0    0 -0.84334311617E+01  0.88264933631E+01 -0.28948665443E+01  0.12546314153E+02  0.51100000000E-03 0.  1.
        -12    1    3    3    0    0 -0.21240338090E+02 -0.49140208181E+01  0.85859574566E+00  0.21818266416E+02  0.00000000000E+00 0.  1.
</event>
<event>
 7    1  0.3910751E-009  0.4778727E+02  0.7816164E-02  0.1312668E+00
        -11   -1    0    0    0    0  0.00000000000E+00  0.00000000000E+00  0.45593999997E+02  0.45594000000E+02  0.51100000000E-03 0. -1.
         11   -1    0    0    0    0 -0.00000000000E+00 -0.00000000000E+00 -0.45593999997E+02  0.45594000000E+02  0.51100000000E-03 0.  1.
    9900012    2    1    2    0    0  0.41079578229E+02  0.12850647008E+02 -0.55634847602E+01  0.47787271450E+02  0.20000001848E+02 0.  0.
        -12    1    1    2    0    0 -0.41079578229E+02 -0.12850647008E+02  0.55634847602E+01  0.43400728550E+02  0.00000000000E+00 0.  1.
         11    1    3    3    0    0  0.16373778579E+01 -0.12545400740E+01  0.18420786965E+01  0.27655254893E+01  0.51100000000E-03 0. -1.
        -11    1    3    3    0    0  0.14293334815E+02  0.12835687014E+02 -0.25910885121E+01  0.19384736810E+02  0.51100000000E-03 0.  1.
         12    1    3    3    0    0  0.25148865556E+02  0.12695000682E+01 -0.48144749445E+01  0.25637009150E+02  0.00000000000E+00 0. -1.
</event>
<event>
 7    1  0.3910751E-009  0.4778728E+02  0.7816164E-02  0.1312668E+00
        -11   -1    0    0    0    0  0.00000000000E+00  0.00000000000E+00  0.45593999997E+02  0.45594000000E+02  0.51100000000E-03 0. -1.
         11   -1    0    0    0    0 -0.00000000000E+00 -0.00000000000E+00 -0.45593999997E+02  0.45594000000E+02  0.51100000000E-03 0.  1.
    9900012    2    1    2    0    0 -0.23548521878E+02  0.58852953114E+01  0.35978511760E+02  0.47787275444E+02  0.20000020060E+02 0.  0.
        -12    1    1    2    0    0  0.23548521878E+02 -0.58852953114E+01 -0.35978511760E+02  0.43400724556E+02  0.00000000000E+00 0.  1.
         11    1    3    3    0    0 -0.45393233105E+01  0.14863958667E+01 -0.48296071577E+00  0.48008416037E+01  0.51100000000E-03 0. -1.
        -11    1    3    3    0    0 -0.61648809860E+01  0.30769398167E+01  0.24266700505E+02  0.25225900774E+02  0.51100000000E-03 0.  1.
         12    1    3    3    0    0 -0.12844317581E+02  0.13219596280E+01  0.12194771970E+02  0.17760533066E+02  0.00000000000E+00 0. -1.
</event>
<event>
 7    1  0.3910751E-009  0.4778727E+02  0.7816164E-02  0.1312668E+00
        -11   -1    0    0    0    0  0.00000000000E+00  0.00000000000E+00  0.45593999997E+02  0.45594000000E+02  0.51100000000E-03 0. -1.
         11   -1    0    0    0    0 -0.00000000000E+00 -0.00000000000E+00 -0.45593999997E+02  0.45594000000E+02  0.51100000000E-03 0.  1.
    9900012    2    1    2    0    0 -0.31291543778E+02 -0.90646413415E+01  0.28675685332E+02  0.47787270007E+02  0.19999995271E+02 0.  0.
        -12    1    1    2    0    0  0.31291543778E+02  0.90646413415E+01 -0.28675685332E+02  0.43400729993E+02  0.00000000000E+00 0.  1.
         11    1    3    3    0    0 -0.24270941810E+02 -0.11911480323E+02  0.26585136915E+02  0.37917429830E+02  0.51100000000E-03 0. -1.
        -11    1    3    3    0    0 -0.59373378215E+01  0.15864356795E+01  0.40043853373E+01  0.73351115031E+01  0.51100000000E-03 0.  1.
         12    1    3    3    0    0 -0.10832641458E+01  0.12604033023E+01 -0.19138369204E+01  0.25347286742E+01  0.00000000000E+00 0. -1.
</event>
<event>
 7    1  0.3910751E-009  0.4778727E+02  0.7816164E-02  0.1312668E+00
        -11   -1    0    0    0    0  0.00000000000E+00  0.00000000000E+00  0.45593999997E+02  0.45594000000E+02  0.51100000000E-03 0.  1.
         11   -1    0    0    0    0 -0.00000000000E+00 -0.00000000000E+00 -0.45593999997E+02  0.45594000000E+02  0.51100000000E-03 0. -1.
    9900012    2    1    2    0    0  0.10368550314E+02 -0.70916208670E+01 -0.41543055487E+02  0.47787269806E+02  0.19999994355E+02 0.  0.
        -12    1    1    2    0    0 -0.10368550314E+02  0.70916208670E+01  0.41543055487E+02  0.43400730194E+02  0.00000000000E+00 0.  1.
         11    1    3    3    0    0  0.86623516201E+01 -0.83660020957E+01 -0.19851483507E+02  0.23218693424E+02  0.51100000000E-03 0. -1.
        -11    1    3    3    0    0  0.54249907419E+01 -0.64890124906E+00 -0.51601359228E+01  0.75152245730E+01  0.51100000000E-03 0.  1.
        -12    1    3    3    0    0 -0.37187920482E+01  0.19232824777E+01 -0.16531436058E+02  0.17053351809E+02  0.00000000000E+00 0.  1.
</event>
<event>
 7    1  0.3910751E-009  0.4778727E+02  0.7816164E-02  0.1312668E+00
        -11   -1    0    0    0    0  0.00000000000E+00  0.00000000000E+00  0.45593999997E+02  0.45594000000E+02  0.51100000000E-03 0.  1.
         11   -1    0    0    0    0 -0.00000000000E+00 -0.00000000000E+00 -0.45593999997E+02  0.45594000000E+02  0.51100000000E-03 0. -1.
    9900012    2    1    2    0    0 -0.19147457844E+02 -0.29095176391E+02 -0.25893414379E+02  0.47787270291E+02  0.19999996564E+02 0.  0.
        -12    1    1    2    0    0  0.19147457844E+02  0.29095176391E+02  0.25893414379E+02  0.43400729709E+02  0.00000000000E+00 0.  1.
         11    1    3    3    0    0 -0.19165365852E+02 -0.23162998282E+02 -0.17780237392E+02  0.34928105869E+02  0.51100000000E-03 0.  1.
        -11    1    3    3    0    0 -0.25138093381E+01 -0.56151454876E+01 -0.24028930444E+01  0.66047703577E+01  0.51100000000E-03 0. -1.
        -12    1    3    3    0    0  0.25317173456E+01 -0.31703262134E+00 -0.57102839425E+01  0.62543940638E+01  0.00000000000E+00 0.  1.
</event>
<event>
 7    1  0.3910751E-009  0.4778727E+02  0.7816164E-02  0.1312668E+00
        -11   -1    0    0    0    0  0.00000000000E+00  0.00000000000E+00  0.45593999997E+02  0.45594000000E+02  0.51100000000E-03 0.  1.
         11   -1    0    0    0    0 -0.00000000000E+00 -0.00000000000E+00 -0.45593999997E+02  0.45594000000E+02  0.51100000000E-03 0. -1.
    9900012    2    1    2    0    0 -0.10528142533E+02 -0.22668556461E+02 -0.35481234750E+02  0.47787271243E+02  0.20000000908E+02 0.  0.
        -12    1    1    2    0    0  0.10528142533E+02  0.22668556461E+02  0.35481234750E+02  0.43400728757E+02  0.00000000000E+00 0.  1.
         11    1    3    3    0    0 -0.87376861744E+01 -0.10139031461E+02 -0.10940536531E+02  0.17287060436E+02  0.51100000000E-03 0. -1.
        -11    1    3    3    0    0  0.18688164075E+00 -0.96586134541E+01 -0.54456697980E+01  0.11089592347E+02  0.51100000000E-03 0.  1.
        -12    1    3    3    0    0 -0.19773379996E+01 -0.28709115458E+01 -0.19095028421E+02  0.19410618461E+02  0.00000000000E+00 0.  1.
</event>
<event>
 7    1  0.3910751E-009  0.4778727E+02  0.7816164E-02  0.1312668E+00
        -11   -1    0    0    0    0  0.00000000000E+00  0.00000000000E+00  0.45593999997E+02  0.45594000000E+02  0.51100000000E-03 0.  1.
         11   -1    0    0    0    0 -0.00000000000E+00 -0.00000000000E+00 -0.45593999997E+02  0.45594000000E+02  0.51100000000E-03 0. -1.
    9900012    2    1    2    0    0  0.45996902144E+01 -0.27720758647E+02 -0.33076058115E+02  0.47787271545E+02  0.20000002281E+02 0.  0.
        -12    1    1    2    0    0 -0.45996902144E+01  0.27720758647E+02  0.33076058115E+02  0.43400728455E+02  0.00000000000E+00 0.  1.
         11    1    3    3    0    0  0.19841927873E+01 -0.42028765049E+01 -0.58873066781E+01  0.75007714347E+01  0.51100000000E-03 0. -1.
        -11    1    3    3    0    0 -0.88206655499E+00 -0.10844256302E+02 -0.24583417916E+02  0.26883459094E+02  0.51100000000E-03 0.  1.
        -12    1    3    3    0    0  0.34975639821E+01 -0.12673625839E+02 -0.26053335212E+01  0.13403041016E+02  0.00000000000E+00 0.  1.
</event>
<event>
 7    1  0.3910751E-009  0.4778727E+02  0.7816164E-02  0.1312668E+00
        -11   -1    0    0    0    0  0.00000000000E+00  0.00000000000E+00  0.45593999997E+02  0.45594000000E+02  0.51100000000E-03 0.  1.
         11   -1    0    0    0    0 -0.00000000000E+00 -0.00000000000E+00 -0.45593999997E+02  0.45594000000E+02  0.51100000000E-03 0. -1.
    9900012    2    1    2    0    0 -0.39707463181E+02  0.15880215730E+02 -0.73999516023E+01  0.47787272268E+02  0.20000005580E+02 0.  0.
        -12    1    1    2    0    0  0.39707463181E+02 -0.15880215730E+02  0.73999516023E+01  0.43400727732E+02  0.00000000000E+00 0.  1.
         11    1    3    3    0    0 -0.16443369818E+01  0.29416080796E+01  0.11130926201E+01  0.35490671515E+01  0.51100000000E-03 0. -1.
        -11    1    3    3    0    0 -0.96995073135E+01  0.10940819942E+02 -0.55940303142E+01  0.15654876510E+02  0.51100000000E-03 0.  1.
         12    1    3    3    0    0 -0.28363618886E+02  0.19977877083E+01 -0.29190139082E+01  0.28583328607E+02  0.00000000000E+00 0. -1.
</event>
<event>
 7    1  0.3910751E-009  0.4778727E+02  0.7816164E-02  0.1312668E+00
        -11   -1    0    0    0    0  0.00000000000E+00  0.00000000000E+00  0.45593999997E+02  0.45594000000E+02  0.51100000000E-03 0.  1.
         11   -1    0    0    0    0 -0.00000000000E+00 -0.00000000000E+00 -0.45593999997E+02  0.45594000000E+02  0.51100000000E-03 0. -1.
    9900012    2    1    2    0    0 -0.14567922035E+02  0.91716333559E+00 -0.40872457148E+02  0.47787270809E+02  0.19999998926E+02 0.  0.
        -12    1    1    2    0    0  0.14567922035E+02 -0.91716333559E+00  0.40872457148E+02  0.43400729191E+02  0.00000000000E+00 0.  1.
         11    1    3    3    0    0 -0.13076878999E+01  0.26345209188E+01 -0.20222220429E+02  0.20434993209E+02  0.51100000000E-03 0. -1.
        -11    1    3    3    0    0 -0.63114995569E+00 -0.48736893355E+01 -0.59346570475E+01  0.77052808215E+01  0.51100000000E-03 0.  1.
         12    1    3    3    0    0 -0.12629084179E+02  0.31563317523E+01 -0.14715579671E+02  0.19646996778E+02  0.00000000000E+00 0. -1.
</event>
<event>
 7    1  0.3910751E-009  0.4778727E+02  0.7816164E-02  0.1312668E+00
        -11   -1    0    0    0    0  0.00000000000E+00  0.00000000000E+00  0.45593999997E+02  0.45594000000E+02  0.51100000000E-03 0. -1.
         11   -1    0    0    0    0 -0.00000000000E+00 -0.00000000000E+00 -0.45593999997E+02  0.45594000000E+02  0.51100000000E-03 0.  1.
    9900012    2    1    2    0    0 -0.13352328932E+02 -0.27975751883E+02  0.30375909855E+02  0.47787270964E+02  0.19999999635E+02 0.  0.
        -12    1    1    2    0    0  0.13352328932E+02  0.27975751883E+02 -0.30375909855E+02  0.43400729036E+02  0.00000000000E+00 0.  1.
         11    1    3    3    0    0  0.24444462500E+01 -0.29978749970E+01  0.38611074098E+01  0.54654114812E+01  0.51100000000E-03 0. -1.
        -11    1    3    3    0    0 -0.48727796254E+01 -0.72728126720E+01  0.17662283746E+02  0.19712789068E+02  0.51100000000E-03 0.  1.
        -12    1    3    3    0    0 -0.10923995556E+02 -0.17705064214E+02  0.88525186990E+01  0.22609070415E+02  0.00000000000E+00 0.  1.
</event>
<event>
 7    1  0.3910751E-009  0.4778726E+02  0.7816164E-02  0.1312668E+00
        -11   -1    0    0    0    0  0.00000000000E+00  0.00000000000E+00  0.45593999997E+02  0.45594000000E+02  0.51100000000E-03 0.  1.
         11   -1    0    0    0    0 -0.00000000000E+00 -0.00000000000E+00 -0.45593999997E+02  0.45594000000E+02  0.51100000000E-03 0. -1.
    9900012    2    1    2    0    0  0.21088110724E+02 -0.37881010872E+02  0.19861558331E+01  0.47787260218E+02  0.19999950639E+02 0.  0.
        -12    1    1    2    0    0 -0.21088110724E+02  0.37881010872E+02 -0.19861558331E+01  0.43400739782E+02  0.00000000000E+00 0.  1.
         11    1    3    3    0    0  0.11498180710E+02 -0.15118143206E+02  0.45706632537E+01  0.19536053247E+02  0.51100000000E-03 0. -1.
        -11    1    3    3    0    0  0.70941125220E+01 -0.20926384474E+02  0.25616555345E+01  0.22244147072E+02  0.51100000000E-03 0.  1.
         12    1    3    3    0    0  0.24958174917E+01 -0.18364831926E+01 -0.51461629552E+01  0.60070598990E+01  0.00000000000E+00 0. -1.
</event>
<event>
 7    1  0.3910751E-009  0.4778728E+02  0.7816164E-02  0.1312668E+00
        -11   -1    0    0    0    0  0.00000000000E+00  0.00000000000E+00  0.45593999997E+02  0.45594000000E+02  0.51100000000E-03 0.  1.
         11   -1    0    0    0    0 -0.00000000000E+00 -0.00000000000E+00 -0.45593999997E+02  0.45594000000E+02  0.51100000000E-03 0. -1.
    9900012    2    1    2    0    0 -0.25485586852E+02  0.93376745166E+01 -0.33866135010E+02  0.47787281077E+02  0.20000045742E+02 0.  0.
        -12    1    1    2    0    0  0.25485586852E+02 -0.93376745166E+01  0.33866135010E+02  0.43400718923E+02  0.00000000000E+00 0.  1.
         11    1    3    3    0    0 -0.49887280314E+01  0.10757658167E+00  0.15277347007E+01  0.52185202566E+01  0.51100000000E-03 0. -1.
        -11    1    3    3    0    0 -0.65773864918E+01  0.68208002072E+01 -0.12879823932E+02  0.15989846570E+02  0.51100000000E-03 0.  1.
         12    1    3    3    0    0 -0.13919472329E+02  0.24092977277E+01 -0.22514045778E+02  0.26578914251E+02  0.00000000000E+00 0. -1.
</event>
<event>
 7    1  0.3910751E-009  0.4778727E+02  0.7816164E-02  0.1312668E+00
        -11   -1    0    0    0    0  0.00000000000E+00  0.00000000000E+00  0.45593999997E+02  0.45594000000E+02  0.51100000000E-03 0.  1.
         11   -1    0    0    0    0 -0.00000000000E+00 -0.00000000000E+00 -0.45593999997E+02  0.45594000000E+02  0.51100000000E-03 0. -1.
    9900012    2    1    2    0    0 -0.20346221821E+02  0.93822432232E+01 -0.37170258940E+02  0.47787269823E+02  0.19999994431E+02 0.  0.
        -12    1    1    2    0    0  0.20346221821E+02 -0.93822432232E+01  0.37170258940E+02  0.43400730177E+02  0.00000000000E+00 0.  1.
         11    1    3    3    0    0 -0.60124026037E+01 -0.25604753687E+01 -0.73566536001E+01  0.98399883961E+01  0.51100000000E-03 0. -1.
        -11    1    3    3    0    0 -0.12955322098E+02  0.43574465233E+01 -0.10768128083E+02  0.17400583138E+02  0.51100000000E-03 0.  1.
        -12    1    3    3    0    0 -0.13784971192E+01  0.75852720686E+01 -0.19045477256E+02  0.20546698289E+02  0.00000000000E+00 0.  1.
</event>
<event>
 7    1  0.4389258E-009  0.4778727E+02  0.7816164E-02  0.1312668E+00
        -11   -1    0    0    0    0  0.00000000000E+00  0.00000000000E+00  0.45593999997E+02  0.45594000000E+02  0.51100000000E-03 0. -1.
         11   -1    0    0    0    0 -0.00000000000E+00 -0.00000000000E+00 -0.45593999997E+02  0.45594000000E+02  0.51100000000E-03 0.  1.
    9900012    2    1    2    0    0 -0.10448040382E+02 -0.81524981958E+01  0.41327941853E+02  0.47787267835E+02  0.19999985365E+02 0.  0.
        -12    1    1    2    0    0  0.10448040382E+02  0.81524981958E+01 -0.41327941853E+02  0.43400732165E+02  0.00000000000E+00 0.  1.
         11    1    3    3    0    0 -0.82327732900E+01 -0.33312729390E+01  0.22409699659E+02  0.24105405503E+02  0.51100000000E-03 0. -1.
        -11    1    3    3    0    0 -0.38258761771E+01  0.37955623322E+01  0.59390039070E+01  0.80196876254E+01  0.51100000000E-03 0.  1.
        -12    1    3    3    0    0  0.16106090852E+01 -0.86167875891E+01  0.12979238288E+02  0.15662174706E+02  0.00000000000E+00 0.  1.
</event>
<event>
 7    1  0.3910751E-009  0.4778727E+02  0.7816164E-02  0.1312668E+00
        -11   -1    0    0    0    0  0.00000000000E+00  0.00000000000E+00  0.45593999997E+02  0.45594000000E+02  0.51100000000E-03 0. -1.
         11   -1    0    0    0    0 -0.00000000000E+00 -0.00000000000E+00 -0.45593999997E+02  0.45594000000E+02  0.51100000000E-03 0.  1.
    9900012    2    1    2    0    0 -0.20886759369E+02  0.97677957218E+01  0.36768961175E+02  0.47787273553E+02  0.20000011439E+02 0.  0.
        -12    1    1    2    0    0  0.20886759369E+02 -0.97677957218E+01 -0.36768961175E+02  0.43400726447E+02  0.00000000000E+00 0.  1.
         11    1    3    3    0    0 -0.15540523680E+01  0.31246490917E+01  0.63248545413E+01  0.72237314415E+01  0.51100000000E-03 0. -1.
        -11    1    3    3    0    0 -0.11153461986E+02 -0.39946936555E+01  0.21144448672E+02  0.24237264729E+02  0.51100000000E-03 0.  1.
        -12    1    3    3    0    0 -0.81792450155E+01  0.10637840286E+02  0.92996579617E+01  0.16326277382E+02  0.00000000000E+00 0.  1.
</event>
<event>
 7    1  0.3910751E-009  0.4778726E+02  0.7816164E-02  0.1312668E+00
        -11   -1    0    0    0    0  0.00000000000E+00  0.00000000000E+00  0.45593999997E+02  0.45594000000E+02  0.51100000000E-03 0.  1.
         11   -1    0    0    0    0 -0.00000000000E+00 -0.00000000000E+00 -0.45593999997E+02  0.45594000000E+02  0.51100000000E-03 0. -1.
    9900012    2    1    2    0    0  0.11642750863E+00 -0.92403220106E+01 -0.42405503494E+02  0.47787264605E+02  0.19999970642E+02 0.  0.
        -12    1    1    2    0    0 -0.11642750863E+00  0.92403220106E+01  0.42405503494E+02  0.43400735395E+02  0.00000000000E+00 0.  1.
         11    1    3    3    0    0 -0.23509353535E+01  0.70807565244E+00 -0.45524125327E+01  0.51723039639E+01  0.51100000000E-03 0. -1.
        -11    1    3    3    0    0  0.65770033172E+01 -0.26680133002E+01 -0.31008051887E+02  0.31809975631E+02  0.51100000000E-03 0.  1.
         12    1    3    3    0    0 -0.41096404551E+01 -0.72803843629E+01 -0.68450390745E+01  0.10804985010E+02  0.00000000000E+00 0. -1.
</event>
<event>
 7    1  0.4412754E-009  0.4778727E+02  0.7816164E-02  0.1312668E+00
        -11   -1    0    0    0    0  0.00000000000E+00  0.00000000000E+00  0.45593999997E+02  0.45594000000E+02  0.51100000000E-03 0.  1.
         11   -1    0    0    0    0 -0.00000000000E+00 -0.00000000000E+00 -0.45593999997E+02  0.45594000000E+02  0.51100000000E-03 0. -1.
    9900012    2    1    2    0    0 -0.16694377520E+02 -0.37140499843E+02 -0.15016797969E+02  0.47787272004E+02  0.20000004374E+02 0.  0.
        -12    1    1    2    0    0  0.16694377520E+02  0.37140499843E+02  0.15016797969E+02  0.43400727996E+02  0.00000000000E+00 0.  1.
         11    1    3    3    0    0 -0.38013394867E+01 -0.12635264170E+02 -0.56393368022E+01  0.14349292748E+02  0.51100000000E-03 0. -1.
        -11    1    3    3    0    0 -0.12417365148E+02 -0.77062067442E+01 -0.77809298938E+01  0.16556553080E+02  0.51100000000E-03 0.  1.
        -12    1    3    3    0    0 -0.47567288528E+00 -0.16799028928E+02 -0.15965312733E+01  0.16881426176E+02  0.00000000000E+00 0.  1.
</event>
<event>
 7    1  0.3910751E-009  0.4778727E+02  0.7816164E-02  0.1312668E+00
        -11   -1    0    0    0    0  0.00000000000E+00  0.00000000000E+00  0.45593999997E+02  0.45594000000E+02  0.51100000000E-03 0. -1.
         11   -1    0    0    0    0 -0.00000000000E+00 -0.00000000000E+00 -0.45593999997E+02  0.45594000000E+02  0.51100000000E-03 0.  1.
    9900012    2    1    2    0    0  0.25377337059E+02 -0.24492399960E+02  0.25293010891E+02  0.47787270836E+02  0.19999999052E+02 0.  0.
        -12    1    1    2    0    0 -0.25377337059E+02  0.24492399960E+02 -0.25293010891E+02  0.43400729164E+02  0.00000000000E+00 0.  1.
         11    1    3    3    0    0  0.29990983873E+01 -0.33837749111E+01  0.47833076356E+00  0.45467927560E+01  0.51100000000E-03 0. -1.
        -11    1    3    3    0    0  0.23831616061E+01  0.85691639227E+00 -0.19976776135E+01  0.32255977822E+01  0.51100000000E-03 0.  1.
        -12    1    3    3    0    0  0.19995077065E+02 -0.21965541441E+02  0.26812357741E+02  0.40014880298E+02  0.00000000000E+00 0.  1.
</event>
<event>
 7    1  0.3910751E-009  0.4778727E+02  0.7816164E-02  0.1312668E+00
        -11   -1    0    0    0    0  0.00000000000E+00  0.00000000000E+00  0.45593999997E+02  0.45594000000E+02  0.51100000000E-03 0. -1.
         11   -1    0    0    0    0 -0.00000000000E+00 -0.00000000000E+00 -0.45593999997E+02  0.45594000000E+02  0.51100000000E-03 0.  1.
    9900012    2    1    2    0    0  0.21351521195E+02  0.20533698431E+02  0.31719127961E+02  0.47787270660E+02  0.19999998249E+02 0.  0.
        -12    1    1    2    0    0 -0.21351521195E+02 -0.20533698431E+02 -0.31719127961E+02  0.43400729340E+02  0.00000000000E+00 0.  1.
         11    1    3    3    0    0  0.38492941423E+01  0.15088682865E+01  0.21810593493E+01  0.46744806177E+01  0.51100000000E-03 0. -1.
        -11    1    3    3    0    0  0.12643501324E+02  0.71000581219E+01  0.48883788829E+01  0.15302457301E+02  0.51100000000E-03 0.  1.
         12    1    3    3    0    0  0.48587257283E+01  0.11924772022E+02  0.24649689729E+02  0.27810332742E+02  0.00000000000E+00 0. -1.
</event>
<event>
 7    1  0.3910751E-009  0.4778727E+02  0.7816164E-02  0.1312668E+00
        -11   -1    0    0    0    0  0.00000000000E+00  0.00000000000E+00  0.45593999997E+02  0.45594000000E+02  0.51100000000E-03 0.  1.
         11   -1    0    0    0    0 -0.00000000000E+00 -0.00000000000E+00 -0.45593999997E+02  0.45594000000E+02  0.51100000000E-03 0. -1.
    9900012    2    1    2    0    0  0.23335857224E+01  0.43243984058E+02  0.28522690978E+01  0.47787271682E+02  0.20000002908E+02 0.  0.
        -12    1    1    2    0    0 -0.23335857224E+01 -0.43243984058E+02 -0.28522690978E+01  0.43400728318E+02  0.00000000000E+00 0.  1.
         11    1    3    3    0    0 -0.24491674400E+01  0.39444049647E+01 -0.29873832533E+01  0.55209791376E+01  0.51100000000E-03 0. -1.
        -11    1    3    3    0    0  0.47924083426E+01  0.34290791485E+01 -0.17280841710E+00  0.58953901092E+01  0.51100000000E-03 0.  1.
         12    1    3    3    0    0 -0.96551802599E-02  0.35870499944E+02  0.60124607682E+01  0.36370902436E+02  0.00000000000E+00 0. -1.
</event>
<event>
 7    1  0.3910751E-009  0.4778727E+02  0.7816164E-02  0.1312668E+00
        -11   -1    0    0    0    0  0.00000000000E+00  0.00000000000E+00  0.45593999997E+02  0.45594000000E+02  0.51100000000E-03 0.  1.
         11   -1    0    0    0    0 -0.00000000000E+00 -0.00000000000E+00 -0.45593999997E+02  0.45594000000E+02  0.51100000000E-03 0. -1.
    9900012    2    1    2    0    0 -0.30792231055E+02 -0.14684862408E+02 -0.26829403662E+02  0.47787267539E+02  0.19999984017E+02 0.  0.
        -12    1    1    2    0    0  0.30792231055E+02  0.14684862408E+02  0.26829403662E+02  0.43400732461E+02  0.00000000000E+00 0.  1.
         11    1    3    3    0    0 -0.10122502504E+02 -0.87923809461E+01 -0.25515980576E+01  0.13648504407E+02  0.51100000000E-03 0. -1.
        -11    1    3    3    0    0 -0.63388786793E+01 -0.70523030036E+01 -0.78703184182E+01  0.12323078870E+02  0.51100000000E-03 0.  1.
        -12    1    3    3    0    0 -0.14330849871E+02  0.11598215414E+01 -0.16407487187E+02  0.21815684262E+02  0.00000000000E+00 0.  1.
</event>
<event>
 7    1  0.3910751E-009  0.4778728E+02  0.7816164E-02  0.1312668E+00
        -11   -1    0    0    0    0  0.00000000000E+00  0.00000000000E+00  0.45593999997E+02  0.45594000000E+02  0.51100000000E-03 0.  1.
         11   -1    0    0    0    0 -0.00000000000E+00 -0.00000000000E+00 -0.45593999997E+02  0.45594000000E+02  0.51100000000E-03 0. -1.
    9900012    2    1    2    0    0  0.40795838308E+02 -0.14338910365E+02 -0.37037826321E+01  0.47787276740E+02  0.20000025969E+02 0.  0.
        -12    1    1    2    0    0 -0.40795838308E+02  0.14338910365E+02  0.37037826321E+01  0.43400723260E+02  0.00000000000E+00 0.  1.
         11    1    3    3    0    0  0.77288157296E+01 -0.22918792116E+01  0.12663611450E+01  0.81603292650E+01  0.51100000000E-03 0.  1.
        -11    1    3    3    0    0  0.20046865217E+02 -0.13097920407E+02 -0.95561675587E+01  0.25782797806E+02  0.51100000000E-03 0. -1.
         12    1    3    3    0    0  0.13020157361E+02  0.10508892540E+01  0.45860237816E+01  0.13844149669E+02  0.00000000000E+00 0. -1.
</event>
<event>
 7    1  0.3910751E-009  0.4778727E+02  0.7816164E-02  0.1312668E+00
        -11   -1    0    0    0    0  0.00000000000E+00  0.00000000000E+00  0.45593999997E+02  0.45594000000E+02  0.51100000000E-03 0. -1.
         11   -1    0    0    0    0 -0.00000000000E+00 -0.00000000000E+00 -0.45593999997E+02  0.45594000000E+02  0.51100000000E-03 0.  1.
    9900012    2    1    2    0    0 -0.41718797911E+02  0.11711509630E+02 -0.24506824870E+01  0.47787269573E+02  0.19999993291E+02 0.  0.
        -12    1    1    2    0    0  0.41718797911E+02 -0.11711509630E+02  0.24506824870E+01  0.43400730427E+02  0.00000000000E+00 0.  1.
         11    1    3    3    0    0 -0.12095960803E+02  0.85470720788E+01 -0.27001279266E+01  0.15055078876E+02  0.51100000000E-03 0. -1.
        -11    1    3    3    0    0 -0.18905567371E+02  0.66572281379E+01  0.47438278927E+01  0.20597161635E+02  0.51100000000E-03 0.  1.
        -12    1    3    3    0    0 -0.10717269737E+02 -0.34927905872E+01 -0.44943824531E+01  0.12135029062E+02  0.00000000000E+00 0.  1.
</event>
<event>
 7    1  0.3910751E-009  0.4778727E+02  0.7816164E-02  0.1312668E+00
        -11   -1    0    0    0    0  0.00000000000E+00  0.00000000000E+00  0.45593999997E+02  0.45594000000E+02  0.51100000000E-03 0. -1.
         11   -1    0    0    0    0 -0.00000000000E+00 -0.00000000000E+00 -0.45593999997E+02  0.45594000000E+02  0.51100000000E-03 0.  1.
    9900012    2    1    2    0    0  0.11690526141E+02  0.32197064194E+02  0.26651523404E+02  0.47787273693E+02  0.20000012077E+02 0.  0.
        -12    1    1    2    0    0 -0.11690526141E+02 -0.32197064194E+02 -0.26651523404E+02  0.43400726307E+02  0.00000000000E+00 0.  1.
         11    1    3    3    0    0  0.75734339586E+01  0.11413240996E+02  0.31685128335E+01  0.14059105441E+02  0.51100000000E-03 0. -1.
        -11    1    3    3    0    0  0.74781623812E+00 -0.39634353202E-01 -0.11029412566E+01  0.13331465353E+01  0.51100000000E-03 0.  1.
         12    1    3    3    0    0  0.33692759441E+01  0.20823457552E+02  0.24585951828E+02  0.32395021717E+02  0.00000000000E+00 0. -1.
</event>
<event>
 7    1  0.3910751E-009  0.4778727E+02  0.7816164E-02  0.1312668E+00
        -11   -1    0    0    0    0  0.00000000000E+00  0.00000000000E+00  0.45593999997E+02  0.45594000000E+02  0.51100000000E-03 0.  1.
         11   -1    0    0    0    0 -0.00000000000E+00 -0.00000000000E+00 -0.45593999997E+02  0.45594000000E+02  0.51100000000E-03 0. -1.
    9900012    2    1    2    0    0 -0.37792428550E+02  0.45547975158E+00 -0.21334201458E+02  0.47787271096E+02  0.20000000237E+02 0.  0.
        -12    1    1    2    0    0  0.37792428550E+02 -0.45547975158E+00  0.21334201458E+02  0.43400728904E+02  0.00000000000E+00 0.  1.
         11    1    3    3    0    0 -0.29367404730E+02  0.50097963520E+01 -0.21875061419E+02  0.36960260178E+02  0.51100000000E-03 0. -1.
        -11    1    3    3    0    0 -0.27144235572E+01 -0.26311511763E+01 -0.20124389690E+01  0.42826350096E+01  0.51100000000E-03 0.  1.
         12    1    3    3    0    0 -0.57106002632E+01 -0.19231654242E+01  0.25532989303E+01  0.65443759093E+01  0.00000000000E+00 0. -1.
</event>
<event>
 7    1  0.3910751E-009  0.4778727E+02  0.7816164E-02  0.1312668E+00
        -11   -1    0    0    0    0  0.00000000000E+00  0.00000000000E+00  0.45593999997E+02  0.45594000000E+02  0.51100000000E-03 0.  1.
         11   -1    0    0    0    0 -0.00000000000E+00 -0.00000000000E+00 -0.45593999997E+02  0.45594000000E+02  0.51100000000E-03 0. -1.
    9900012    2    1    2    0    0  0.23310302806E+02 -0.36344720381E+02 -0.43948207871E+01  0.47787269981E+02  0.19999995150E+02 0.  0.
        -12    1    1    2    0    0 -0.23310302806E+02  0.36344720381E+02  0.43948207871E+01  0.43400730019E+02  0.00000000000E+00 0.  1.
         11    1    3    3    0    0  0.12819985209E+02 -0.96220417681E+01 -0.13680930193E+01  0.16087491641E+02  0.51100000000E-03 0. -1.
        -11    1    3    3    0    0  0.39665702136E+01 -0.17898869794E+01 -0.39978710433E+01  0.59093441089E+01  0.51100000000E-03 0.  1.
         12    1    3    3    0    0  0.65237473841E+01 -0.24932791633E+02  0.97114327541E+00  0.25790434231E+02  0.00000000000E+00 0. -1.
</event>
<event>
 7    1  0.3910751E-009  0.4778726E+02  0.7816164E-02  0.1312668E+00
        -11   -1    0    0    0    0  0.00000000000E+00  0.00000000000E+00  0.45593999997E+02  0.45594000000E+02  0.51100000000E-03 0.  1.
         11   -1    0    0    0    0 -0.00000000000E+00 -0.00000000000E+00 -0.45593999997E+02  0.45594000000E+02  0.51100000000E-03 0. -1.
    9900012    2    1    2    0    0  0.26008259534E+02 -0.33948835854E+02  0.73939856974E+01  0.47787262168E+02  0.19999959530E+02 0.  0.
        -12    1    1    2    0    0 -0.26008259534E+02  0.33948835854E+02 -0.73939856974E+01  0.43400737832E+02  0.00000000000E+00 0.  1.
         11    1    3    3    0    0 -0.14351172022E+00 -0.31842954532E+01  0.53776570147E+00  0.32325725603E+01  0.51100000000E-03 0. -1.
        -11    1    3    3    0    0  0.15619310396E+01 -0.21352486470E+01 -0.44331016144E+01  0.51624902461E+01  0.51100000000E-03 0.  1.
         12    1    3    3    0    0  0.24589840215E+02 -0.28629291754E+02  0.11289321610E+02  0.39392199362E+02  0.00000000000E+00 0. -1.
</event>
<event>
 7    1  0.3910751E-009  0.4778727E+02  0.7816164E-02  0.1312668E+00
        -11   -1    0    0    0    0  0.00000000000E+00  0.00000000000E+00  0.45593999997E+02  0.45594000000E+02  0.51100000000E-03 0.  1.
         11   -1    0    0    0    0 -0.00000000000E+00 -0.00000000000E+00 -0.45593999997E+02  0.45594000000E+02  0.51100000000E-03 0. -1.
    9900012    2    1    2    0    0  0.39617024415E+02 -0.11437330100E+02 -0.13538906614E+02  0.47787272638E+02  0.20000007264E+02 0.  0.
        -12    1    1    2    0    0 -0.39617024415E+02  0.11437330100E+02  0.13538906614E+02  0.43400727362E+02  0.00000000000E+00 0.  1.
         11    1    3    3    0    0  0.15920074799E+02  0.96388408084E-01 -0.89776617404E+01  0.18277212121E+02  0.51100000000E-03 0. -1.
        -11    1    3    3    0    0 -0.54482865903E+00 -0.12669622521E+01 -0.28045326281E+01  0.31252896088E+01  0.51100000000E-03 0.  1.
        -12    1    3    3    0    0  0.24241778275E+02 -0.10266756256E+02 -0.17567122454E+01  0.26384770908E+02  0.00000000000E+00 0.  1.
</event>
<event>
 7    1  0.3910751E-009  0.4778727E+02  0.7816164E-02  0.1312668E+00
        -11   -1    0    0    0    0  0.00000000000E+00  0.00000000000E+00  0.45593999997E+02  0.45594000000E+02  0.51100000000E-03 0.  1.
         11   -1    0    0    0    0 -0.00000000000E+00 -0.00000000000E+00 -0.45593999997E+02  0.45594000000E+02  0.51100000000E-03 0. -1.
    9900012    2    1    2    0    0  0.12722588245E+02  0.40692993690E+02  0.81141599874E+01  0.47787267525E+02  0.19999983953E+02 0.  0.
        -12    1    1    2    0    0 -0.12722588245E+02 -0.40692993690E+02 -0.81141599874E+01  0.43400732475E+02  0.00000000000E+00 0.  1.
         11    1    3    3    0    0  0.69875766760E+01  0.41735857202E+01 -0.63535410805E+00  0.81638667720E+01  0.51100000000E-03 0. -1.
        -11    1    3    3    0    0 -0.27535442452E+01  0.30200743063E+01  0.87612444103E+00  0.41797666231E+01  0.51100000000E-03 0.  1.
         12    1    3    3    0    0  0.84885558138E+01  0.33499333663E+02  0.78733896545E+01  0.35443634130E+02  0.00000000000E+00 0. -1.
</event>
<event>
 7    1  0.3910751E-009  0.4778731E+02  0.7816164E-02  0.1312668E+00
        -11   -1    0    0    0    0  0.00000000000E+00  0.00000000000E+00  0.45593999997E+02  0.45594000000E+02  0.51100000000E-03 0.  1.
         11   -1    0    0    0    0 -0.00000000000E+00 -0.00000000000E+00 -0.45593999997E+02  0.45594000000E+02  0.51100000000E-03 0. -1.
    9900012    2    1    2    0    0 -0.35904959032E+02  0.39321038451E+01 -0.24062258761E+02  0.47787310830E+02  0.20000181396E+02 0.  0.
        -12    1    1    2    0    0  0.35904959032E+02 -0.39321038451E+01  0.24062258761E+02  0.43400689170E+02  0.00000000000E+00 0.  1.
         11    1    3    3    0    0 -0.12049362329E+01 -0.13573508196E+01 -0.50867725248E+00  0.18849470500E+01  0.51100000000E-03 0. -1.
        -11    1    3    3    0    0  0.79081061227E-01  0.45890231215E+01 -0.22542482739E+01  0.51134159391E+01  0.51100000000E-03 0.  1.
         12    1    3    3    0    0 -0.34779103861E+02  0.70043154323E+00 -0.21299333235E+02  0.40788947841E+02  0.00000000000E+00 0. -1.
</event>
<event>
 7    1  0.3910751E-009  0.4778725E+02  0.7816164E-02  0.1312668E+00
        -11   -1    0    0    0    0  0.00000000000E+00  0.00000000000E+00  0.45593999997E+02  0.45594000000E+02  0.51100000000E-03 0. -1.
         11   -1    0    0    0    0 -0.00000000000E+00 -0.00000000000E+00 -0.45593999997E+02  0.45594000000E+02  0.51100000000E-03 0.  1.
    9900012    2    1    2    0    0  0.32049074319E+02 -0.28898870921E+02 -0.46191925775E+01  0.47787252941E+02  0.19999917459E+02 0.  0.
        -12    1    1    2    0    0 -0.32049074319E+02  0.28898870921E+02  0.46191925775E+01  0.43400747059E+02  0.00000000000E+00 0.  1.
         11    1    3    3    0    0  0.16885442588E+02 -0.10846635888E+02  0.17640852520E+01  0.20146455732E+02  0.51100000000E-03 0. -1.
        -11    1    3    3    0    0  0.80156136896E+01 -0.15394376107E+02  0.50608748697E+00  0.17363553880E+02  0.51100000000E-03 0.  1.
        -12    1    3    3    0    0  0.71480180411E+01 -0.26578589253E+01 -0.68893653165E+01  0.10277243329E+02  0.00000000000E+00 0.  1.
</event>
<event>
 7    1  0.3910751E-009  0.4778727E+02  0.7816164E-02  0.1312668E+00
        -11   -1    0    0    0    0  0.00000000000E+00  0.00000000000E+00  0.45593999997E+02  0.45594000000E+02  0.51100000000E-03 0.  1.
         11   -1    0    0    0    0 -0.00000000000E+00 -0.00000000000E+00 -0.45593999997E+02  0.45594000000E+02  0.51100000000E-03 0. -1.
    9900012    2    1    2    0    0  0.15934222167E+02  0.46558137729E+00 -0.40367151737E+02  0.47787272570E+02  0.20000006957E+02 0.  0.
        -12    1    1    2    0    0 -0.15934222167E+02 -0.46558137729E+00  0.40367151737E+02  0.43400727430E+02  0.00000000000E+00 0.  1.
         11    1    3    3    0    0  0.73183459887E-01 -0.18926357652E+01 -0.75889215039E+01  0.78217105425E+01  0.51100000000E-03 0. -1.
        -11    1    3    3    0    0  0.52498981649E+01 -0.11855027518E+01 -0.54485069805E-01  0.53823616006E+01  0.51100000000E-03 0.  1.
         12    1    3    3    0    0  0.10611140543E+02  0.35437198943E+01 -0.32723745163E+02  0.34583200427E+02  0.00000000000E+00 0. -1.
</event>
<event>
 7    1  0.3910751E-009  0.4778729E+02  0.7816164E-02  0.1312668E+00
        -11   -1    0    0    0    0  0.00000000000E+00  0.00000000000E+00  0.45593999997E+02  0.45594000000E+02  0.51100000000E-03 0.  1.
         11   -1    0    0    0    0 -0.00000000000E+00 -0.00000000000E+00 -0.45593999997E+02  0.45594000000E+02  0.51100000000E-03 0. -1.
    9900012    2    1    2    0    0  0.25489757686E+02 -0.34284496104E+02 -0.76463860687E+01  0.47787289869E+02  0.20000085829E+02 0.  0.
        -12    1    1    2    0    0 -0.25489757686E+02  0.34284496104E+02  0.76463860687E+01  0.43400710131E+02  0.00000000000E+00 0.  1.
         11    1    3    3    0    0  0.65156703416E+01 -0.10345918765E+02  0.28881496960E+01  0.12563176510E+02  0.51100000000E-03 0. -1.
        -11    1    3    3    0    0 -0.98593437398E+00  0.68108254748E+00 -0.21144435387E+01  0.24303933356E+01  0.51100000000E-03 0.  1.
         12    1    3    3    0    0  0.19960021718E+02 -0.24619659886E+02 -0.84200922260E+01  0.32793720023E+02  0.00000000000E+00 0. -1.
</event>
<event>
 7    1  0.3910751E-009  0.4778727E+02  0.7816164E-02  0.1312668E+00
        -11   -1    0    0    0    0  0.00000000000E+00  0.00000000000E+00  0.45593999997E+02  0.45594000000E+02  0.51100000000E-03 0.  1.
         11   -1    0    0    0    0 -0.00000000000E+00 -0.00000000000E+00 -0.45593999997E+02  0.45594000000E+02  0.51100000000E-03 0. -1.
    9900012    2    1    2    0    0  0.26744935210E+02  0.36868520702E+01 -0.33981450272E+02  0.47787269590E+02  0.19999993367E+02 0.  0.
        -12    1    1    2    0    0 -0.26744935210E+02 -0.36868520702E+01  0.33981450272E+02  0.43400730410E+02  0.00000000000E+00 0.  1.
         11    1    3    3    0    0  0.67499581822E+01  0.97168294450E+01 -0.12983222567E+02  0.17565385803E+02  0.51100000000E-03 0. -1.
        -11    1    3    3    0    0  0.79770644159E+00 -0.18621318082E+01 -0.13286987887E+01  0.24226661285E+01  0.51100000000E-03 0.  1.
         12    1    3    3    0    0  0.19197270586E+02 -0.41678455666E+01 -0.19669528916E+02  0.27799217658E+02  0.00000000000E+00 0. -1.
</event>
<event>
 7    1  0.3910751E-009  0.4778727E+02  0.7816164E-02  0.1312668E+00
        -11   -1    0    0    0    0  0.00000000000E+00  0.00000000000E+00  0.45593999997E+02  0.45594000000E+02  0.51100000000E-03 0. -1.
         11   -1    0    0    0    0 -0.00000000000E+00 -0.00000000000E+00 -0.45593999997E+02  0.45594000000E+02  0.51100000000E-03 0.  1.
    9900012    2    1    2    0    0  0.34118962347E+02 -0.61733064326E+01  0.26103829179E+02  0.47787271875E+02  0.20000003787E+02 0.  0.
        -12    1    1    2    0    0 -0.34118962347E+02  0.61733064326E+01 -0.26103829179E+02  0.43400728125E+02  0.00000000000E+00 0.  1.
         11    1    3    3    0    0  0.86729431231E+01  0.33048439190E+01  0.49117099503E+00  0.92942554814E+01  0.51100000000E-03 0. -1.
        -11    1    3    3    0    0 -0.47819396419E+00 -0.14497063477E+01  0.20263326022E+01  0.25369946862E+01  0.51100000000E-03 0.  1.
        -12    1    3    3    0    0  0.25924213189E+02 -0.80284440039E+01  0.23586325582E+02  0.35956021707E+02  0.00000000000E+00 0.  1.
</event>
<event>
 7    1  0.3910751E-009  0.4778727E+02  0.7816164E-02  0.1312668E+00
        -11   -1    0    0    0    0  0.00000000000E+00  0.00000000000E+00  0.45593999997E+02  0.45594000000E+02  0.51100000000E-03 0. -1.
         11   -1    0    0    0    0 -0.00000000000E+00 -0.00000000000E+00 -0.45593999997E+02  0.45594000000E+02  0.51100000000E-03 0.  1.
    9900012    2    1    2    0    0  0.13701923038E+02 -0.40964871879E+02 -0.42142070959E+01  0.47787274609E+02  0.20000016253E+02 0.  0.
        -12    1    1    2    0    0 -0.13701923038E+02  0.40964871879E+02  0.42142070959E+01  0.43400725391E+02  0.00000000000E+00 0.  1.
         11    1    3    3    0    0  0.46186850786E+01 -0.20916313184E+02 -0.59070309817E+01  0.22219753022E+02  0.51100000000E-03 0. -1.
        -11    1    3    3    0    0  0.10807557341E+02 -0.15375426808E+02 -0.26240395603E+01  0.18976106794E+02  0.51100000000E-03 0.  1.
         12    1    3    3    0    0 -0.17243193810E+01 -0.46731318867E+01  0.43168634461E+01  0.65914147928E+01  0.00000000000E+00 0. -1.
</event>
<event>
 7    1  0.6297849E-009  0.4778727E+02  0.7816164E-02  0.1312668E+00
        -11   -1    0    0    0    0  0.00000000000E+00  0.00000000000E+00  0.45593999997E+02  0.45594000000E+02  0.51100000000E-03 0. -1.
         11   -1    0    0    0    0 -0.00000000000E+00 -0.00000000000E+00 -0.45593999997E+02  0.45594000000E+02  0.51100000000E-03 0.  1.
    9900012    2    1    2    0    0  0.11455739560E+02 -0.31817529885E+02  0.27203569298E+02  0.47787270059E+02  0.19999995509E+02 0.  0.
        -12    1    1    2    0    0 -0.11455739560E+02  0.31817529885E+02 -0.27203569298E+02  0.43400729941E+02  0.00000000000E+00 0.  1.
         11    1    3    3    0    0  0.78285367127E+01 -0.12850937246E+02  0.14177022158E+02  0.20674151318E+02  0.51100000000E-03 0. -1.
        -11    1    3    3    0    0  0.66621980835E+01 -0.74537844007E+01  0.77167029874E+00  0.10026926773E+02  0.51100000000E-03 0.  1.
        -12    1    3    3    0    0 -0.30349952365E+01 -0.11512808238E+02  0.12254876841E+02  0.17086191969E+02  0.00000000000E+00 0.  1.
</event>
<event>
 7    1  0.3910751E-009  0.4778727E+02  0.7816164E-02  0.1312668E+00
        -11   -1    0    0    0    0  0.00000000000E+00  0.00000000000E+00  0.45593999997E+02  0.45594000000E+02  0.51100000000E-03 0. -1.
         11   -1    0    0    0    0 -0.00000000000E+00 -0.00000000000E+00 -0.45593999997E+02  0.45594000000E+02  0.51100000000E-03 0.  1.
    9900012    2    1    2    0    0 -0.76082088895E+01  0.10485597838E+02  0.41422102180E+02  0.47787272430E+02  0.20000006320E+02 0.  0.
        -12    1    1    2    0    0  0.76082088895E+01 -0.10485597838E+02 -0.41422102180E+02  0.43400727570E+02  0.00000000000E+00 0.  1.
         11    1    3    3    0    0  0.20719686723E+00  0.41833133380E+00  0.17156699778E+02  0.17163049822E+02  0.51100000000E-03 0. -1.
        -11    1    3    3    0    0 -0.22560827128E+01  0.17343119411E+01  0.19180279307E+02  0.19390225931E+02  0.51100000000E-03 0.  1.
        -12    1    3    3    0    0 -0.55593230439E+01  0.83329545631E+01  0.50851230956E+01  0.11233996678E+02  0.00000000000E+00 0.  1.
</event>
<event>
 7    1  0.3910751E-009  0.4778727E+02  0.7816164E-02  0.1312668E+00
        -11   -1    0    0    0    0  0.00000000000E+00  0.00000000000E+00  0.45593999997E+02  0.45594000000E+02  0.51100000000E-03 0. -1.
         11   -1    0    0    0    0 -0.00000000000E+00 -0.00000000000E+00 -0.45593999997E+02  0.45594000000E+02  0.51100000000E-03 0.  1.
    9900012    2    1    2    0    0  0.17094173169E+02  0.12813090377E+02  0.37778795898E+02  0.47787268890E+02  0.19999990179E+02 0.  0.
        -12    1    1    2    0    0 -0.17094173169E+02 -0.12813090377E+02 -0.37778795898E+02  0.43400731110E+02  0.00000000000E+00 0.  1.
         11    1    3    3    0    0  0.65761907239E+01  0.81691721754E+01  0.17268004574E+02  0.20203109679E+02  0.51100000000E-03 0. -1.
        -11    1    3    3    0    0  0.13002330020E+02  0.48790075001E+01  0.20864498498E+02  0.25063770626E+02  0.51100000000E-03 0.  1.
        -12    1    3    3    0    0 -0.24843475755E+01 -0.23508929862E+00 -0.35370717463E+00  0.25203885850E+01  0.00000000000E+00 0.  1.
</event>
<event>
 7    1  0.3910751E-009  0.4778729E+02  0.7816164E-02  0.1312668E+00
        -11   -1    0    0    0    0  0.00000000000E+00  0.00000000000E+00  0.45593999997E+02  0.45594000000E+02  0.51100000000E-03 0.  1.
         11   -1    0    0    0    0 -0.00000000000E+00 -0.00000000000E+00 -0.45593999997E+02  0.45594000000E+02  0.51100000000E-03 0. -1.
    9900012    2    1    2    0    0 -0.22317473784E+01 -0.14931167665E+02 -0.40690309580E+02  0.47787288509E+02  0.20000079628E+02 0.  0.
        -12    1    1    2    0    0  0.22317473784E+01  0.14931167665E+02  0.40690309580E+02  0.43400711491E+02  0.00000000000E+00 0.  1.
         11    1    3    3    0    0  0.31274900477E+00 -0.11720930829E+02 -0.15377234400E+02  0.19337460265E+02  0.51100000000E-03 0. -1.
        -11    1    3    3    0    0 -0.71045760769E+01 -0.42074832150E+01 -0.14810867297E+02  0.16956995801E+02  0.51100000000E-03 0.  1.
        -12    1    3    3    0    0  0.45600796937E+01  0.99724637907E+00 -0.10502207882E+02  0.11492832443E+02  0.00000000000E+00 0.  1.
</event>
<event>
 7    1  0.3910751E-009  0.4778727E+02  0.7816164E-02  0.1312668E+00
        -11   -1    0    0    0    0  0.00000000000E+00  0.00000000000E+00  0.45593999997E+02  0.45594000000E+02  0.51100000000E-03 0.  1.
         11   -1    0    0    0    0 -0.00000000000E+00 -0.00000000000E+00 -0.45593999997E+02  0.45594000000E+02  0.51100000000E-03 0. -1.
    9900012    2    1    2    0    0 -0.25508386154E+02  0.23107828635E+02 -0.26438110417E+02  0.47787272001E+02  0.20000004362E+02 0.  0.
        -12    1    1    2    0    0  0.25508386154E+02 -0.23107828635E+02  0.26438110417E+02  0.43400727999E+02  0.00000000000E+00 0.  1.
         11    1    3    3    0    0 -0.57567674062E+01  0.12001003550E+02 -0.77254761150E+01  0.15389848558E+02  0.51100000000E-03 0. -1.
        -11    1    3    3    0    0 -0.93406993826E+01  0.48436599762E+01 -0.53779704938E+00  0.10535603108E+02  0.51100000000E-03 0.  1.
         12    1    3    3    0    0 -0.10410919365E+02  0.62631651088E+01 -0.18174837253E+02  0.21861820335E+02  0.00000000000E+00 0. -1.
</event>
<event>
 7    1  0.3910751E-009  0.4778727E+02  0.7816164E-02  0.1312668E+00
        -11   -1    0    0    0    0  0.00000000000E+00  0.00000000000E+00  0.45593999997E+02  0.45594000000E+02  0.51100000000E-03 0.  1.
         11   -1    0    0    0    0 -0.00000000000E+00 -0.00000000000E+00 -0.45593999997E+02  0.45594000000E+02  0.51100000000E-03 0. -1.
    9900012    2    1    2    0    0  0.39010155817E+02  0.81979804959E+01 -0.17164617446E+02  0.47787271514E+02  0.20000002142E+02 0.  0.
        -12    1    1    2    0    0 -0.39010155817E+02 -0.81979804959E+01  0.17164617446E+02  0.43400728486E+02  0.00000000000E+00 0.  1.
         11    1    3    3    0    0  0.22761022201E+02  0.77331139008E+01 -0.17142818407E+02  0.29525267237E+02  0.51100000000E-03 0. -1.
        -11    1    3    3    0    0 -0.52979102279E+00  0.13463816522E+01 -0.18863512167E+00  0.14591112197E+01  0.51100000000E-03 0.  1.
         12    1    3    3    0    0  0.16778924638E+02 -0.88151505710E+00  0.16683608293E+00  0.16802893057E+02  0.00000000000E+00 0. -1.
</event>
<event>
 7    1  0.3910751E-009  0.4778727E+02  0.7816164E-02  0.1312668E+00
        -11   -1    0    0    0    0  0.00000000000E+00  0.00000000000E+00  0.45593999997E+02  0.45594000000E+02  0.51100000000E-03 0.  1.
         11   -1    0    0    0    0 -0.00000000000E+00 -0.00000000000E+00 -0.45593999997E+02  0.45594000000E+02  0.51100000000E-03 0. -1.
    9900012    2    1    2    0    0  0.31752781782E+02 -0.29533041227E+02 -0.17842140871E+01  0.47787273106E+02  0.20000009398E+02 0.  0.
        -12    1    1    2    0    0 -0.31752781782E+02  0.29533041227E+02  0.17842140871E+01  0.43400726894E+02  0.00000000000E+00 0.  1.
         11    1    3    3    0    0  0.15953397957E+02 -0.39804752400E+01 -0.21225867591E+01  0.16578916259E+02  0.51100000000E-03 0. -1.
        -11    1    3    3    0    0  0.55449862841E+01 -0.28750286188E+01 -0.78294572818E+00  0.62948921138E+01  0.51100000000E-03 0.  1.
        -12    1    3    3    0    0  0.10254397541E+02 -0.22677537368E+02  0.11213184002E+01  0.24913464733E+02  0.00000000000E+00 0.  1.
</event>
<event>
 7    1  0.3910751E-009  0.4778727E+02  0.7816164E-02  0.1312668E+00
        -11   -1    0    0    0    0  0.00000000000E+00  0.00000000000E+00  0.45593999997E+02  0.45594000000E+02  0.51100000000E-03 0.  1.
         11   -1    0    0    0    0 -0.00000000000E+00 -0.00000000000E+00 -0.45593999997E+02  0.45594000000E+02  0.51100000000E-03 0. -1.
    9900012    2    1    2    0    0 -0.15614838854E+02  0.24572432699E+02 -0.32186887615E+02  0.47787269873E+02  0.19999994660E+02 0.  0.
        -12    1    1    2    0    0  0.15614838854E+02 -0.24572432699E+02  0.32186887615E+02  0.43400730127E+02  0.00000000000E+00 0.  1.
         11    1    3    3    0    0 -0.43699841128E+01  0.71877122452E+01 -0.22714187572E+02  0.24221772969E+02  0.51100000000E-03 0. -1.
        -11    1    3    3    0    0  0.29235113372E+00  0.16545819074E+01 -0.21503993343E+01  0.27289793022E+01  0.51100000000E-03 0.  1.
        -12    1    3    3    0    0 -0.11537205875E+02  0.15730138547E+02 -0.73223007085E+01  0.20836517602E+02  0.00000000000E+00 0.  1.
</event>
<event>
 7    1  0.3910751E-009  0.4778727E+02  0.7816164E-02  0.1312668E+00
        -11   -1    0    0    0    0  0.00000000000E+00  0.00000000000E+00  0.45593999997E+02  0.45594000000E+02  0.51100000000E-03 0.  1.
         11   -1    0    0    0    0 -0.00000000000E+00 -0.00000000000E+00 -0.45593999997E+02  0.45594000000E+02  0.51100000000E-03 0. -1.
    9900012    2    1    2    0    0 -0.78456095564E+01  0.16126541289E+02 -0.39522200784E+02  0.47787270996E+02  0.19999999779E+02 0.  0.
        -12    1    1    2    0    0  0.78456095564E+01 -0.16126541289E+02  0.39522200784E+02  0.43400729004E+02  0.00000000000E+00 0.  1.
         11    1    3    3    0    0  0.23672605438E+01  0.19780144432E+01 -0.13945375166E+02  0.14282505116E+02  0.51100000000E-03 0. -1.
        -11    1    3    3    0    0 -0.80173500354E+01  0.47875741972E+01 -0.20732416396E+02  0.22738334551E+02  0.51100000000E-03 0.  1.
         12    1    3    3    0    0 -0.21955200648E+01  0.93609526488E+01 -0.48444092228E+01  0.10766431329E+02  0.00000000000E+00 0. -1.
</event>
<event>
 7    1  0.3910751E-009  0.4778724E+02  0.7816164E-02  0.1312668E+00
        -11   -1    0    0    0    0  0.00000000000E+00  0.00000000000E+00  0.45593999997E+02  0.45594000000E+02  0.51100000000E-03 0.  1.
         11   -1    0    0    0    0 -0.00000000000E+00 -0.00000000000E+00 -0.45593999997E+02  0.45594000000E+02  0.51100000000E-03 0. -1.
    9900012    2    1    2    0    0  0.20612438926E+02  0.37965069195E+02 -0.41721723028E+01  0.47787238034E+02  0.19999849492E+02 0.  0.
        -12    1    1    2    0    0 -0.20612438926E+02 -0.37965069195E+02  0.41721723028E+01  0.43400761966E+02  0.00000000000E+00 0.  1.
         11    1    3    3    0    0  0.36652161187E+01  0.12234572947E+01  0.28490782949E+01  0.48008232982E+01  0.51100000000E-03 0. -1.
        -11    1    3    3    0    0  0.17199617479E+01 -0.48694527314E+00 -0.16025443994E+01  0.24007359135E+01  0.51100000000E-03 0.  1.
        -12    1    3    3    0    0  0.15227261059E+02  0.37228557174E+02 -0.54187061984E+01  0.40585678822E+02  0.00000000000E+00 0.  1.
</event>
<event>
 7    1  0.3910751E-009  0.4778728E+02  0.7816164E-02  0.1312668E+00
        -11   -1    0    0    0    0  0.00000000000E+00  0.00000000000E+00  0.45593999997E+02  0.45594000000E+02  0.51100000000E-03 0.  1.
         11   -1    0    0    0    0 -0.00000000000E+00 -0.00000000000E+00 -0.45593999997E+02  0.45594000000E+02  0.51100000000E-03 0. -1.
    9900012    2    1    2    0    0  0.30138164897E+02 -0.13636708434E+02 -0.28095446003E+02  0.47787275508E+02  0.20000020353E+02 0.  0.
        -12    1    1    2    0    0 -0.30138164897E+02  0.13636708434E+02  0.28095446003E+02  0.43400724492E+02  0.00000000000E+00 0.  1.
         11    1    3    3    0    0  0.17566893992E+01 -0.66135373631E+01 -0.33245579594E+01  0.76077276492E+01  0.51100000000E-03 0. -1.
        -11    1    3    3    0    0  0.26059263369E+01 -0.44027355254E+01 -0.73634236391E+01  0.89663225533E+01  0.51100000000E-03 0.  1.
         12    1    3    3    0    0  0.25775549161E+02 -0.26204355455E+01 -0.17407464405E+02  0.31213225306E+02  0.00000000000E+00 0. -1.
</event>
<event>
 7    1  0.3910751E-009  0.4778727E+02  0.7816164E-02  0.1312668E+00
        -11   -1    0    0    0    0  0.00000000000E+00  0.00000000000E+00  0.45593999997E+02  0.45594000000E+02  0.51100000000E-03 0.  1.
         11   -1    0    0    0    0 -0.00000000000E+00 -0.00000000000E+00 -0.45593999997E+02  0.45594000000E+02  0.51100000000E-03 0. -1.
    9900012    2    1    2    0    0 -0.89641532301E+01 -0.29508348214E+01 -0.42362245613E+02  0.47787270483E+02  0.19999997439E+02 0.  0.
        -12    1    1    2    0    0  0.89641532301E+01  0.29508348214E+01  0.42362245613E+02  0.43400729517E+02  0.00000000000E+00 0.  1.
         11    1    3    3    0    0  0.13365011620E+01 -0.11201704944E+01 -0.17428721502E+02  0.17515745795E+02  0.51100000000E-03 0. -1.
        -11    1    3    3    0    0  0.53076322440E+00  0.62891320141E+00 -0.15990204021E+02  0.16011366785E+02  0.51100000000E-03 0.  1.
        -12    1    3    3    0    0 -0.10831417617E+02 -0.24595775284E+01 -0.89433200893E+01  0.14260157903E+02  0.00000000000E+00 0.  1.
</event>
<event>
 7    1  0.3910751E-009  0.4778727E+02  0.7816164E-02  0.1312668E+00
        -11   -1    0    0    0    0  0.00000000000E+00  0.00000000000E+00  0.45593999997E+02  0.45594000000E+02  0.51100000000E-03 0. -1.
         11   -1    0    0    0    0 -0.00000000000E+00 -0.00000000000E+00 -0.45593999997E+02  0.45594000000E+02  0.51100000000E-03 0.  1.
    9900012    2    1    2    0    0 -0.86651148470E+01 -0.36130487894E+02  0.22430493647E+02  0.47787269407E+02  0.19999992535E+02 0.  0.
        -12    1    1    2    0    0  0.86651148470E+01  0.36130487894E+02 -0.22430493647E+02  0.43400730593E+02  0.00000000000E+00 0.  1.
         11    1    3    3    0    0  0.25860525553E+00 -0.22614224637E+02  0.10020545292E+02  0.24736235785E+02  0.51100000000E-03 0. -1.
        -11    1    3    3    0    0  0.23859901734E+01 -0.12594507357E+01  0.23238535017E+01  0.35608230259E+01  0.51100000000E-03 0.  1.
        -12    1    3    3    0    0 -0.11309710276E+02 -0.12256812521E+02  0.10086094853E+02  0.19490210596E+02  0.00000000000E+00 0.  1.
</event>
<event>
 7    1  0.3910751E-009  0.4778727E+02  0.7816164E-02  0.1312668E+00
        -11   -1    0    0    0    0  0.00000000000E+00  0.00000000000E+00  0.45593999997E+02  0.45594000000E+02  0.51100000000E-03 0.  1.
         11   -1    0    0    0    0 -0.00000000000E+00 -0.00000000000E+00 -0.45593999997E+02  0.45594000000E+02  0.51100000000E-03 0. -1.
    9900012    2    1    2    0    0  0.29958051787E+02 -0.17697092870E+02 -0.25941301992E+02  0.47787272910E+02  0.20000008504E+02 0.  0.
        -12    1    1    2    0    0 -0.29958051787E+02  0.17697092870E+02  0.25941301992E+02  0.43400727090E+02  0.00000000000E+00 0.  1.
         11    1    3    3    0    0  0.24397147618E+02 -0.15587902654E+02 -0.17051157275E+02  0.33599784013E+02  0.51100000000E-03 0. -1.
        -11    1    3    3    0    0  0.75255243180E+01 -0.34411789989E+01 -0.51152279460E+01  0.97283496218E+01  0.51100000000E-03 0.  1.
        -12    1    3    3    0    0 -0.19646201486E+01  0.13319887828E+01 -0.37749167707E+01  0.44591392747E+01  0.00000000000E+00 0.  1.
</event>
<event>
 7    1  0.3910751E-009  0.4778727E+02  0.7816164E-02  0.1312668E+00
        -11   -1    0    0    0    0  0.00000000000E+00  0.00000000000E+00  0.45593999997E+02  0.45594000000E+02  0.51100000000E-03 0. -1.
         11   -1    0    0    0    0 -0.00000000000E+00 -0.00000000000E+00 -0.45593999997E+02  0.45594000000E+02  0.51100000000E-03 0.  1.
    9900012    2    1    2    0    0  0.38678951607E+02 -0.19125132069E+02 -0.46681147454E+01  0.47787271097E+02  0.20000000239E+02 0.  0.
        -12    1    1    2    0    0 -0.38678951607E+02  0.19125132069E+02  0.46681147454E+01  0.43400728903E+02  0.00000000000E+00 0.  1.
         11    1    3    3    0    0  0.80943537921E+01 -0.82140154222E+00 -0.83317081087E-01  0.81363508898E+01  0.51100000000E-03 0. -1.
        -11    1    3    3    0    0  0.84333687807E+01 -0.37621916960E+01  0.61136720303E+01  0.11074871616E+02  0.51100000000E-03 0.  1.
         12    1    3    3    0    0  0.22151229034E+02 -0.14541538831E+02 -0.10698469695E+02  0.28576048591E+02  0.00000000000E+00 0. -1.
</event>
<event>
 7    1  0.3910751E-009  0.4778727E+02  0.7816164E-02  0.1312668E+00
        -11   -1    0    0    0    0  0.00000000000E+00  0.00000000000E+00  0.45593999997E+02  0.45594000000E+02  0.51100000000E-03 0. -1.
         11   -1    0    0    0    0 -0.00000000000E+00 -0.00000000000E+00 -0.45593999997E+02  0.45594000000E+02  0.51100000000E-03 0.  1.
    9900012    2    1    2    0    0  0.36023133090E+02  0.24180861319E+02 -0.11150458345E+01  0.47787268451E+02  0.19999988177E+02 0.  0.
        -12    1    1    2    0    0 -0.36023133090E+02 -0.24180861319E+02  0.11150458345E+01  0.43400731549E+02  0.00000000000E+00 0.  1.
         11    1    3    3    0    0  0.11771181495E+02  0.10108875120E+02  0.46948791207E+00  0.15523224186E+02  0.51100000000E-03 0. -1.
        -11    1    3    3    0    0  0.11087175353E+02  0.14007881206E+01  0.57584126500E+01  0.12571673762E+02  0.51100000000E-03 0.  1.
        -12    1    3    3    0    0  0.13164776242E+02  0.12671198079E+02 -0.73429463966E+01  0.19692370503E+02  0.00000000000E+00 0.  1.
</event>
<event>
 7    1  0.3910751E-009  0.4778727E+02  0.7816164E-02  0.1312668E+00
        -11   -1    0    0    0    0  0.00000000000E+00  0.00000000000E+00  0.45593999997E+02  0.45594000000E+02  0.51100000000E-03 0. -1.
         11   -1    0    0    0    0 -0.00000000000E+00 -0.00000000000E+00 -0.45593999997E+02  0.45594000000E+02  0.51100000000E-03 0.  1.
    9900012    2    1    2    0    0  0.23391090046E+02  0.36342127727E+02  0.39660750732E+01  0.47787273131E+02  0.20000009514E+02 0.  0.
        -12    1    1    2    0    0 -0.23391090046E+02 -0.36342127727E+02 -0.39660750732E+01  0.43400726869E+02  0.00000000000E+00 0.  1.
         11    1    3    3    0    0 -0.13449624090E+01  0.39425540656E+01  0.39360540765E+01  0.57310713131E+01  0.51100000000E-03 0. -1.
        -11    1    3    3    0    0  0.18463185977E+01  0.59221764587E+01 -0.30660033969E+01  0.69196418595E+01  0.51100000000E-03 0.  1.
         12    1    3    3    0    0  0.22889733858E+02  0.26477397202E+02  0.30960243935E+01  0.35136559959E+02  0.00000000000E+00 0. -1.
</event>
<event>
 7    1  0.3910751E-009  0.4778728E+02  0.7816164E-02  0.1312668E+00
        -11   -1    0    0    0    0  0.00000000000E+00  0.00000000000E+00  0.45593999997E+02  0.45594000000E+02  0.51100000000E-03 0.  1.
         11   -1    0    0    0    0 -0.00000000000E+00 -0.00000000000E+00 -0.45593999997E+02  0.45594000000E+02  0.51100000000E-03 0. -1.
    9900012    2    1    2    0    0 -0.13208707377E+02  0.18798663280E+02 -0.36820685015E+02  0.47787279538E+02  0.20000038725E+02 0.  0.
        -12    1    1    2    0    0  0.13208707377E+02 -0.18798663280E+02  0.36820685015E+02  0.43400720462E+02  0.00000000000E+00 0.  1.
         11    1    3    3    0    0 -0.44155609169E+01  0.68643678711E+01 -0.71396414451E+01  0.10843947838E+02  0.51100000000E-03 0. -1.
        -11    1    3    3    0    0 -0.11610013002E+02  0.25544073724E+01 -0.19334067605E+02  0.22696333830E+02  0.51100000000E-03 0.  1.
        -12    1    3    3    0    0  0.28168665423E+01  0.93798880361E+01 -0.10346975965E+02  0.14246997870E+02  0.00000000000E+00 0.  1.
</event>
<event>
 7    1  0.3910751E-009  0.4778727E+02  0.7816164E-02  0.1312668E+00
        -11   -1    0    0    0    0  0.00000000000E+00  0.00000000000E+00  0.45593999997E+02  0.45594000000E+02  0.51100000000E-03 0.  1.
         11   -1    0    0    0    0 -0.00000000000E+00 -0.00000000000E+00 -0.45593999997E+02  0.45594000000E+02  0.51100000000E-03 0. -1.
    9900012    2    1    2    0    0  0.29168888160E+01 -0.52321584176E+01 -0.42985340390E+02  0.47787271774E+02  0.20000003328E+02 0.  0.
        -12    1    1    2    0    0 -0.29168888160E+01  0.52321584176E+01  0.42985340390E+02  0.43400728226E+02  0.00000000000E+00 0.  1.
         11    1    3    3    0    0  0.37679231089E+01 -0.32527207861E+01 -0.19499777978E+02  0.20125078348E+02  0.51100000000E-03 0. -1.
        -11    1    3    3    0    0  0.65435541315E+01 -0.11778811842E+01 -0.74486478263E+01  0.99843807749E+01  0.51100000000E-03 0.  1.
        -12    1    3    3    0    0 -0.73945884244E+01 -0.80155644735E+00 -0.16036914586E+02  0.17677812651E+02  0.00000000000E+00 0.  1.
</event>
<event>
 7    1  0.3910751E-009  0.4778729E+02  0.7816164E-02  0.1312668E+00
        -11   -1    0    0    0    0  0.00000000000E+00  0.00000000000E+00  0.45593999997E+02  0.45594000000E+02  0.51100000000E-03 0. -1.
         11   -1    0    0    0    0 -0.00000000000E+00 -0.00000000000E+00 -0.45593999997E+02  0.45594000000E+02  0.51100000000E-03 0.  1.
    9900012    2    1    2    0    0 -0.58903760931E+01  0.41603772727E+02 -0.10865148825E+02  0.47787286934E+02  0.20000072447E+02 0.  0.
        -12    1    1    2    0    0  0.58903760931E+01 -0.41603772727E+02  0.10865148825E+02  0.43400713066E+02  0.00000000000E+00 0.  1.
         11    1    3    3    0    0 -0.22638591822E+01  0.27037182404E+01  0.12895297266E+01  0.37547353964E+01  0.51100000000E-03 0. -1.
        -11    1    3    3    0    0 -0.29328611486E+00 -0.10370371081E+01  0.13635793677E+01  0.17380482335E+01  0.51100000000E-03 0.  1.
         12    1    3    3    0    0 -0.33332307960E+01  0.39937091595E+02 -0.13518257919E+02  0.42294503304E+02  0.00000000000E+00 0. -1.
</event>
<event>
 7    1  0.3910751E-009  0.4778727E+02  0.7816164E-02  0.1312668E+00
        -11   -1    0    0    0    0  0.00000000000E+00  0.00000000000E+00  0.45593999997E+02  0.45594000000E+02  0.51100000000E-03 0.  1.
         11   -1    0    0    0    0 -0.00000000000E+00 -0.00000000000E+00 -0.45593999997E+02  0.45594000000E+02  0.51100000000E-03 0. -1.
    9900012    2    1    2    0    0 -0.26003443681E+02  0.80058671233E+01 -0.33813462166E+02  0.47787271719E+02  0.20000003076E+02 0.  0.
        -12    1    1    2    0    0  0.26003443681E+02 -0.80058671233E+01  0.33813462166E+02  0.43400728281E+02  0.00000000000E+00 0.  1.
         11    1    3    3    0    0 -0.22327121385E+02  0.77629499262E+01 -0.16508683211E+02  0.28832279870E+02  0.51100000000E-03 0. -1.
        -11    1    3    3    0    0 -0.14085556220E+00  0.25065998969E+01 -0.24106519641E+01  0.34805353734E+01  0.51100000000E-03 0.  1.
        -12    1    3    3    0    0 -0.35354667341E+01 -0.22636826999E+01 -0.14894126991E+02  0.15474456475E+02  0.00000000000E+00 0.  1.
</event>
<event>
 7    1  0.3910751E-009  0.4778727E+02  0.7816164E-02  0.1312668E+00
        -11   -1    0    0    0    0  0.00000000000E+00  0.00000000000E+00  0.45593999997E+02  0.45594000000E+02  0.51100000000E-03 0.  1.
         11   -1    0    0    0    0 -0.00000000000E+00 -0.00000000000E+00 -0.45593999997E+02  0.45594000000E+02  0.51100000000E-03 0. -1.
    9900012    2    1    2    0    0  0.14311219758E+02 -0.26202593149E+02 -0.31499783166E+02  0.47787271455E+02  0.20000001872E+02 0.  0.
        -12    1    1    2    0    0 -0.14311219758E+02  0.26202593149E+02  0.31499783166E+02  0.43400728545E+02  0.00000000000E+00 0.  1.
         11    1    3    3    0    0  0.53403428492E+00 -0.75570043931E+01 -0.64495864217E+01  0.99494056750E+01  0.51100000000E-03 0. -1.
        -11    1    3    3    0    0  0.17549975757E+02 -0.15506653321E+02 -0.21364804742E+02  0.31700360064E+02  0.51100000000E-03 0.  1.
        -12    1    3    3    0    0 -0.37727902843E+01 -0.31389354350E+01 -0.36853920032E+01  0.61375057158E+01  0.00000000000E+00 0.  1.
</event>
<event>
 7    1  0.3910751E-009  0.4778727E+02  0.7816164E-02  0.1312668E+00
        -11   -1    0    0    0    0  0.00000000000E+00  0.00000000000E+00  0.45593999997E+02  0.45594000000E+02  0.51100000000E-03 0.  1.
         11   -1    0    0    0    0 -0.00000000000E+00 -0.00000000000E+00 -0.45593999997E+02  0.45594000000E+02  0.51100000000E-03 0. -1.
    9900012    2    1    2    0    0  0.13468131807E+02 -0.36520402599E+02  0.19196164695E+02  0.47787272825E+02  0.20000008116E+02 0.  0.
        -12    1    1    2    0    0 -0.13468131807E+02  0.36520402599E+02 -0.19196164695E+02  0.43400727175E+02  0.00000000000E+00 0.  1.
         11    1    3    3    0    0 -0.68601272005E+00 -0.22663259049E+01 -0.57626816196E+00  0.24369923707E+01  0.51100000000E-03 0. -1.
        -11    1    3    3    0    0  0.59530621845E+01 -0.31478392610E+02  0.16948348948E+02  0.36243270865E+02  0.51100000000E-03 0.  1.
        -12    1    3    3    0    0  0.82010823423E+01 -0.27756840837E+01  0.28240839090E+01  0.91070095884E+01  0.00000000000E+00 0.  1.
</event>
<event>
 7    1  0.3910751E-009  0.4778727E+02  0.7816164E-02  0.1312668E+00
        -11   -1    0    0    0    0  0.00000000000E+00  0.00000000000E+00  0.45593999997E+02  0.45594000000E+02  0.51100000000E-03 0.  1.
         11   -1    0    0    0    0 -0.00000000000E+00 -0.00000000000E+00 -0.45593999997E+02  0.45594000000E+02  0.51100000000E-03 0. -1.
    9900012    2    1    2    0    0 -0.36113006143E+02  0.19996257618E+02 -0.13402373376E+02  0.47787272546E+02  0.20000006848E+02 0.  0.
        -12    1    1    2    0    0  0.36113006143E+02 -0.19996257618E+02  0.13402373376E+02  0.43400727454E+02  0.00000000000E+00 0.  1.
         11    1    3    3    0    0 -0.48968707062E+01 -0.81200787155E+00  0.19533667330E+01  0.53342610877E+01  0.51100000000E-03 0.  1.
        -11    1    3    3    0    0 -0.10325899655E+02  0.88163790518E+00 -0.16466154675E+01  0.10493466150E+02  0.51100000000E-03 0. -1.
        -12    1    3    3    0    0 -0.20890235781E+02  0.19926627584E+02 -0.13709124642E+02  0.31959545308E+02  0.00000000000E+00 0.  1.
</event>
<event>
 7    1  0.3910751E-009  0.4778727E+02  0.7816164E-02  0.1312668E+00
        -11   -1    0    0    0    0  0.00000000000E+00  0.00000000000E+00  0.45593999997E+02  0.45594000000E+02  0.51100000000E-03 0. -1.
         11   -1    0    0    0    0 -0.00000000000E+00 -0.00000000000E+00 -0.45593999997E+02  0.45594000000E+02  0.51100000000E-03 0.  1.
    9900012    2    1    2    0    0 -0.13138611566E+02 -0.68654212198E+01  0.40790518528E+02  0.47787268161E+02  0.19999986851E+02 0.  0.
        -12    1    1    2    0    0  0.13138611566E+02  0.68654212198E+01 -0.40790518528E+02  0.43400731839E+02  0.00000000000E+00 0.  1.
         11    1    3    3    0    0 -0.71428145389E+00  0.12259552702E+01  0.10103285653E+02  0.10202428415E+02  0.51100000000E-03 0.  1.
        -11    1    3    3    0    0 -0.10824212976E+01 -0.21036997034E+01  0.21924452691E+02  0.22051730417E+02  0.51100000000E-03 0. -1.
         12    1    3    3    0    0 -0.11341908815E+02 -0.59876767867E+01  0.87627801841E+01  0.15533109329E+02  0.00000000000E+00 0. -1.
</event>
<event>
 7    1  0.3910751E-009  0.4778733E+02  0.7816164E-02  0.1312667E+00
        -11   -1    0    0    0    0  0.00000000000E+00  0.00000000000E+00  0.45593999997E+02  0.45594000000E+02  0.51100000000E-03 0.  1.
         11   -1    0    0    0    0 -0.00000000000E+00 -0.00000000000E+00 -0.45593999997E+02  0.45594000000E+02  0.51100000000E-03 0. -1.
    9900012    2    1    2    0    0 -0.32018389198E+02  0.17809141608E+02 -0.23265321752E+02  0.47787332172E+02  0.20000278705E+02 0.  0.
        -12    1    1    2    0    0  0.32018389198E+02 -0.17809141608E+02  0.23265321752E+02  0.43400667828E+02  0.00000000000E+00 0.  1.
         11    1    3    3    0    0 -0.18062234823E+02  0.10545978904E+02 -0.11509936522E+02  0.23873429515E+02  0.51100000000E-03 0. -1.
        -11    1    3    3    0    0 -0.13359891676E+02  0.88373201127E+01 -0.47479477315E+01  0.16707122442E+02  0.51100000000E-03 0.  1.
         12    1    3    3    0    0 -0.59626269914E+00 -0.15741574093E+01 -0.70074374992E+01  0.72067802146E+01  0.00000000000E+00 0. -1.
</event>
<event>
 7    1  0.3910751E-009  0.4778727E+02  0.7816164E-02  0.1312668E+00
        -11   -1    0    0    0    0  0.00000000000E+00  0.00000000000E+00  0.45593999997E+02  0.45594000000E+02  0.51100000000E-03 0.  1.
         11   -1    0    0    0    0 -0.00000000000E+00 -0.00000000000E+00 -0.45593999997E+02  0.45594000000E+02  0.51100000000E-03 0. -1.
    9900012    2    1    2    0    0  0.18240309684E+02  0.35713445445E+02 -0.16597114903E+02  0.47787270674E+02  0.19999998311E+02 0.  0.
        -12    1    1    2    0    0 -0.18240309684E+02 -0.35713445445E+02  0.16597114903E+02  0.43400729326E+02  0.00000000000E+00 0.  1.
         11    1    3    3    0    0  0.60626068900E+01  0.81718307680E+01 -0.22175684880E+01  0.10414011267E+02  0.51100000000E-03 0. -1.
        -11    1    3    3    0    0  0.80169558346E-01  0.18847625676E+02 -0.41429423379E+01  0.19297756145E+02  0.51100000000E-03 0.  1.
        -12    1    3    3    0    0  0.12097533235E+02  0.86939890014E+01 -0.10236604077E+02  0.18075503262E+02  0.00000000000E+00 0.  1.
</event>
<event>
 7    1  0.3910751E-009  0.4778727E+02  0.7816164E-02  0.1312668E+00
        -11   -1    0    0    0    0  0.00000000000E+00  0.00000000000E+00  0.45593999997E+02  0.45594000000E+02  0.51100000000E-03 0.  1.
         11   -1    0    0    0    0 -0.00000000000E+00 -0.00000000000E+00 -0.45593999997E+02  0.45594000000E+02  0.51100000000E-03 0. -1.
    9900012    2    1    2    0    0  0.28448143256E+01 -0.21377888240E+02 -0.37663195173E+02  0.47787270227E+02  0.19999996275E+02 0.  0.
        -12    1    1    2    0    0 -0.28448143256E+01  0.21377888240E+02  0.37663195173E+02  0.43400729773E+02  0.00000000000E+00 0.  1.
         11    1    3    3    0    0  0.76879065328E+00 -0.13142126062E+02 -0.28786028926E+02  0.31653467078E+02  0.51100000000E-03 0. -1.
        -11    1    3    3    0    0 -0.19144583325E+01 -0.23653788068E+01 -0.84968790038E+01  0.90253598639E+01  0.51100000000E-03 0.  1.
        -12    1    3    3    0    0  0.39904820048E+01 -0.58703833709E+01 -0.38028724351E+00  0.71084432852E+01  0.00000000000E+00 0.  1.
</event>
<event>
 7    1  0.3910751E-009  0.4778733E+02  0.7816164E-02  0.1312668E+00
        -11   -1    0    0    0    0  0.00000000000E+00  0.00000000000E+00  0.45593999997E+02  0.45594000000E+02  0.51100000000E-03 0. -1.
         11   -1    0    0    0    0 -0.00000000000E+00 -0.00000000000E+00 -0.45593999997E+02  0.45594000000E+02  0.51100000000E-03 0.  1.
    9900012    2    1    2    0    0 -0.36284810555E+02 -0.15138603220E+02  0.18380797315E+02  0.47787326106E+02  0.20000251048E+02 0.  0.
        -12    1    1    2    0    0  0.36284810555E+02  0.15138603220E+02 -0.18380797315E+02  0.43400673894E+02  0.00000000000E+00 0.  1.
         11    1    3    3    0    0 -0.10500968559E+02 -0.72579136460E+01  0.77657417583E+01  0.14941699920E+02  0.51100000000E-03 0. -1.
        -11    1    3    3    0    0 -0.12018409626E+02 -0.41341854503E+01  0.13225602030E+02  0.18342579115E+02  0.51100000000E-03 0.  1.
        -12    1    3    3    0    0 -0.13765432370E+02 -0.37465041236E+01 -0.26105464732E+01  0.14503047072E+02  0.00000000000E+00 0.  1.
</event>
<event>
 7    1  0.3910751E-009  0.4778726E+02  0.7816164E-02  0.1312668E+00
        -11   -1    0    0    0    0  0.00000000000E+00  0.00000000000E+00  0.45593999997E+02  0.45594000000E+02  0.51100000000E-03 0. -1.
         11   -1    0    0    0    0 -0.00000000000E+00 -0.00000000000E+00 -0.45593999997E+02  0.45594000000E+02  0.51100000000E-03 0.  1.
    9900012    2    1    2    0    0 -0.13045365129E+02 -0.36019771574E+02  0.20396545515E+02  0.47787256175E+02  0.19999932205E+02 0.  0.
        -12    1    1    2    0    0  0.13045365129E+02  0.36019771574E+02 -0.20396545515E+02  0.43400743825E+02  0.00000000000E+00 0.  1.
         11    1    3    3    0    0 -0.32292396893E+01 -0.17880093927E+02  0.74170010784E+01  0.19624924282E+02  0.51100000000E-03 0. -1.
        -11    1    3    3    0    0 -0.10064943632E+02 -0.11089246836E+02  0.19959492757E+01  0.15108219600E+02  0.51100000000E-03 0.  1.
        -12    1    3    3    0    0  0.24881819212E+00 -0.70504308117E+01  0.10983595161E+02  0.13054112294E+02  0.00000000000E+00 0.  1.
</event>
<event>
 7    1  0.3910751E-009  0.4778729E+02  0.7816164E-02  0.1312668E+00
        -11   -1    0    0    0    0  0.00000000000E+00  0.00000000000E+00  0.45593999997E+02  0.45594000000E+02  0.51100000000E-03 0.  1.
         11   -1    0    0    0    0 -0.00000000000E+00 -0.00000000000E+00 -0.45593999997E+02  0.45594000000E+02  0.51100000000E-03 0. -1.
    9900012    2    1    2    0    0  0.35309656493E+02  0.16366201477E+01 -0.25182763756E+02  0.47787286209E+02  0.20000069142E+02 0.  0.
        -12    1    1    2    0    0 -0.35309656493E+02 -0.16366201477E+01  0.25182763756E+02  0.43400713791E+02  0.00000000000E+00 0.  1.
         11    1    3    3    0    0  0.20970666001E+02  0.46136349770E+01 -0.69973804095E+01  0.22583573524E+02  0.51100000000E-03 0. -1.
        -11    1    3    3    0    0  0.12478872122E+01 -0.22041380892E+01  0.28769066232E+00  0.25491593494E+01  0.51100000000E-03 0.  1.
        -12    1    3    3    0    0  0.13091103279E+02 -0.77287674010E+00 -0.18473074009E+02  0.22654553336E+02  0.00000000000E+00 0.  1.
</event>
<event>
 7    1  0.3910751E-009  0.4778727E+02  0.7816164E-02  0.1312668E+00
        -11   -1    0    0    0    0  0.00000000000E+00  0.00000000000E+00  0.45593999997E+02  0.45594000000E+02  0.51100000000E-03 0.  1.
         11   -1    0    0    0    0 -0.00000000000E+00 -0.00000000000E+00 -0.45593999997E+02  0.45594000000E+02  0.51100000000E-03 0. -1.
    9900012    2    1    2    0    0  0.27847872130E+02  0.33213193634E+02 -0.22367801166E+01  0.47787269605E+02  0.19999993437E+02 0.  0.
        -12    1    1    2    0    0 -0.27847872130E+02 -0.33213193634E+02  0.22367801166E+01  0.43400730395E+02  0.00000000000E+00 0.  1.
         11    1    3    3    0    0  0.88823046068E+01  0.24281467580E+02 -0.13116889814E+01  0.25888328088E+02  0.51100000000E-03 0. -1.
        -11    1    3    3    0    0  0.21146240597E+00  0.10772286842E+01  0.98766615205E+00  0.14766931558E+01  0.51100000000E-03 0.  1.
         12    1    3    3    0    0  0.18754105117E+02  0.78544973699E+01 -0.19127572873E+01  0.20422248361E+02  0.00000000000E+00 0. -1.
</event>
<event>
 7    1  0.3910751E-009  0.4778727E+02  0.7816164E-02  0.1312668E+00
        -11   -1    0    0    0    0  0.00000000000E+00  0.00000000000E+00  0.45593999997E+02  0.45594000000E+02  0.51100000000E-03 0.  1.
         11   -1    0    0    0    0 -0.00000000000E+00 -0.00000000000E+00 -0.45593999997E+02  0.45594000000E+02  0.51100000000E-03 0. -1.
    9900012    2    1    2    0    0 -0.19062791352E+02 -0.22074968149E+02 -0.32139215084E+02  0.47787269832E+02  0.19999994472E+02 0.  0.
        -12    1    1    2    0    0  0.19062791352E+02  0.22074968149E+02  0.32139215084E+02  0.43400730168E+02  0.00000000000E+00 0.  1.
         11    1    3    3    0    0 -0.90126450359E+00 -0.49968226058E+01 -0.11541770320E+02  0.12609241700E+02  0.51100000000E-03 0. -1.
        -11    1    3    3    0    0 -0.75754195137E+01 -0.83492363165E-01 -0.99347880746E+01  0.12493757086E+02  0.51100000000E-03 0.  1.
         12    1    3    3    0    0 -0.10586107335E+02 -0.16994653180E+02 -0.10662656689E+02  0.22684271046E+02  0.00000000000E+00 0. -1.
</event>
<event>
 7    1  0.3910751E-009  0.4778726E+02  0.7816164E-02  0.1312668E+00
        -11   -1    0    0    0    0  0.00000000000E+00  0.00000000000E+00  0.45593999997E+02  0.45594000000E+02  0.51100000000E-03 0.  1.
         11   -1    0    0    0    0 -0.00000000000E+00 -0.00000000000E+00 -0.45593999997E+02  0.45594000000E+02  0.51100000000E-03 0. -1.
    9900012    2    1    2    0    0  0.22652669802E+02  0.21355526009E+02 -0.30239410695E+02  0.47787263838E+02  0.19999967142E+02 0.  0.
        -12    1    1    2    0    0 -0.22652669802E+02 -0.21355526009E+02  0.30239410695E+02  0.43400736162E+02  0.00000000000E+00 0.  1.
         11    1    3    3    0    0  0.28597634398E+01  0.96408957243E+01 -0.61430318367E+01  0.11783970371E+02  0.51100000000E-03 0. -1.
        -11    1    3    3    0    0  0.37413143930E+01  0.71874664277E+01 -0.20480607615E+01  0.83577305640E+01  0.51100000000E-03 0.  1.
        -12    1    3    3    0    0  0.16051591969E+02  0.45271638569E+01 -0.22048318096E+02  0.27645562903E+02  0.00000000000E+00 0.  1.
</event>
<event>
 7    1  0.3910751E-009  0.4778727E+02  0.7816164E-02  0.1312668E+00
        -11   -1    0    0    0    0  0.00000000000E+00  0.00000000000E+00  0.45593999997E+02  0.45594000000E+02  0.51100000000E-03 0.  1.
         11   -1    0    0    0    0 -0.00000000000E+00 -0.00000000000E+00 -0.45593999997E+02  0.45594000000E+02  0.51100000000E-03 0. -1.
    9900012    2    1    2    0    0  0.11462435527E+02  0.70286633479E+00 -0.41853819929E+02  0.47787266228E+02  0.19999978038E+02 0.  0.
        -12    1    1    2    0    0 -0.11462435527E+02 -0.70286633479E+00  0.41853819929E+02  0.43400733772E+02  0.00000000000E+00 0.  1.
         11    1    3    3    0    0 -0.14686107336E+01 -0.85206954202E+00 -0.11177272371E+02  0.11305496801E+02  0.51100000000E-03 0. -1.
        -11    1    3    3    0    0  0.19348320572E+01 -0.55132658676E+01 -0.14829139672E+02  0.15938728283E+02  0.51100000000E-03 0.  1.
        -12    1    3    3    0    0  0.10996214204E+02  0.70682017444E+01 -0.15847407886E+02  0.20543041144E+02  0.00000000000E+00 0.  1.
</event>
<event>
 7    1  0.3910751E-009  0.4778727E+02  0.7816164E-02  0.1312668E+00
        -11   -1    0    0    0    0  0.00000000000E+00  0.00000000000E+00  0.45593999997E+02  0.45594000000E+02  0.51100000000E-03 0.  1.
         11   -1    0    0    0    0 -0.00000000000E+00 -0.00000000000E+00 -0.45593999997E+02  0.45594000000E+02  0.51100000000E-03 0. -1.
    9900012    2    1    2    0    0  0.20111186501E+01 -0.16798097375E+02 -0.39967517244E+02  0.47787272953E+02  0.20000008700E+02 0.  0.
        -12    1    1    2    0    0 -0.20111186501E+01  0.16798097375E+02  0.39967517244E+02  0.43400727047E+02  0.00000000000E+00 0.  1.
         11    1    3    3    0    0 -0.78030676465E+01 -0.72954171925E+01 -0.12246019792E+02  0.16250414694E+02  0.51100000000E-03 0. -1.
        -11    1    3    3    0    0  0.21447819286E+01 -0.33025409188E+00 -0.94871086707E+01  0.97321317540E+01  0.51100000000E-03 0.  1.
        -12    1    3    3    0    0  0.76694043681E+01 -0.91724260901E+01 -0.18234388781E+02  0.21804726505E+02  0.00000000000E+00 0.  1.
</event>
<event>
 7    1  0.3910751E-009  0.4778728E+02  0.7816164E-02  0.1312668E+00
        -11   -1    0    0    0    0  0.00000000000E+00  0.00000000000E+00  0.45593999997E+02  0.45594000000E+02  0.51100000000E-03 0.  1.
         11   -1    0    0    0    0 -0.00000000000E+00 -0.00000000000E+00 -0.45593999997E+02  0.45594000000E+02  0.51100000000E-03 0. -1.
    9900012    2    1    2    0    0  0.18822188969E+02 -0.18523393130E+02 -0.34441709456E+02  0.47787282946E+02  0.20000054262E+02 0.  0.
        -12    1    1    2    0    0 -0.18822188969E+02  0.18523393130E+02  0.34441709456E+02  0.43400717054E+02  0.00000000000E+00 0.  1.
         11    1    3    3    0    0  0.75187397733E+01 -0.62255716978E+01 -0.20489521985E+02  0.22696028335E+02  0.51100000000E-03 0. -1.
        -11    1    3    3    0    0  0.20517281840E+01  0.12031530086E+01 -0.68477646366E+01  0.72490721119E+01  0.51100000000E-03 0.  1.
        -12    1    3    3    0    0  0.92517210114E+01 -0.13500974441E+02 -0.71044228342E+01  0.17842182499E+02  0.00000000000E+00 0.  1.
</event>
<event>
 7    1  0.3910751E-009  0.4778727E+02  0.7816164E-02  0.1312668E+00
        -11   -1    0    0    0    0  0.00000000000E+00  0.00000000000E+00  0.45593999997E+02  0.45594000000E+02  0.51100000000E-03 0.  1.
         11   -1    0    0    0    0 -0.00000000000E+00 -0.00000000000E+00 -0.45593999997E+02  0.45594000000E+02  0.51100000000E-03 0. -1.
    9900012    2    1    2    0    0 -0.50435795293E+01  0.33363166121E+02 -0.27296239527E+02  0.47787271430E+02  0.20000001759E+02 0.  0.
        -12    1    1    2    0    0  0.50435795293E+01 -0.33363166121E+02  0.27296239527E+02  0.43400728570E+02  0.00000000000E+00 0.  1.
         11    1    3    3    0    0 -0.66411250994E+01  0.45074827594E+01 -0.79474783300E+01  0.11295324496E+02  0.51100000000E-03 0. -1.
        -11    1    3    3    0    0 -0.17615128076E+01  0.71690064883E+01 -0.22879775558E+00  0.73857924473E+01  0.51100000000E-03 0.  1.
        -12    1    3    3    0    0  0.33590583777E+01  0.21686676874E+02 -0.19119963441E+02  0.29106154486E+02  0.00000000000E+00 0.  1.
</event>
<event>
 7    1  0.3910751E-009  0.4778727E+02  0.7816164E-02  0.1312668E+00
        -11   -1    0    0    0    0  0.00000000000E+00  0.00000000000E+00  0.45593999997E+02  0.45594000000E+02  0.51100000000E-03 0.  1.
         11   -1    0    0    0    0 -0.00000000000E+00 -0.00000000000E+00 -0.45593999997E+02  0.45594000000E+02  0.51100000000E-03 0. -1.
    9900012    2    1    2    0    0  0.32270347364E+02 -0.18368124906E+01 -0.28963326683E+02  0.47787268536E+02  0.19999988563E+02 0.  0.
        -12    1    1    2    0    0 -0.32270347364E+02  0.18368124906E+01  0.28963326683E+02  0.43400731464E+02  0.00000000000E+00 0.  1.
         11    1    3    3    0    0  0.57268573908E+00 -0.13310984781E+01 -0.42236852548E+01  0.44653453961E+01  0.51100000000E-03 0. -1.
        -11    1    3    3    0    0  0.47526176342E+01  0.35381491025E+01 -0.11701964978E+02  0.13116472775E+02  0.51100000000E-03 0.  1.
         12    1    3    3    0    0  0.26945043990E+02 -0.40438631149E+01 -0.13037676450E+02  0.30205450365E+02  0.00000000000E+00 0. -1.
</event>
<event>
 7    1  0.3910751E-009  0.4778727E+02  0.7816164E-02  0.1312668E+00
        -11   -1    0    0    0    0  0.00000000000E+00  0.00000000000E+00  0.45593999997E+02  0.45594000000E+02  0.51100000000E-03 0.  1.
         11   -1    0    0    0    0 -0.00000000000E+00 -0.00000000000E+00 -0.45593999997E+02  0.45594000000E+02  0.51100000000E-03 0. -1.
    9900012    2    1    2    0    0  0.27374260338E+02 -0.88171206036E+01 -0.32504333810E+02  0.47787268886E+02  0.19999990160E+02 0.  0.
        -12    1    1    2    0    0 -0.27374260338E+02  0.88171206036E+01  0.32504333810E+02  0.43400731114E+02  0.00000000000E+00 0.  1.
         11    1    3    3    0    0 -0.47742201442E+00 -0.30727056638E+01 -0.24253293820E+01  0.39435611759E+01  0.51100000000E-03 0. -1.
        -11    1    3    3    0    0 -0.10071468010E+01 -0.22826421870E+01 -0.88367480228E+00  0.26468247864E+01  0.51100000000E-03 0.  1.
         12    1    3    3    0    0  0.28858829154E+02 -0.34617727529E+01 -0.29195329625E+02  0.41196882924E+02  0.00000000000E+00 0. -1.
</event>
<event>
 7    1  0.3910751E-009  0.4778727E+02  0.7816164E-02  0.1312668E+00
        -11   -1    0    0    0    0  0.00000000000E+00  0.00000000000E+00  0.45593999997E+02  0.45594000000E+02  0.51100000000E-03 0.  1.
         11   -1    0    0    0    0 -0.00000000000E+00 -0.00000000000E+00 -0.45593999997E+02  0.45594000000E+02  0.51100000000E-03 0. -1.
    9900012    2    1    2    0    0  0.37479922250E+02 -0.13597226614E+02 -0.17146263500E+02  0.47787268492E+02  0.19999988362E+02 0.  0.
        -12    1    1    2    0    0 -0.37479922250E+02  0.13597226614E+02  0.17146263500E+02  0.43400731508E+02  0.00000000000E+00 0.  1.
         11    1    3    3    0    0  0.13690420339E+02 -0.16261278723E+01 -0.73703735200E+01  0.15633115716E+02  0.51100000000E-03 0. -1.
        -11    1    3    3    0    0 -0.10474843131E+00  0.23082973666E+01  0.69669063314E+00  0.24134181291E+01  0.51100000000E-03 0.  1.
         12    1    3    3    0    0  0.23894250342E+02 -0.14279396108E+02 -0.10472580613E+02  0.29740734646E+02  0.00000000000E+00 0. -1.
</event>
<event>
 7    1  0.3910751E-009  0.4778727E+02  0.7816164E-02  0.1312668E+00
        -11   -1    0    0    0    0  0.00000000000E+00  0.00000000000E+00  0.45593999997E+02  0.45594000000E+02  0.51100000000E-03 0. -1.
         11   -1    0    0    0    0 -0.00000000000E+00 -0.00000000000E+00 -0.45593999997E+02  0.45594000000E+02  0.51100000000E-03 0.  1.
    9900012    2    1    2    0    0 -0.17998467781E+02  0.36808742403E+02  0.14310657827E+02  0.47787270891E+02  0.19999999299E+02 0.  0.
        -12    1    1    2    0    0  0.17998467781E+02 -0.36808742403E+02 -0.14310657827E+02  0.43400729109E+02  0.00000000000E+00 0.  1.
         11    1    3    3    0    0 -0.19925624578E+01  0.14201812562E+01 -0.24625525490E+01  0.34715105166E+01  0.51100000000E-03 0.  1.
        -11    1    3    3    0    0  0.23020284996E+01  0.26861814344E+01  0.13005553793E+01  0.37691312616E+01  0.51100000000E-03 0. -1.
         12    1    3    3    0    0 -0.18307933823E+02  0.32702379713E+02  0.15472654997E+02  0.40546629113E+02  0.00000000000E+00 0. -1.
</event>
<event>
 7    1  0.3910751E-009  0.4778727E+02  0.7816164E-02  0.1312668E+00
        -11   -1    0    0    0    0  0.00000000000E+00  0.00000000000E+00  0.45593999997E+02  0.45594000000E+02  0.51100000000E-03 0.  1.
         11   -1    0    0    0    0 -0.00000000000E+00 -0.00000000000E+00 -0.45593999997E+02  0.45594000000E+02  0.51100000000E-03 0. -1.
    9900012    2    1    2    0    0 -0.60613687601E+00  0.34906148970E+02  0.25784039008E+02  0.47787270681E+02  0.19999998345E+02 0.  0.
        -12    1    1    2    0    0  0.60613687601E+00 -0.34906148970E+02 -0.25784039008E+02  0.43400729319E+02  0.00000000000E+00 0.  1.
         11    1    3    3    0    0 -0.15136795045E+01  0.16155643189E+02  0.15627548747E+02  0.22528122705E+02  0.51100000000E-03 0. -1.
        -11    1    3    3    0    0 -0.57148624175E+01  0.46377491249E+01  0.47469292468E+01  0.87579510692E+01  0.51100000000E-03 0.  1.
        -12    1    3    3    0    0  0.66224050460E+01  0.14112756655E+02  0.54095610145E+01  0.16501196907E+02  0.00000000000E+00 0.  1.
</event>
<event>
 7    1  0.3910751E-009  0.4778727E+02  0.7816164E-02  0.1312668E+00
        -11   -1    0    0    0    0  0.00000000000E+00  0.00000000000E+00  0.45593999997E+02  0.45594000000E+02  0.51100000000E-03 0.  1.
         11   -1    0    0    0    0 -0.00000000000E+00 -0.00000000000E+00 -0.45593999997E+02  0.45594000000E+02  0.51100000000E-03 0. -1.
    9900012    2    1    2    0    0 -0.35929147530E+02 -0.24285156415E+02 -0.17178241040E+01  0.47787269775E+02  0.19999994214E+02 0.  0.
        -12    1    1    2    0    0  0.35929147530E+02  0.24285156415E+02  0.17178241040E+01  0.43400730225E+02  0.00000000000E+00 0.  1.
         11    1    3    3    0    0 -0.13623857139E+02 -0.13080189452E+02  0.66137537337E+01  0.20011061395E+02  0.51100000000E-03 0. -1.
        -11    1    3    3    0    0 -0.19831871039E+02 -0.12753767612E+02 -0.74322699463E+01  0.24722466180E+02  0.51100000000E-03 0.  1.
        -12    1    3    3    0    0 -0.24734193518E+01  0.15488006488E+01 -0.89930789133E+00  0.30537421998E+01  0.00000000000E+00 0.  1.
</event>
<event>
 7    1  0.3910751E-009  0.4778727E+02  0.7816164E-02  0.1312668E+00
        -11   -1    0    0    0    0  0.00000000000E+00  0.00000000000E+00  0.45593999997E+02  0.45594000000E+02  0.51100000000E-03 0.  1.
         11   -1    0    0    0    0 -0.00000000000E+00 -0.00000000000E+00 -0.45593999997E+02  0.45594000000E+02  0.51100000000E-03 0. -1.
    9900012    2    1    2    0    0 -0.28988890782E+02  0.71092657181E+01 -0.31507546545E+02  0.47787274924E+02  0.20000017689E+02 0.  0.
        -12    1    1    2    0    0  0.28988890782E+02 -0.71092657181E+01  0.31507546545E+02  0.43400725076E+02  0.00000000000E+00 0.  1.
         11    1    3    3    0    0  0.15033698498E+01  0.16616893787E+01 -0.66615825462E+01  0.70283721285E+01  0.51100000000E-03 0. -1.
        -11    1    3    3    0    0 -0.76095243692E+01  0.49772285605E+01 -0.45454202530E+01  0.10165555115E+02  0.51100000000E-03 0.  1.
        -12    1    3    3    0    0 -0.22882736262E+02  0.47034777897E+00 -0.20300543746E+02  0.30593347680E+02  0.00000000000E+00 0.  1.
</event>
<event>
 7    1  0.3910751E-009  0.4778727E+02  0.7816164E-02  0.1312668E+00
        -11   -1    0    0    0    0  0.00000000000E+00  0.00000000000E+00  0.45593999997E+02  0.45594000000E+02  0.51100000000E-03 0.  1.
         11   -1    0    0    0    0 -0.00000000000E+00 -0.00000000000E+00 -0.45593999997E+02  0.45594000000E+02  0.51100000000E-03 0. -1.
    9900012    2    1    2    0    0  0.37644892675E+02 -0.14019619849E+02 -0.16429716650E+02  0.47787271038E+02  0.19999999970E+02 0.  0.
        -12    1    1    2    0    0 -0.37644892675E+02  0.14019619849E+02  0.16429716650E+02  0.43400728962E+02  0.00000000000E+00 0.  1.
         11    1    3    3    0    0  0.14893360232E+02 -0.14155242393E+02 -0.92241608359E+01  0.22522615514E+02  0.51100000000E-03 0. -1.
        -11    1    3    3    0    0  0.10317679910E+02 -0.29526781605E+01 -0.35789380127E+00  0.10737826375E+02  0.51100000000E-03 0.  1.
         12    1    3    3    0    0  0.12433852533E+02  0.30883007044E+01 -0.68476620133E+01  0.14526829148E+02  0.00000000000E+00 0. -1.
</event>
<event>
 7    1  0.3910751E-009  0.4778726E+02  0.7816164E-02  0.1312668E+00
        -11   -1    0    0    0    0  0.00000000000E+00  0.00000000000E+00  0.45593999997E+02  0.45594000000E+02  0.51100000000E-03 0.  1.
         11   -1    0    0    0    0 -0.00000000000E+00 -0.00000000000E+00 -0.45593999997E+02  0.45594000000E+02  0.51100000000E-03 0. -1.
    9900012    2    1    2    0    0  0.11669634892E+02 -0.41723394162E+02  0.25694999426E+01  0.47787258890E+02  0.19999944583E+02 0.  0.
        -12    1    1    2    0    0 -0.11669634892E+02  0.41723394162E+02 -0.25694999426E+01  0.43400741110E+02  0.00000000000E+00 0.  1.
         11    1    3    3    0    0  0.76051798213E+01 -0.82928937541E+01 -0.38003748275E+00  0.11258564548E+02  0.51100000000E-03 0. -1.
        -11    1    3    3    0    0 -0.25891666324E+01 -0.18816610537E+02  0.65152509321E+01  0.20080266705E+02  0.51100000000E-03 0.  1.
         12    1    3    3    0    0  0.66536217032E+01 -0.14613889871E+02 -0.35657135068E+01  0.16448427637E+02  0.00000000000E+00 0. -1.
</event>
<event>
 7    1  0.3910751E-009  0.4778727E+02  0.7816164E-02  0.1312668E+00
        -11   -1    0    0    0    0  0.00000000000E+00  0.00000000000E+00  0.45593999997E+02  0.45594000000E+02  0.51100000000E-03 0. -1.
         11   -1    0    0    0    0 -0.00000000000E+00 -0.00000000000E+00 -0.45593999997E+02  0.45594000000E+02  0.51100000000E-03 0.  1.
    9900012    2    1    2    0    0  0.22049912059E+02  0.23338373476E+02  0.29201803288E+02  0.47787267130E+02  0.19999982154E+02 0.  0.
        -12    1    1    2    0    0 -0.22049912059E+02 -0.23338373476E+02 -0.29201803288E+02  0.43400732870E+02  0.00000000000E+00 0.  1.
         11    1    3    3    0    0  0.57037611587E+01  0.50247398594E+01  0.65309901547E+01  0.10021713161E+02  0.51100000000E-03 0. -1.
        -11    1    3    3    0    0  0.18255045727E+01 -0.35176003827E+01  0.34696247190E+01  0.52672834886E+01  0.51100000000E-03 0.  1.
        -12    1    3    3    0    0  0.14520646328E+02  0.21831234000E+02  0.19201188415E+02  0.32498270481E+02  0.00000000000E+00 0.  1.
</event>
<event>
 7    1  0.3910751E-009  0.4778727E+02  0.7816164E-02  0.1312668E+00
        -11   -1    0    0    0    0  0.00000000000E+00  0.00000000000E+00  0.45593999997E+02  0.45594000000E+02  0.51100000000E-03 0. -1.
         11   -1    0    0    0    0 -0.00000000000E+00 -0.00000000000E+00 -0.45593999997E+02  0.45594000000E+02  0.51100000000E-03 0.  1.
    9900012    2    1    2    0    0  0.72688427363E+01  0.42679242678E+02 -0.30445564775E+01  0.47787272420E+02  0.20000006272E+02 0.  0.
        -12    1    1    2    0    0 -0.72688427363E+01 -0.42679242678E+02  0.30445564775E+01  0.43400727580E+02  0.00000000000E+00 0.  1.
         11    1    3    3    0    0 -0.19867010131E+01  0.48267668848E+01  0.22055863270E+01  0.56665042824E+01  0.51100000000E-03 0. -1.
        -11    1    3    3    0    0  0.22076639336E+01 -0.13725361765E+00 -0.25687848750E+01  0.33898782566E+01  0.51100000000E-03 0.  1.
         12    1    3    3    0    0  0.70478798157E+01  0.37989729411E+02 -0.26813579295E+01  0.38730889881E+02  0.00000000000E+00 0. -1.
</event>
<event>
 7    1  0.3910751E-009  0.4778727E+02  0.7816164E-02  0.1312668E+00
        -11   -1    0    0    0    0  0.00000000000E+00  0.00000000000E+00  0.45593999997E+02  0.45594000000E+02  0.51100000000E-03 0.  1.
         11   -1    0    0    0    0 -0.00000000000E+00 -0.00000000000E+00 -0.45593999997E+02  0.45594000000E+02  0.51100000000E-03 0. -1.
    9900012    2    1    2    0    0 -0.24443731449E+02  0.23287971921E+01 -0.35786924014E+02  0.47787271505E+02  0.20000002101E+02 0.  0.
        -12    1    1    2    0    0  0.24443731449E+02 -0.23287971921E+01  0.35786924014E+02  0.43400728495E+02  0.00000000000E+00 0.  1.
         11    1    3    3    0    0 -0.45138888741E+01 -0.24693540009E+01 -0.11161633098E+02  0.12290441636E+02  0.51100000000E-03 0. -1.
        -11    1    3    3    0    0 -0.91337542959E+00 -0.34360778993E+01 -0.33964776968E+00  0.35715888445E+01  0.51100000000E-03 0.  1.
         12    1    3    3    0    0 -0.19016467145E+02  0.82342290924E+01 -0.24285643146E+02  0.31925241025E+02  0.00000000000E+00 0. -1.
</event>
<event>
 7    1  0.3910751E-009  0.4778727E+02  0.7816164E-02  0.1312668E+00
        -11   -1    0    0    0    0  0.00000000000E+00  0.00000000000E+00  0.45593999997E+02  0.45594000000E+02  0.51100000000E-03 0.  1.
         11   -1    0    0    0    0 -0.00000000000E+00 -0.00000000000E+00 -0.45593999997E+02  0.45594000000E+02  0.51100000000E-03 0. -1.
    9900012    2    1    2    0    0  0.25353444513E+02 -0.56774936134E+01 -0.34764813622E+02  0.47787270184E+02  0.19999996077E+02 0.  0.
        -12    1    1    2    0    0 -0.25353444513E+02  0.56774936134E+01  0.34764813622E+02  0.43400729816E+02  0.00000000000E+00 0.  1.
         11    1    3    3    0    0  0.19022361407E+02 -0.93102508729E+01 -0.18800148671E+02  0.28319191287E+02  0.51100000000E-03 0. -1.
        -11    1    3    3    0    0  0.26436152866E+01 -0.20911136618E+01 -0.19679468567E+01  0.39031107110E+01  0.51100000000E-03 0.  1.
        -12    1    3    3    0    0  0.36874678191E+01  0.57238709213E+01 -0.13996718094E+02  0.15564968186E+02  0.00000000000E+00 0.  1.
</event>
<event>
 7    1  0.3910751E-009  0.4778727E+02  0.7816164E-02  0.1312668E+00
        -11   -1    0    0    0    0  0.00000000000E+00  0.00000000000E+00  0.45593999997E+02  0.45594000000E+02  0.51100000000E-03 0. -1.
         11   -1    0    0    0    0 -0.00000000000E+00 -0.00000000000E+00 -0.45593999997E+02  0.45594000000E+02  0.51100000000E-03 0.  1.
    9900012    2    1    2    0    0  0.30934161102E+02 -0.30088076007E+02  0.46269514135E+01  0.47787270510E+02  0.19999997565E+02 0.  0.
        -12    1    1    2    0    0 -0.30934161102E+02  0.30088076007E+02 -0.46269514135E+01  0.43400729490E+02  0.00000000000E+00 0.  1.
         11    1    3    3    0    0  0.76337648317E+01 -0.13583831557E+02 -0.79421353779E+00  0.15602103085E+02  0.51100000000E-03 0. -1.
        -11    1    3    3    0    0  0.13644112183E+02 -0.14053011066E+01  0.35283058203E+01  0.14162824954E+02  0.51100000000E-03 0.  1.
         12    1    3    3    0    0  0.96562840870E+01 -0.15098943343E+02  0.18928591310E+01  0.18022342471E+02  0.00000000000E+00 0. -1.
</event>
<event>
 7    1  0.3910751E-009  0.4778727E+02  0.7816164E-02  0.1312668E+00
        -11   -1    0    0    0    0  0.00000000000E+00  0.00000000000E+00  0.45593999997E+02  0.45594000000E+02  0.51100000000E-03 0. -1.
         11   -1    0    0    0    0 -0.00000000000E+00 -0.00000000000E+00 -0.45593999997E+02  0.45594000000E+02  0.51100000000E-03 0.  1.
    9900012    2    1    2    0    0  0.31839634183E+02  0.20819729924E+02  0.20890181698E+02  0.47787272467E+02  0.20000006484E+02 0.  0.
        -12    1    1    2    0    0 -0.31839634183E+02 -0.20819729924E+02 -0.20890181698E+02  0.43400727533E+02  0.00000000000E+00 0.  1.
         11    1    3    3    0    0  0.13987444205E+02  0.10543158197E+02  0.13528066734E+01  0.17568063818E+02  0.51100000000E-03 0. -1.
        -11    1    3    3    0    0  0.74864319808E+01  0.11360766689E+01  0.18902460497E+01  0.78045092344E+01  0.51100000000E-03 0.  1.
        -12    1    3    3    0    0  0.10365757997E+02  0.91404950581E+01  0.17647128975E+02  0.22414699414E+02  0.00000000000E+00 0.  1.
</event>
<event>
 7    1  0.3910751E-009  0.4778727E+02  0.7816164E-02  0.1312668E+00
        -11   -1    0    0    0    0  0.00000000000E+00  0.00000000000E+00  0.45593999997E+02  0.45594000000E+02  0.51100000000E-03 0.  1.
         11   -1    0    0    0    0 -0.00000000000E+00 -0.00000000000E+00 -0.45593999997E+02  0.45594000000E+02  0.51100000000E-03 0. -1.
    9900012    2    1    2    0    0  0.35871049879E+02 -0.21751422478E+02 -0.11125060738E+02  0.47787267567E+02  0.19999984147E+02 0.  0.
        -12    1    1    2    0    0 -0.35871049879E+02  0.21751422478E+02  0.11125060738E+02  0.43400732433E+02  0.00000000000E+00 0.  1.
         11    1    3    3    0    0  0.10424906203E+02 -0.75682761904E+01 -0.20926119765E+01  0.13051302578E+02  0.51100000000E-03 0. -1.
        -11    1    3    3    0    0  0.16909758500E+02 -0.49352780346E+01  0.23443648537E+01  0.17770564106E+02  0.51100000000E-03 0.  1.
         12    1    3    3    0    0  0.85363851761E+01 -0.92478682531E+01 -0.11376813615E+02  0.16965400884E+02  0.00000000000E+00 0. -1.
</event>
<event>
 7    1  0.3910751E-009  0.4778727E+02  0.7816164E-02  0.1312668E+00
        -11   -1    0    0    0    0  0.00000000000E+00  0.00000000000E+00  0.45593999997E+02  0.45594000000E+02  0.51100000000E-03 0.  1.
         11   -1    0    0    0    0 -0.00000000000E+00 -0.00000000000E+00 -0.45593999997E+02  0.45594000000E+02  0.51100000000E-03 0. -1.
    9900012    2    1    2    0    0 -0.13606606551E+02 -0.20057465316E+02 -0.36002520950E+02  0.47787272224E+02  0.20000005379E+02 0.  0.
        -12    1    1    2    0    0  0.13606606551E+02  0.20057465316E+02  0.36002520950E+02  0.43400727776E+02  0.00000000000E+00 0.  1.
         11    1    3    3    0    0 -0.88723784144E+00  0.24447841556E+01 -0.13671533064E+01  0.29382424984E+01  0.51100000000E-03 0. -1.
        -11    1    3    3    0    0 -0.26532347463E+01 -0.68776674123E+01 -0.19607069810E+02  0.20947055890E+02  0.51100000000E-03 0.  1.
         12    1    3    3    0    0 -0.10066133963E+02 -0.15624582059E+02 -0.15028297834E+02  0.23901973836E+02  0.00000000000E+00 0. -1.
</event>
<event>
 7    1  0.3910751E-009  0.4778728E+02  0.7816164E-02  0.1312668E+00
        -11   -1    0    0    0    0  0.00000000000E+00  0.00000000000E+00  0.45593999997E+02  0.45594000000E+02  0.51100000000E-03 0.  1.
         11   -1    0    0    0    0 -0.00000000000E+00 -0.00000000000E+00 -0.45593999997E+02  0.45594000000E+02  0.51100000000E-03 0. -1.
    9900012    2    1    2    0    0  0.97148194568E+01  0.23490149837E+02 -0.35177516892E+02  0.47787279371E+02  0.20000037965E+02 0.  0.
        -12    1    1    2    0    0 -0.97148194568E+01 -0.23490149837E+02  0.35177516892E+02  0.43400720629E+02  0.00000000000E+00 0.  1.
         11    1    3    3    0    0  0.13450306110E+02  0.10352973791E+02 -0.14122003629E+02  0.22079986131E+02  0.51100000000E-03 0. -1.
        -11    1    3    3    0    0 -0.10810726817E+01  0.51428333444E+00 -0.24280651696E+00  0.12215403215E+01  0.51100000000E-03 0.  1.
        -12    1    3    3    0    0 -0.26544139717E+01  0.12622892711E+02 -0.20812706745E+02  0.24485752919E+02  0.00000000000E+00 0.  1.
</event>
<event>
 7    1  0.3910751E-009  0.4778727E+02  0.7816164E-02  0.1312668E+00
        -11   -1    0    0    0    0  0.00000000000E+00  0.00000000000E+00  0.45593999997E+02  0.45594000000E+02  0.51100000000E-03 0.  1.
         11   -1    0    0    0    0 -0.00000000000E+00 -0.00000000000E+00 -0.45593999997E+02  0.45594000000E+02  0.51100000000E-03 0. -1.
    9900012    2    1    2    0    0 -0.11027341980E+02 -0.36336832580E+02 -0.21015596129E+02  0.47787274733E+02  0.20000016817E+02 0.  0.
        -12    1    1    2    0    0  0.11027341980E+02  0.36336832580E+02  0.21015596129E+02  0.43400725267E+02  0.00000000000E+00 0.  1.
         11    1    3    3    0    0 -0.11375967054E+02 -0.16664431872E+02 -0.13275145674E+02  0.24152544565E+02  0.51100000000E-03 0. -1.
        -11    1    3    3    0    0 -0.35101426505E+00 -0.95420286931E+01 -0.93376948615E+01  0.13355376003E+02  0.51100000000E-03 0.  1.
        -12    1    3    3    0    0  0.69963933898E+00 -0.10130372014E+02  0.15972444064E+01  0.10279354165E+02  0.00000000000E+00 0.  1.
</event>
<event>
 7    1  0.3910751E-009  0.4778727E+02  0.7816164E-02  0.1312668E+00
        -11   -1    0    0    0    0  0.00000000000E+00  0.00000000000E+00  0.45593999997E+02  0.45594000000E+02  0.51100000000E-03 0.  1.
         11   -1    0    0    0    0 -0.00000000000E+00 -0.00000000000E+00 -0.45593999997E+02  0.45594000000E+02  0.51100000000E-03 0. -1.
    9900012    2    1    2    0    0 -0.64534801991E+01 -0.87835264739E+01 -0.42009825543E+02  0.47787272055E+02  0.20000004610E+02 0.  0.
        -12    1    1    2    0    0  0.64534801991E+01  0.87835264739E+01  0.42009825543E+02  0.43400727945E+02  0.00000000000E+00 0.  1.
         11    1    3    3    0    0 -0.61069119070E+01 -0.77864411769E+01 -0.13993836836E+02  0.17139151347E+02  0.51100000000E-03 0. -1.
        -11    1    3    3    0    0 -0.48546689878E+01 -0.37655956850E+01 -0.89078262061E+01  0.10821131633E+02  0.51100000000E-03 0.  1.
         12    1    3    3    0    0  0.45081006957E+01  0.27685103879E+01 -0.19108162500E+02  0.19826989075E+02  0.00000000000E+00 0. -1.
</event>
<event>
 7    1  0.3910751E-009  0.4778727E+02  0.7816164E-02  0.1312668E+00
        -11   -1    0    0    0    0  0.00000000000E+00  0.00000000000E+00  0.45593999997E+02  0.45594000000E+02  0.51100000000E-03 0. -1.
         11   -1    0    0    0    0 -0.00000000000E+00 -0.00000000000E+00 -0.45593999997E+02  0.45594000000E+02  0.51100000000E-03 0.  1.
    9900012    2    1    2    0    0  0.40432616064E+00  0.11714844681E+02  0.41787823453E+02  0.47787271268E+02  0.20000001019E+02 0.  0.
        -12    1    1    2    0    0 -0.40432616064E+00 -0.11714844681E+02 -0.41787823453E+02  0.43400728732E+02  0.00000000000E+00 0.  1.
         11    1    3    3    0    0  0.51181830124E+01 -0.33845695680E+01  0.14131453282E+02  0.15406137759E+02  0.51100000000E-03 0. -1.
        -11    1    3    3    0    0 -0.12387670389E+01 -0.24667260273E-01  0.30256553662E+01  0.32695172284E+01  0.51100000000E-03 0.  1.
        -12    1    3    3    0    0 -0.34750898129E+01  0.15124081509E+02  0.24630714805E+02  0.29111616281E+02  0.00000000000E+00 0.  1.
</event>
<event>
 7    1  0.3910751E-009  0.4778726E+02  0.7816164E-02  0.1312668E+00
        -11   -1    0    0    0    0  0.00000000000E+00  0.00000000000E+00  0.45593999997E+02  0.45594000000E+02  0.51100000000E-03 0.  1.
         11   -1    0    0    0    0 -0.00000000000E+00 -0.00000000000E+00 -0.45593999997E+02  0.45594000000E+02  0.51100000000E-03 0. -1.
    9900012    2    1    2    0    0  0.21556096537E+02  0.71735234338E+01 -0.36979713089E+02  0.47787263641E+02  0.19999966245E+02 0.  0.
        -12    1    1    2    0    0 -0.21556096537E+02 -0.71735234338E+01  0.36979713089E+02  0.43400736359E+02  0.00000000000E+00 0.  1.
         11    1    3    3    0    0  0.75278460573E+01  0.20625265756E+01 -0.16423757192E+02  0.18184121719E+02  0.51100000000E-03 0. -1.
        -11    1    3    3    0    0 -0.20027207400E+01 -0.27400699847E+01 -0.41264315795E+01  0.53428748558E+01  0.51100000000E-03 0.  1.
        -12    1    3    3    0    0  0.16030971220E+02  0.78510668428E+01 -0.16429524317E+02  0.24260267066E+02  0.00000000000E+00 0.  1.
</event>
<event>
 7    1  0.4040658E-009  0.4778727E+02  0.7816164E-02  0.1312668E+00
        -11   -1    0    0    0    0  0.00000000000E+00  0.00000000000E+00  0.45593999997E+02  0.45594000000E+02  0.51100000000E-03 0.  1.
         11   -1    0    0    0    0 -0.00000000000E+00 -0.00000000000E+00 -0.45593999997E+02  0.45594000000E+02  0.51100000000E-03 0. -1.
    9900012    2    1    2    0    0 -0.42425172269E+02 -0.65243803953E+01  0.64156336988E+01  0.47787272618E+02  0.20000007173E+02 0.  0.
        -12    1    1    2    0    0  0.42425172269E+02  0.65243803953E+01 -0.64156336988E+01  0.43400727382E+02  0.00000000000E+00 0.  1.
         11    1    3    3    0    0 -0.28478864219E+02 -0.24803166134E+01 -0.14614334406E+00  0.28587043146E+02  0.51100000000E-03 0. -1.
        -11    1    3    3    0    0 -0.66177015064E+01  0.32552310565E+01  0.95993559289E+00  0.74372023680E+01  0.51100000000E-03 0.  1.
        -12    1    3    3    0    0 -0.73286065432E+01 -0.72992948384E+01  0.56018414500E+01  0.11763027103E+02  0.00000000000E+00 0.  1.
</event>
<event>
 7    1  0.3910751E-009  0.4778727E+02  0.7816164E-02  0.1312668E+00
        -11   -1    0    0    0    0  0.00000000000E+00  0.00000000000E+00  0.45593999997E+02  0.45594000000E+02  0.51100000000E-03 0.  1.
         11   -1    0    0    0    0 -0.00000000000E+00 -0.00000000000E+00 -0.45593999997E+02  0.45594000000E+02  0.51100000000E-03 0. -1.
    9900012    2    1    2    0    0  0.29184693116E+02  0.32109391268E+02 -0.92945951913E+00  0.47787271724E+02  0.20000003100E+02 0.  0.
        -12    1    1    2    0    0 -0.29184693116E+02 -0.32109391268E+02  0.92945951913E+00  0.43400728276E+02  0.00000000000E+00 0.  1.
         11    1    3    3    0    0  0.12528587404E+02  0.19295515942E+02  0.19113032672E+01  0.23085396211E+02  0.51100000000E-03 0. -1.
        -11    1    3    3    0    0  0.50289970392E+01  0.10155981322E+02 -0.53206721253E+01  0.12519757184E+02  0.51100000000E-03 0.  1.
        -12    1    3    3    0    0  0.11627108673E+02  0.26578940036E+01  0.24799093389E+01  0.12182118328E+02  0.00000000000E+00 0.  1.
</event>
<event>
 7    1  0.3910751E-009  0.4778727E+02  0.7816164E-02  0.1312668E+00
        -11   -1    0    0    0    0  0.00000000000E+00  0.00000000000E+00  0.45593999997E+02  0.45594000000E+02  0.51100000000E-03 0.  1.
         11   -1    0    0    0    0 -0.00000000000E+00 -0.00000000000E+00 -0.45593999997E+02  0.45594000000E+02  0.51100000000E-03 0. -1.
    9900012    2    1    2    0    0  0.26594105037E+02  0.17750840278E+02 -0.29347654308E+02  0.47787267671E+02  0.19999984617E+02 0.  0.
        -12    1    1    2    0    0 -0.26594105037E+02 -0.17750840278E+02  0.29347654308E+02  0.43400732329E+02  0.00000000000E+00 0.  1.
         11    1    3    3    0    0  0.31390931636E+01  0.69273106300E+01 -0.12874374612E+02  0.14952961592E+02  0.51100000000E-03 0. -1.
        -11    1    3    3    0    0 -0.86825622169E-01 -0.16639538030E+01 -0.16283294168E+01  0.23297506085E+01  0.51100000000E-03 0.  1.
        -12    1    3    3    0    0  0.23541837496E+02  0.12487483451E+02 -0.14844950280E+02  0.30504555470E+02  0.00000000000E+00 0.  1.
</event>
<event>
 7    1  0.3910751E-009  0.4778727E+02  0.7816164E-02  0.1312668E+00
        -11   -1    0    0    0    0  0.00000000000E+00  0.00000000000E+00  0.45593999997E+02  0.45594000000E+02  0.51100000000E-03 0. -1.
         11   -1    0    0    0    0 -0.00000000000E+00 -0.00000000000E+00 -0.45593999997E+02  0.45594000000E+02  0.51100000000E-03 0.  1.
    9900012    2    1    2    0    0 -0.35945867017E+02 -0.11067817376E+02  0.21656896876E+02  0.47787272824E+02  0.20000008115E+02 0.  0.
        -12    1    1    2    0    0  0.35945867017E+02  0.11067817376E+02 -0.21656896876E+02  0.43400727176E+02  0.00000000000E+00 0.  1.
         11    1    3    3    0    0 -0.54522068428E+01 -0.41947210351E+01  0.29248793655E+01  0.74751029145E+01  0.51100000000E-03 0. -1.
        -11    1    3    3    0    0 -0.19238833381E+02 -0.89719297356E+01  0.39128485812E+01  0.21585611349E+02  0.51100000000E-03 0.  1.
         12    1    3    3    0    0 -0.11254826794E+02  0.20988333952E+01  0.14819168929E+02  0.18726558561E+02  0.00000000000E+00 0. -1.
</event>
<event>
 7    1  0.3910751E-009  0.4778729E+02  0.7816164E-02  0.1312668E+00
        -11   -1    0    0    0    0  0.00000000000E+00  0.00000000000E+00  0.45593999997E+02  0.45594000000E+02  0.51100000000E-03 0.  1.
         11   -1    0    0    0    0 -0.00000000000E+00 -0.00000000000E+00 -0.45593999997E+02  0.45594000000E+02  0.51100000000E-03 0. -1.
    9900012    2    1    2    0    0 -0.17947215581E+02 -0.23494804685E+01 -0.39446153497E+02  0.47787289967E+02  0.20000086277E+02 0.  0.
        -12    1    1    2    0    0  0.17947215581E+02  0.23494804685E+01  0.39446153497E+02  0.43400710033E+02  0.00000000000E+00 0.  1.
         11    1    3    3    0    0 -0.51317525234E+01 -0.70403739041E+00 -0.20569721176E+02  0.21211883041E+02  0.51100000000E-03 0. -1.
        -11    1    3    3    0    0 -0.37797942743E+00  0.34789041908E+01 -0.96463722814E+01  0.10261488258E+02  0.51100000000E-03 0.  1.
        -12    1    3    3    0    0 -0.12437483630E+02 -0.51243472689E+01 -0.92300600398E+01  0.16313918668E+02  0.00000000000E+00 0.  1.
</event>
<event>
 7    1  0.3910751E-009  0.4778727E+02  0.7816164E-02  0.1312668E+00
        -11   -1    0    0    0    0  0.00000000000E+00  0.00000000000E+00  0.45593999997E+02  0.45594000000E+02  0.51100000000E-03 0.  1.
         11   -1    0    0    0    0 -0.00000000000E+00 -0.00000000000E+00 -0.45593999997E+02  0.45594000000E+02  0.51100000000E-03 0. -1.
    9900012    2    1    2    0    0  0.34956371068E+02 -0.21664272366E+02  0.13868479465E+02  0.47787270766E+02  0.19999998732E+02 0.  0.
        -12    1    1    2    0    0 -0.34956371068E+02  0.21664272366E+02 -0.13868479465E+02  0.43400729234E+02  0.00000000000E+00 0.  1.
         11    1    3    3    0    0  0.16758929771E+02 -0.25595711352E+01  0.90187998671E+01  0.19202913393E+02  0.51100000000E-03 0. -1.
        -11    1    3    3    0    0 -0.10212608694E+00  0.55001902716E+00  0.14015355900E+01  0.15090569701E+01  0.51100000000E-03 0.  1.
        -12    1    3    3    0    0  0.18299567384E+02 -0.19654720258E+02  0.34481440078E+01  0.27075300404E+02  0.00000000000E+00 0.  1.
</event>
<event>
 7    1  0.3910751E-009  0.4778727E+02  0.7816164E-02  0.1312668E+00
        -11   -1    0    0    0    0  0.00000000000E+00  0.00000000000E+00  0.45593999997E+02  0.45594000000E+02  0.51100000000E-03 0.  1.
         11   -1    0    0    0    0 -0.00000000000E+00 -0.00000000000E+00 -0.45593999997E+02  0.45594000000E+02  0.51100000000E-03 0. -1.
    9900012    2    1    2    0    0 -0.39869628699E+01  0.40735181520E+02 -0.14435120048E+02  0.47787267550E+02  0.19999984069E+02 0.  0.
        -12    1    1    2    0    0  0.39869628699E+01 -0.40735181520E+02  0.14435120048E+02  0.43400732450E+02  0.00000000000E+00 0.  1.
         11    1    3    3    0    0 -0.79654394091E+00  0.23492211712E+02 -0.17560435217E+02  0.29340882377E+02  0.51100000000E-03 0. -1.
        -11    1    3    3    0    0  0.11019291443E+01  0.16804211200E+01  0.36040528835E-01  0.20098164494E+01  0.51100000000E-03 0.  1.
         12    1    3    3    0    0 -0.42923480733E+01  0.15562548687E+02  0.30892746394E+01  0.16436568724E+02  0.00000000000E+00 0. -1.
</event>
<event>
 7    1  0.3910751E-009  0.4778726E+02  0.7816164E-02  0.1312668E+00
        -11   -1    0    0    0    0  0.00000000000E+00  0.00000000000E+00  0.45593999997E+02  0.45594000000E+02  0.51100000000E-03 0. -1.
         11   -1    0    0    0    0 -0.00000000000E+00 -0.00000000000E+00 -0.45593999997E+02  0.45594000000E+02  0.51100000000E-03 0.  1.
    9900012    2    1    2    0    0 -0.27618206157E+02  0.33233116090E+02 -0.40520478638E+01  0.47787257976E+02  0.19999940414E+02 0.  0.
        -12    1    1    2    0    0  0.27618206157E+02 -0.33233116090E+02  0.40520478638E+01  0.43400742024E+02  0.00000000000E+00 0.  1.
         11    1    3    3    0    0 -0.88717718857E+01  0.69235670339E+01 -0.14371253570E+01  0.11345018573E+02  0.51100000000E-03 0. -1.
        -11    1    3    3    0    0 -0.10211236174E+02  0.18234609948E+01 -0.15631675123E+01  0.10489892617E+02  0.51100000000E-03 0.  1.
         12    1    3    3    0    0 -0.85351980981E+01  0.24486088061E+02 -0.10517549945E+01  0.25952346785E+02  0.00000000000E+00 0. -1.
</event>
<event>
 7    1  0.3910751E-009  0.4778727E+02  0.7816164E-02  0.1312668E+00
        -11   -1    0    0    0    0  0.00000000000E+00  0.00000000000E+00  0.45593999997E+02  0.45594000000E+02  0.51100000000E-03 0.  1.
         11   -1    0    0    0    0 -0.00000000000E+00 -0.00000000000E+00 -0.45593999997E+02  0.45594000000E+02  0.51100000000E-03 0. -1.
    9900012    2    1    2    0    0  0.19298256597E+02  0.17874533665E+02 -0.34521036589E+02  0.47787266957E+02  0.19999981366E+02 0.  0.
        -12    1    1    2    0    0 -0.19298256597E+02 -0.17874533665E+02  0.34521036589E+02  0.43400733043E+02  0.00000000000E+00 0.  1.
         11    1    3    3    0    0  0.28627005033E+01  0.87418220646E+01 -0.13762551450E+02  0.16553619842E+02  0.51100000000E-03 0. -1.
        -11    1    3    3    0    0  0.34341598636E+01  0.91003154963E+01 -0.12470305577E+02  0.15815110418E+02  0.51100000000E-03 0.  1.
         12    1    3    3    0    0  0.13001396230E+02  0.32396104347E-01 -0.82881795625E+01  0.15418536698E+02  0.00000000000E+00 0. -1.
</event>
<event>
 7    1  0.3910751E-009  0.4778727E+02  0.7816164E-02  0.1312668E+00
        -11   -1    0    0    0    0  0.00000000000E+00  0.00000000000E+00  0.45593999997E+02  0.45594000000E+02  0.51100000000E-03 0. -1.
         11   -1    0    0    0    0 -0.00000000000E+00 -0.00000000000E+00 -0.45593999997E+02  0.45594000000E+02  0.51100000000E-03 0.  1.
    9900012    2    1    2    0    0  0.50153756024E+00 -0.41477058779E+02 -0.12768136057E+02  0.47787271397E+02  0.20000001609E+02 0.  0.
        -12    1    1    2    0    0 -0.50153756024E+00  0.41477058779E+02  0.12768136057E+02  0.43400728603E+02  0.00000000000E+00 0.  1.
         11    1    3    3    0    0  0.24493039038E+01 -0.18103155057E+02  0.33526017378E+01  0.18573186353E+02  0.51100000000E-03 0. -1.
        -11    1    3    3    0    0 -0.11658491202E+01 -0.11893992243E+02 -0.42560743104E+01  0.12686229718E+02  0.51100000000E-03 0.  1.
        -12    1    3    3    0    0 -0.78191722332E+00 -0.11479911478E+02 -0.11864663484E+02  0.16527855326E+02  0.00000000000E+00 0.  1.
</event>
<event>
 7    1  0.3910751E-009  0.4778727E+02  0.7816164E-02  0.1312668E+00
        -11   -1    0    0    0    0  0.00000000000E+00  0.00000000000E+00  0.45593999997E+02  0.45594000000E+02  0.51100000000E-03 0. -1.
         11   -1    0    0    0    0 -0.00000000000E+00 -0.00000000000E+00 -0.45593999997E+02  0.45594000000E+02  0.51100000000E-03 0.  1.
    9900012    2    1    2    0    0  0.20058964908E+02 -0.42234827441E+01  0.38254719676E+02  0.47787268933E+02  0.19999990373E+02 0.  0.
        -12    1    1    2    0    0 -0.20058964908E+02  0.42234827441E+01 -0.38254719676E+02  0.43400731067E+02  0.00000000000E+00 0.  1.
         11    1    3    3    0    0 -0.44528224091E+00 -0.33611828262E+01  0.18855238108E+02  0.19157657232E+02  0.51100000000E-03 0. -1.
        -11    1    3    3    0    0  0.43726479119E+01 -0.18202734919E+01  0.30034375662E+01  0.56083939610E+01  0.51100000000E-03 0.  1.
         12    1    3    3    0    0  0.16131599237E+02  0.95797357399E+00  0.16396044002E+02  0.23021217740E+02  0.00000000000E+00 0. -1.
</event>
<event>
 7    1  0.3910751E-009  0.4778727E+02  0.7816164E-02  0.1312668E+00
        -11   -1    0    0    0    0  0.00000000000E+00  0.00000000000E+00  0.45593999997E+02  0.45594000000E+02  0.51100000000E-03 0.  1.
         11   -1    0    0    0    0 -0.00000000000E+00 -0.00000000000E+00 -0.45593999997E+02  0.45594000000E+02  0.51100000000E-03 0. -1.
    9900012    2    1    2    0    0  0.30845260809E+02  0.19061548722E+02 -0.23850588846E+02  0.47787270255E+02  0.19999996401E+02 0.  0.
        -12    1    1    2    0    0 -0.30845260809E+02 -0.19061548722E+02  0.23850588846E+02  0.43400729745E+02  0.00000000000E+00 0.  1.
         11    1    3    3    0    0  0.24020701373E+02  0.19171152718E+02 -0.12566014723E+02  0.33202890195E+02  0.51100000000E-03 0. -1.
        -11    1    3    3    0    0  0.69260781375E+01 -0.13444946323E+01 -0.63351318752E+01  0.94822001835E+01  0.51100000000E-03 0.  1.
         12    1    3    3    0    0 -0.10151870123E+00  0.12348906356E+01 -0.49494422481E+01  0.51021798769E+01  0.00000000000E+00 0. -1.
</event>
<event>
 7    1  0.3910751E-009  0.4778727E+02  0.7816164E-02  0.1312668E+00
        -11   -1    0    0    0    0  0.00000000000E+00  0.00000000000E+00  0.45593999997E+02  0.45594000000E+02  0.51100000000E-03 0.  1.
         11   -1    0    0    0    0 -0.00000000000E+00 -0.00000000000E+00 -0.45593999997E+02  0.45594000000E+02  0.51100000000E-03 0. -1.
    9900012    2    1    2    0    0  0.16436022455E+01 -0.10279358843E+02 -0.42133793750E+02  0.47787271638E+02  0.20000002708E+02 0.  0.
        -12    1    1    2    0    0 -0.16436022455E+01  0.10279358843E+02  0.42133793750E+02  0.43400728362E+02  0.00000000000E+00 0.  1.
         11    1    3    3    0    0 -0.15199659863E+01 -0.85728817210E+01 -0.22784136803E+02  0.24391012438E+02  0.51100000000E-03 0. -1.
        -11    1    3    3    0    0 -0.38801125934E+01  0.24499012875E+01 -0.98131694724E+01  0.10833078298E+02  0.51100000000E-03 0.  1.
        -12    1    3    3    0    0  0.70436808251E+01 -0.41563784094E+01 -0.95364874740E+01  0.12563180903E+02  0.00000000000E+00 0.  1.
</event>
<event>
 7    1  0.3910751E-009  0.4778725E+02  0.7816164E-02  0.1312668E+00
        -11   -1    0    0    0    0  0.00000000000E+00  0.00000000000E+00  0.45593999997E+02  0.45594000000E+02  0.51100000000E-03 0.  1.
         11   -1    0    0    0    0 -0.00000000000E+00 -0.00000000000E+00 -0.45593999997E+02  0.45594000000E+02  0.51100000000E-03 0. -1.
    9900012    2    1    2    0    0 -0.72940012325E+01 -0.79691262843E+01 -0.42034698161E+02  0.47787247965E+02  0.19999894771E+02 0.  0.
        -12    1    1    2    0    0  0.72940012325E+01  0.79691262843E+01  0.42034698161E+02  0.43400752035E+02  0.00000000000E+00 0.  1.
         11    1    3    3    0    0 -0.39308888066E+01 -0.42825402310E+01 -0.47070353768E+00  0.58321179448E+01  0.51100000000E-03 0. -1.
        -11    1    3    3    0    0  0.26366229654E+00 -0.13217724213E+01 -0.79499268352E+01  0.80633700824E+01  0.51100000000E-03 0.  1.
        -12    1    3    3    0    0 -0.36267747224E+01 -0.23648136320E+01 -0.33614067788E+02  0.33891759938E+02  0.00000000000E+00 0.  1.
</event>
<event>
 7    1  0.3910751E-009  0.4778728E+02  0.7816164E-02  0.1312668E+00
        -11   -1    0    0    0    0  0.00000000000E+00  0.00000000000E+00  0.45593999997E+02  0.45594000000E+02  0.51100000000E-03 0.  1.
         11   -1    0    0    0    0 -0.00000000000E+00 -0.00000000000E+00 -0.45593999997E+02  0.45594000000E+02  0.51100000000E-03 0. -1.
    9900012    2    1    2    0    0 -0.14517913490E+02  0.26136722455E+02 -0.31459883050E+02  0.47787282100E+02  0.20000050404E+02 0.  0.
        -12    1    1    2    0    0  0.14517913490E+02 -0.26136722455E+02  0.31459883050E+02  0.43400717900E+02  0.00000000000E+00 0.  1.
         11    1    3    3    0    0 -0.62000511787E+00  0.39769851387E+01 -0.11416103185E+01  0.41837891343E+01  0.51100000000E-03 0.  1.
        -11    1    3    3    0    0 -0.14267334825E+02  0.24829796984E+02 -0.27934545964E+02  0.40005181162E+02  0.51100000000E-03 0. -1.
         12    1    3    3    0    0  0.36942645241E+00 -0.26700596684E+01 -0.23837267667E+01  0.35983118035E+01  0.00000000000E+00 0. -1.
</event>
<event>
 7    1  0.3910751E-009  0.4778727E+02  0.7816164E-02  0.1312668E+00
        -11   -1    0    0    0    0  0.00000000000E+00  0.00000000000E+00  0.45593999997E+02  0.45594000000E+02  0.51100000000E-03 0.  1.
         11   -1    0    0    0    0 -0.00000000000E+00 -0.00000000000E+00 -0.45593999997E+02  0.45594000000E+02  0.51100000000E-03 0. -1.
    9900012    2    1    2    0    0  0.36026056346E+02 -0.23595894480E+02 -0.53833461217E+01  0.47787269733E+02  0.19999994023E+02 0.  0.
        -12    1    1    2    0    0 -0.36026056346E+02  0.23595894480E+02  0.53833461217E+01  0.43400730267E+02  0.00000000000E+00 0.  1.
         11    1    3    3    0    0  0.13887150520E+02 -0.46093288499E+01 -0.61690979450E+01  0.15879440536E+02  0.51100000000E-03 0. -1.
        -11    1    3    3    0    0  0.21260490202E+02 -0.11545966728E+02  0.21636834351E+01  0.24289901556E+02  0.51100000000E-03 0.  1.
         12    1    3    3    0    0  0.87841562444E+00 -0.74405989022E+01 -0.13779316118E+01  0.76179276420E+01  0.00000000000E+00 0. -1.
</event>
<event>
 7    1  0.3910751E-009  0.4778727E+02  0.7816164E-02  0.1312668E+00
        -11   -1    0    0    0    0  0.00000000000E+00  0.00000000000E+00  0.45593999997E+02  0.45594000000E+02  0.51100000000E-03 0.  1.
         11   -1    0    0    0    0 -0.00000000000E+00 -0.00000000000E+00 -0.45593999997E+02  0.45594000000E+02  0.51100000000E-03 0. -1.
    9900012    2    1    2    0    0 -0.10867610690E+01 -0.31685567781E+02 -0.29638951044E+02  0.47787266432E+02  0.19999978971E+02 0.  0.
        -12    1    1    2    0    0  0.10867610690E+01  0.31685567781E+02  0.29638951044E+02  0.43400733568E+02  0.00000000000E+00 0.  1.
         11    1    3    3    0    0  0.10678223902E+01 -0.10797381408E+02 -0.81265644141E+01  0.13555985371E+02  0.51100000000E-03 0. -1.
        -11    1    3    3    0    0 -0.45659175297E+01 -0.20325013535E+02 -0.11251711521E+02  0.23676038319E+02  0.51100000000E-03 0.  1.
         12    1    3    3    0    0  0.24113340704E+01 -0.56317283772E+00 -0.10260675109E+02  0.10555242742E+02  0.00000000000E+00 0. -1.
</event>
<event>
 7    1  0.3910751E-009  0.4778727E+02  0.7816164E-02  0.1312668E+00
        -11   -1    0    0    0    0  0.00000000000E+00  0.00000000000E+00  0.45593999997E+02  0.45594000000E+02  0.51100000000E-03 0.  1.
         11   -1    0    0    0    0 -0.00000000000E+00 -0.00000000000E+00 -0.45593999997E+02  0.45594000000E+02  0.51100000000E-03 0. -1.
    9900012    2    1    2    0    0  0.40500246587E+02  0.15348928424E+02 -0.27863757423E+01  0.47787268817E+02  0.19999989845E+02 0.  0.
        -12    1    1    2    0    0 -0.40500246587E+02 -0.15348928424E+02  0.27863757423E+01  0.43400731183E+02  0.00000000000E+00 0.  1.
         11    1    3    3    0    0  0.29011400686E+02  0.85119045239E+01 -0.98339957993E+00  0.30250305178E+02  0.51100000000E-03 0. -1.
        -11    1    3    3    0    0  0.12255548248E+02  0.71728256461E+01  0.13598656126E+01  0.14265241861E+02  0.51100000000E-03 0.  1.
        -12    1    3    3    0    0 -0.76670234622E+00 -0.33580174565E+00 -0.31628417749E+01  0.32717217781E+01  0.00000000000E+00 0.  1.
</event>
<event>
 7    1  0.3910751E-009  0.4778727E+02  0.7816164E-02  0.1312668E+00
        -11   -1    0    0    0    0  0.00000000000E+00  0.00000000000E+00  0.45593999997E+02  0.45594000000E+02  0.51100000000E-03 0.  1.
         11   -1    0    0    0    0 -0.00000000000E+00 -0.00000000000E+00 -0.45593999997E+02  0.45594000000E+02  0.51100000000E-03 0. -1.
    9900012    2    1    2    0    0  0.33006233900E+02 -0.24484460554E+02 -0.13954315159E+02  0.47787271936E+02  0.20000004066E+02 0.  0.
        -12    1    1    2    0    0 -0.33006233900E+02  0.24484460554E+02  0.13954315159E+02  0.43400728064E+02  0.00000000000E+00 0.  1.
         11    1    3    3    0    0  0.15770302585E+02 -0.34482305418E+01 -0.17506797826E+01  0.16237537296E+02  0.51100000000E-03 0. -1.
        -11    1    3    3    0    0  0.24068858565E+01 -0.25716655491E+01  0.18837937811E+01  0.39944013937E+01  0.51100000000E-03 0.  1.
        -12    1    3    3    0    0  0.14829045459E+02 -0.18464564463E+02 -0.14087429158E+02  0.27555333246E+02  0.00000000000E+00 0.  1.
</event>
<event>
 7    1  0.3910751E-009  0.4778727E+02  0.7816164E-02  0.1312668E+00
        -11   -1    0    0    0    0  0.00000000000E+00  0.00000000000E+00  0.45593999997E+02  0.45594000000E+02  0.51100000000E-03 0. -1.
         11   -1    0    0    0    0 -0.00000000000E+00 -0.00000000000E+00 -0.45593999997E+02  0.45594000000E+02  0.51100000000E-03 0.  1.
    9900012    2    1    2    0    0 -0.18894979083E+02  0.36574017700E+02  0.13745707377E+02  0.47787268709E+02  0.19999989354E+02 0.  0.
        -12    1    1    2    0    0  0.18894979083E+02 -0.36574017700E+02 -0.13745707377E+02  0.43400731291E+02  0.00000000000E+00 0.  1.
         11    1    3    3    0    0 -0.29100340228E+01  0.17244625911E+02  0.59414827445E+01  0.18470155341E+02  0.51100000000E-03 0. -1.
        -11    1    3    3    0    0 -0.90275014288E+01  0.15511504823E+02  0.10669944203E+02  0.20879422250E+02  0.51100000000E-03 0.  1.
         12    1    3    3    0    0 -0.69574436316E+01  0.38178869649E+01 -0.28657195703E+01  0.84376911189E+01  0.00000000000E+00 0. -1.
</event>
<event>
 7    1  0.3910751E-009  0.4778727E+02  0.7816164E-02  0.1312668E+00
        -11   -1    0    0    0    0  0.00000000000E+00  0.00000000000E+00  0.45593999997E+02  0.45594000000E+02  0.51100000000E-03 0.  1.
         11   -1    0    0    0    0 -0.00000000000E+00 -0.00000000000E+00 -0.45593999997E+02  0.45594000000E+02  0.51100000000E-03 0. -1.
    9900012    2    1    2    0    0 -0.36865592205E+02 -0.21830008557E+02 -0.69283432264E+01  0.47787273024E+02  0.20000009024E+02 0.  0.
        -12    1    1    2    0    0  0.36865592205E+02  0.21830008557E+02  0.69283432264E+01  0.43400726976E+02  0.00000000000E+00 0.  1.
         11    1    3    3    0    0 -0.46602430147E+01 -0.17028757249E+01  0.34923006186E+01  0.60674388800E+01  0.51100000000E-03 0. -1.
        -11    1    3    3    0    0 -0.12929457867E+02 -0.58068058639E+00 -0.35665879261E+01  0.13424925339E+02  0.51100000000E-03 0.  1.
         12    1    3    3    0    0 -0.19275891324E+02 -0.19546452245E+02 -0.68540559188E+01  0.28294908804E+02  0.00000000000E+00 0. -1.
</event>
<event>
 7    1  0.3910751E-009  0.4778727E+02  0.7816164E-02  0.1312668E+00
        -11   -1    0    0    0    0  0.00000000000E+00  0.00000000000E+00  0.45593999997E+02  0.45594000000E+02  0.51100000000E-03 0.  1.
         11   -1    0    0    0    0 -0.00000000000E+00 -0.00000000000E+00 -0.45593999997E+02  0.45594000000E+02  0.51100000000E-03 0. -1.
    9900012    2    1    2    0    0 -0.34820964664E+02  0.13562229504E+02 -0.22072373910E+02  0.47787270291E+02  0.19999996564E+02 0.  0.
        -12    1    1    2    0    0  0.34820964664E+02 -0.13562229504E+02  0.22072373910E+02  0.43400729709E+02  0.00000000000E+00 0.  1.
         11    1    3    3    0    0 -0.59083936900E+01  0.15033638111E+01 -0.63959508595E+01  0.88361420542E+01  0.51100000000E-03 0. -1.
        -11    1    3    3    0    0 -0.13069398514E+02 -0.33321147518E+01 -0.46741193959E+01  0.14274437244E+02  0.51100000000E-03 0.  1.
         12    1    3    3    0    0 -0.15843172460E+02  0.15390980445E+02 -0.11002303655E+02  0.24676690993E+02  0.00000000000E+00 0. -1.
</event>
<event>
 7    1  0.3910751E-009  0.4778726E+02  0.7816164E-02  0.1312668E+00
        -11   -1    0    0    0    0  0.00000000000E+00  0.00000000000E+00  0.45593999997E+02  0.45594000000E+02  0.51100000000E-03 0.  1.
         11   -1    0    0    0    0 -0.00000000000E+00 -0.00000000000E+00 -0.45593999997E+02  0.45594000000E+02  0.51100000000E-03 0. -1.
    9900012    2    1    2    0    0  0.27789788930E+02 -0.19479901432E+02 -0.27053372283E+02  0.47787264056E+02  0.19999968136E+02 0.  0.
        -12    1    1    2    0    0 -0.27789788930E+02  0.19479901432E+02  0.27053372283E+02  0.43400735944E+02  0.00000000000E+00 0.  1.
         11    1    3    3    0    0  0.76231207124E+01 -0.87437082019E+01 -0.25033972842E+01  0.11867240654E+02  0.51100000000E-03 0.  1.
        -11    1    3    3    0    0  0.11342010176E+02 -0.11607196468E+02 -0.10578193595E+02  0.19371793533E+02  0.51100000000E-03 0. -1.
         12    1    3    3    0    0  0.88246580415E+01  0.87100323799E+00 -0.13971781404E+02  0.16548229869E+02  0.00000000000E+00 0. -1.
</event>
<event>
 7    1  0.3910751E-009  0.4778729E+02  0.7816164E-02  0.1312668E+00
        -11   -1    0    0    0    0  0.00000000000E+00  0.00000000000E+00  0.45593999997E+02  0.45594000000E+02  0.51100000000E-03 0. -1.
         11   -1    0    0    0    0 -0.00000000000E+00 -0.00000000000E+00 -0.45593999997E+02  0.45594000000E+02  0.51100000000E-03 0.  1.
    9900012    2    1    2    0    0  0.11206954549E+02  0.45471636087E+01  0.41681522340E+02  0.47787287658E+02  0.20000075749E+02 0.  0.
        -12    1    1    2    0    0 -0.11206954549E+02 -0.45471636087E+01 -0.41681522340E+02  0.43400712342E+02  0.00000000000E+00 0.  1.
         11    1    3    3    0    0  0.96485692439E+01 -0.33946080031E+01  0.14677361822E+02  0.17889751319E+02  0.51100000000E-03 0. -1.
        -11    1    3    3    0    0  0.53741534842E+01  0.50464026142E+01  0.11410669059E+02  0.13584957624E+02  0.51100000000E-03 0.  1.
         12    1    3    3    0    0 -0.38157681792E+01  0.28953689976E+01  0.15593491460E+02  0.16312578716E+02  0.00000000000E+00 0. -1.
</event>
<event>
 7    1  0.3910751E-009  0.4778727E+02  0.7816164E-02  0.1312668E+00
        -11   -1    0    0    0    0  0.00000000000E+00  0.00000000000E+00  0.45593999997E+02  0.45594000000E+02  0.51100000000E-03 0.  1.
         11   -1    0    0    0    0 -0.00000000000E+00 -0.00000000000E+00 -0.45593999997E+02  0.45594000000E+02  0.51100000000E-03 0. -1.
    9900012    2    1    2    0    0  0.35238117380E+01 -0.36637619081E+02 -0.22997637980E+02  0.47787265747E+02  0.19999975845E+02 0.  0.
        -12    1    1    2    0    0 -0.35238117380E+01  0.36637619081E+02  0.22997637980E+02  0.43400734253E+02  0.00000000000E+00 0.  1.
         11    1    3    3    0    0  0.45531842521E+01 -0.14196489741E+02 -0.12231108368E+02  0.19283978324E+02  0.51100000000E-03 0. -1.
        -11    1    3    3    0    0  0.51125332106E+01 -0.12171260869E+02 -0.99084785079E+01  0.16506227115E+02  0.51100000000E-03 0.  1.
        -12    1    3    3    0    0 -0.61419057248E+01 -0.10269868471E+02 -0.85805110344E+00  0.11997060308E+02  0.00000000000E+00 0.  1.
</event>
<event>
 7    1  0.4485091E-009  0.4778727E+02  0.7816164E-02  0.1312668E+00
        -11   -1    0    0    0    0  0.00000000000E+00  0.00000000000E+00  0.45593999997E+02  0.45594000000E+02  0.51100000000E-03 0. -1.
         11   -1    0    0    0    0 -0.00000000000E+00 -0.00000000000E+00 -0.45593999997E+02  0.45594000000E+02  0.51100000000E-03 0.  1.
    9900012    2    1    2    0    0 -0.10025916287E+02  0.32934516326E+02  0.26427671907E+02  0.47787271833E+02  0.20000003594E+02 0.  0.
        -12    1    1    2    0    0  0.10025916287E+02 -0.32934516326E+02 -0.26427671907E+02  0.43400728167E+02  0.00000000000E+00 0.  1.
         11    1    3    3    0    0 -0.11548864983E+02  0.22821396252E+02  0.16493166015E+02  0.30433812359E+02  0.51100000000E-03 0.  1.
        -11    1    3    3    0    0 -0.36386823002E+01  0.21502040262E+01  0.53400160497E+01  0.68102245123E+01  0.51100000000E-03 0. -1.
        -12    1    3    3    0    0  0.51616309960E+01  0.79629160481E+01  0.45944898430E+01  0.10543234961E+02  0.00000000000E+00 0.  1.
</event>
<event>
 7    1  0.3910751E-009  0.4778727E+02  0.7816164E-02  0.1312668E+00
        -11   -1    0    0    0    0  0.00000000000E+00  0.00000000000E+00  0.45593999997E+02  0.45594000000E+02  0.51100000000E-03 0.  1.
         11   -1    0    0    0    0 -0.00000000000E+00 -0.00000000000E+00 -0.45593999997E+02  0.45594000000E+02  0.51100000000E-03 0. -1.
    9900012    2    1    2    0    0 -0.49760492620E+01 -0.38362855130E+02 -0.19676229196E+02  0.47787265959E+02  0.19999976812E+02 0.  0.
        -12    1    1    2    0    0  0.49760492620E+01  0.38362855130E+02  0.19676229196E+02  0.43400734041E+02  0.00000000000E+00 0.  1.
         11    1    3    3    0    0  0.31482676284E+01 -0.29070785246E+02 -0.16998401637E+02  0.33822593076E+02  0.51100000000E-03 0. -1.
        -11    1    3    3    0    0 -0.41951399212E+01 -0.87067995896E+01 -0.25252504283E+01  0.99892165878E+01  0.51100000000E-03 0.  1.
        -12    1    3    3    0    0 -0.39291769693E+01 -0.58527029344E+00 -0.15257713119E+00  0.39754562950E+01  0.00000000000E+00 0.  1.
</event>
<event>
 7    1  0.3910751E-009  0.4778729E+02  0.7816164E-02  0.1312668E+00
        -11   -1    0    0    0    0  0.00000000000E+00  0.00000000000E+00  0.45593999997E+02  0.45594000000E+02  0.51100000000E-03 0.  1.
         11   -1    0    0    0    0 -0.00000000000E+00 -0.00000000000E+00 -0.45593999997E+02  0.45594000000E+02  0.51100000000E-03 0. -1.
    9900012    2    1    2    0    0 -0.32398647423E+02 -0.28624542781E+02  0.38189640619E+01  0.47787293891E+02  0.20000104165E+02 0.  0.
        -12    1    1    2    0    0  0.32398647423E+02  0.28624542781E+02 -0.38189640619E+01  0.43400706109E+02  0.00000000000E+00 0.  1.
         11    1    3    3    0    0 -0.60532416583E+01 -0.18383591321E+01 -0.53236211745E+00  0.63485989444E+01  0.51100000000E-03 0. -1.
        -11    1    3    3    0    0 -0.13330128049E+02 -0.29332020206E+01 -0.12101730533E+01  0.13702573006E+02  0.51100000000E-03 0.  1.
         12    1    3    3    0    0 -0.13015277716E+02 -0.23852981629E+02  0.55614992326E+01  0.27736121941E+02  0.00000000000E+00 0. -1.
</event>
<event>
 7    1  0.3910751E-009  0.4778727E+02  0.7816164E-02  0.1312668E+00
        -11   -1    0    0    0    0  0.00000000000E+00  0.00000000000E+00  0.45593999997E+02  0.45594000000E+02  0.51100000000E-03 0.  1.
         11   -1    0    0    0    0 -0.00000000000E+00 -0.00000000000E+00 -0.45593999997E+02  0.45594000000E+02  0.51100000000E-03 0. -1.
    9900012    2    1    2    0    0 -0.13533544836E+01  0.35122229574E+02 -0.25460185192E+02  0.47787267188E+02  0.19999982416E+02 0.  0.
        -12    1    1    2    0    0  0.13533544836E+01 -0.35122229574E+02  0.25460185192E+02  0.43400732812E+02  0.00000000000E+00 0.  1.
         11    1    3    3    0    0  0.74907588939E+00  0.75827611993E+01  0.14230292297E+01  0.77514124225E+01  0.51100000000E-03 0.  1.
        -11    1    3    3    0    0  0.22076023812E+01  0.19141759100E+02 -0.12985881423E+02  0.23236040245E+02  0.51100000000E-03 0. -1.
        -12    1    3    3    0    0 -0.43100327542E+01  0.83977092750E+01 -0.13897333000E+02  0.16799814520E+02  0.00000000000E+00 0.  1.
</event>
<event>
 7    1  0.3910751E-009  0.4778727E+02  0.7816164E-02  0.1312668E+00
        -11   -1    0    0    0    0  0.00000000000E+00  0.00000000000E+00  0.45593999997E+02  0.45594000000E+02  0.51100000000E-03 0.  1.
         11   -1    0    0    0    0 -0.00000000000E+00 -0.00000000000E+00 -0.45593999997E+02  0.45594000000E+02  0.51100000000E-03 0. -1.
    9900012    2    1    2    0    0 -0.21321105773E+02 -0.37310364101E+02 -0.60803677124E+01  0.47787266225E+02  0.19999978025E+02 0.  0.
        -12    1    1    2    0    0  0.21321105773E+02  0.37310364101E+02  0.60803677124E+01  0.43400733775E+02  0.00000000000E+00 0.  1.
         11    1    3    3    0    0 -0.17297613981E+01 -0.15746886668E+02 -0.51339767628E+01  0.16652754484E+02  0.51100000000E-03 0. -1.
        -11    1    3    3    0    0  0.13662502290E+01 -0.67340457659E+00  0.86895346939E-01  0.15256685336E+01  0.51100000000E-03 0.  1.
        -12    1    3    3    0    0 -0.20957594604E+02 -0.20890072856E+02 -0.10332862966E+01  0.29608843207E+02  0.00000000000E+00 0.  1.
</event>
<event>
 7    1  0.3910751E-009  0.4778729E+02  0.7816164E-02  0.1312668E+00
        -11   -1    0    0    0    0  0.00000000000E+00  0.00000000000E+00  0.45593999997E+02  0.45594000000E+02  0.51100000000E-03 0. -1.
         11   -1    0    0    0    0 -0.00000000000E+00 -0.00000000000E+00 -0.45593999997E+02  0.45594000000E+02  0.51100000000E-03 0.  1.
    9900012    2    1    2    0    0 -0.38795438521E+02 -0.11272782045E+02  0.15857482200E+02  0.47787292554E+02  0.20000098070E+02 0.  0.
        -12    1    1    2    0    0  0.38795438521E+02  0.11272782045E+02 -0.15857482200E+02  0.43400707446E+02  0.00000000000E+00 0.  1.
         11    1    3    3    0    0 -0.28422583391E+02 -0.41050749746E+01  0.14125781639E+02  0.32003634080E+02  0.51100000000E-03 0. -1.
        -11    1    3    3    0    0 -0.59108733921E+01 -0.48874928089E+01  0.55638903871E+01  0.94753831963E+01  0.51100000000E-03 0.  1.
        -12    1    3    3    0    0 -0.44619817381E+01 -0.22802142616E+01 -0.38321898262E+01  0.63082752773E+01  0.00000000000E+00 0.  1.
</event>
<event>
 7    1  0.3910751E-009  0.4778727E+02  0.7816164E-02  0.1312668E+00
        -11   -1    0    0    0    0  0.00000000000E+00  0.00000000000E+00  0.45593999997E+02  0.45594000000E+02  0.51100000000E-03 0.  1.
         11   -1    0    0    0    0 -0.00000000000E+00 -0.00000000000E+00 -0.45593999997E+02  0.45594000000E+02  0.51100000000E-03 0. -1.
    9900012    2    1    2    0    0  0.16141270483E+02  0.39243462318E+02 -0.91122450468E+01  0.47787274692E+02  0.20000016630E+02 0.  0.
        -12    1    1    2    0    0 -0.16141270483E+02 -0.39243462318E+02  0.91122450468E+01  0.43400725308E+02  0.00000000000E+00 0.  1.
         11    1    3    3    0    0 -0.12318982306E+01  0.10708202471E+02  0.12757072216E+01  0.10854059268E+02  0.51100000000E-03 0.  1.
        -11    1    3    3    0    0  0.24951589137E+01  0.78286497226E+01 -0.77581071412E+01  0.11300522163E+02  0.51100000000E-03 0. -1.
        -12    1    3    3    0    0  0.14878009799E+02  0.20706610124E+02 -0.26298451273E+01  0.25632693261E+02  0.00000000000E+00 0.  1.
</event>
<event>
 7    1  0.3910751E-009  0.4778726E+02  0.7816164E-02  0.1312668E+00
        -11   -1    0    0    0    0  0.00000000000E+00  0.00000000000E+00  0.45593999997E+02  0.45594000000E+02  0.51100000000E-03 0.  1.
         11   -1    0    0    0    0 -0.00000000000E+00 -0.00000000000E+00 -0.45593999997E+02  0.45594000000E+02  0.51100000000E-03 0. -1.
    9900012    2    1    2    0    0 -0.96408510436E+01 -0.24072843009E+02 -0.34801965200E+02  0.47787256215E+02  0.19999932385E+02 0.  0.
        -12    1    1    2    0    0  0.96408510436E+01  0.24072843009E+02  0.34801965200E+02  0.43400743785E+02  0.00000000000E+00 0.  1.
         11    1    3    3    0    0 -0.11046589154E+02 -0.23479242727E+02 -0.28516585794E+02  0.38555124648E+02  0.51100000000E-03 0. -1.
        -11    1    3    3    0    0  0.20668676184E+01 -0.32877296759E+01 -0.28524218211E+01  0.48184456705E+01  0.51100000000E-03 0.  1.
         12    1    3    3    0    0 -0.66112950788E+00  0.26941293939E+01 -0.34329575842E+01  0.44136858964E+01  0.00000000000E+00 0. -1.
</event>
<event>
 7    1  0.3910751E-009  0.4778727E+02  0.7816164E-02  0.1312668E+00
        -11   -1    0    0    0    0  0.00000000000E+00  0.00000000000E+00  0.45593999997E+02  0.45594000000E+02  0.51100000000E-03 0.  1.
         11   -1    0    0    0    0 -0.00000000000E+00 -0.00000000000E+00 -0.45593999997E+02  0.45594000000E+02  0.51100000000E-03 0. -1.
    9900012    2    1    2    0    0 -0.62294752441E+01  0.38277374326E+02 -0.19484852221E+02  0.47787271744E+02  0.20000003189E+02 0.  0.
        -12    1    1    2    0    0  0.62294752441E+01 -0.38277374326E+02  0.19484852221E+02  0.43400728256E+02  0.00000000000E+00 0.  1.
         11    1    3    3    0    0 -0.38545665616E+01  0.22289239368E+02 -0.19020275612E+02  0.29553997354E+02  0.51100000000E-03 0. -1.
        -11    1    3    3    0    0 -0.18223048214E+01 -0.32470085611E+00 -0.47538694299E+00  0.19110778411E+01  0.51100000000E-03 0.  1.
         12    1    3    3    0    0 -0.55260386104E+00  0.16312835814E+02  0.10810333749E-01  0.16322196549E+02  0.00000000000E+00 0. -1.
</event>
<event>
 7    1  0.3910751E-009  0.4778727E+02  0.7816164E-02  0.1312668E+00
        -11   -1    0    0    0    0  0.00000000000E+00  0.00000000000E+00  0.45593999997E+02  0.45594000000E+02  0.51100000000E-03 0.  1.
         11   -1    0    0    0    0 -0.00000000000E+00 -0.00000000000E+00 -0.45593999997E+02  0.45594000000E+02  0.51100000000E-03 0. -1.
    9900012    2    1    2    0    0  0.31000786636E+02  0.95465222746E+01 -0.28834679467E+02  0.47787267292E+02  0.19999982893E+02 0.  0.
        -12    1    1    2    0    0 -0.31000786636E+02 -0.95465222746E+01  0.28834679467E+02  0.43400732708E+02  0.00000000000E+00 0.  1.
         11    1    3    3    0    0  0.24019179033E+02  0.97901832515E+01 -0.18223045735E+02  0.31699338252E+02  0.51100000000E-03 0. -1.
        -11    1    3    3    0    0  0.83654371075E+01 -0.27090788713E+01 -0.58866923779E+01  0.10581719791E+02  0.51100000000E-03 0.  1.
        -12    1    3    3    0    0 -0.13838295044E+01  0.24654178945E+01 -0.47249413548E+01  0.55062092493E+01  0.00000000000E+00 0.  1.
</event>
<event>
 7    1  0.3910751E-009  0.4778727E+02  0.7816164E-02  0.1312668E+00
        -11   -1    0    0    0    0  0.00000000000E+00  0.00000000000E+00  0.45593999997E+02  0.45594000000E+02  0.51100000000E-03 0.  1.
         11   -1    0    0    0    0 -0.00000000000E+00 -0.00000000000E+00 -0.45593999997E+02  0.45594000000E+02  0.51100000000E-03 0. -1.
    9900012    2    1    2    0    0  0.73087847976E+01  0.33055774516E+02 -0.27157330555E+02  0.47787272276E+02  0.20000005616E+02 0.  0.
        -12    1    1    2    0    0 -0.73087847976E+01 -0.33055774516E+02  0.27157330555E+02  0.43400727724E+02  0.00000000000E+00 0.  1.
         11    1    3    3    0    0 -0.27394043177E+01  0.34883510248E+01 -0.47149366208E+01  0.64732956434E+01  0.51100000000E-03 0. -1.
        -11    1    3    3    0    0  0.88808464452E+00  0.89678053834E+01  0.65818860358E+00  0.90356759697E+01  0.51100000000E-03 0.  1.
        -12    1    3    3    0    0  0.91601044708E+01  0.20599618108E+02 -0.23100582538E+02  0.32278300663E+02  0.00000000000E+00 0.  1.
</event>
<event>
 7    1  0.3910751E-009  0.4778727E+02  0.7816164E-02  0.1312668E+00
        -11   -1    0    0    0    0  0.00000000000E+00  0.00000000000E+00  0.45593999997E+02  0.45594000000E+02  0.51100000000E-03 0. -1.
         11   -1    0    0    0    0 -0.00000000000E+00 -0.00000000000E+00 -0.45593999997E+02  0.45594000000E+02  0.51100000000E-03 0.  1.
    9900012    2    1    2    0    0  0.43747721180E+01 -0.25195298996E+02  0.35066815323E+02  0.47787271211E+02  0.20000000757E+02 0.  0.
        -12    1    1    2    0    0 -0.43747721180E+01  0.25195298996E+02 -0.35066815323E+02  0.43400728789E+02  0.00000000000E+00 0.  1.
         11    1    3    3    0    0  0.40553011322E+01 -0.12453420684E+02  0.14011987951E+02  0.19179910338E+02  0.51100000000E-03 0. -1.
        -11    1    3    3    0    0 -0.48456119187E+01 -0.10856519078E+02  0.76989793285E+01  0.14163976995E+02  0.51100000000E-03 0.  1.
        -12    1    3    3    0    0  0.51650829045E+01 -0.18853592340E+01  0.13355848044E+02  0.14443383877E+02  0.00000000000E+00 0.  1.
</event>
<event>
 7    1  0.3910751E-009  0.4778727E+02  0.7816164E-02  0.1312668E+00
        -11   -1    0    0    0    0  0.00000000000E+00  0.00000000000E+00  0.45593999997E+02  0.45594000000E+02  0.51100000000E-03 0. -1.
         11   -1    0    0    0    0 -0.00000000000E+00 -0.00000000000E+00 -0.45593999997E+02  0.45594000000E+02  0.51100000000E-03 0.  1.
    9900012    2    1    2    0    0  0.31479713802E+02  0.20363841881E+02  0.21862405078E+02  0.47787271977E+02  0.20000004250E+02 0.  0.
        -12    1    1    2    0    0 -0.31479713802E+02 -0.20363841881E+02 -0.21862405078E+02  0.43400728023E+02  0.00000000000E+00 0.  1.
         11    1    3    3    0    0  0.18357568840E+02  0.79886467854E+01  0.89847931049E+01  0.21944140871E+02  0.51100000000E-03 0. -1.
        -11    1    3    3    0    0  0.15240427518E+02  0.12901451896E+02  0.12674977875E+02  0.23651070935E+02  0.51100000000E-03 0.  1.
        -12    1    3    3    0    0 -0.21182825572E+01 -0.52625680058E+00  0.20263409817E+00  0.21920601702E+01  0.00000000000E+00 0.  1.
</event>
<event>
 7    1  0.3910751E-009  0.4778727E+02  0.7816164E-02  0.1312668E+00
        -11   -1    0    0    0    0  0.00000000000E+00  0.00000000000E+00  0.45593999997E+02  0.45594000000E+02  0.51100000000E-03 0.  1.
         11   -1    0    0    0    0 -0.00000000000E+00 -0.00000000000E+00 -0.45593999997E+02  0.45594000000E+02  0.51100000000E-03 0. -1.
    9900012    2    1    2    0    0 -0.39739645686E+02 -0.56302074213E+01 -0.16513163591E+02  0.47787271358E+02  0.20000001432E+02 0.  0.
        -12    1    1    2    0    0  0.39739645686E+02  0.56302074213E+01  0.16513163591E+02  0.43400728642E+02  0.00000000000E+00 0.  1.
         11    1    3    3    0    0 -0.36161685021E+01  0.18692816268E+01 -0.38449738676E+01  0.55995279033E+01  0.51100000000E-03 0. -1.
        -11    1    3    3    0    0 -0.27598401030E+02  0.12817781216E+01 -0.60832538373E+01  0.28289939414E+02  0.51100000000E-03 0.  1.
         12    1    3    3    0    0 -0.85250761538E+01 -0.87812671697E+01 -0.65849358858E+01  0.13897804041E+02  0.00000000000E+00 0. -1.
</event>
<event>
 7    1  0.3910751E-009  0.4778727E+02  0.7816164E-02  0.1312668E+00
        -11   -1    0    0    0    0  0.00000000000E+00  0.00000000000E+00  0.45593999997E+02  0.45594000000E+02  0.51100000000E-03 0. -1.
         11   -1    0    0    0    0 -0.00000000000E+00 -0.00000000000E+00 -0.45593999997E+02  0.45594000000E+02  0.51100000000E-03 0.  1.
    9900012    2    1    2    0    0  0.31189824934E+02  0.29148289057E+02 -0.78227418255E+01  0.47787271619E+02  0.20000002621E+02 0.  0.
        -12    1    1    2    0    0 -0.31189824934E+02 -0.29148289057E+02  0.78227418255E+01  0.43400728381E+02  0.00000000000E+00 0.  1.
         11    1    3    3    0    0  0.12213317229E+02  0.79107018562E+01 -0.47974628534E+01  0.15321878856E+02  0.51100000000E-03 0. -1.
        -11    1    3    3    0    0  0.14842550594E+02  0.59503637030E+01  0.13156370851E+01  0.16044906903E+02  0.51100000000E-03 0.  1.
         12    1    3    3    0    0  0.41339571105E+01  0.15287223497E+02 -0.43409160572E+01  0.16420485860E+02  0.00000000000E+00 0. -1.
</event>
<event>
 7    1  0.3910751E-009  0.4778729E+02  0.7816164E-02  0.1312668E+00
        -11   -1    0    0    0    0  0.00000000000E+00  0.00000000000E+00  0.45593999997E+02  0.45594000000E+02  0.51100000000E-03 0. -1.
         11   -1    0    0    0    0 -0.00000000000E+00 -0.00000000000E+00 -0.45593999997E+02  0.45594000000E+02  0.51100000000E-03 0.  1.
    9900012    2    1    2    0    0 -0.24768813206E+02 -0.18806752045E+02 -0.30272660603E+02  0.47787285604E+02  0.20000066384E+02 0.  0.
        -12    1    1    2    0    0  0.24768813206E+02  0.18806752045E+02  0.30272660603E+02  0.43400714396E+02  0.00000000000E+00 0.  1.
         11    1    3    3    0    0  0.91395458310E+00 -0.22470618482E+01 -0.46930953420E+00  0.24707997955E+01  0.51100000000E-03 0. -1.
        -11    1    3    3    0    0 -0.66843968954E+01 -0.95010214459E+01 -0.19205683221E+02  0.22445686414E+02  0.51100000000E-03 0.  1.
         12    1    3    3    0    0 -0.18998370893E+02 -0.70586687505E+01 -0.10597667848E+02  0.22870799394E+02  0.00000000000E+00 0. -1.
</event>
<event>
 7    1  0.3910751E-009  0.4778727E+02  0.7816164E-02  0.1312668E+00
        -11   -1    0    0    0    0  0.00000000000E+00  0.00000000000E+00  0.45593999997E+02  0.45594000000E+02  0.51100000000E-03 0.  1.
         11   -1    0    0    0    0 -0.00000000000E+00 -0.00000000000E+00 -0.45593999997E+02  0.45594000000E+02  0.51100000000E-03 0. -1.
    9900012    2    1    2    0    0 -0.22860198397E+02 -0.31036872422E+02  0.19943591028E+02  0.47787274850E+02  0.20000017349E+02 0.  0.
        -12    1    1    2    0    0  0.22860198397E+02  0.31036872422E+02 -0.19943591028E+02  0.43400725150E+02  0.00000000000E+00 0.  1.
         11    1    3    3    0    0 -0.13521249040E+02 -0.15172933057E+02  0.92226829648E+01  0.22318153026E+02  0.51100000000E-03 0. -1.
        -11    1    3    3    0    0 -0.10035493964E+02 -0.17772065510E+02  0.76689567776E+01  0.21802989472E+02  0.51100000000E-03 0.  1.
        -12    1    3    3    0    0  0.69654460730E+00  0.19081261444E+01  0.30519512858E+01  0.36661323522E+01  0.00000000000E+00 0.  1.
</event>
<event>
 7    1  0.3910751E-009  0.4778727E+02  0.7816164E-02  0.1312668E+00
        -11   -1    0    0    0    0  0.00000000000E+00  0.00000000000E+00  0.45593999997E+02  0.45594000000E+02  0.51100000000E-03 0.  1.
         11   -1    0    0    0    0 -0.00000000000E+00 -0.00000000000E+00 -0.45593999997E+02  0.45594000000E+02  0.51100000000E-03 0. -1.
    9900012    2    1    2    0    0  0.19885225995E+02  0.23994676926E+02 -0.30206897753E+02  0.47787269528E+02  0.19999993088E+02 0.  0.
        -12    1    1    2    0    0 -0.19885225995E+02 -0.23994676926E+02  0.30206897753E+02  0.43400730472E+02  0.00000000000E+00 0.  1.
         11    1    3    3    0    0  0.39953447030E+01  0.12875864702E+02 -0.11416011982E+02  0.17665672955E+02  0.51100000000E-03 0. -1.
        -11    1    3    3    0    0  0.64028102492E+01  0.11977944070E+02 -0.81488868267E+01  0.15838922943E+02  0.51100000000E-03 0.  1.
        -12    1    3    3    0    0  0.94870710425E+01 -0.85913184632E+00 -0.10641998944E+02  0.14282673630E+02  0.00000000000E+00 0.  1.
</event>
<event>
 7    1  0.3910751E-009  0.4778727E+02  0.7816164E-02  0.1312668E+00
        -11   -1    0    0    0    0  0.00000000000E+00  0.00000000000E+00  0.45593999997E+02  0.45594000000E+02  0.51100000000E-03 0.  1.
         11   -1    0    0    0    0 -0.00000000000E+00 -0.00000000000E+00 -0.45593999997E+02  0.45594000000E+02  0.51100000000E-03 0. -1.
    9900012    2    1    2    0    0 -0.30513981573E+02 -0.29236210186E+02 -0.98875848645E+01  0.47787269685E+02  0.19999993800E+02 0.  0.
        -12    1    1    2    0    0  0.30513981573E+02  0.29236210186E+02  0.98875848645E+01  0.43400730315E+02  0.00000000000E+00 0.  1.
         11    1    3    3    0    0 -0.21470735954E+02 -0.27635900104E+02 -0.44258184561E+01  0.35274967700E+02  0.51100000000E-03 0. -1.
        -11    1    3    3    0    0  0.45693107517E+00 -0.16861545175E+01 -0.66270216165E+00  0.18684425281E+01  0.51100000000E-03 0.  1.
        -12    1    3    3    0    0 -0.95001766939E+01  0.85844435710E-01 -0.47990642467E+01  0.10643859456E+02  0.00000000000E+00 0.  1.
</event>
<event>
 7    1  0.3910751E-009  0.4778727E+02  0.7816164E-02  0.1312668E+00
        -11   -1    0    0    0    0  0.00000000000E+00  0.00000000000E+00  0.45593999997E+02  0.45594000000E+02  0.51100000000E-03 0. -1.
         11   -1    0    0    0    0 -0.00000000000E+00 -0.00000000000E+00 -0.45593999997E+02  0.45594000000E+02  0.51100000000E-03 0.  1.
    9900012    2    1    2    0    0  0.97652002213E+01  0.33207867717E+02  0.26182081304E+02  0.47787274257E+02  0.20000014646E+02 0.  0.
        -12    1    1    2    0    0 -0.97652002213E+01 -0.33207867717E+02 -0.26182081304E+02  0.43400725743E+02  0.00000000000E+00 0.  1.
         11    1    3    3    0    0  0.68319983861E+01  0.90811606255E+01  0.31756194762E+01  0.11799501666E+02  0.51100000000E-03 0. -1.
        -11    1    3    3    0    0  0.74777626874E+01  0.18267478739E+02  0.13422084052E+02  0.23869856615E+02  0.51100000000E-03 0.  1.
        -12    1    3    3    0    0 -0.45445608522E+01  0.58592283520E+01  0.95843777763E+01  0.12117915975E+02  0.00000000000E+00 0.  1.
</event>
<event>
 7    1  0.3910751E-009  0.4778727E+02  0.7816164E-02  0.1312668E+00
        -11   -1    0    0    0    0  0.00000000000E+00  0.00000000000E+00  0.45593999997E+02  0.45594000000E+02  0.51100000000E-03 0.  1.
         11   -1    0    0    0    0 -0.00000000000E+00 -0.00000000000E+00 -0.45593999997E+02  0.45594000000E+02  0.51100000000E-03 0. -1.
    9900012    2    1    2    0    0 -0.43096379316E+02 -0.34080107978E+01 -0.38354608596E+01  0.47787271806E+02  0.20000003472E+02 0.  0.
        -12    1    1    2    0    0  0.43096379316E+02  0.34080107978E+01  0.38354608596E+01  0.43400728194E+02  0.00000000000E+00 0.  1.
         11    1    3    3    0    0 -0.24037016406E+02  0.57352722588E+01 -0.24263919048E+01  0.24830603769E+02  0.51100000000E-03 0. -1.
        -11    1    3    3    0    0 -0.13278888401E+02 -0.29342575620E+01  0.21295554066E+01  0.13764946462E+02  0.51100000000E-03 0.  1.
        -12    1    3    3    0    0 -0.57804745088E+01 -0.62090254945E+01 -0.35386243614E+01  0.91917215748E+01  0.00000000000E+00 0.  1.
</event>
<event>
 7    1  0.3910751E-009  0.4778727E+02  0.7816164E-02  0.1312668E+00
        -11   -1    0    0    0    0  0.00000000000E+00  0.00000000000E+00  0.45593999997E+02  0.45594000000E+02  0.51100000000E-03 0.  1.
         11   -1    0    0    0    0 -0.00000000000E+00 -0.00000000000E+00 -0.45593999997E+02  0.45594000000E+02  0.51100000000E-03 0. -1.
    9900012    2    1    2    0    0 -0.25952040988E+02 -0.33740403444E+02  0.84675974325E+01  0.47787268874E+02  0.19999990102E+02 0.  0.
        -12    1    1    2    0    0  0.25952040988E+02  0.33740403444E+02 -0.84675974325E+01  0.43400731126E+02  0.00000000000E+00 0.  1.
         11    1    3    3    0    0 -0.10309859381E+02 -0.13499272371E+02  0.45187393042E+01  0.17576761937E+02  0.51100000000E-03 0. -1.
        -11    1    3    3    0    0 -0.14568713769E+02 -0.21704122183E+02  0.66346867878E+01  0.26969156636E+02  0.51100000000E-03 0.  1.
        -12    1    3    3    0    0 -0.10734678374E+01  0.14629911098E+01 -0.26858286595E+01  0.32413503009E+01  0.00000000000E+00 0.  1.
</event>
<event>
 7    1  0.3910751E-009  0.4778723E+02  0.7816164E-02  0.1312668E+00
        -11   -1    0    0    0    0  0.00000000000E+00  0.00000000000E+00  0.45593999997E+02  0.45594000000E+02  0.51100000000E-03 0.  1.
         11   -1    0    0    0    0 -0.00000000000E+00 -0.00000000000E+00 -0.45593999997E+02  0.45594000000E+02  0.51100000000E-03 0. -1.
    9900012    2    1    2    0    0 -0.96290468343E+01  0.36884498739E+02 -0.20747098543E+02  0.47787229407E+02  0.19999810156E+02 0.  0.
        -12    1    1    2    0    0  0.96290468343E+01 -0.36884498739E+02  0.20747098543E+02  0.43400770593E+02  0.00000000000E+00 0.  1.
         11    1    3    3    0    0  0.71084313918E-01  0.72160405021E+00  0.98684627305E+00  0.12245943054E+01  0.51100000000E-03 0. -1.
        -11    1    3    3    0    0  0.17305507281E+01  0.92359473950E+01 -0.12987439988E+02  0.16030319018E+02  0.51100000000E-03 0.  1.
         12    1    3    3    0    0 -0.11430681876E+02  0.26926947294E+02 -0.87465048278E+01  0.30532316083E+02  0.00000000000E+00 0. -1.
</event>
<event>
 7    1  0.3910751E-009  0.4778727E+02  0.7816164E-02  0.1312668E+00
        -11   -1    0    0    0    0  0.00000000000E+00  0.00000000000E+00  0.45593999997E+02  0.45594000000E+02  0.51100000000E-03 0.  1.
         11   -1    0    0    0    0 -0.00000000000E+00 -0.00000000000E+00 -0.45593999997E+02  0.45594000000E+02  0.51100000000E-03 0. -1.
    9900012    2    1    2    0    0 -0.14239604972E+02 -0.40914509223E+02 -0.26191399329E+01  0.47787270643E+02  0.19999998171E+02 0.  0.
        -12    1    1    2    0    0  0.14239604972E+02  0.40914509223E+02  0.26191399329E+01  0.43400729357E+02  0.00000000000E+00 0.  1.
         11    1    3    3    0    0 -0.54371022693E+01 -0.71541617179E+01 -0.15276681095E+01  0.91147068569E+01  0.51100000000E-03 0. -1.
        -11    1    3    3    0    0 -0.51102970548E+01 -0.28788166462E+02  0.53645938039E+01  0.29726293600E+02  0.51100000000E-03 0.  1.
        -12    1    3    3    0    0 -0.36922056474E+01 -0.49721810431E+01 -0.64560656273E+01  0.89462701867E+01  0.00000000000E+00 0.  1.
</event>
<event>
 7    1  0.3910751E-009  0.4778729E+02  0.7816164E-02  0.1312668E+00
        -11   -1    0    0    0    0  0.00000000000E+00  0.00000000000E+00  0.45593999997E+02  0.45594000000E+02  0.51100000000E-03 0.  1.
         11   -1    0    0    0    0 -0.00000000000E+00 -0.00000000000E+00 -0.45593999997E+02  0.45594000000E+02  0.51100000000E-03 0. -1.
    9900012    2    1    2    0    0  0.40678787914E+02  0.13213094749E+02 -0.73669649594E+01  0.47787287659E+02  0.20000075753E+02 0.  0.
        -12    1    1    2    0    0 -0.40678787914E+02 -0.13213094749E+02  0.73669649594E+01  0.43400712341E+02  0.00000000000E+00 0.  1.
         11    1    3    3    0    0  0.50861611793E+01  0.39590588615E+01 -0.11653117491E+01  0.65498957506E+01  0.51100000000E-03 0. -1.
        -11    1    3    3    0    0  0.14957245110E+02  0.70097573928E+01  0.54990429202E+01  0.17409633922E+02  0.51100000000E-03 0.  1.
        -12    1    3    3    0    0  0.20635381624E+02  0.22442784951E+01 -0.11700696130E+02  0.23827757987E+02  0.00000000000E+00 0.  1.
</event>
<event>
 7    1  0.3910751E-009  0.4778728E+02  0.7816164E-02  0.1312668E+00
        -11   -1    0    0    0    0  0.00000000000E+00  0.00000000000E+00  0.45593999997E+02  0.45594000000E+02  0.51100000000E-03 0.  1.
         11   -1    0    0    0    0 -0.00000000000E+00 -0.00000000000E+00 -0.45593999997E+02  0.45594000000E+02  0.51100000000E-03 0. -1.
    9900012    2    1    2    0    0  0.17830580114E+02 -0.23317459519E+02 -0.31968569304E+02  0.47787275018E+02  0.20000018118E+02 0.  0.
        -12    1    1    2    0    0 -0.17830580114E+02  0.23317459519E+02  0.31968569304E+02  0.43400724982E+02  0.00000000000E+00 0.  1.
         11    1    3    3    0    0  0.11345521135E+02 -0.14098069709E+02 -0.91791917189E+01  0.20291229145E+02  0.51100000000E-03 0. -1.
        -11    1    3    3    0    0  0.68860163345E+01 -0.11701512296E+01 -0.77476293673E+01  0.10431310365E+02  0.51100000000E-03 0.  1.
        -12    1    3    3    0    0 -0.40095735547E+00 -0.80492385804E+01 -0.15041748218E+02  0.17064735508E+02  0.00000000000E+00 0.  1.
</event>
<event>
 7    1  0.3910751E-009  0.4778727E+02  0.7816164E-02  0.1312668E+00
        -11   -1    0    0    0    0  0.00000000000E+00  0.00000000000E+00  0.45593999997E+02  0.45594000000E+02  0.51100000000E-03 0.  1.
         11   -1    0    0    0    0 -0.00000000000E+00 -0.00000000000E+00 -0.45593999997E+02  0.45594000000E+02  0.51100000000E-03 0. -1.
    9900012    2    1    2    0    0  0.33449300929E+02 -0.26569086796E+02 -0.76714436557E+01  0.47787272430E+02  0.20000006318E+02 0.  0.
        -12    1    1    2    0    0 -0.33449300929E+02  0.26569086796E+02  0.76714436557E+01  0.43400727570E+02  0.00000000000E+00 0.  1.
         11    1    3    3    0    0  0.37221777312E+01 -0.72411580096E+01  0.23286458553E+01  0.84682683096E+01  0.51100000000E-03 0. -1.
        -11    1    3    3    0    0  0.13496091524E+02 -0.33440533322E+01  0.11592583129E+01  0.13952457103E+02  0.51100000000E-03 0.  1.
         12    1    3    3    0    0  0.16231031674E+02 -0.15983875455E+02 -0.11159347824E+02  0.25366547018E+02  0.00000000000E+00 0. -1.
</event>
<event>
 7    1  0.3910751E-009  0.4778728E+02  0.7816164E-02  0.1312668E+00
        -11   -1    0    0    0    0  0.00000000000E+00  0.00000000000E+00  0.45593999997E+02  0.45594000000E+02  0.51100000000E-03 0.  1.
         11   -1    0    0    0    0 -0.00000000000E+00 -0.00000000000E+00 -0.45593999997E+02  0.45594000000E+02  0.51100000000E-03 0. -1.
    9900012    2    1    2    0    0 -0.11518434100E+02  0.40144113077E+02 -0.11806721051E+02  0.47787276494E+02  0.20000024846E+02 0.  0.
        -12    1    1    2    0    0  0.11518434100E+02 -0.40144113077E+02  0.11806721051E+02  0.43400723506E+02  0.00000000000E+00 0.  1.
         11    1    3    3    0    0 -0.12801238695E+01  0.32007004315E+02 -0.12856380096E+02  0.34516279518E+02  0.51100000000E-03 0. -1.
        -11    1    3    3    0    0 -0.31132278126E+01  0.35698111198E+01 -0.47691724411E-01  0.47368780442E+01  0.51100000000E-03 0.  1.
         12    1    3    3    0    0 -0.71250824182E+01  0.45672976426E+01  0.10973507699E+01  0.85341189314E+01  0.00000000000E+00 0. -1.
</event>
<event>
 7    1  0.3910751E-009  0.4778727E+02  0.7816164E-02  0.1312668E+00
        -11   -1    0    0    0    0  0.00000000000E+00  0.00000000000E+00  0.45593999997E+02  0.45594000000E+02  0.51100000000E-03 0.  1.
         11   -1    0    0    0    0 -0.00000000000E+00 -0.00000000000E+00 -0.45593999997E+02  0.45594000000E+02  0.51100000000E-03 0. -1.
    9900012    2    1    2    0    0 -0.24798333848E+02  0.35064977071E+02 -0.62540859880E+01  0.47787267631E+02  0.19999984436E+02 0.  0.
        -12    1    1    2    0    0  0.24798333848E+02 -0.35064977071E+02  0.62540859880E+01  0.43400732369E+02  0.00000000000E+00 0.  1.
         11    1    3    3    0    0 -0.99506894291E+00  0.97698964545E+01  0.28952751266E+01  0.10238342505E+02  0.51100000000E-03 0.  1.
        -11    1    3    3    0    0 -0.15345865505E+02  0.15231959337E+02 -0.15732606828E+00  0.21622509685E+02  0.51100000000E-03 0. -1.
        -12    1    3    3    0    0 -0.84573993994E+01  0.10063121280E+02 -0.89920350464E+01  0.15926415440E+02  0.00000000000E+00 0.  1.
</event>
<event>
 7    1  0.3910751E-009  0.4778726E+02  0.7816164E-02  0.1312668E+00
        -11   -1    0    0    0    0  0.00000000000E+00  0.00000000000E+00  0.45593999997E+02  0.45594000000E+02  0.51100000000E-03 0.  1.
         11   -1    0    0    0    0 -0.00000000000E+00 -0.00000000000E+00 -0.45593999997E+02  0.45594000000E+02  0.51100000000E-03 0. -1.
    9900012    2    1    2    0    0  0.92521477899E+00 -0.20302611186E+02 -0.38348043515E+02  0.47787257094E+02  0.19999936395E+02 0.  0.
        -12    1    1    2    0    0 -0.92521477899E+00  0.20302611186E+02  0.38348043515E+02  0.43400742906E+02  0.00000000000E+00 0.  1.
         11    1    3    3    0    0 -0.58089279132E+01 -0.50462619741E+01 -0.65614241635E+01  0.10112402817E+02  0.51100000000E-03 0. -1.
        -11    1    3    3    0    0 -0.16764507227E+01 -0.30053580204E+01 -0.11566899001E+01  0.36305090060E+01  0.51100000000E-03 0.  1.
         12    1    3    3    0    0  0.84105934149E+01 -0.12250991192E+02 -0.30629929451E+02  0.34044345271E+02  0.00000000000E+00 0. -1.
</event>
<event>
 7    1  0.3910751E-009  0.4778727E+02  0.7816164E-02  0.1312668E+00
        -11   -1    0    0    0    0  0.00000000000E+00  0.00000000000E+00  0.45593999997E+02  0.45594000000E+02  0.51100000000E-03 0.  1.
         11   -1    0    0    0    0 -0.00000000000E+00 -0.00000000000E+00 -0.45593999997E+02  0.45594000000E+02  0.51100000000E-03 0. -1.
    9900012    2    1    2    0    0 -0.27585778370E+02  0.92656425224E+01 -0.32199317614E+02  0.47787270116E+02  0.19999995769E+02 0.  0.
        -12    1    1    2    0    0  0.27585778370E+02 -0.92656425224E+01  0.32199317614E+02  0.43400729884E+02  0.00000000000E+00 0.  1.
         11    1    3    3    0    0 -0.22134497125E+02  0.11299423288E+02 -0.26596700667E+02  0.36400513956E+02  0.51100000000E-03 0. -1.
        -11    1    3    3    0    0 -0.25766099253E+01  0.11724753427E+00 -0.70565669633E+01  0.75131753114E+01  0.51100000000E-03 0.  1.
        -12    1    3    3    0    0 -0.28746713198E+01 -0.21510283000E+01  0.14539500166E+01  0.38735808491E+01  0.00000000000E+00 0.  1.
</event>
<event>
 7    1  0.3910751E-009  0.4778727E+02  0.7816164E-02  0.1312668E+00
        -11   -1    0    0    0    0  0.00000000000E+00  0.00000000000E+00  0.45593999997E+02  0.45594000000E+02  0.51100000000E-03 0.  1.
         11   -1    0    0    0    0 -0.00000000000E+00 -0.00000000000E+00 -0.45593999997E+02  0.45594000000E+02  0.51100000000E-03 0. -1.
    9900012    2    1    2    0    0  0.11866204535E+02 -0.40515812360E+02  0.10064063306E+02  0.47787271533E+02  0.20000002228E+02 0.  0.
        -12    1    1    2    0    0 -0.11866204535E+02  0.40515812360E+02 -0.10064063306E+02  0.43400728467E+02  0.00000000000E+00 0.  1.
         11    1    3    3    0    0 -0.35456237813E+01 -0.10673003425E+02 -0.10999869056E+01  0.11300195643E+02  0.51100000000E-03 0.  1.
        -11    1    3    3    0    0  0.90703047604E+00 -0.10336494780E+02  0.42678817604E+01  0.11219654344E+02  0.51100000000E-03 0. -1.
        -12    1    3    3    0    0  0.14504797840E+02 -0.19506314155E+02  0.68961684512E+01  0.25267421546E+02  0.00000000000E+00 0.  1.
</event>
<event>
 7    1  0.3910751E-009  0.4778727E+02  0.7816164E-02  0.1312668E+00
        -11   -1    0    0    0    0  0.00000000000E+00  0.00000000000E+00  0.45593999997E+02  0.45594000000E+02  0.51100000000E-03 0. -1.
         11   -1    0    0    0    0 -0.00000000000E+00 -0.00000000000E+00 -0.45593999997E+02  0.45594000000E+02  0.51100000000E-03 0.  1.
    9900012    2    1    2    0    0 -0.42837426716E+02  0.29049299214E+01 -0.63355934416E+01  0.47787268557E+02  0.19999988659E+02 0.  0.
        -12    1    1    2    0    0  0.42837426716E+02 -0.29049299214E+01  0.63355934416E+01  0.43400731443E+02  0.00000000000E+00 0.  1.
         11    1    3    3    0    0  0.22282082376E+00  0.12914022522E+01 -0.77685496560E+00  0.15234411033E+01  0.51100000000E-03 0.  1.
        -11    1    3    3    0    0 -0.27596613663E+02  0.38416793860E+01  0.36933780864E+01  0.28106451717E+02  0.51100000000E-03 0. -1.
         12    1    3    3    0    0 -0.15463633877E+02 -0.22281517168E+01 -0.92521165624E+01  0.18157375737E+02  0.00000000000E+00 0. -1.
</event>
<event>
 7    1  0.3910751E-009  0.4778727E+02  0.7816164E-02  0.1312668E+00
        -11   -1    0    0    0    0  0.00000000000E+00  0.00000000000E+00  0.45593999997E+02  0.45594000000E+02  0.51100000000E-03 0. -1.
         11   -1    0    0    0    0 -0.00000000000E+00 -0.00000000000E+00 -0.45593999997E+02  0.45594000000E+02  0.51100000000E-03 0.  1.
    9900012    2    1    2    0    0 -0.31427066818E+02  0.29898744189E+02 -0.14240581205E+01  0.47787269886E+02  0.19999994720E+02 0.  0.
        -12    1    1    2    0    0  0.31427066818E+02 -0.29898744189E+02  0.14240581205E+01  0.43400730114E+02  0.00000000000E+00 0.  1.
         11    1    3    3    0    0 -0.23186757460E+02  0.18872136424E+02 -0.33101938627E+01  0.30078906868E+02  0.51100000000E-03 0. -1.
        -11    1    3    3    0    0 -0.75543542129E+01  0.10997989594E+01  0.36915022359E+00  0.76429115835E+01  0.51100000000E-03 0.  1.
         12    1    3    3    0    0 -0.68595514574E+00  0.99268088059E+01  0.15169855186E+01  0.10065451435E+02  0.00000000000E+00 0. -1.
</event>
<event>
 7    1  0.3910751E-009  0.4778727E+02  0.7816164E-02  0.1312668E+00
        -11   -1    0    0    0    0  0.00000000000E+00  0.00000000000E+00  0.45593999997E+02  0.45594000000E+02  0.51100000000E-03 0.  1.
         11   -1    0    0    0    0 -0.00000000000E+00 -0.00000000000E+00 -0.45593999997E+02  0.45594000000E+02  0.51100000000E-03 0. -1.
    9900012    2    1    2    0    0  0.22651037653E+02 -0.10918049294E+02 -0.35374423327E+02  0.47787272669E+02  0.20000007405E+02 0.  0.
        -12    1    1    2    0    0 -0.22651037653E+02  0.10918049294E+02  0.35374423327E+02  0.43400727331E+02  0.00000000000E+00 0.  1.
         11    1    3    3    0    0  0.89619957387E+01 -0.68032306858E+01 -0.70995953962E+01  0.13304344044E+02  0.51100000000E-03 0. -1.
        -11    1    3    3    0    0  0.15495916496E+02 -0.62622209545E+01 -0.22172029730E+02  0.27765765647E+02  0.51100000000E-03 0.  1.
        -12    1    3    3    0    0 -0.18068745818E+01  0.21474023458E+01 -0.61027982008E+01  0.67171629777E+01  0.00000000000E+00 0.  1.
</event>
<event>
 7    1  0.3910751E-009  0.4778727E+02  0.7816164E-02  0.1312668E+00
        -11   -1    0    0    0    0  0.00000000000E+00  0.00000000000E+00  0.45593999997E+02  0.45594000000E+02  0.51100000000E-03 0.  1.
         11   -1    0    0    0    0 -0.00000000000E+00 -0.00000000000E+00 -0.45593999997E+02  0.45594000000E+02  0.51100000000E-03 0. -1.
    9900012    2    1    2    0    0  0.14547272296E+02 -0.40702298020E+02  0.39144696430E+01  0.47787271113E+02  0.20000000312E+02 0.  0.
        -12    1    1    2    0    0 -0.14547272296E+02  0.40702298020E+02 -0.39144696430E+01  0.43400728887E+02  0.00000000000E+00 0.  1.
         11    1    3    3    0    0 -0.13383951629E+01 -0.31556886120E+01  0.36557269509E+01  0.50113882337E+01  0.51100000000E-03 0. -1.
        -11    1    3    3    0    0  0.22160351216E+01 -0.19373353619E+02  0.34821560276E+01  0.19808156223E+02  0.51100000000E-03 0.  1.
         12    1    3    3    0    0  0.13669632337E+02 -0.18173255789E+02 -0.32234133355E+01  0.22967726656E+02  0.00000000000E+00 0. -1.
</event>
<event>
 7    1  0.3910751E-009  0.4778727E+02  0.7816164E-02  0.1312668E+00
        -11   -1    0    0    0    0  0.00000000000E+00  0.00000000000E+00  0.45593999997E+02  0.45594000000E+02  0.51100000000E-03 0.  1.
         11   -1    0    0    0    0 -0.00000000000E+00 -0.00000000000E+00 -0.45593999997E+02  0.45594000000E+02  0.51100000000E-03 0. -1.
    9900012    2    1    2    0    0 -0.32475953003E+02  0.28113895745E+02 -0.62084310978E+01  0.47787271042E+02  0.19999999988E+02 0.  0.
        -12    1    1    2    0    0  0.32475953003E+02 -0.28113895745E+02  0.62084310978E+01  0.43400728958E+02  0.00000000000E+00 0.  1.
         11    1    3    3    0    0 -0.88710060424E+01  0.82853413593E+00 -0.72048270011E+01  0.11458217549E+02  0.51100000000E-03 0.  1.
        -11    1    3    3    0    0 -0.87601936908E+01  0.98673208076E+01 -0.16213905459E+01  0.13294131073E+02  0.51100000000E-03 0. -1.
        -12    1    3    3    0    0 -0.14844753270E+02  0.17418040802E+02  0.26177864492E+01  0.23034922420E+02  0.00000000000E+00 0.  1.
</event>
<event>
 7    1  0.3910751E-009  0.4778728E+02  0.7816164E-02  0.1312668E+00
        -11   -1    0    0    0    0  0.00000000000E+00  0.00000000000E+00  0.45593999997E+02  0.45594000000E+02  0.51100000000E-03 0.  1.
         11   -1    0    0    0    0 -0.00000000000E+00 -0.00000000000E+00 -0.45593999997E+02  0.45594000000E+02  0.51100000000E-03 0. -1.
    9900012    2    1    2    0    0  0.17731903858E+02 -0.33805422491E+02 -0.20649339839E+02  0.47787282956E+02  0.20000054308E+02 0.  0.
        -12    1    1    2    0    0 -0.17731903858E+02  0.33805422491E+02  0.20649339839E+02  0.43400717044E+02  0.00000000000E+00 0.  1.
         11    1    3    3    0    0  0.60017896614E+01 -0.19022967693E+02 -0.88893888340E+01  0.21838406835E+02  0.51100000000E-03 0.  1.
        -11    1    3    3    0    0  0.65692414493E+01 -0.16135341373E+02 -0.10885068242E+02  0.20542368056E+02  0.51100000000E-03 0. -1.
        -12    1    3    3    0    0  0.51608727473E+01  0.13528865760E+01 -0.87488276248E+00  0.54065080643E+01  0.00000000000E+00 0.  1.
</event>
<event>
 7    1  0.3910751E-009  0.4778730E+02  0.7816164E-02  0.1312668E+00
        -11   -1    0    0    0    0  0.00000000000E+00  0.00000000000E+00  0.45593999997E+02  0.45594000000E+02  0.51100000000E-03 0.  1.
         11   -1    0    0    0    0 -0.00000000000E+00 -0.00000000000E+00 -0.45593999997E+02  0.45594000000E+02  0.51100000000E-03 0. -1.
    9900012    2    1    2    0    0  0.80001087966E+01 -0.11665866572E+02 -0.41030797040E+02  0.47787303123E+02  0.20000146260E+02 0.  0.
        -12    1    1    2    0    0 -0.80001087966E+01  0.11665866572E+02  0.41030797040E+02  0.43400696877E+02  0.00000000000E+00 0.  1.
         11    1    3    3    0    0  0.56944238037E+00 -0.72519388832E+01 -0.14097806045E+02  0.15863890372E+02  0.51100000000E-03 0. -1.
        -11    1    3    3    0    0  0.12818611519E+01 -0.83477463763E+01 -0.80042588316E+01  0.11635987164E+02  0.51100000000E-03 0.  1.
        -12    1    3    3    0    0  0.61488052644E+01  0.39338186876E+01 -0.18928732164E+02  0.20287425588E+02  0.00000000000E+00 0.  1.
</event>
<event>
 7    1  0.3910751E-009  0.4778727E+02  0.7816164E-02  0.1312668E+00
        -11   -1    0    0    0    0  0.00000000000E+00  0.00000000000E+00  0.45593999997E+02  0.45594000000E+02  0.51100000000E-03 0.  1.
         11   -1    0    0    0    0 -0.00000000000E+00 -0.00000000000E+00 -0.45593999997E+02  0.45594000000E+02  0.51100000000E-03 0. -1.
    9900012    2    1    2    0    0 -0.31675484404E+01  0.16921932057E+02 -0.39840155512E+02  0.47787272600E+02  0.20000007093E+02 0.  0.
        -12    1    1    2    0    0  0.31675484404E+01 -0.16921932057E+02  0.39840155512E+02  0.43400727400E+02  0.00000000000E+00 0.  1.
         11    1    3    3    0    0 -0.66973190540E+01  0.13920202503E+02 -0.28757906611E+02  0.32644192640E+02  0.51100000000E-03 0.  1.
        -11    1    3    3    0    0  0.18522949271E+01 -0.18941706262E+01 -0.92992017039E+01  0.96692311715E+01  0.51100000000E-03 0. -1.
        -12    1    3    3    0    0  0.16774756864E+01  0.48959001801E+01 -0.17830471971E+01  0.54738487885E+01  0.00000000000E+00 0.  1.
</event>
<event>
 7    1  0.3910751E-009  0.4778727E+02  0.7816164E-02  0.1312668E+00
        -11   -1    0    0    0    0  0.00000000000E+00  0.00000000000E+00  0.45593999997E+02  0.45594000000E+02  0.51100000000E-03 0. -1.
         11   -1    0    0    0    0 -0.00000000000E+00 -0.00000000000E+00 -0.45593999997E+02  0.45594000000E+02  0.51100000000E-03 0.  1.
    9900012    2    1    2    0    0 -0.37412508656E+02 -0.17663935681E+02  0.13111559621E+02  0.47787269322E+02  0.19999992146E+02 0.  0.
        -12    1    1    2    0    0  0.37412508656E+02  0.17663935681E+02 -0.13111559621E+02  0.43400730678E+02  0.00000000000E+00 0.  1.
         11    1    3    3    0    0 -0.27499072186E+02 -0.70783314334E+01  0.11658332096E+02  0.30695577116E+02  0.51100000000E-03 0. -1.
        -11    1    3    3    0    0 -0.10936636740E+02 -0.63321346847E+01  0.74002330066E+00  0.12659130602E+02  0.51100000000E-03 0.  1.
        -12    1    3    3    0    0  0.10232002692E+01 -0.42534695625E+01  0.71320422423E+00  0.44325616042E+01  0.00000000000E+00 0.  1.
</event>
<event>
 7    1  0.3910751E-009  0.4778727E+02  0.7816164E-02  0.1312668E+00
        -11   -1    0    0    0    0  0.00000000000E+00  0.00000000000E+00  0.45593999997E+02  0.45594000000E+02  0.51100000000E-03 0. -1.
         11   -1    0    0    0    0 -0.00000000000E+00 -0.00000000000E+00 -0.45593999997E+02  0.45594000000E+02  0.51100000000E-03 0.  1.
    9900012    2    1    2    0    0 -0.37457097842E+02 -0.17595335551E+02  0.13076443511E+02  0.47787269744E+02  0.19999994069E+02 0.  0.
        -12    1    1    2    0    0  0.37457097842E+02  0.17595335551E+02 -0.13076443511E+02  0.43400730256E+02  0.00000000000E+00 0.  1.
         11    1    3    3    0    0 -0.15560109607E+02 -0.11138320034E+02  0.37765015385E+01  0.19504900623E+02  0.51100000000E-03 0. -1.
        -11    1    3    3    0    0 -0.86327797431E+01 -0.97699788315E+01  0.44629172873E+01  0.13780239600E+02  0.51100000000E-03 0.  1.
        -12    1    3    3    0    0 -0.13264208492E+02  0.33129633148E+01  0.48370246851E+01  0.14502129521E+02  0.00000000000E+00 0.  1.
</event>
<event>
 7    1  0.3910751E-009  0.4778727E+02  0.7816164E-02  0.1312668E+00
        -11   -1    0    0    0    0  0.00000000000E+00  0.00000000000E+00  0.45593999997E+02  0.45594000000E+02  0.51100000000E-03 0.  1.
         11   -1    0    0    0    0 -0.00000000000E+00 -0.00000000000E+00 -0.45593999997E+02  0.45594000000E+02  0.51100000000E-03 0. -1.
    9900012    2    1    2    0    0  0.37330987360E+02 -0.17724895933E+02 -0.13260796830E+02  0.47787270909E+02  0.19999999381E+02 0.  0.
        -12    1    1    2    0    0 -0.37330987360E+02  0.17724895933E+02  0.13260796830E+02  0.43400729091E+02  0.00000000000E+00 0.  1.
         11    1    3    3    0    0  0.17389446969E+02 -0.15317658057E+02 -0.46478098539E+01  0.23635262870E+02  0.51100000000E-03 0. -1.
        -11    1    3    3    0    0  0.13501975457E+02 -0.63838366788E+01 -0.48732947852E+01  0.15710051378E+02  0.51100000000E-03 0.  1.
        -12    1    3    3    0    0  0.64395649339E+01  0.39765988024E+01 -0.37396921912E+01  0.84419566605E+01  0.00000000000E+00 0.  1.
</event>
<event>
 7    1  0.3910751E-009  0.4778725E+02  0.7816164E-02  0.1312668E+00
        -11   -1    0    0    0    0  0.00000000000E+00  0.00000000000E+00  0.45593999997E+02  0.45594000000E+02  0.51100000000E-03 0.  1.
         11   -1    0    0    0    0 -0.00000000000E+00 -0.00000000000E+00 -0.45593999997E+02  0.45594000000E+02  0.51100000000E-03 0. -1.
    9900012    2    1    2    0    0  0.40264273567E+01 -0.12580931296E+02 -0.41341666994E+02  0.47787246788E+02  0.19999889403E+02 0.  0.
        -12    1    1    2    0    0 -0.40264273567E+01  0.12580931296E+02  0.41341666994E+02  0.43400753212E+02  0.00000000000E+00 0.  1.
         11    1    3    3    0    0  0.17097640160E+01  0.13485581653E+00 -0.85427101580E+01  0.87131725672E+01  0.51100000000E-03 0. -1.
        -11    1    3    3    0    0 -0.26269463740E+01 -0.35077206442E+01  0.27221368942E+00  0.43907917195E+01  0.51100000000E-03 0.  1.
         12    1    3    3    0    0  0.49436097147E+01 -0.92080664686E+01 -0.33071170526E+02  0.34683282501E+02  0.00000000000E+00 0. -1.
</event>
<event>
 7    1  0.3910751E-009  0.4778727E+02  0.7816164E-02  0.1312668E+00
        -11   -1    0    0    0    0  0.00000000000E+00  0.00000000000E+00  0.45593999997E+02  0.45594000000E+02  0.51100000000E-03 0.  1.
         11   -1    0    0    0    0 -0.00000000000E+00 -0.00000000000E+00 -0.45593999997E+02  0.45594000000E+02  0.51100000000E-03 0. -1.
    9900012    2    1    2    0    0  0.16603174928E+02 -0.10935495517E+02 -0.38579434233E+02  0.47787271601E+02  0.20000002535E+02 0.  0.
        -12    1    1    2    0    0 -0.16603174928E+02  0.10935495517E+02  0.38579434233E+02  0.43400728399E+02  0.00000000000E+00 0.  1.
         11    1    3    3    0    0  0.12382524175E+02 -0.12938659171E+02 -0.22805563200E+02  0.28997060527E+02  0.51100000000E-03 0. -1.
        -11    1    3    3    0    0  0.67799782951E+01  0.11308497611E+01 -0.79352259931E+01  0.10498320756E+02  0.51100000000E-03 0.  1.
        -12    1    3    3    0    0 -0.25593275414E+01  0.87231389273E+00 -0.78386450395E+01  0.82918903181E+01  0.00000000000E+00 0.  1.
</event>
<event>
 7    1  0.3910751E-009  0.4778727E+02  0.7816164E-02  0.1312668E+00
        -11   -1    0    0    0    0  0.00000000000E+00  0.00000000000E+00  0.45593999997E+02  0.45594000000E+02  0.51100000000E-03 0.  1.
         11   -1    0    0    0    0 -0.00000000000E+00 -0.00000000000E+00 -0.45593999997E+02  0.45594000000E+02  0.51100000000E-03 0. -1.
    9900012    2    1    2    0    0 -0.31631370191E+02  0.66301539752E+01 -0.28967582110E+02  0.47787270338E+02  0.19999996779E+02 0.  0.
        -12    1    1    2    0    0  0.31631370191E+02 -0.66301539752E+01  0.28967582110E+02  0.43400729662E+02  0.00000000000E+00 0.  1.
         11    1    3    3    0    0  0.17931443110E+01  0.19278486787E+01 -0.44693315471E+01  0.51871853435E+01  0.51100000000E-03 0.  1.
        -11    1    3    3    0    0 -0.72645554669E+01 -0.12215002611E+01 -0.21120446183E+01  0.76633257631E+01  0.51100000000E-03 0. -1.
         12    1    3    3    0    0 -0.26159959035E+02  0.59238055576E+01 -0.22386205944E+02  0.34936759231E+02  0.00000000000E+00 0. -1.
</event>
<event>
 7    1  0.3910751E-009  0.4778727E+02  0.7816164E-02  0.1312668E+00
        -11   -1    0    0    0    0  0.00000000000E+00  0.00000000000E+00  0.45593999997E+02  0.45594000000E+02  0.51100000000E-03 0. -1.
         11   -1    0    0    0    0 -0.00000000000E+00 -0.00000000000E+00 -0.45593999997E+02  0.45594000000E+02  0.51100000000E-03 0.  1.
    9900012    2    1    2    0    0 -0.18778135795E+01 -0.43184769350E+02 -0.38951955384E+01  0.47787273786E+02  0.20000012498E+02 0.  0.
        -12    1    1    2    0    0  0.18778135795E+01  0.43184769350E+02  0.38951955384E+01  0.43400726214E+02  0.00000000000E+00 0.  1.
         11    1    3    3    0    0  0.68483108172E+00 -0.14654129665E+02 -0.23956626267E+01  0.14864444475E+02  0.51100000000E-03 0. -1.
        -11    1    3    3    0    0  0.39900390420E+01 -0.18509753727E+02 -0.63976781714E+01  0.19986537490E+02  0.51100000000E-03 0.  1.
        -12    1    3    3    0    0 -0.65526837032E+01 -0.10020885958E+02  0.48981452597E+01  0.12936291821E+02  0.00000000000E+00 0.  1.
</event>
<event>
 7    1  0.3910751E-009  0.4778727E+02  0.7816164E-02  0.1312668E+00
        -11   -1    0    0    0    0  0.00000000000E+00  0.00000000000E+00  0.45593999997E+02  0.45594000000E+02  0.51100000000E-03 0.  1.
         11   -1    0    0    0    0 -0.00000000000E+00 -0.00000000000E+00 -0.45593999997E+02  0.45594000000E+02  0.51100000000E-03 0. -1.
    9900012    2    1    2    0    0 -0.36475353818E+02 -0.15722060385E+02 -0.17492535355E+02  0.47787269453E+02  0.19999992745E+02 0.  0.
        -12    1    1    2    0    0  0.36475353818E+02  0.15722060385E+02  0.17492535355E+02  0.43400730547E+02  0.00000000000E+00 0.  1.
         11    1    3    3    0    0 -0.25581852135E+02 -0.13315125437E+02 -0.13639137377E+02  0.31902191033E+02  0.51100000000E-03 0.  1.
        -11    1    3    3    0    0 -0.11441074605E+02 -0.51872327622E+01 -0.34120676928E+01  0.13017210840E+02  0.51100000000E-03 0. -1.
        -12    1    3    3    0    0  0.54757292209E+00  0.27802978141E+01 -0.44133028521E+00  0.28678675808E+01  0.00000000000E+00 0.  1.
</event>
<event>
 7    1  0.3910751E-009  0.4778727E+02  0.7816164E-02  0.1312668E+00
        -11   -1    0    0    0    0  0.00000000000E+00  0.00000000000E+00  0.45593999997E+02  0.45594000000E+02  0.51100000000E-03 0.  1.
         11   -1    0    0    0    0 -0.00000000000E+00 -0.00000000000E+00 -0.45593999997E+02  0.45594000000E+02  0.51100000000E-03 0. -1.
    9900012    2    1    2    0    0 -0.75598121973E+01 -0.42713363044E+02  0.14286912093E+01  0.47787270725E+02  0.19999998544E+02 0.  0.
        -12    1    1    2    0    0  0.75598121973E+01  0.42713363044E+02 -0.14286912093E+01  0.43400729275E+02  0.00000000000E+00 0.  1.
         11    1    3    3    0    0 -0.73442474480E+01 -0.32028301672E+02 -0.68948348010E+01  0.33575122125E+02  0.51100000000E-03 0. -1.
        -11    1    3    3    0    0 -0.17279274755E+01 -0.34345803255E+01  0.43553765504E+01  0.58095938352E+01  0.51100000000E-03 0.  1.
        -12    1    3    3    0    0  0.15123627261E+01 -0.72504810474E+01  0.39681494599E+01  0.84025547645E+01  0.00000000000E+00 0.  1.
</event>
<event>
 7    1  0.3910751E-009  0.4778727E+02  0.7816164E-02  0.1312668E+00
        -11   -1    0    0    0    0  0.00000000000E+00  0.00000000000E+00  0.45593999997E+02  0.45594000000E+02  0.51100000000E-03 0. -1.
         11   -1    0    0    0    0 -0.00000000000E+00 -0.00000000000E+00 -0.45593999997E+02  0.45594000000E+02  0.51100000000E-03 0.  1.
    9900012    2    1    2    0    0  0.18746750896E+02  0.36188004372E+02  0.14920151967E+02  0.47787271155E+02  0.20000000503E+02 0.  0.
        -12    1    1    2    0    0 -0.18746750896E+02 -0.36188004372E+02 -0.14920151967E+02  0.43400728845E+02  0.00000000000E+00 0.  1.
         11    1    3    3    0    0  0.11788070256E+01  0.31890261821E+01 -0.12281351809E+01  0.36149398719E+01  0.51100000000E-03 0. -1.
        -11    1    3    3    0    0  0.10621684528E+02  0.11650078586E+02 -0.11841305752E+01  0.15809702045E+02  0.51100000000E-03 0.  1.
         12    1    3    3    0    0  0.69462593420E+01  0.21348899603E+02  0.17332417724E+02  0.28362629238E+02  0.00000000000E+00 0. -1.
</event>
<event>
 7    1  0.4665932E-009  0.4778727E+02  0.7816164E-02  0.1312668E+00
        -11   -1    0    0    0    0  0.00000000000E+00  0.00000000000E+00  0.45593999997E+02  0.45594000000E+02  0.51100000000E-03 0. -1.
         11   -1    0    0    0    0 -0.00000000000E+00 -0.00000000000E+00 -0.45593999997E+02  0.45594000000E+02  0.51100000000E-03 0.  1.
    9900012    2    1    2    0    0  0.11145366131E+02  0.32650451098E+02  0.26331582731E+02  0.47787269682E+02  0.19999993786E+02 0.  0.
        -12    1    1    2    0    0 -0.11145366131E+02 -0.32650451098E+02 -0.26331582731E+02  0.43400730318E+02  0.00000000000E+00 0.  1.
         11    1    3    3    0    0  0.17218717168E+01  0.18222468659E+02  0.14673665457E+02  0.23459319352E+02  0.51100000000E-03 0. -1.
        -11    1    3    3    0    0 -0.27840250115E+01  0.52977792485E+01  0.21369164941E+01  0.63548149143E+01  0.51100000000E-03 0.  1.
         12    1    3    3    0    0  0.12207519426E+02  0.91302031904E+01  0.95210007792E+01  0.17973135416E+02  0.00000000000E+00 0. -1.
</event>
<event>
 7    1  0.3910751E-009  0.4778730E+02  0.7816164E-02  0.1312668E+00
        -11   -1    0    0    0    0  0.00000000000E+00  0.00000000000E+00  0.45593999997E+02  0.45594000000E+02  0.51100000000E-03 0.  1.
         11   -1    0    0    0    0 -0.00000000000E+00 -0.00000000000E+00 -0.45593999997E+02  0.45594000000E+02  0.51100000000E-03 0. -1.
    9900012    2    1    2    0    0  0.34759760543E+01  0.43145308790E+02 -0.31655718106E+01  0.47787298104E+02  0.20000123377E+02 0.  0.
        -12    1    1    2    0    0 -0.34759760543E+01 -0.43145308790E+02  0.31655718106E+01  0.43400701896E+02  0.00000000000E+00 0.  1.
         11    1    3    3    0    0 -0.36495816050E+01  0.11284241791E+02 -0.12479508981E+01  0.11925222866E+02  0.51100000000E-03 0. -1.
        -11    1    3    3    0    0  0.19113541243E+01  0.43395504760E+01  0.51219727869E+01  0.69799411468E+01  0.51100000000E-03 0.  1.
         12    1    3    3    0    0  0.52142035350E+01  0.27521516523E+02 -0.70395936994E+01  0.28882134092E+02  0.00000000000E+00 0. -1.
</event>
<event>
 7    1  0.3910751E-009  0.4778728E+02  0.7816164E-02  0.1312668E+00
        -11   -1    0    0    0    0  0.00000000000E+00  0.00000000000E+00  0.45593999997E+02  0.45594000000E+02  0.51100000000E-03 0. -1.
         11   -1    0    0    0    0 -0.00000000000E+00 -0.00000000000E+00 -0.45593999997E+02  0.45594000000E+02  0.51100000000E-03 0.  1.
    9900012    2    1    2    0    0  0.24575532224E+02 -0.13767573757E+02  0.33016964127E+02  0.47787276602E+02  0.20000025340E+02 0.  0.
        -12    1    1    2    0    0 -0.24575532224E+02  0.13767573757E+02 -0.33016964127E+02  0.43400723398E+02  0.00000000000E+00 0.  1.
         11    1    3    3    0    0  0.73437930662E+01 -0.75330702597E+01  0.99763974309E+01  0.14498515445E+02  0.51100000000E-03 0. -1.
        -11    1    3    3    0    0 -0.29813077483E+01 -0.92895818985E+00  0.32516917240E+01  0.45082877612E+01  0.51100000000E-03 0.  1.
        -12    1    3    3    0    0  0.20213046907E+02 -0.53055453073E+01  0.19788874972E+02  0.28780473396E+02  0.00000000000E+00 0.  1.
</event>
<event>
 7    1  0.3910751E-009  0.4778726E+02  0.7816164E-02  0.1312668E+00
        -11   -1    0    0    0    0  0.00000000000E+00  0.00000000000E+00  0.45593999997E+02  0.45594000000E+02  0.51100000000E-03 0.  1.
         11   -1    0    0    0    0 -0.00000000000E+00 -0.00000000000E+00 -0.45593999997E+02  0.45594000000E+02  0.51100000000E-03 0. -1.
    9900012    2    1    2    0    0  0.28039173515E+02 -0.11095624437E+02 -0.31214036506E+02  0.47787260282E+02  0.19999950930E+02 0.  0.
        -12    1    1    2    0    0 -0.28039173515E+02  0.11095624437E+02  0.31214036506E+02  0.43400739718E+02  0.00000000000E+00 0.  1.
         11    1    3    3    0    0  0.17199070707E+02  0.25328838596E+01 -0.12987357078E+02  0.21700114700E+02  0.51100000000E-03 0. -1.
        -11    1    3    3    0    0  0.27617085621E+01 -0.17057749758E+00 -0.14936590902E+01  0.31443836604E+01  0.51100000000E-03 0.  1.
        -12    1    3    3    0    0  0.80783942453E+01 -0.13457930799E+02 -0.16733020338E+02  0.22942761922E+02  0.00000000000E+00 0.  1.
</event>
<event>
 7    1  0.3910751E-009  0.4778727E+02  0.7816164E-02  0.1312668E+00
        -11   -1    0    0    0    0  0.00000000000E+00  0.00000000000E+00  0.45593999997E+02  0.45594000000E+02  0.51100000000E-03 0. -1.
         11   -1    0    0    0    0 -0.00000000000E+00 -0.00000000000E+00 -0.45593999997E+02  0.45594000000E+02  0.51100000000E-03 0.  1.
    9900012    2    1    2    0    0 -0.24810796832E+02  0.99526391051E+01  0.34190533597E+02  0.47787271294E+02  0.20000001138E+02 0.  0.
        -12    1    1    2    0    0  0.24810796832E+02 -0.99526391051E+01 -0.34190533597E+02  0.43400728706E+02  0.00000000000E+00 0.  1.
         11    1    3    3    0    0 -0.12730834709E+02  0.10599357965E+02  0.28846050745E+02  0.33264323013E+02  0.51100000000E-03 0. -1.
        -11    1    3    3    0    0 -0.69634241233E+00 -0.17793525149E+01  0.15807978733E+01  0.24799012692E+01  0.51100000000E-03 0.  1.
         12    1    3    3    0    0 -0.11383619711E+02  0.11326336551E+01  0.37636849782E+01  0.12043047012E+02  0.00000000000E+00 0. -1.
</event>
<event>
 7    1  0.3910751E-009  0.4778727E+02  0.7816164E-02  0.1312668E+00
        -11   -1    0    0    0    0  0.00000000000E+00  0.00000000000E+00  0.45593999997E+02  0.45594000000E+02  0.51100000000E-03 0. -1.
         11   -1    0    0    0    0 -0.00000000000E+00 -0.00000000000E+00 -0.45593999997E+02  0.45594000000E+02  0.51100000000E-03 0.  1.
    9900012    2    1    2    0    0  0.42789964939E+02  0.49236433643E+01 -0.53291552676E+01  0.47787271212E+02  0.20000000763E+02 0.  0.
        -12    1    1    2    0    0 -0.42789964939E+02 -0.49236433643E+01  0.53291552676E+01  0.43400728788E+02  0.00000000000E+00 0.  1.
         11    1    3    3    0    0  0.12762279909E+02  0.89170099320E+01 -0.27420662333E+01  0.15808471846E+02  0.51100000000E-03 0. -1.
        -11    1    3    3    0    0  0.18171970816E+02  0.66278358793E+00 -0.53309046201E+01  0.18949362780E+02  0.51100000000E-03 0.  1.
        -12    1    3    3    0    0  0.11855714214E+02 -0.46561501556E+01  0.27438155858E+01  0.13029436586E+02  0.00000000000E+00 0.  1.
</event>
<event>
 7    1  0.3910751E-009  0.4778727E+02  0.7816164E-02  0.1312668E+00
        -11   -1    0    0    0    0  0.00000000000E+00  0.00000000000E+00  0.45593999997E+02  0.45594000000E+02  0.51100000000E-03 0.  1.
         11   -1    0    0    0    0 -0.00000000000E+00 -0.00000000000E+00 -0.45593999997E+02  0.45594000000E+02  0.51100000000E-03 0. -1.
    9900012    2    1    2    0    0 -0.39610165354E+02 -0.13796239138E+02 -0.11149965019E+02  0.47787272659E+02  0.20000007363E+02 0.  0.
        -12    1    1    2    0    0  0.39610165354E+02  0.13796239138E+02  0.11149965019E+02  0.43400727341E+02  0.00000000000E+00 0.  1.
         11    1    3    3    0    0 -0.13772412312E+02 -0.74345194851E+01 -0.46072222853E+01  0.16314959954E+02  0.51100000000E-03 0. -1.
        -11    1    3    3    0    0 -0.12695601513E+01 -0.24593961355E+01 -0.59803654228E+01  0.65897786898E+01  0.51100000000E-03 0.  1.
         12    1    3    3    0    0 -0.24568192892E+02 -0.39023235174E+01 -0.56237731130E+00  0.24882534015E+02  0.00000000000E+00 0. -1.
</event>
<event>
 7    1  0.3910751E-009  0.4778727E+02  0.7816164E-02  0.1312668E+00
        -11   -1    0    0    0    0  0.00000000000E+00  0.00000000000E+00  0.45593999997E+02  0.45594000000E+02  0.51100000000E-03 0.  1.
         11   -1    0    0    0    0 -0.00000000000E+00 -0.00000000000E+00 -0.45593999997E+02  0.45594000000E+02  0.51100000000E-03 0. -1.
    9900012    2    1    2    0    0 -0.17121291828E+02 -0.13351022616E+02 -0.37579712942E+02  0.47787271163E+02  0.20000000541E+02 0.  0.
        -12    1    1    2    0    0  0.17121291828E+02  0.13351022616E+02  0.37579712942E+02  0.43400728837E+02  0.00000000000E+00 0.  1.
         11    1    3    3    0    0 -0.28367293114E+01 -0.49368062487E+01 -0.86245349397E+01  0.10334490423E+02  0.51100000000E-03 0. -1.
        -11    1    3    3    0    0  0.33943698214E+01  0.40901961469E+00 -0.17818174620E+01  0.38553751125E+01  0.51100000000E-03 0.  1.
         12    1    3    3    0    0 -0.17678932338E+02 -0.88232359816E+01 -0.27173360541E+02  0.33597405627E+02  0.00000000000E+00 0. -1.
</event>
<event>
 7    1  0.3910751E-009  0.4778727E+02  0.7816164E-02  0.1312668E+00
        -11   -1    0    0    0    0  0.00000000000E+00  0.00000000000E+00  0.45593999997E+02  0.45594000000E+02  0.51100000000E-03 0. -1.
         11   -1    0    0    0    0 -0.00000000000E+00 -0.00000000000E+00 -0.45593999997E+02  0.45594000000E+02  0.51100000000E-03 0.  1.
    9900012    2    1    2    0    0  0.35544253384E+02 -0.55227343265E+01  0.24284328816E+02  0.47787272251E+02  0.20000005501E+02 0.  0.
        -12    1    1    2    0    0 -0.35544253384E+02  0.55227343265E+01 -0.24284328816E+02  0.43400727749E+02  0.00000000000E+00 0.  1.
         11    1    3    3    0    0  0.77668642559E+01 -0.24549300301E+01  0.42336391688E+01  0.91801177931E+01  0.51100000000E-03 0. -1.
        -11    1    3    3    0    0  0.23305553386E+02  0.18274130340E+01  0.21566639844E+02  0.31805788961E+02  0.51100000000E-03 0.  1.
        -12    1    3    3    0    0  0.44718357429E+01 -0.48952173304E+01 -0.15159501966E+01  0.68013654969E+01  0.00000000000E+00 0.  1.
</event>
<event>
 7    1  0.3910751E-009  0.4778727E+02  0.7816164E-02  0.1312668E+00
        -11   -1    0    0    0    0  0.00000000000E+00  0.00000000000E+00  0.45593999997E+02  0.45594000000E+02  0.51100000000E-03 0.  1.
         11   -1    0    0    0    0 -0.00000000000E+00 -0.00000000000E+00 -0.45593999997E+02  0.45594000000E+02  0.51100000000E-03 0. -1.
    9900012    2    1    2    0    0 -0.36651182821E+02 -0.86101310943E+01 -0.21591196988E+02  0.47787270202E+02  0.19999996160E+02 0.  0.
        -12    1    1    2    0    0  0.36651182821E+02  0.86101310943E+01  0.21591196988E+02  0.43400729798E+02  0.00000000000E+00 0.  1.
         11    1    3    3    0    0 -0.17562126475E+01  0.44492611932E+00 -0.72413177720E+01  0.74645110658E+01  0.51100000000E-03 0. -1.
        -11    1    3    3    0    0 -0.66443604653E+01 -0.25089680842E+01  0.15230429530E+01  0.72637529514E+01  0.51100000000E-03 0.  1.
         12    1    3    3    0    0 -0.28250609708E+02 -0.65460891294E+01 -0.15872922169E+02  0.33059006185E+02  0.00000000000E+00 0. -1.
</event>
<event>
 7    1  0.3910751E-009  0.4778727E+02  0.7816164E-02  0.1312668E+00
        -11   -1    0    0    0    0  0.00000000000E+00  0.00000000000E+00  0.45593999997E+02  0.45594000000E+02  0.51100000000E-03 0.  1.
         11   -1    0    0    0    0 -0.00000000000E+00 -0.00000000000E+00 -0.45593999997E+02  0.45594000000E+02  0.51100000000E-03 0. -1.
    9900012    2    1    2    0    0 -0.29670622426E+02 -0.35526815729E+01 -0.31474688321E+02  0.47787269748E+02  0.19999994090E+02 0.  0.
        -12    1    1    2    0    0  0.29670622426E+02  0.35526815729E+01  0.31474688321E+02  0.43400730252E+02  0.00000000000E+00 0.  1.
         11    1    3    3    0    0 -0.14211934269E+02  0.45877703719E+01 -0.16843623044E+02  0.22510760764E+02  0.51100000000E-03 0. -1.
        -11    1    3    3    0    0 -0.11473884782E+02 -0.47041231731E+00 -0.56014945918E+01  0.12776856486E+02  0.51100000000E-03 0.  1.
        -12    1    3    3    0    0 -0.39848033748E+01 -0.76700396275E+01 -0.90295706852E+01  0.12499652498E+02  0.00000000000E+00 0.  1.
</event>
<event>
 7    1  0.3910751E-009  0.4778727E+02  0.7816164E-02  0.1312668E+00
        -11   -1    0    0    0    0  0.00000000000E+00  0.00000000000E+00  0.45593999997E+02  0.45594000000E+02  0.51100000000E-03 0.  1.
         11   -1    0    0    0    0 -0.00000000000E+00 -0.00000000000E+00 -0.45593999997E+02  0.45594000000E+02  0.51100000000E-03 0. -1.
    9900012    2    1    2    0    0 -0.59913404183E+01  0.93000148319E+01 -0.41967090865E+02  0.47787272454E+02  0.20000006426E+02 0.  0.
        -12    1    1    2    0    0  0.59913404183E+01 -0.93000148319E+01  0.41967090865E+02  0.43400727546E+02  0.00000000000E+00 0.  1.
         11    1    3    3    0    0  0.35666798473E+01  0.30821413976E+01 -0.13405888586E+02  0.14210511946E+02  0.51100000000E-03 0. -1.
        -11    1    3    3    0    0 -0.33101136750E+01  0.30913754517E+01 -0.25584910350E+02  0.25982707569E+02  0.51100000000E-03 0.  1.
        -12    1    3    3    0    0 -0.62479065906E+01  0.31264979827E+01 -0.29762919293E+01  0.75940529396E+01  0.00000000000E+00 0.  1.
</event>
<event>
 7    1  0.3910751E-009  0.4778727E+02  0.7816164E-02  0.1312668E+00
        -11   -1    0    0    0    0  0.00000000000E+00  0.00000000000E+00  0.45593999997E+02  0.45594000000E+02  0.51100000000E-03 0. -1.
         11   -1    0    0    0    0 -0.00000000000E+00 -0.00000000000E+00 -0.45593999997E+02  0.45594000000E+02  0.51100000000E-03 0.  1.
    9900012    2    1    2    0    0  0.22055510485E+02  0.12737484224E+02  0.35141630738E+02  0.47787271227E+02  0.20000000831E+02 0.  0.
        -12    1    1    2    0    0 -0.22055510485E+02 -0.12737484224E+02 -0.35141630738E+02  0.43400728773E+02  0.00000000000E+00 0.  1.
         11    1    3    3    0    0 -0.14249931122E+01  0.38118613621E-01  0.37376990377E+01  0.40003065828E+01  0.51100000000E-03 0. -1.
        -11    1    3    3    0    0  0.72383215153E+01 -0.30179749485E+01  0.94182887827E+01  0.12255840853E+02  0.51100000000E-03 0.  1.
         12    1    3    3    0    0  0.16242182082E+02  0.15717340559E+02  0.21985642918E+02  0.31531123791E+02  0.00000000000E+00 0. -1.
</event>
<event>
 7    1  0.3910751E-009  0.4778727E+02  0.7816164E-02  0.1312668E+00
        -11   -1    0    0    0    0  0.00000000000E+00  0.00000000000E+00  0.45593999997E+02  0.45594000000E+02  0.51100000000E-03 0.  1.
         11   -1    0    0    0    0 -0.00000000000E+00 -0.00000000000E+00 -0.45593999997E+02  0.45594000000E+02  0.51100000000E-03 0. -1.
    9900012    2    1    2    0    0 -0.45197998808E+01 -0.16398506585E+02 -0.39928483637E+02  0.47787269421E+02  0.19999992600E+02 0.  0.
        -12    1    1    2    0    0  0.45197998808E+01  0.16398506585E+02  0.39928483637E+02  0.43400730579E+02  0.00000000000E+00 0.  1.
         11    1    3    3    0    0  0.27577246851E+00 -0.51411022918E+01 -0.13736631227E+02  0.14669765539E+02  0.51100000000E-03 0. -1.
        -11    1    3    3    0    0  0.18985991735E+01 -0.42869190510E+01 -0.22152062361E+02  0.22642796225E+02  0.51100000000E-03 0.  1.
        -12    1    3    3    0    0 -0.66941715228E+01 -0.69704852417E+01 -0.40397900497E+01  0.10474707658E+02  0.00000000000E+00 0.  1.
</event>
<event>
 7    1  0.3910751E-009  0.4778727E+02  0.7816164E-02  0.1312668E+00
        -11   -1    0    0    0    0  0.00000000000E+00  0.00000000000E+00  0.45593999997E+02  0.45594000000E+02  0.51100000000E-03 0. -1.
         11   -1    0    0    0    0 -0.00000000000E+00 -0.00000000000E+00 -0.45593999997E+02  0.45594000000E+02  0.51100000000E-03 0.  1.
    9900012    2    1    2    0    0  0.90533274547E+01 -0.16443752333E+02  0.39131360006E+02  0.47787273454E+02  0.20000010986E+02 0.  0.
        -12    1    1    2    0    0 -0.90533274547E+01  0.16443752333E+02 -0.39131360006E+02  0.43400726546E+02  0.00000000000E+00 0.  1.
         11    1    3    3    0    0  0.12843545243E+02 -0.14062045113E+02  0.23441993014E+02  0.30203059512E+02  0.51100000000E-03 0. -1.
        -11    1    3    3    0    0  0.14491769436E+01 -0.40284664867E+00  0.86032270905E+00  0.17327881178E+01  0.51100000000E-03 0.  1.
        -12    1    3    3    0    0 -0.52393947315E+01 -0.19788605715E+01  0.14829044283E+02  0.15851425824E+02  0.00000000000E+00 0.  1.
</event>
<event>
 7    1  0.3910751E-009  0.4778723E+02  0.7816164E-02  0.1312668E+00
        -11   -1    0    0    0    0  0.00000000000E+00  0.00000000000E+00  0.45593999997E+02  0.45594000000E+02  0.51100000000E-03 0.  1.
         11   -1    0    0    0    0 -0.00000000000E+00 -0.00000000000E+00 -0.45593999997E+02  0.45594000000E+02  0.51100000000E-03 0. -1.
    9900012    2    1    2    0    0  0.63716040103E+01 -0.66297731713E+01 -0.42415513822E+02  0.47787227625E+02  0.19999802031E+02 0.  0.
        -12    1    1    2    0    0 -0.63716040103E+01  0.66297731713E+01  0.42415513822E+02  0.43400772375E+02  0.00000000000E+00 0.  1.
         11    1    3    3    0    0 -0.15971274493E+01  0.65477530262E+00 -0.84761864463E-01  0.17282163120E+01  0.51100000000E-03 0. -1.
        -11    1    3    3    0    0  0.56532444225E+00 -0.65524136187E+01 -0.57702084754E+01  0.87492297985E+01  0.51100000000E-03 0.  1.
         12    1    3    3    0    0  0.74034070173E+01 -0.73213485524E+00 -0.36560543482E+02  0.37309781514E+02  0.00000000000E+00 0. -1.
</event>
<event>
 7    1  0.3910751E-009  0.4778727E+02  0.7816164E-02  0.1312668E+00
        -11   -1    0    0    0    0  0.00000000000E+00  0.00000000000E+00  0.45593999997E+02  0.45594000000E+02  0.51100000000E-03 0.  1.
         11   -1    0    0    0    0 -0.00000000000E+00 -0.00000000000E+00 -0.45593999997E+02  0.45594000000E+02  0.51100000000E-03 0. -1.
    9900012    2    1    2    0    0  0.17902964237E+02 -0.33883892569E+02 -0.20371276348E+02  0.47787271847E+02  0.20000003660E+02 0.  0.
        -12    1    1    2    0    0 -0.17902964237E+02  0.33883892569E+02  0.20371276348E+02  0.43400728153E+02  0.00000000000E+00 0.  1.
         11    1    3    3    0    0  0.22582206868E+00 -0.13961298775E+02 -0.16913834171E+01  0.14065192399E+02  0.51100000000E-03 0.  1.
        -11    1    3    3    0    0  0.31775316677E+01 -0.75101432262E+01 -0.20537992739E+01  0.84093430478E+01  0.51100000000E-03 0. -1.
        -12    1    3    3    0    0  0.14499610501E+02 -0.12412450568E+02 -0.16626093657E+02  0.25312736401E+02  0.00000000000E+00 0.  1.
</event>
<event>
 7    1  0.3910751E-009  0.4778727E+02  0.7816164E-02  0.1312668E+00
        -11   -1    0    0    0    0  0.00000000000E+00  0.00000000000E+00  0.45593999997E+02  0.45594000000E+02  0.51100000000E-03 0.  1.
         11   -1    0    0    0    0 -0.00000000000E+00 -0.00000000000E+00 -0.45593999997E+02  0.45594000000E+02  0.51100000000E-03 0. -1.
    9900012    2    1    2    0    0 -0.34560560312E+01 -0.38992041419E+02  0.18742983483E+02  0.47787273657E+02  0.20000011910E+02 0.  0.
        -12    1    1    2    0    0  0.34560560312E+01  0.38992041419E+02 -0.18742983483E+02  0.43400726343E+02  0.00000000000E+00 0.  1.
         11    1    3    3    0    0 -0.31327592072E+01 -0.63389475842E+01  0.80079475155E+01  0.10682867611E+02  0.51100000000E-03 0. -1.
        -11    1    3    3    0    0  0.13498353356E+01 -0.13348599080E+02  0.11560118524E+02  0.17709982873E+02  0.51100000000E-03 0.  1.
         12    1    3    3    0    0 -0.16731321595E+01 -0.19304494755E+02 -0.82508255654E+00  0.19394423172E+02  0.00000000000E+00 0. -1.
</event>
<event>
 7    1  0.3910751E-009  0.4778727E+02  0.7816164E-02  0.1312668E+00
        -11   -1    0    0    0    0  0.00000000000E+00  0.00000000000E+00  0.45593999997E+02  0.45594000000E+02  0.51100000000E-03 0.  1.
         11   -1    0    0    0    0 -0.00000000000E+00 -0.00000000000E+00 -0.45593999997E+02  0.45594000000E+02  0.51100000000E-03 0. -1.
    9900012    2    1    2    0    0 -0.23633255074E+02 -0.68699681914E+01 -0.35747671989E+02  0.47787271193E+02  0.20000000678E+02 0.  0.
        -12    1    1    2    0    0  0.23633255074E+02  0.68699681914E+01  0.35747671989E+02  0.43400728807E+02  0.00000000000E+00 0.  1.
         11    1    3    3    0    0 -0.28838807642E+01 -0.42017730427E+01 -0.29642686662E+01  0.58956385533E+01  0.51100000000E-03 0. -1.
        -11    1    3    3    0    0 -0.77646109381E+01 -0.31337843031E+01 -0.21920601302E+01  0.86553402564E+01  0.51100000000E-03 0.  1.
         12    1    3    3    0    0 -0.12984763372E+02  0.46558915449E+00 -0.30591343192E+02  0.33236292383E+02  0.00000000000E+00 0. -1.
</event>
<event>
 7    1  0.3910751E-009  0.4778727E+02  0.7816164E-02  0.1312668E+00
        -11   -1    0    0    0    0  0.00000000000E+00  0.00000000000E+00  0.45593999997E+02  0.45594000000E+02  0.51100000000E-03 0.  1.
         11   -1    0    0    0    0 -0.00000000000E+00 -0.00000000000E+00 -0.45593999997E+02  0.45594000000E+02  0.51100000000E-03 0. -1.
    9900012    2    1    2    0    0 -0.12694014313E+02  0.41178205844E+02  0.51808289112E+01  0.47787267010E+02  0.19999981603E+02 0.  0.
        -12    1    1    2    0    0  0.12694014313E+02 -0.41178205844E+02 -0.51808289112E+01  0.43400732990E+02  0.00000000000E+00 0.  1.
         11    1    3    3    0    0 -0.41998090111E+01  0.32911152286E+01  0.21672533314E+01  0.57590643720E+01  0.51100000000E-03 0.  1.
        -11    1    3    3    0    0 -0.10516084346E+02  0.14092866203E+02 -0.17732689326E+01  0.17673182813E+02  0.51100000000E-03 0. -1.
        -12    1    3    3    0    0  0.20218790438E+01  0.23794224412E+02  0.47868445124E+01  0.24355019824E+02  0.00000000000E+00 0.  1.
</event>
<event>
 7    1  0.3910751E-009  0.4778727E+02  0.7816164E-02  0.1312668E+00
        -11   -1    0    0    0    0  0.00000000000E+00  0.00000000000E+00  0.45593999997E+02  0.45594000000E+02  0.51100000000E-03 0. -1.
         11   -1    0    0    0    0 -0.00000000000E+00 -0.00000000000E+00 -0.45593999997E+02  0.45594000000E+02  0.51100000000E-03 0.  1.
    9900012    2    1    2    0    0 -0.37458233365E+02 -0.15316746413E+02  0.15681243705E+02  0.47787269918E+02  0.19999994866E+02 0.  0.
        -12    1    1    2    0    0  0.37458233365E+02  0.15316746413E+02 -0.15681243705E+02  0.43400730082E+02  0.00000000000E+00 0.  1.
         11    1    3    3    0    0 -0.10367129779E+02  0.21939165583E+01  0.41734234949E+01  0.11388946995E+02  0.51100000000E-03 0. -1.
        -11    1    3    3    0    0 -0.37097924307E+01 -0.27461966326E+01 -0.26601400115E+01  0.53273352593E+01  0.51100000000E-03 0.  1.
         12    1    3    3    0    0 -0.23381311155E+02 -0.14764466338E+02  0.14167960221E+02  0.31070987664E+02  0.00000000000E+00 0. -1.
</event>
<event>
 7    1  0.3910751E-009  0.4778725E+02  0.7816164E-02  0.1312668E+00
        -11   -1    0    0    0    0  0.00000000000E+00  0.00000000000E+00  0.45593999997E+02  0.45594000000E+02  0.51100000000E-03 0. -1.
         11   -1    0    0    0    0 -0.00000000000E+00 -0.00000000000E+00 -0.45593999997E+02  0.45594000000E+02  0.51100000000E-03 0.  1.
    9900012    2    1    2    0    0  0.33592206312E+01  0.38207624827E+02  0.20310533467E+02  0.47787254294E+02  0.19999923626E+02 0.  0.
        -12    1    1    2    0    0 -0.33592206312E+01 -0.38207624827E+02 -0.20310533467E+02  0.43400745706E+02  0.00000000000E+00 0.  1.
         11    1    3    3    0    0 -0.17665836051E+01  0.14444074990E+02  0.12645607899E+02  0.19278576694E+02  0.51100000000E-03 0. -1.
        -11    1    3    3    0    0  0.89202133028E+01  0.20653016121E+02  0.55872525079E+01  0.23180480390E+02  0.51100000000E-03 0.  1.
         12    1    3    3    0    0 -0.37944090664E+01  0.31105337160E+01  0.20776730597E+01  0.53281972097E+01  0.00000000000E+00 0. -1.
</event>
<event>
 7    1  0.3910751E-009  0.4778727E+02  0.7816164E-02  0.1312668E+00
        -11   -1    0    0    0    0  0.00000000000E+00  0.00000000000E+00  0.45593999997E+02  0.45594000000E+02  0.51100000000E-03 0.  1.
         11   -1    0    0    0    0 -0.00000000000E+00 -0.00000000000E+00 -0.45593999997E+02  0.45594000000E+02  0.51100000000E-03 0. -1.
    9900012    2    1    2    0    0 -0.37723547688E+02 -0.12166865340E+02 -0.17678367006E+02  0.47787270485E+02  0.19999997451E+02 0.  0.
        -12    1    1    2    0    0  0.37723547688E+02  0.12166865340E+02  0.17678367006E+02  0.43400729515E+02  0.00000000000E+00 0.  1.
         11    1    3    3    0    0 -0.19565793166E+02 -0.37313103191E+01 -0.25608468772E+01  0.20082352350E+02  0.51100000000E-03 0. -1.
        -11    1    3    3    0    0 -0.64518844440E+01  0.32083263207E+00  0.28947554409E+00  0.64663392123E+01  0.51100000000E-03 0.  1.
        -12    1    3    3    0    0 -0.11705870078E+02 -0.87563876528E+01 -0.15406995673E+02  0.21238578923E+02  0.00000000000E+00 0.  1.
</event>
<event>
 7    1  0.3910751E-009  0.4778727E+02  0.7816164E-02  0.1312668E+00
        -11   -1    0    0    0    0  0.00000000000E+00  0.00000000000E+00  0.45593999997E+02  0.45594000000E+02  0.51100000000E-03 0. -1.
         11   -1    0    0    0    0 -0.00000000000E+00 -0.00000000000E+00 -0.45593999997E+02  0.45594000000E+02  0.51100000000E-03 0.  1.
    9900012    2    1    2    0    0 -0.23609937274E+02  0.18902560210E+01  0.36367859957E+02  0.47787269087E+02  0.19999991074E+02 0.  0.
        -12    1    1    2    0    0  0.23609937274E+02 -0.18902560210E+01 -0.36367859957E+02  0.43400730913E+02  0.00000000000E+00 0.  1.
         11    1    3    3    0    0 -0.16391326425E+02  0.95810487350E+00  0.20426280661E+02  0.26207374703E+02  0.51100000000E-03 0. -1.
        -11    1    3    3    0    0 -0.96763231761E+01 -0.27394727463E+01  0.12021202534E+02  0.15673074100E+02  0.51100000000E-03 0.  1.
        -12    1    3    3    0    0  0.24577123267E+01  0.36716238939E+01  0.39203767624E+01  0.59068202832E+01  0.00000000000E+00 0.  1.
</event>
<event>
 7    1  0.3910751E-009  0.4778727E+02  0.7816164E-02  0.1312668E+00
        -11   -1    0    0    0    0  0.00000000000E+00  0.00000000000E+00  0.45593999997E+02  0.45594000000E+02  0.51100000000E-03 0.  1.
         11   -1    0    0    0    0 -0.00000000000E+00 -0.00000000000E+00 -0.45593999997E+02  0.45594000000E+02  0.51100000000E-03 0. -1.
    9900012    2    1    2    0    0  0.22028514041E+02 -0.20575564235E+02 -0.31225210000E+02  0.47787274038E+02  0.20000013650E+02 0.  0.
        -12    1    1    2    0    0 -0.22028514041E+02  0.20575564235E+02  0.31225210000E+02  0.43400725962E+02  0.00000000000E+00 0.  1.
         11    1    3    3    0    0  0.30796814557E+01 -0.24264301710E+01 -0.97105282183E+01  0.10472170729E+02  0.51100000000E-03 0. -1.
        -11    1    3    3    0    0  0.10328294264E+01 -0.16472972044E+01 -0.10331596442E+02  0.10512954390E+02  0.51100000000E-03 0.  1.
         12    1    3    3    0    0  0.17916003159E+02 -0.16501836860E+02 -0.11183085340E+02  0.26802148919E+02  0.00000000000E+00 0. -1.
</event>
<event>
 7    1  0.3910751E-009  0.4778727E+02  0.7816164E-02  0.1312668E+00
        -11   -1    0    0    0    0  0.00000000000E+00  0.00000000000E+00  0.45593999997E+02  0.45594000000E+02  0.51100000000E-03 0.  1.
         11   -1    0    0    0    0 -0.00000000000E+00 -0.00000000000E+00 -0.45593999997E+02  0.45594000000E+02  0.51100000000E-03 0. -1.
    9900012    2    1    2    0    0 -0.12090832875E+02 -0.24886149666E+02 -0.33438220367E+02  0.47787271133E+02  0.20000000406E+02 0.  0.
        -12    1    1    2    0    0  0.12090832875E+02  0.24886149666E+02  0.33438220367E+02  0.43400728867E+02  0.00000000000E+00 0.  1.
         11    1    3    3    0    0 -0.34386274585E-01 -0.20838981539E+02 -0.22911920342E+02  0.30971283926E+02  0.51100000000E-03 0. -1.
        -11    1    3    3    0    0 -0.46122797065E+01 -0.15326805019E-01 -0.43133908033E+01  0.63149583914E+01  0.51100000000E-03 0.  1.
        -12    1    3    3    0    0 -0.74441668942E+01 -0.40318413225E+01 -0.62129092215E+01  0.10501028816E+02  0.00000000000E+00 0.  1.
</event>
<event>
 7    1  0.3910751E-009  0.4778727E+02  0.7816164E-02  0.1312668E+00
        -11   -1    0    0    0    0  0.00000000000E+00  0.00000000000E+00  0.45593999997E+02  0.45594000000E+02  0.51100000000E-03 0.  1.
         11   -1    0    0    0    0 -0.00000000000E+00 -0.00000000000E+00 -0.45593999997E+02  0.45594000000E+02  0.51100000000E-03 0. -1.
    9900012    2    1    2    0    0  0.22331813167E+02 -0.24764663083E+02 -0.27778131950E+02  0.47787273836E+02  0.20000012729E+02 0.  0.
        -12    1    1    2    0    0 -0.22331813167E+02  0.24764663083E+02  0.27778131950E+02  0.43400726164E+02  0.00000000000E+00 0.  1.
         11    1    3    3    0    0  0.16267260207E+01 -0.37685364344E+01 -0.33207217159E+01  0.52797061831E+01  0.51100000000E-03 0. -1.
        -11    1    3    3    0    0  0.13695939943E+02 -0.19562533610E+01 -0.13997895983E+02  0.19681127771E+02  0.51100000000E-03 0.  1.
        -12    1    3    3    0    0  0.70091472027E+01 -0.19039873288E+02 -0.10459514251E+02  0.22826439882E+02  0.00000000000E+00 0.  1.
</event>
<event>
 7    1  0.3910751E-009  0.4778727E+02  0.7816164E-02  0.1312668E+00
        -11   -1    0    0    0    0  0.00000000000E+00  0.00000000000E+00  0.45593999997E+02  0.45594000000E+02  0.51100000000E-03 0.  1.
         11   -1    0    0    0    0 -0.00000000000E+00 -0.00000000000E+00 -0.45593999997E+02  0.45594000000E+02  0.51100000000E-03 0. -1.
    9900012    2    1    2    0    0 -0.45471147985E+01  0.52974707273E+01 -0.42835542315E+02  0.47787272650E+02  0.20000007319E+02 0.  0.
        -12    1    1    2    0    0  0.45471147985E+01 -0.52974707273E+01  0.42835542315E+02  0.43400727350E+02  0.00000000000E+00 0.  1.
         11    1    3    3    0    0 -0.26968418772E+00  0.15064965781E+01 -0.24726830503E+02  0.24774147987E+02  0.51100000000E-03 0.  1.
        -11    1    3    3    0    0  0.41517625273E+01  0.31245832136E+01 -0.10142501313E+02  0.11396073249E+02  0.51100000000E-03 0. -1.
        -12    1    3    3    0    0 -0.84291931380E+01  0.66639093569E+00 -0.79662104990E+01  0.11617051414E+02  0.00000000000E+00 0.  1.
</event>
<event>
 7    1  0.3910751E-009  0.4778727E+02  0.7816164E-02  0.1312668E+00
        -11   -1    0    0    0    0  0.00000000000E+00  0.00000000000E+00  0.45593999997E+02  0.45594000000E+02  0.51100000000E-03 0. -1.
         11   -1    0    0    0    0 -0.00000000000E+00 -0.00000000000E+00 -0.45593999997E+02  0.45594000000E+02  0.51100000000E-03 0.  1.
    9900012    2    1    2    0    0  0.38888939372E+01 -0.42413575193E+02 -0.83419630440E+01  0.47787271847E+02  0.20000003661E+02 0.  0.
        -12    1    1    2    0    0 -0.38888939372E+01  0.42413575193E+02  0.83419630440E+01  0.43400728153E+02  0.00000000000E+00 0.  1.
         11    1    3    3    0    0  0.30181848704E+01  0.29440286116E+00 -0.69003120975E+00  0.31100251266E+01  0.51100000000E-03 0. -1.
        -11    1    3    3    0    0 -0.23288295655E+01 -0.13250238390E+02  0.18046403902E+01  0.13573834820E+02  0.51100000000E-03 0.  1.
         12    1    3    3    0    0  0.31995386323E+01 -0.29457739665E+02 -0.94565722245E+01  0.31103411901E+02  0.00000000000E+00 0. -1.
</event>
<event>
 7    1  0.3910751E-009  0.4778727E+02  0.7816164E-02  0.1312668E+00
        -11   -1    0    0    0    0  0.00000000000E+00  0.00000000000E+00  0.45593999997E+02  0.45594000000E+02  0.51100000000E-03 0. -1.
         11   -1    0    0    0    0 -0.00000000000E+00 -0.00000000000E+00 -0.45593999997E+02  0.45594000000E+02  0.51100000000E-03 0.  1.
    9900012    2    1    2    0    0 -0.19617910317E+02  0.35530683062E+02  0.15373076469E+02  0.47787270465E+02  0.19999997358E+02 0.  0.
        -12    1    1    2    0    0  0.19617910317E+02 -0.35530683062E+02 -0.15373076469E+02  0.43400729535E+02  0.00000000000E+00 0.  1.
         11    1    3    3    0    0 -0.64512428856E+01  0.25064767108E+01  0.14370645334E+01  0.70686713748E+01  0.51100000000E-03 0. -1.
        -11    1    3    3    0    0  0.12195609880E+01 -0.15799138727E+00 -0.10041693165E+01  0.15876544206E+01  0.51100000000E-03 0.  1.
         12    1    3    3    0    0 -0.14386228419E+02  0.33182197739E+02  0.14940181252E+02  0.39130944670E+02  0.00000000000E+00 0. -1.
</event>
<event>
 7    1  0.3910751E-009  0.4778727E+02  0.7816164E-02  0.1312668E+00
        -11   -1    0    0    0    0  0.00000000000E+00  0.00000000000E+00  0.45593999997E+02  0.45594000000E+02  0.51100000000E-03 0. -1.
         11   -1    0    0    0    0 -0.00000000000E+00 -0.00000000000E+00 -0.45593999997E+02  0.45594000000E+02  0.51100000000E-03 0.  1.
    9900012    2    1    2    0    0  0.41161736212E+02 -0.67891223124E+00  0.13743148594E+02  0.47787267482E+02  0.19999983757E+02 0.  0.
        -12    1    1    2    0    0 -0.41161736212E+02  0.67891223124E+00 -0.13743148594E+02  0.43400732518E+02  0.00000000000E+00 0.  1.
         11    1    3    3    0    0  0.12651449668E+02 -0.60890852420E+01  0.56282540574E+01  0.15126578655E+02  0.51100000000E-03 0. -1.
        -11    1    3    3    0    0  0.20194849247E+02 -0.53906255846E-01  0.62125669471E+00  0.20204474804E+02  0.51100000000E-03 0.  1.
         12    1    3    3    0    0  0.83154372971E+01  0.54640792666E+01  0.74936378424E+01  0.12456214023E+02  0.00000000000E+00 0. -1.
</event>
<event>
 7    1  0.3910751E-009  0.4778727E+02  0.7816164E-02  0.1312668E+00
        -11   -1    0    0    0    0  0.00000000000E+00  0.00000000000E+00  0.45593999997E+02  0.45594000000E+02  0.51100000000E-03 0. -1.
         11   -1    0    0    0    0 -0.00000000000E+00 -0.00000000000E+00 -0.45593999997E+02  0.45594000000E+02  0.51100000000E-03 0.  1.
    9900012    2    1    2    0    0 -0.87998366035E+01  0.42411182219E+02 -0.27344902223E+01  0.47787274911E+02  0.20000017628E+02 0.  0.
        -12    1    1    2    0    0  0.87998366035E+01 -0.42411182219E+02  0.27344902223E+01  0.43400725089E+02  0.00000000000E+00 0.  1.
         11    1    3    3    0    0 -0.33558630781E+01  0.95810564393E+01 -0.56075458625E+01  0.11597544152E+02  0.51100000000E-03 0. -1.
        -11    1    3    3    0    0 -0.22037845179E+01  0.32233212838E+02  0.43111745660E+01  0.32594829382E+02  0.51100000000E-03 0.  1.
         12    1    3    3    0    0 -0.32401890075E+01  0.59691294221E+00 -0.14381189258E+01  0.35949013769E+01  0.00000000000E+00 0. -1.
</event>
<event>
 7    1  0.3910751E-009  0.4778727E+02  0.7816164E-02  0.1312668E+00
        -11   -1    0    0    0    0  0.00000000000E+00  0.00000000000E+00  0.45593999997E+02  0.45594000000E+02  0.51100000000E-03 0.  1.
         11   -1    0    0    0    0 -0.00000000000E+00 -0.00000000000E+00 -0.45593999997E+02  0.45594000000E+02  0.51100000000E-03 0. -1.
    9900012    2    1    2    0    0  0.29159552959E+02  0.19030029145E+02 -0.25907558616E+02  0.47787272685E+02  0.20000007481E+02 0.  0.
        -12    1    1    2    0    0 -0.29159552959E+02 -0.19030029145E+02  0.25907558616E+02  0.43400727315E+02  0.00000000000E+00 0.  1.
         11    1    3    3    0    0  0.14369286811E+02  0.87321319445E+01 -0.71572803035E+01  0.18274386265E+02  0.51100000000E-03 0. -1.
        -11    1    3    3    0    0  0.16293972530E+02  0.87138547841E+01 -0.11096528213E+02  0.21553601663E+02  0.51100000000E-03 0.  1.
        -12    1    3    3    0    0 -0.15037063823E+01  0.15840424161E+01 -0.76537500995E+01  0.79592847572E+01  0.00000000000E+00 0.  1.
</event>
<event>
 7    1  0.3910751E-009  0.4778732E+02  0.7816164E-02  0.1312668E+00
        -11   -1    0    0    0    0  0.00000000000E+00  0.00000000000E+00  0.45593999997E+02  0.45594000000E+02  0.51100000000E-03 0.  1.
         11   -1    0    0    0    0 -0.00000000000E+00 -0.00000000000E+00 -0.45593999997E+02  0.45594000000E+02  0.51100000000E-03 0. -1.
    9900012    2    1    2    0    0  0.68423358144E+01 -0.15148893820E+02 -0.40091298652E+02  0.47787322921E+02  0.20000236523E+02 0.  0.
        -12    1    1    2    0    0 -0.68423358144E+01  0.15148893820E+02  0.40091298652E+02  0.43400677079E+02  0.00000000000E+00 0.  1.
         11    1    3    3    0    0 -0.79148144934E+00 -0.15217692821E+02 -0.15099456035E+02  0.21452230431E+02  0.51100000000E-03 0. -1.
        -11    1    3    3    0    0  0.10776986027E+01  0.88630101284E-01 -0.10331118206E+01  0.14955299624E+01  0.51100000000E-03 0.  1.
         12    1    3    3    0    0  0.65561186610E+01 -0.19831100851E-01 -0.23958730796E+02  0.24839562527E+02  0.00000000000E+00 0. -1.
</event>
<event>
 7    1  0.3910751E-009  0.4778727E+02  0.7816164E-02  0.1312668E+00
        -11   -1    0    0    0    0  0.00000000000E+00  0.00000000000E+00  0.45593999997E+02  0.45594000000E+02  0.51100000000E-03 0. -1.
         11   -1    0    0    0    0 -0.00000000000E+00 -0.00000000000E+00 -0.45593999997E+02  0.45594000000E+02  0.51100000000E-03 0.  1.
    9900012    2    1    2    0    0  0.24309206440E+02 -0.11801076018E+02  0.33962045080E+02  0.47787269373E+02  0.19999992380E+02 0.  0.
        -12    1    1    2    0    0 -0.24309206440E+02  0.11801076018E+02 -0.33962045080E+02  0.43400730627E+02  0.00000000000E+00 0.  1.
         11    1    3    3    0    0 -0.14488776963E+01 -0.10025885256E+01  0.70851743577E+01  0.73009674887E+01  0.51100000000E-03 0. -1.
        -11    1    3    3    0    0  0.52818033711E+01  0.24519367707E+01  0.62673145035E+01  0.85550378214E+01  0.51100000000E-03 0.  1.
         12    1    3    3    0    0  0.20476280766E+02 -0.13250424263E+02  0.20609556218E+02  0.31931264063E+02  0.00000000000E+00 0. -1.
</event>
<event>
 7    1  0.3910751E-009  0.4778727E+02  0.7816164E-02  0.1312668E+00
        -11   -1    0    0    0    0  0.00000000000E+00  0.00000000000E+00  0.45593999997E+02  0.45594000000E+02  0.51100000000E-03 0.  1.
         11   -1    0    0    0    0 -0.00000000000E+00 -0.00000000000E+00 -0.45593999997E+02  0.45594000000E+02  0.51100000000E-03 0. -1.
    9900012    2    1    2    0    0  0.91072266292E+01  0.31460879365E+02 -0.28476214017E+02  0.47787271065E+02  0.20000000094E+02 0.  0.
        -12    1    1    2    0    0 -0.91072266292E+01 -0.31460879365E+02  0.28476214017E+02  0.43400728935E+02  0.00000000000E+00 0.  1.
         11    1    3    3    0    0  0.43733790794E+01  0.40197553282E+01 -0.29995557743E+01  0.66544881527E+01  0.51100000000E-03 0. -1.
        -11    1    3    3    0    0 -0.86427999916E+00 -0.18130104235E+01 -0.37894357831E+01  0.42888005932E+01  0.51100000000E-03 0.  1.
         12    1    3    3    0    0  0.55981275489E+01  0.29254134461E+02 -0.21687222460E+02  0.36843982319E+02  0.00000000000E+00 0. -1.
</event>
<event>
 7    1  0.3910751E-009  0.4778726E+02  0.7816164E-02  0.1312668E+00
        -11   -1    0    0    0    0  0.00000000000E+00  0.00000000000E+00  0.45593999997E+02  0.45594000000E+02  0.51100000000E-03 0. -1.
         11   -1    0    0    0    0 -0.00000000000E+00 -0.00000000000E+00 -0.45593999997E+02  0.45594000000E+02  0.51100000000E-03 0.  1.
    9900012    2    1    2    0    0  0.39629891971E+02 -0.55757466841E+01 -0.16793062336E+02  0.47787260014E+02  0.19999949709E+02 0.  0.
        -12    1    1    2    0    0 -0.39629891971E+02  0.55757466841E+01  0.16793062336E+02  0.43400739986E+02  0.00000000000E+00 0.  1.
         11    1    3    3    0    0  0.20949809928E+02 -0.78411004533E+01 -0.34917534574E+01  0.22640002977E+02  0.51100000000E-03 0. -1.
        -11    1    3    3    0    0 -0.11048143864E+01  0.47054648165E+00  0.65844686176E-01  0.12026489943E+01  0.51100000000E-03 0.  1.
        -12    1    3    3    0    0  0.19784896430E+02  0.17948072876E+01 -0.13367153564E+02  0.23944608043E+02  0.00000000000E+00 0.  1.
</event>
<event>
 7    1  0.3910751E-009  0.4778727E+02  0.7816164E-02  0.1312668E+00
        -11   -1    0    0    0    0  0.00000000000E+00  0.00000000000E+00  0.45593999997E+02  0.45594000000E+02  0.51100000000E-03 0. -1.
         11   -1    0    0    0    0 -0.00000000000E+00 -0.00000000000E+00 -0.45593999997E+02  0.45594000000E+02  0.51100000000E-03 0.  1.
    9900012    2    1    2    0    0 -0.30095633900E+01 -0.20236053787E+02  0.38276205181E+02  0.47787271576E+02  0.20000002422E+02 0.  0.
        -12    1    1    2    0    0  0.30095633900E+01  0.20236053787E+02 -0.38276205181E+02  0.43400728424E+02  0.00000000000E+00 0.  1.
         11    1    3    3    0    0 -0.62356034545E+01 -0.84423039006E+01  0.14514034009E+02  0.17911237508E+02  0.51100000000E-03 0. -1.
        -11    1    3    3    0    0  0.28813314031E+01  0.61340750446E+00 -0.13369297636E+00  0.29489342981E+01  0.51100000000E-03 0.  1.
         12    1    3    3    0    0  0.34470866136E+00 -0.12407157391E+02  0.23895864149E+02  0.26927099770E+02  0.00000000000E+00 0. -1.
</event>
<event>
 7    1  0.3910751E-009  0.4778727E+02  0.7816164E-02  0.1312668E+00
        -11   -1    0    0    0    0  0.00000000000E+00  0.00000000000E+00  0.45593999997E+02  0.45594000000E+02  0.51100000000E-03 0.  1.
         11   -1    0    0    0    0 -0.00000000000E+00 -0.00000000000E+00 -0.45593999997E+02  0.45594000000E+02  0.51100000000E-03 0. -1.
    9900012    2    1    2    0    0 -0.37997052695E+02  0.56420734473E+01 -0.20199366242E+02  0.47787269558E+02  0.19999993223E+02 0.  0.
        -12    1    1    2    0    0  0.37997052695E+02 -0.56420734473E+01  0.20199366242E+02  0.43400730442E+02  0.00000000000E+00 0.  1.
         11    1    3    3    0    0 -0.17368937583E+02  0.68533810236E+01 -0.16268677567E+01  0.18742879265E+02  0.51100000000E-03 0. -1.
        -11    1    3    3    0    0  0.17366151617E+00 -0.10250528080E+01  0.15835551649E+00  0.10516502803E+01  0.51100000000E-03 0.  1.
        -12    1    3    3    0    0 -0.20801776629E+02 -0.18625476829E+00 -0.18730854002E+02  0.27992740012E+02  0.00000000000E+00 0.  1.
</event>
<event>
 7    1  0.3910751E-009  0.4778727E+02  0.7816164E-02  0.1312668E+00
        -11   -1    0    0    0    0  0.00000000000E+00  0.00000000000E+00  0.45593999997E+02  0.45594000000E+02  0.51100000000E-03 0.  1.
         11   -1    0    0    0    0 -0.00000000000E+00 -0.00000000000E+00 -0.45593999997E+02  0.45594000000E+02  0.51100000000E-03 0. -1.
    9900012    2    1    2    0    0  0.32705879075E+02 -0.22787323608E+02 -0.17166447347E+02  0.47787267773E+02  0.19999985086E+02 0.  0.
        -12    1    1    2    0    0 -0.32705879075E+02  0.22787323608E+02  0.17166447347E+02  0.43400732227E+02  0.00000000000E+00 0.  1.
         11    1    3    3    0    0  0.12895919245E+02 -0.15212730725E+02 -0.11824324283E+02  0.23185050233E+02  0.51100000000E-03 0. -1.
        -11    1    3    3    0    0 -0.66929193039E+00 -0.27971083638E+01 -0.14312851504E+01  0.32125292730E+01  0.51100000000E-03 0.  1.
        -12    1    3    3    0    0  0.20479251760E+02 -0.47774845184E+01 -0.39108379141E+01  0.21389688267E+02  0.00000000000E+00 0.  1.
</event>
<event>
 7    1  0.3910751E-009  0.4778727E+02  0.7816164E-02  0.1312668E+00
        -11   -1    0    0    0    0  0.00000000000E+00  0.00000000000E+00  0.45593999997E+02  0.45594000000E+02  0.51100000000E-03 0.  1.
         11   -1    0    0    0    0 -0.00000000000E+00 -0.00000000000E+00 -0.45593999997E+02  0.45594000000E+02  0.51100000000E-03 0. -1.
    9900012    2    1    2    0    0 -0.88264548719E+01 -0.81342362784E+01 -0.41707932704E+02  0.47787265491E+02  0.19999974681E+02 0.  0.
        -12    1    1    2    0    0  0.88264548719E+01  0.81342362784E+01  0.41707932704E+02  0.43400734509E+02  0.00000000000E+00 0.  1.
         11    1    3    3    0    0 -0.19492332828E+01 -0.47562561000E+01 -0.43837331537E+01  0.67556346189E+01  0.51100000000E-03 0. -1.
        -11    1    3    3    0    0 -0.42665996001E+01 -0.76364090782E+01 -0.10137259463E+02  0.13389646950E+02  0.51100000000E-03 0.  1.
        -12    1    3    3    0    0 -0.26106219890E+01  0.42584288998E+01 -0.27186940087E+02  0.27641983922E+02  0.00000000000E+00 0.  1.
</event>
<event>
 7    1  0.3910751E-009  0.4778728E+02  0.7816164E-02  0.1312668E+00
        -11   -1    0    0    0    0  0.00000000000E+00  0.00000000000E+00  0.45593999997E+02  0.45594000000E+02  0.51100000000E-03 0.  1.
         11   -1    0    0    0    0 -0.00000000000E+00 -0.00000000000E+00 -0.45593999997E+02  0.45594000000E+02  0.51100000000E-03 0. -1.
    9900012    2    1    2    0    0  0.11140634194E+02  0.59024118857E+01 -0.41529155116E+02  0.47787275110E+02  0.20000018536E+02 0.  0.
        -12    1    1    2    0    0 -0.11140634194E+02 -0.59024118857E+01  0.41529155116E+02  0.43400724890E+02  0.00000000000E+00 0.  1.
         11    1    3    3    0    0  0.39226972614E+01  0.43939809870E+01 -0.81448028146E+01  0.10051489236E+02  0.51100000000E-03 0. -1.
        -11    1    3    3    0    0  0.30605911626E+01  0.27572838416E+01 -0.33132507504E+02  0.33387615761E+02  0.51100000000E-03 0.  1.
        -12    1    3    3    0    0  0.41573457699E+01 -0.12488529429E+01 -0.25184479770E+00  0.43481701123E+01  0.00000000000E+00 0.  1.
</event>
<event>
 7    1  0.3910751E-009  0.4778728E+02  0.7816164E-02  0.1312668E+00
        -11   -1    0    0    0    0  0.00000000000E+00  0.00000000000E+00  0.45593999997E+02  0.45594000000E+02  0.51100000000E-03 0.  1.
         11   -1    0    0    0    0 -0.00000000000E+00 -0.00000000000E+00 -0.45593999997E+02  0.45594000000E+02  0.51100000000E-03 0. -1.
    9900012    2    1    2    0    0  0.39181843538E+02  0.13535206521E+02 -0.12853177839E+02  0.47787275822E+02  0.20000021783E+02 0.  0.
        -12    1    1    2    0    0 -0.39181843538E+02 -0.13535206521E+02  0.12853177839E+02  0.43400724178E+02  0.00000000000E+00 0.  1.
         11    1    3    3    0    0  0.10022870390E+02  0.60756856732E+01 -0.12933834135E+02  0.17454396379E+02  0.51100000000E-03 0. -1.
        -11    1    3    3    0    0  0.10021422018E+02  0.43308306100E+01 -0.54979238838E+00  0.10931023052E+02  0.51100000000E-03 0.  1.
         12    1    3    3    0    0  0.19137551130E+02  0.31286902374E+01  0.63044868439E+00  0.19401856391E+02  0.00000000000E+00 0. -1.
</event>
<event>
 7    1  0.3910751E-009  0.4778727E+02  0.7816164E-02  0.1312668E+00
        -11   -1    0    0    0    0  0.00000000000E+00  0.00000000000E+00  0.45593999997E+02  0.45594000000E+02  0.51100000000E-03 0. -1.
         11   -1    0    0    0    0 -0.00000000000E+00 -0.00000000000E+00 -0.45593999997E+02  0.45594000000E+02  0.51100000000E-03 0.  1.
    9900012    2    1    2    0    0 -0.30627796640E+02  0.18756584788E+02  0.24367025393E+02  0.47787270439E+02  0.19999997238E+02 0.  0.
        -12    1    1    2    0    0  0.30627796640E+02 -0.18756584788E+02 -0.24367025393E+02  0.43400729561E+02  0.00000000000E+00 0.  1.
         11    1    3    3    0    0  0.26973284297E-01  0.33285229372E-01 -0.80414699312E+00  0.80528759597E+00  0.51100000000E-03 0. -1.
        -11    1    3    3    0    0  0.17916732646E+01 -0.61406623392E-01 -0.54927217875E-01  0.17935665923E+01  0.51100000000E-03 0.  1.
         12    1    3    3    0    0 -0.32446443189E+02  0.18784706182E+02  0.25226099604E+02  0.45188416250E+02  0.00000000000E+00 0. -1.
</event>
<event>
 7    1  0.3910751E-009  0.4778727E+02  0.7816164E-02  0.1312668E+00
        -11   -1    0    0    0    0  0.00000000000E+00  0.00000000000E+00  0.45593999997E+02  0.45594000000E+02  0.51100000000E-03 0.  1.
         11   -1    0    0    0    0 -0.00000000000E+00 -0.00000000000E+00 -0.45593999997E+02  0.45594000000E+02  0.51100000000E-03 0. -1.
    9900012    2    1    2    0    0  0.28226992741E+02  0.24946533410E+02 -0.21552976921E+02  0.47787268870E+02  0.19999990088E+02 0.  0.
        -12    1    1    2    0    0 -0.28226992741E+02 -0.24946533410E+02  0.21552976921E+02  0.43400731130E+02  0.00000000000E+00 0.  1.
         11    1    3    3    0    0  0.11875298041E+02  0.10967009988E+02 -0.73016710925E+01  0.17737316951E+02  0.51100000000E-03 0. -1.
        -11    1    3    3    0    0  0.19275434367E+02  0.13391246761E+02 -0.12507369334E+02  0.26595152712E+02  0.51100000000E-03 0.  1.
         12    1    3    3    0    0 -0.29237396661E+01  0.58827666118E+00 -0.17439364940E+01  0.34547992069E+01  0.00000000000E+00 0. -1.
</event>
<event>
 7    1  0.3910751E-009  0.4778727E+02  0.7816164E-02  0.1312668E+00
        -11   -1    0    0    0    0  0.00000000000E+00  0.00000000000E+00  0.45593999997E+02  0.45594000000E+02  0.51100000000E-03 0.  1.
         11   -1    0    0    0    0 -0.00000000000E+00 -0.00000000000E+00 -0.45593999997E+02  0.45594000000E+02  0.51100000000E-03 0. -1.
    9900012    2    1    2    0    0  0.16669920133E+02 -0.71391253983E+01 -0.39430574559E+02  0.47787267762E+02  0.19999985034E+02 0.  0.
        -12    1    1    2    0    0 -0.16669920133E+02  0.71391253983E+01  0.39430574559E+02  0.43400732238E+02  0.00000000000E+00 0.  1.
         11    1    3    3    0    0 -0.69335085996E-01 -0.25325266931E+01 -0.54822233803E+01  0.60393105780E+01  0.51100000000E-03 0.  1.
        -11    1    3    3    0    0  0.16125172983E+02 -0.54780765239E+01 -0.35781357448E+02  0.39627466071E+02  0.51100000000E-03 0. -1.
         12    1    3    3    0    0  0.61408223633E+00  0.87147781866E+00  0.18330062685E+01  0.21204911133E+01  0.00000000000E+00 0. -1.
</event>
<event>
 7    1  0.3910751E-009  0.4778727E+02  0.7816164E-02  0.1312668E+00
        -11   -1    0    0    0    0  0.00000000000E+00  0.00000000000E+00  0.45593999997E+02  0.45594000000E+02  0.51100000000E-03 0. -1.
         11   -1    0    0    0    0 -0.00000000000E+00 -0.00000000000E+00 -0.45593999997E+02  0.45594000000E+02  0.51100000000E-03 0.  1.
    9900012    2    1    2    0    0  0.27213223532E+02  0.23024320894E+02  0.24757710905E+02  0.47787272623E+02  0.20000007196E+02 0.  0.
        -12    1    1    2    0    0 -0.27213223532E+02 -0.23024320894E+02 -0.24757710905E+02  0.43400727377E+02  0.00000000000E+00 0.  1.
         11    1    3    3    0    0  0.25026436983E+02  0.12500623064E+02  0.13621420737E+02  0.31114807218E+02  0.51100000000E-03 0. -1.
        -11    1    3    3    0    0  0.43032112488E+01  0.72122481103E+01  0.66824287811E+01  0.10732614059E+02  0.51100000000E-03 0.  1.
        -12    1    3    3    0    0 -0.21164247003E+01  0.33114497193E+01  0.44538613866E+01  0.59398513455E+01  0.00000000000E+00 0.  1.
</event>
<event>
 7    1  0.3910751E-009  0.4778727E+02  0.7816164E-02  0.1312668E+00
        -11   -1    0    0    0    0  0.00000000000E+00  0.00000000000E+00  0.45593999997E+02  0.45594000000E+02  0.51100000000E-03 0.  1.
         11   -1    0    0    0    0 -0.00000000000E+00 -0.00000000000E+00 -0.45593999997E+02  0.45594000000E+02  0.51100000000E-03 0. -1.
    9900012    2    1    2    0    0  0.41019354970E+02 -0.14117669320E+02 -0.13144244241E+01  0.47787265205E+02  0.19999973376E+02 0.  0.
        -12    1    1    2    0    0 -0.41019354970E+02  0.14117669320E+02  0.13144244241E+01  0.43400734795E+02  0.00000000000E+00 0.  1.
         11    1    3    3    0    0  0.75484620162E+00 -0.17190290399E+00 -0.27764891123E+01  0.28824009868E+01  0.51100000000E-03 0. -1.
        -11    1    3    3    0    0  0.30842050538E+01 -0.56603398415E+01 -0.17441759761E+01  0.66778677759E+01  0.51100000000E-03 0.  1.
         12    1    3    3    0    0  0.37180303715E+02 -0.82854265741E+01  0.32062406643E+01  0.38226996442E+02  0.00000000000E+00 0. -1.
</event>
<event>
 7    1  0.3910751E-009  0.4778728E+02  0.7816164E-02  0.1312668E+00
        -11   -1    0    0    0    0  0.00000000000E+00  0.00000000000E+00  0.45593999997E+02  0.45594000000E+02  0.51100000000E-03 0.  1.
         11   -1    0    0    0    0 -0.00000000000E+00 -0.00000000000E+00 -0.45593999997E+02  0.45594000000E+02  0.51100000000E-03 0. -1.
    9900012    2    1    2    0    0 -0.10186737290E+02 -0.35054622273E+02 -0.23473954325E+02  0.47787277760E+02  0.20000030621E+02 0.  0.
        -12    1    1    2    0    0  0.10186737290E+02  0.35054622273E+02  0.23473954325E+02  0.43400722240E+02  0.00000000000E+00 0.  1.
         11    1    3    3    0    0  0.16708894186E+01 -0.52031106049E+01 -0.29288412645E+01  0.62001889350E+01  0.51100000000E-03 0. -1.
        -11    1    3    3    0    0  0.21406718210E+01 -0.75395246096E+01 -0.11135521242E+02  0.13617148776E+02  0.51100000000E-03 0.  1.
         12    1    3    3    0    0 -0.13998298529E+02 -0.22311987058E+02 -0.94095918176E+01  0.27969940049E+02  0.00000000000E+00 0. -1.
</event>
<event>
 7    1  0.3910751E-009  0.4778727E+02  0.7816164E-02  0.1312668E+00
        -11   -1    0    0    0    0  0.00000000000E+00  0.00000000000E+00  0.45593999997E+02  0.45594000000E+02  0.51100000000E-03 0. -1.
         11   -1    0    0    0    0 -0.00000000000E+00 -0.00000000000E+00 -0.45593999997E+02  0.45594000000E+02  0.51100000000E-03 0.  1.
    9900012    2    1    2    0    0  0.16998790766E+02 -0.33953042465E+02  0.21020346936E+02  0.47787274598E+02  0.20000016201E+02 0.  0.
        -12    1    1    2    0    0 -0.16998790766E+02  0.33953042465E+02 -0.21020346936E+02  0.43400725402E+02  0.00000000000E+00 0.  1.
         11    1    3    3    0    0  0.12431659179E+02 -0.26525995584E+02  0.13808781104E+02  0.32386062242E+02  0.51100000000E-03 0. -1.
        -11    1    3    3    0    0  0.73994201053E+01 -0.63820615129E+01  0.30043283001E+01  0.10222921101E+02  0.51100000000E-03 0.  1.
         12    1    3    3    0    0 -0.28322885189E+01 -0.10449853682E+01  0.42072375311E+01  0.51782912546E+01  0.00000000000E+00 0. -1.
</event>
<event>
 7    1  0.3910751E-009  0.4778726E+02  0.7816164E-02  0.1312668E+00
        -11   -1    0    0    0    0  0.00000000000E+00  0.00000000000E+00  0.45593999997E+02  0.45594000000E+02  0.51100000000E-03 0.  1.
         11   -1    0    0    0    0 -0.00000000000E+00 -0.00000000000E+00 -0.45593999997E+02  0.45594000000E+02  0.51100000000E-03 0. -1.
    9900012    2    1    2    0    0  0.11414418979E+02  0.16330708713E+02 -0.38557008032E+02  0.47787264107E+02  0.19999968368E+02 0.  0.
        -12    1    1    2    0    0 -0.11414418979E+02 -0.16330708713E+02  0.38557008032E+02  0.43400735893E+02  0.00000000000E+00 0.  1.
         11    1    3    3    0    0 -0.10285029717E+01  0.11982384747E+02 -0.25154138415E+02  0.27881284803E+02  0.51100000000E-03 0. -1.
        -11    1    3    3    0    0  0.89942150904E+01  0.48577567066E+01 -0.63375090351E+01  0.12027374042E+02  0.51100000000E-03 0.  1.
         12    1    3    3    0    0  0.34487068607E+01 -0.50943274020E+00 -0.70653605816E+01  0.78786052621E+01  0.00000000000E+00 0. -1.
</event>
<event>
 7    1  0.3910751E-009  0.4778727E+02  0.7816164E-02  0.1312668E+00
        -11   -1    0    0    0    0  0.00000000000E+00  0.00000000000E+00  0.45593999997E+02  0.45594000000E+02  0.51100000000E-03 0.  1.
         11   -1    0    0    0    0 -0.00000000000E+00 -0.00000000000E+00 -0.45593999997E+02  0.45594000000E+02  0.51100000000E-03 0. -1.
    9900012    2    1    2    0    0  0.90806022062E+00  0.11476999142E+02 -0.41845871201E+02  0.47787273978E+02  0.20000013375E+02 0.  0.
        -12    1    1    2    0    0 -0.90806022062E+00 -0.11476999142E+02  0.41845871201E+02  0.43400726022E+02  0.00000000000E+00 0.  1.
         11    1    3    3    0    0  0.30330518167E+01  0.10842779528E+02 -0.34483606600E+02  0.36275120890E+02  0.51100000000E-03 0. -1.
        -11    1    3    3    0    0 -0.13756474456E+01  0.17863730225E+01 -0.90551310560E+01  0.93316093560E+01  0.51100000000E-03 0.  1.
        -12    1    3    3    0    0 -0.74934415050E+00 -0.11521534083E+01  0.16928664547E+01  0.21805437317E+01  0.00000000000E+00 0.  1.
</event>
<event>
 7    1  0.3910751E-009  0.4778727E+02  0.7816164E-02  0.1312668E+00
        -11   -1    0    0    0    0  0.00000000000E+00  0.00000000000E+00  0.45593999997E+02  0.45594000000E+02  0.51100000000E-03 0. -1.
         11   -1    0    0    0    0 -0.00000000000E+00 -0.00000000000E+00 -0.45593999997E+02  0.45594000000E+02  0.51100000000E-03 0.  1.
    9900012    2    1    2    0    0 -0.42534507879E+02  0.25448663159E+01 -0.82439276612E+01  0.47787273643E+02  0.20000011846E+02 0.  0.
        -12    1    1    2    0    0  0.42534507879E+02 -0.25448663159E+01  0.82439276612E+01  0.43400726357E+02  0.00000000000E+00 0.  1.
         11    1    3    3    0    0 -0.35740580920E+01 -0.75847079708E+00 -0.30321755450E+01  0.47479740934E+01  0.51100000000E-03 0.  1.
        -11    1    3    3    0    0 -0.19148989733E+02  0.10158569646E+02 -0.13177275342E+01  0.21716738963E+02  0.51100000000E-03 0. -1.
         12    1    3    3    0    0 -0.19811460053E+02 -0.68552325326E+01 -0.38940245820E+01  0.21322560587E+02  0.00000000000E+00 0. -1.
</event>
<event>
 7    1  0.3910751E-009  0.4778727E+02  0.7816164E-02  0.1312668E+00
        -11   -1    0    0    0    0  0.00000000000E+00  0.00000000000E+00  0.45593999997E+02  0.45594000000E+02  0.51100000000E-03 0.  1.
         11   -1    0    0    0    0 -0.00000000000E+00 -0.00000000000E+00 -0.45593999997E+02  0.45594000000E+02  0.51100000000E-03 0. -1.
    9900012    2    1    2    0    0  0.39521729462E+02 -0.16078290723E+02 -0.79463479191E+01  0.47787274459E+02  0.20000015569E+02 0.  0.
        -12    1    1    2    0    0 -0.39521729462E+02  0.16078290723E+02  0.79463479191E+01  0.43400725541E+02  0.00000000000E+00 0.  1.
         11    1    3    3    0    0  0.12283626393E+02 -0.12193986930E+02 -0.76319192806E+01  0.18916315360E+02  0.51100000000E-03 0. -1.
        -11    1    3    3    0    0  0.11578235994E+01 -0.10119088574E+01 -0.20650127679E+01  0.25746442503E+01  0.51100000000E-03 0.  1.
        -12    1    3    3    0    0  0.26080279469E+02 -0.28723949357E+01  0.17505841294E+01  0.26296314849E+02  0.00000000000E+00 0.  1.
</event>
<event>
 7    1  0.3910751E-009  0.4778727E+02  0.7816164E-02  0.1312668E+00
        -11   -1    0    0    0    0  0.00000000000E+00  0.00000000000E+00  0.45593999997E+02  0.45594000000E+02  0.51100000000E-03 0.  1.
         11   -1    0    0    0    0 -0.00000000000E+00 -0.00000000000E+00 -0.45593999997E+02  0.45594000000E+02  0.51100000000E-03 0. -1.
    9900012    2    1    2    0    0 -0.21822472387E+02 -0.36612597030E+02  0.81804995977E+01  0.47787272632E+02  0.20000007240E+02 0.  0.
        -12    1    1    2    0    0  0.21822472387E+02  0.36612597030E+02 -0.81804995977E+01  0.43400727368E+02  0.00000000000E+00 0.  1.
         11    1    3    3    0    0 -0.41506045768E+01 -0.20861834613E+02  0.84973645756E+01  0.22905214837E+02  0.51100000000E-03 0. -1.
        -11    1    3    3    0    0 -0.18353596201E+01 -0.60166508238E+01 -0.16468113688E+00  0.62925155707E+01  0.51100000000E-03 0.  1.
        -12    1    3    3    0    0 -0.15836508190E+02 -0.97341115937E+01 -0.15218384098E+00  0.18589542224E+02  0.00000000000E+00 0.  1.
</event>
<event>
 7    1  0.3910751E-009  0.4778727E+02  0.7816164E-02  0.1312668E+00
        -11   -1    0    0    0    0  0.00000000000E+00  0.00000000000E+00  0.45593999997E+02  0.45594000000E+02  0.51100000000E-03 0. -1.
         11   -1    0    0    0    0 -0.00000000000E+00 -0.00000000000E+00 -0.45593999997E+02  0.45594000000E+02  0.51100000000E-03 0.  1.
    9900012    2    1    2    0    0  0.37106603563E+02 -0.18728802974E+02 -0.12488209614E+02  0.47787268806E+02  0.19999989793E+02 0.  0.
        -12    1    1    2    0    0 -0.37106603563E+02  0.18728802974E+02  0.12488209614E+02  0.43400731194E+02  0.00000000000E+00 0.  1.
         11    1    3    3    0    0  0.25956185609E+02 -0.97082476359E+01 -0.91610326124E+01  0.29187294535E+02  0.51100000000E-03 0. -1.
        -11    1    3    3    0    0  0.60470635387E+01 -0.10783245412E+02 -0.20855463361E+00  0.12364823264E+02  0.51100000000E-03 0.  1.
         12    1    3    3    0    0  0.51033544161E+01  0.17626900744E+01 -0.31186223682E+01  0.62351510062E+01  0.00000000000E+00 0. -1.
</event>
<event>
 7    1  0.3910751E-009  0.4778727E+02  0.7816164E-02  0.1312668E+00
        -11   -1    0    0    0    0  0.00000000000E+00  0.00000000000E+00  0.45593999997E+02  0.45594000000E+02  0.51100000000E-03 0.  1.
         11   -1    0    0    0    0 -0.00000000000E+00 -0.00000000000E+00 -0.45593999997E+02  0.45594000000E+02  0.51100000000E-03 0. -1.
    9900012    2    1    2    0    0  0.20924228704E+02  0.14153427420E+02 -0.35291367841E+02  0.47787268455E+02  0.19999988192E+02 0.  0.
        -12    1    1    2    0    0 -0.20924228704E+02 -0.14153427420E+02  0.35291367841E+02  0.43400731545E+02  0.00000000000E+00 0.  1.
         11    1    3    3    0    0  0.22516720409E-01  0.20320448759E+01 -0.44525495430E+01  0.48943754529E+01  0.51100000000E-03 0. -1.
        -11    1    3    3    0    0  0.15324361616E+02  0.13358626579E+02 -0.31121393424E+02  0.37172975291E+02  0.51100000000E-03 0.  1.
        -12    1    3    3    0    0  0.55773503671E+01 -0.12372440350E+01  0.28257512634E+00  0.57199177111E+01  0.00000000000E+00 0.  1.
</event>
<event>
 7    1  0.3910751E-009  0.4778727E+02  0.7816164E-02  0.1312668E+00
        -11   -1    0    0    0    0  0.00000000000E+00  0.00000000000E+00  0.45593999997E+02  0.45594000000E+02  0.51100000000E-03 0.  1.
         11   -1    0    0    0    0 -0.00000000000E+00 -0.00000000000E+00 -0.45593999997E+02  0.45594000000E+02  0.51100000000E-03 0. -1.
    9900012    2    1    2    0    0  0.36449295072E+02 -0.13149502154E+02 -0.19548981981E+02  0.47787271727E+02  0.20000003113E+02 0.  0.
        -12    1    1    2    0    0 -0.36449295072E+02  0.13149502154E+02  0.19548981981E+02  0.43400728273E+02  0.00000000000E+00 0.  1.
         11    1    3    3    0    0  0.24832408198E+02 -0.16723503570E+02 -0.10690927737E+02  0.31790250151E+02  0.51100000000E-03 0. -1.
        -11    1    3    3    0    0  0.15862014339E+01 -0.11035778439E+01 -0.27341103264E+01  0.33480260729E+01  0.51100000000E-03 0.  1.
        -12    1    3    3    0    0  0.10030685440E+02  0.46775792600E+01 -0.61239439181E+01  0.12648995503E+02  0.00000000000E+00 0.  1.
</event>
<event>
 7    1  0.3910751E-009  0.4778727E+02  0.7816164E-02  0.1312668E+00
        -11   -1    0    0    0    0  0.00000000000E+00  0.00000000000E+00  0.45593999997E+02  0.45594000000E+02  0.51100000000E-03 0.  1.
         11   -1    0    0    0    0 -0.00000000000E+00 -0.00000000000E+00 -0.45593999997E+02  0.45594000000E+02  0.51100000000E-03 0. -1.
    9900012    2    1    2    0    0 -0.17382337502E+02 -0.32272357145E+02 -0.23237312621E+02  0.47787269700E+02  0.19999993871E+02 0.  0.
        -12    1    1    2    0    0  0.17382337502E+02  0.32272357145E+02  0.23237312621E+02  0.43400730300E+02  0.00000000000E+00 0.  1.
         11    1    3    3    0    0 -0.98538477860E+01 -0.85624074017E+01 -0.11367539985E+01  0.13103638679E+02  0.51100000000E-03 0. -1.
        -11    1    3    3    0    0 -0.58641193197E+01 -0.82579268920E+01 -0.41644646968E+01  0.10950982532E+02  0.51100000000E-03 0.  1.
        -12    1    3    3    0    0 -0.16643703960E+01 -0.15452022851E+02 -0.17936093926E+02  0.23732648489E+02  0.00000000000E+00 0.  1.
</event>
<event>
 7    1  0.3910751E-009  0.4778727E+02  0.7816164E-02  0.1312668E+00
        -11   -1    0    0    0    0  0.00000000000E+00  0.00000000000E+00  0.45593999997E+02  0.45594000000E+02  0.51100000000E-03 0. -1.
         11   -1    0    0    0    0 -0.00000000000E+00 -0.00000000000E+00 -0.45593999997E+02  0.45594000000E+02  0.51100000000E-03 0.  1.
    9900012    2    1    2    0    0 -0.26231667987E+02 -0.23723993437E+02  0.25153433928E+02  0.47787268343E+02  0.19999987683E+02 0.  0.
        -12    1    1    2    0    0  0.26231667987E+02  0.23723993437E+02 -0.25153433928E+02  0.43400731657E+02  0.00000000000E+00 0.  1.
         11    1    3    3    0    0 -0.64576549994E+01 -0.91914784172E+01  0.29218548222E+01  0.11606972880E+02  0.51100000000E-03 0. -1.
        -11    1    3    3    0    0 -0.64764473757E+01 -0.15498047339E+01 -0.66316868423E+00  0.66922386604E+01  0.51100000000E-03 0.  1.
         12    1    3    3    0    0 -0.13297565612E+02 -0.12982710286E+02  0.22894747790E+02  0.29488056802E+02  0.00000000000E+00 0. -1.
</event>
<event>
 7    1  0.3910751E-009  0.4778731E+02  0.7816164E-02  0.1312668E+00
        -11   -1    0    0    0    0  0.00000000000E+00  0.00000000000E+00  0.45593999997E+02  0.45594000000E+02  0.51100000000E-03 0.  1.
         11   -1    0    0    0    0 -0.00000000000E+00 -0.00000000000E+00 -0.45593999997E+02  0.45594000000E+02  0.51100000000E-03 0. -1.
    9900012    2    1    2    0    0  0.13702192429E+02  0.32573758342E+02 -0.25195641737E+02  0.47787306775E+02  0.20000162908E+02 0.  0.
        -12    1    1    2    0    0 -0.13702192429E+02 -0.32573758342E+02  0.25195641737E+02  0.43400693225E+02  0.00000000000E+00 0.  1.
         11    1    3    3    0    0  0.24024310239E+01  0.14776983907E+02 -0.62897586812E+01  0.16238595775E+02  0.51100000000E-03 0. -1.
        -11    1    3    3    0    0  0.11888539334E+02  0.15741972118E+02 -0.94854597599E+01  0.21888832787E+02  0.51100000000E-03 0.  1.
        -12    1    3    3    0    0 -0.58877792903E+00  0.20548023177E+01 -0.94204232959E+01  0.96598782129E+01  0.00000000000E+00 0.  1.
</event>
<event>
 7    1  0.3910751E-009  0.4778727E+02  0.7816164E-02  0.1312668E+00
        -11   -1    0    0    0    0  0.00000000000E+00  0.00000000000E+00  0.45593999997E+02  0.45594000000E+02  0.51100000000E-03 0.  1.
         11   -1    0    0    0    0 -0.00000000000E+00 -0.00000000000E+00 -0.45593999997E+02  0.45594000000E+02  0.51100000000E-03 0. -1.
    9900012    2    1    2    0    0 -0.32099960718E+02  0.96942042293E+01 -0.27554276710E+02  0.47787271449E+02  0.20000001846E+02 0.  0.
        -12    1    1    2    0    0  0.32099960718E+02 -0.96942042293E+01  0.27554276710E+02  0.43400728551E+02  0.00000000000E+00 0.  1.
         11    1    3    3    0    0 -0.52466194105E+01  0.72468373718E+01 -0.10916834116E+02  0.14114564624E+02  0.51100000000E-03 0. -1.
        -11    1    3    3    0    0 -0.33317984161E-01 -0.20689351298E+01 -0.13890194190E+01  0.24921833534E+01  0.51100000000E-03 0.  1.
         12    1    3    3    0    0 -0.26820023323E+02  0.45163019874E+01 -0.15248423175E+02  0.31180523472E+02  0.00000000000E+00 0. -1.
</event>
<event>
 7    1  0.3910751E-009  0.4778726E+02  0.7816164E-02  0.1312668E+00
        -11   -1    0    0    0    0  0.00000000000E+00  0.00000000000E+00  0.45593999997E+02  0.45594000000E+02  0.51100000000E-03 0.  1.
         11   -1    0    0    0    0 -0.00000000000E+00 -0.00000000000E+00 -0.45593999997E+02  0.45594000000E+02  0.51100000000E-03 0. -1.
    9900012    2    1    2    0    0 -0.46310672862E+01 -0.13102067517E+02 -0.41115851487E+02  0.47787260364E+02  0.19999951305E+02 0.  0.
        -12    1    1    2    0    0  0.46310672862E+01  0.13102067517E+02  0.41115851487E+02  0.43400739636E+02  0.00000000000E+00 0.  1.
         11    1    3    3    0    0 -0.14317174176E+01  0.33613531224E+00  0.44986181664E+00  0.15379134004E+01  0.51100000000E-03 0. -1.
        -11    1    3    3    0    0  0.30807914069E+01 -0.41545193880E+01 -0.27704488264E+01  0.58674265227E+01  0.51100000000E-03 0.  1.
         12    1    3    3    0    0 -0.62801412756E+01 -0.92836834409E+01 -0.38795264477E+02  0.40381920441E+02  0.00000000000E+00 0. -1.
</event>
<event>
 7    1  0.3910751E-009  0.4778727E+02  0.7816164E-02  0.1312668E+00
        -11   -1    0    0    0    0  0.00000000000E+00  0.00000000000E+00  0.45593999997E+02  0.45594000000E+02  0.51100000000E-03 0.  1.
         11   -1    0    0    0    0 -0.00000000000E+00 -0.00000000000E+00 -0.45593999997E+02  0.45594000000E+02  0.51100000000E-03 0. -1.
    9900012    2    1    2    0    0  0.33256370249E+02  0.21755886578E+02 -0.17444731998E+02  0.47787269161E+02  0.19999991410E+02 0.  0.
        -12    1    1    2    0    0 -0.33256370249E+02 -0.21755886578E+02  0.17444731998E+02  0.43400730839E+02  0.00000000000E+00 0.  1.
         11    1    3    3    0    0  0.15831192663E+02  0.68353220438E+01 -0.34410870845E+01  0.17583781424E+02  0.51100000000E-03 0. -1.
        -11    1    3    3    0    0  0.18594515437E+02  0.88834824422E+01 -0.10561999280E+02  0.23156599355E+02  0.51100000000E-03 0.  1.
        -12    1    3    3    0    0 -0.11693378514E+01  0.60370820917E+01 -0.34416456337E+01  0.70468883814E+01  0.00000000000E+00 0.  1.
</event>
<event>
 7    1  0.3910751E-009  0.4778727E+02  0.7816164E-02  0.1312668E+00
        -11   -1    0    0    0    0  0.00000000000E+00  0.00000000000E+00  0.45593999997E+02  0.45594000000E+02  0.51100000000E-03 0.  1.
         11   -1    0    0    0    0 -0.00000000000E+00 -0.00000000000E+00 -0.45593999997E+02  0.45594000000E+02  0.51100000000E-03 0. -1.
    9900012    2    1    2    0    0 -0.31790904962E+02 -0.13108870145E+02 -0.26478658139E+02  0.47787268997E+02  0.19999990665E+02 0.  0.
        -12    1    1    2    0    0  0.31790904962E+02  0.13108870145E+02  0.26478658139E+02  0.43400731003E+02  0.00000000000E+00 0.  1.
         11    1    3    3    0    0 -0.82774094439E+01 -0.10409721218E+02 -0.13429112057E+02  0.18900234228E+02  0.51100000000E-03 0. -1.
        -11    1    3    3    0    0  0.53032311240E-01  0.10926843448E+01 -0.26183086274E+01  0.28376595696E+01  0.51100000000E-03 0.  1.
         12    1    3    3    0    0 -0.23566527829E+02 -0.37918332717E+01 -0.10431237454E+02  0.26049375200E+02  0.00000000000E+00 0. -1.
</event>
<event>
 7    1  0.3910751E-009  0.4778727E+02  0.7816164E-02  0.1312668E+00
        -11   -1    0    0    0    0  0.00000000000E+00  0.00000000000E+00  0.45593999997E+02  0.45594000000E+02  0.51100000000E-03 0. -1.
         11   -1    0    0    0    0 -0.00000000000E+00 -0.00000000000E+00 -0.45593999997E+02  0.45594000000E+02  0.51100000000E-03 0.  1.
    9900012    2    1    2    0    0  0.17752788348E+02 -0.17124121932E+02  0.35710309557E+02  0.47787271265E+02  0.20000001004E+02 0.  0.
        -12    1    1    2    0    0 -0.17752788348E+02  0.17124121932E+02 -0.35710309557E+02  0.43400728735E+02  0.00000000000E+00 0.  1.
         11    1    3    3    0    0  0.12640675797E+02 -0.12473163664E+02  0.15241543336E+02  0.23402374664E+02  0.51100000000E-03 0. -1.
        -11    1    3    3    0    0  0.52908246862E+01 -0.57886843278E+01  0.60100981493E+01  0.98804338029E+01  0.51100000000E-03 0.  1.
        -12    1    3    3    0    0 -0.17871213548E+00  0.11377260601E+01  0.14458668073E+02  0.14504462798E+02  0.00000000000E+00 0.  1.
</event>
<event>
 7    1  0.3910751E-009  0.4778727E+02  0.7816164E-02  0.1312668E+00
        -11   -1    0    0    0    0  0.00000000000E+00  0.00000000000E+00  0.45593999997E+02  0.45594000000E+02  0.51100000000E-03 0. -1.
         11   -1    0    0    0    0 -0.00000000000E+00 -0.00000000000E+00 -0.45593999997E+02  0.45594000000E+02  0.51100000000E-03 0.  1.
    9900012    2    1    2    0    0  0.21667082138E+01 -0.39546636336E+02  0.17748018107E+02  0.47787271703E+02  0.20000003004E+02 0.  0.
        -12    1    1    2    0    0 -0.21667082138E+01  0.39546636336E+02 -0.17748018107E+02  0.43400728297E+02  0.00000000000E+00 0.  1.
         11    1    3    3    0    0  0.54675890349E+01 -0.10699459692E+02 -0.51423853673E+00  0.12026529386E+02  0.51100000000E-03 0. -1.
        -11    1    3    3    0    0  0.15345249286E+01 -0.68901718401E+01  0.90157925006E+01  0.11450491230E+02  0.51100000000E-03 0.  1.
         12    1    3    3    0    0 -0.48354057497E+01 -0.21957004804E+02  0.92464641427E+01  0.24310251086E+02  0.00000000000E+00 0. -1.
</event>
<event>
 7    1  0.3910751E-009  0.4778727E+02  0.7816164E-02  0.1312668E+00
        -11   -1    0    0    0    0  0.00000000000E+00  0.00000000000E+00  0.45593999997E+02  0.45594000000E+02  0.51100000000E-03 0.  1.
         11   -1    0    0    0    0 -0.00000000000E+00 -0.00000000000E+00 -0.45593999997E+02  0.45594000000E+02  0.51100000000E-03 0. -1.
    9900012    2    1    2    0    0 -0.29515990892E+02 -0.31475262533E+02  0.46623230592E+01  0.47787272746E+02  0.20000007759E+02 0.  0.
        -12    1    1    2    0    0  0.29515990892E+02  0.31475262533E+02 -0.46623230592E+01  0.43400727254E+02  0.00000000000E+00 0.  1.
         11    1    3    3    0    0 -0.33401288190E+01 -0.54871139036E+00  0.26183405801E+01  0.42793985993E+01  0.51100000000E-03 0. -1.
        -11    1    3    3    0    0 -0.35465844744E+00 -0.24554461847E+00  0.33581471121E+01  0.33857387764E+01  0.51100000000E-03 0.  1.
         12    1    3    3    0    0 -0.25821203626E+02 -0.30681006524E+02 -0.13141646331E+01  0.40122135370E+02  0.00000000000E+00 0. -1.
</event>
<event>
 7    1  0.3910751E-009  0.4778727E+02  0.7816164E-02  0.1312668E+00
        -11   -1    0    0    0    0  0.00000000000E+00  0.00000000000E+00  0.45593999997E+02  0.45594000000E+02  0.51100000000E-03 0. -1.
         11   -1    0    0    0    0 -0.00000000000E+00 -0.00000000000E+00 -0.45593999997E+02  0.45594000000E+02  0.51100000000E-03 0.  1.
    9900012    2    1    2    0    0  0.30932804108E+02  0.17186385210E+02  0.25127933495E+02  0.47787271339E+02  0.20000001344E+02 0.  0.
        -12    1    1    2    0    0 -0.30932804108E+02 -0.17186385210E+02 -0.25127933495E+02  0.43400728661E+02  0.00000000000E+00 0.  1.
         11    1    3    3    0    0  0.48529857649E+01 -0.12354863656E+01  0.61256913031E+00  0.50451103650E+01  0.51100000000E-03 0. -1.
        -11    1    3    3    0    0 -0.28307546905E+00  0.41542732055E+01  0.66500112029E+01  0.78460669667E+01  0.51100000000E-03 0.  1.
        -12    1    3    3    0    0  0.26362893812E+02  0.14267598370E+02  0.17865353161E+02  0.34896094008E+02  0.00000000000E+00 0.  1.
</event>
<event>
 7    1  0.3910751E-009  0.4778727E+02  0.7816164E-02  0.1312668E+00
        -11   -1    0    0    0    0  0.00000000000E+00  0.00000000000E+00  0.45593999997E+02  0.45594000000E+02  0.51100000000E-03 0.  1.
         11   -1    0    0    0    0 -0.00000000000E+00 -0.00000000000E+00 -0.45593999997E+02  0.45594000000E+02  0.51100000000E-03 0. -1.
    9900012    2    1    2    0    0  0.39153739670E+01  0.15375176859E+02 -0.40396744501E+02  0.47787272091E+02  0.20000004772E+02 0.  0.
        -12    1    1    2    0    0 -0.39153739670E+01 -0.15375176859E+02  0.40396744501E+02  0.43400727909E+02  0.00000000000E+00 0.  1.
         11    1    3    3    0    0  0.26462441593E+01  0.14319043288E+02 -0.19807605457E+02  0.24584117698E+02  0.51100000000E-03 0. -1.
        -11    1    3    3    0    0 -0.33914106856E+01  0.18703174272E+01 -0.27568970876E+01  0.47539705016E+01  0.51100000000E-03 0.  1.
         12    1    3    3    0    0  0.46605404933E+01 -0.81418385573E+00 -0.17832241957E+02  0.18449183891E+02  0.00000000000E+00 0. -1.
</event>
<event>
 7    1  0.3910751E-009  0.4778732E+02  0.7816164E-02  0.1312668E+00
        -11   -1    0    0    0    0  0.00000000000E+00  0.00000000000E+00  0.45593999997E+02  0.45594000000E+02  0.51100000000E-03 0.  1.
         11   -1    0    0    0    0 -0.00000000000E+00 -0.00000000000E+00 -0.45593999997E+02  0.45594000000E+02  0.51100000000E-03 0. -1.
    9900012    2    1    2    0    0 -0.17789094346E+02 -0.22774570557E+01 -0.39521894384E+02  0.47787322309E+02  0.20000233736E+02 0.  0.
        -12    1    1    2    0    0  0.17789094346E+02  0.22774570557E+01  0.39521894384E+02  0.43400677691E+02  0.00000000000E+00 0.  1.
         11    1    3    3    0    0  0.10890995499E+01 -0.79254018113E+00  0.18215481099E+00  0.13592050635E+01  0.51100000000E-03 0. -1.
        -11    1    3    3    0    0  0.10939581159E+01 -0.37672828100E+01 -0.55295156087E+01  0.67797276684E+01  0.51100000000E-03 0.  1.
         12    1    3    3    0    0 -0.19972152012E+02  0.22823659355E+01 -0.34174533586E+02  0.39648389578E+02  0.00000000000E+00 0. -1.
</event>
<event>
 7    1  0.3910751E-009  0.4778727E+02  0.7816164E-02  0.1312668E+00
        -11   -1    0    0    0    0  0.00000000000E+00  0.00000000000E+00  0.45593999997E+02  0.45594000000E+02  0.51100000000E-03 0.  1.
         11   -1    0    0    0    0 -0.00000000000E+00 -0.00000000000E+00 -0.45593999997E+02  0.45594000000E+02  0.51100000000E-03 0. -1.
    9900012    2    1    2    0    0 -0.88767307880E+01  0.40062042897E+02  0.14137183461E+02  0.47787267440E+02  0.19999983565E+02 0.  0.
        -12    1    1    2    0    0  0.88767307880E+01 -0.40062042897E+02 -0.14137183461E+02  0.43400732560E+02  0.00000000000E+00 0.  1.
         11    1    3    3    0    0 -0.82856830036E+01  0.19262722675E+02  0.34796973382E+01  0.21255900863E+02  0.51100000000E-03 0. -1.
        -11    1    3    3    0    0 -0.42366632761E+01  0.18989700815E+01  0.41068620423E+01  0.61985255651E+01  0.51100000000E-03 0.  1.
         12    1    3    3    0    0  0.36456154917E+01  0.18900350141E+02  0.65506240803E+01  0.20332841011E+02  0.00000000000E+00 0. -1.
</event>
<event>
 7    1  0.3910751E-009  0.4778728E+02  0.7816164E-02  0.1312668E+00
        -11   -1    0    0    0    0  0.00000000000E+00  0.00000000000E+00  0.45593999997E+02  0.45594000000E+02  0.51100000000E-03 0.  1.
         11   -1    0    0    0    0 -0.00000000000E+00 -0.00000000000E+00 -0.45593999997E+02  0.45594000000E+02  0.51100000000E-03 0. -1.
    9900012    2    1    2    0    0 -0.17094704659E+02 -0.29482750685E+02 -0.26873053337E+02  0.47787279833E+02  0.20000040072E+02 0.  0.
        -12    1    1    2    0    0  0.17094704659E+02  0.29482750685E+02  0.26873053337E+02  0.43400720167E+02  0.00000000000E+00 0.  1.
         11    1    3    3    0    0 -0.10927546691E+02 -0.11887331075E+02 -0.17529847807E+02  0.23833075361E+02  0.51100000000E-03 0. -1.
        -11    1    3    3    0    0 -0.97148505552E+01 -0.13278504792E+02 -0.73731009587E+01  0.18029410108E+02  0.51100000000E-03 0.  1.
        -12    1    3    3    0    0  0.35476925872E+01 -0.43169148180E+01 -0.19701045716E+01  0.59247943645E+01  0.00000000000E+00 0.  1.
</event>
<event>
 7    1  0.3910751E-009  0.4778725E+02  0.7816164E-02  0.1312668E+00
        -11   -1    0    0    0    0  0.00000000000E+00  0.00000000000E+00  0.45593999997E+02  0.45594000000E+02  0.51100000000E-03 0. -1.
         11   -1    0    0    0    0 -0.00000000000E+00 -0.00000000000E+00 -0.45593999997E+02  0.45594000000E+02  0.51100000000E-03 0.  1.
    9900012    2    1    2    0    0 -0.25473804618E+02  0.25476921242E+02  0.24199942026E+02  0.47787246184E+02  0.19999886653E+02 0.  0.
        -12    1    1    2    0    0  0.25473804618E+02 -0.25476921242E+02 -0.24199942026E+02  0.43400753816E+02  0.00000000000E+00 0.  1.
         11    1    3    3    0    0 -0.81848163288E+01  0.85779344055E+01 -0.45108661442E+00  0.11864891757E+02  0.51100000000E-03 0. -1.
        -11    1    3    3    0    0 -0.42493917612E+01  0.43721277471E+01  0.10433517802E+01  0.61855811833E+01  0.51100000000E-03 0.  1.
        -12    1    3    3    0    0 -0.13039596528E+02  0.12526859090E+02  0.23607676860E+02  0.29736773244E+02  0.00000000000E+00 0.  1.
</event>
<event>
 7    1  0.3910751E-009  0.4778727E+02  0.7816164E-02  0.1312668E+00
        -11   -1    0    0    0    0  0.00000000000E+00  0.00000000000E+00  0.45593999997E+02  0.45594000000E+02  0.51100000000E-03 0.  1.
         11   -1    0    0    0    0 -0.00000000000E+00 -0.00000000000E+00 -0.45593999997E+02  0.45594000000E+02  0.51100000000E-03 0. -1.
    9900012    2    1    2    0    0 -0.28593904428E+02 -0.29924396632E+02 -0.13059183229E+02  0.47787272462E+02  0.20000006462E+02 0.  0.
        -12    1    1    2    0    0  0.28593904428E+02  0.29924396632E+02  0.13059183229E+02  0.43400727538E+02  0.00000000000E+00 0.  1.
         11    1    3    3    0    0 -0.12643876615E+02 -0.68227095236E+01 -0.11606834510E+02  0.18469856218E+02  0.51100000000E-03 0. -1.
        -11    1    3    3    0    0  0.85690626988E+00 -0.15274460077E+01  0.69689317311E+00  0.18849509324E+01  0.51100000000E-03 0.  1.
        -12    1    3    3    0    0 -0.16806934084E+02 -0.21574241101E+02 -0.21492418915E+01  0.27432465312E+02  0.00000000000E+00 0.  1.
</event>
<event>
 7    1  0.3910751E-009  0.4778729E+02  0.7816164E-02  0.1312668E+00
        -11   -1    0    0    0    0  0.00000000000E+00  0.00000000000E+00  0.45593999997E+02  0.45594000000E+02  0.51100000000E-03 0.  1.
         11   -1    0    0    0    0 -0.00000000000E+00 -0.00000000000E+00 -0.45593999997E+02  0.45594000000E+02  0.51100000000E-03 0. -1.
    9900012    2    1    2    0    0 -0.29743717526E+02 -0.27504472847E+02 -0.15570384504E+02  0.47787289954E+02  0.20000086218E+02 0.  0.
        -12    1    1    2    0    0  0.29743717526E+02  0.27504472847E+02  0.15570384504E+02  0.43400710046E+02  0.00000000000E+00 0.  1.
         11    1    3    3    0    0 -0.12827586828E+02 -0.70891430089E+01 -0.79180625491E+01  0.16658290646E+02  0.51100000000E-03 0. -1.
        -11    1    3    3    0    0 -0.17570514502E+02 -0.11070662553E+02 -0.60011530145E+01  0.21617039274E+02  0.51100000000E-03 0.  1.
        -12    1    3    3    0    0  0.65438380390E+00 -0.93446672851E+01 -0.16511689401E+01  0.95119600346E+01  0.00000000000E+00 0.  1.
</event>
<event>
 7    1  0.3910751E-009  0.4778728E+02  0.7816164E-02  0.1312668E+00
        -11   -1    0    0    0    0  0.00000000000E+00  0.00000000000E+00  0.45593999997E+02  0.45594000000E+02  0.51100000000E-03 0. -1.
         11   -1    0    0    0    0 -0.00000000000E+00 -0.00000000000E+00 -0.45593999997E+02  0.45594000000E+02  0.51100000000E-03 0.  1.
    9900012    2    1    2    0    0  0.96063785509E+01  0.10296004533E+02  0.41052797798E+02  0.47787280821E+02  0.20000044575E+02 0.  0.
        -12    1    1    2    0    0 -0.96063785509E+01 -0.10296004533E+02 -0.41052797798E+02  0.43400719179E+02  0.00000000000E+00 0.  1.
         11    1    3    3    0    0  0.43446515682E+01  0.15519749402E+02  0.26164527570E+02  0.30729808363E+02  0.51100000000E-03 0.  1.
        -11    1    3    3    0    0  0.60116543120E+00 -0.21774994701E+01  0.73275896350E+01  0.76678858846E+01  0.51100000000E-03 0. -1.
        -12    1    3    3    0    0  0.46605615516E+01 -0.30462453988E+01  0.75606805925E+01  0.93895865738E+01  0.00000000000E+00 0.  1.
</event>
<event>
 7    1  0.3910751E-009  0.4778727E+02  0.7816164E-02  0.1312668E+00
        -11   -1    0    0    0    0  0.00000000000E+00  0.00000000000E+00  0.45593999997E+02  0.45594000000E+02  0.51100000000E-03 0. -1.
         11   -1    0    0    0    0 -0.00000000000E+00 -0.00000000000E+00 -0.45593999997E+02  0.45594000000E+02  0.51100000000E-03 0.  1.
    9900012    2    1    2    0    0 -0.65467606079E+00  0.38146883477E+02  0.20688400507E+02  0.47787271489E+02  0.20000002027E+02 0.  0.
        -12    1    1    2    0    0  0.65467606079E+00 -0.38146883477E+02 -0.20688400507E+02  0.43400728511E+02  0.00000000000E+00 0.  1.
         11    1    3    3    0    0  0.28353841856E+01  0.31897397962E+01  0.70594302895E+01  0.82492060055E+01  0.51100000000E-03 0. -1.
        -11    1    3    3    0    0  0.14601275565E+01  0.95858170612E+01 -0.11458450064E+01  0.97638528385E+01  0.51100000000E-03 0.  1.
         12    1    3    3    0    0 -0.49501878029E+01  0.25371326620E+02  0.14774815223E+02  0.29774212645E+02  0.00000000000E+00 0. -1.
</event>
<event>
 7    1  0.3910751E-009  0.4778727E+02  0.7816164E-02  0.1312668E+00
        -11   -1    0    0    0    0  0.00000000000E+00  0.00000000000E+00  0.45593999997E+02  0.45594000000E+02  0.51100000000E-03 0.  1.
         11   -1    0    0    0    0 -0.00000000000E+00 -0.00000000000E+00 -0.45593999997E+02  0.45594000000E+02  0.51100000000E-03 0. -1.
    9900012    2    1    2    0    0  0.37980053086E+02  0.18218153945E+02 -0.10451694736E+02  0.47787268573E+02  0.19999988731E+02 0.  0.
        -12    1    1    2    0    0 -0.37980053086E+02 -0.18218153945E+02  0.10451694736E+02  0.43400731427E+02  0.00000000000E+00 0.  1.
         11    1    3    3    0    0  0.15170069814E+02  0.12364370935E+02 -0.11492109731E+02  0.22695313902E+02  0.51100000000E-03 0. -1.
        -11    1    3    3    0    0  0.87331109137E+01  0.14499320261E+01 -0.37064852191E+01  0.95972684683E+01  0.51100000000E-03 0.  1.
        -12    1    3    3    0    0  0.14076872358E+02  0.44038509846E+01  0.47469002138E+01  0.15494686203E+02  0.00000000000E+00 0.  1.
</event>
<event>
 7    1  0.3910751E-009  0.4778727E+02  0.7816164E-02  0.1312668E+00
        -11   -1    0    0    0    0  0.00000000000E+00  0.00000000000E+00  0.45593999997E+02  0.45594000000E+02  0.51100000000E-03 0. -1.
         11   -1    0    0    0    0 -0.00000000000E+00 -0.00000000000E+00 -0.45593999997E+02  0.45594000000E+02  0.51100000000E-03 0.  1.
    9900012    2    1    2    0    0 -0.24558208392E+02 -0.28427935248E+02 -0.21734082186E+02  0.47787269242E+02  0.19999991780E+02 0.  0.
        -12    1    1    2    0    0  0.24558208392E+02  0.28427935248E+02  0.21734082186E+02  0.43400730758E+02  0.00000000000E+00 0.  1.
         11    1    3    3    0    0  0.26849739694E+00  0.58177218891E+00  0.19331625626E+00  0.66926912973E+00  0.51100000000E-03 0.  1.
        -11    1    3    3    0    0 -0.44168159309E+01 -0.16226404247E+02 -0.45534000119E+01  0.17422339386E+02  0.51100000000E-03 0. -1.
         12    1    3    3    0    0 -0.20409889858E+02 -0.12783303189E+02 -0.17373998431E+02  0.29695660726E+02  0.00000000000E+00 0. -1.
</event>
<event>
 7    1  0.3910751E-009  0.4778727E+02  0.7816164E-02  0.1312668E+00
        -11   -1    0    0    0    0  0.00000000000E+00  0.00000000000E+00  0.45593999997E+02  0.45594000000E+02  0.51100000000E-03 0.  1.
         11   -1    0    0    0    0 -0.00000000000E+00 -0.00000000000E+00 -0.45593999997E+02  0.45594000000E+02  0.51100000000E-03 0. -1.
    9900012    2    1    2    0    0  0.28507354806E+02  0.32662637873E+02 -0.20263749223E+01  0.47787269750E+02  0.19999994099E+02 0.  0.
        -12    1    1    2    0    0 -0.28507354806E+02 -0.32662637873E+02  0.20263749223E+01  0.43400730250E+02  0.00000000000E+00 0.  1.
         11    1    3    3    0    0  0.18720472467E+02  0.28285722260E+02 -0.11456637779E+01  0.33938926307E+02  0.51100000000E-03 0. -1.
        -11    1    3    3    0    0  0.97564671207E+01  0.55020095069E+01  0.14165899700E+01  0.11290149985E+02  0.51100000000E-03 0.  1.
         12    1    3    3    0    0  0.30415218519E-01 -0.11250938935E+01 -0.22973011144E+01  0.25581934573E+01  0.00000000000E+00 0. -1.
</event>
<event>
 7    1  0.3910751E-009  0.4778721E+02  0.7816164E-02  0.1312668E+00
        -11   -1    0    0    0    0  0.00000000000E+00  0.00000000000E+00  0.45593999997E+02  0.45594000000E+02  0.51100000000E-03 0. -1.
         11   -1    0    0    0    0 -0.00000000000E+00 -0.00000000000E+00 -0.45593999997E+02  0.45594000000E+02  0.51100000000E-03 0.  1.
    9900012    2    1    2    0    0  0.21033986030E+02  0.27847005937E+02  0.25802023478E+02  0.47787208262E+02  0.19999713745E+02 0.  0.
        -12    1    1    2    0    0 -0.21033986030E+02 -0.27847005937E+02 -0.25802023478E+02  0.43400791738E+02  0.00000000000E+00 0.  1.
         11    1    3    3    0    0  0.13089585715E+02  0.10233741566E+02  0.67283819414E+01  0.17925898707E+02  0.51100000000E-03 0. -1.
        -11    1    3    3    0    0  0.77495610097E+01  0.41572306214E+01  0.11304121921E+02  0.14322061128E+02  0.51100000000E-03 0.  1.
         12    1    3    3    0    0  0.19483930545E+00  0.13456033749E+02  0.77695196157E+01  0.15539248427E+02  0.00000000000E+00 0. -1.
</event>
<event>
 7    1  0.3910751E-009  0.4778727E+02  0.7816164E-02  0.1312668E+00
        -11   -1    0    0    0    0  0.00000000000E+00  0.00000000000E+00  0.45593999997E+02  0.45594000000E+02  0.51100000000E-03 0.  1.
         11   -1    0    0    0    0 -0.00000000000E+00 -0.00000000000E+00 -0.45593999997E+02  0.45594000000E+02  0.51100000000E-03 0. -1.
    9900012    2    1    2    0    0 -0.23097149721E+02  0.35498120676E+02 -0.94883279283E+01  0.47787271162E+02  0.20000000538E+02 0.  0.
        -12    1    1    2    0    0  0.23097149721E+02 -0.35498120676E+02  0.94883279283E+01  0.43400728838E+02  0.00000000000E+00 0.  1.
         11    1    3    3    0    0 -0.91397435010E-01  0.19910141956E+01 -0.54923849983E+01  0.58428404264E+01  0.51100000000E-03 0. -1.
        -11    1    3    3    0    0  0.65499103809E+00  0.38102467071E+00  0.61483682732E+00  0.97581639924E+00  0.51100000000E-03 0.  1.
        -12    1    3    3    0    0 -0.23660743324E+02  0.33126081810E+02 -0.46107797573E+01  0.40968614337E+02  0.00000000000E+00 0.  1.
</event>
<event>
 7    1  0.3910751E-009  0.4778727E+02  0.7816164E-02  0.1312668E+00
        -11   -1    0    0    0    0  0.00000000000E+00  0.00000000000E+00  0.45593999997E+02  0.45594000000E+02  0.51100000000E-03 0. -1.
         11   -1    0    0    0    0 -0.00000000000E+00 -0.00000000000E+00 -0.45593999997E+02  0.45594000000E+02  0.51100000000E-03 0.  1.
    9900012    2    1    2    0    0 -0.34172054010E+02 -0.45640862350E+01  0.26364049893E+02  0.47787270914E+02  0.19999999407E+02 0.  0.
        -12    1    1    2    0    0  0.34172054010E+02  0.45640862350E+01 -0.26364049893E+02  0.43400729086E+02  0.00000000000E+00 0.  1.
         11    1    3    3    0    0 -0.24025595831E+02  0.10799341868E+01  0.11199654448E+02  0.26529752598E+02  0.51100000000E-03 0. -1.
        -11    1    3    3    0    0 -0.89147294697E+00  0.24051026804E+01  0.34286241101E+01  0.42819045375E+01  0.51100000000E-03 0.  1.
        -12    1    3    3    0    0 -0.92549852322E+01 -0.80491231022E+01  0.11735771335E+02  0.16975613779E+02  0.00000000000E+00 0.  1.
</event>
<event>
 7    1  0.3910751E-009  0.4778726E+02  0.7816164E-02  0.1312668E+00
        -11   -1    0    0    0    0  0.00000000000E+00  0.00000000000E+00  0.45593999997E+02  0.45594000000E+02  0.51100000000E-03 0.  1.
         11   -1    0    0    0    0 -0.00000000000E+00 -0.00000000000E+00 -0.45593999997E+02  0.45594000000E+02  0.51100000000E-03 0. -1.
    9900012    2    1    2    0    0  0.11841801929E+02 -0.32086904924E+02 -0.26717526876E+02  0.47787262876E+02  0.19999962755E+02 0.  0.
        -12    1    1    2    0    0 -0.11841801929E+02  0.32086904924E+02  0.26717526876E+02  0.43400737124E+02  0.00000000000E+00 0.  1.
         11    1    3    3    0    0  0.55181665873E+01 -0.19068485102E+02 -0.13630674382E+02  0.24080128134E+02  0.51100000000E-03 0. -1.
        -11    1    3    3    0    0  0.69583966860E+01 -0.12637231642E+02 -0.45336357055E+01  0.15121929804E+02  0.51100000000E-03 0.  1.
         12    1    3    3    0    0 -0.63476134399E+00 -0.38118817968E+00 -0.85532167881E+01  0.85852049373E+01  0.00000000000E+00 0. -1.
</event>
<event>
 7    1  0.3910751E-009  0.4778728E+02  0.7816164E-02  0.1312668E+00
        -11   -1    0    0    0    0  0.00000000000E+00  0.00000000000E+00  0.45593999997E+02  0.45594000000E+02  0.51100000000E-03 0. -1.
         11   -1    0    0    0    0 -0.00000000000E+00 -0.00000000000E+00 -0.45593999997E+02  0.45594000000E+02  0.51100000000E-03 0.  1.
    9900012    2    1    2    0    0 -0.40688356809E+02 -0.90660152073E+01  0.12078405629E+02  0.47787275419E+02  0.20000019948E+02 0.  0.
        -12    1    1    2    0    0  0.40688356809E+02  0.90660152073E+01 -0.12078405629E+02  0.43400724581E+02  0.00000000000E+00 0.  1.
         11    1    3    3    0    0 -0.16423163839E+02  0.41175963562E+01  0.14143331247E+01  0.16990445806E+02  0.51100000000E-03 0. -1.
        -11    1    3    3    0    0 -0.40859898171E+01 -0.35417220397E+01 -0.11135383676E+01  0.55207857909E+01  0.51100000000E-03 0.  1.
        -12    1    3    3    0    0 -0.20179203154E+02 -0.96418895238E+01  0.11777610871E+02  0.25276043823E+02  0.00000000000E+00 0.  1.
</event>
<event>
 7    1  0.3910751E-009  0.4778728E+02  0.7816164E-02  0.1312668E+00
        -11   -1    0    0    0    0  0.00000000000E+00  0.00000000000E+00  0.45593999997E+02  0.45594000000E+02  0.51100000000E-03 0.  1.
         11   -1    0    0    0    0 -0.00000000000E+00 -0.00000000000E+00 -0.45593999997E+02  0.45594000000E+02  0.51100000000E-03 0. -1.
    9900012    2    1    2    0    0 -0.40168679976E+02 -0.14605980584E+02  0.75342552188E+01  0.47787279712E+02  0.20000039519E+02 0.  0.
        -12    1    1    2    0    0  0.40168679976E+02  0.14605980584E+02 -0.75342552188E+01  0.43400720288E+02  0.00000000000E+00 0.  1.
         11    1    3    3    0    0 -0.15769871452E+02 -0.80566868711E+01  0.69642885455E+01  0.19028934919E+02  0.51100000000E-03 0. -1.
        -11    1    3    3    0    0 -0.11342012905E+02 -0.39851920149E+01  0.70729457240E+01  0.13948102867E+02  0.51100000000E-03 0.  1.
        -12    1    3    3    0    0 -0.13056795619E+02 -0.25641016984E+01 -0.65029790507E+01  0.14810241925E+02  0.00000000000E+00 0.  1.
</event>
<event>
 7    1  0.3910751E-009  0.4778727E+02  0.7816164E-02  0.1312668E+00
        -11   -1    0    0    0    0  0.00000000000E+00  0.00000000000E+00  0.45593999997E+02  0.45594000000E+02  0.51100000000E-03 0. -1.
         11   -1    0    0    0    0 -0.00000000000E+00 -0.00000000000E+00 -0.45593999997E+02  0.45594000000E+02  0.51100000000E-03 0.  1.
    9900012    2    1    2    0    0 -0.11851666050E+02 -0.41682951794E+02 -0.23860317868E+01  0.47787267216E+02  0.19999982546E+02 0.  0.
        -12    1    1    2    0    0  0.11851666050E+02  0.41682951794E+02  0.23860317868E+01  0.43400732784E+02  0.00000000000E+00 0.  1.
         11    1    3    3    0    0  0.17888977071E+01 -0.34493994319E+00  0.10345481894E+01  0.20950963673E+01  0.51100000000E-03 0. -1.
        -11    1    3    3    0    0  0.59261481562E+00 -0.12769836770E+02  0.30104498968E+01  0.13133268149E+02  0.51100000000E-03 0.  1.
         12    1    3    3    0    0 -0.14233178573E+02 -0.28568175082E+02 -0.64310298731E+01  0.32558902700E+02  0.00000000000E+00 0. -1.
</event>
<event>
 7    1  0.3910751E-009  0.4778727E+02  0.7816164E-02  0.1312668E+00
        -11   -1    0    0    0    0  0.00000000000E+00  0.00000000000E+00  0.45593999997E+02  0.45594000000E+02  0.51100000000E-03 0.  1.
         11   -1    0    0    0    0 -0.00000000000E+00 -0.00000000000E+00 -0.45593999997E+02  0.45594000000E+02  0.51100000000E-03 0. -1.
    9900012    2    1    2    0    0 -0.20663058092E+02  0.35860634562E+02  0.13064311548E+02  0.47787270546E+02  0.19999997725E+02 0.  0.
        -12    1    1    2    0    0  0.20663058092E+02 -0.35860634562E+02 -0.13064311548E+02  0.43400729454E+02  0.00000000000E+00 0.  1.
         11    1    3    3    0    0 -0.22304992681E+02  0.25846733722E+02  0.69220411009E+01  0.34835054125E+02  0.51100000000E-03 0. -1.
        -11    1    3    3    0    0 -0.14812554786E+01  0.11732502241E+01  0.32296886369E+00  0.19170140921E+01  0.51100000000E-03 0.  1.
        -12    1    3    3    0    0  0.31231900674E+01  0.88406506161E+01  0.58193015837E+01  0.11035202329E+02  0.00000000000E+00 0.  1.
</event>
<event>
 7    1  0.3910751E-009  0.4778727E+02  0.7816164E-02  0.1312668E+00
        -11   -1    0    0    0    0  0.00000000000E+00  0.00000000000E+00  0.45593999997E+02  0.45594000000E+02  0.51100000000E-03 0.  1.
         11   -1    0    0    0    0 -0.00000000000E+00 -0.00000000000E+00 -0.45593999997E+02  0.45594000000E+02  0.51100000000E-03 0. -1.
    9900012    2    1    2    0    0 -0.35575395415E+02  0.22797120438E+02 -0.99149255364E+01  0.47787271808E+02  0.20000003481E+02 0.  0.
        -12    1    1    2    0    0  0.35575395415E+02 -0.22797120438E+02  0.99149255364E+01  0.43400728192E+02  0.00000000000E+00 0.  1.
         11    1    3    3    0    0 -0.11472998959E+02  0.68832149427E+01 -0.11489949485E+02  0.17635965879E+02  0.51100000000E-03 0. -1.
        -11    1    3    3    0    0 -0.18310088836E+01  0.48376343412E+01  0.10159063140E+01  0.52713722550E+01  0.51100000000E-03 0.  1.
        -12    1    3    3    0    0 -0.22271387573E+02  0.11076271155E+02  0.55911763427E+00  0.24879933674E+02  0.00000000000E+00 0.  1.
</event>
<event>
 7    1  0.3910751E-009  0.4778727E+02  0.7816164E-02  0.1312668E+00
        -11   -1    0    0    0    0  0.00000000000E+00  0.00000000000E+00  0.45593999997E+02  0.45594000000E+02  0.51100000000E-03 0.  1.
         11   -1    0    0    0    0 -0.00000000000E+00 -0.00000000000E+00 -0.45593999997E+02  0.45594000000E+02  0.51100000000E-03 0. -1.
    9900012    2    1    2    0    0  0.25296617047E+01 -0.37006488077E+02 -0.22533176747E+02  0.47787269563E+02  0.19999993247E+02 0.  0.
        -12    1    1    2    0    0 -0.25296617047E+01  0.37006488077E+02  0.22533176747E+02  0.43400730437E+02  0.00000000000E+00 0.  1.
         11    1    3    3    0    0 -0.47662802830E+01 -0.11742098016E+02 -0.68142540858E+01  0.14388479855E+02  0.51100000000E-03 0. -1.
        -11    1    3    3    0    0 -0.32790145593E+01 -0.11963874803E+02 -0.77857467734E+01  0.14645958141E+02  0.51100000000E-03 0.  1.
         12    1    3    3    0    0  0.10574956547E+02 -0.13300515258E+02 -0.79331758876E+01  0.18752831567E+02  0.00000000000E+00 0. -1.
</event>
<event>
 7    1  0.3910751E-009  0.4778727E+02  0.7816164E-02  0.1312668E+00
        -11   -1    0    0    0    0  0.00000000000E+00  0.00000000000E+00  0.45593999997E+02  0.45594000000E+02  0.51100000000E-03 0. -1.
         11   -1    0    0    0    0 -0.00000000000E+00 -0.00000000000E+00 -0.45593999997E+02  0.45594000000E+02  0.51100000000E-03 0.  1.
    9900012    2    1    2    0    0  0.33596401371E+02  0.27475110836E+02 -0.15323921603E+00  0.47787269790E+02  0.19999994280E+02 0.  0.
        -12    1    1    2    0    0 -0.33596401371E+02 -0.27475110836E+02  0.15323921603E+00  0.43400730210E+02  0.00000000000E+00 0.  1.
         11    1    3    3    0    0  0.12470714522E+02  0.35827910975E+01 -0.10814454673E+01  0.13020162721E+02  0.51100000000E-03 0. -1.
        -11    1    3    3    0    0  0.11215361667E+02  0.54833277118E+01  0.50338695234E+01  0.13460722965E+02  0.51100000000E-03 0.  1.
        -12    1    3    3    0    0  0.99103251827E+01  0.18408992026E+02 -0.41056632722E+01  0.21306384103E+02  0.00000000000E+00 0.  1.
</event>
<event>
 7    1  0.3910751E-009  0.4778727E+02  0.7816164E-02  0.1312668E+00
        -11   -1    0    0    0    0  0.00000000000E+00  0.00000000000E+00  0.45593999997E+02  0.45594000000E+02  0.51100000000E-03 0.  1.
         11   -1    0    0    0    0 -0.00000000000E+00 -0.00000000000E+00 -0.45593999997E+02  0.45594000000E+02  0.51100000000E-03 0. -1.
    9900012    2    1    2    0    0  0.49331738945E+01 -0.66876629074E+01 -0.42597677590E+02  0.47787272173E+02  0.20000005147E+02 0.  0.
        -12    1    1    2    0    0 -0.49331738945E+01  0.66876629074E+01  0.42597677590E+02  0.43400727827E+02  0.00000000000E+00 0.  1.
         11    1    3    3    0    0  0.41726526335E+01  0.39390230406E+01 -0.18952043929E+02  0.19801689369E+02  0.51100000000E-03 0. -1.
        -11    1    3    3    0    0  0.42919963685E+01 -0.19761810273E+01 -0.12941401136E+02  0.13777023914E+02  0.51100000000E-03 0.  1.
        -12    1    3    3    0    0 -0.35314751075E+01 -0.86505049207E+01 -0.10704232524E+02  0.14208558891E+02  0.00000000000E+00 0.  1.
</event>
<event>
 7    1  0.3910751E-009  0.4778727E+02  0.7816164E-02  0.1312668E+00
        -11   -1    0    0    0    0  0.00000000000E+00  0.00000000000E+00  0.45593999997E+02  0.45594000000E+02  0.51100000000E-03 0.  1.
         11   -1    0    0    0    0 -0.00000000000E+00 -0.00000000000E+00 -0.45593999997E+02  0.45594000000E+02  0.51100000000E-03 0. -1.
    9900012    2    1    2    0    0 -0.33268354446E+02  0.25146942139E+02  0.12019622276E+02  0.47787269290E+02  0.19999992002E+02 0.  0.
        -12    1    1    2    0    0  0.33268354446E+02 -0.25146942139E+02 -0.12019622276E+02  0.43400730710E+02  0.00000000000E+00 0.  1.
         11    1    3    3    0    0 -0.35526588285E+01  0.24115255864E+01 -0.22685793229E+01  0.48562632560E+01  0.51100000000E-03 0. -1.
        -11    1    3    3    0    0 -0.15608765022E+02  0.21149631458E+02  0.94827421741E+01  0.27943923413E+02  0.51100000000E-03 0.  1.
        -12    1    3    3    0    0 -0.14106930596E+02  0.15857850940E+01  0.48054594253E+01  0.14987082621E+02  0.00000000000E+00 0.  1.
</event>
<event>
 7    1  0.3910751E-009  0.4778727E+02  0.7816164E-02  0.1312668E+00
        -11   -1    0    0    0    0  0.00000000000E+00  0.00000000000E+00  0.45593999997E+02  0.45594000000E+02  0.51100000000E-03 0. -1.
         11   -1    0    0    0    0 -0.00000000000E+00 -0.00000000000E+00 -0.45593999997E+02  0.45594000000E+02  0.51100000000E-03 0.  1.
    9900012    2    1    2    0    0  0.30157012656E+01  0.38896582004E+02  0.19015375192E+02  0.47787273746E+02  0.20000012317E+02 0.  0.
        -12    1    1    2    0    0 -0.30157012656E+01 -0.38896582004E+02 -0.19015375192E+02  0.43400726254E+02  0.00000000000E+00 0.  1.
         11    1    3    3    0    0 -0.48168657004E+01  0.18508206373E+02  0.12116863015E+02  0.22640103090E+02  0.51100000000E-03 0. -1.
        -11    1    3    3    0    0  0.34751870016E+01  0.44464636691E+00 -0.26270147164E+00  0.35133527309E+01  0.51100000000E-03 0.  1.
         12    1    3    3    0    0  0.43573799643E+01  0.19943729263E+02  0.71612136487E+01  0.21633817925E+02  0.00000000000E+00 0. -1.
</event>
<event>
 7    1  0.3910751E-009  0.4778726E+02  0.7816164E-02  0.1312668E+00
        -11   -1    0    0    0    0  0.00000000000E+00  0.00000000000E+00  0.45593999997E+02  0.45594000000E+02  0.51100000000E-03 0.  1.
         11   -1    0    0    0    0 -0.00000000000E+00 -0.00000000000E+00 -0.45593999997E+02  0.45594000000E+02  0.51100000000E-03 0. -1.
    9900012    2    1    2    0    0  0.93263476426E+01  0.31921433690E+02 -0.27886652309E+02  0.47787261917E+02  0.19999958384E+02 0.  0.
        -12    1    1    2    0    0 -0.93263476426E+01 -0.31921433690E+02  0.27886652309E+02  0.43400738083E+02  0.00000000000E+00 0.  1.
         11    1    3    3    0    0  0.10762484154E+01  0.26767087441E+01 -0.56913421261E+01  0.63807880242E+01  0.51100000000E-03 0. -1.
        -11    1    3    3    0    0 -0.42007002903E+01  0.69983074394E+01 -0.94340453060E+00  0.82165809383E+01  0.51100000000E-03 0.  1.
        -12    1    3    3    0    0  0.12450799518E+02  0.22246417506E+02 -0.21251905652E+02  0.33189892955E+02  0.00000000000E+00 0.  1.
</event>
<event>
 7    1  0.3910751E-009  0.4778727E+02  0.7816164E-02  0.1312668E+00
        -11   -1    0    0    0    0  0.00000000000E+00  0.00000000000E+00  0.45593999997E+02  0.45594000000E+02  0.51100000000E-03 0. -1.
         11   -1    0    0    0    0 -0.00000000000E+00 -0.00000000000E+00 -0.45593999997E+02  0.45594000000E+02  0.51100000000E-03 0.  1.
    9900012    2    1    2    0    0 -0.28233742913E+02 -0.19106128785E+01  0.32906361858E+02  0.47787270384E+02  0.19999996989E+02 0.  0.
        -12    1    1    2    0    0  0.28233742913E+02  0.19106128785E+01 -0.32906361858E+02  0.43400729616E+02  0.00000000000E+00 0.  1.
         11    1    3    3    0    0 -0.23231558240E+02  0.21550652103E+01  0.17932231875E+02  0.29426425956E+02  0.51100000000E-03 0. -1.
        -11    1    3    3    0    0 -0.73858628194E+01 -0.27472871579E+01  0.10608713654E+02  0.13215270030E+02  0.51100000000E-03 0.  1.
        -12    1    3    3    0    0  0.23836781457E+01 -0.13183909309E+01  0.43654163301E+01  0.51455743979E+01  0.00000000000E+00 0.  1.
</event>
<event>
 7    1  0.3910751E-009  0.4778727E+02  0.7816164E-02  0.1312668E+00
        -11   -1    0    0    0    0  0.00000000000E+00  0.00000000000E+00  0.45593999997E+02  0.45594000000E+02  0.51100000000E-03 0. -1.
         11   -1    0    0    0    0 -0.00000000000E+00 -0.00000000000E+00 -0.45593999997E+02  0.45594000000E+02  0.51100000000E-03 0.  1.
    9900012    2    1    2    0    0  0.12106630014E+02  0.18368525509E+02  0.37411897455E+02  0.47787270849E+02  0.19999999109E+02 0.  0.
        -12    1    1    2    0    0 -0.12106630014E+02 -0.18368525509E+02 -0.37411897455E+02  0.43400729151E+02  0.00000000000E+00 0.  1.
         11    1    3    3    0    0  0.55594488360E+01  0.82710220986E+01  0.19520984059E+02  0.21917711943E+02  0.51100000000E-03 0. -1.
        -11    1    3    3    0    0  0.65981271471E+01  0.13631505815E+02  0.14229112157E+02  0.20780299942E+02  0.51100000000E-03 0.  1.
        -12    1    3    3    0    0 -0.50945969553E-01 -0.35340024048E+01  0.36618012389E+01  0.50892589639E+01  0.00000000000E+00 0.  1.
</event>
<event>
 7    1  0.4005504E-009  0.4778727E+02  0.7816164E-02  0.1312668E+00
        -11   -1    0    0    0    0  0.00000000000E+00  0.00000000000E+00  0.45593999997E+02  0.45594000000E+02  0.51100000000E-03 0. -1.
         11   -1    0    0    0    0 -0.00000000000E+00 -0.00000000000E+00 -0.45593999997E+02  0.45594000000E+02  0.51100000000E-03 0.  1.
    9900012    2    1    2    0    0 -0.40607456077E+02  0.14512414939E+02 -0.49038115919E+01  0.47787273687E+02  0.20000012048E+02 0.  0.
        -12    1    1    2    0    0  0.40607456077E+02 -0.14512414939E+02  0.49038115919E+01  0.43400726313E+02  0.00000000000E+00 0.  1.
         11    1    3    3    0    0 -0.18912842083E+02  0.94928688163E+01 -0.62552630825E+01  0.22066682363E+02  0.51100000000E-03 0. -1.
        -11    1    3    3    0    0  0.78107772264E+00  0.23691130707E+01 -0.14991136279E+01  0.29103472441E+01  0.51100000000E-03 0.  1.
        -12    1    3    3    0    0 -0.22475691717E+02  0.26504330517E+01  0.28505651184E+01  0.22810244080E+02  0.00000000000E+00 0.  1.
</event>
<event>
 7    1  0.3910751E-009  0.4778727E+02  0.7816164E-02  0.1312668E+00
        -11   -1    0    0    0    0  0.00000000000E+00  0.00000000000E+00  0.45593999997E+02  0.45594000000E+02  0.51100000000E-03 0.  1.
         11   -1    0    0    0    0 -0.00000000000E+00 -0.00000000000E+00 -0.45593999997E+02  0.45594000000E+02  0.51100000000E-03 0. -1.
    9900012    2    1    2    0    0  0.17892380501E+02 -0.17123327525E+02 -0.35640956650E+02  0.47787269402E+02  0.19999992513E+02 0.  0.
        -12    1    1    2    0    0 -0.17892380501E+02  0.17123327525E+02  0.35640956650E+02  0.43400730598E+02  0.00000000000E+00 0.  1.
         11    1    3    3    0    0  0.38992460559E+01  0.10029815448E+01 -0.97689794361E+00  0.41429966977E+01  0.51100000000E-03 0. -1.
        -11    1    3    3    0    0  0.84079296514E+01 -0.17389158223E+02 -0.19409001853E+02  0.27382210610E+02  0.51100000000E-03 0.  1.
         12    1    3    3    0    0  0.55852047932E+01 -0.73715084638E+00 -0.15255056854E+02  0.16262062094E+02  0.00000000000E+00 0. -1.
</event>
<event>
 7    1  0.3910751E-009  0.4778727E+02  0.7816164E-02  0.1312668E+00
        -11   -1    0    0    0    0  0.00000000000E+00  0.00000000000E+00  0.45593999997E+02  0.45594000000E+02  0.51100000000E-03 0. -1.
         11   -1    0    0    0    0 -0.00000000000E+00 -0.00000000000E+00 -0.45593999997E+02  0.45594000000E+02  0.51100000000E-03 0.  1.
    9900012    2    1    2    0    0  0.50985424912E+01 -0.42889024842E+02 -0.42614165968E+01  0.47787271218E+02  0.20000000791E+02 0.  0.
        -12    1    1    2    0    0 -0.50985424912E+01  0.42889024842E+02  0.42614165968E+01  0.43400728782E+02  0.00000000000E+00 0.  1.
         11    1    3    3    0    0  0.29115089365E+01 -0.14865294167E+02  0.19127819362E+01  0.15268025084E+02  0.51100000000E-03 0. -1.
        -11    1    3    3    0    0  0.68620302462E+01 -0.52700361218E+01 -0.24604818146E+01  0.89952604657E+01  0.51100000000E-03 0.  1.
         12    1    3    3    0    0 -0.46749966916E+01 -0.22753694552E+02 -0.37137167184E+01  0.23523985668E+02  0.00000000000E+00 0. -1.
</event>
<event>
 7    1  0.3910751E-009  0.4778727E+02  0.7816164E-02  0.1312668E+00
        -11   -1    0    0    0    0  0.00000000000E+00  0.00000000000E+00  0.45593999997E+02  0.45594000000E+02  0.51100000000E-03 0.  1.
         11   -1    0    0    0    0 -0.00000000000E+00 -0.00000000000E+00 -0.45593999997E+02  0.45594000000E+02  0.51100000000E-03 0. -1.
    9900012    2    1    2    0    0 -0.28061350716E+02  0.14744660097E+02 -0.29644199714E+02  0.47787274406E+02  0.20000015327E+02 0.  0.
        -12    1    1    2    0    0  0.28061350716E+02 -0.14744660097E+02  0.29644199714E+02  0.43400725594E+02  0.00000000000E+00 0.  1.
         11    1    3    3    0    0 -0.11372991343E+02  0.22497268332E+01 -0.11157439990E+02  0.16090204172E+02  0.51100000000E-03 0. -1.
        -11    1    3    3    0    0 -0.42802217866E+00  0.10832986061E+01 -0.10045565466E+02  0.10112869259E+02  0.51100000000E-03 0.  1.
        -12    1    3    3    0    0 -0.16260337194E+02  0.11411634658E+02 -0.84411942588E+01  0.21584200976E+02  0.00000000000E+00 0.  1.
</event>
<event>
 7    1  0.3910751E-009  0.4778727E+02  0.7816164E-02  0.1312668E+00
        -11   -1    0    0    0    0  0.00000000000E+00  0.00000000000E+00  0.45593999997E+02  0.45594000000E+02  0.51100000000E-03 0.  1.
         11   -1    0    0    0    0 -0.00000000000E+00 -0.00000000000E+00 -0.45593999997E+02  0.45594000000E+02  0.51100000000E-03 0. -1.
    9900012    2    1    2    0    0  0.70545901896E+01 -0.11886600629E+02 -0.41140792422E+02  0.47787270532E+02  0.19999997665E+02 0.  0.
        -12    1    1    2    0    0 -0.70545901896E+01  0.11886600629E+02  0.41140792422E+02  0.43400729468E+02  0.00000000000E+00 0.  1.
         11    1    3    3    0    0  0.15805781442E+01  0.15023628026E+01 -0.88404160801E+01  0.91053982884E+01  0.51100000000E-03 0. -1.
        -11    1    3    3    0    0  0.50945835265E+01  0.20473268205E+01 -0.56293076010E+01  0.78635508993E+01  0.51100000000E-03 0.  1.
         12    1    3    3    0    0  0.37942851887E+00 -0.15436290252E+02 -0.26671068741E+02  0.30818321345E+02  0.00000000000E+00 0. -1.
</event>
<event>
 7    1  0.3910751E-009  0.4778727E+02  0.7816164E-02  0.1312668E+00
        -11   -1    0    0    0    0  0.00000000000E+00  0.00000000000E+00  0.45593999997E+02  0.45594000000E+02  0.51100000000E-03 0.  1.
         11   -1    0    0    0    0 -0.00000000000E+00 -0.00000000000E+00 -0.45593999997E+02  0.45594000000E+02  0.51100000000E-03 0. -1.
    9900012    2    1    2    0    0  0.51583659225E+01 -0.41210928783E+02 -0.12596576701E+02  0.47787272648E+02  0.20000007311E+02 0.  0.
        -12    1    1    2    0    0 -0.51583659225E+01  0.41210928783E+02  0.12596576701E+02  0.43400727352E+02  0.00000000000E+00 0.  1.
         11    1    3    3    0    0  0.43504958268E+01 -0.56663976997E+01  0.19188056521E+01  0.73970732200E+01  0.51100000000E-03 0. -1.
        -11    1    3    3    0    0  0.13489523791E+01 -0.20776122883E+02 -0.18052404850E+01  0.20897986698E+02  0.51100000000E-03 0.  1.
         12    1    3    3    0    0 -0.54108228342E+00 -0.14768408200E+02 -0.12710141868E+02  0.19492212730E+02  0.00000000000E+00 0. -1.
</event>
<event>
 7    1  0.3910751E-009  0.4778727E+02  0.7816164E-02  0.1312668E+00
        -11   -1    0    0    0    0  0.00000000000E+00  0.00000000000E+00  0.45593999997E+02  0.45594000000E+02  0.51100000000E-03 0.  1.
         11   -1    0    0    0    0 -0.00000000000E+00 -0.00000000000E+00 -0.45593999997E+02  0.45594000000E+02  0.51100000000E-03 0. -1.
    9900012    2    1    2    0    0  0.41933634547E+02 -0.17123697962E+01 -0.11057192333E+02  0.47787269374E+02  0.19999992383E+02 0.  0.
        -12    1    1    2    0    0 -0.41933634547E+02  0.17123697962E+01  0.11057192333E+02  0.43400730626E+02  0.00000000000E+00 0.  1.
         11    1    3    3    0    0  0.22488163214E+02 -0.37269575277E+01 -0.31327562253E+01  0.23009169020E+02  0.51100000000E-03 0. -1.
        -11    1    3    3    0    0  0.15656106275E+02 -0.10744220103E+01 -0.26956879213E+00  0.15695244947E+02  0.51100000000E-03 0.  1.
         12    1    3    3    0    0  0.37893650574E+01  0.30890097418E+01 -0.76548673155E+01  0.90828554068E+01  0.00000000000E+00 0. -1.
</event>
<event>
 7    1  0.3910751E-009  0.4778727E+02  0.7816164E-02  0.1312668E+00
        -11   -1    0    0    0    0  0.00000000000E+00  0.00000000000E+00  0.45593999997E+02  0.45594000000E+02  0.51100000000E-03 0.  1.
         11   -1    0    0    0    0 -0.00000000000E+00 -0.00000000000E+00 -0.45593999997E+02  0.45594000000E+02  0.51100000000E-03 0. -1.
    9900012    2    1    2    0    0  0.35667801043E+02  0.24092437688E+02 -0.55664837656E+01  0.47787270438E+02  0.19999997237E+02 0.  0.
        -12    1    1    2    0    0 -0.35667801043E+02 -0.24092437688E+02  0.55664837656E+01  0.43400729562E+02  0.00000000000E+00 0.  1.
         11    1    3    3    0    0  0.11114828094E+02  0.11009607306E+02 -0.24748577791E+00  0.15646472639E+02  0.51100000000E-03 0. -1.
        -11    1    3    3    0    0  0.91065261227E+01  0.73787019362E+01  0.49630610526E+01  0.12728159158E+02  0.51100000000E-03 0.  1.
        -12    1    3    3    0    0  0.15446446827E+02  0.57041284457E+01 -0.10282059040E+02  0.19412638641E+02  0.00000000000E+00 0.  1.
</event>
<event>
 7    1  0.3910751E-009  0.4778727E+02  0.7816164E-02  0.1312668E+00
        -11   -1    0    0    0    0  0.00000000000E+00  0.00000000000E+00  0.45593999997E+02  0.45594000000E+02  0.51100000000E-03 0.  1.
         11   -1    0    0    0    0 -0.00000000000E+00 -0.00000000000E+00 -0.45593999997E+02  0.45594000000E+02  0.51100000000E-03 0. -1.
    9900012    2    1    2    0    0 -0.36966614139E+02  0.10355407386E+01 -0.22716076303E+02  0.47787273876E+02  0.20000012910E+02 0.  0.
        -12    1    1    2    0    0  0.36966614139E+02 -0.10355407386E+01  0.22716076303E+02  0.43400726124E+02  0.00000000000E+00 0.  1.
         11    1    3    3    0    0 -0.18490758305E+01  0.35378853652E+00  0.14350367840E+01  0.23671879072E+01  0.51100000000E-03 0. -1.
        -11    1    3    3    0    0 -0.22717206370E+01  0.13488635309E+01 -0.87434160294E+01  0.91338640018E+01  0.51100000000E-03 0.  1.
         12    1    3    3    0    0 -0.32845817671E+02 -0.66711132888E+00 -0.15407697058E+02  0.36286221967E+02  0.00000000000E+00 0. -1.
</event>
<event>
 7    1  0.3910751E-009  0.4778727E+02  0.7816164E-02  0.1312668E+00
        -11   -1    0    0    0    0  0.00000000000E+00  0.00000000000E+00  0.45593999997E+02  0.45594000000E+02  0.51100000000E-03 0.  1.
         11   -1    0    0    0    0 -0.00000000000E+00 -0.00000000000E+00 -0.45593999997E+02  0.45594000000E+02  0.51100000000E-03 0. -1.
    9900012    2    1    2    0    0 -0.87639856111E+01 -0.41571178808E+01 -0.42302886782E+02  0.47787270710E+02  0.19999998473E+02 0.  0.
        -12    1    1    2    0    0  0.87639856111E+01  0.41571178808E+01  0.42302886782E+02  0.43400729290E+02  0.00000000000E+00 0.  1.
         11    1    3    3    0    0 -0.22980211271E+01 -0.14187564690E+01 -0.51715852550E+00  0.27497680303E+01  0.51100000000E-03 0. -1.
        -11    1    3    3    0    0 -0.38355134839E+01  0.55265690700E+01 -0.97298347680E+01  0.11828939692E+02  0.51100000000E-03 0.  1.
         12    1    3    3    0    0 -0.26304510001E+01 -0.82649304818E+01 -0.32055893488E+02  0.33208562987E+02  0.00000000000E+00 0. -1.
</event>
<event>
 7    1  0.3910751E-009  0.4778727E+02  0.7816164E-02  0.1312668E+00
        -11   -1    0    0    0    0  0.00000000000E+00  0.00000000000E+00  0.45593999997E+02  0.45594000000E+02  0.51100000000E-03 0.  1.
         11   -1    0    0    0    0 -0.00000000000E+00 -0.00000000000E+00 -0.45593999997E+02  0.45594000000E+02  0.51100000000E-03 0. -1.
    9900012    2    1    2    0    0 -0.28003213017E+02 -0.65434450903E+01 -0.32505790920E+02  0.47787273551E+02  0.20000011429E+02 0.  0.
        -12    1    1    2    0    0  0.28003213017E+02  0.65434450903E+01  0.32505790920E+02  0.43400726449E+02  0.00000000000E+00 0.  1.
         11    1    3    3    0    0 -0.31688615284E+01 -0.60457720089E+01 -0.10538489579E+02  0.12555986836E+02  0.51100000000E-03 0. -1.
        -11    1    3    3    0    0 -0.17800570980E+01 -0.21604943492E+01  0.66993053483E+00  0.28783930044E+01  0.51100000000E-03 0.  1.
         12    1    3    3    0    0 -0.23054294391E+02  0.16628212678E+01 -0.22637231876E+02  0.32352893710E+02  0.00000000000E+00 0. -1.
</event>
<event>
 7    1  0.3910751E-009  0.4778727E+02  0.7816164E-02  0.1312668E+00
        -11   -1    0    0    0    0  0.00000000000E+00  0.00000000000E+00  0.45593999997E+02  0.45594000000E+02  0.51100000000E-03 0. -1.
         11   -1    0    0    0    0 -0.00000000000E+00 -0.00000000000E+00 -0.45593999997E+02  0.45594000000E+02  0.51100000000E-03 0.  1.
    9900012    2    1    2    0    0  0.27460677328E+02  0.19111010045E+02  0.27646050474E+02  0.47787267160E+02  0.19999982290E+02 0.  0.
        -12    1    1    2    0    0 -0.27460677328E+02 -0.19111010045E+02 -0.27646050474E+02  0.43400732840E+02  0.00000000000E+00 0.  1.
         11    1    3    3    0    0  0.93564896725E+01  0.46689613945E+01  0.11027601039E+02  0.15197074864E+02  0.51100000000E-03 0. -1.
        -11    1    3    3    0    0  0.72339561496E+01 -0.26026095127E+01  0.60208600801E+01  0.97649605332E+01  0.51100000000E-03 0.  1.
         12    1    3    3    0    0  0.10870231506E+02  0.17044658163E+02  0.10597589355E+02  0.22825231763E+02  0.00000000000E+00 0. -1.
</event>
<event>
 7    1  0.3910751E-009  0.4778727E+02  0.7816164E-02  0.1312668E+00
        -11   -1    0    0    0    0  0.00000000000E+00  0.00000000000E+00  0.45593999997E+02  0.45594000000E+02  0.51100000000E-03 0. -1.
         11   -1    0    0    0    0 -0.00000000000E+00 -0.00000000000E+00 -0.45593999997E+02  0.45594000000E+02  0.51100000000E-03 0.  1.
    9900012    2    1    2    0    0  0.29673053266E+02  0.19043593190E+02  0.25307603832E+02  0.47787270243E+02  0.19999996348E+02 0.  0.
        -12    1    1    2    0    0 -0.29673053266E+02 -0.19043593190E+02 -0.25307603832E+02  0.43400729757E+02  0.00000000000E+00 0.  1.
         11    1    3    3    0    0  0.12180877606E+02  0.83160714061E+00  0.47458272839E+01  0.13099168926E+02  0.51100000000E-03 0. -1.
        -11    1    3    3    0    0 -0.61557393664E+00 -0.50826475147E+00  0.34114748169E+01  0.35036302626E+01  0.51100000000E-03 0.  1.
        -12    1    3    3    0    0  0.18107749596E+02  0.18720250800E+02  0.17150301731E+02  0.31184471055E+02  0.00000000000E+00 0.  1.
</event>
<event>
 7    1  0.3910751E-009  0.4778727E+02  0.7816164E-02  0.1312668E+00
        -11   -1    0    0    0    0  0.00000000000E+00  0.00000000000E+00  0.45593999997E+02  0.45594000000E+02  0.51100000000E-03 0.  1.
         11   -1    0    0    0    0 -0.00000000000E+00 -0.00000000000E+00 -0.45593999997E+02  0.45594000000E+02  0.51100000000E-03 0. -1.
    9900012    2    1    2    0    0  0.10053209180E+02  0.95337206511E+01 -0.41129854408E+02  0.47787265353E+02  0.19999974050E+02 0.  0.
        -12    1    1    2    0    0 -0.10053209180E+02 -0.95337206511E+01  0.41129854408E+02  0.43400734647E+02  0.00000000000E+00 0.  1.
         11    1    3    3    0    0  0.22045951507E+01 -0.12950679205E+01 -0.38716979650E+01  0.46397722024E+01  0.51100000000E-03 0. -1.
        -11    1    3    3    0    0  0.79776807139E+01  0.25585900661E+01 -0.48074368748E+01  0.96592557822E+01  0.51100000000E-03 0.  1.
         12    1    3    3    0    0 -0.12906668436E+00  0.82701985055E+01 -0.32450719568E+02  0.33488237368E+02  0.00000000000E+00 0. -1.
</event>
<event>
 7    1  0.3910751E-009  0.4778727E+02  0.7816164E-02  0.1312668E+00
        -11   -1    0    0    0    0  0.00000000000E+00  0.00000000000E+00  0.45593999997E+02  0.45594000000E+02  0.51100000000E-03 0. -1.
         11   -1    0    0    0    0 -0.00000000000E+00 -0.00000000000E+00 -0.45593999997E+02  0.45594000000E+02  0.51100000000E-03 0.  1.
    9900012    2    1    2    0    0  0.34785865304E+02 -0.25197488069E+02 -0.62171826595E+01  0.47787272009E+02  0.20000004398E+02 0.  0.
        -12    1    1    2    0    0 -0.34785865304E+02  0.25197488069E+02  0.62171826595E+01  0.43400727991E+02  0.00000000000E+00 0.  1.
         11    1    3    3    0    0  0.19615674006E+02 -0.11476615730E+02  0.34687185481E+01  0.22989549451E+02  0.51100000000E-03 0. -1.
        -11    1    3    3    0    0  0.27641791311E+01 -0.74452141004E+01 -0.15822663174E+00  0.79433579296E+01  0.51100000000E-03 0.  1.
        -12    1    3    3    0    0  0.12406012167E+02 -0.62756582385E+01 -0.95276745759E+01  0.16854364628E+02  0.00000000000E+00 0.  1.
</event>
<event>
 7    1  0.3910751E-009  0.4778728E+02  0.7816164E-02  0.1312668E+00
        -11   -1    0    0    0    0  0.00000000000E+00  0.00000000000E+00  0.45593999997E+02  0.45594000000E+02  0.51100000000E-03 0.  1.
         11   -1    0    0    0    0 -0.00000000000E+00 -0.00000000000E+00 -0.45593999997E+02  0.45594000000E+02  0.51100000000E-03 0. -1.
    9900012    2    1    2    0    0  0.32422888967E+02 -0.27630205421E+02 -0.83036451002E+01  0.47787279931E+02  0.20000040517E+02 0.  0.
        -12    1    1    2    0    0 -0.32422888967E+02  0.27630205421E+02  0.83036451002E+01  0.43400720069E+02  0.00000000000E+00 0.  1.
         11    1    3    3    0    0 -0.23380536082E-01 -0.30138372803E+01 -0.28738350948E+01  0.41644555724E+01  0.51100000000E-03 0.  1.
        -11    1    3    3    0    0  0.31296839379E+01 -0.77431513180E+01 -0.51193170886E+01  0.97958522651E+01  0.51100000000E-03 0. -1.
        -12    1    3    3    0    0  0.29316585565E+02 -0.16873216822E+02 -0.31049291682E+00  0.33826972093E+02  0.00000000000E+00 0.  1.
</event>
<event>
 7    1  0.3910751E-009  0.4778727E+02  0.7816164E-02  0.1312668E+00
        -11   -1    0    0    0    0  0.00000000000E+00  0.00000000000E+00  0.45593999997E+02  0.45594000000E+02  0.51100000000E-03 0.  1.
         11   -1    0    0    0    0 -0.00000000000E+00 -0.00000000000E+00 -0.45593999997E+02  0.45594000000E+02  0.51100000000E-03 0. -1.
    9900012    2    1    2    0    0 -0.13111987039E+02  0.14262693130E+02 -0.38836511764E+02  0.47787271141E+02  0.20000000442E+02 0.  0.
        -12    1    1    2    0    0  0.13111987039E+02 -0.14262693130E+02  0.38836511764E+02  0.43400728859E+02  0.00000000000E+00 0.  1.
         11    1    3    3    0    0  0.96323363046E+00  0.41452643740E+01 -0.37459460273E+01  0.56694927161E+01  0.51100000000E-03 0. -1.
        -11    1    3    3    0    0 -0.37533925831E+01 -0.30555599133E+01 -0.24218097314E+01  0.54119834537E+01  0.51100000000E-03 0.  1.
        -12    1    3    3    0    0 -0.10321828087E+02  0.13172988669E+02 -0.32668756006E+02  0.36705794972E+02  0.00000000000E+00 0.  1.
</event>
<event>
 7    1  0.3910751E-009  0.4778727E+02  0.7816164E-02  0.1312668E+00
        -11   -1    0    0    0    0  0.00000000000E+00  0.00000000000E+00  0.45593999997E+02  0.45594000000E+02  0.51100000000E-03 0.  1.
         11   -1    0    0    0    0 -0.00000000000E+00 -0.00000000000E+00 -0.45593999997E+02  0.45594000000E+02  0.51100000000E-03 0. -1.
    9900012    2    1    2    0    0  0.28046261643E+02  0.34189910349E+01 -0.32944521233E+02  0.47787265316E+02  0.19999973881E+02 0.  0.
        -12    1    1    2    0    0 -0.28046261643E+02 -0.34189910349E+01  0.32944521233E+02  0.43400734684E+02  0.00000000000E+00 0.  1.
         11    1    3    3    0    0  0.16201108975E+01 -0.71848831286E+00 -0.23749694653E+00  0.17881246703E+01  0.51100000000E-03 0. -1.
        -11    1    3    3    0    0  0.58977571875E+00 -0.45688254570E+01 -0.22661902504E+01  0.51339672736E+01  0.51100000000E-03 0.  1.
         12    1    3    3    0    0  0.25836375027E+02  0.87063048047E+01 -0.30440834037E+02  0.40865173372E+02  0.00000000000E+00 0. -1.
</event>
<event>
 7    1  0.3910751E-009  0.4778727E+02  0.7816164E-02  0.1312668E+00
        -11   -1    0    0    0    0  0.00000000000E+00  0.00000000000E+00  0.45593999997E+02  0.45594000000E+02  0.51100000000E-03 0.  1.
         11   -1    0    0    0    0 -0.00000000000E+00 -0.00000000000E+00 -0.45593999997E+02  0.45594000000E+02  0.51100000000E-03 0. -1.
    9900012    2    1    2    0    0  0.30092457229E+02  0.11077369477E+02 -0.29246521997E+02  0.47787272523E+02  0.20000006741E+02 0.  0.
        -12    1    1    2    0    0 -0.30092457229E+02 -0.11077369477E+02  0.29246521997E+02  0.43400727477E+02  0.00000000000E+00 0.  1.
         11    1    3    3    0    0  0.23890425977E+02  0.56738108478E+01 -0.18830282704E+02  0.30943886794E+02  0.51100000000E-03 0. -1.
        -11    1    3    3    0    0  0.39425139273E+01 -0.15417458688E+01 -0.81709634506E+01  0.92024475202E+01  0.51100000000E-03 0.  1.
         12    1    3    3    0    0  0.22595173247E+01  0.69453044978E+01 -0.22452758422E+01  0.76409382091E+01  0.00000000000E+00 0. -1.
</event>
<event>
 7    1  0.3910751E-009  0.4778726E+02  0.7816164E-02  0.1312668E+00
        -11   -1    0    0    0    0  0.00000000000E+00  0.00000000000E+00  0.45593999997E+02  0.45594000000E+02  0.51100000000E-03 0. -1.
         11   -1    0    0    0    0 -0.00000000000E+00 -0.00000000000E+00 -0.45593999997E+02  0.45594000000E+02  0.51100000000E-03 0.  1.
    9900012    2    1    2    0    0 -0.27614723040E+02  0.22583500808E+02  0.24719153545E+02  0.47787262803E+02  0.19999962422E+02 0.  0.
        -12    1    1    2    0    0  0.27614723040E+02 -0.22583500808E+02 -0.24719153545E+02  0.43400737197E+02  0.00000000000E+00 0.  1.
         11    1    3    3    0    0 -0.11313358419E+02  0.11437187121E+02  0.17605254943E+02  0.23848403087E+02  0.51100000000E-03 0. -1.
        -11    1    3    3    0    0 -0.81630716169E+01  0.88950770628E+01  0.92730429941E+01  0.15223253949E+02  0.51100000000E-03 0.  1.
        -12    1    3    3    0    0 -0.81382930041E+01  0.22512366244E+01 -0.21591443923E+01  0.87156057659E+01  0.00000000000E+00 0.  1.
</event>
<event>
 7    1  0.3910751E-009  0.4778727E+02  0.7816164E-02  0.1312668E+00
        -11   -1    0    0    0    0  0.00000000000E+00  0.00000000000E+00  0.45593999997E+02  0.45594000000E+02  0.51100000000E-03 0. -1.
         11   -1    0    0    0    0 -0.00000000000E+00 -0.00000000000E+00 -0.45593999997E+02  0.45594000000E+02  0.51100000000E-03 0.  1.
    9900012    2    1    2    0    0 -0.31402269286E+02  0.26869968220E+02  0.13248603729E+02  0.47787271789E+02  0.20000003395E+02 0.  0.
        -12    1    1    2    0    0  0.31402269286E+02 -0.26869968220E+02 -0.13248603729E+02  0.43400728211E+02  0.00000000000E+00 0.  1.
         11    1    3    3    0    0 -0.81804115153E+01  0.27354453024E+01  0.28668436205E+01  0.90895866885E+01  0.51100000000E-03 0. -1.
        -11    1    3    3    0    0 -0.22329869714E+02  0.24960607158E+02  0.12909290486E+02  0.35892962712E+02  0.51100000000E-03 0.  1.
        -12    1    3    3    0    0 -0.89198805718E+00 -0.82608424089E+00 -0.25275303773E+01  0.28047223883E+01  0.00000000000E+00 0.  1.
</event>
<event>
 7    1  0.3910751E-009  0.4778728E+02  0.7816164E-02  0.1312668E+00
        -11   -1    0    0    0    0  0.00000000000E+00  0.00000000000E+00  0.45593999997E+02  0.45594000000E+02  0.51100000000E-03 0.  1.
         11   -1    0    0    0    0 -0.00000000000E+00 -0.00000000000E+00 -0.45593999997E+02  0.45594000000E+02  0.51100000000E-03 0. -1.
    9900012    2    1    2    0    0 -0.38904981358E+02 -0.18712959323E+02 -0.44553798869E+01  0.47787276146E+02  0.20000023259E+02 0.  0.
        -12    1    1    2    0    0  0.38904981358E+02  0.18712959323E+02  0.44553798869E+01  0.43400723854E+02  0.00000000000E+00 0.  1.
         11    1    3    3    0    0 -0.10971013692E+02 -0.12804751711E+02 -0.23374840862E+01  0.17023179490E+02  0.51100000000E-03 0. -1.
        -11    1    3    3    0    0 -0.13243963506E+02 -0.12456161229E+01  0.44271105152E+01  0.14019751662E+02  0.51100000000E-03 0.  1.
         12    1    3    3    0    0 -0.14690004160E+02 -0.46625914889E+01 -0.65450063159E+01  0.16744344994E+02  0.00000000000E+00 0. -1.
</event>
<event>
 7    1  0.3910751E-009  0.4778727E+02  0.7816164E-02  0.1312668E+00
        -11   -1    0    0    0    0  0.00000000000E+00  0.00000000000E+00  0.45593999997E+02  0.45594000000E+02  0.51100000000E-03 0.  1.
         11   -1    0    0    0    0 -0.00000000000E+00 -0.00000000000E+00 -0.45593999997E+02  0.45594000000E+02  0.51100000000E-03 0. -1.
    9900012    2    1    2    0    0  0.31475590369E+02 -0.28292961175E+02 -0.96134651410E+01  0.47787272435E+02  0.20000006342E+02 0.  0.
        -12    1    1    2    0    0 -0.31475590369E+02  0.28292961175E+02  0.96134651410E+01  0.43400727565E+02  0.00000000000E+00 0.  1.
         11    1    3    3    0    0  0.78822650263E+01 -0.77139917624E+00 -0.50887840190E+01  0.94138664579E+01  0.51100000000E-03 0. -1.
        -11    1    3    3    0    0  0.46002482149E+01 -0.54127194868E+01 -0.58414166723E+01  0.91968453766E+01  0.51100000000E-03 0.  1.
        -12    1    3    3    0    0  0.18993077128E+02 -0.22108842512E+02  0.13167355503E+01  0.29176560601E+02  0.00000000000E+00 0.  1.
</event>
<event>
 7    1  0.3910751E-009  0.4778727E+02  0.7816164E-02  0.1312668E+00
        -11   -1    0    0    0    0  0.00000000000E+00  0.00000000000E+00  0.45593999997E+02  0.45594000000E+02  0.51100000000E-03 0. -1.
         11   -1    0    0    0    0 -0.00000000000E+00 -0.00000000000E+00 -0.45593999997E+02  0.45594000000E+02  0.51100000000E-03 0.  1.
    9900012    2    1    2    0    0 -0.11182334639E+02 -0.41917392279E+02  0.12291477140E+01  0.47787272039E+02  0.20000004533E+02 0.  0.
        -12    1    1    2    0    0  0.11182334639E+02  0.41917392279E+02 -0.12291477140E+01  0.43400727961E+02  0.00000000000E+00 0.  1.
         11    1    3    3    0    0  0.24599456823E+00 -0.21118665002E+02 -0.47820202348E+01  0.21654704860E+02  0.51100000000E-03 0. -1.
        -11    1    3    3    0    0 -0.28891706184E+01 -0.61997841793E+00 -0.10118722694E+01  0.31233901216E+01  0.51100000000E-03 0.  1.
        -12    1    3    3    0    0 -0.85391585890E+01 -0.20178748860E+02  0.70230402182E+01  0.23009177057E+02  0.00000000000E+00 0.  1.
</event>
<event>
 7    1  0.3910751E-009  0.4778727E+02  0.7816164E-02  0.1312668E+00
        -11   -1    0    0    0    0  0.00000000000E+00  0.00000000000E+00  0.45593999997E+02  0.45594000000E+02  0.51100000000E-03 0. -1.
         11   -1    0    0    0    0 -0.00000000000E+00 -0.00000000000E+00 -0.45593999997E+02  0.45594000000E+02  0.51100000000E-03 0.  1.
    9900012    2    1    2    0    0  0.37487636022E+02  0.17261167950E+02  0.13429534469E+02  0.47787272246E+02  0.20000005479E+02 0.  0.
        -12    1    1    2    0    0 -0.37487636022E+02 -0.17261167950E+02 -0.13429534469E+02  0.43400727754E+02  0.00000000000E+00 0.  1.
         11    1    3    3    0    0 -0.14414969158E+01  0.91474424375E+00 -0.60909168864E+00  0.18126398804E+01  0.51100000000E-03 0. -1.
        -11    1    3    3    0    0  0.43665231651E+01 -0.10343530453E+01 -0.76530433664E+00  0.45521535302E+01  0.51100000000E-03 0.  1.
         12    1    3    3    0    0  0.34562609773E+02  0.17380776752E+02  0.14803930494E+02  0.41422478835E+02  0.00000000000E+00 0. -1.
</event>
<event>
 7    1  0.3910751E-009  0.4778727E+02  0.7816164E-02  0.1312668E+00
        -11   -1    0    0    0    0  0.00000000000E+00  0.00000000000E+00  0.45593999997E+02  0.45594000000E+02  0.51100000000E-03 0. -1.
         11   -1    0    0    0    0 -0.00000000000E+00 -0.00000000000E+00 -0.45593999997E+02  0.45594000000E+02  0.51100000000E-03 0.  1.
    9900012    2    1    2    0    0  0.10398627811E+02  0.38759195700E+02  0.16529259146E+02  0.47787272822E+02  0.20000008104E+02 0.  0.
        -12    1    1    2    0    0 -0.10398627811E+02 -0.38759195700E+02 -0.16529259146E+02  0.43400727178E+02  0.00000000000E+00 0.  1.
         11    1    3    3    0    0  0.42608955853E+01  0.50403383577E+01  0.21995287997E+01  0.69568792681E+01  0.51100000000E-03 0. -1.
        -11    1    3    3    0    0  0.11126850881E+02  0.15726289248E+02  0.47348760525E+01  0.19837893929E+02  0.51100000000E-03 0.  1.
         12    1    3    3    0    0 -0.49891186550E+01  0.17992568095E+02  0.95948542937E+01  0.20992499625E+02  0.00000000000E+00 0. -1.
</event>
<event>
 7    1  0.3910751E-009  0.4778727E+02  0.7816164E-02  0.1312668E+00
        -11   -1    0    0    0    0  0.00000000000E+00  0.00000000000E+00  0.45593999997E+02  0.45594000000E+02  0.51100000000E-03 0. -1.
         11   -1    0    0    0    0 -0.00000000000E+00 -0.00000000000E+00 -0.45593999997E+02  0.45594000000E+02  0.51100000000E-03 0.  1.
    9900012    2    1    2    0    0  0.32990938599E+01 -0.33022548205E+02  0.27968746299E+02  0.47787268672E+02  0.19999989185E+02 0.  0.
        -12    1    1    2    0    0 -0.32990938599E+01  0.33022548205E+02 -0.27968746299E+02  0.43400731328E+02  0.00000000000E+00 0.  1.
         11    1    3    3    0    0  0.88565887191E+00 -0.19961117143E+02  0.16731895203E+02  0.26061214603E+02  0.51100000000E-03 0. -1.
        -11    1    3    3    0    0  0.62296747813E+01 -0.11194480771E+02  0.11828397564E+02  0.17436634905E+02  0.51100000000E-03 0.  1.
        -12    1    3    3    0    0 -0.38162397933E+01 -0.18669502910E+01 -0.59154646786E+00  0.42894191650E+01  0.00000000000E+00 0.  1.
</event>
<event>
 7    1  0.3910751E-009  0.4778726E+02  0.7816164E-02  0.1312668E+00
        -11   -1    0    0    0    0  0.00000000000E+00  0.00000000000E+00  0.45593999997E+02  0.45594000000E+02  0.51100000000E-03 0. -1.
         11   -1    0    0    0    0 -0.00000000000E+00 -0.00000000000E+00 -0.45593999997E+02  0.45594000000E+02  0.51100000000E-03 0.  1.
    9900012    2    1    2    0    0  0.26323381999E+02 -0.34384059772E+02 -0.29052637825E+01  0.47787256183E+02  0.19999932239E+02 0.  0.
        -12    1    1    2    0    0 -0.26323381999E+02  0.34384059772E+02  0.29052637825E+01  0.43400743817E+02  0.00000000000E+00 0.  1.
         11    1    3    3    0    0  0.16046813113E+02 -0.16305716582E+02  0.52108018890E+01  0.23463355705E+02  0.51100000000E-03 0. -1.
        -11    1    3    3    0    0  0.49154907674E+01 -0.10778688097E+02  0.45365165804E+00  0.11855292770E+02  0.51100000000E-03 0.  1.
        -12    1    3    3    0    0  0.53610781189E+01 -0.72996550921E+01 -0.85697173296E+01  0.12468607708E+02  0.00000000000E+00 0.  1.
</event>
<event>
 7    1  0.3910751E-009  0.4778727E+02  0.7816164E-02  0.1312668E+00
        -11   -1    0    0    0    0  0.00000000000E+00  0.00000000000E+00  0.45593999997E+02  0.45594000000E+02  0.51100000000E-03 0.  1.
         11   -1    0    0    0    0 -0.00000000000E+00 -0.00000000000E+00 -0.45593999997E+02  0.45594000000E+02  0.51100000000E-03 0. -1.
    9900012    2    1    2    0    0 -0.18363635086E+02  0.14398334337E+02 -0.36593551491E+02  0.47787272633E+02  0.20000007242E+02 0.  0.
        -12    1    1    2    0    0  0.18363635086E+02 -0.14398334337E+02  0.36593551491E+02  0.43400727367E+02  0.00000000000E+00 0.  1.
         11    1    3    3    0    0 -0.12061452213E+02  0.86749355667E+01 -0.17725824194E+02  0.23128726298E+02  0.51100000000E-03 0. -1.
        -11    1    3    3    0    0 -0.30365589410E+01  0.52533842808E+01 -0.20206571339E+02  0.21097968200E+02  0.51100000000E-03 0.  1.
        -12    1    3    3    0    0 -0.32656239322E+01  0.47001448936E+00  0.13388440418E+01  0.35605781350E+01  0.00000000000E+00 0.  1.
</event>
<event>
 7    1  0.3910751E-009  0.4778727E+02  0.7816164E-02  0.1312668E+00
        -11   -1    0    0    0    0  0.00000000000E+00  0.00000000000E+00  0.45593999997E+02  0.45594000000E+02  0.51100000000E-03 0.  1.
         11   -1    0    0    0    0 -0.00000000000E+00 -0.00000000000E+00 -0.45593999997E+02  0.45594000000E+02  0.51100000000E-03 0. -1.
    9900012    2    1    2    0    0 -0.10346561535E+02  0.20402720718E+02 -0.36882257154E+02  0.47787271422E+02  0.20000001722E+02 0.  0.
        -12    1    1    2    0    0  0.10346561535E+02 -0.20402720718E+02  0.36882257154E+02  0.43400728578E+02  0.00000000000E+00 0.  1.
         11    1    3    3    0    0  0.46484364413E+01  0.10076292937E+02 -0.10639389055E+02  0.15373231294E+02  0.51100000000E-03 0. -1.
        -11    1    3    3    0    0 -0.16410307401E+01  0.41868205734E+00 -0.59093895767E+01  0.61472889948E+01  0.51100000000E-03 0.  1.
        -12    1    3    3    0    0 -0.13353967236E+02  0.99077457236E+01 -0.20333478523E+02  0.26266751133E+02  0.00000000000E+00 0.  1.
</event>
<event>
 7    1  0.3910751E-009  0.4778727E+02  0.7816164E-02  0.1312668E+00
        -11   -1    0    0    0    0  0.00000000000E+00  0.00000000000E+00  0.45593999997E+02  0.45594000000E+02  0.51100000000E-03 0.  1.
         11   -1    0    0    0    0 -0.00000000000E+00 -0.00000000000E+00 -0.45593999997E+02  0.45594000000E+02  0.51100000000E-03 0. -1.
    9900012    2    1    2    0    0 -0.32138897250E+02 -0.85931372014E+01 -0.27872437524E+02  0.47787268474E+02  0.19999988281E+02 0.  0.
        -12    1    1    2    0    0  0.32138897250E+02  0.85931372014E+01  0.27872437524E+02  0.43400731526E+02  0.00000000000E+00 0.  1.
         11    1    3    3    0    0 -0.43667095888E+01 -0.30241157306E+00  0.19562707057E+00  0.43815380409E+01  0.51100000000E-03 0. -1.
        -11    1    3    3    0    0 -0.54266655668E+01 -0.30007449849E+01  0.10847048953E+01  0.62952168039E+01  0.51100000000E-03 0.  1.
         12    1    3    3    0    0 -0.22345522095E+02 -0.52899806435E+01 -0.29152769490E+02  0.37110513629E+02  0.00000000000E+00 0. -1.
</event>
<event>
 7    1  0.3910751E-009  0.4778727E+02  0.7816164E-02  0.1312668E+00
        -11   -1    0    0    0    0  0.00000000000E+00  0.00000000000E+00  0.45593999997E+02  0.45594000000E+02  0.51100000000E-03 0.  1.
         11   -1    0    0    0    0 -0.00000000000E+00 -0.00000000000E+00 -0.45593999997E+02  0.45594000000E+02  0.51100000000E-03 0. -1.
    9900012    2    1    2    0    0  0.16241124381E+02 -0.17612544908E+02 -0.36189050588E+02  0.47787271414E+02  0.20000001685E+02 0.  0.
        -12    1    1    2    0    0 -0.16241124381E+02  0.17612544908E+02  0.36189050588E+02  0.43400728586E+02  0.00000000000E+00 0.  1.
         11    1    3    3    0    0  0.11633100565E+02 -0.17698737120E+02 -0.25060905626E+02  0.32811938612E+02  0.51100000000E-03 0. -1.
        -11    1    3    3    0    0  0.47375433537E+00 -0.23352451019E+01 -0.96816226918E+01  0.99705381531E+01  0.51100000000E-03 0.  1.
        -12    1    3    3    0    0  0.41342694809E+01  0.24214373134E+01 -0.14465222703E+01  0.50047946493E+01  0.00000000000E+00 0.  1.
</event>
<event>
 7    1  0.3910751E-009  0.4778727E+02  0.7816164E-02  0.1312668E+00
        -11   -1    0    0    0    0  0.00000000000E+00  0.00000000000E+00  0.45593999997E+02  0.45594000000E+02  0.51100000000E-03 0.  1.
         11   -1    0    0    0    0 -0.00000000000E+00 -0.00000000000E+00 -0.45593999997E+02  0.45594000000E+02  0.51100000000E-03 0. -1.
    9900012    2    1    2    0    0  0.21530569903E+02 -0.21488144998E+02 -0.30956708772E+02  0.47787266898E+02  0.19999981094E+02 0.  0.
        -12    1    1    2    0    0 -0.21530569903E+02  0.21488144998E+02  0.30956708772E+02  0.43400733102E+02  0.00000000000E+00 0.  1.
         11    1    3    3    0    0 -0.43564878543E+00 -0.25076999700E+01  0.37450454357E+00  0.25726645560E+01  0.51100000000E-03 0. -1.
        -11    1    3    3    0    0  0.18957380685E+02 -0.98915408272E+01 -0.14450104559E+02  0.25807564480E+02  0.51100000000E-03 0.  1.
         12    1    3    3    0    0  0.30088380029E+01 -0.90889042011E+01 -0.16881108757E+02  0.19407037862E+02  0.00000000000E+00 0. -1.
</event>
<event>
 7    1  0.3910751E-009  0.4778727E+02  0.7816164E-02  0.1312668E+00
        -11   -1    0    0    0    0  0.00000000000E+00  0.00000000000E+00  0.45593999997E+02  0.45594000000E+02  0.51100000000E-03 0.  1.
         11   -1    0    0    0    0 -0.00000000000E+00 -0.00000000000E+00 -0.45593999997E+02  0.45594000000E+02  0.51100000000E-03 0. -1.
    9900012    2    1    2    0    0 -0.38202056747E+02 -0.13897312935E+02 -0.15201667363E+02  0.47787272620E+02  0.20000007183E+02 0.  0.
        -12    1    1    2    0    0  0.38202056747E+02  0.13897312935E+02  0.15201667363E+02  0.43400727380E+02  0.00000000000E+00 0.  1.
         11    1    3    3    0    0 -0.17193752136E+01 -0.49922396787E+01  0.13650303123E+01  0.54536241298E+01  0.51100000000E-03 0. -1.
        -11    1    3    3    0    0 -0.44310256115E+01  0.20269326444E+01 -0.65283709684E+00  0.49161611498E+01  0.51100000000E-03 0.  1.
         12    1    3    3    0    0 -0.32051655922E+02 -0.10932005901E+02 -0.15913860579E+02  0.37417487340E+02  0.00000000000E+00 0. -1.
</event>
<event>
 7    1  0.3910751E-009  0.4778727E+02  0.7816164E-02  0.1312668E+00
        -11   -1    0    0    0    0  0.00000000000E+00  0.00000000000E+00  0.45593999997E+02  0.45594000000E+02  0.51100000000E-03 0. -1.
         11   -1    0    0    0    0 -0.00000000000E+00 -0.00000000000E+00 -0.45593999997E+02  0.45594000000E+02  0.51100000000E-03 0.  1.
    9900012    2    1    2    0    0  0.23223163393E+02  0.15262908216E+02  0.33336940098E+02  0.47787271201E+02  0.20000000715E+02 0.  0.
        -12    1    1    2    0    0 -0.23223163393E+02 -0.15262908216E+02 -0.33336940098E+02  0.43400728799E+02  0.00000000000E+00 0.  1.
         11    1    3    3    0    0  0.16080592244E+02  0.11682393491E+02  0.13185552654E+02  0.23852097679E+02  0.51100000000E-03 0. -1.
        -11    1    3    3    0    0  0.75966953454E+00 -0.77547455072E+00 -0.96297242207E+00  0.14511287770E+01  0.51100000000E-03 0.  1.
        -12    1    3    3    0    0  0.63829016137E+01  0.43559892757E+01  0.21114359866E+02  0.22484044746E+02  0.00000000000E+00 0.  1.
</event>
<event>
 7    1  0.3910751E-009  0.4778727E+02  0.7816164E-02  0.1312668E+00
        -11   -1    0    0    0    0  0.00000000000E+00  0.00000000000E+00  0.45593999997E+02  0.45594000000E+02  0.51100000000E-03 0.  1.
         11   -1    0    0    0    0 -0.00000000000E+00 -0.00000000000E+00 -0.45593999997E+02  0.45594000000E+02  0.51100000000E-03 0. -1.
    9900012    2    1    2    0    0  0.13739063284E+02 -0.31501918880E+02 -0.26504542159E+02  0.47787268346E+02  0.19999987696E+02 0.  0.
        -12    1    1    2    0    0 -0.13739063284E+02  0.31501918880E+02  0.26504542159E+02  0.43400731654E+02  0.00000000000E+00 0.  1.
         11    1    3    3    0    0 -0.16963523248E+01 -0.17450410441E+00 -0.23983726600E+01  0.29428310468E+01  0.51100000000E-03 0. -1.
        -11    1    3    3    0    0  0.86845021148E+01 -0.10456825801E+02 -0.20659199231E+01  0.13748956623E+02  0.51100000000E-03 0.  1.
         12    1    3    3    0    0  0.67509134945E+01 -0.20870588974E+02 -0.22040249576E+02  0.31095480677E+02  0.00000000000E+00 0. -1.
</event>
<event>
 7    1  0.3910751E-009  0.4778727E+02  0.7816164E-02  0.1312668E+00
        -11   -1    0    0    0    0  0.00000000000E+00  0.00000000000E+00  0.45593999997E+02  0.45594000000E+02  0.51100000000E-03 0. -1.
         11   -1    0    0    0    0 -0.00000000000E+00 -0.00000000000E+00 -0.45593999997E+02  0.45594000000E+02  0.51100000000E-03 0.  1.
    9900012    2    1    2    0    0  0.40261748751E+01 -0.31147716588E+02  0.29953851729E+02  0.47787267677E+02  0.19999984646E+02 0.  0.
        -12    1    1    2    0    0 -0.40261748751E+01  0.31147716588E+02 -0.29953851729E+02  0.43400732323E+02  0.00000000000E+00 0.  1.
         11    1    3    3    0    0  0.23584662988E+01 -0.56315196349E+01  0.47755344366E+01  0.77512648063E+01  0.51100000000E-03 0. -1.
        -11    1    3    3    0    0  0.35125092103E+01 -0.14789396321E+02  0.24869741668E+02  0.29147350058E+02  0.51100000000E-03 0.  1.
         12    1    3    3    0    0 -0.18448006339E+01 -0.10726800631E+02  0.30857562499E+00  0.10888652813E+02  0.00000000000E+00 0. -1.
</event>
<event>
 7    1  0.3910751E-009  0.4778727E+02  0.7816164E-02  0.1312668E+00
        -11   -1    0    0    0    0  0.00000000000E+00  0.00000000000E+00  0.45593999997E+02  0.45594000000E+02  0.51100000000E-03 0.  1.
         11   -1    0    0    0    0 -0.00000000000E+00 -0.00000000000E+00 -0.45593999997E+02  0.45594000000E+02  0.51100000000E-03 0. -1.
    9900012    2    1    2    0    0  0.39869574521E+02 -0.15226049384E+02 -0.78871888297E+01  0.47787270744E+02  0.19999998630E+02 0.  0.
        -12    1    1    2    0    0 -0.39869574521E+02  0.15226049384E+02  0.78871888297E+01  0.43400729256E+02  0.00000000000E+00 0.  1.
         11    1    3    3    0    0  0.54147067595E+01 -0.75269055633E+01 -0.40730029964E+01  0.10127324934E+02  0.51100000000E-03 0. -1.
        -11    1    3    3    0    0  0.10837117940E+02  0.54705047819E-01  0.40780640743E+01  0.11579150433E+02  0.51100000000E-03 0.  1.
         12    1    3    3    0    0  0.23617749821E+02 -0.77538488683E+01 -0.78922499075E+01  0.26080795377E+02  0.00000000000E+00 0. -1.
</event>
<event>
 7    1  0.3910751E-009  0.4778728E+02  0.7816164E-02  0.1312668E+00
        -11   -1    0    0    0    0  0.00000000000E+00  0.00000000000E+00  0.45593999997E+02  0.45594000000E+02  0.51100000000E-03 0.  1.
         11   -1    0    0    0    0 -0.00000000000E+00 -0.00000000000E+00 -0.45593999997E+02  0.45594000000E+02  0.51100000000E-03 0. -1.
    9900012    2    1    2    0    0  0.35529801959E+02 -0.18024515361E+02 -0.17215467169E+02  0.47787282367E+02  0.20000051624E+02 0.  0.
        -12    1    1    2    0    0 -0.35529801959E+02  0.18024515361E+02  0.17215467169E+02  0.43400717633E+02  0.00000000000E+00 0.  1.
         11    1    3    3    0    0  0.88498953634E+01 -0.33895153094E+01 -0.10166406494E+02  0.13898391390E+02  0.51100000000E-03 0. -1.
        -11    1    3    3    0    0  0.21342575055E+02 -0.15988910928E+02 -0.88466695508E+01  0.28096518379E+02  0.51100000000E-03 0.  1.
        -12    1    3    3    0    0  0.53373315406E+01  0.13539108767E+01  0.17976088759E+01  0.57923725974E+01  0.00000000000E+00 0.  1.
</event>
<event>
 7    1  0.3910751E-009  0.4778728E+02  0.7816164E-02  0.1312668E+00
        -11   -1    0    0    0    0  0.00000000000E+00  0.00000000000E+00  0.45593999997E+02  0.45594000000E+02  0.51100000000E-03 0.  1.
         11   -1    0    0    0    0 -0.00000000000E+00 -0.00000000000E+00 -0.45593999997E+02  0.45594000000E+02  0.51100000000E-03 0. -1.
    9900012    2    1    2    0    0  0.42197858778E+02 -0.94062854743E+01 -0.38058636099E+01  0.47787284687E+02  0.20000062201E+02 0.  0.
        -12    1    1    2    0    0 -0.42197858778E+02  0.94062854743E+01  0.38058636099E+01  0.43400715313E+02  0.00000000000E+00 0.  1.
         11    1    3    3    0    0  0.27415341159E+02  0.24475849374E+01 -0.49206142325E+01  0.27960759066E+02  0.51100000000E-03 0. -1.
        -11    1    3    3    0    0 -0.37022929937E+00 -0.72993423515E+00  0.61250853399E+00  0.10222723155E+01  0.51100000000E-03 0.  1.
         12    1    3    3    0    0  0.15152746919E+02 -0.11123936177E+02  0.50224208855E+00  0.18804253305E+02  0.00000000000E+00 0. -1.
</event>
<event>
 7    1  0.3910751E-009  0.4778727E+02  0.7816164E-02  0.1312668E+00
        -11   -1    0    0    0    0  0.00000000000E+00  0.00000000000E+00  0.45593999997E+02  0.45594000000E+02  0.51100000000E-03 0.  1.
         11   -1    0    0    0    0 -0.00000000000E+00 -0.00000000000E+00 -0.45593999997E+02  0.45594000000E+02  0.51100000000E-03 0. -1.
    9900012    2    1    2    0    0 -0.16478665727E+02  0.34650829717E+02 -0.20282920626E+02  0.47787270820E+02  0.19999998977E+02 0.  0.
        -12    1    1    2    0    0  0.16478665727E+02 -0.34650829717E+02  0.20282920626E+02  0.43400729180E+02  0.00000000000E+00 0.  1.
         11    1    3    3    0    0 -0.56104630405E+01  0.47865062249E+01  0.34938419897E+00  0.73830892552E+01  0.51100000000E-03 0. -1.
        -11    1    3    3    0    0 -0.68781304522E+01  0.18315678103E+02 -0.43416011201E+01  0.20040515050E+02  0.51100000000E-03 0.  1.
         12    1    3    3    0    0 -0.39900722342E+01  0.11548645389E+02 -0.16290703705E+02  0.20363666515E+02  0.00000000000E+00 0. -1.
</event>
<event>
 7    1  0.3910751E-009  0.4778726E+02  0.7816164E-02  0.1312668E+00
        -11   -1    0    0    0    0  0.00000000000E+00  0.00000000000E+00  0.45593999997E+02  0.45594000000E+02  0.51100000000E-03 0.  1.
         11   -1    0    0    0    0 -0.00000000000E+00 -0.00000000000E+00 -0.45593999997E+02  0.45594000000E+02  0.51100000000E-03 0. -1.
    9900012    2    1    2    0    0  0.16010165403E+02 -0.64997171441E+01 -0.39812717690E+02  0.47787260271E+02  0.19999950878E+02 0.  0.
        -12    1    1    2    0    0 -0.16010165403E+02  0.64997171441E+01  0.39812717690E+02  0.43400739729E+02  0.00000000000E+00 0.  1.
         11    1    3    3    0    0  0.77716731384E+01  0.24154491926E+01 -0.86516272023E+01  0.11877876564E+02  0.51100000000E-03 0. -1.
        -11    1    3    3    0    0 -0.47079029069E+00 -0.60365648518E+01 -0.40395873667E+01  0.72787378756E+01  0.51100000000E-03 0.  1.
         12    1    3    3    0    0  0.87092825552E+01 -0.28786014849E+01 -0.27121503121E+02  0.28630645831E+02  0.00000000000E+00 0. -1.
</event>
<event>
 7    1  0.3910751E-009  0.4778728E+02  0.7816164E-02  0.1312668E+00
        -11   -1    0    0    0    0  0.00000000000E+00  0.00000000000E+00  0.45593999997E+02  0.45594000000E+02  0.51100000000E-03 0.  1.
         11   -1    0    0    0    0 -0.00000000000E+00 -0.00000000000E+00 -0.45593999997E+02  0.45594000000E+02  0.51100000000E-03 0. -1.
    9900012    2    1    2    0    0  0.20751928526E+01  0.28338180355E+02 -0.32806459473E+02  0.47787277951E+02  0.20000031490E+02 0.  0.
        -12    1    1    2    0    0 -0.20751928526E+01 -0.28338180355E+02  0.32806459473E+02  0.43400722049E+02  0.00000000000E+00 0.  1.
         11    1    3    3    0    0  0.13183482380E+01  0.80771664378E+01 -0.13400979711E+02  0.15702385717E+02  0.51100000000E-03 0. -1.
        -11    1    3    3    0    0  0.54216989326E+00  0.13324274783E+01 -0.11468709124E+02  0.11558572594E+02  0.51100000000E-03 0.  1.
        -12    1    3    3    0    0  0.21467472138E+00  0.18928586439E+02 -0.79367706387E+01  0.20526319640E+02  0.00000000000E+00 0.  1.
</event>
<event>
 7    1  0.3910751E-009  0.4778723E+02  0.7816164E-02  0.1312668E+00
        -11   -1    0    0    0    0  0.00000000000E+00  0.00000000000E+00  0.45593999997E+02  0.45594000000E+02  0.51100000000E-03 0.  1.
         11   -1    0    0    0    0 -0.00000000000E+00 -0.00000000000E+00 -0.45593999997E+02  0.45594000000E+02  0.51100000000E-03 0. -1.
    9900012    2    1    2    0    0 -0.40579191472E+02 -0.56959204961E+01  0.14300801212E+02  0.47787225743E+02  0.19999793450E+02 0.  0.
        -12    1    1    2    0    0  0.40579191472E+02  0.56959204961E+01 -0.14300801212E+02  0.43400774257E+02  0.00000000000E+00 0.  1.
         11    1    3    3    0    0 -0.21746145960E+02 -0.23800495506E+01  0.18573709074E+01  0.21954710814E+02  0.51100000000E-03 0. -1.
        -11    1    3    3    0    0 -0.21618018259E+01 -0.33497433916E+01 -0.13350415508E+01  0.42043434836E+01  0.51100000000E-03 0.  1.
        -12    1    3    3    0    0 -0.16671243686E+02  0.33872446104E-01  0.13778471856E+02  0.21628171445E+02  0.00000000000E+00 0.  1.
</event>
<event>
 7    1  0.3910751E-009  0.4778727E+02  0.7816164E-02  0.1312668E+00
        -11   -1    0    0    0    0  0.00000000000E+00  0.00000000000E+00  0.45593999997E+02  0.45594000000E+02  0.51100000000E-03 0.  1.
         11   -1    0    0    0    0 -0.00000000000E+00 -0.00000000000E+00 -0.45593999997E+02  0.45594000000E+02  0.51100000000E-03 0. -1.
    9900012    2    1    2    0    0  0.13591834081E+02 -0.39352673804E+02 -0.12257737771E+02  0.47787273918E+02  0.20000013100E+02 0.  0.
        -12    1    1    2    0    0 -0.13591834081E+02  0.39352673804E+02  0.12257737771E+02  0.43400726082E+02  0.00000000000E+00 0.  1.
         11    1    3    3    0    0  0.84374943242E+01 -0.95447668771E+01 -0.24379059271E+01  0.12970631086E+02  0.51100000000E-03 0. -1.
        -11    1    3    3    0    0 -0.20395264934E+00  0.14995338162E+01  0.16310931328E+00  0.15221048775E+01  0.51100000000E-03 0.  1.
         12    1    3    3    0    0  0.53582924058E+01 -0.31307440743E+02 -0.99829411574E+01  0.33294537954E+02  0.00000000000E+00 0. -1.
</event>
<event>
 7    1  0.3910751E-009  0.4778727E+02  0.7816164E-02  0.1312668E+00
        -11   -1    0    0    0    0  0.00000000000E+00  0.00000000000E+00  0.45593999997E+02  0.45594000000E+02  0.51100000000E-03 0. -1.
         11   -1    0    0    0    0 -0.00000000000E+00 -0.00000000000E+00 -0.45593999997E+02  0.45594000000E+02  0.51100000000E-03 0.  1.
    9900012    2    1    2    0    0  0.39138422459E+02 -0.14255867980E+02  0.12189232238E+02  0.47787271123E+02  0.20000000359E+02 0.  0.
        -12    1    1    2    0    0 -0.39138422459E+02  0.14255867980E+02 -0.12189232238E+02  0.43400728877E+02  0.00000000000E+00 0.  1.
         11    1    3    3    0    0  0.49972299273E+01  0.14617288955E+01  0.42423056063E+01  0.67161086523E+01  0.51100000000E-03 0. -1.
        -11    1    3    3    0    0  0.33993728456E+01 -0.71051759935E+01  0.42007866857E+01  0.89266942752E+01  0.51100000000E-03 0.  1.
         12    1    3    3    0    0  0.30741819686E+02 -0.86124208825E+01  0.37461399462E+01  0.32144468196E+02  0.00000000000E+00 0. -1.
</event>
<event>
 7    1  0.3910751E-009  0.4778727E+02  0.7816164E-02  0.1312668E+00
        -11   -1    0    0    0    0  0.00000000000E+00  0.00000000000E+00  0.45593999997E+02  0.45594000000E+02  0.51100000000E-03 0.  1.
         11   -1    0    0    0    0 -0.00000000000E+00 -0.00000000000E+00 -0.45593999997E+02  0.45594000000E+02  0.51100000000E-03 0. -1.
    9900012    2    1    2    0    0 -0.25865890703E+02 -0.31300197232E+02 -0.15325677218E+02  0.47787273845E+02  0.20000012769E+02 0.  0.
        -12    1    1    2    0    0  0.25865890703E+02  0.31300197232E+02  0.15325677218E+02  0.43400726155E+02  0.00000000000E+00 0.  1.
         11    1    3    3    0    0 -0.11096839360E+02 -0.88287176847E+01 -0.76174749095E+01  0.16096956979E+02  0.51100000000E-03 0. -1.
        -11    1    3    3    0    0 -0.13198204296E+02 -0.68849767662E+01 -0.55016789541E+01  0.15870222849E+02  0.51100000000E-03 0.  1.
         12    1    3    3    0    0 -0.15708470473E+01 -0.15586502781E+02 -0.22065233542E+01  0.15820094017E+02  0.00000000000E+00 0. -1.
</event>
<event>
 7    1  0.3910751E-009  0.4778727E+02  0.7816164E-02  0.1312668E+00
        -11   -1    0    0    0    0  0.00000000000E+00  0.00000000000E+00  0.45593999997E+02  0.45594000000E+02  0.51100000000E-03 0.  1.
         11   -1    0    0    0    0 -0.00000000000E+00 -0.00000000000E+00 -0.45593999997E+02  0.45594000000E+02  0.51100000000E-03 0. -1.
    9900012    2    1    2    0    0  0.33533172734E+02  0.27383049401E+02 -0.30525853714E+01  0.47787270219E+02  0.19999996235E+02 0.  0.
        -12    1    1    2    0    0 -0.33533172734E+02 -0.27383049401E+02  0.30525853714E+01  0.43400729781E+02  0.00000000000E+00 0.  1.
         11    1    3    3    0    0  0.48394633088E+01  0.74596226854E+01 -0.82268715483E+01  0.12113950283E+02  0.51100000000E-03 0. -1.
        -11    1    3    3    0    0  0.74328621216E+00 -0.29149587321E+00  0.18884406665E+00  0.82043072828E+00  0.51100000000E-03 0.  1.
         12    1    3    3    0    0  0.27950423213E+02  0.20214922589E+02  0.49854421102E+01  0.34852889207E+02  0.00000000000E+00 0. -1.
</event>
<event>
 7    1  0.3910751E-009  0.4778727E+02  0.7816164E-02  0.1312668E+00
        -11   -1    0    0    0    0  0.00000000000E+00  0.00000000000E+00  0.45593999997E+02  0.45594000000E+02  0.51100000000E-03 0.  1.
         11   -1    0    0    0    0 -0.00000000000E+00 -0.00000000000E+00 -0.45593999997E+02  0.45594000000E+02  0.51100000000E-03 0. -1.
    9900012    2    1    2    0    0 -0.26346465632E+02  0.33575138396E+02  0.78865070801E+01  0.47787272316E+02  0.20000005796E+02 0.  0.
        -12    1    1    2    0    0  0.26346465632E+02 -0.33575138396E+02 -0.78865070801E+01  0.43400727684E+02  0.00000000000E+00 0.  1.
         11    1    3    3    0    0 -0.37813088971E+01  0.15934493087E+01 -0.37338475137E+01  0.55478820456E+01  0.51100000000E-03 0. -1.
        -11    1    3    3    0    0 -0.69272013123E+01  0.67532691131E+01 -0.14946029888E+01  0.97891061947E+01  0.51100000000E-03 0.  1.
         12    1    3    3    0    0 -0.15637955423E+02  0.25228419974E+02  0.13114957583E+02  0.32450284075E+02  0.00000000000E+00 0. -1.
</event>
<event>
 7    1  0.3910751E-009  0.4778727E+02  0.7816164E-02  0.1312668E+00
        -11   -1    0    0    0    0  0.00000000000E+00  0.00000000000E+00  0.45593999997E+02  0.45594000000E+02  0.51100000000E-03 0. -1.
         11   -1    0    0    0    0 -0.00000000000E+00 -0.00000000000E+00 -0.45593999997E+02  0.45594000000E+02  0.51100000000E-03 0.  1.
    9900012    2    1    2    0    0 -0.33134907169E+02  0.19427458191E+02  0.20205815440E+02  0.47787272098E+02  0.20000004804E+02 0.  0.
        -12    1    1    2    0    0  0.33134907169E+02 -0.19427458191E+02 -0.20205815440E+02  0.43400727902E+02  0.00000000000E+00 0.  1.
         11    1    3    3    0    0 -0.17682779698E+02  0.91956462403E+01  0.11754506734E+02  0.23138907416E+02  0.51100000000E-03 0. -1.
        -11    1    3    3    0    0 -0.12625281127E+02  0.90952447347E+01  0.12232218057E+02  0.19792633963E+02  0.51100000000E-03 0.  1.
        -12    1    3    3    0    0 -0.28268463443E+01  0.11365672159E+01 -0.37809093515E+01  0.48557307189E+01  0.00000000000E+00 0.  1.
</event>
<event>
 7    1  0.3910751E-009  0.4778727E+02  0.7816164E-02  0.1312668E+00
        -11   -1    0    0    0    0  0.00000000000E+00  0.00000000000E+00  0.45593999997E+02  0.45594000000E+02  0.51100000000E-03 0. -1.
         11   -1    0    0    0    0 -0.00000000000E+00 -0.00000000000E+00 -0.45593999997E+02  0.45594000000E+02  0.51100000000E-03 0.  1.
    9900012    2    1    2    0    0  0.36054170550E+02 -0.23707553108E+02  0.46553052026E+01  0.47787272415E+02  0.20000006248E+02 0.  0.
        -12    1    1    2    0    0 -0.36054170550E+02  0.23707553108E+02 -0.46553052026E+01  0.43400727585E+02  0.00000000000E+00 0.  1.
         11    1    3    3    0    0  0.11432559512E+02  0.12072430699E+01  0.25109217140E+01  0.11767139879E+02  0.51100000000E-03 0. -1.
        -11    1    3    3    0    0  0.60368592117E+01 -0.46613943453E+01 -0.27344999310E+01  0.81024537344E+01  0.51100000000E-03 0.  1.
        -12    1    3    3    0    0  0.18584751826E+02 -0.20253401833E+02  0.48788834195E+01  0.27917678801E+02  0.00000000000E+00 0.  1.
</event>
<event>
 7    1  0.3910751E-009  0.4778727E+02  0.7816164E-02  0.1312668E+00
        -11   -1    0    0    0    0  0.00000000000E+00  0.00000000000E+00  0.45593999997E+02  0.45594000000E+02  0.51100000000E-03 0.  1.
         11   -1    0    0    0    0 -0.00000000000E+00 -0.00000000000E+00 -0.45593999997E+02  0.45594000000E+02  0.51100000000E-03 0. -1.
    9900012    2    1    2    0    0  0.18184274073E+02 -0.27845403732E+02 -0.27885283950E+02  0.47787269666E+02  0.19999993717E+02 0.  0.
        -12    1    1    2    0    0 -0.18184274073E+02  0.27845403732E+02  0.27885283950E+02  0.43400730334E+02  0.00000000000E+00 0.  1.
         11    1    3    3    0    0  0.83289465098E+01 -0.58805634523E+01 -0.96855461429E+01  0.14062794204E+02  0.51100000000E-03 0. -1.
        -11    1    3    3    0    0  0.74957963295E+01 -0.22713311255E+01 -0.87835727517E+01  0.11768477312E+02  0.51100000000E-03 0.  1.
        -12    1    3    3    0    0  0.23595312339E+01 -0.19693509154E+02 -0.94161650550E+01  0.21955998150E+02  0.00000000000E+00 0.  1.
</event>
<event>
 7    1  0.3910751E-009  0.4778728E+02  0.7816164E-02  0.1312668E+00
        -11   -1    0    0    0    0  0.00000000000E+00  0.00000000000E+00  0.45593999997E+02  0.45594000000E+02  0.51100000000E-03 0.  1.
         11   -1    0    0    0    0 -0.00000000000E+00 -0.00000000000E+00 -0.45593999997E+02  0.45594000000E+02  0.51100000000E-03 0. -1.
    9900012    2    1    2    0    0  0.37609081207E+02 -0.20730609140E+02 -0.62786440626E+01  0.47787279777E+02  0.20000039817E+02 0.  0.
        -12    1    1    2    0    0 -0.37609081207E+02  0.20730609140E+02  0.62786440626E+01  0.43400720223E+02  0.00000000000E+00 0.  1.
         11    1    3    3    0    0 -0.32203378537E+00  0.10519246616E+01 -0.84238892690E+00  0.13855939586E+01  0.51100000000E-03 0.  1.
        -11    1    3    3    0    0  0.16796026868E+02 -0.55630100588E+01 -0.84182745734E+01  0.19593900748E+02  0.51100000000E-03 0. -1.
         12    1    3    3    0    0  0.21135088124E+02 -0.16219523743E+02  0.29820194378E+01  0.26807785071E+02  0.00000000000E+00 0. -1.
</event>
<event>
 7    1  0.3910751E-009  0.4778727E+02  0.7816164E-02  0.1312668E+00
        -11   -1    0    0    0    0  0.00000000000E+00  0.00000000000E+00  0.45593999997E+02  0.45594000000E+02  0.51100000000E-03 0.  1.
         11   -1    0    0    0    0 -0.00000000000E+00 -0.00000000000E+00 -0.45593999997E+02  0.45594000000E+02  0.51100000000E-03 0. -1.
    9900012    2    1    2    0    0 -0.18328749824E+02 -0.99476342033E+01 -0.38062115473E+02  0.47787272695E+02  0.20000007526E+02 0.  0.
        -12    1    1    2    0    0  0.18328749824E+02  0.99476342033E+01  0.38062115473E+02  0.43400727305E+02  0.00000000000E+00 0.  1.
         11    1    3    3    0    0 -0.88138555564E+01 -0.52837052151E+00 -0.25193560070E+02  0.26696042673E+02  0.51100000000E-03 0. -1.
        -11    1    3    3    0    0 -0.75624176811E+01 -0.51190037777E+00 -0.62385955360E+01  0.98169383060E+01  0.51100000000E-03 0.  1.
        -12    1    3    3    0    0 -0.19524765860E+01 -0.89073633040E+01 -0.66299598671E+01  0.11274291716E+02  0.00000000000E+00 0.  1.
</event>
<event>
 7    1  0.3910751E-009  0.4778727E+02  0.7816164E-02  0.1312668E+00
        -11   -1    0    0    0    0  0.00000000000E+00  0.00000000000E+00  0.45593999997E+02  0.45594000000E+02  0.51100000000E-03 0.  1.
         11   -1    0    0    0    0 -0.00000000000E+00 -0.00000000000E+00 -0.45593999997E+02  0.45594000000E+02  0.51100000000E-03 0. -1.
    9900012    2    1    2    0    0 -0.36010915832E+02  0.19213764454E+02  0.14753590229E+02  0.47787271571E+02  0.20000002402E+02 0.  0.
        -12    1    1    2    0    0  0.36010915832E+02 -0.19213764454E+02 -0.14753590229E+02  0.43400728429E+02  0.00000000000E+00 0.  1.
         11    1    3    3    0    0 -0.20359324943E+02  0.17757683018E+02  0.61457284673E+01  0.27705728595E+02  0.51100000000E-03 0. -1.
        -11    1    3    3    0    0 -0.98892693577E+01  0.18972351238E+01  0.44430573282E+00  0.10079412552E+02  0.51100000000E-03 0.  1.
         12    1    3    3    0    0 -0.57623215306E+01 -0.44115368855E+00  0.81635560284E+01  0.10002130424E+02  0.00000000000E+00 0. -1.
</event>
<event>
 7    1  0.3910751E-009  0.4778727E+02  0.7816164E-02  0.1312668E+00
        -11   -1    0    0    0    0  0.00000000000E+00  0.00000000000E+00  0.45593999997E+02  0.45594000000E+02  0.51100000000E-03 0.  1.
         11   -1    0    0    0    0 -0.00000000000E+00 -0.00000000000E+00 -0.45593999997E+02  0.45594000000E+02  0.51100000000E-03 0. -1.
    9900012    2    1    2    0    0  0.17087044951E+02  0.33906911287E+02 -0.21023255268E+02  0.47787274197E+02  0.20000014372E+02 0.  0.
        -12    1    1    2    0    0 -0.17087044951E+02 -0.33906911287E+02  0.21023255268E+02  0.43400725803E+02  0.00000000000E+00 0.  1.
         11    1    3    3    0    0 -0.10455868521E+01 -0.60984199252E+00 -0.15626043315E+01  0.19765858643E+01  0.51100000000E-03 0. -1.
        -11    1    3    3    0    0  0.88653570974E+00  0.16616286710E+01  0.21593299267E+01  0.28652506694E+01  0.51100000000E-03 0.  1.
         12    1    3    3    0    0  0.17246096094E+02  0.32855124609E+02 -0.21619980863E+02  0.42945437663E+02  0.00000000000E+00 0. -1.
</event>
<event>
 7    1  0.3910751E-009  0.4778727E+02  0.7816164E-02  0.1312668E+00
        -11   -1    0    0    0    0  0.00000000000E+00  0.00000000000E+00  0.45593999997E+02  0.45594000000E+02  0.51100000000E-03 0. -1.
         11   -1    0    0    0    0 -0.00000000000E+00 -0.00000000000E+00 -0.45593999997E+02  0.45594000000E+02  0.51100000000E-03 0.  1.
    9900012    2    1    2    0    0 -0.67082867664E+01  0.58853954731E+01  0.42473338479E+02  0.47787268754E+02  0.19999989555E+02 0.  0.
        -12    1    1    2    0    0  0.67082867664E+01 -0.58853954731E+01 -0.42473338479E+02  0.43400731246E+02  0.00000000000E+00 0.  1.
         11    1    3    3    0    0  0.52612770208E+01 -0.21229936192E+01  0.18172828679E+02  0.19037852826E+02  0.51100000000E-03 0. -1.
        -11    1    3    3    0    0 -0.21622995595E+00  0.44722085908E+00 -0.20622282023E+00  0.53785686140E+00  0.51100000000E-03 0.  1.
         12    1    3    3    0    0 -0.11753333831E+02  0.75611682333E+01  0.24506732620E+02  0.28211559066E+02  0.00000000000E+00 0. -1.
</event>
<event>
 7    1  0.3910751E-009  0.4778728E+02  0.7816164E-02  0.1312668E+00
        -11   -1    0    0    0    0  0.00000000000E+00  0.00000000000E+00  0.45593999997E+02  0.45594000000E+02  0.51100000000E-03 0.  1.
         11   -1    0    0    0    0 -0.00000000000E+00 -0.00000000000E+00 -0.45593999997E+02  0.45594000000E+02  0.51100000000E-03 0. -1.
    9900012    2    1    2    0    0  0.12421496610E+02 -0.16012771155E+02 -0.38378646146E+02  0.47787275374E+02  0.20000019738E+02 0.  0.
        -12    1    1    2    0    0 -0.12421496610E+02  0.16012771155E+02  0.38378646146E+02  0.43400724626E+02  0.00000000000E+00 0.  1.
         11    1    3    3    0    0  0.30187523652E+01  0.13396190170E+01 -0.70460378927E+01  0.77816511872E+01  0.51100000000E-03 0. -1.
        -11    1    3    3    0    0  0.17579859291E+01  0.18664707153E+01 -0.98745727071E+01  0.10202029890E+02  0.51100000000E-03 0.  1.
        -12    1    3    3    0    0  0.76447583153E+01 -0.19218860887E+02 -0.21458035547E+02  0.29803594297E+02  0.00000000000E+00 0.  1.
</event>
<event>
 7    1  0.3910751E-009  0.4778727E+02  0.7816164E-02  0.1312668E+00
        -11   -1    0    0    0    0  0.00000000000E+00  0.00000000000E+00  0.45593999997E+02  0.45594000000E+02  0.51100000000E-03 0. -1.
         11   -1    0    0    0    0 -0.00000000000E+00 -0.00000000000E+00 -0.45593999997E+02  0.45594000000E+02  0.51100000000E-03 0.  1.
    9900012    2    1    2    0    0 -0.41631473845E+02  0.11841176724E+02  0.31984790113E+01  0.47787270183E+02  0.19999996072E+02 0.  0.
        -12    1    1    2    0    0  0.41631473845E+02 -0.11841176724E+02 -0.31984790113E+01  0.43400729817E+02  0.00000000000E+00 0.  1.
         11    1    3    3    0    0 -0.88863411630E+01 -0.10924808667E+01 -0.21809198034E+01  0.92150412456E+01  0.51100000000E-03 0. -1.
        -11    1    3    3    0    0 -0.23518126497E+02  0.11074589182E+02 -0.27433128526E+01  0.26139521134E+02  0.51100000000E-03 0.  1.
        -12    1    3    3    0    0 -0.92270061845E+01  0.18590684088E+01  0.81227116673E+01  0.12432707803E+02  0.00000000000E+00 0.  1.
</event>
<event>
 7    1  0.3910751E-009  0.4778727E+02  0.7816164E-02  0.1312668E+00
        -11   -1    0    0    0    0  0.00000000000E+00  0.00000000000E+00  0.45593999997E+02  0.45594000000E+02  0.51100000000E-03 0.  1.
         11   -1    0    0    0    0 -0.00000000000E+00 -0.00000000000E+00 -0.45593999997E+02  0.45594000000E+02  0.51100000000E-03 0. -1.
    9900012    2    1    2    0    0 -0.23530026037E+02  0.20550974667E+02 -0.30126710708E+02  0.47787269786E+02  0.19999994260E+02 0.  0.
        -12    1    1    2    0    0  0.23530026037E+02 -0.20550974667E+02  0.30126710708E+02  0.43400730214E+02  0.00000000000E+00 0.  1.
         11    1    3    3    0    0 -0.66255190030E+00 -0.13553992747E+01 -0.20964956761E+01  0.25829008103E+01  0.51100000000E-03 0.  1.
        -11    1    3    3    0    0 -0.10945242295E+02  0.35530230654E+01 -0.17431590666E+02  0.20887380286E+02  0.51100000000E-03 0. -1.
         12    1    3    3    0    0 -0.11922231842E+02  0.18353350876E+02 -0.10598624366E+02  0.24316988690E+02  0.00000000000E+00 0. -1.
</event>
<event>
 7    1  0.3910751E-009  0.4778727E+02  0.7816164E-02  0.1312668E+00
        -11   -1    0    0    0    0  0.00000000000E+00  0.00000000000E+00  0.45593999997E+02  0.45594000000E+02  0.51100000000E-03 0.  1.
         11   -1    0    0    0    0 -0.00000000000E+00 -0.00000000000E+00 -0.45593999997E+02  0.45594000000E+02  0.51100000000E-03 0. -1.
    9900012    2    1    2    0    0  0.44850232540E+00 -0.36111579657E+01 -0.43247907761E+02  0.47787272565E+02  0.20000006932E+02 0.  0.
        -12    1    1    2    0    0 -0.44850232540E+00  0.36111579657E+01  0.43247907761E+02  0.43400727435E+02  0.00000000000E+00 0.  1.
         11    1    3    3    0    0  0.10266649377E+01  0.69696325330E+00  0.82187701437E+00  0.14883819263E+01  0.51100000000E-03 0. -1.
        -11    1    3    3    0    0  0.44320728474E+01  0.65723124435E+00 -0.55223548403E+01  0.71113729952E+01  0.51100000000E-03 0.  1.
         12    1    3    3    0    0 -0.50102354597E+01 -0.49653524634E+01 -0.38547429935E+02  0.39187517643E+02  0.00000000000E+00 0. -1.
</event>
<event>
 7    1  0.3910751E-009  0.4778728E+02  0.7816164E-02  0.1312668E+00
        -11   -1    0    0    0    0  0.00000000000E+00  0.00000000000E+00  0.45593999997E+02  0.45594000000E+02  0.51100000000E-03 0. -1.
         11   -1    0    0    0    0 -0.00000000000E+00 -0.00000000000E+00 -0.45593999997E+02  0.45594000000E+02  0.51100000000E-03 0.  1.
    9900012    2    1    2    0    0  0.24136378005E+02 -0.14291477092E+02  0.33118145328E+02  0.47787278686E+02  0.20000034839E+02 0.  0.
        -12    1    1    2    0    0 -0.24136378005E+02  0.14291477092E+02 -0.33118145328E+02  0.43400721314E+02  0.00000000000E+00 0.  1.
         11    1    3    3    0    0  0.50292527131E+01 -0.58353466437E+01  0.12667072096E+02  0.14825632163E+02  0.51100000000E-03 0. -1.
        -11    1    3    3    0    0  0.13156969529E+02 -0.10033492463E+02  0.21052597182E+02  0.26776644050E+02  0.51100000000E-03 0.  1.
        -12    1    3    3    0    0  0.59501557624E+01  0.15773620142E+01 -0.60152395006E+00  0.61850024724E+01  0.00000000000E+00 0.  1.
</event>
<event>
 7    1  0.3910751E-009  0.4778727E+02  0.7816164E-02  0.1312668E+00
        -11   -1    0    0    0    0  0.00000000000E+00  0.00000000000E+00  0.45593999997E+02  0.45594000000E+02  0.51100000000E-03 0. -1.
         11   -1    0    0    0    0 -0.00000000000E+00 -0.00000000000E+00 -0.45593999997E+02  0.45594000000E+02  0.51100000000E-03 0.  1.
    9900012    2    1    2    0    0  0.15737543491E+02  0.23725108953E+02  0.32757788532E+02  0.47787265220E+02  0.19999973443E+02 0.  0.
        -12    1    1    2    0    0 -0.15737543491E+02 -0.23725108953E+02 -0.32757788532E+02  0.43400734780E+02  0.00000000000E+00 0.  1.
         11    1    3    3    0    0 -0.17084466183E+01  0.68873455903E+01  0.11682499251E+02  0.13668763958E+02  0.51100000000E-03 0. -1.
        -11    1    3    3    0    0  0.23335349822E+01  0.95922404523E+01  0.58461709796E+01  0.11473193879E+02  0.51100000000E-03 0.  1.
        -12    1    3    3    0    0  0.15112455127E+02  0.72455229099E+01  0.15229118302E+02  0.22645307383E+02  0.00000000000E+00 0.  1.
</event>
<event>
 7    1  0.3910751E-009  0.4778728E+02  0.7816164E-02  0.1312668E+00
        -11   -1    0    0    0    0  0.00000000000E+00  0.00000000000E+00  0.45593999997E+02  0.45594000000E+02  0.51100000000E-03 0. -1.
         11   -1    0    0    0    0 -0.00000000000E+00 -0.00000000000E+00 -0.45593999997E+02  0.45594000000E+02  0.51100000000E-03 0.  1.
    9900012    2    1    2    0    0  0.84703137827E+01  0.33104913810E+02  0.26757080267E+02  0.47787275601E+02  0.20000020776E+02 0.  0.
        -12    1    1    2    0    0 -0.84703137827E+01 -0.33104913810E+02 -0.26757080267E+02  0.43400724399E+02  0.00000000000E+00 0.  1.
         11    1    3    3    0    0  0.88113932570E+01  0.11365237807E+02  0.13326946027E+02  0.19606549217E+02  0.51100000000E-03 0. -1.
        -11    1    3    3    0    0 -0.13491599507E+01 -0.10204804090E+01  0.22159413233E+01  0.27878323205E+01  0.51100000000E-03 0.  1.
        -12    1    3    3    0    0  0.10080804764E+01  0.22760156412E+02  0.11214192916E+02  0.25392894064E+02  0.00000000000E+00 0.  1.
</event>
<event>
 7    1  0.3910751E-009  0.4778724E+02  0.7816164E-02  0.1312668E+00
        -11   -1    0    0    0    0  0.00000000000E+00  0.00000000000E+00  0.45593999997E+02  0.45594000000E+02  0.51100000000E-03 0. -1.
         11   -1    0    0    0    0 -0.00000000000E+00 -0.00000000000E+00 -0.45593999997E+02  0.45594000000E+02  0.51100000000E-03 0.  1.
    9900012    2    1    2    0    0 -0.42911604169E+01  0.27841909108E+01  0.43098262997E+02  0.47787239061E+02  0.19999854175E+02 0.  0.
        -12    1    1    2    0    0  0.42911604169E+01 -0.27841909108E+01 -0.43098262997E+02  0.43400760939E+02  0.00000000000E+00 0.  1.
         11    1    3    3    0    0 -0.10310587870E+01 -0.31898099285E+01  0.64830366531E+00  0.34144205227E+01  0.51100000000E-03 0. -1.
        -11    1    3    3    0    0  0.36469657491E+01  0.29227209153E+00  0.82899243575E+01  0.90613811456E+01  0.51100000000E-03 0.  1.
         12    1    3    3    0    0 -0.69070673790E+01  0.56817287478E+01  0.34160034974E+02  0.35311437393E+02  0.00000000000E+00 0. -1.
</event>
<event>
 7    1  0.3910751E-009  0.4778726E+02  0.7816164E-02  0.1312668E+00
        -11   -1    0    0    0    0  0.00000000000E+00  0.00000000000E+00  0.45593999997E+02  0.45594000000E+02  0.51100000000E-03 0.  1.
         11   -1    0    0    0    0 -0.00000000000E+00 -0.00000000000E+00 -0.45593999997E+02  0.45594000000E+02  0.51100000000E-03 0. -1.
    9900012    2    1    2    0    0 -0.22042021792E+02 -0.45156287051E+00 -0.37384077523E+02  0.47787263993E+02  0.19999967849E+02 0.  0.
        -12    1    1    2    0    0  0.22042021792E+02  0.45156287051E+00  0.37384077523E+02  0.43400736007E+02  0.00000000000E+00 0.  1.
         11    1    3    3    0    0 -0.10795492320E+02  0.41582900081E+01 -0.23368759186E+02  0.26075523703E+02  0.51100000000E-03 0. -1.
        -11    1    3    3    0    0 -0.79020030919E+01  0.13303334497E+01 -0.26157074265E+01  0.84293158414E+01  0.51100000000E-03 0.  1.
         12    1    3    3    0    0 -0.33445263800E+01 -0.59401863284E+01 -0.11399610910E+02  0.13282424448E+02  0.00000000000E+00 0. -1.
</event>
<event>
 7    1  0.3910751E-009  0.4778727E+02  0.7816164E-02  0.1312668E+00
        -11   -1    0    0    0    0  0.00000000000E+00  0.00000000000E+00  0.45593999997E+02  0.45594000000E+02  0.51100000000E-03 0. -1.
         11   -1    0    0    0    0 -0.00000000000E+00 -0.00000000000E+00 -0.45593999997E+02  0.45594000000E+02  0.51100000000E-03 0.  1.
    9900012    2    1    2    0    0 -0.10150804996E+02  0.27288352454E+02  0.32185870745E+02  0.47787270774E+02  0.19999998767E+02 0.  0.
        -12    1    1    2    0    0  0.10150804996E+02 -0.27288352454E+02 -0.32185870745E+02  0.43400729226E+02  0.00000000000E+00 0.  1.
         11    1    3    3    0    0  0.56861298582E+00  0.22499956205E+02  0.15917586971E+02  0.27567026049E+02  0.51100000000E-03 0. -1.
        -11    1    3    3    0    0 -0.55772152895E+01  0.38501358729E+01  0.89186584009E+01  0.11201399223E+02  0.51100000000E-03 0.  1.
         12    1    3    3    0    0 -0.51422026924E+01  0.93826037649E+00  0.73496253730E+01  0.90188455019E+01  0.00000000000E+00 0. -1.
</event>
<event>
 7    1  0.3910751E-009  0.4778727E+02  0.7816164E-02  0.1312668E+00
        -11   -1    0    0    0    0  0.00000000000E+00  0.00000000000E+00  0.45593999997E+02  0.45594000000E+02  0.51100000000E-03 0.  1.
         11   -1    0    0    0    0 -0.00000000000E+00 -0.00000000000E+00 -0.45593999997E+02  0.45594000000E+02  0.51100000000E-03 0. -1.
    9900012    2    1    2    0    0  0.28297151823E+02 -0.57664387269E+01 -0.32398187161E+02  0.47787272492E+02  0.20000006601E+02 0.  0.
        -12    1    1    2    0    0 -0.28297151823E+02  0.57664387269E+01  0.32398187161E+02  0.43400727508E+02  0.00000000000E+00 0.  1.
         11    1    3    3    0    0  0.15803085928E+02 -0.14050660255E+01 -0.13394319982E+02  0.20763418394E+02  0.51100000000E-03 0. -1.
        -11    1    3    3    0    0  0.20516056780E+01  0.48370265867E+01 -0.44220783530E+01  0.68673640708E+01  0.51100000000E-03 0.  1.
         12    1    3    3    0    0  0.10442460217E+02 -0.91983992881E+01 -0.14581788826E+02  0.20156490027E+02  0.00000000000E+00 0. -1.
</event>
<event>
 7    1  0.3910751E-009  0.4778727E+02  0.7816164E-02  0.1312668E+00
        -11   -1    0    0    0    0  0.00000000000E+00  0.00000000000E+00  0.45593999997E+02  0.45594000000E+02  0.51100000000E-03 0. -1.
         11   -1    0    0    0    0 -0.00000000000E+00 -0.00000000000E+00 -0.45593999997E+02  0.45594000000E+02  0.51100000000E-03 0.  1.
    9900012    2    1    2    0    0  0.39565035443E+02  0.17697614154E+02 -0.22418758549E+01  0.47787267475E+02  0.19999983726E+02 0.  0.
        -12    1    1    2    0    0 -0.39565035443E+02 -0.17697614154E+02  0.22418758549E+01  0.43400732525E+02  0.00000000000E+00 0.  1.
         11    1    3    3    0    0  0.36006098216E+02  0.19968040358E+02 -0.52994087181E+01  0.41511991972E+02  0.51100000000E-03 0. -1.
        -11    1    3    3    0    0  0.63343802836E+00  0.94090038243E+00  0.57091476214E+00  0.12698351043E+01  0.51100000000E-03 0.  1.
        -12    1    3    3    0    0  0.29254991981E+01 -0.32113265862E+01  0.24866181010E+01  0.50054403984E+01  0.00000000000E+00 0.  1.
</event>
<event>
 7    1  0.3910751E-009  0.4778727E+02  0.7816164E-02  0.1312668E+00
        -11   -1    0    0    0    0  0.00000000000E+00  0.00000000000E+00  0.45593999997E+02  0.45594000000E+02  0.51100000000E-03 0.  1.
         11   -1    0    0    0    0 -0.00000000000E+00 -0.00000000000E+00 -0.45593999997E+02  0.45594000000E+02  0.51100000000E-03 0. -1.
    9900012    2    1    2    0    0  0.15910510175E+02  0.26038574469E+02 -0.30862141540E+02  0.47787268729E+02  0.19999989445E+02 0.  0.
        -12    1    1    2    0    0 -0.15910510175E+02 -0.26038574469E+02  0.30862141540E+02  0.43400731271E+02  0.00000000000E+00 0.  1.
         11    1    3    3    0    0  0.16381614055E+02  0.20621790550E+02 -0.15932845230E+02  0.30781018208E+02  0.51100000000E-03 0. -1.
        -11    1    3    3    0    0 -0.23738089970E+01  0.23219761311E+01 -0.27967639820E+01  0.43414780133E+01  0.51100000000E-03 0.  1.
         12    1    3    3    0    0  0.19027051168E+01  0.30948077878E+01 -0.12132532328E+02  0.12664772508E+02  0.00000000000E+00 0. -1.
</event>
<event>
 7    1  0.3910751E-009  0.4778728E+02  0.7816164E-02  0.1312668E+00
        -11   -1    0    0    0    0  0.00000000000E+00  0.00000000000E+00  0.45593999997E+02  0.45594000000E+02  0.51100000000E-03 0.  1.
         11   -1    0    0    0    0 -0.00000000000E+00 -0.00000000000E+00 -0.45593999997E+02  0.45594000000E+02  0.51100000000E-03 0. -1.
    9900012    2    1    2    0    0 -0.17283842762E+02 -0.16953294144E+02 -0.36020513215E+02  0.47787276789E+02  0.20000026192E+02 0.  0.
        -12    1    1    2    0    0  0.17283842762E+02  0.16953294144E+02  0.36020513215E+02  0.43400723211E+02  0.00000000000E+00 0.  1.
         11    1    3    3    0    0 -0.33812348403E+01 -0.62066454718E+01 -0.24342032055E+02  0.25347380967E+02  0.51100000000E-03 0. -1.
        -11    1    3    3    0    0 -0.24459057093E+01 -0.32028104182E+01 -0.67549145162E+01  0.78657052892E+01  0.51100000000E-03 0.  1.
        -12    1    3    3    0    0 -0.11456702213E+02 -0.75438382542E+01 -0.49235666440E+01  0.14574190533E+02  0.00000000000E+00 0.  1.
</event>
<event>
 7    1  0.3910751E-009  0.4778727E+02  0.7816164E-02  0.1312668E+00
        -11   -1    0    0    0    0  0.00000000000E+00  0.00000000000E+00  0.45593999997E+02  0.45594000000E+02  0.51100000000E-03 0.  1.
         11   -1    0    0    0    0 -0.00000000000E+00 -0.00000000000E+00 -0.45593999997E+02  0.45594000000E+02  0.51100000000E-03 0. -1.
    9900012    2    1    2    0    0 -0.28516338885E+02  0.20384573298E+02  0.25591228277E+02  0.47787269860E+02  0.19999994599E+02 0.  0.
        -12    1    1    2    0    0  0.28516338885E+02 -0.20384573298E+02 -0.25591228277E+02  0.43400730140E+02  0.00000000000E+00 0.  1.
         11    1    3    3    0    0 -0.24206868394E+02  0.14389619952E+02  0.14454749268E+02  0.31653963677E+02  0.51100000000E-03 0. -1.
        -11    1    3    3    0    0 -0.24378664218E+01 -0.17167586942E+01  0.77250663722E+00  0.30801330930E+01  0.51100000000E-03 0.  1.
        -12    1    3    3    0    0 -0.18716040692E+01  0.77117120400E+01  0.10363972372E+02  0.13053173090E+02  0.00000000000E+00 0.  1.
</event>
<event>
 7    1  0.3910751E-009  0.4778727E+02  0.7816164E-02  0.1312668E+00
        -11   -1    0    0    0    0  0.00000000000E+00  0.00000000000E+00  0.45593999997E+02  0.45594000000E+02  0.51100000000E-03 0.  1.
         11   -1    0    0    0    0 -0.00000000000E+00 -0.00000000000E+00 -0.45593999997E+02  0.45594000000E+02  0.51100000000E-03 0. -1.
    9900012    2    1    2    0    0  0.28318836972E+02  0.19237141197E+01 -0.32832396458E+02  0.47787268892E+02  0.19999990188E+02 0.  0.
        -12    1    1    2    0    0 -0.28318836972E+02 -0.19237141197E+01  0.32832396458E+02  0.43400731108E+02  0.00000000000E+00 0.  1.
         11    1    3    3    0    0  0.71284887667E+01  0.26587250336E+00 -0.32258855663E+01  0.78289448991E+01  0.51100000000E-03 0. -1.
        -11    1    3    3    0    0  0.17878943206E+02  0.67209335178E+01 -0.15462256442E+02  0.24574558634E+02  0.51100000000E-03 0.  1.
         12    1    3    3    0    0  0.33114049991E+01 -0.50630919014E+01 -0.14144254451E+02  0.15383765359E+02  0.00000000000E+00 0. -1.
</event>
<event>
 7    1  0.3910751E-009  0.4778731E+02  0.7816164E-02  0.1312668E+00
        -11   -1    0    0    0    0  0.00000000000E+00  0.00000000000E+00  0.45593999997E+02  0.45594000000E+02  0.51100000000E-03 0. -1.
         11   -1    0    0    0    0 -0.00000000000E+00 -0.00000000000E+00 -0.45593999997E+02  0.45594000000E+02  0.51100000000E-03 0.  1.
    9900012    2    1    2    0    0 -0.31900261707E+02  0.15210803844E+02 -0.25191753201E+02  0.47787312449E+02  0.20000188781E+02 0.  0.
        -12    1    1    2    0    0  0.31900261707E+02 -0.15210803844E+02  0.25191753201E+02  0.43400687551E+02  0.00000000000E+00 0.  1.
         11    1    3    3    0    0 -0.95781041388E+01  0.10363515158E+01 -0.90948057274E+01  0.13248758238E+02  0.51100000000E-03 0. -1.
        -11    1    3    3    0    0 -0.10502578725E+02 -0.59929446843E+00 -0.14658517608E+01  0.10621301021E+02  0.51100000000E-03 0.  1.
        -12    1    3    3    0    0 -0.11819578843E+02  0.14773746797E+02 -0.14631095713E+02  0.23917253190E+02  0.00000000000E+00 0.  1.
</event>
<event>
 7    1  0.3910751E-009  0.4778727E+02  0.7816164E-02  0.1312668E+00
        -11   -1    0    0    0    0  0.00000000000E+00  0.00000000000E+00  0.45593999997E+02  0.45594000000E+02  0.51100000000E-03 0.  1.
         11   -1    0    0    0    0 -0.00000000000E+00 -0.00000000000E+00 -0.45593999997E+02  0.45594000000E+02  0.51100000000E-03 0. -1.
    9900012    2    1    2    0    0 -0.14362777903E+02  0.20698973534E+02 -0.35339586779E+02  0.47787270880E+02  0.19999999251E+02 0.  0.
        -12    1    1    2    0    0  0.14362777903E+02 -0.20698973534E+02  0.35339586779E+02  0.43400729120E+02  0.00000000000E+00 0.  1.
         11    1    3    3    0    0 -0.27073068386E+01  0.16775108783E+02 -0.11459753538E+02  0.20495358899E+02  0.51100000000E-03 0. -1.
        -11    1    3    3    0    0 -0.39707942477E+01  0.37552324394E+01 -0.11242985564E+02  0.12500948055E+02  0.51100000000E-03 0.  1.
         12    1    3    3    0    0 -0.76846768171E+01  0.16863231098E+00 -0.12636847677E+02  0.14790963926E+02  0.00000000000E+00 0. -1.
</event>
<event>
 7    1  0.3910751E-009  0.4778728E+02  0.7816164E-02  0.1312668E+00
        -11   -1    0    0    0    0  0.00000000000E+00  0.00000000000E+00  0.45593999997E+02  0.45594000000E+02  0.51100000000E-03 0. -1.
         11   -1    0    0    0    0 -0.00000000000E+00 -0.00000000000E+00 -0.45593999997E+02  0.45594000000E+02  0.51100000000E-03 0.  1.
    9900012    2    1    2    0    0 -0.28223248970E+02 -0.16002218667E+01  0.32931905914E+02  0.47787275126E+02  0.20000018611E+02 0.  0.
        -12    1    1    2    0    0  0.28223248970E+02  0.16002218667E+01 -0.32931905914E+02  0.43400724874E+02  0.00000000000E+00 0.  1.
         11    1    3    3    0    0 -0.90366573912E+01 -0.26993748811E+01  0.71810626202E+01  0.11853921806E+02  0.51100000000E-03 0. -1.
        -11    1    3    3    0    0 -0.14809997529E+02  0.90539941403E+00  0.65150270133E+01  0.16204979239E+02  0.51100000000E-03 0.  1.
         12    1    3    3    0    0 -0.43765940503E+01  0.19375360036E+00  0.19235816280E+02  0.19728374082E+02  0.00000000000E+00 0. -1.
</event>
<event>
 7    1  0.3910751E-009  0.4778727E+02  0.7816164E-02  0.1312668E+00
        -11   -1    0    0    0    0  0.00000000000E+00  0.00000000000E+00  0.45593999997E+02  0.45594000000E+02  0.51100000000E-03 0.  1.
         11   -1    0    0    0    0 -0.00000000000E+00 -0.00000000000E+00 -0.45593999997E+02  0.45594000000E+02  0.51100000000E-03 0. -1.
    9900012    2    1    2    0    0 -0.40061317861E+02 -0.11764718343E+02 -0.11845063549E+02  0.47787270548E+02  0.19999997739E+02 0.  0.
        -12    1    1    2    0    0  0.40061317861E+02  0.11764718343E+02  0.11845063549E+02  0.43400729452E+02  0.00000000000E+00 0.  1.
         11    1    3    3    0    0 -0.15183816966E+01  0.26243994205E+01 -0.13121143996E+01  0.33037251329E+01  0.51100000000E-03 0. -1.
        -11    1    3    3    0    0 -0.28629962422E+02 -0.43523963103E+01 -0.88247819248E+01  0.30273666415E+02  0.51100000000E-03 0.  1.
        -12    1    3    3    0    0 -0.99129737421E+01 -0.10036721453E+02 -0.17081672249E+01  0.14209879000E+02  0.00000000000E+00 0.  1.
</event>
<event>
 7    1  0.3910751E-009  0.4778727E+02  0.7816164E-02  0.1312668E+00
        -11   -1    0    0    0    0  0.00000000000E+00  0.00000000000E+00  0.45593999997E+02  0.45594000000E+02  0.51100000000E-03 0.  1.
         11   -1    0    0    0    0 -0.00000000000E+00 -0.00000000000E+00 -0.45593999997E+02  0.45594000000E+02  0.51100000000E-03 0. -1.
    9900012    2    1    2    0    0  0.23422274529E+02  0.36041164726E+02 -0.60045837770E+01  0.47787268149E+02  0.19999986798E+02 0.  0.
        -12    1    1    2    0    0 -0.23422274529E+02 -0.36041164726E+02  0.60045837770E+01  0.43400731851E+02  0.00000000000E+00 0.  1.
         11    1    3    3    0    0 -0.18003809014E+01  0.55027960528E+01 -0.28299998404E+00  0.57967426233E+01  0.51100000000E-03 0. -1.
        -11    1    3    3    0    0  0.27211985339E+00  0.78820857840E+01 -0.14457012283E+01  0.80181904332E+01  0.51100000000E-03 0.  1.
        -12    1    3    3    0    0  0.24950535577E+02  0.22656282889E+02 -0.42758825647E+01  0.33972335092E+02  0.00000000000E+00 0.  1.
</event>
<event>
 7    1  0.3910751E-009  0.4778727E+02  0.7816164E-02  0.1312668E+00
        -11   -1    0    0    0    0  0.00000000000E+00  0.00000000000E+00  0.45593999997E+02  0.45594000000E+02  0.51100000000E-03 0.  1.
         11   -1    0    0    0    0 -0.00000000000E+00 -0.00000000000E+00 -0.45593999997E+02  0.45594000000E+02  0.51100000000E-03 0. -1.
    9900012    2    1    2    0    0 -0.41610647728E+02  0.72813120466E+01  0.99578992020E+01  0.47787271135E+02  0.20000000415E+02 0.  0.
        -12    1    1    2    0    0  0.41610647728E+02 -0.72813120466E+01 -0.99578992020E+01  0.43400728865E+02  0.00000000000E+00 0.  1.
         11    1    3    3    0    0 -0.12746023693E+02 -0.14138606769E+01  0.64763785428E+00  0.12840543487E+02  0.51100000000E-03 0. -1.
        -11    1    3    3    0    0 -0.22183145476E+02 -0.60684599361E+00  0.69376547666E+01  0.23250618469E+02  0.51100000000E-03 0.  1.
         12    1    3    3    0    0 -0.66814785590E+01  0.93020187171E+01  0.23726065811E+01  0.11696109179E+02  0.00000000000E+00 0. -1.
</event>
<event>
 7    1  0.3910751E-009  0.4778727E+02  0.7816164E-02  0.1312668E+00
        -11   -1    0    0    0    0  0.00000000000E+00  0.00000000000E+00  0.45593999997E+02  0.45594000000E+02  0.51100000000E-03 0.  1.
         11   -1    0    0    0    0 -0.00000000000E+00 -0.00000000000E+00 -0.45593999997E+02  0.45594000000E+02  0.51100000000E-03 0. -1.
    9900012    2    1    2    0    0  0.41264401059E+02  0.72757425612E+01  0.11310878467E+02  0.47787271939E+02  0.20000004078E+02 0.  0.
        -12    1    1    2    0    0 -0.41264401059E+02 -0.72757425612E+01 -0.11310878467E+02  0.43400728061E+02  0.00000000000E+00 0.  1.
         11    1    3    3    0    0  0.69706540734E+01 -0.27664405628E+01  0.26581173420E+00  0.75042566413E+01  0.51100000000E-03 0. -1.
        -11    1    3    3    0    0  0.11907224909E+02 -0.33203303892E+01  0.59482620118E+01  0.13718178456E+02  0.51100000000E-03 0.  1.
         12    1    3    3    0    0  0.22386522076E+02  0.13362513513E+02  0.50968047212E+01  0.26564836841E+02  0.00000000000E+00 0. -1.
</event>
<event>
 7    1  0.3910751E-009  0.4778727E+02  0.7816164E-02  0.1312668E+00
        -11   -1    0    0    0    0  0.00000000000E+00  0.00000000000E+00  0.45593999997E+02  0.45594000000E+02  0.51100000000E-03 0.  1.
         11   -1    0    0    0    0 -0.00000000000E+00 -0.00000000000E+00 -0.45593999997E+02  0.45594000000E+02  0.51100000000E-03 0. -1.
    9900012    2    1    2    0    0 -0.94819644365E+01 -0.23973663303E+02 -0.34913881153E+02  0.47787270987E+02  0.19999999736E+02 0.  0.
        -12    1    1    2    0    0  0.94819644365E+01  0.23973663303E+02  0.34913881153E+02  0.43400729013E+02  0.00000000000E+00 0.  1.
         11    1    3    3    0    0 -0.10091859958E+02 -0.79867388216E+01 -0.11937809220E+02  0.17554057185E+02  0.51100000000E-03 0. -1.
        -11    1    3    3    0    0 -0.44603766478E+01 -0.12067216649E+02 -0.12407926677E+02  0.17873704770E+02  0.51100000000E-03 0.  1.
        -12    1    3    3    0    0  0.50702721698E+01 -0.39197078322E+01 -0.10568145256E+02  0.12359509032E+02  0.00000000000E+00 0.  1.
</event>
<event>
 7    1  0.3910751E-009  0.4778727E+02  0.7816164E-02  0.1312668E+00
        -11   -1    0    0    0    0  0.00000000000E+00  0.00000000000E+00  0.45593999997E+02  0.45594000000E+02  0.51100000000E-03 0.  1.
         11   -1    0    0    0    0 -0.00000000000E+00 -0.00000000000E+00 -0.45593999997E+02  0.45594000000E+02  0.51100000000E-03 0. -1.
    9900012    2    1    2    0    0  0.12807510507E+01 -0.37336266597E+02 -0.22090413254E+02  0.47787268619E+02  0.19999988941E+02 0.  0.
        -12    1    1    2    0    0 -0.12807510507E+01  0.37336266597E+02  0.22090413254E+02  0.43400731381E+02  0.00000000000E+00 0.  1.
         11    1    3    3    0    0  0.12621309816E+00 -0.39237728630E+01 -0.88412149517E+01  0.96736242075E+01  0.51100000000E-03 0. -1.
        -11    1    3    3    0    0 -0.94245094848E+00 -0.71540957923E+01 -0.88301675768E+01  0.11403559098E+02  0.51100000000E-03 0.  1.
        -12    1    3    3    0    0  0.20969889010E+01 -0.26258397942E+02 -0.44190307260E+01  0.26710085314E+02  0.00000000000E+00 0.  1.
</event>
<event>
 7    1  0.3910751E-009  0.4778727E+02  0.7816164E-02  0.1312668E+00
        -11   -1    0    0    0    0  0.00000000000E+00  0.00000000000E+00  0.45593999997E+02  0.45594000000E+02  0.51100000000E-03 0. -1.
         11   -1    0    0    0    0 -0.00000000000E+00 -0.00000000000E+00 -0.45593999997E+02  0.45594000000E+02  0.51100000000E-03 0.  1.
    9900012    2    1    2    0    0 -0.28554456816E+02 -0.21314745302E+02  0.24777969561E+02  0.47787272507E+02  0.20000006667E+02 0.  0.
        -12    1    1    2    0    0  0.28554456816E+02  0.21314745302E+02 -0.24777969561E+02  0.43400727493E+02  0.00000000000E+00 0.  1.
         11    1    3    3    0    0  0.98260340973E+00 -0.28334121409E+01  0.30586668352E+01  0.42835939223E+01  0.51100000000E-03 0. -1.
        -11    1    3    3    0    0 -0.10116259590E+02  0.81318988789E+00  0.40879555982E+01  0.10941268990E+02  0.51100000000E-03 0.  1.
         12    1    3    3    0    0 -0.19420800636E+02 -0.19294523049E+02  0.17631347128E+02  0.32562409594E+02  0.00000000000E+00 0. -1.
</event>
<event>
 7    1  0.3910751E-009  0.4778727E+02  0.7816164E-02  0.1312668E+00
        -11   -1    0    0    0    0  0.00000000000E+00  0.00000000000E+00  0.45593999997E+02  0.45594000000E+02  0.51100000000E-03 0. -1.
         11   -1    0    0    0    0 -0.00000000000E+00 -0.00000000000E+00 -0.45593999997E+02  0.45594000000E+02  0.51100000000E-03 0.  1.
    9900012    2    1    2    0    0 -0.31102196560E+02  0.26310624394E+02  0.14967551852E+02  0.47787271950E+02  0.20000004127E+02 0.  0.
        -12    1    1    2    0    0  0.31102196560E+02 -0.26310624394E+02 -0.14967551852E+02  0.43400728050E+02  0.00000000000E+00 0.  1.
         11    1    3    3    0    0 -0.12814035226E+02  0.88628025525E+01  0.48918974997E+01  0.16330322387E+02  0.51100000000E-03 0.  1.
        -11    1    3    3    0    0 -0.17866780322E+02  0.20065987689E+02  0.10347363582E+02  0.28791207588E+02  0.51100000000E-03 0. -1.
        -12    1    3    3    0    0 -0.42138101152E+00 -0.26181658481E+01 -0.27170922957E+00  0.26657419737E+01  0.00000000000E+00 0.  1.
</event>
<event>
 7    1  0.3910751E-009  0.4778727E+02  0.7816164E-02  0.1312668E+00
        -11   -1    0    0    0    0  0.00000000000E+00  0.00000000000E+00  0.45593999997E+02  0.45594000000E+02  0.51100000000E-03 0. -1.
         11   -1    0    0    0    0 -0.00000000000E+00 -0.00000000000E+00 -0.45593999997E+02  0.45594000000E+02  0.51100000000E-03 0.  1.
    9900012    2    1    2    0    0  0.67076279486E+01 -0.39383282532E+02 -0.16958430874E+02  0.47787267364E+02  0.19999983218E+02 0.  0.
        -12    1    1    2    0    0 -0.67076279486E+01  0.39383282532E+02  0.16958430874E+02  0.43400732636E+02  0.00000000000E+00 0.  1.
         11    1    3    3    0    0  0.16807294909E+01 -0.28065802718E+02 -0.18948856889E+02  0.33905358153E+02  0.51100000000E-03 0. -1.
        -11    1    3    3    0    0  0.27565367759E+00 -0.52423491141E+01 -0.14362183790E+01  0.54425116148E+01  0.51100000000E-03 0.  1.
        -12    1    3    3    0    0  0.47512447801E+01 -0.60751306995E+01  0.34266443941E+01  0.84393975958E+01  0.00000000000E+00 0.  1.
</event>
<event>
 7    1  0.3910751E-009  0.4778727E+02  0.7816164E-02  0.1312668E+00
        -11   -1    0    0    0    0  0.00000000000E+00  0.00000000000E+00  0.45593999997E+02  0.45594000000E+02  0.51100000000E-03 0. -1.
         11   -1    0    0    0    0 -0.00000000000E+00 -0.00000000000E+00 -0.45593999997E+02  0.45594000000E+02  0.51100000000E-03 0.  1.
    9900012    2    1    2    0    0  0.18190834280E+02  0.38974439836E+02 -0.58060213367E+01  0.47787270789E+02  0.19999998834E+02 0.  0.
        -12    1    1    2    0    0 -0.18190834280E+02 -0.38974439836E+02  0.58060213367E+01  0.43400729211E+02  0.00000000000E+00 0.  1.
         11    1    3    3    0    0  0.94885854319E+01  0.19500614795E+02 -0.32261478082E+01  0.21925219744E+02  0.51100000000E-03 0. -1.
        -11    1    3    3    0    0  0.82523001728E+01  0.12659049521E+02 -0.80409586188E+01  0.17117505913E+02  0.51100000000E-03 0.  1.
        -12    1    3    3    0    0  0.44994867499E+00  0.68147755197E+01  0.54610850903E+01  0.87445451316E+01  0.00000000000E+00 0.  1.
</event>
<event>
 7    1  0.3910751E-009  0.4778727E+02  0.7816164E-02  0.1312668E+00
        -11   -1    0    0    0    0  0.00000000000E+00  0.00000000000E+00  0.45593999997E+02  0.45594000000E+02  0.51100000000E-03 0.  1.
         11   -1    0    0    0    0 -0.00000000000E+00 -0.00000000000E+00 -0.45593999997E+02  0.45594000000E+02  0.51100000000E-03 0. -1.
    9900012    2    1    2    0    0 -0.27073823938E+02 -0.32584311157E+02 -0.94283701190E+01  0.47787269139E+02  0.19999991310E+02 0.  0.
        -12    1    1    2    0    0  0.27073823938E+02  0.32584311157E+02  0.94283701190E+01  0.43400730861E+02  0.00000000000E+00 0.  1.
         11    1    3    3    0    0 -0.12726671414E+02 -0.23645865869E+02 -0.30958238162E+01  0.27031079582E+02  0.51100000000E-03 0. -1.
        -11    1    3    3    0    0 -0.10466415097E+02 -0.75371277479E+01  0.34992038269E+00  0.12902580525E+02  0.51100000000E-03 0.  1.
        -12    1    3    3    0    0 -0.38807374258E+01 -0.14013175404E+01 -0.66824666855E+01  0.78536090315E+01  0.00000000000E+00 0.  1.
</event>
<event>
 7    1  0.3910751E-009  0.4778728E+02  0.7816164E-02  0.1312668E+00
        -11   -1    0    0    0    0  0.00000000000E+00  0.00000000000E+00  0.45593999997E+02  0.45594000000E+02  0.51100000000E-03 0.  1.
         11   -1    0    0    0    0 -0.00000000000E+00 -0.00000000000E+00 -0.45593999997E+02  0.45594000000E+02  0.51100000000E-03 0. -1.
    9900012    2    1    2    0    0 -0.92897138613E+01 -0.31201643688E+02 -0.28701592301E+02  0.47787277044E+02  0.20000027356E+02 0.  0.
        -12    1    1    2    0    0  0.92897138613E+01  0.31201643688E+02  0.28701592301E+02  0.43400722956E+02  0.00000000000E+00 0.  1.
         11    1    3    3    0    0 -0.56594077864E+01 -0.10725480163E+02 -0.16419142712E+02  0.20412081444E+02  0.51100000000E-03 0. -1.
        -11    1    3    3    0    0  0.10379966396E+01 -0.63786705502E+00 -0.58919630882E+01  0.60166054131E+01  0.51100000000E-03 0.  1.
        -12    1    3    3    0    0 -0.46683027146E+01 -0.19838296470E+02 -0.63904865012E+01  0.21358590187E+02  0.00000000000E+00 0.  1.
</event>
<event>
 7    1  0.3910751E-009  0.4778728E+02  0.7816164E-02  0.1312668E+00
        -11   -1    0    0    0    0  0.00000000000E+00  0.00000000000E+00  0.45593999997E+02  0.45594000000E+02  0.51100000000E-03 0.  1.
         11   -1    0    0    0    0 -0.00000000000E+00 -0.00000000000E+00 -0.45593999997E+02  0.45594000000E+02  0.51100000000E-03 0. -1.
    9900012    2    1    2    0    0  0.16746858493E+02  0.37855952629E+02 -0.13041947452E+02  0.47787276363E+02  0.20000024251E+02 0.  0.
        -12    1    1    2    0    0 -0.16746858493E+02 -0.37855952629E+02  0.13041947452E+02  0.43400723637E+02  0.00000000000E+00 0.  1.
         11    1    3    3    0    0 -0.14795762722E+01  0.79462206261E+00 -0.13133731563E+01  0.21320223912E+01  0.51100000000E-03 0. -1.
        -11    1    3    3    0    0  0.24617424249E+01 -0.11996878713E+01 -0.60014632936E+00  0.28034982848E+01  0.51100000000E-03 0.  1.
         12    1    3    3    0    0  0.15764692340E+02  0.38261018438E+02 -0.11128427967E+02  0.42851755687E+02  0.00000000000E+00 0. -1.
</event>
<event>
 7    1  0.3910751E-009  0.4778728E+02  0.7816164E-02  0.1312668E+00
        -11   -1    0    0    0    0  0.00000000000E+00  0.00000000000E+00  0.45593999997E+02  0.45594000000E+02  0.51100000000E-03 0. -1.
         11   -1    0    0    0    0 -0.00000000000E+00 -0.00000000000E+00 -0.45593999997E+02  0.45594000000E+02  0.51100000000E-03 0.  1.
    9900012    2    1    2    0    0  0.26017886894E+02  0.19898486843E+02  0.28473538596E+02  0.47787278609E+02  0.20000034491E+02 0.  0.
        -12    1    1    2    0    0 -0.26017886894E+02 -0.19898486843E+02 -0.28473538596E+02  0.43400721391E+02  0.00000000000E+00 0.  1.
         11    1    3    3    0    0  0.15047861839E+02  0.40360986409E+01  0.62253649463E+01  0.16777467245E+02  0.51100000000E-03 0. -1.
        -11    1    3    3    0    0  0.12100551201E+01 -0.13508750991E+01  0.18260462379E+01  0.25736243027E+01  0.51100000000E-03 0.  1.
        -12    1    3    3    0    0  0.97599699344E+01  0.17213263301E+02  0.20422127412E+02  0.28436187062E+02  0.00000000000E+00 0.  1.
</event>
<event>
 7    1  0.3910751E-009  0.4778727E+02  0.7816164E-02  0.1312668E+00
        -11   -1    0    0    0    0  0.00000000000E+00  0.00000000000E+00  0.45593999997E+02  0.45594000000E+02  0.51100000000E-03 0. -1.
         11   -1    0    0    0    0 -0.00000000000E+00 -0.00000000000E+00 -0.45593999997E+02  0.45594000000E+02  0.51100000000E-03 0.  1.
    9900012    2    1    2    0    0  0.39053159886E+02 -0.17573872011E+02  0.70450733823E+01  0.47787270357E+02  0.19999996866E+02 0.  0.
        -12    1    1    2    0    0 -0.39053159886E+02  0.17573872011E+02 -0.70450733823E+01  0.43400729643E+02  0.00000000000E+00 0.  1.
         11    1    3    3    0    0  0.17002730059E+02 -0.14697423525E+02 -0.84366808523E+00  0.22490417156E+02  0.51100000000E-03 0. -1.
        -11    1    3    3    0    0  0.10716022405E+02 -0.39821991046E+01 -0.19589635385E-01  0.11432035248E+02  0.51100000000E-03 0.  1.
        -12    1    3    3    0    0  0.11334407422E+02  0.11057506189E+01  0.79083311029E+01  0.13864817953E+02  0.00000000000E+00 0.  1.
</event>
<event>
 7    1  0.3910751E-009  0.4778727E+02  0.7816164E-02  0.1312668E+00
        -11   -1    0    0    0    0  0.00000000000E+00  0.00000000000E+00  0.45593999997E+02  0.45594000000E+02  0.51100000000E-03 0.  1.
         11   -1    0    0    0    0 -0.00000000000E+00 -0.00000000000E+00 -0.45593999997E+02  0.45594000000E+02  0.51100000000E-03 0. -1.
    9900012    2    1    2    0    0 -0.37158424359E+02 -0.19213444556E+02 -0.11563666308E+02  0.47787270386E+02  0.19999996996E+02 0.  0.
        -12    1    1    2    0    0  0.37158424359E+02  0.19213444556E+02  0.11563666308E+02  0.43400729614E+02  0.00000000000E+00 0.  1.
         11    1    3    3    0    0  0.27237533829E+00 -0.51135316548E+00 -0.35650514164E+01  0.36118225658E+01  0.51100000000E-03 0. -1.
        -11    1    3    3    0    0 -0.55898995535E+01 -0.75064316975E+00  0.24640944455E+01  0.61548520603E+01  0.51100000000E-03 0.  1.
         12    1    3    3    0    0 -0.31840900144E+02 -0.17951448221E+02 -0.10462709337E+02  0.38020595759E+02  0.00000000000E+00 0. -1.
</event>
<event>
 7    1  0.4528329E-009  0.4778727E+02  0.7816164E-02  0.1312668E+00
        -11   -1    0    0    0    0  0.00000000000E+00  0.00000000000E+00  0.45593999997E+02  0.45594000000E+02  0.51100000000E-03 0. -1.
         11   -1    0    0    0    0 -0.00000000000E+00 -0.00000000000E+00 -0.45593999997E+02  0.45594000000E+02  0.51100000000E-03 0.  1.
    9900012    2    1    2    0    0  0.86401182539E+01 -0.28619516118E+02  0.31462597245E+02  0.47787269918E+02  0.19999994863E+02 0.  0.
        -12    1    1    2    0    0 -0.86401182539E+01  0.28619516118E+02 -0.31462597245E+02  0.43400730082E+02  0.00000000000E+00 0.  1.
         11    1    3    3    0    0  0.41135004453E+01 -0.14348215927E+02  0.16780092750E+02  0.22458043084E+02  0.51100000000E-03 0.  1.
        -11    1    3    3    0    0  0.34803966051E+01 -0.15115380407E+02  0.61405646231E+01  0.16682158719E+02  0.51100000000E-03 0. -1.
        -12    1    3    3    0    0  0.10462212035E+01  0.84408021541E+00  0.85419398717E+01  0.86470681152E+01  0.00000000000E+00 0.  1.
</event>
<event>
 7    1  0.3910751E-009  0.4778728E+02  0.7816164E-02  0.1312668E+00
        -11   -1    0    0    0    0  0.00000000000E+00  0.00000000000E+00  0.45593999997E+02  0.45594000000E+02  0.51100000000E-03 0.  1.
         11   -1    0    0    0    0 -0.00000000000E+00 -0.00000000000E+00 -0.45593999997E+02  0.45594000000E+02  0.51100000000E-03 0. -1.
    9900012    2    1    2    0    0  0.16869101761E+02  0.68929956698E+01 -0.39389625325E+02  0.47787279190E+02  0.20000037140E+02 0.  0.
        -12    1    1    2    0    0 -0.16869101761E+02 -0.68929956698E+01  0.39389625325E+02  0.43400720810E+02  0.00000000000E+00 0.  1.
         11    1    3    3    0    0  0.35351306854E+01  0.59819125293E+01 -0.61173996589E+01  0.92575917667E+01  0.51100000000E-03 0. -1.
        -11    1    3    3    0    0  0.54980935100E+01  0.64560494660E+01 -0.87003773804E+01  0.12149328120E+02  0.51100000000E-03 0.  1.
         12    1    3    3    0    0  0.78358775657E+01 -0.55449663255E+01 -0.24571848286E+02  0.26380359303E+02  0.00000000000E+00 0. -1.
</event>
<event>
 7    1  0.3910751E-009  0.4778730E+02  0.7816164E-02  0.1312668E+00
        -11   -1    0    0    0    0  0.00000000000E+00  0.00000000000E+00  0.45593999997E+02  0.45594000000E+02  0.51100000000E-03 0. -1.
         11   -1    0    0    0    0 -0.00000000000E+00 -0.00000000000E+00 -0.45593999997E+02  0.45594000000E+02  0.51100000000E-03 0.  1.
    9900012    2    1    2    0    0 -0.61815486041E+01 -0.31887526979E+02  0.28785317865E+02  0.47787303640E+02  0.20000148615E+02 0.  0.
        -12    1    1    2    0    0  0.61815486041E+01  0.31887526979E+02 -0.28785317865E+02  0.43400696360E+02  0.00000000000E+00 0.  1.
         11    1    3    3    0    0 -0.47778570308E+01 -0.15532896254E+02  0.91158051626E+01  0.18633214642E+02  0.51100000000E-03 0. -1.
        -11    1    3    3    0    0 -0.18445409545E+01 -0.18165356228E+02  0.20187519954E+02  0.27219817420E+02  0.51100000000E-03 0.  1.
        -12    1    3    3    0    0  0.44084938117E+00  0.18107255035E+01 -0.51800725199E+00  0.19342715784E+01  0.00000000000E+00 0.  1.
</event>
<event>
 7    1  0.3910751E-009  0.4778727E+02  0.7816164E-02  0.1312668E+00
        -11   -1    0    0    0    0  0.00000000000E+00  0.00000000000E+00  0.45593999997E+02  0.45594000000E+02  0.51100000000E-03 0.  1.
         11   -1    0    0    0    0 -0.00000000000E+00 -0.00000000000E+00 -0.45593999997E+02  0.45594000000E+02  0.51100000000E-03 0. -1.
    9900012    2    1    2    0    0 -0.15569962714E+02 -0.21481626969E+02 -0.34347332738E+02  0.47787270716E+02  0.19999998501E+02 0.  0.
        -12    1    1    2    0    0  0.15569962714E+02  0.21481626969E+02  0.34347332738E+02  0.43400729284E+02  0.00000000000E+00 0.  1.
         11    1    3    3    0    0 -0.10517982545E+02 -0.14152578198E+02 -0.25626321025E+02  0.31106779905E+02  0.51100000000E-03 0. -1.
        -11    1    3    3    0    0 -0.25500486098E+00 -0.85327102589E+01 -0.79688119258E+01  0.11677933705E+02  0.51100000000E-03 0.  1.
         12    1    3    3    0    0 -0.47969753079E+01  0.12036614876E+01 -0.75219978727E+00  0.50025571063E+01  0.00000000000E+00 0. -1.
</event>
<event>
 7    1  0.3910751E-009  0.4778727E+02  0.7816164E-02  0.1312668E+00
        -11   -1    0    0    0    0  0.00000000000E+00  0.00000000000E+00  0.45593999997E+02  0.45594000000E+02  0.51100000000E-03 0.  1.
         11   -1    0    0    0    0 -0.00000000000E+00 -0.00000000000E+00 -0.45593999997E+02  0.45594000000E+02  0.51100000000E-03 0. -1.
    9900012    2    1    2    0    0  0.28644867066E+02  0.29008335272E+02 -0.14886609726E+02  0.47787273352E+02  0.20000010522E+02 0.  0.
        -12    1    1    2    0    0 -0.28644867066E+02 -0.29008335272E+02  0.14886609726E+02  0.43400726648E+02  0.00000000000E+00 0.  1.
         11    1    3    3    0    0  0.11065656337E+02  0.23204334501E+02 -0.74004215771E+01  0.26751750028E+02  0.51100000000E-03 0. -1.
        -11    1    3    3    0    0  0.87116550012E+01  0.61140201448E+01 -0.53359100769E+01  0.11905717610E+02  0.51100000000E-03 0.  1.
         12    1    3    3    0    0  0.88675557277E+01 -0.31001937406E+00 -0.21502780719E+01  0.91298057144E+01  0.00000000000E+00 0. -1.
</event>
<event>
 7    1  0.3910751E-009  0.4778727E+02  0.7816164E-02  0.1312668E+00
        -11   -1    0    0    0    0  0.00000000000E+00  0.00000000000E+00  0.45593999997E+02  0.45594000000E+02  0.51100000000E-03 0. -1.
         11   -1    0    0    0    0 -0.00000000000E+00 -0.00000000000E+00 -0.45593999997E+02  0.45594000000E+02  0.51100000000E-03 0.  1.
    9900012    2    1    2    0    0 -0.28066069841E+02 -0.22910384519E+02  0.23896301274E+02  0.47787271784E+02  0.20000003370E+02 0.  0.
        -12    1    1    2    0    0  0.28066069841E+02  0.22910384519E+02 -0.23896301274E+02  0.43400728216E+02  0.00000000000E+00 0.  1.
         11    1    3    3    0    0 -0.10754316546E+02 -0.36301507069E+01  0.98674497528E+01  0.15039942933E+02  0.51100000000E-03 0. -1.
        -11    1    3    3    0    0 -0.10196461549E+02 -0.13638839889E+01  0.55310952927E+01  0.11679941055E+02  0.51100000000E-03 0.  1.
        -12    1    3    3    0    0 -0.71152917460E+01 -0.17916349824E+02  0.84977562281E+01  0.21067387796E+02  0.00000000000E+00 0.  1.
</event>
<event>
 7    1  0.3910751E-009  0.4778727E+02  0.7816164E-02  0.1312668E+00
        -11   -1    0    0    0    0  0.00000000000E+00  0.00000000000E+00  0.45593999997E+02  0.45594000000E+02  0.51100000000E-03 0.  1.
         11   -1    0    0    0    0 -0.00000000000E+00 -0.00000000000E+00 -0.45593999997E+02  0.45594000000E+02  0.51100000000E-03 0. -1.
    9900012    2    1    2    0    0 -0.23255819088E+02  0.36436383079E+02  0.38961487754E+01  0.47787272948E+02  0.20000008681E+02 0.  0.
        -12    1    1    2    0    0  0.23255819088E+02 -0.36436383079E+02 -0.38961487754E+01  0.43400727052E+02  0.00000000000E+00 0.  1.
         11    1    3    3    0    0 -0.28346542374E+01  0.10390734746E+02 -0.31323908651E+01  0.11216706557E+02  0.51100000000E-03 0. -1.
        -11    1    3    3    0    0 -0.16179100194E+02  0.13557059054E+02  0.95069130770E+01  0.23150346213E+02  0.51100000000E-03 0.  1.
         12    1    3    3    0    0 -0.42420646570E+01  0.12488589279E+02 -0.24783734364E+01  0.13420220178E+02  0.00000000000E+00 0. -1.
</event>
<event>
 7    1  0.3910751E-009  0.4778727E+02  0.7816164E-02  0.1312668E+00
        -11   -1    0    0    0    0  0.00000000000E+00  0.00000000000E+00  0.45593999997E+02  0.45594000000E+02  0.51100000000E-03 0.  1.
         11   -1    0    0    0    0 -0.00000000000E+00 -0.00000000000E+00 -0.45593999997E+02  0.45594000000E+02  0.51100000000E-03 0. -1.
    9900012    2    1    2    0    0  0.19219264472E+02 -0.16501490756E+02 -0.35241224611E+02  0.47787271480E+02  0.20000001985E+02 0.  0.
        -12    1    1    2    0    0 -0.19219264472E+02  0.16501490756E+02  0.35241224611E+02  0.43400728520E+02  0.00000000000E+00 0.  1.
         11    1    3    3    0    0  0.13843212848E+01 -0.12074293112E+02 -0.15924019389E+02  0.20031956803E+02  0.51100000000E-03 0. -1.
        -11    1    3    3    0    0  0.14144573690E+01 -0.25128971979E+00 -0.60991929322E+01  0.62660985355E+01  0.51100000000E-03 0.  1.
        -12    1    3    3    0    0  0.16420485818E+02 -0.41759079243E+01 -0.13218012290E+02  0.21489216142E+02  0.00000000000E+00 0.  1.
</event>
<event>
 7    1  0.3910751E-009  0.4778727E+02  0.7816164E-02  0.1312668E+00
        -11   -1    0    0    0    0  0.00000000000E+00  0.00000000000E+00  0.45593999997E+02  0.45594000000E+02  0.51100000000E-03 0.  1.
         11   -1    0    0    0    0 -0.00000000000E+00 -0.00000000000E+00 -0.45593999997E+02  0.45594000000E+02  0.51100000000E-03 0. -1.
    9900012    2    1    2    0    0  0.36991327634E+01  0.42944944777E+02  0.50666643659E+01  0.47787274742E+02  0.20000016859E+02 0.  0.
        -12    1    1    2    0    0 -0.36991327634E+01 -0.42944944777E+02 -0.50666643659E+01  0.43400725258E+02  0.00000000000E+00 0.  1.
         11    1    3    3    0    0  0.25462534531E+01  0.27017024338E+02  0.43280342910E+01  0.27479717826E+02  0.51100000000E-03 0. -1.
        -11    1    3    3    0    0  0.32672408194E+01  0.92754949174E+00  0.35358661283E+01  0.49028114557E+01  0.51100000000E-03 0.  1.
         12    1    3    3    0    0 -0.21143615091E+01  0.15000370948E+02 -0.27972360534E+01  0.15404745460E+02  0.00000000000E+00 0. -1.
</event>
<event>
 7    1  0.3910751E-009  0.4778727E+02  0.7816164E-02  0.1312668E+00
        -11   -1    0    0    0    0  0.00000000000E+00  0.00000000000E+00  0.45593999997E+02  0.45594000000E+02  0.51100000000E-03 0.  1.
         11   -1    0    0    0    0 -0.00000000000E+00 -0.00000000000E+00 -0.45593999997E+02  0.45594000000E+02  0.51100000000E-03 0. -1.
    9900012    2    1    2    0    0 -0.25799883247E+02 -0.34445651760E+02 -0.56112462652E+01  0.47787274368E+02  0.20000015155E+02 0.  0.
        -12    1    1    2    0    0  0.25799883247E+02  0.34445651760E+02  0.56112462652E+01  0.43400725632E+02  0.00000000000E+00 0.  1.
         11    1    3    3    0    0 -0.22962764528E+01 -0.26703136759E+01 -0.61906379022E+01  0.71223211506E+01  0.51100000000E-03 0.  1.
        -11    1    3    3    0    0 -0.98145944345E+01 -0.20750952865E+02 -0.12800085267E+01  0.22990579175E+02  0.51100000000E-03 0. -1.
        -12    1    3    3    0    0 -0.13689012360E+02 -0.11024385219E+02  0.18594001637E+01  0.17674374043E+02  0.00000000000E+00 0.  1.
</event>
<event>
 7    1  0.3910751E-009  0.4778732E+02  0.7816164E-02  0.1312668E+00
        -11   -1    0    0    0    0  0.00000000000E+00  0.00000000000E+00  0.45593999997E+02  0.45594000000E+02  0.51100000000E-03 0.  1.
         11   -1    0    0    0    0 -0.00000000000E+00 -0.00000000000E+00 -0.45593999997E+02  0.45594000000E+02  0.51100000000E-03 0. -1.
    9900012    2    1    2    0    0  0.12270786180E+01 -0.42387955649E+02 -0.92398434098E+01  0.47787317836E+02  0.20000213341E+02 0.  0.
        -12    1    1    2    0    0 -0.12270786180E+01  0.42387955649E+02  0.92398434098E+01  0.43400682164E+02  0.00000000000E+00 0.  1.
         11    1    3    3    0    0  0.76361298138E+00 -0.92885871876E+01  0.10834570389E+00  0.93205523324E+01  0.51100000000E-03 0. -1.
        -11    1    3    3    0    0  0.63376605575E+01 -0.26159343282E+02 -0.11258632730E+02  0.29175914613E+02  0.51100000000E-03 0.  1.
         12    1    3    3    0    0 -0.58741949208E+01 -0.69400251800E+01  0.19104436167E+01  0.92908508911E+01  0.00000000000E+00 0. -1.
</event>
<event>
 7    1  0.3910751E-009  0.4778727E+02  0.7816164E-02  0.1312668E+00
        -11   -1    0    0    0    0  0.00000000000E+00  0.00000000000E+00  0.45593999997E+02  0.45594000000E+02  0.51100000000E-03 0. -1.
         11   -1    0    0    0    0 -0.00000000000E+00 -0.00000000000E+00 -0.45593999997E+02  0.45594000000E+02  0.51100000000E-03 0.  1.
    9900012    2    1    2    0    0 -0.38797912563E+01  0.50388019509E+01  0.42932284103E+02  0.47787270471E+02  0.19999997387E+02 0.  0.
        -12    1    1    2    0    0  0.38797912563E+01 -0.50388019509E+01 -0.42932284103E+02  0.43400729529E+02  0.00000000000E+00 0.  1.
         11    1    3    3    0    0  0.68666157479E+01 -0.27574250019E+01  0.13802813114E+02  0.15661144741E+02  0.51100000000E-03 0. -1.
        -11    1    3    3    0    0 -0.30534113891E+01  0.10246752991E+01  0.55725556622E+01  0.64363543601E+01  0.51100000000E-03 0.  1.
         12    1    3    3    0    0 -0.76929956151E+01  0.67715516537E+01  0.23556915327E+02  0.25689771370E+02  0.00000000000E+00 0. -1.
</event>
<event>
 7    1  0.3910751E-009  0.4778727E+02  0.7816164E-02  0.1312668E+00
        -11   -1    0    0    0    0  0.00000000000E+00  0.00000000000E+00  0.45593999997E+02  0.45594000000E+02  0.51100000000E-03 0.  1.
         11   -1    0    0    0    0 -0.00000000000E+00 -0.00000000000E+00 -0.45593999997E+02  0.45594000000E+02  0.51100000000E-03 0. -1.
    9900012    2    1    2    0    0  0.13829950283E+02  0.62443592152E+01 -0.40661573624E+02  0.47787272859E+02  0.20000008271E+02 0.  0.
        -12    1    1    2    0    0 -0.13829950283E+02 -0.62443592152E+01  0.40661573624E+02  0.43400727141E+02  0.00000000000E+00 0.  1.
         11    1    3    3    0    0  0.31147264489E+01 -0.10903442516E+01  0.27921817372E+00  0.33118475943E+01  0.51100000000E-03 0. -1.
        -11    1    3    3    0    0  0.20660759653E+00  0.53620616303E+00  0.75091805870E+00  0.94555906226E+00  0.51100000000E-03 0.  1.
         12    1    3    3    0    0  0.10508616237E+02  0.67984973038E+01 -0.41691709856E+02  0.43529866202E+02  0.00000000000E+00 0. -1.
</event>
<event>
 7    1  0.3910751E-009  0.4778723E+02  0.7816164E-02  0.1312668E+00
        -11   -1    0    0    0    0  0.00000000000E+00  0.00000000000E+00  0.45593999997E+02  0.45594000000E+02  0.51100000000E-03 0.  1.
         11   -1    0    0    0    0 -0.00000000000E+00 -0.00000000000E+00 -0.45593999997E+02  0.45594000000E+02  0.51100000000E-03 0. -1.
    9900012    2    1    2    0    0 -0.18319390441E+02  0.18512957966E+02 -0.34717387967E+02  0.47787231504E+02  0.19999819719E+02 0.  0.
        -12    1    1    2    0    0  0.18319390441E+02 -0.18512957966E+02  0.34717387967E+02  0.43400768496E+02  0.00000000000E+00 0.  1.
         11    1    3    3    0    0 -0.19365476680E+01  0.41165014662E+01 -0.13139953437E+02  0.13905185284E+02  0.51100000000E-03 0. -1.
        -11    1    3    3    0    0 -0.10016229035E+02  0.16314034175E+02 -0.18242098111E+02  0.26443273226E+02  0.51100000000E-03 0.  1.
         12    1    3    3    0    0 -0.63666137388E+01 -0.19175776749E+01 -0.33353364186E+01  0.74387729945E+01  0.00000000000E+00 0. -1.
</event>
<event>
 7    1  0.3910751E-009  0.4778727E+02  0.7816164E-02  0.1312668E+00
        -11   -1    0    0    0    0  0.00000000000E+00  0.00000000000E+00  0.45593999997E+02  0.45594000000E+02  0.51100000000E-03 0.  1.
         11   -1    0    0    0    0 -0.00000000000E+00 -0.00000000000E+00 -0.45593999997E+02  0.45594000000E+02  0.51100000000E-03 0. -1.
    9900012    2    1    2    0    0  0.39790342216E+02 -0.99639774097E+01 -0.14179952125E+02  0.47787271644E+02  0.20000002735E+02 0.  0.
        -12    1    1    2    0    0 -0.39790342216E+02  0.99639774097E+01  0.14179952125E+02  0.43400728356E+02  0.00000000000E+00 0.  1.
         11    1    3    3    0    0  0.20897670033E+02 -0.67577961533E+01 -0.24935307525E+01  0.22104255643E+02  0.51100000000E-03 0. -1.
        -11    1    3    3    0    0  0.12550291950E+02 -0.32135787814E+01 -0.67145889638E+00  0.12972577767E+02  0.51100000000E-03 0.  1.
        -12    1    3    3    0    0  0.63423802337E+01  0.73975250017E-02 -0.11014962477E+02  0.12710438234E+02  0.00000000000E+00 0.  1.
</event>
<event>
 7    1  0.3910751E-009  0.4778727E+02  0.7816164E-02  0.1312668E+00
        -11   -1    0    0    0    0  0.00000000000E+00  0.00000000000E+00  0.45593999997E+02  0.45594000000E+02  0.51100000000E-03 0.  1.
         11   -1    0    0    0    0 -0.00000000000E+00 -0.00000000000E+00 -0.45593999997E+02  0.45594000000E+02  0.51100000000E-03 0. -1.
    9900012    2    1    2    0    0  0.32049075406E+02 -0.11726659305E+02 -0.26813533512E+02  0.47787270142E+02  0.19999995886E+02 0.  0.
        -12    1    1    2    0    0 -0.32049075406E+02  0.11726659305E+02  0.26813533512E+02  0.43400729858E+02  0.00000000000E+00 0.  1.
         11    1    3    3    0    0  0.10000047526E+02  0.31161692653E+01 -0.19475803337E+01  0.10653850516E+02  0.51100000000E-03 0. -1.
        -11    1    3    3    0    0  0.14741733890E+01 -0.39757428826E+01 -0.48325727777E+01  0.64291118019E+01  0.51100000000E-03 0.  1.
         12    1    3    3    0    0  0.20574854491E+02 -0.10867085687E+02 -0.20033380401E+02  0.30704307824E+02  0.00000000000E+00 0. -1.
</event>
<event>
 7    1  0.3910751E-009  0.4778727E+02  0.7816164E-02  0.1312668E+00
        -11   -1    0    0    0    0  0.00000000000E+00  0.00000000000E+00  0.45593999997E+02  0.45594000000E+02  0.51100000000E-03 0.  1.
         11   -1    0    0    0    0 -0.00000000000E+00 -0.00000000000E+00 -0.45593999997E+02  0.45594000000E+02  0.51100000000E-03 0. -1.
    9900012    2    1    2    0    0  0.20375552429E+02 -0.58785456417E+01 -0.37866912156E+02  0.47787268763E+02  0.19999989597E+02 0.  0.
        -12    1    1    2    0    0 -0.20375552429E+02  0.58785456417E+01  0.37866912156E+02  0.43400731237E+02  0.00000000000E+00 0.  1.
         11    1    3    3    0    0  0.39077063868E+01 -0.50276666204E+01 -0.68755258751E+01  0.93712569686E+01  0.51100000000E-03 0. -1.
        -11    1    3    3    0    0  0.15716703357E+02 -0.14322722691E+01 -0.13130498327E+02  0.20529884433E+02  0.51100000000E-03 0.  1.
         12    1    3    3    0    0  0.75114268551E+00  0.58139324786E+00 -0.17860887955E+02  0.17886127361E+02  0.00000000000E+00 0. -1.
</event>
<event>
 7    1  0.3910751E-009  0.4778727E+02  0.7816164E-02  0.1312668E+00
        -11   -1    0    0    0    0  0.00000000000E+00  0.00000000000E+00  0.45593999997E+02  0.45594000000E+02  0.51100000000E-03 0.  1.
         11   -1    0    0    0    0 -0.00000000000E+00 -0.00000000000E+00 -0.45593999997E+02  0.45594000000E+02  0.51100000000E-03 0. -1.
    9900012    2    1    2    0    0 -0.27657055904E+02 -0.28448370206E+02 -0.17589797434E+02  0.47787268641E+02  0.19999989044E+02 0.  0.
        -12    1    1    2    0    0  0.27657055904E+02  0.28448370206E+02  0.17589797434E+02  0.43400731359E+02  0.00000000000E+00 0.  1.
         11    1    3    3    0    0 -0.50557323493E+01 -0.77062795218E+01 -0.40221820560E+01  0.10056098767E+02  0.51100000000E-03 0. -1.
        -11    1    3    3    0    0 -0.11495866741E+02 -0.78465718090E+01 -0.15229821435E+02  0.20631798334E+02  0.51100000000E-03 0.  1.
         12    1    3    3    0    0 -0.11105456814E+02 -0.12895518875E+02  0.16622060569E+01  0.17099371541E+02  0.00000000000E+00 0. -1.
</event>
<event>
 7    1  0.3910751E-009  0.4778728E+02  0.7816164E-02  0.1312668E+00
        -11   -1    0    0    0    0  0.00000000000E+00  0.00000000000E+00  0.45593999997E+02  0.45594000000E+02  0.51100000000E-03 0.  1.
         11   -1    0    0    0    0 -0.00000000000E+00 -0.00000000000E+00 -0.45593999997E+02  0.45594000000E+02  0.51100000000E-03 0. -1.
    9900012    2    1    2    0    0 -0.36436856789E+02 -0.18845574261E+02  0.14171193309E+02  0.47787275102E+02  0.20000018499E+02 0.  0.
        -12    1    1    2    0    0  0.36436856789E+02  0.18845574261E+02 -0.14171193309E+02  0.43400724898E+02  0.00000000000E+00 0.  1.
         11    1    3    3    0    0 -0.21013182301E+02 -0.61486440370E+01  0.10571199288E+02  0.24312751974E+02  0.51100000000E-03 0.  1.
        -11    1    3    3    0    0 -0.10143378964E+02 -0.11167593670E+02  0.73881043822E+01  0.16798433611E+02  0.51100000000E-03 0. -1.
         12    1    3    3    0    0 -0.52802955244E+01 -0.15293365545E+01 -0.37881103614E+01  0.66760895164E+01  0.00000000000E+00 0. -1.
</event>
<event>
 7    1  0.3910751E-009  0.4778727E+02  0.7816164E-02  0.1312668E+00
        -11   -1    0    0    0    0  0.00000000000E+00  0.00000000000E+00  0.45593999997E+02  0.45594000000E+02  0.51100000000E-03 0.  1.
         11   -1    0    0    0    0 -0.00000000000E+00 -0.00000000000E+00 -0.45593999997E+02  0.45594000000E+02  0.51100000000E-03 0. -1.
    9900012    2    1    2    0    0  0.14098298254E+02 -0.26221962055E+02 -0.31579580137E+02  0.47787272019E+02  0.20000004442E+02 0.  0.
        -12    1    1    2    0    0 -0.14098298254E+02  0.26221962055E+02  0.31579580137E+02  0.43400727981E+02  0.00000000000E+00 0.  1.
         11    1    3    3    0    0  0.99043313448E+00 -0.15089026844E+01 -0.27205217744E+01  0.32648099624E+01  0.51100000000E-03 0. -1.
        -11    1    3    3    0    0  0.14428305615E+02 -0.93651368214E+01 -0.21254925008E+02  0.27343255621E+02  0.51100000000E-03 0.  1.
         12    1    3    3    0    0 -0.13204404951E+01 -0.15347922549E+02 -0.76041333552E+01  0.17179206435E+02  0.00000000000E+00 0. -1.
</event>
<event>
 7    1  0.3910751E-009  0.4778727E+02  0.7816164E-02  0.1312668E+00
        -11   -1    0    0    0    0  0.00000000000E+00  0.00000000000E+00  0.45593999997E+02  0.45594000000E+02  0.51100000000E-03 0.  1.
         11   -1    0    0    0    0 -0.00000000000E+00 -0.00000000000E+00 -0.45593999997E+02  0.45594000000E+02  0.51100000000E-03 0. -1.
    9900012    2    1    2    0    0  0.32742850123E+02 -0.23849171024E+02 -0.15580315875E+02  0.47787269183E+02  0.19999991513E+02 0.  0.
        -12    1    1    2    0    0 -0.32742850123E+02  0.23849171024E+02  0.15580315875E+02  0.43400730817E+02  0.00000000000E+00 0.  1.
         11    1    3    3    0    0  0.30566328133E+02 -0.23178543722E+02 -0.16229242234E+02  0.41652534237E+02  0.51100000000E-03 0. -1.
        -11    1    3    3    0    0  0.29430657838E+01 -0.25307706974E+01  0.11744464666E+01  0.40553373836E+01  0.51100000000E-03 0.  1.
         12    1    3    3    0    0 -0.76654379453E+00  0.18601433952E+01 -0.52552010730E+00  0.20793975624E+01  0.00000000000E+00 0. -1.
</event>
<event>
 7    1  0.3910751E-009  0.4778726E+02  0.7816164E-02  0.1312668E+00
        -11   -1    0    0    0    0  0.00000000000E+00  0.00000000000E+00  0.45593999997E+02  0.45594000000E+02  0.51100000000E-03 0.  1.
         11   -1    0    0    0    0 -0.00000000000E+00 -0.00000000000E+00 -0.45593999997E+02  0.45594000000E+02  0.51100000000E-03 0. -1.
    9900012    2    1    2    0    0  0.35092399960E+02 -0.40283893249E+01 -0.25217457291E+02  0.47787255678E+02  0.19999929939E+02 0.  0.
        -12    1    1    2    0    0 -0.35092399960E+02  0.40283893249E+01  0.25217457291E+02  0.43400744322E+02  0.00000000000E+00 0.  1.
         11    1    3    3    0    0  0.21688495485E+02 -0.64126807123E-01 -0.23003122058E+02  0.31615479964E+02  0.51100000000E-03 0. -1.
        -11    1    3    3    0    0  0.77199233763E+01  0.16735757746E+01 -0.20645004159E+01  0.81645719445E+01  0.51100000000E-03 0.  1.
         12    1    3    3    0    0  0.56839810987E+01 -0.56378382924E+01 -0.14983481660E+00  0.80072037700E+01  0.00000000000E+00 0. -1.
</event>
<event>
 7    1  0.3910751E-009  0.4778727E+02  0.7816164E-02  0.1312668E+00
        -11   -1    0    0    0    0  0.00000000000E+00  0.00000000000E+00  0.45593999997E+02  0.45594000000E+02  0.51100000000E-03 0.  1.
         11   -1    0    0    0    0 -0.00000000000E+00 -0.00000000000E+00 -0.45593999997E+02  0.45594000000E+02  0.51100000000E-03 0. -1.
    9900012    2    1    2    0    0  0.91863005863E+01  0.93862638178E+01 -0.41365851452E+02  0.47787265752E+02  0.19999975869E+02 0.  0.
        -12    1    1    2    0    0 -0.91863005863E+01 -0.93862638178E+01  0.41365851452E+02  0.43400734248E+02  0.00000000000E+00 0.  1.
         11    1    3    3    0    0  0.27739193678E-01  0.64215302440E+01 -0.30761091285E+02  0.31424219281E+02  0.51100000000E-03 0. -1.
        -11    1    3    3    0    0  0.18959568501E-01 -0.13574672792E+01 -0.41541939704E+01  0.43704009752E+01  0.51100000000E-03 0.  1.
        -12    1    3    3    0    0  0.91396018241E+01  0.43222008530E+01 -0.64505661969E+01  0.11992645495E+02  0.00000000000E+00 0.  1.
</event>
<event>
 7    1  0.3910751E-009  0.4778727E+02  0.7816164E-02  0.1312668E+00
        -11   -1    0    0    0    0  0.00000000000E+00  0.00000000000E+00  0.45593999997E+02  0.45594000000E+02  0.51100000000E-03 0.  1.
         11   -1    0    0    0    0 -0.00000000000E+00 -0.00000000000E+00 -0.45593999997E+02  0.45594000000E+02  0.51100000000E-03 0. -1.
    9900012    2    1    2    0    0 -0.22166047189E+02  0.12332055288E+02 -0.35216616368E+02  0.47787270697E+02  0.19999998415E+02 0.  0.
        -12    1    1    2    0    0  0.22166047189E+02 -0.12332055288E+02  0.35216616368E+02  0.43400729303E+02  0.00000000000E+00 0.  1.
         11    1    3    3    0    0 -0.10853274274E+02  0.72023891629E+01 -0.14661572416E+02  0.19611977924E+02  0.51100000000E-03 0. -1.
        -11    1    3    3    0    0 -0.13465700776E+02  0.35087905357E+01 -0.96294810425E+01  0.16922281578E+02  0.51100000000E-03 0.  1.
        -12    1    3    3    0    0  0.21529278609E+01  0.16208755898E+01 -0.10925562909E+02  0.11253011194E+02  0.00000000000E+00 0.  1.
</event>
<event>
 7    1  0.3910751E-009  0.4778727E+02  0.7816164E-02  0.1312668E+00
        -11   -1    0    0    0    0  0.00000000000E+00  0.00000000000E+00  0.45593999997E+02  0.45594000000E+02  0.51100000000E-03 0.  1.
         11   -1    0    0    0    0 -0.00000000000E+00 -0.00000000000E+00 -0.45593999997E+02  0.45594000000E+02  0.51100000000E-03 0. -1.
    9900012    2    1    2    0    0 -0.91995941258E+01 -0.86461865149E+01 -0.41523903170E+02  0.47787267197E+02  0.19999982459E+02 0.  0.
        -12    1    1    2    0    0  0.91995941258E+01  0.86461865149E+01  0.41523903170E+02  0.43400732803E+02  0.00000000000E+00 0.  1.
         11    1    3    3    0    0 -0.53934016780E+01 -0.69685857205E+01 -0.23100683930E+02  0.24724311253E+02  0.51100000000E-03 0. -1.
        -11    1    3    3    0    0 -0.87049977778E+01 -0.18554650222E+01 -0.10734642109E+02  0.13944614667E+02  0.51100000000E-03 0.  1.
         12    1    3    3    0    0  0.48988053301E+01  0.17786422785E+00 -0.76885771312E+01  0.91183412772E+01  0.00000000000E+00 0. -1.
</event>
<event>
 7    1  0.3910751E-009  0.4778727E+02  0.7816164E-02  0.1312668E+00
        -11   -1    0    0    0    0  0.00000000000E+00  0.00000000000E+00  0.45593999997E+02  0.45594000000E+02  0.51100000000E-03 0. -1.
         11   -1    0    0    0    0 -0.00000000000E+00 -0.00000000000E+00 -0.45593999997E+02  0.45594000000E+02  0.51100000000E-03 0.  1.
    9900012    2    1    2    0    0  0.30850136124E+02  0.11442942803E+02  0.28301086201E+02  0.47787270524E+02  0.19999997628E+02 0.  0.
        -12    1    1    2    0    0 -0.30850136124E+02 -0.11442942803E+02 -0.28301086201E+02  0.43400729476E+02  0.00000000000E+00 0.  1.
         11    1    3    3    0    0  0.10507409998E+02  0.80248692073E+01  0.32622982093E+01  0.13617884584E+02  0.51100000000E-03 0.  1.
        -11    1    3    3    0    0  0.15495871507E+02  0.64995544544E+01  0.14625280868E+02  0.22277007937E+02  0.51100000000E-03 0. -1.
        -12    1    3    3    0    0  0.48468546184E+01 -0.30814808588E+01  0.10413507124E+02  0.11892378004E+02  0.00000000000E+00 0.  1.
</event>
<event>
 7    1  0.3910751E-009  0.4778727E+02  0.7816164E-02  0.1312668E+00
        -11   -1    0    0    0    0  0.00000000000E+00  0.00000000000E+00  0.45593999997E+02  0.45594000000E+02  0.51100000000E-03 0. -1.
         11   -1    0    0    0    0 -0.00000000000E+00 -0.00000000000E+00 -0.45593999997E+02  0.45594000000E+02  0.51100000000E-03 0.  1.
    9900012    2    1    2    0    0 -0.30110952988E+02 -0.29707549479E+02 -0.97167506726E+01  0.47787271555E+02  0.20000002328E+02 0.  0.
        -12    1    1    2    0    0  0.30110952988E+02  0.29707549479E+02  0.97167506726E+01  0.43400728445E+02  0.00000000000E+00 0.  1.
         11    1    3    3    0    0 -0.80708975430E+01 -0.49423642066E+01 -0.47126635995E+01  0.10572395640E+02  0.51100000000E-03 0. -1.
        -11    1    3    3    0    0 -0.58546461348E+01 -0.13371877597E+01 -0.63083719709E+01  0.87097938927E+01  0.51100000000E-03 0.  1.
         12    1    3    3    0    0 -0.16185409311E+02 -0.23427997513E+02  0.13042848979E+01  0.28505082022E+02  0.00000000000E+00 0. -1.
</event>
<event>
 7    1  0.3910751E-009  0.4778726E+02  0.7816164E-02  0.1312668E+00
        -11   -1    0    0    0    0  0.00000000000E+00  0.00000000000E+00  0.45593999997E+02  0.45594000000E+02  0.51100000000E-03 0. -1.
         11   -1    0    0    0    0 -0.00000000000E+00 -0.00000000000E+00 -0.45593999997E+02  0.45594000000E+02  0.51100000000E-03 0.  1.
    9900012    2    1    2    0    0 -0.21783946577E+02 -0.80029965960E-01  0.37537684791E+02  0.47787256772E+02  0.19999934925E+02 0.  0.
        -12    1    1    2    0    0  0.21783946577E+02  0.80029965960E-01 -0.37537684791E+02  0.43400743228E+02  0.00000000000E+00 0.  1.
         11    1    3    3    0    0 -0.26224848900E+01  0.12351061464E+01  0.12677960761E+02  0.13005137581E+02  0.51100000000E-03 0. -1.
        -11    1    3    3    0    0 -0.30905994100E+01 -0.45091261021E+01  0.14248145395E+02  0.15260854183E+02  0.51100000000E-03 0.  1.
        -12    1    3    3    0    0 -0.16070862277E+02  0.31939899897E+01  0.10611578635E+02  0.19521265008E+02  0.00000000000E+00 0.  1.
</event>
<event>
 7    1  0.3910751E-009  0.4778727E+02  0.7816164E-02  0.1312668E+00
        -11   -1    0    0    0    0  0.00000000000E+00  0.00000000000E+00  0.45593999997E+02  0.45594000000E+02  0.51100000000E-03 0. -1.
         11   -1    0    0    0    0 -0.00000000000E+00 -0.00000000000E+00 -0.45593999997E+02  0.45594000000E+02  0.51100000000E-03 0.  1.
    9900012    2    1    2    0    0 -0.89671341992E+00  0.43158586629E+02  0.44894585631E+01  0.47787274972E+02  0.20000017909E+02 0.  0.
        -12    1    1    2    0    0  0.89671341992E+00 -0.43158586629E+02 -0.44894585631E+01  0.43400725028E+02  0.00000000000E+00 0.  1.
         11    1    3    3    0    0 -0.22559161485E+01  0.12649481711E+02  0.59658877200E+01  0.14166522571E+02  0.51100000000E-03 0. -1.
        -11    1    3    3    0    0  0.28060860385E+01  0.20540889323E+02  0.54015689441E+01  0.21423799858E+02  0.51100000000E-03 0.  1.
        -12    1    3    3    0    0 -0.14468833100E+01  0.99682155945E+01 -0.68779981010E+01  0.12196952543E+02  0.00000000000E+00 0.  1.
</event>
<event>
 7    1  0.3910751E-009  0.4778728E+02  0.7816164E-02  0.1312668E+00
        -11   -1    0    0    0    0  0.00000000000E+00  0.00000000000E+00  0.45593999997E+02  0.45594000000E+02  0.51100000000E-03 0.  1.
         11   -1    0    0    0    0 -0.00000000000E+00 -0.00000000000E+00 -0.45593999997E+02  0.45594000000E+02  0.51100000000E-03 0. -1.
    9900012    2    1    2    0    0 -0.98046884805E+01 -0.10355097846E+02 -0.40991010011E+02  0.47787275705E+02  0.20000021250E+02 0.  0.
        -12    1    1    2    0    0  0.98046884805E+01  0.10355097846E+02  0.40991010011E+02  0.43400724295E+02  0.00000000000E+00 0.  1.
         11    1    3    3    0    0 -0.23348262920E+01 -0.25122948000E+01 -0.70977661177E+01  0.78829767917E+01  0.51100000000E-03 0. -1.
        -11    1    3    3    0    0  0.67286580380E+00  0.49058446307E+01 -0.38671659597E+01  0.62829159434E+01  0.51100000000E-03 0.  1.
        -12    1    3    3    0    0 -0.81427279923E+01 -0.12748647677E+02 -0.30026077934E+02  0.33621382970E+02  0.00000000000E+00 0.  1.
</event>
<event>
 7    1  0.3910751E-009  0.4778728E+02  0.7816164E-02  0.1312668E+00
        -11   -1    0    0    0    0  0.00000000000E+00  0.00000000000E+00  0.45593999997E+02  0.45594000000E+02  0.51100000000E-03 0.  1.
         11   -1    0    0    0    0 -0.00000000000E+00 -0.00000000000E+00 -0.45593999997E+02  0.45594000000E+02  0.51100000000E-03 0. -1.
    9900012    2    1    2    0    0 -0.27608083952E+02 -0.23085598950E+02 -0.24258431314E+02  0.47787278022E+02  0.20000031814E+02 0.  0.
        -12    1    1    2    0    0  0.27608083952E+02  0.23085598950E+02  0.24258431314E+02  0.43400721978E+02  0.00000000000E+00 0.  1.
         11    1    3    3    0    0 -0.22400170827E+02 -0.17583261437E+02 -0.20061252985E+02  0.34833785431E+02  0.51100000000E-03 0. -1.
        -11    1    3    3    0    0 -0.49954755274E+01 -0.81517761294E+01 -0.36874089549E+01  0.10247107634E+02  0.51100000000E-03 0.  1.
        -12    1    3    3    0    0 -0.21243759770E+00  0.26494386170E+01 -0.50976937351E+00  0.27063849564E+01  0.00000000000E+00 0.  1.
</event>
<event>
 7    1  0.3910751E-009  0.4778727E+02  0.7816164E-02  0.1312668E+00
        -11   -1    0    0    0    0  0.00000000000E+00  0.00000000000E+00  0.45593999997E+02  0.45594000000E+02  0.51100000000E-03 0. -1.
         11   -1    0    0    0    0 -0.00000000000E+00 -0.00000000000E+00 -0.45593999997E+02  0.45594000000E+02  0.51100000000E-03 0.  1.
    9900012    2    1    2    0    0 -0.24889316140E+02  0.28000897511E+02 -0.21911071645E+02  0.47787269822E+02  0.19999994427E+02 0.  0.
        -12    1    1    2    0    0  0.24889316140E+02 -0.28000897511E+02  0.21911071645E+02  0.43400730178E+02  0.00000000000E+00 0.  1.
         11    1    3    3    0    0 -0.99623587097E+01  0.17278825960E+02 -0.70350540394E+01  0.21149430328E+02  0.51100000000E-03 0. -1.
        -11    1    3    3    0    0 -0.13875300298E+02  0.12248939927E+02 -0.16003619839E+02  0.24467863329E+02  0.51100000000E-03 0.  1.
         12    1    3    3    0    0 -0.10516571325E+01 -0.15268683752E+01  0.11276022333E+01  0.21699761649E+01  0.00000000000E+00 0. -1.
</event>
<event>
 7    1  0.3910751E-009  0.4778727E+02  0.7816164E-02  0.1312668E+00
        -11   -1    0    0    0    0  0.00000000000E+00  0.00000000000E+00  0.45593999997E+02  0.45594000000E+02  0.51100000000E-03 0. -1.
         11   -1    0    0    0    0 -0.00000000000E+00 -0.00000000000E+00 -0.45593999997E+02  0.45594000000E+02  0.51100000000E-03 0.  1.
    9900012    2    1    2    0    0  0.25929234046E+02 -0.11155759859E+02  0.32967363457E+02  0.47787271785E+02  0.20000003377E+02 0.  0.
        -12    1    1    2    0    0 -0.25929234046E+02  0.11155759859E+02 -0.32967363457E+02  0.43400728215E+02  0.00000000000E+00 0.  1.
         11    1    3    3    0    0  0.34359727391E+01  0.16418089541E+01  0.53962594785E+00  0.38461203479E+01  0.51100000000E-03 0. -1.
        -11    1    3    3    0    0  0.35724914424E+01  0.21227406640E+01  0.10764930780E+02  0.11539170594E+02  0.51100000000E-03 0.  1.
         12    1    3    3    0    0  0.18920769865E+02 -0.14920309477E+02  0.21662806729E+02  0.32401980843E+02  0.00000000000E+00 0. -1.
</event>
<event>
 7    1  0.3910751E-009  0.4778727E+02  0.7816164E-02  0.1312668E+00
        -11   -1    0    0    0    0  0.00000000000E+00  0.00000000000E+00  0.45593999997E+02  0.45594000000E+02  0.51100000000E-03 0. -1.
         11   -1    0    0    0    0 -0.00000000000E+00 -0.00000000000E+00 -0.45593999997E+02  0.45594000000E+02  0.51100000000E-03 0.  1.
    9900012    2    1    2    0    0 -0.20346551976E+02 -0.11203801830E+02  0.36662186178E+02  0.47787271341E+02  0.20000001353E+02 0.  0.
        -12    1    1    2    0    0  0.20346551976E+02  0.11203801830E+02 -0.36662186178E+02  0.43400728659E+02  0.00000000000E+00 0.  1.
         11    1    3    3    0    0 -0.11350904579E+01  0.72378311813E+00  0.12154923986E+02  0.12229246490E+02  0.51100000000E-03 0. -1.
        -11    1    3    3    0    0 -0.14078626160E+02 -0.65358584744E+01  0.23329408087E+02  0.28021178463E+02  0.51100000000E-03 0.  1.
        -12    1    3    3    0    0 -0.51328353583E+01 -0.53917264733E+01  0.11778541057E+01  0.75368463877E+01  0.00000000000E+00 0.  1.
</event>
<event>
 7    1  0.3910751E-009  0.4778727E+02  0.7816164E-02  0.1312668E+00
        -11   -1    0    0    0    0  0.00000000000E+00  0.00000000000E+00  0.45593999997E+02  0.45594000000E+02  0.51100000000E-03 0. -1.
         11   -1    0    0    0    0 -0.00000000000E+00 -0.00000000000E+00 -0.45593999997E+02  0.45594000000E+02  0.51100000000E-03 0.  1.
    9900012    2    1    2    0    0 -0.20193730301E+02  0.11703084747E+02  0.36590631675E+02  0.47787271176E+02  0.20000000601E+02 0.  0.
        -12    1    1    2    0    0  0.20193730301E+02 -0.11703084747E+02 -0.36590631675E+02  0.43400728824E+02  0.00000000000E+00 0.  1.
         11    1    3    3    0    0  0.37602248756E+00  0.48628251970E+00  0.55674042818E+00  0.82935141262E+00  0.51100000000E-03 0. -1.
        -11    1    3    3    0    0 -0.53762524523E+01 -0.28280169927E+01  0.83988593802E+00  0.61324692573E+01  0.51100000000E-03 0.  1.
         12    1    3    3    0    0 -0.15193500336E+02  0.14044819220E+02  0.35194005309E+02  0.40825450506E+02  0.00000000000E+00 0. -1.
</event>
<event>
 7    1  0.3910751E-009  0.4778727E+02  0.7816164E-02  0.1312668E+00
        -11   -1    0    0    0    0  0.00000000000E+00  0.00000000000E+00  0.45593999997E+02  0.45594000000E+02  0.51100000000E-03 0.  1.
         11   -1    0    0    0    0 -0.00000000000E+00 -0.00000000000E+00 -0.45593999997E+02  0.45594000000E+02  0.51100000000E-03 0. -1.
    9900012    2    1    2    0    0  0.67998725500E+01  0.39580417539E+02 -0.16455254133E+02  0.47787272957E+02  0.20000008721E+02 0.  0.
        -12    1    1    2    0    0 -0.67998725500E+01 -0.39580417539E+02  0.16455254133E+02  0.43400727043E+02  0.00000000000E+00 0.  1.
         11    1    3    3    0    0 -0.27430699219E+01  0.69823276922E+01 -0.49567206401E+01  0.89914633049E+01  0.51100000000E-03 0. -1.
        -11    1    3    3    0    0  0.70372025948E+01  0.11416424377E+02 -0.11186606229E+02  0.17464166888E+02  0.51100000000E-03 0.  1.
        -12    1    3    3    0    0  0.25057398771E+01  0.21181665470E+02 -0.31192726460E+00  0.21331642764E+02  0.00000000000E+00 0.  1.
</event>
<event>
 7    1  0.3910751E-009  0.4778728E+02  0.7816164E-02  0.1312668E+00
        -11   -1    0    0    0    0  0.00000000000E+00  0.00000000000E+00  0.45593999997E+02  0.45594000000E+02  0.51100000000E-03 0.  1.
         11   -1    0    0    0    0 -0.00000000000E+00 -0.00000000000E+00 -0.45593999997E+02  0.45594000000E+02  0.51100000000E-03 0. -1.
    9900012    2    1    2    0    0 -0.24299765977E+02  0.22932441440E+01 -0.35887119047E+02  0.47787275251E+02  0.20000019178E+02 0.  0.
        -12    1    1    2    0    0  0.24299765977E+02 -0.22932441440E+01  0.35887119047E+02  0.43400724749E+02  0.00000000000E+00 0.  1.
         11    1    3    3    0    0 -0.51645433453E+01  0.87225987977E+01 -0.13524689443E+02  0.16901877486E+02  0.51100000000E-03 0. -1.
        -11    1    3    3    0    0 -0.23499162848E+01  0.14442212122E+01 -0.31203662189E+01  0.41646809069E+01  0.51100000000E-03 0.  1.
        -12    1    3    3    0    0 -0.16785306347E+02 -0.78735758658E+01 -0.19242063385E+02  0.26720716858E+02  0.00000000000E+00 0.  1.
</event>
<event>
 7    1  0.3910751E-009  0.4778727E+02  0.7816164E-02  0.1312668E+00
        -11   -1    0    0    0    0  0.00000000000E+00  0.00000000000E+00  0.45593999997E+02  0.45594000000E+02  0.51100000000E-03 0.  1.
         11   -1    0    0    0    0 -0.00000000000E+00 -0.00000000000E+00 -0.45593999997E+02  0.45594000000E+02  0.51100000000E-03 0. -1.
    9900012    2    1    2    0    0 -0.11995967662E+02  0.85120754034E+00 -0.41701261663E+02  0.47787273984E+02  0.20000013404E+02 0.  0.
        -12    1    1    2    0    0  0.11995967662E+02 -0.85120754034E+00  0.41701261663E+02  0.43400726016E+02  0.00000000000E+00 0.  1.
         11    1    3    3    0    0 -0.85810649330E+01 -0.40271056156E+01 -0.19295706326E+02  0.21498291512E+02  0.51100000000E-03 0.  1.
        -11    1    3    3    0    0 -0.76322835634E+01  0.55763659060E+01 -0.16136623835E+02  0.18701289746E+02  0.51100000000E-03 0. -1.
        -12    1    3    3    0    0  0.42173808347E+01 -0.69805275002E+00 -0.62689315011E+01  0.75876927266E+01  0.00000000000E+00 0.  1.
</event>
<event>
 7    1  0.3910751E-009  0.4778726E+02  0.7816164E-02  0.1312668E+00
        -11   -1    0    0    0    0  0.00000000000E+00  0.00000000000E+00  0.45593999997E+02  0.45594000000E+02  0.51100000000E-03 0.  1.
         11   -1    0    0    0    0 -0.00000000000E+00 -0.00000000000E+00 -0.45593999997E+02  0.45594000000E+02  0.51100000000E-03 0. -1.
    9900012    2    1    2    0    0  0.32690565444E+02  0.19274088103E+01 -0.28482208525E+02  0.47787260649E+02  0.19999952603E+02 0.  0.
        -12    1    1    2    0    0 -0.32690565444E+02 -0.19274088103E+01  0.28482208525E+02  0.43400739351E+02  0.00000000000E+00 0.  1.
         11    1    3    3    0    0  0.45170375953E+01 -0.29280777451E+01 -0.14230539241E+01  0.55679754535E+01  0.51100000000E-03 0. -1.
        -11    1    3    3    0    0  0.10103299628E+02 -0.55745442677E+01 -0.99709734224E+01  0.15250328469E+02  0.51100000000E-03 0.  1.
        -12    1    3    3    0    0  0.18070228221E+02  0.10430030823E+02 -0.17088181179E+02  0.26968956727E+02  0.00000000000E+00 0.  1.
</event>
<event>
 7    1  0.3910751E-009  0.4778726E+02  0.7816164E-02  0.1312668E+00
        -11   -1    0    0    0    0  0.00000000000E+00  0.00000000000E+00  0.45593999997E+02  0.45594000000E+02  0.51100000000E-03 0. -1.
         11   -1    0    0    0    0 -0.00000000000E+00 -0.00000000000E+00 -0.45593999997E+02  0.45594000000E+02  0.51100000000E-03 0.  1.
    9900012    2    1    2    0    0  0.19513126097E+02 -0.37686376855E+02  0.90883908443E+01  0.47787263386E+02  0.19999965080E+02 0.  0.
        -12    1    1    2    0    0 -0.19513126097E+02  0.37686376855E+02 -0.90883908443E+01  0.43400736614E+02  0.00000000000E+00 0.  1.
         11    1    3    3    0    0  0.10431802521E+02 -0.71681520191E+01  0.72730748198E+01  0.14598031539E+02  0.51100000000E-03 0. -1.
        -11    1    3    3    0    0  0.97598092334E+01 -0.17134482788E+02  0.52208902242E+00  0.19726047599E+02  0.51100000000E-03 0.  1.
        -12    1    3    3    0    0 -0.67848565793E+00 -0.13383742048E+02  0.12932270021E+01  0.13463184247E+02  0.00000000000E+00 0.  1.
</event>
<event>
 7    1  0.3910751E-009  0.4778730E+02  0.7816164E-02  0.1312668E+00
        -11   -1    0    0    0    0  0.00000000000E+00  0.00000000000E+00  0.45593999997E+02  0.45594000000E+02  0.51100000000E-03 0. -1.
         11   -1    0    0    0    0 -0.00000000000E+00 -0.00000000000E+00 -0.45593999997E+02  0.45594000000E+02  0.51100000000E-03 0.  1.
    9900012    2    1    2    0    0 -0.94706263645E+01 -0.39697803623E+02  0.14765252191E+02  0.47787296683E+02  0.20000116894E+02 0.  0.
        -12    1    1    2    0    0  0.94706263645E+01  0.39697803623E+02 -0.14765252191E+02  0.43400703317E+02  0.00000000000E+00 0.  1.
         11    1    3    3    0    0 -0.84976787412E+01 -0.30698672158E+02  0.10402589425E+02  0.33508698621E+02  0.51100000000E-03 0. -1.
        -11    1    3    3    0    0 -0.23300561470E+01 -0.10709263771E+02  0.21471355907E+01  0.11168154891E+02  0.51100000000E-03 0.  1.
        -12    1    3    3    0    0  0.13571085237E+01  0.17101323067E+01  0.22155271754E+01  0.31104431704E+01  0.00000000000E+00 0.  1.
</event>
<event>
 7    1  0.3910751E-009  0.4778726E+02  0.7816164E-02  0.1312668E+00
        -11   -1    0    0    0    0  0.00000000000E+00  0.00000000000E+00  0.45593999997E+02  0.45594000000E+02  0.51100000000E-03 0.  1.
         11   -1    0    0    0    0 -0.00000000000E+00 -0.00000000000E+00 -0.45593999997E+02  0.45594000000E+02  0.51100000000E-03 0. -1.
    9900012    2    1    2    0    0  0.13695323748E+02  0.18748930380E+02 -0.36667963686E+02  0.47787264478E+02  0.19999970060E+02 0.  0.
        -12    1    1    2    0    0 -0.13695323748E+02 -0.18748930380E+02  0.36667963686E+02  0.43400735522E+02  0.00000000000E+00 0.  1.
         11    1    3    3    0    0  0.11031943110E+00  0.18040643469E+00  0.97988428446E+00  0.10024421832E+01  0.51100000000E-03 0. -1.
        -11    1    3    3    0    0 -0.34576038136E+01  0.19812502788E+01 -0.50161402290E+01  0.64064061577E+01  0.51100000000E-03 0.  1.
         12    1    3    3    0    0  0.17042608131E+02  0.16587273667E+02 -0.32631707742E+02  0.40378416137E+02  0.00000000000E+00 0. -1.
</event>
<event>
 7    1  0.3910751E-009  0.4778727E+02  0.7816164E-02  0.1312668E+00
        -11   -1    0    0    0    0  0.00000000000E+00  0.00000000000E+00  0.45593999997E+02  0.45594000000E+02  0.51100000000E-03 0. -1.
         11   -1    0    0    0    0 -0.00000000000E+00 -0.00000000000E+00 -0.45593999997E+02  0.45594000000E+02  0.51100000000E-03 0.  1.
    9900012    2    1    2    0    0  0.33013188092E+02 -0.28083376595E+02 -0.22531187191E+01  0.47787272208E+02  0.20000005303E+02 0.  0.
        -12    1    1    2    0    0 -0.33013188092E+02  0.28083376595E+02  0.22531187191E+01  0.43400727792E+02  0.00000000000E+00 0.  1.
         11    1    3    3    0    0  0.12980474705E+02 -0.20440219977E+02 -0.42174638823E+01  0.24578086136E+02  0.51100000000E-03 0. -1.
        -11    1    3    3    0    0  0.11192769910E+02 -0.68423168683E+01 -0.23706964638E+01  0.13331001477E+02  0.51100000000E-03 0.  1.
         12    1    3    3    0    0  0.88399434763E+01 -0.80083974949E+00  0.43350416270E+01  0.98781845942E+01  0.00000000000E+00 0. -1.
</event>
<event>
 7    1  0.3910751E-009  0.4778727E+02  0.7816164E-02  0.1312668E+00
        -11   -1    0    0    0    0  0.00000000000E+00  0.00000000000E+00  0.45593999997E+02  0.45594000000E+02  0.51100000000E-03 0.  1.
         11   -1    0    0    0    0 -0.00000000000E+00 -0.00000000000E+00 -0.45593999997E+02  0.45594000000E+02  0.51100000000E-03 0. -1.
    9900012    2    1    2    0    0 -0.15133299583E+01  0.26771402499E+02 -0.34126604926E+02  0.47787270478E+02  0.19999997416E+02 0.  0.
        -12    1    1    2    0    0  0.15133299583E+01 -0.26771402499E+02  0.34126604926E+02  0.43400729522E+02  0.00000000000E+00 0.  1.
         11    1    3    3    0    0  0.54815496909E+01  0.10367663364E+02 -0.88670072068E+01  0.14702368779E+02  0.51100000000E-03 0. -1.
        -11    1    3    3    0    0 -0.27453365147E+00 -0.18359632943E+01 -0.14984385397E+01  0.23856756406E+01  0.51100000000E-03 0.  1.
         12    1    3    3    0    0 -0.67203459978E+01  0.18239702429E+02 -0.23761159179E+02  0.30699226058E+02  0.00000000000E+00 0. -1.
</event>
<event>
 7    1  0.3910751E-009  0.4778727E+02  0.7816164E-02  0.1312668E+00
        -11   -1    0    0    0    0  0.00000000000E+00  0.00000000000E+00  0.45593999997E+02  0.45594000000E+02  0.51100000000E-03 0. -1.
         11   -1    0    0    0    0 -0.00000000000E+00 -0.00000000000E+00 -0.45593999997E+02  0.45594000000E+02  0.51100000000E-03 0.  1.
    9900012    2    1    2    0    0  0.23987975456E+02  0.20038500310E+02  0.30110772295E+02  0.47787273401E+02  0.20000010743E+02 0.  0.
        -12    1    1    2    0    0 -0.23987975456E+02 -0.20038500310E+02 -0.30110772295E+02  0.43400726599E+02  0.00000000000E+00 0.  1.
         11    1    3    3    0    0  0.37291890407E+01 -0.14906346673E+01  0.30667775494E+01  0.50531146247E+01  0.51100000000E-03 0.  1.
        -11    1    3    3    0    0  0.82806130379E+01 -0.15564238222E+00  0.76172399198E+01  0.11252338472E+02  0.51100000000E-03 0. -1.
        -12    1    3    3    0    0  0.11978173377E+02  0.21684777359E+02  0.19426754826E+02  0.31481820304E+02  0.00000000000E+00 0.  1.
</event>
<event>
 7    1  0.3910751E-009  0.4778728E+02  0.7816164E-02  0.1312668E+00
        -11   -1    0    0    0    0  0.00000000000E+00  0.00000000000E+00  0.45593999997E+02  0.45594000000E+02  0.51100000000E-03 0. -1.
         11   -1    0    0    0    0 -0.00000000000E+00 -0.00000000000E+00 -0.45593999997E+02  0.45594000000E+02  0.51100000000E-03 0.  1.
    9900012    2    1    2    0    0  0.42106139036E+02  0.34805815220E+01  0.99288168189E+01  0.47787276553E+02  0.20000025117E+02 0.  0.
        -12    1    1    2    0    0 -0.42106139036E+02 -0.34805815220E+01 -0.99288168189E+01  0.43400723447E+02  0.00000000000E+00 0.  1.
         11    1    3    3    0    0  0.63455015211E+01  0.57313854241E+01  0.32792082183E+01  0.91579132576E+01  0.51100000000E-03 0. -1.
        -11    1    3    3    0    0  0.29767909692E+01  0.18046389066E+01 -0.25771573250E+01  0.43312522665E+01  0.51100000000E-03 0.  1.
         12    1    3    3    0    0  0.32783846546E+02 -0.40554428086E+01  0.92267659256E+01  0.34298111029E+02  0.00000000000E+00 0. -1.
</event>
<event>
 7    1  0.3910751E-009  0.4778728E+02  0.7816164E-02  0.1312668E+00
        -11   -1    0    0    0    0  0.00000000000E+00  0.00000000000E+00  0.45593999997E+02  0.45594000000E+02  0.51100000000E-03 0.  1.
         11   -1    0    0    0    0 -0.00000000000E+00 -0.00000000000E+00 -0.45593999997E+02  0.45594000000E+02  0.51100000000E-03 0. -1.
    9900012    2    1    2    0    0 -0.43179123977E+02 -0.42483913029E+01 -0.10662926024E+01  0.47787279314E+02  0.20000037706E+02 0.  0.
        -12    1    1    2    0    0  0.43179123977E+02  0.42483913029E+01  0.10662926024E+01  0.43400720686E+02  0.00000000000E+00 0.  1.
         11    1    3    3    0    0 -0.11128117313E+02  0.47877264530E+01  0.70347195599E+00  0.12134751443E+02  0.51100000000E-03 0. -1.
        -11    1    3    3    0    0  0.65695329186E+00 -0.39278212834E+00 -0.16529878623E+01  0.18216021964E+01  0.51100000000E-03 0.  1.
        -12    1    3    3    0    0 -0.32707959956E+02 -0.86433356276E+01 -0.11677669617E+00  0.33830925675E+02  0.00000000000E+00 0.  1.
</event>
<event>
 7    1  0.3910751E-009  0.4778727E+02  0.7816164E-02  0.1312668E+00
        -11   -1    0    0    0    0  0.00000000000E+00  0.00000000000E+00  0.45593999997E+02  0.45594000000E+02  0.51100000000E-03 0.  1.
         11   -1    0    0    0    0 -0.00000000000E+00 -0.00000000000E+00 -0.45593999997E+02  0.45594000000E+02  0.51100000000E-03 0. -1.
    9900012    2    1    2    0    0 -0.13072100627E+02 -0.39943693779E+02 -0.10827952458E+02  0.47787273717E+02  0.20000012184E+02 0.  0.
        -12    1    1    2    0    0  0.13072100627E+02  0.39943693779E+02  0.10827952458E+02  0.43400726283E+02  0.00000000000E+00 0.  1.
         11    1    3    3    0    0  0.63763447578E+00 -0.46237319863E+00 -0.21176410536E+00  0.81560468178E+00  0.51100000000E-03 0. -1.
        -11    1    3    3    0    0 -0.27271467966E+01  0.67474131991E+00  0.20258829783E+01  0.34636408015E+01  0.51100000000E-03 0.  1.
         12    1    3    3    0    0 -0.10982588306E+02 -0.40156061900E+02 -0.12642071330E+02  0.43508028233E+02  0.00000000000E+00 0. -1.
</event>
<event>
 7    1  0.3910751E-009  0.4778727E+02  0.7816164E-02  0.1312668E+00
        -11   -1    0    0    0    0  0.00000000000E+00  0.00000000000E+00  0.45593999997E+02  0.45594000000E+02  0.51100000000E-03 0.  1.
         11   -1    0    0    0    0 -0.00000000000E+00 -0.00000000000E+00 -0.45593999997E+02  0.45594000000E+02  0.51100000000E-03 0. -1.
    9900012    2    1    2    0    0  0.34534209249E+02 -0.16327444080E+02 -0.20601610794E+02  0.47787269522E+02  0.19999993061E+02 0.  0.
        -12    1    1    2    0    0 -0.34534209249E+02  0.16327444080E+02  0.20601610794E+02  0.43400730478E+02  0.00000000000E+00 0.  1.
         11    1    3    3    0    0  0.14294009069E+02 -0.11768019425E+02 -0.89065736090E+01  0.20545851897E+02  0.51100000000E-03 0. -1.
        -11    1    3    3    0    0  0.17932656091E+02 -0.45275867420E+01 -0.36241995050E+01  0.18847122286E+02  0.51100000000E-03 0.  1.
         12    1    3    3    0    0  0.23075440901E+01 -0.31837912547E-01 -0.80708376800E+01  0.83942953390E+01  0.00000000000E+00 0. -1.
</event>
<event>
 7    1  0.3910751E-009  0.4778727E+02  0.7816164E-02  0.1312668E+00
        -11   -1    0    0    0    0  0.00000000000E+00  0.00000000000E+00  0.45593999997E+02  0.45594000000E+02  0.51100000000E-03 0. -1.
         11   -1    0    0    0    0 -0.00000000000E+00 -0.00000000000E+00 -0.45593999997E+02  0.45594000000E+02  0.51100000000E-03 0.  1.
    9900012    2    1    2    0    0 -0.14210429550E+02  0.11163417153E+02  0.39459661703E+02  0.47787273136E+02  0.20000009538E+02 0.  0.
        -12    1    1    2    0    0  0.14210429550E+02 -0.11163417153E+02 -0.39459661703E+02  0.43400726864E+02  0.00000000000E+00 0.  1.
         11    1    3    3    0    0 -0.51514058457E+01  0.93484617227E+01  0.15798277443E+02  0.19066103146E+02  0.51100000000E-03 0. -1.
        -11    1    3    3    0    0  0.10316868148E+00  0.60181102020E+01  0.68448111333E+01  0.91148084945E+01  0.51100000000E-03 0.  1.
        -12    1    3    3    0    0 -0.91621923859E+01 -0.42031547714E+01  0.16816573127E+02  0.19606361495E+02  0.00000000000E+00 0.  1.
</event>
<event>
 7    1  0.3910751E-009  0.4778727E+02  0.7816164E-02  0.1312668E+00
        -11   -1    0    0    0    0  0.00000000000E+00  0.00000000000E+00  0.45593999997E+02  0.45594000000E+02  0.51100000000E-03 0.  1.
         11   -1    0    0    0    0 -0.00000000000E+00 -0.00000000000E+00 -0.45593999997E+02  0.45594000000E+02  0.51100000000E-03 0. -1.
    9900012    2    1    2    0    0  0.19088604277E+02  0.21387925689E+02 -0.32585348425E+02  0.47787272927E+02  0.20000008583E+02 0.  0.
        -12    1    1    2    0    0 -0.19088604277E+02 -0.21387925689E+02  0.32585348425E+02  0.43400727073E+02  0.00000000000E+00 0.  1.
         11    1    3    3    0    0  0.63511348945E+01  0.54087166659E+01 -0.79316632555E+01  0.11510969233E+02  0.51100000000E-03 0. -1.
        -11    1    3    3    0    0 -0.52124852645E+00  0.12079854940E+02 -0.15671260848E+02  0.19793509346E+02  0.51100000000E-03 0.  1.
        -12    1    3    3    0    0  0.13258717909E+02  0.38993540833E+01 -0.89824243213E+01  0.16482794349E+02  0.00000000000E+00 0.  1.
</event>
<event>
 7    1  0.3910751E-009  0.4778727E+02  0.7816164E-02  0.1312668E+00
        -11   -1    0    0    0    0  0.00000000000E+00  0.00000000000E+00  0.45593999997E+02  0.45594000000E+02  0.51100000000E-03 0.  1.
         11   -1    0    0    0    0 -0.00000000000E+00 -0.00000000000E+00 -0.45593999997E+02  0.45594000000E+02  0.51100000000E-03 0. -1.
    9900012    2    1    2    0    0  0.28187088094E+02  0.11423918955E+02 -0.30961356965E+02  0.47787268616E+02  0.19999988928E+02 0.  0.
        -12    1    1    2    0    0 -0.28187088094E+02 -0.11423918955E+02  0.30961356965E+02  0.43400731384E+02  0.00000000000E+00 0.  1.
         11    1    3    3    0    0  0.11642841332E+02  0.66099260758E+00 -0.55897042941E+01  0.12932032318E+02  0.51100000000E-03 0. -1.
        -11    1    3    3    0    0 -0.55205466619E+00 -0.23030536232E+01 -0.28745857291E+01  0.37245219453E+01  0.51100000000E-03 0.  1.
         12    1    3    3    0    0  0.17096301428E+02  0.13065979971E+02 -0.22497066942E+02  0.31130714353E+02  0.00000000000E+00 0. -1.
</event>
<event>
 7    1  0.3910751E-009  0.4778726E+02  0.7816164E-02  0.1312668E+00
        -11   -1    0    0    0    0  0.00000000000E+00  0.00000000000E+00  0.45593999997E+02  0.45594000000E+02  0.51100000000E-03 0.  1.
         11   -1    0    0    0    0 -0.00000000000E+00 -0.00000000000E+00 -0.45593999997E+02  0.45594000000E+02  0.51100000000E-03 0. -1.
    9900012    2    1    2    0    0  0.26718860553E+02  0.33907167851E+02  0.44755431004E+01  0.47787262369E+02  0.19999960444E+02 0.  0.
        -12    1    1    2    0    0 -0.26718860553E+02 -0.33907167851E+02 -0.44755431004E+01  0.43400737631E+02  0.00000000000E+00 0.  1.
         11    1    3    3    0    0  0.17701663985E+02  0.31003703195E+02  0.29915099113E+01  0.35826354147E+02  0.51100000000E-03 0. -1.
        -11    1    3    3    0    0 -0.11774873924E+01  0.88483386219E+00  0.96089601543E-01  0.14760220173E+01  0.51100000000E-03 0.  1.
         12    1    3    3    0    0  0.10194683960E+02  0.20186307939E+01  0.13879435876E+01  0.10484886205E+02  0.00000000000E+00 0. -1.
</event>
<event>
 7    1  0.3910751E-009  0.4778727E+02  0.7816164E-02  0.1312668E+00
        -11   -1    0    0    0    0  0.00000000000E+00  0.00000000000E+00  0.45593999997E+02  0.45594000000E+02  0.51100000000E-03 0.  1.
         11   -1    0    0    0    0 -0.00000000000E+00 -0.00000000000E+00 -0.45593999997E+02  0.45594000000E+02  0.51100000000E-03 0. -1.
    9900012    2    1    2    0    0 -0.20529611604E+02 -0.15218936037E+02 -0.35079093036E+02  0.47787265733E+02  0.19999975783E+02 0.  0.
        -12    1    1    2    0    0  0.20529611604E+02  0.15218936037E+02  0.35079093036E+02  0.43400734267E+02  0.00000000000E+00 0.  1.
         11    1    3    3    0    0 -0.43331058824E+00 -0.20482547469E+01 -0.90538298259E+01  0.92927358917E+01  0.51100000000E-03 0. -1.
        -11    1    3    3    0    0 -0.14132741674E+02 -0.72140267159E+01 -0.25519739237E+02  0.30050518459E+02  0.51100000000E-03 0.  1.
         12    1    3    3    0    0 -0.59635593417E+01 -0.59566545742E+01 -0.50552397334E+00  0.84440113824E+01  0.00000000000E+00 0. -1.
</event>
<event>
 7    1  0.3910751E-009  0.4778727E+02  0.7816164E-02  0.1312668E+00
        -11   -1    0    0    0    0  0.00000000000E+00  0.00000000000E+00  0.45593999997E+02  0.45594000000E+02  0.51100000000E-03 0.  1.
         11   -1    0    0    0    0 -0.00000000000E+00 -0.00000000000E+00 -0.45593999997E+02  0.45594000000E+02  0.51100000000E-03 0. -1.
    9900012    2    1    2    0    0  0.11576578431E+01  0.15310010681E+02 -0.40594171946E+02  0.47787269653E+02  0.19999993654E+02 0.  0.
        -12    1    1    2    0    0 -0.11576578431E+01 -0.15310010681E+02  0.40594171946E+02  0.43400730347E+02  0.00000000000E+00 0.  1.
         11    1    3    3    0    0  0.39350180362E+01  0.76576961279E+01 -0.12947092327E+02  0.15548372163E+02  0.51100000000E-03 0. -1.
        -11    1    3    3    0    0 -0.12658798959E+01  0.11423236638E+02 -0.14641706633E+02  0.18613768039E+02  0.51100000000E-03 0.  1.
         12    1    3    3    0    0 -0.15114802972E+01 -0.37709220855E+01 -0.13005372985E+02  0.13625129451E+02  0.00000000000E+00 0. -1.
</event>
<event>
 7    1  0.3910751E-009  0.4778728E+02  0.7816164E-02  0.1312668E+00
        -11   -1    0    0    0    0  0.00000000000E+00  0.00000000000E+00  0.45593999997E+02  0.45594000000E+02  0.51100000000E-03 0. -1.
         11   -1    0    0    0    0 -0.00000000000E+00 -0.00000000000E+00 -0.45593999997E+02  0.45594000000E+02  0.51100000000E-03 0.  1.
    9900012    2    1    2    0    0 -0.36607929878E+02  0.13129967548E+02 -0.19263601372E+02  0.47787275172E+02  0.20000018821E+02 0.  0.
        -12    1    1    2    0    0  0.36607929878E+02 -0.13129967548E+02  0.19263601372E+02  0.43400724828E+02  0.00000000000E+00 0.  1.
         11    1    3    3    0    0 -0.15824828878E+02  0.75876180567E+01 -0.83910415303E+01  0.19452679379E+02  0.51100000000E-03 0. -1.
        -11    1    3    3    0    0 -0.87615320212E+01  0.90429500289E+01 -0.14708364102E+01  0.12676858783E+02  0.51100000000E-03 0.  1.
        -12    1    3    3    0    0 -0.12021568978E+02 -0.35006005377E+01 -0.94017234316E+01  0.15657737011E+02  0.00000000000E+00 0.  1.
</event>
<event>
 7    1  0.3910751E-009  0.4778727E+02  0.7816164E-02  0.1312668E+00
        -11   -1    0    0    0    0  0.00000000000E+00  0.00000000000E+00  0.45593999997E+02  0.45594000000E+02  0.51100000000E-03 0.  1.
         11   -1    0    0    0    0 -0.00000000000E+00 -0.00000000000E+00 -0.45593999997E+02  0.45594000000E+02  0.51100000000E-03 0. -1.
    9900012    2    1    2    0    0  0.40789240115E+01 -0.81883196124E+01 -0.42425666489E+02  0.47787269865E+02  0.19999994625E+02 0.  0.
        -12    1    1    2    0    0 -0.40789240115E+01  0.81883196124E+01  0.42425666489E+02  0.43400730135E+02  0.00000000000E+00 0.  1.
         11    1    3    3    0    0  0.23697193521E+01 -0.43128701182E+01 -0.62942886021E+01  0.79896487865E+01  0.51100000000E-03 0. -1.
        -11    1    3    3    0    0 -0.83227628188E+00 -0.66102020495E+01 -0.35364128952E+02  0.35986234475E+02  0.51100000000E-03 0.  1.
        -12    1    3    3    0    0  0.25414809413E+01  0.27347525553E+01 -0.76724893542E+00  0.38113866037E+01  0.00000000000E+00 0.  1.
</event>
<event>
 7    1  0.3910751E-009  0.4778728E+02  0.7816164E-02  0.1312668E+00
        -11   -1    0    0    0    0  0.00000000000E+00  0.00000000000E+00  0.45593999997E+02  0.45594000000E+02  0.51100000000E-03 0. -1.
         11   -1    0    0    0    0 -0.00000000000E+00 -0.00000000000E+00 -0.45593999997E+02  0.45594000000E+02  0.51100000000E-03 0.  1.
    9900012    2    1    2    0    0  0.88381244402E+01  0.17868703543E+02  0.38551520973E+02  0.47787276742E+02  0.20000025979E+02 0.  0.
        -12    1    1    2    0    0 -0.88381244402E+01 -0.17868703543E+02 -0.38551520973E+02  0.43400723258E+02  0.00000000000E+00 0.  1.
         11    1    3    3    0    0  0.37685862192E+00  0.59747915996E+01  0.14039933895E+02  0.15263023983E+02  0.51100000000E-03 0. -1.
        -11    1    3    3    0    0 -0.22836208241E+01 -0.21827478215E+01  0.15267308145E+01  0.35085922193E+01  0.51100000000E-03 0.  1.
         12    1    3    3    0    0  0.10744886642E+02  0.14076659764E+02  0.22984856264E+02  0.29015660540E+02  0.00000000000E+00 0. -1.
</event>
<event>
 7    1  0.3910751E-009  0.4778727E+02  0.7816164E-02  0.1312668E+00
        -11   -1    0    0    0    0  0.00000000000E+00  0.00000000000E+00  0.45593999997E+02  0.45594000000E+02  0.51100000000E-03 0. -1.
         11   -1    0    0    0    0 -0.00000000000E+00 -0.00000000000E+00 -0.45593999997E+02  0.45594000000E+02  0.51100000000E-03 0.  1.
    9900012    2    1    2    0    0  0.19609842379E+02 -0.36304488492E+02  0.13455903440E+02  0.47787272585E+02  0.20000007023E+02 0.  0.
        -12    1    1    2    0    0 -0.19609842379E+02  0.36304488492E+02 -0.13455903440E+02  0.43400727415E+02  0.00000000000E+00 0.  1.
         11    1    3    3    0    0  0.51881065057E+01 -0.79655496970E+01 -0.16964379957E+01  0.96563105389E+01  0.51100000000E-03 0. -1.
        -11    1    3    3    0    0  0.12380819393E+02 -0.85793015784E+01  0.76755808116E+01  0.16905728185E+02  0.51100000000E-03 0.  1.
         12    1    3    3    0    0  0.20409164802E+01 -0.19759637216E+02  0.74767606240E+01  0.21225233861E+02  0.00000000000E+00 0. -1.
</event>
<event>
 7    1  0.3910751E-009  0.4778727E+02  0.7816164E-02  0.1312668E+00
        -11   -1    0    0    0    0  0.00000000000E+00  0.00000000000E+00  0.45593999997E+02  0.45594000000E+02  0.51100000000E-03 0. -1.
         11   -1    0    0    0    0 -0.00000000000E+00 -0.00000000000E+00 -0.45593999997E+02  0.45594000000E+02  0.51100000000E-03 0.  1.
    9900012    2    1    2    0    0 -0.77128370825E+01  0.10019012271E+02  0.41518127293E+02  0.47787270090E+02  0.19999995650E+02 0.  0.
        -12    1    1    2    0    0  0.77128370825E+01 -0.10019012271E+02 -0.41518127293E+02  0.43400729910E+02  0.00000000000E+00 0.  1.
         11    1    3    3    0    0 -0.39234719998E+01  0.74484331494E+01  0.32107862521E+02  0.33193186422E+02  0.51100000000E-03 0. -1.
        -11    1    3    3    0    0 -0.43714479810E+01 -0.22828292765E+00  0.10622380652E+02  0.11488979133E+02  0.51100000000E-03 0.  1.
         12    1    3    3    0    0  0.58208289833E+00  0.27988620490E+01 -0.12121158794E+01  0.31051045353E+01  0.00000000000E+00 0. -1.
</event>
<event>
 7    1  0.3910751E-009  0.4778727E+02  0.7816164E-02  0.1312668E+00
        -11   -1    0    0    0    0  0.00000000000E+00  0.00000000000E+00  0.45593999997E+02  0.45594000000E+02  0.51100000000E-03 0. -1.
         11   -1    0    0    0    0 -0.00000000000E+00 -0.00000000000E+00 -0.45593999997E+02  0.45594000000E+02  0.51100000000E-03 0.  1.
    9900012    2    1    2    0    0  0.29892873305E+02  0.24513612751E+02  0.19726179786E+02  0.47787271279E+02  0.20000001071E+02 0.  0.
        -12    1    1    2    0    0 -0.29892873305E+02 -0.24513612751E+02 -0.19726179786E+02  0.43400728721E+02  0.00000000000E+00 0.  1.
         11    1    3    3    0    0  0.10726026743E+02  0.96201600115E+01  0.17850989422E+02  0.22940203834E+02  0.51100000000E-03 0. -1.
        -11    1    3    3    0    0  0.38666386654E+01  0.75329564508E+00  0.15146844595E+00  0.39422445192E+01  0.51100000000E-03 0.  1.
        -12    1    3    3    0    0  0.15300207897E+02  0.14140157095E+02  0.17237219183E+01  0.20904822926E+02  0.00000000000E+00 0.  1.
</event>
<event>
 7    1  0.3910751E-009  0.4778727E+02  0.7816164E-02  0.1312668E+00
        -11   -1    0    0    0    0  0.00000000000E+00  0.00000000000E+00  0.45593999997E+02  0.45594000000E+02  0.51100000000E-03 0.  1.
         11   -1    0    0    0    0 -0.00000000000E+00 -0.00000000000E+00 -0.45593999997E+02  0.45594000000E+02  0.51100000000E-03 0. -1.
    9900012    2    1    2    0    0 -0.26788896400E+02 -0.33433421766E+02 -0.69415313615E+01  0.47787268221E+02  0.19999987126E+02 0.  0.
        -12    1    1    2    0    0  0.26788896400E+02  0.33433421766E+02  0.69415313615E+01  0.43400731779E+02  0.00000000000E+00 0.  1.
         11    1    3    3    0    0 -0.23199319140E+02 -0.27782153052E+02 -0.65181062784E+01  0.36776924103E+02  0.51100000000E-03 0. -1.
        -11    1    3    3    0    0 -0.40423815239E+01 -0.61163663525E+01 -0.33154965678E+01  0.80463223584E+01  0.51100000000E-03 0.  1.
        -12    1    3    3    0    0  0.45280426446E+00  0.46509763852E+00  0.28920714847E+01  0.29640217590E+01  0.00000000000E+00 0.  1.
</event>
<event>
 7    1  0.3910751E-009  0.4778725E+02  0.7816164E-02  0.1312668E+00
        -11   -1    0    0    0    0  0.00000000000E+00  0.00000000000E+00  0.45593999997E+02  0.45594000000E+02  0.51100000000E-03 0.  1.
         11   -1    0    0    0    0 -0.00000000000E+00 -0.00000000000E+00 -0.45593999997E+02  0.45594000000E+02  0.51100000000E-03 0. -1.
    9900012    2    1    2    0    0  0.25830690131E+02  0.10420623066E+02 -0.33283803112E+02  0.47787245544E+02  0.19999883734E+02 0.  0.
        -12    1    1    2    0    0 -0.25830690131E+02 -0.10420623066E+02  0.33283803112E+02  0.43400754456E+02  0.00000000000E+00 0.  1.
         11    1    3    3    0    0  0.14193601870E+02  0.83679393517E+01 -0.26991906225E+02  0.31623468262E+02  0.51100000000E-03 0. -1.
        -11    1    3    3    0    0  0.67066488241E+01 -0.20384598700E+01 -0.67622874143E+01  0.97397632634E+01  0.51100000000E-03 0.  1.
        -12    1    3    3    0    0  0.49304394364E+01  0.40911435843E+01  0.47039052646E+00  0.64240140185E+01  0.00000000000E+00 0.  1.
</event>
<event>
 7    1  0.3910751E-009  0.4778728E+02  0.7816164E-02  0.1312668E+00
        -11   -1    0    0    0    0  0.00000000000E+00  0.00000000000E+00  0.45593999997E+02  0.45594000000E+02  0.51100000000E-03 0.  1.
         11   -1    0    0    0    0 -0.00000000000E+00 -0.00000000000E+00 -0.45593999997E+02  0.45594000000E+02  0.51100000000E-03 0. -1.
    9900012    2    1    2    0    0  0.15127193164E+01  0.78857808573E+01 -0.42651474773E+02  0.47787283880E+02  0.20000058521E+02 0.  0.
        -12    1    1    2    0    0 -0.15127193164E+01 -0.78857808573E+01  0.42651474773E+02  0.43400716120E+02  0.00000000000E+00 0.  1.
         11    1    3    3    0    0  0.20910401433E+01  0.54323613005E+00 -0.19391726939E+02  0.19511704905E+02  0.51100000000E-03 0. -1.
        -11    1    3    3    0    0 -0.49278162402E+00 -0.39644216813E+01 -0.10458756828E+02  0.11195761146E+02  0.51100000000E-03 0.  1.
        -12    1    3    3    0    0 -0.85539202955E-01  0.11306966409E+02 -0.12800991006E+02  0.17079817829E+02  0.00000000000E+00 0.  1.
</event>
<event>
 7    1  0.3910751E-009  0.4778727E+02  0.7816164E-02  0.1312668E+00
        -11   -1    0    0    0    0  0.00000000000E+00  0.00000000000E+00  0.45593999997E+02  0.45594000000E+02  0.51100000000E-03 0. -1.
         11   -1    0    0    0    0 -0.00000000000E+00 -0.00000000000E+00 -0.45593999997E+02  0.45594000000E+02  0.51100000000E-03 0.  1.
    9900012    2    1    2    0    0  0.22697320232E+02  0.33012347786E+02  0.16692504288E+02  0.47787272455E+02  0.20000006429E+02 0.  0.
        -12    1    1    2    0    0 -0.22697320232E+02 -0.33012347786E+02 -0.16692504288E+02  0.43400727545E+02  0.00000000000E+00 0.  1.
         11    1    3    3    0    0  0.32579173158E+01  0.32834845700E+01 -0.25056640470E+01  0.52605749434E+01  0.51100000000E-03 0.  1.
        -11    1    3    3    0    0  0.26733148905E+01  0.15602921083E+02  0.59525667354E+01  0.16912445412E+02  0.51100000000E-03 0. -1.
         12    1    3    3    0    0  0.16766088026E+02  0.14125942133E+02  0.13245601600E+02  0.25614252099E+02  0.00000000000E+00 0. -1.
</event>
<event>
 7    1  0.5416116E-009  0.4778727E+02  0.7816164E-02  0.1312668E+00
        -11   -1    0    0    0    0  0.00000000000E+00  0.00000000000E+00  0.45593999997E+02  0.45594000000E+02  0.51100000000E-03 0. -1.
         11   -1    0    0    0    0 -0.00000000000E+00 -0.00000000000E+00 -0.45593999997E+02  0.45594000000E+02  0.51100000000E-03 0.  1.
    9900012    2    1    2    0    0  0.28388157120E+02  0.19613463576E+02  0.26325800343E+02  0.47787272105E+02  0.20000004837E+02 0.  0.
        -12    1    1    2    0    0 -0.28388157120E+02 -0.19613463576E+02 -0.26325800343E+02  0.43400727895E+02  0.00000000000E+00 0.  1.
         11    1    3    3    0    0  0.19038126680E+02  0.13608528913E+02  0.17395417096E+02  0.29158924241E+02  0.51100000000E-03 0. -1.
        -11    1    3    3    0    0  0.59115860146E+01  0.96023791642E+01  0.52476107275E+01  0.12437441595E+02  0.51100000000E-03 0.  1.
        -12    1    3    3    0    0  0.34384444250E+01 -0.35974445017E+01  0.36827725194E+01  0.61909062694E+01  0.00000000000E+00 0.  1.
</event>
<event>
 7    1  0.3910751E-009  0.4778727E+02  0.7816164E-02  0.1312668E+00
        -11   -1    0    0    0    0  0.00000000000E+00  0.00000000000E+00  0.45593999997E+02  0.45594000000E+02  0.51100000000E-03 0.  1.
         11   -1    0    0    0    0 -0.00000000000E+00 -0.00000000000E+00 -0.45593999997E+02  0.45594000000E+02  0.51100000000E-03 0. -1.
    9900012    2    1    2    0    0 -0.32202988530E+02 -0.17708500363E+02 -0.23086782304E+02  0.47787274516E+02  0.20000015828E+02 0.  0.
        -12    1    1    2    0    0  0.32202988530E+02  0.17708500363E+02  0.23086782304E+02  0.43400725484E+02  0.00000000000E+00 0.  1.
         11    1    3    3    0    0 -0.70174946178E+01 -0.10091565832E+02 -0.10276945406E+02  0.16021876881E+02  0.51100000000E-03 0. -1.
        -11    1    3    3    0    0 -0.17186072708E+02 -0.10515511274E+02 -0.64923535247E+01  0.21168082743E+02  0.51100000000E-03 0.  1.
        -12    1    3    3    0    0 -0.79994212047E+01  0.28985767428E+01 -0.63174833728E+01  0.10597314892E+02  0.00000000000E+00 0.  1.
</event>
<event>
 7    1  0.3910751E-009  0.4778727E+02  0.7816164E-02  0.1312668E+00
        -11   -1    0    0    0    0  0.00000000000E+00  0.00000000000E+00  0.45593999997E+02  0.45594000000E+02  0.51100000000E-03 0. -1.
         11   -1    0    0    0    0 -0.00000000000E+00 -0.00000000000E+00 -0.45593999997E+02  0.45594000000E+02  0.51100000000E-03 0.  1.
    9900012    2    1    2    0    0  0.33203285892E+02  0.24464795527E+02  0.13514387434E+02  0.47787273256E+02  0.20000010083E+02 0.  0.
        -12    1    1    2    0    0 -0.33203285892E+02 -0.24464795527E+02 -0.13514387434E+02  0.43400726744E+02  0.00000000000E+00 0.  1.
         11    1    3    3    0    0  0.13433707411E+02  0.61893569723E+01  0.45220117007E+00  0.14797875546E+02  0.51100000000E-03 0. -1.
        -11    1    3    3    0    0  0.82656208395E+01  0.16766142766E+00  0.66164233002E+01  0.10588940257E+02  0.51100000000E-03 0.  1.
         12    1    3    3    0    0  0.11503957642E+02  0.18107777127E+02  0.64457629635E+01  0.22400457453E+02  0.00000000000E+00 0. -1.
</event>
<event>
 7    1  0.3910751E-009  0.4778727E+02  0.7816164E-02  0.1312668E+00
        -11   -1    0    0    0    0  0.00000000000E+00  0.00000000000E+00  0.45593999997E+02  0.45594000000E+02  0.51100000000E-03 0. -1.
         11   -1    0    0    0    0 -0.00000000000E+00 -0.00000000000E+00 -0.45593999997E+02  0.45594000000E+02  0.51100000000E-03 0.  1.
    9900012    2    1    2    0    0 -0.92526645720E+01  0.42010726617E+02  0.57541529583E+01  0.47787271563E+02  0.20000002366E+02 0.  0.
        -12    1    1    2    0    0  0.92526645720E+01 -0.42010726617E+02 -0.57541529583E+01  0.43400728437E+02  0.00000000000E+00 0.  1.
         11    1    3    3    0    0 -0.10028179471E+01  0.18439315387E+02  0.78868485771E+01  0.20080248418E+02  0.51100000000E-03 0. -1.
        -11    1    3    3    0    0 -0.19345059492E+00  0.15162315233E+00  0.24988661532E+01  0.25109251334E+01  0.51100000000E-03 0.  1.
        -12    1    3    3    0    0 -0.80563960300E+01  0.23419788078E+02 -0.46315617720E+01  0.25196098012E+02  0.00000000000E+00 0.  1.
</event>
<event>
 7    1  0.3910751E-009  0.4778728E+02  0.7816164E-02  0.1312668E+00
        -11   -1    0    0    0    0  0.00000000000E+00  0.00000000000E+00  0.45593999997E+02  0.45594000000E+02  0.51100000000E-03 0.  1.
         11   -1    0    0    0    0 -0.00000000000E+00 -0.00000000000E+00 -0.45593999997E+02  0.45594000000E+02  0.51100000000E-03 0. -1.
    9900012    2    1    2    0    0 -0.20624071305E+02  0.29860881754E+02 -0.23803325495E+02  0.47787275571E+02  0.20000020640E+02 0.  0.
        -12    1    1    2    0    0  0.20624071305E+02 -0.29860881754E+02  0.23803325495E+02  0.43400724429E+02  0.00000000000E+00 0.  1.
         11    1    3    3    0    0 -0.11493238056E+02  0.17377118596E+02 -0.21370774055E+02  0.29845749374E+02  0.51100000000E-03 0. -1.
        -11    1    3    3    0    0 -0.61044252029E+01  0.26824270841E+01 -0.36669271663E+01  0.76095845631E+01  0.51100000000E-03 0.  1.
        -12    1    3    3    0    0 -0.30264080460E+01  0.98013360739E+01  0.12343757267E+01  0.10331941634E+02  0.00000000000E+00 0.  1.
</event>
<event>
 7    1  0.3910751E-009  0.4778727E+02  0.7816164E-02  0.1312668E+00
        -11   -1    0    0    0    0  0.00000000000E+00  0.00000000000E+00  0.45593999997E+02  0.45594000000E+02  0.51100000000E-03 0.  1.
         11   -1    0    0    0    0 -0.00000000000E+00 -0.00000000000E+00 -0.45593999997E+02  0.45594000000E+02  0.51100000000E-03 0. -1.
    9900012    2    1    2    0    0 -0.13371830398E+02 -0.40205499156E+02 -0.93986938948E+01  0.47787268929E+02  0.19999990354E+02 0.  0.
        -12    1    1    2    0    0  0.13371830398E+02  0.40205499156E+02  0.93986938948E+01  0.43400731071E+02  0.00000000000E+00 0.  1.
         11    1    3    3    0    0 -0.30847603248E+01 -0.52100934325E+01 -0.59706038440E+01  0.85034657852E+01  0.51100000000E-03 0. -1.
        -11    1    3    3    0    0  0.29699225246E+01 -0.64715349895E+01  0.19281773159E+01  0.73769284221E+01  0.51100000000E-03 0.  1.
         12    1    3    3    0    0 -0.13256992598E+02 -0.28523870734E+02 -0.53562673666E+01  0.31906874722E+02  0.00000000000E+00 0. -1.
</event>
<event>
 7    1  0.3910751E-009  0.4778727E+02  0.7816164E-02  0.1312668E+00
        -11   -1    0    0    0    0  0.00000000000E+00  0.00000000000E+00  0.45593999997E+02  0.45594000000E+02  0.51100000000E-03 0.  1.
         11   -1    0    0    0    0 -0.00000000000E+00 -0.00000000000E+00 -0.45593999997E+02  0.45594000000E+02  0.51100000000E-03 0. -1.
    9900012    2    1    2    0    0 -0.97808869918E+01  0.36998523469E+02 -0.20471118026E+02  0.47787272328E+02  0.20000005852E+02 0.  0.
        -12    1    1    2    0    0  0.97808869918E+01 -0.36998523469E+02  0.20471118026E+02  0.43400727672E+02  0.00000000000E+00 0.  1.
         11    1    3    3    0    0 -0.18192619988E+01  0.20609581567E+01 -0.32413085056E+01  0.42500992733E+01  0.51100000000E-03 0. -1.
        -11    1    3    3    0    0  0.35400894966E+01  0.44880669137E+01  0.15971020464E+01  0.59351253966E+01  0.51100000000E-03 0.  1.
         12    1    3    3    0    0 -0.11501714490E+02  0.30449498398E+02 -0.18826911567E+02  0.37602047658E+02  0.00000000000E+00 0. -1.
</event>
<event>
 7    1  0.3910751E-009  0.4778728E+02  0.7816164E-02  0.1312668E+00
        -11   -1    0    0    0    0  0.00000000000E+00  0.00000000000E+00  0.45593999997E+02  0.45594000000E+02  0.51100000000E-03 0.  1.
         11   -1    0    0    0    0 -0.00000000000E+00 -0.00000000000E+00 -0.45593999997E+02  0.45594000000E+02  0.51100000000E-03 0. -1.
    9900012    2    1    2    0    0  0.19259884770E+02 -0.27014215656E+02 -0.27980551478E+02  0.47787282611E+02  0.20000052738E+02 0.  0.
        -12    1    1    2    0    0 -0.19259884770E+02  0.27014215656E+02  0.27980551478E+02  0.43400717389E+02  0.00000000000E+00 0.  1.
         11    1    3    3    0    0  0.80223894515E+01 -0.12827671861E+02 -0.11239485841E+02  0.18847650785E+02  0.51100000000E-03 0. -1.
        -11    1    3    3    0    0  0.81551747438E+01 -0.13425880290E+02 -0.45679368244E+01  0.16359314892E+02  0.51100000000E-03 0.  1.
        -12    1    3    3    0    0  0.30823205745E+01 -0.76066350579E+00 -0.12173128812E+02  0.12580316934E+02  0.00000000000E+00 0.  1.
</event>
<event>
 7    1  0.3910751E-009  0.4778727E+02  0.7816164E-02  0.1312668E+00
        -11   -1    0    0    0    0  0.00000000000E+00  0.00000000000E+00  0.45593999997E+02  0.45594000000E+02  0.51100000000E-03 0.  1.
         11   -1    0    0    0    0 -0.00000000000E+00 -0.00000000000E+00 -0.45593999997E+02  0.45594000000E+02  0.51100000000E-03 0. -1.
    9900012    2    1    2    0    0  0.36120650044E+02 -0.19812546420E+02 -0.13652278815E+02  0.47787273369E+02  0.20000010597E+02 0.  0.
        -12    1    1    2    0    0 -0.36120650044E+02  0.19812546420E+02  0.13652278815E+02  0.43400726631E+02  0.00000000000E+00 0.  1.
         11    1    3    3    0    0  0.35581738752E+01 -0.63812993146E+00 -0.30213672471E+01  0.47113131332E+01  0.51100000000E-03 0. -1.
        -11    1    3    3    0    0  0.42755185041E+01 -0.31420013221E+01  0.47368540958E+01  0.71126660102E+01  0.51100000000E-03 0.  1.
         12    1    3    3    0    0  0.28286957665E+02 -0.16032415167E+02 -0.15367765664E+02  0.35963294225E+02  0.00000000000E+00 0. -1.
</event>
<event>
 7    1  0.3910751E-009  0.4778727E+02  0.7816164E-02  0.1312668E+00
        -11   -1    0    0    0    0  0.00000000000E+00  0.00000000000E+00  0.45593999997E+02  0.45594000000E+02  0.51100000000E-03 0.  1.
         11   -1    0    0    0    0 -0.00000000000E+00 -0.00000000000E+00 -0.45593999997E+02  0.45594000000E+02  0.51100000000E-03 0. -1.
    9900012    2    1    2    0    0  0.31530387536E+01  0.27439358290E+01 -0.43198983210E+02  0.47787274342E+02  0.20000015035E+02 0.  0.
        -12    1    1    2    0    0 -0.31530387536E+01 -0.27439358290E+01  0.43198983210E+02  0.43400725658E+02  0.00000000000E+00 0.  1.
         11    1    3    3    0    0 -0.12915254251E+01  0.88629098458E+01 -0.24321588216E+02  0.25918311335E+02  0.51100000000E-03 0. -1.
        -11    1    3    3    0    0 -0.23541292006E+00  0.11349102987E+01 -0.74908993646E+01  0.75800405131E+01  0.51100000000E-03 0.  1.
        -12    1    3    3    0    0  0.46799770987E+01 -0.72538843155E+01 -0.11386495630E+02  0.14288922494E+02  0.00000000000E+00 0.  1.
</event>
<event>
 7    1  0.3910751E-009  0.4778727E+02  0.7816164E-02  0.1312668E+00
        -11   -1    0    0    0    0  0.00000000000E+00  0.00000000000E+00  0.45593999997E+02  0.45594000000E+02  0.51100000000E-03 0.  1.
         11   -1    0    0    0    0 -0.00000000000E+00 -0.00000000000E+00 -0.45593999997E+02  0.45594000000E+02  0.51100000000E-03 0. -1.
    9900012    2    1    2    0    0 -0.37727447222E+02  0.51097661574E+01 -0.20836352980E+02  0.47787267408E+02  0.19999983418E+02 0.  0.
        -12    1    1    2    0    0  0.37727447222E+02 -0.51097661574E+01  0.20836352980E+02  0.43400732592E+02  0.00000000000E+00 0.  1.
         11    1    3    3    0    0 -0.15361717707E+02 -0.14679197337E+01  0.54068085347E+00  0.15441162369E+02  0.51100000000E-03 0. -1.
        -11    1    3    3    0    0 -0.36480502163E+01  0.37937117516E+01 -0.35542544231E+01  0.63508459279E+01  0.51100000000E-03 0.  1.
         12    1    3    3    0    0 -0.18717679298E+02  0.27839741395E+01 -0.17822779410E+02  0.25995259111E+02  0.00000000000E+00 0. -1.
</event>
<event>
 7    1  0.3910751E-009  0.4778728E+02  0.7816164E-02  0.1312668E+00
        -11   -1    0    0    0    0  0.00000000000E+00  0.00000000000E+00  0.45593999997E+02  0.45594000000E+02  0.51100000000E-03 0. -1.
         11   -1    0    0    0    0 -0.00000000000E+00 -0.00000000000E+00 -0.45593999997E+02  0.45594000000E+02  0.51100000000E-03 0.  1.
    9900012    2    1    2    0    0  0.32211238299E+02  0.18285204584E+02  0.22621002103E+02  0.47787282084E+02  0.20000050334E+02 0.  0.
        -12    1    1    2    0    0 -0.32211238299E+02 -0.18285204584E+02 -0.22621002103E+02  0.43400717916E+02  0.00000000000E+00 0.  1.
         11    1    3    3    0    0  0.93214402922E+01  0.57817749216E+00  0.13791964810E+02  0.16656585242E+02  0.51100000000E-03 0. -1.
        -11    1    3    3    0    0  0.79337359261E+01  0.32107959724E+01  0.51236132239E+01  0.99752087322E+01  0.51100000000E-03 0.  1.
        -12    1    3    3    0    0  0.14956062081E+02  0.14496231119E+02  0.37054240692E+01  0.21155488110E+02  0.00000000000E+00 0.  1.
</event>
<event>
 7    1  0.3910751E-009  0.4778727E+02  0.7816164E-02  0.1312668E+00
        -11   -1    0    0    0    0  0.00000000000E+00  0.00000000000E+00  0.45593999997E+02  0.45594000000E+02  0.51100000000E-03 0.  1.
         11   -1    0    0    0    0 -0.00000000000E+00 -0.00000000000E+00 -0.45593999997E+02  0.45594000000E+02  0.51100000000E-03 0. -1.
    9900012    2    1    2    0    0  0.28857897918E+01  0.14319160116E+02 -0.40868781752E+02  0.47787269003E+02  0.19999990692E+02 0.  0.
        -12    1    1    2    0    0 -0.28857897918E+01 -0.14319160116E+02  0.40868781752E+02  0.43400730997E+02  0.00000000000E+00 0.  1.
         11    1    3    3    0    0  0.16286107599E+01  0.14245133485E+02 -0.12269000064E+02  0.18870732997E+02  0.51100000000E-03 0. -1.
        -11    1    3    3    0    0 -0.14878164849E+01  0.72076843820E-01 -0.11861753775E+02  0.11954915133E+02  0.51100000000E-03 0.  1.
         12    1    3    3    0    0  0.27449955169E+01  0.19497867590E-02 -0.16738027913E+02  0.16961620872E+02  0.00000000000E+00 0. -1.
</event>
<event>
 7    1  0.3910751E-009  0.4778727E+02  0.7816164E-02  0.1312668E+00
        -11   -1    0    0    0    0  0.00000000000E+00  0.00000000000E+00  0.45593999997E+02  0.45594000000E+02  0.51100000000E-03 0.  1.
         11   -1    0    0    0    0 -0.00000000000E+00 -0.00000000000E+00 -0.45593999997E+02  0.45594000000E+02  0.51100000000E-03 0. -1.
    9900012    2    1    2    0    0 -0.28529724221E+02 -0.32452866009E+02  0.40607651489E+01  0.47787268555E+02  0.19999988652E+02 0.  0.
        -12    1    1    2    0    0  0.28529724221E+02  0.32452866009E+02 -0.40607651489E+01  0.43400731445E+02  0.00000000000E+00 0.  1.
         11    1    3    3    0    0  0.55829147874E-01 -0.88158474989E+00 -0.50930857414E+00  0.10196587909E+01  0.51100000000E-03 0.  1.
        -11    1    3    3    0    0 -0.31171316216E+02 -0.30119566974E+02  0.30959272553E+01  0.43456001141E+02  0.51100000000E-03 0. -1.
         12    1    3    3    0    0  0.25857628470E+01 -0.14517142844E+01  0.14741464677E+01  0.33116086231E+01  0.00000000000E+00 0. -1.
</event>
<event>
 7    1  0.3910751E-009  0.4778727E+02  0.7816164E-02  0.1312668E+00
        -11   -1    0    0    0    0  0.00000000000E+00  0.00000000000E+00  0.45593999997E+02  0.45594000000E+02  0.51100000000E-03 0. -1.
         11   -1    0    0    0    0 -0.00000000000E+00 -0.00000000000E+00 -0.45593999997E+02  0.45594000000E+02  0.51100000000E-03 0.  1.
    9900012    2    1    2    0    0 -0.19752846552E+02 -0.28565508857E+02  0.26028063598E+02  0.47787270307E+02  0.19999996639E+02 0.  0.
        -12    1    1    2    0    0  0.19752846552E+02  0.28565508857E+02 -0.26028063598E+02  0.43400729693E+02  0.00000000000E+00 0.  1.
         11    1    3    3    0    0 -0.75354915746E+01 -0.15789621771E+02  0.17050977990E+02  0.24430137937E+02  0.51100000000E-03 0. -1.
        -11    1    3    3    0    0 -0.13703252544E+02 -0.90467270888E+01  0.99856198193E+01  0.19218090559E+02  0.51100000000E-03 0.  1.
         12    1    3    3    0    0  0.14858975663E+01 -0.37291599975E+01 -0.10085342106E+01  0.41390418116E+01  0.00000000000E+00 0. -1.
</event>
<event>
 7    1  0.3910751E-009  0.4778727E+02  0.7816164E-02  0.1312668E+00
        -11   -1    0    0    0    0  0.00000000000E+00  0.00000000000E+00  0.45593999997E+02  0.45594000000E+02  0.51100000000E-03 0.  1.
         11   -1    0    0    0    0 -0.00000000000E+00 -0.00000000000E+00 -0.45593999997E+02  0.45594000000E+02  0.51100000000E-03 0. -1.
    9900012    2    1    2    0    0 -0.87022510171E+01 -0.10184130575E+02 -0.41281686269E+02  0.47787270633E+02  0.19999998125E+02 0.  0.
        -12    1    1    2    0    0  0.87022510171E+01  0.10184130575E+02  0.41281686269E+02  0.43400729367E+02  0.00000000000E+00 0.  1.
         11    1    3    3    0    0 -0.13263973817E+02 -0.94213484755E+01 -0.26925937547E+02  0.31459512418E+02  0.51100000000E-03 0. -1.
        -11    1    3    3    0    0  0.95574082970E+00 -0.29709677292E+01 -0.88600618549E+01  0.93936566956E+01  0.51100000000E-03 0.  1.
        -12    1    3    3    0    0  0.36059819703E+01  0.22081856293E+01 -0.54956868676E+01  0.69341015200E+01  0.00000000000E+00 0.  1.
</event>
<event>
 7    1  0.3910751E-009  0.4778727E+02  0.7816164E-02  0.1312668E+00
        -11   -1    0    0    0    0  0.00000000000E+00  0.00000000000E+00  0.45593999997E+02  0.45594000000E+02  0.51100000000E-03 0.  1.
         11   -1    0    0    0    0 -0.00000000000E+00 -0.00000000000E+00 -0.45593999997E+02  0.45594000000E+02  0.51100000000E-03 0. -1.
    9900012    2    1    2    0    0 -0.26517969787E+02 -0.32847376298E+02 -0.10073244628E+02  0.47787272948E+02  0.20000008680E+02 0.  0.
        -12    1    1    2    0    0  0.26517969787E+02  0.32847376298E+02  0.10073244628E+02  0.43400727052E+02  0.00000000000E+00 0.  1.
         11    1    3    3    0    0 -0.13018928299E+02 -0.17548380281E+02 -0.27343080411E+01  0.22020776219E+02  0.51100000000E-03 0. -1.
        -11    1    3    3    0    0  0.71796383785E+00 -0.40634854049E+01  0.28146823722E+01  0.49949797623E+01  0.51100000000E-03 0.  1.
         12    1    3    3    0    0 -0.14217005325E+02 -0.11235510612E+02 -0.10153618960E+02  0.20771516967E+02  0.00000000000E+00 0. -1.
</event>
<event>
 7    1  0.3910751E-009  0.4778727E+02  0.7816164E-02  0.1312668E+00
        -11   -1    0    0    0    0  0.00000000000E+00  0.00000000000E+00  0.45593999997E+02  0.45594000000E+02  0.51100000000E-03 0.  1.
         11   -1    0    0    0    0 -0.00000000000E+00 -0.00000000000E+00 -0.45593999997E+02  0.45594000000E+02  0.51100000000E-03 0. -1.
    9900012    2    1    2    0    0  0.17499693380E+02 -0.26957391003E+02 -0.29166470657E+02  0.47787271796E+02  0.20000003426E+02 0.  0.
        -12    1    1    2    0    0 -0.17499693380E+02  0.26957391003E+02  0.29166470657E+02  0.43400728204E+02  0.00000000000E+00 0.  1.
         11    1    3    3    0    0 -0.66747385172E+00 -0.17573326793E+00 -0.18744168598E+01  0.19974589732E+01  0.51100000000E-03 0.  1.
        -11    1    3    3    0    0  0.98808749984E+01 -0.26522346424E+02 -0.22905087295E+02  0.36410294902E+02  0.51100000000E-03 0. -1.
         12    1    3    3    0    0  0.82862922336E+01 -0.25931131077E+00 -0.43869665015E+01  0.93795179205E+01  0.00000000000E+00 0. -1.
</event>
<event>
 7    1  0.3910751E-009  0.4778727E+02  0.7816164E-02  0.1312668E+00
        -11   -1    0    0    0    0  0.00000000000E+00  0.00000000000E+00  0.45593999997E+02  0.45594000000E+02  0.51100000000E-03 0.  1.
         11   -1    0    0    0    0 -0.00000000000E+00 -0.00000000000E+00 -0.45593999997E+02  0.45594000000E+02  0.51100000000E-03 0. -1.
    9900012    2    1    2    0    0  0.14507078908E+02 -0.19204614172E+02 -0.36115794826E+02  0.47787272128E+02  0.20000004940E+02 0.  0.
        -12    1    1    2    0    0 -0.14507078908E+02  0.19204614172E+02  0.36115794826E+02  0.43400727872E+02  0.00000000000E+00 0.  1.
         11    1    3    3    0    0  0.94431696800E+01 -0.66984662665E+01 -0.11798380497E+02  0.16530114535E+02  0.51100000000E-03 0. -1.
        -11    1    3    3    0    0  0.34543300247E+01 -0.89425893526E+01 -0.37057671733E+01  0.10277889416E+02  0.51100000000E-03 0.  1.
        -12    1    3    3    0    0  0.16095792038E+01 -0.35635585526E+01 -0.20611647156E+02  0.20979268177E+02  0.00000000000E+00 0.  1.
</event>
<event>
 7    1  0.3910751E-009  0.4778727E+02  0.7816164E-02  0.1312668E+00
        -11   -1    0    0    0    0  0.00000000000E+00  0.00000000000E+00  0.45593999997E+02  0.45594000000E+02  0.51100000000E-03 0.  1.
         11   -1    0    0    0    0 -0.00000000000E+00 -0.00000000000E+00 -0.45593999997E+02  0.45594000000E+02  0.51100000000E-03 0. -1.
    9900012    2    1    2    0    0  0.41525943284E+02  0.39322051378E+01 -0.11989870600E+02  0.47787271897E+02  0.20000003887E+02 0.  0.
        -12    1    1    2    0    0 -0.41525943284E+02 -0.39322051378E+01  0.11989870600E+02  0.43400728103E+02  0.00000000000E+00 0.  1.
         11    1    3    3    0    0  0.24409031667E+02  0.64394977846E+00 -0.46658372909E+01  0.24859314877E+02  0.51100000000E-03 0. -1.
        -11    1    3    3    0    0  0.81889122238E+01  0.46404780182E+01  0.23430228229E+01  0.96995915304E+01  0.51100000000E-03 0.  1.
        -12    1    3    3    0    0  0.89279993929E+01 -0.13522226588E+01 -0.96670561316E+01  0.13228365490E+02  0.00000000000E+00 0.  1.
</event>
<event>
 7    1  0.3910751E-009  0.4778727E+02  0.7816164E-02  0.1312668E+00
        -11   -1    0    0    0    0  0.00000000000E+00  0.00000000000E+00  0.45593999997E+02  0.45594000000E+02  0.51100000000E-03 0.  1.
         11   -1    0    0    0    0 -0.00000000000E+00 -0.00000000000E+00 -0.45593999997E+02  0.45594000000E+02  0.51100000000E-03 0. -1.
    9900012    2    1    2    0    0  0.24348418992E+01  0.37397380089E+02 -0.21889053459E+02  0.47787272426E+02  0.20000006299E+02 0.  0.
        -12    1    1    2    0    0 -0.24348418992E+01 -0.37397380089E+02  0.21889053459E+02  0.43400727574E+02  0.00000000000E+00 0.  1.
         11    1    3    3    0    0  0.49587640838E+00  0.14340562265E+02 -0.14990286765E+02  0.20751055806E+02  0.51100000000E-03 0. -1.
        -11    1    3    3    0    0 -0.42899686168E+01  0.16103560264E+02 -0.57561506312E+01  0.17631272055E+02  0.51100000000E-03 0.  1.
        -12    1    3    3    0    0  0.62289341076E+01  0.69532575604E+01 -0.11426160623E+01  0.94049445657E+01  0.00000000000E+00 0.  1.
</event>
<event>
 7    1  0.3910751E-009  0.4778727E+02  0.7816164E-02  0.1312668E+00
        -11   -1    0    0    0    0  0.00000000000E+00  0.00000000000E+00  0.45593999997E+02  0.45594000000E+02  0.51100000000E-03 0.  1.
         11   -1    0    0    0    0 -0.00000000000E+00 -0.00000000000E+00 -0.45593999997E+02  0.45594000000E+02  0.51100000000E-03 0. -1.
    9900012    2    1    2    0    0 -0.12802731825E+02  0.38090487496E+01 -0.41294119397E+02  0.47787273148E+02  0.20000009589E+02 0.  0.
        -12    1    1    2    0    0  0.12802731825E+02 -0.38090487496E+01  0.41294119397E+02  0.43400726852E+02  0.00000000000E+00 0.  1.
         11    1    3    3    0    0 -0.41310603228E+01  0.10250228485E+00 -0.29912842908E+01  0.51013672754E+01  0.51100000000E-03 0. -1.
        -11    1    3    3    0    0 -0.24535304870E+01 -0.44483448554E+01 -0.26792350579E+02  0.27269720086E+02  0.51100000000E-03 0.  1.
        -12    1    3    3    0    0 -0.62181410155E+01  0.81548913201E+01 -0.11510484527E+02  0.15416185786E+02  0.00000000000E+00 0.  1.
</event>
<event>
 7    1  0.3910751E-009  0.4778727E+02  0.7816164E-02  0.1312668E+00
        -11   -1    0    0    0    0  0.00000000000E+00  0.00000000000E+00  0.45593999997E+02  0.45594000000E+02  0.51100000000E-03 0.  1.
         11   -1    0    0    0    0 -0.00000000000E+00 -0.00000000000E+00 -0.45593999997E+02  0.45594000000E+02  0.51100000000E-03 0. -1.
    9900012    2    1    2    0    0 -0.30965494865E+02 -0.23734456349E+02 -0.19011493810E+02  0.47787272042E+02  0.20000004547E+02 0.  0.
        -12    1    1    2    0    0  0.30965494865E+02  0.23734456349E+02  0.19011493810E+02  0.43400727958E+02  0.00000000000E+00 0.  1.
         11    1    3    3    0    0  0.98798924426E+00 -0.30268941285E+00  0.13055310599E+01  0.16649790500E+01  0.51100000000E-03 0. -1.
        -11    1    3    3    0    0 -0.38575823195E+00 -0.31299527664E+01  0.51606508353E+00  0.31955808807E+01  0.51100000000E-03 0.  1.
         12    1    3    3    0    0 -0.31567725877E+02 -0.20301814170E+02 -0.20833089954E+02  0.42926712111E+02  0.00000000000E+00 0. -1.
</event>
<event>
 7    1  0.3910751E-009  0.4778727E+02  0.7816164E-02  0.1312668E+00
        -11   -1    0    0    0    0  0.00000000000E+00  0.00000000000E+00  0.45593999997E+02  0.45594000000E+02  0.51100000000E-03 0.  1.
         11   -1    0    0    0    0 -0.00000000000E+00 -0.00000000000E+00 -0.45593999997E+02  0.45594000000E+02  0.51100000000E-03 0. -1.
    9900012    2    1    2    0    0 -0.19741300295E+02 -0.38512208764E+02  0.32732450694E+01  0.47787270807E+02  0.19999998917E+02 0.  0.
        -12    1    1    2    0    0  0.19741300295E+02  0.38512208764E+02 -0.32732450694E+01  0.43400729193E+02  0.00000000000E+00 0.  1.
         11    1    3    3    0    0 -0.16622705826E+02 -0.26054413458E+02  0.41050289075E+01  0.31176883619E+02  0.51100000000E-03 0. -1.
        -11    1    3    3    0    0 -0.29952332305E+01 -0.48280973464E+00  0.27665069565E+01  0.41058602444E+01  0.51100000000E-03 0.  1.
        -12    1    3    3    0    0 -0.12336123770E+00 -0.11974985571E+02 -0.35982907945E+01  0.12504526943E+02  0.00000000000E+00 0.  1.
</event>
<event>
 7    1  0.3910751E-009  0.4778727E+02  0.7816164E-02  0.1312668E+00
        -11   -1    0    0    0    0  0.00000000000E+00  0.00000000000E+00  0.45593999997E+02  0.45594000000E+02  0.51100000000E-03 0.  1.
         11   -1    0    0    0    0 -0.00000000000E+00 -0.00000000000E+00 -0.45593999997E+02  0.45594000000E+02  0.51100000000E-03 0. -1.
    9900012    2    1    2    0    0  0.25493232737E+00  0.41930065828E+02  0.11199459385E+02  0.47787270728E+02  0.19999998557E+02 0.  0.
        -12    1    1    2    0    0 -0.25493232737E+00 -0.41930065828E+02 -0.11199459385E+02  0.43400729272E+02  0.00000000000E+00 0.  1.
         11    1    3    3    0    0  0.21728287372E+01  0.67873328362E+01 -0.18026448633E+01  0.73510951915E+01  0.51100000000E-03 0. -1.
        -11    1    3    3    0    0 -0.32991491319E+01  0.43065708828E+00  0.24417620278E+01  0.41269907419E+01  0.51100000000E-03 0.  1.
        -12    1    3    3    0    0  0.13812527221E+01  0.34712075904E+02  0.10560342221E+02  0.36309184794E+02  0.00000000000E+00 0.  1.
</event>
<event>
 7    1  0.3910751E-009  0.4778729E+02  0.7816164E-02  0.1312668E+00
        -11   -1    0    0    0    0  0.00000000000E+00  0.00000000000E+00  0.45593999997E+02  0.45594000000E+02  0.51100000000E-03 0.  1.
         11   -1    0    0    0    0 -0.00000000000E+00 -0.00000000000E+00 -0.45593999997E+02  0.45594000000E+02  0.51100000000E-03 0. -1.
    9900012    2    1    2    0    0  0.16347683743E+01 -0.40923833007E+02 -0.14359275071E+02  0.47787293137E+02  0.20000100728E+02 0.  0.
        -12    1    1    2    0    0 -0.16347683743E+01  0.40923833007E+02  0.14359275071E+02  0.43400706863E+02  0.00000000000E+00 0.  1.
         11    1    3    3    0    0  0.33529616390E+01 -0.22975947164E+02 -0.27209486522E+01  0.23378196288E+02  0.51100000000E-03 0. -1.
        -11    1    3    3    0    0  0.25946034616E+01 -0.11407849924E+02 -0.18065373204E+01  0.11837845427E+02  0.51100000000E-03 0.  1.
         12    1    3    3    0    0 -0.43127967263E+01 -0.65400359193E+01 -0.98317890988E+01  0.12571251422E+02  0.00000000000E+00 0. -1.
</event>
<event>
 7    1  0.3910751E-009  0.4778727E+02  0.7816164E-02  0.1312668E+00
        -11   -1    0    0    0    0  0.00000000000E+00  0.00000000000E+00  0.45593999997E+02  0.45594000000E+02  0.51100000000E-03 0.  1.
         11   -1    0    0    0    0 -0.00000000000E+00 -0.00000000000E+00 -0.45593999997E+02  0.45594000000E+02  0.51100000000E-03 0. -1.
    9900012    2    1    2    0    0 -0.33976341969E+00 -0.35438076899E+02 -0.25052962984E+02  0.47787266277E+02  0.19999978262E+02 0.  0.
        -12    1    1    2    0    0  0.33976341969E+00  0.35438076899E+02  0.25052962984E+02  0.43400733723E+02  0.00000000000E+00 0.  1.
         11    1    3    3    0    0  0.26737007990E+01 -0.22401393155E+02 -0.14015329469E+02  0.26559377848E+02  0.51100000000E-03 0. -1.
        -11    1    3    3    0    0  0.12701816344E+01 -0.12646800621E+02 -0.11174908043E+02  0.16924346290E+02  0.51100000000E-03 0.  1.
         12    1    3    3    0    0 -0.42836458531E+01 -0.38988312231E+00  0.13727452800E+00  0.43035421387E+01  0.00000000000E+00 0. -1.
</event>
<event>
 7    1  0.3910751E-009  0.4778727E+02  0.7816164E-02  0.1312668E+00
        -11   -1    0    0    0    0  0.00000000000E+00  0.00000000000E+00  0.45593999997E+02  0.45594000000E+02  0.51100000000E-03 0.  1.
         11   -1    0    0    0    0 -0.00000000000E+00 -0.00000000000E+00 -0.45593999997E+02  0.45594000000E+02  0.51100000000E-03 0. -1.
    9900012    2    1    2    0    0 -0.25100453065E+02  0.28182666996E+01 -0.35293734752E+02  0.47787273232E+02  0.20000009973E+02 0.  0.
        -12    1    1    2    0    0  0.25100453065E+02 -0.28182666996E+01  0.35293734752E+02  0.43400726768E+02  0.00000000000E+00 0.  1.
         11    1    3    3    0    0  0.50687584242E+00  0.30178053574E+01 -0.13569612130E+02  0.13910371883E+02  0.51100000000E-03 0. -1.
        -11    1    3    3    0    0 -0.10309533830E+02 -0.11550636484E+01 -0.63270879876E+01  0.12151242837E+02  0.51100000000E-03 0.  1.
        -12    1    3    3    0    0 -0.15297795078E+02  0.95552499058E+00 -0.15397034634E+02  0.21725658512E+02  0.00000000000E+00 0.  1.
</event>
<event>
 7    1  0.3910751E-009  0.4778727E+02  0.7816164E-02  0.1312668E+00
        -11   -1    0    0    0    0  0.00000000000E+00  0.00000000000E+00  0.45593999997E+02  0.45594000000E+02  0.51100000000E-03 0. -1.
         11   -1    0    0    0    0 -0.00000000000E+00 -0.00000000000E+00 -0.45593999997E+02  0.45594000000E+02  0.51100000000E-03 0.  1.
    9900012    2    1    2    0    0  0.71825113183E+01 -0.27360562791E+02  0.32915564279E+02  0.47787271471E+02  0.20000001943E+02 0.  0.
        -12    1    1    2    0    0 -0.71825113183E+01  0.27360562791E+02 -0.32915564279E+02  0.43400728529E+02  0.00000000000E+00 0.  1.
         11    1    3    3    0    0 -0.21836167133E+01 -0.37393874130E+01  0.13860844136E+02  0.14521508206E+02  0.51100000000E-03 0. -1.
        -11    1    3    3    0    0 -0.12009018746E+01 -0.21108555799E+01 -0.31793624483E+00  0.24492775075E+01  0.51100000000E-03 0.  1.
        -12    1    3    3    0    0  0.10567029906E+02 -0.21510319798E+02  0.19372656388E+02  0.30816485757E+02  0.00000000000E+00 0.  1.
</event>
<event>
 7    1  0.3910751E-009  0.4778727E+02  0.7816164E-02  0.1312668E+00
        -11   -1    0    0    0    0  0.00000000000E+00  0.00000000000E+00  0.45593999997E+02  0.45594000000E+02  0.51100000000E-03 0. -1.
         11   -1    0    0    0    0 -0.00000000000E+00 -0.00000000000E+00 -0.45593999997E+02  0.45594000000E+02  0.51100000000E-03 0.  1.
    9900012    2    1    2    0    0 -0.24966645503E+01  0.33324098139E+02  0.27692856573E+02  0.47787272404E+02  0.20000006200E+02 0.  0.
        -12    1    1    2    0    0  0.24966645503E+01 -0.33324098139E+02 -0.27692856573E+02  0.43400727596E+02  0.00000000000E+00 0.  1.
         11    1    3    3    0    0  0.15821442095E+01  0.32912252841E+02  0.26692330314E+02  0.42405189131E+02  0.51100000000E-03 0. -1.
        -11    1    3    3    0    0 -0.80236177922E+00  0.14331642495E+01 -0.37500736860E+00  0.16847477492E+01  0.51100000000E-03 0.  1.
         12    1    3    3    0    0 -0.32764469805E+01 -0.10213189516E+01  0.13755336277E+01  0.36973355241E+01  0.00000000000E+00 0. -1.
</event>
<event>
 7    1  0.3910751E-009  0.4778727E+02  0.7816164E-02  0.1312668E+00
        -11   -1    0    0    0    0  0.00000000000E+00  0.00000000000E+00  0.45593999997E+02  0.45594000000E+02  0.51100000000E-03 0. -1.
         11   -1    0    0    0    0 -0.00000000000E+00 -0.00000000000E+00 -0.45593999997E+02  0.45594000000E+02  0.51100000000E-03 0.  1.
    9900012    2    1    2    0    0 -0.13381669406E+02  0.40667109469E+02  0.71232330934E+01  0.47787270532E+02  0.19999997664E+02 0.  0.
        -12    1    1    2    0    0  0.13381669406E+02 -0.40667109469E+02 -0.71232330934E+01  0.43400729468E+02  0.00000000000E+00 0.  1.
         11    1    3    3    0    0 -0.10674550186E+01  0.66073793304E+01  0.60757167325E+01  0.90394278529E+01  0.51100000000E-03 0. -1.
        -11    1    3    3    0    0 -0.17495539585E+01  0.24167479469E+02  0.13924426720E+01  0.24270700438E+02  0.51100000000E-03 0.  1.
         12    1    3    3    0    0 -0.10564660429E+02  0.98922506699E+01 -0.34492631115E+00  0.14477142241E+02  0.00000000000E+00 0. -1.
</event>
<event>
 7    1  0.3910751E-009  0.4778727E+02  0.7816164E-02  0.1312668E+00
        -11   -1    0    0    0    0  0.00000000000E+00  0.00000000000E+00  0.45593999997E+02  0.45594000000E+02  0.51100000000E-03 0.  1.
         11   -1    0    0    0    0 -0.00000000000E+00 -0.00000000000E+00 -0.45593999997E+02  0.45594000000E+02  0.51100000000E-03 0. -1.
    9900012    2    1    2    0    0 -0.29525768741E+02 -0.30477334683E+02 -0.91095821482E+01  0.47787269176E+02  0.19999991482E+02 0.  0.
        -12    1    1    2    0    0  0.29525768741E+02  0.30477334683E+02  0.91095821482E+01  0.43400730824E+02  0.00000000000E+00 0.  1.
         11    1    3    3    0    0 -0.10666028143E+02 -0.49559350919E+01 -0.16589507803E+01  0.11877607795E+02  0.51100000000E-03 0. -1.
        -11    1    3    3    0    0 -0.20906577751E+02 -0.19013673097E+02 -0.67281218744E+01  0.29049481615E+02  0.51100000000E-03 0.  1.
        -12    1    3    3    0    0  0.20468371530E+01 -0.65077264937E+01 -0.72250949353E+00  0.68601797656E+01  0.00000000000E+00 0.  1.
</event>
<event>
 7    1  0.3910751E-009  0.4778727E+02  0.7816164E-02  0.1312668E+00
        -11   -1    0    0    0    0  0.00000000000E+00  0.00000000000E+00  0.45593999997E+02  0.45594000000E+02  0.51100000000E-03 0. -1.
         11   -1    0    0    0    0 -0.00000000000E+00 -0.00000000000E+00 -0.45593999997E+02  0.45594000000E+02  0.51100000000E-03 0.  1.
    9900012    2    1    2    0    0 -0.24014502452E+01  0.24487876977E+02  0.35751926478E+02  0.47787270409E+02  0.19999997105E+02 0.  0.
        -12    1    1    2    0    0  0.24014502452E+01 -0.24487876977E+02 -0.35751926478E+02  0.43400729591E+02  0.00000000000E+00 0.  1.
         11    1    3    3    0    0 -0.24938425085E+01  0.12838446015E+02  0.25784275881E+02  0.28911482658E+02  0.51100000000E-03 0. -1.
        -11    1    3    3    0    0  0.18602838084E+01  0.43784347356E+01  0.10341904048E+02  0.11383598999E+02  0.51100000000E-03 0.  1.
        -12    1    3    3    0    0 -0.17678915451E+01  0.72709962270E+01 -0.37425345116E+00  0.74921887519E+01  0.00000000000E+00 0.  1.
</event>
<event>
 7    1  0.3910751E-009  0.4778728E+02  0.7816164E-02  0.1312668E+00
        -11   -1    0    0    0    0  0.00000000000E+00  0.00000000000E+00  0.45593999997E+02  0.45594000000E+02  0.51100000000E-03 0. -1.
         11   -1    0    0    0    0 -0.00000000000E+00 -0.00000000000E+00 -0.45593999997E+02  0.45594000000E+02  0.51100000000E-03 0.  1.
    9900012    2    1    2    0    0 -0.41149004113E+02  0.51958604796E+01  0.12782218838E+02  0.47787278531E+02  0.20000034135E+02 0.  0.
        -12    1    1    2    0    0  0.41149004113E+02 -0.51958604796E+01 -0.12782218838E+02  0.43400721469E+02  0.00000000000E+00 0.  1.
         11    1    3    3    0    0 -0.22847238935E+02  0.56457433993E+01  0.58378985585E+01  0.24247717528E+02  0.51100000000E-03 0. -1.
        -11    1    3    3    0    0 -0.15772440999E+02 -0.46318805499E+01  0.19533935693E+01  0.16554152325E+02  0.51100000000E-03 0.  1.
        -12    1    3    3    0    0 -0.25293241791E+01  0.41819976301E+01  0.49909267104E+01  0.69854086788E+01  0.00000000000E+00 0.  1.
</event>
<event>
 7    1  0.3910751E-009  0.4778727E+02  0.7816164E-02  0.1312668E+00
        -11   -1    0    0    0    0  0.00000000000E+00  0.00000000000E+00  0.45593999997E+02  0.45594000000E+02  0.51100000000E-03 0.  1.
         11   -1    0    0    0    0 -0.00000000000E+00 -0.00000000000E+00 -0.45593999997E+02  0.45594000000E+02  0.51100000000E-03 0. -1.
    9900012    2    1    2    0    0 -0.19510159502E+01 -0.34488368574E+02 -0.26274881248E+02  0.47787269422E+02  0.19999992601E+02 0.  0.
        -12    1    1    2    0    0  0.19510159502E+01  0.34488368574E+02  0.26274881248E+02  0.43400730578E+02  0.00000000000E+00 0.  1.
         11    1    3    3    0    0  0.28184221588E+01 -0.92542714933E+01 -0.55145223437E+01  0.11135304274E+02  0.51100000000E-03 0. -1.
        -11    1    3    3    0    0 -0.97349823683E+01 -0.18903972160E+02 -0.10802089691E+02  0.23849846689E+02  0.51100000000E-03 0.  1.
        -12    1    3    3    0    0  0.49655442593E+01 -0.63301249210E+01 -0.99582692132E+01  0.12802118459E+02  0.00000000000E+00 0.  1.
</event>
<event>
 7    1  0.3910751E-009  0.4778727E+02  0.7816164E-02  0.1312668E+00
        -11   -1    0    0    0    0  0.00000000000E+00  0.00000000000E+00  0.45593999997E+02  0.45594000000E+02  0.51100000000E-03 0.  1.
         11   -1    0    0    0    0 -0.00000000000E+00 -0.00000000000E+00 -0.45593999997E+02  0.45594000000E+02  0.51100000000E-03 0. -1.
    9900012    2    1    2    0    0  0.90384263962E+01  0.41549525497E+02 -0.86929421299E+01  0.47787268859E+02  0.19999990035E+02 0.  0.
        -12    1    1    2    0    0 -0.90384263962E+01 -0.41549525497E+02  0.86929421299E+01  0.43400731141E+02  0.00000000000E+00 0.  1.
         11    1    3    3    0    0  0.14716879655E+01  0.42118993782E+01 -0.37768168725E+01  0.58455374252E+01  0.51100000000E-03 0. -1.
        -11    1    3    3    0    0 -0.29112789977E+01  0.24528597594E+02 -0.57888042240E+01  0.25370019707E+02  0.51100000000E-03 0.  1.
         12    1    3    3    0    0  0.10478017428E+02  0.12809028525E+02  0.87267896652E+00  0.16571711727E+02  0.00000000000E+00 0. -1.
</event>
<event>
 7    1  0.3910751E-009  0.4778726E+02  0.7816164E-02  0.1312668E+00
        -11   -1    0    0    0    0  0.00000000000E+00  0.00000000000E+00  0.45593999997E+02  0.45594000000E+02  0.51100000000E-03 0.  1.
         11   -1    0    0    0    0 -0.00000000000E+00 -0.00000000000E+00 -0.45593999997E+02  0.45594000000E+02  0.51100000000E-03 0. -1.
    9900012    2    1    2    0    0 -0.11812692689E+02 -0.67276441407E+01 -0.41216782299E+02  0.47787262134E+02  0.19999959374E+02 0.  0.
        -12    1    1    2    0    0  0.11812692689E+02  0.67276441407E+01  0.41216782299E+02  0.43400737866E+02  0.00000000000E+00 0.  1.
         11    1    3    3    0    0 -0.21611226679E+01 -0.14762207128E+01 -0.17219286176E+02  0.17417046117E+02  0.51100000000E-03 0. -1.
        -11    1    3    3    0    0 -0.10652432474E+02 -0.93518939490E+01 -0.20297492739E+02  0.24757230253E+02  0.51100000000E-03 0.  1.
        -12    1    3    3    0    0  0.10008624531E+01  0.41004705210E+01 -0.37000033839E+01  0.56129857638E+01  0.00000000000E+00 0.  1.
</event>
<event>
 7    1  0.3910751E-009  0.4778728E+02  0.7816164E-02  0.1312668E+00
        -11   -1    0    0    0    0  0.00000000000E+00  0.00000000000E+00  0.45593999997E+02  0.45594000000E+02  0.51100000000E-03 0. -1.
         11   -1    0    0    0    0 -0.00000000000E+00 -0.00000000000E+00 -0.45593999997E+02  0.45594000000E+02  0.51100000000E-03 0.  1.
    9900012    2    1    2    0    0 -0.18859261906E+02  0.38909157753E+02  0.37454771895E+01  0.47787275167E+02  0.20000018796E+02 0.  0.
        -12    1    1    2    0    0  0.18859261906E+02 -0.38909157753E+02 -0.37454771895E+01  0.43400724833E+02  0.00000000000E+00 0.  1.
         11    1    3    3    0    0 -0.22638005145E+01  0.13219520281E+02  0.64990244529E+01  0.14903617961E+02  0.51100000000E-03 0. -1.
        -11    1    3    3    0    0  0.29869124925E+00  0.70791427368E+01  0.18676996189E+01  0.73274675351E+01  0.51100000000E-03 0.  1.
         12    1    3    3    0    0 -0.16894152641E+02  0.18610494735E+02 -0.46212468823E+01  0.25556189670E+02  0.00000000000E+00 0. -1.
</event>
<event>
 7    1  0.3910751E-009  0.4778727E+02  0.7816164E-02  0.1312668E+00
        -11   -1    0    0    0    0  0.00000000000E+00  0.00000000000E+00  0.45593999997E+02  0.45594000000E+02  0.51100000000E-03 0.  1.
         11   -1    0    0    0    0 -0.00000000000E+00 -0.00000000000E+00 -0.45593999997E+02  0.45594000000E+02  0.51100000000E-03 0. -1.
    9900012    2    1    2    0    0  0.12100159619E+02  0.37084368938E+02 -0.19025220840E+02  0.47787270624E+02  0.19999998083E+02 0.  0.
        -12    1    1    2    0    0 -0.12100159619E+02 -0.37084368938E+02  0.19025220840E+02  0.43400729376E+02  0.00000000000E+00 0.  1.
         11    1    3    3    0    0  0.14347424386E+02  0.15329026672E+02 -0.87745318286E+01  0.22755659829E+02  0.51100000000E-03 0. -1.
        -11    1    3    3    0    0 -0.83762039256E+00  0.13330302448E+02 -0.26915693292E+01  0.13625091449E+02  0.51100000000E-03 0.  1.
         12    1    3    3    0    0 -0.14096443737E+01  0.84250398187E+01 -0.75591196824E+01  0.11406519346E+02  0.00000000000E+00 0. -1.
</event>
<event>
 7    1  0.3910751E-009  0.4778727E+02  0.7816164E-02  0.1312668E+00
        -11   -1    0    0    0    0  0.00000000000E+00  0.00000000000E+00  0.45593999997E+02  0.45594000000E+02  0.51100000000E-03 0. -1.
         11   -1    0    0    0    0 -0.00000000000E+00 -0.00000000000E+00 -0.45593999997E+02  0.45594000000E+02  0.51100000000E-03 0.  1.
    9900012    2    1    2    0    0  0.35025376336E+02 -0.25499517327E+02 -0.25730457852E+01  0.47787274937E+02  0.20000017746E+02 0.  0.
        -12    1    1    2    0    0 -0.35025376336E+02  0.25499517327E+02  0.25730457852E+01  0.43400725063E+02  0.00000000000E+00 0.  1.
         11    1    3    3    0    0  0.20651810976E+02 -0.10502725759E+02  0.43012637808E+01  0.23564919167E+02  0.51100000000E-03 0. -1.
        -11    1    3    3    0    0  0.13142183673E+02 -0.84657543335E+01 -0.15556204708E+01  0.15710058671E+02  0.51100000000E-03 0.  1.
        -12    1    3    3    0    0  0.12313816876E+01 -0.65310372344E+01 -0.53186890951E+01  0.85122970994E+01  0.00000000000E+00 0.  1.
</event>
<event>
 7    1  0.3910751E-009  0.4778727E+02  0.7816164E-02  0.1312668E+00
        -11   -1    0    0    0    0  0.00000000000E+00  0.00000000000E+00  0.45593999997E+02  0.45594000000E+02  0.51100000000E-03 0.  1.
         11   -1    0    0    0    0 -0.00000000000E+00 -0.00000000000E+00 -0.45593999997E+02  0.45594000000E+02  0.51100000000E-03 0. -1.
    9900012    2    1    2    0    0 -0.19114832609E+02  0.16845467756E+02 -0.35135119832E+02  0.47787271260E+02  0.20000000982E+02 0.  0.
        -12    1    1    2    0    0  0.19114832609E+02 -0.16845467756E+02  0.35135119832E+02  0.43400728740E+02  0.00000000000E+00 0.  1.
         11    1    3    3    0    0  0.15758336460E+01  0.32587786599E+01 -0.44366546832E+01  0.57259754691E+01  0.51100000000E-03 0. -1.
        -11    1    3    3    0    0 -0.80843001810E+01 -0.17470081188E+01 -0.52899487772E+01  0.98179175547E+01  0.51100000000E-03 0.  1.
         12    1    3    3    0    0 -0.12606366074E+02  0.15333697215E+02 -0.25408516371E+02  0.32243378236E+02  0.00000000000E+00 0. -1.
</event>
<event>
 7    1  0.3910751E-009  0.4778727E+02  0.7816164E-02  0.1312668E+00
        -11   -1    0    0    0    0  0.00000000000E+00  0.00000000000E+00  0.45593999997E+02  0.45594000000E+02  0.51100000000E-03 0. -1.
         11   -1    0    0    0    0 -0.00000000000E+00 -0.00000000000E+00 -0.45593999997E+02  0.45594000000E+02  0.51100000000E-03 0.  1.
    9900012    2    1    2    0    0  0.16628135255E+02 -0.18412052683E+02  0.35610738512E+02  0.47787271165E+02  0.20000000549E+02 0.  0.
        -12    1    1    2    0    0 -0.16628135255E+02  0.18412052683E+02 -0.35610738512E+02  0.43400728835E+02  0.00000000000E+00 0.  1.
         11    1    3    3    0    0  0.71658364495E+01 -0.28807534495E+01  0.19453012457E+02  0.20930065609E+02  0.51100000000E-03 0. -1.
        -11    1    3    3    0    0  0.46008979338E+01 -0.64617715348E+01  0.14368291083E+02  0.16412511754E+02  0.51100000000E-03 0.  1.
        -12    1    3    3    0    0  0.48614008721E+01 -0.90695276982E+01  0.17894349717E+01  0.10444693802E+02  0.00000000000E+00 0.  1.
</event>
<event>
 7    1  0.3910751E-009  0.4778727E+02  0.7816164E-02  0.1312668E+00
        -11   -1    0    0    0    0  0.00000000000E+00  0.00000000000E+00  0.45593999997E+02  0.45594000000E+02  0.51100000000E-03 0.  1.
         11   -1    0    0    0    0 -0.00000000000E+00 -0.00000000000E+00 -0.45593999997E+02  0.45594000000E+02  0.51100000000E-03 0. -1.
    9900012    2    1    2    0    0  0.26961606182E+01  0.34565740891E+02 -0.26106767716E+02  0.47787273670E+02  0.20000011970E+02 0.  0.
        -12    1    1    2    0    0 -0.26961606182E+01 -0.34565740891E+02  0.26106767716E+02  0.43400726330E+02  0.00000000000E+00 0.  1.
         11    1    3    3    0    0  0.23872891065E+01  0.11054803050E+02 -0.96575187955E+01  0.14871969920E+02  0.51100000000E-03 0. -1.
        -11    1    3    3    0    0  0.62837994830E+01  0.44709690242E+01 -0.83842598153E+01  0.11391730021E+02  0.51100000000E-03 0.  1.
         12    1    3    3    0    0 -0.59749279714E+01  0.19039968817E+02 -0.80649891050E+01  0.21523573729E+02  0.00000000000E+00 0. -1.
</event>
<event>
 7    1  0.3910751E-009  0.4778727E+02  0.7816164E-02  0.1312668E+00
        -11   -1    0    0    0    0  0.00000000000E+00  0.00000000000E+00  0.45593999997E+02  0.45594000000E+02  0.51100000000E-03 0. -1.
         11   -1    0    0    0    0 -0.00000000000E+00 -0.00000000000E+00 -0.45593999997E+02  0.45594000000E+02  0.51100000000E-03 0.  1.
    9900012    2    1    2    0    0 -0.38593572876E+02 -0.11355554447E+02  0.16285296199E+02  0.47787270093E+02  0.19999995663E+02 0.  0.
        -12    1    1    2    0    0  0.38593572876E+02  0.11355554447E+02 -0.16285296199E+02  0.43400729907E+02  0.00000000000E+00 0.  1.
         11    1    3    3    0    0 -0.99765844183E+00 -0.44304697977E+01  0.20554592088E+01  0.49849070016E+01  0.51100000000E-03 0. -1.
        -11    1    3    3    0    0 -0.73749287949E+01 -0.45849156514E+01  0.81042905610E+01  0.11878154403E+02  0.51100000000E-03 0.  1.
        -12    1    3    3    0    0 -0.30220985639E+02 -0.23401689981E+01  0.61255464296E+01  0.30924208689E+02  0.00000000000E+00 0.  1.
</event>
<event>
 7    1  0.3910751E-009  0.4778727E+02  0.7816164E-02  0.1312668E+00
        -11   -1    0    0    0    0  0.00000000000E+00  0.00000000000E+00  0.45593999997E+02  0.45594000000E+02  0.51100000000E-03 0.  1.
         11   -1    0    0    0    0 -0.00000000000E+00 -0.00000000000E+00 -0.45593999997E+02  0.45594000000E+02  0.51100000000E-03 0. -1.
    9900012    2    1    2    0    0  0.69989859228E+01  0.38157772204E+02 -0.19458222137E+02  0.47787265073E+02  0.19999972772E+02 0.  0.
        -12    1    1    2    0    0 -0.69989859228E+01 -0.38157772204E+02  0.19458222137E+02  0.43400734927E+02  0.00000000000E+00 0.  1.
         11    1    3    3    0    0 -0.38369621558E+00  0.69931660360E+01 -0.21101933232E+01  0.73146777178E+01  0.51100000000E-03 0. -1.
        -11    1    3    3    0    0  0.26696170625E+00  0.17136817877E+02 -0.17835701211E+02  0.24735683404E+02  0.51100000000E-03 0.  1.
        -12    1    3    3    0    0  0.71157204322E+01  0.14027788291E+02  0.48767239724E+00  0.15736903951E+02  0.00000000000E+00 0.  1.
</event>
<event>
 7    1  0.3910751E-009  0.4778725E+02  0.7816164E-02  0.1312668E+00
        -11   -1    0    0    0    0  0.00000000000E+00  0.00000000000E+00  0.45593999997E+02  0.45594000000E+02  0.51100000000E-03 0. -1.
         11   -1    0    0    0    0 -0.00000000000E+00 -0.00000000000E+00 -0.45593999997E+02  0.45594000000E+02  0.51100000000E-03 0.  1.
    9900012    2    1    2    0    0 -0.30462817393E+02  0.30769055528E+02 -0.29844211922E+01  0.47787253561E+02  0.19999920284E+02 0.  0.
        -12    1    1    2    0    0  0.30462817393E+02 -0.30769055528E+02  0.29844211922E+01  0.43400746439E+02  0.00000000000E+00 0.  1.
         11    1    3    3    0    0 -0.11415484891E+02  0.58472226244E+01  0.41815027309E+01  0.13490302927E+02  0.51100000000E-03 0. -1.
        -11    1    3    3    0    0 -0.92872357534E+01  0.11746937742E+02  0.26202610168E+01  0.15202271617E+02  0.51100000000E-03 0.  1.
        -12    1    3    3    0    0 -0.97600967493E+01  0.13174895162E+02 -0.97861849399E+01  0.19094679017E+02  0.00000000000E+00 0.  1.
</event>
<event>
 7    1  0.3910751E-009  0.4778727E+02  0.7816164E-02  0.1312668E+00
        -11   -1    0    0    0    0  0.00000000000E+00  0.00000000000E+00  0.45593999997E+02  0.45594000000E+02  0.51100000000E-03 0.  1.
         11   -1    0    0    0    0 -0.00000000000E+00 -0.00000000000E+00 -0.45593999997E+02  0.45594000000E+02  0.51100000000E-03 0. -1.
    9900012    2    1    2    0    0  0.30573441426E+01 -0.27011329211E+02 -0.33832885192E+02  0.47787269829E+02  0.19999994457E+02 0.  0.
        -12    1    1    2    0    0 -0.30573441426E+01  0.27011329211E+02  0.33832885192E+02  0.43400730171E+02  0.00000000000E+00 0.  1.
         11    1    3    3    0    0 -0.46386653155E+01 -0.44813478937E+01 -0.49307275448E+01  0.81186063605E+01  0.51100000000E-03 0. -1.
        -11    1    3    3    0    0  0.10955183376E+01 -0.90513922184E+01 -0.27621137526E+01  0.95266538807E+01  0.51100000000E-03 0.  1.
         12    1    3    3    0    0  0.66004911205E+01 -0.13478589099E+02 -0.26140043895E+02  0.30142009587E+02  0.00000000000E+00 0. -1.
</event>
<event>
 7    1  0.3910751E-009  0.4778730E+02  0.7816164E-02  0.1312668E+00
        -11   -1    0    0    0    0  0.00000000000E+00  0.00000000000E+00  0.45593999997E+02  0.45594000000E+02  0.51100000000E-03 0. -1.
         11   -1    0    0    0    0 -0.00000000000E+00 -0.00000000000E+00 -0.45593999997E+02  0.45594000000E+02  0.51100000000E-03 0.  1.
    9900012    2    1    2    0    0 -0.42495866949E+02  0.87684049632E+01 -0.91505314965E+00  0.47787297752E+02  0.20000121770E+02 0.  0.
        -12    1    1    2    0    0  0.42495866949E+02 -0.87684049632E+01  0.91505314965E+00  0.43400702248E+02  0.00000000000E+00 0.  1.
         11    1    3    3    0    0 -0.62372297560E+01 -0.21726973773E+01  0.36463845042E+01  0.75445191454E+01  0.51100000000E-03 0. -1.
        -11    1    3    3    0    0  0.65975686100E+00  0.17836661660E+01  0.18436182944E+00  0.19106893135E+01  0.51100000000E-03 0.  1.
         12    1    3    3    0    0 -0.36918394054E+02  0.91574361744E+01 -0.47457994833E+01  0.38332089293E+02  0.00000000000E+00 0. -1.
</event>
<event>
 7    1  0.3910751E-009  0.4778729E+02  0.7816164E-02  0.1312668E+00
        -11   -1    0    0    0    0  0.00000000000E+00  0.00000000000E+00  0.45593999997E+02  0.45594000000E+02  0.51100000000E-03 0. -1.
         11   -1    0    0    0    0 -0.00000000000E+00 -0.00000000000E+00 -0.45593999997E+02  0.45594000000E+02  0.51100000000E-03 0.  1.
    9900012    2    1    2    0    0  0.91750410765E+01 -0.32537535530E+02 -0.27216704793E+02  0.47787290134E+02  0.20000087035E+02 0.  0.
        -12    1    1    2    0    0 -0.91750410765E+01  0.32537535530E+02  0.27216704793E+02  0.43400709866E+02  0.00000000000E+00 0.  1.
         11    1    3    3    0    0  0.51703138379E+01 -0.27420200043E+02 -0.26348332397E+02  0.38377521233E+02  0.51100000000E-03 0. -1.
        -11    1    3    3    0    0  0.16451505728E+00 -0.17576132848E+01 -0.33114515328E+01  0.37525965915E+01  0.51100000000E-03 0.  1.
        -12    1    3    3    0    0  0.38402121814E+01 -0.33597222019E+01  0.24430791368E+01  0.56571723096E+01  0.00000000000E+00 0.  1.
</event>
<event>
 7    1  0.3910751E-009  0.4778727E+02  0.7816164E-02  0.1312668E+00
        -11   -1    0    0    0    0  0.00000000000E+00  0.00000000000E+00  0.45593999997E+02  0.45594000000E+02  0.51100000000E-03 0. -1.
         11   -1    0    0    0    0 -0.00000000000E+00 -0.00000000000E+00 -0.45593999997E+02  0.45594000000E+02  0.51100000000E-03 0.  1.
    9900012    2    1    2    0    0  0.26536705677E+02  0.25002548411E+02  0.23543560760E+02  0.47787269263E+02  0.19999991878E+02 0.  0.
        -12    1    1    2    0    0 -0.26536705677E+02 -0.25002548411E+02 -0.23543560760E+02  0.43400730737E+02  0.00000000000E+00 0.  1.
         11    1    3    3    0    0  0.22114891081E+01 -0.31141113455E+01  0.37611248276E+01  0.53604508931E+01  0.51100000000E-03 0. -1.
        -11    1    3    3    0    0  0.48759059457E+01  0.68354547485E+01  0.22815461532E+01  0.87007674099E+01  0.51100000000E-03 0.  1.
         12    1    3    3    0    0  0.19449310623E+02  0.21281205008E+02  0.17500889779E+02  0.33726050960E+02  0.00000000000E+00 0. -1.
</event>
<event>
 7    1  0.3910751E-009  0.4778727E+02  0.7816164E-02  0.1312668E+00
        -11   -1    0    0    0    0  0.00000000000E+00  0.00000000000E+00  0.45593999997E+02  0.45594000000E+02  0.51100000000E-03 0.  1.
         11   -1    0    0    0    0 -0.00000000000E+00 -0.00000000000E+00 -0.45593999997E+02  0.45594000000E+02  0.51100000000E-03 0. -1.
    9900012    2    1    2    0    0  0.11253922982E+02 -0.11795108272E+02 -0.40222480877E+02  0.47787270404E+02  0.19999997078E+02 0.  0.
        -12    1    1    2    0    0 -0.11253922982E+02  0.11795108272E+02  0.40222480877E+02  0.43400729596E+02  0.00000000000E+00 0.  1.
         11    1    3    3    0    0  0.12479625632E+02 -0.61043342300E+01 -0.15584602972E+02  0.20877830403E+02  0.51100000000E-03 0. -1.
        -11    1    3    3    0    0 -0.13720423908E+01 -0.25635036174E+01 -0.10144595904E+01  0.30794771700E+01  0.51100000000E-03 0.  1.
        -12    1    3    3    0    0  0.14633974089E+00 -0.31272704244E+01 -0.23623418315E+02  0.23829962830E+02  0.00000000000E+00 0.  1.
</event>
<event>
 7    1  0.3910751E-009  0.4778727E+02  0.7816164E-02  0.1312668E+00
        -11   -1    0    0    0    0  0.00000000000E+00  0.00000000000E+00  0.45593999997E+02  0.45594000000E+02  0.51100000000E-03 0. -1.
         11   -1    0    0    0    0 -0.00000000000E+00 -0.00000000000E+00 -0.45593999997E+02  0.45594000000E+02  0.51100000000E-03 0.  1.
    9900012    2    1    2    0    0 -0.36701690468E+02 -0.22681825996E+02  0.47057407511E+01  0.47787270632E+02  0.19999998119E+02 0.  0.
        -12    1    1    2    0    0  0.36701690468E+02  0.22681825996E+02 -0.47057407511E+01  0.43400729368E+02  0.00000000000E+00 0.  1.
         11    1    3    3    0    0 -0.42472886784E+01 -0.68328951584E+01 -0.19653100817E+01  0.82819298078E+01  0.51100000000E-03 0. -1.
        -11    1    3    3    0    0 -0.29163505486E+01 -0.69406612101E+01 -0.13005873385E+01  0.76399873195E+01  0.51100000000E-03 0.  1.
         12    1    3    3    0    0 -0.29538051240E+02 -0.89082696272E+01  0.79716381713E+01  0.31865353505E+02  0.00000000000E+00 0. -1.
</event>
<event>
 7    1  0.3910751E-009  0.4778727E+02  0.7816164E-02  0.1312668E+00
        -11   -1    0    0    0    0  0.00000000000E+00  0.00000000000E+00  0.45593999997E+02  0.45594000000E+02  0.51100000000E-03 0.  1.
         11   -1    0    0    0    0 -0.00000000000E+00 -0.00000000000E+00 -0.45593999997E+02  0.45594000000E+02  0.51100000000E-03 0. -1.
    9900012    2    1    2    0    0 -0.24433281733E+02 -0.35787395557E+02 -0.24290407966E+01  0.47787272170E+02  0.20000005132E+02 0.  0.
        -12    1    1    2    0    0  0.24433281733E+02  0.35787395557E+02  0.24290407966E+01  0.43400727830E+02  0.00000000000E+00 0.  1.
         11    1    3    3    0    0  0.57883793690E+00  0.11146528388E+01  0.95285094168E+00  0.15765244960E+01  0.51100000000E-03 0. -1.
        -11    1    3    3    0    0 -0.75612411225E+00 -0.90537598268E+01 -0.16909866673E+01  0.92413054730E+01  0.51100000000E-03 0.  1.
         12    1    3    3    0    0 -0.24255995557E+02 -0.27848288569E+02 -0.16909050709E+01  0.36969442201E+02  0.00000000000E+00 0. -1.
</event>
<event>
 7    1  0.3910751E-009  0.4778727E+02  0.7816164E-02  0.1312668E+00
        -11   -1    0    0    0    0  0.00000000000E+00  0.00000000000E+00  0.45593999997E+02  0.45594000000E+02  0.51100000000E-03 0.  1.
         11   -1    0    0    0    0 -0.00000000000E+00 -0.00000000000E+00 -0.45593999997E+02  0.45594000000E+02  0.51100000000E-03 0. -1.
    9900012    2    1    2    0    0 -0.88189562290E+01  0.20921959717E+02 -0.36988116350E+02  0.47787272604E+02  0.20000007112E+02 0.  0.
        -12    1    1    2    0    0  0.88189562290E+01 -0.20921959717E+02  0.36988116350E+02  0.43400727396E+02  0.00000000000E+00 0.  1.
         11    1    3    3    0    0 -0.19230883986E+01  0.46508628133E+01 -0.36774202159E+01  0.62331543862E+01  0.51100000000E-03 0. -1.
        -11    1    3    3    0    0 -0.10447824572E+02  0.17429404782E+02 -0.23564303865E+02  0.31116195241E+02  0.51100000000E-03 0.  1.
         12    1    3    3    0    0  0.35519567418E+01 -0.11583078778E+01 -0.97463922682E+01  0.10437922977E+02  0.00000000000E+00 0. -1.
</event>
<event>
 7    1  0.3910751E-009  0.4778724E+02  0.7816164E-02  0.1312668E+00
        -11   -1    0    0    0    0  0.00000000000E+00  0.00000000000E+00  0.45593999997E+02  0.45594000000E+02  0.51100000000E-03 0.  1.
         11   -1    0    0    0    0 -0.00000000000E+00 -0.00000000000E+00 -0.45593999997E+02  0.45594000000E+02  0.51100000000E-03 0. -1.
    9900012    2    1    2    0    0 -0.82490312870E+01 -0.38733950593E+02 -0.17755575538E+02  0.47787240693E+02  0.19999861616E+02 0.  0.
        -12    1    1    2    0    0  0.82490312870E+01  0.38733950593E+02  0.17755575538E+02  0.43400759307E+02  0.00000000000E+00 0.  1.
         11    1    3    3    0    0  0.31099656909E+01 -0.24306487366E+01 -0.48780187496E+01  0.62749507617E+01  0.51100000000E-03 0.  1.
        -11    1    3    3    0    0  0.40686743304E+00 -0.71711131510E+01 -0.59786588706E+01  0.93453072226E+01  0.51100000000E-03 0. -1.
        -12    1    3    3    0    0 -0.11765864411E+02 -0.29132188705E+02 -0.68988979180E+01  0.32166982709E+02  0.00000000000E+00 0.  1.
</event>
<event>
 7    1  0.3910751E-009  0.4778727E+02  0.7816164E-02  0.1312668E+00
        -11   -1    0    0    0    0  0.00000000000E+00  0.00000000000E+00  0.45593999997E+02  0.45594000000E+02  0.51100000000E-03 0. -1.
         11   -1    0    0    0    0 -0.00000000000E+00 -0.00000000000E+00 -0.45593999997E+02  0.45594000000E+02  0.51100000000E-03 0.  1.
    9900012    2    1    2    0    0  0.42604027697E+02  0.46727498239E+01  0.68326683845E+01  0.47787272769E+02  0.20000007863E+02 0.  0.
        -12    1    1    2    0    0 -0.42604027697E+02 -0.46727498239E+01 -0.68326683845E+01  0.43400727231E+02  0.00000000000E+00 0.  1.
         11    1    3    3    0    0  0.24972885427E+02 -0.26749443058E+01  0.74802841422E+00  0.25126875658E+02  0.51100000000E-03 0. -1.
        -11    1    3    3    0    0  0.21030702790E+01 -0.22796161503E+01 -0.68484130167E+00  0.31762497164E+01  0.51100000000E-03 0.  1.
         12    1    3    3    0    0  0.15528071991E+02  0.96273102800E+01  0.67694812719E+01  0.19484147394E+02  0.00000000000E+00 0. -1.
</event>
<event>
 7    1  0.3910751E-009  0.4778727E+02  0.7816164E-02  0.1312668E+00
        -11   -1    0    0    0    0  0.00000000000E+00  0.00000000000E+00  0.45593999997E+02  0.45594000000E+02  0.51100000000E-03 0.  1.
         11   -1    0    0    0    0 -0.00000000000E+00 -0.00000000000E+00 -0.45593999997E+02  0.45594000000E+02  0.51100000000E-03 0. -1.
    9900012    2    1    2    0    0  0.73315108651E+01 -0.54280552879E+01 -0.42431219829E+02  0.47787271297E+02  0.20000001151E+02 0.  0.
        -12    1    1    2    0    0 -0.73315108651E+01  0.54280552879E+01  0.42431219829E+02  0.43400728703E+02  0.00000000000E+00 0.  1.
         11    1    3    3    0    0 -0.11163246224E+01  0.21209218463E+01 -0.14308418585E+02  0.14507768016E+02  0.51100000000E-03 0.  1.
        -11    1    3    3    0    0  0.38933462522E+01  0.30778269558E+01 -0.14951337635E+02  0.15753528530E+02  0.51100000000E-03 0. -1.
         12    1    3    3    0    0  0.45544892353E+01 -0.10626804090E+02 -0.13171463609E+02  0.17525974751E+02  0.00000000000E+00 0. -1.
</event>
<event>
 7    1  0.3910751E-009  0.4778727E+02  0.7816164E-02  0.1312668E+00
        -11   -1    0    0    0    0  0.00000000000E+00  0.00000000000E+00  0.45593999997E+02  0.45594000000E+02  0.51100000000E-03 0.  1.
         11   -1    0    0    0    0 -0.00000000000E+00 -0.00000000000E+00 -0.45593999997E+02  0.45594000000E+02  0.51100000000E-03 0. -1.
    9900012    2    1    2    0    0  0.72704425820E+01 -0.17085116197E+02 -0.39228338159E+02  0.47787273675E+02  0.20000011995E+02 0.  0.
        -12    1    1    2    0    0 -0.72704425820E+01  0.17085116197E+02  0.39228338159E+02  0.43400726325E+02  0.00000000000E+00 0.  1.
         11    1    3    3    0    0 -0.10190258869E+01  0.25383395717E+01 -0.68346621355E+01  0.73616702118E+01  0.51100000000E-03 0. -1.
        -11    1    3    3    0    0  0.60147778485E+01 -0.33022614456E+01 -0.14836367173E+02  0.16346261786E+02  0.51100000000E-03 0.  1.
        -12    1    3    3    0    0  0.22746906204E+01 -0.16321194324E+02 -0.17557308850E+02  0.24079341677E+02  0.00000000000E+00 0.  1.
</event>
<event>
 7    1  0.3910751E-009  0.4778727E+02  0.7816164E-02  0.1312668E+00
        -11   -1    0    0    0    0  0.00000000000E+00  0.00000000000E+00  0.45593999997E+02  0.45594000000E+02  0.51100000000E-03 0.  1.
         11   -1    0    0    0    0 -0.00000000000E+00 -0.00000000000E+00 -0.45593999997E+02  0.45594000000E+02  0.51100000000E-03 0. -1.
    9900012    2    1    2    0    0  0.47224737686E+01  0.67885081650E+01 -0.42605612032E+02  0.47787265234E+02  0.19999973509E+02 0.  0.
        -12    1    1    2    0    0 -0.47224737686E+01 -0.67885081650E+01  0.42605612032E+02  0.43400734766E+02  0.00000000000E+00 0.  1.
         11    1    3    3    0    0 -0.15428855363E+00  0.43492811303E+01 -0.13988466939E+02  0.14649821120E+02  0.51100000000E-03 0. -1.
        -11    1    3    3    0    0  0.45461919383E+01  0.89372656171E+01 -0.19625162022E+02  0.22038365695E+02  0.51100000000E-03 0.  1.
        -12    1    3    3    0    0  0.33057038393E+00 -0.64980385825E+01 -0.89919830712E+01  0.11099078419E+02  0.00000000000E+00 0.  1.
</event>
<event>
 7    1  0.3910751E-009  0.4778727E+02  0.7816164E-02  0.1312668E+00
        -11   -1    0    0    0    0  0.00000000000E+00  0.00000000000E+00  0.45593999997E+02  0.45594000000E+02  0.51100000000E-03 0.  1.
         11   -1    0    0    0    0 -0.00000000000E+00 -0.00000000000E+00 -0.45593999997E+02  0.45594000000E+02  0.51100000000E-03 0. -1.
    9900012    2    1    2    0    0  0.19549412196E+02  0.31908928427E+02  0.21983265063E+02  0.47787272202E+02  0.20000005279E+02 0.  0.
        -12    1    1    2    0    0 -0.19549412196E+02 -0.31908928427E+02 -0.21983265063E+02  0.43400727798E+02  0.00000000000E+00 0.  1.
         11    1    3    3    0    0  0.61843147844E+01  0.22662211701E+01  0.93787286016E-01  0.65871317021E+01  0.51100000000E-03 0. -1.
        -11    1    3    3    0    0  0.46058179770E+01  0.35572258376E+01  0.92285913035E+01  0.10910284717E+02  0.51100000000E-03 0.  1.
        -12    1    3    3    0    0  0.87592794347E+01  0.26085481419E+02  0.12660886473E+02  0.30289855783E+02  0.00000000000E+00 0.  1.
</event>
<event>
 7    1  0.3910751E-009  0.4778724E+02  0.7816164E-02  0.1312668E+00
        -11   -1    0    0    0    0  0.00000000000E+00  0.00000000000E+00  0.45593999997E+02  0.45594000000E+02  0.51100000000E-03 0.  1.
         11   -1    0    0    0    0 -0.00000000000E+00 -0.00000000000E+00 -0.45593999997E+02  0.45594000000E+02  0.51100000000E-03 0. -1.
    9900012    2    1    2    0    0 -0.17988097754E+02 -0.23890237853E+02 -0.31453311960E+02  0.47787240113E+02  0.19999858971E+02 0.  0.
        -12    1    1    2    0    0  0.17988097754E+02  0.23890237853E+02  0.31453311960E+02  0.43400759887E+02  0.00000000000E+00 0.  1.
         11    1    3    3    0    0  0.15885581910E+00 -0.98165632224E+01 -0.67847588110E+01  0.11934115009E+02  0.51100000000E-03 0. -1.
        -11    1    3    3    0    0  0.80291633104E+00 -0.48473964552E+01 -0.53250813879E+01  0.72455792783E+01  0.51100000000E-03 0.  1.
         12    1    3    3    0    0 -0.18949869905E+02 -0.92262781752E+01 -0.19343471762E+02  0.28607545825E+02  0.00000000000E+00 0. -1.
</event>
<event>
 7    1  0.3910751E-009  0.4778727E+02  0.7816164E-02  0.1312668E+00
        -11   -1    0    0    0    0  0.00000000000E+00  0.00000000000E+00  0.45593999997E+02  0.45594000000E+02  0.51100000000E-03 0.  1.
         11   -1    0    0    0    0 -0.00000000000E+00 -0.00000000000E+00 -0.45593999997E+02  0.45594000000E+02  0.51100000000E-03 0. -1.
    9900012    2    1    2    0    0 -0.10509766338E+02 -0.18823152048E+02 -0.37667719280E+02  0.47787270545E+02  0.19999997721E+02 0.  0.
        -12    1    1    2    0    0  0.10509766338E+02  0.18823152048E+02  0.37667719280E+02  0.43400729455E+02  0.00000000000E+00 0.  1.
         11    1    3    3    0    0  0.19910921730E+01  0.27687870431E+00 -0.76145821491E+01  0.78754664259E+01  0.51100000000E-03 0. -1.
        -11    1    3    3    0    0  0.18410855439E+01 -0.18449804838E+01 -0.26641645959E+00  0.26200242282E+01  0.51100000000E-03 0.  1.
         12    1    3    3    0    0 -0.14341944055E+02 -0.17255050268E+02 -0.29786720671E+02  0.37291779890E+02  0.00000000000E+00 0. -1.
</event>
<event>
 7    1  0.3910751E-009  0.4778728E+02  0.7816164E-02  0.1312668E+00
        -11   -1    0    0    0    0  0.00000000000E+00  0.00000000000E+00  0.45593999997E+02  0.45594000000E+02  0.51100000000E-03 0.  1.
         11   -1    0    0    0    0 -0.00000000000E+00 -0.00000000000E+00 -0.45593999997E+02  0.45594000000E+02  0.51100000000E-03 0. -1.
    9900012    2    1    2    0    0 -0.54305670270E+01  0.26902846020E+02 -0.33620955791E+02  0.47787275922E+02  0.20000022237E+02 0.  0.
        -12    1    1    2    0    0  0.54305670270E+01 -0.26902846020E+02  0.33620955791E+02  0.43400724078E+02  0.00000000000E+00 0.  1.
         11    1    3    3    0    0 -0.47281450929E+01  0.19001436105E+02 -0.21627210046E+02  0.29174409072E+02  0.51100000000E-03 0. -1.
        -11    1    3    3    0    0 -0.14129943883E+01  0.10879872059E+02 -0.10575141090E+02  0.15238168476E+02  0.51100000000E-03 0.  1.
        -12    1    3    3    0    0  0.71057245420E+00 -0.29784621429E+01 -0.14186046553E+01  0.33746983743E+01  0.00000000000E+00 0.  1.
</event>
<event>
 7    1  0.3910751E-009  0.4778727E+02  0.7816164E-02  0.1312668E+00
        -11   -1    0    0    0    0  0.00000000000E+00  0.00000000000E+00  0.45593999997E+02  0.45594000000E+02  0.51100000000E-03 0.  1.
         11   -1    0    0    0    0 -0.00000000000E+00 -0.00000000000E+00 -0.45593999997E+02  0.45594000000E+02  0.51100000000E-03 0. -1.
    9900012    2    1    2    0    0  0.40905997640E+02  0.14404544875E+02 -0.16828369920E+01  0.47787268482E+02  0.19999988317E+02 0.  0.
        -12    1    1    2    0    0 -0.40905997640E+02 -0.14404544875E+02  0.16828369920E+01  0.43400731518E+02  0.00000000000E+00 0.  1.
         11    1    3    3    0    0  0.27948073057E+02  0.28190974438E+01 -0.17732840853E+01  0.28145810251E+02  0.51100000000E-03 0. -1.
        -11    1    3    3    0    0  0.10203301959E+02  0.43508963989E+01  0.27992205076E+01  0.11439987152E+02  0.51100000000E-03 0.  1.
        -12    1    3    3    0    0  0.27546226244E+01  0.72345510325E+01 -0.27087734143E+01  0.82014710787E+01  0.00000000000E+00 0.  1.
</event>
<event>
 7    1  0.3910751E-009  0.4778727E+02  0.7816164E-02  0.1312668E+00
        -11   -1    0    0    0    0  0.00000000000E+00  0.00000000000E+00  0.45593999997E+02  0.45594000000E+02  0.51100000000E-03 0.  1.
         11   -1    0    0    0    0 -0.00000000000E+00 -0.00000000000E+00 -0.45593999997E+02  0.45594000000E+02  0.51100000000E-03 0. -1.
    9900012    2    1    2    0    0  0.27236468890E+02  0.83427927987E+01 -0.32744405417E+02  0.47787268262E+02  0.19999987314E+02 0.  0.
        -12    1    1    2    0    0 -0.27236468890E+02 -0.83427927987E+01  0.32744405417E+02  0.43400731738E+02  0.00000000000E+00 0.  1.
         11    1    3    3    0    0  0.21032862558E+02  0.11405181241E+02 -0.22742155943E+02  0.33010076094E+02  0.51100000000E-03 0. -1.
        -11    1    3    3    0    0  0.47257852983E+01  0.15730575156E+01 -0.81894482307E+01  0.95851248932E+01  0.51100000000E-03 0.  1.
        -12    1    3    3    0    0  0.14778210338E+01 -0.46354459580E+01 -0.18128012427E+01  0.51920672745E+01  0.00000000000E+00 0.  1.
</event>
<event>
 7    1  0.3910751E-009  0.4778727E+02  0.7816164E-02  0.1312668E+00
        -11   -1    0    0    0    0  0.00000000000E+00  0.00000000000E+00  0.45593999997E+02  0.45594000000E+02  0.51100000000E-03 0.  1.
         11   -1    0    0    0    0 -0.00000000000E+00 -0.00000000000E+00 -0.45593999997E+02  0.45594000000E+02  0.51100000000E-03 0. -1.
    9900012    2    1    2    0    0 -0.26300140142E+02 -0.58364563534E+01 -0.34027368548E+02  0.47787269539E+02  0.19999993137E+02 0.  0.
        -12    1    1    2    0    0  0.26300140142E+02  0.58364563534E+01  0.34027368548E+02  0.43400730461E+02  0.00000000000E+00 0.  1.
         11    1    3    3    0    0 -0.53876280955E+01 -0.14595870239E+01 -0.11442845608E+01  0.56979222699E+01  0.51100000000E-03 0. -1.
        -11    1    3    3    0    0 -0.17047133832E+01 -0.26957686743E+01  0.79073482760E+00  0.32861038165E+01  0.51100000000E-03 0.  1.
         12    1    3    3    0    0 -0.19207798663E+02 -0.16811006552E+01 -0.33673818814E+02  0.38803243453E+02  0.00000000000E+00 0. -1.
</event>
<event>
 7    1  0.3910751E-009  0.4778727E+02  0.7816164E-02  0.1312668E+00
        -11   -1    0    0    0    0  0.00000000000E+00  0.00000000000E+00  0.45593999997E+02  0.45594000000E+02  0.51100000000E-03 0.  1.
         11   -1    0    0    0    0 -0.00000000000E+00 -0.00000000000E+00 -0.45593999997E+02  0.45594000000E+02  0.51100000000E-03 0. -1.
    9900012    2    1    2    0    0  0.36221049989E+02  0.23243195873E+02 -0.56047054065E+01  0.47787270290E+02  0.19999996561E+02 0.  0.
        -12    1    1    2    0    0 -0.36221049989E+02 -0.23243195873E+02  0.56047054065E+01  0.43400729710E+02  0.00000000000E+00 0.  1.
         11    1    3    3    0    0  0.55330336704E+01  0.84117463788E+01 -0.16385198737E+01  0.10200817927E+02  0.51100000000E-03 0. -1.
        -11    1    3    3    0    0  0.55127823551E+00  0.47137621367E+01  0.21557658632E+01  0.52125605888E+01  0.51100000000E-03 0.  1.
         12    1    3    3    0    0  0.30136738083E+02  0.10117687357E+02 -0.61219513960E+01  0.32373891774E+02  0.00000000000E+00 0. -1.
</event>
<event>
 7    1  0.3910751E-009  0.4778727E+02  0.7816164E-02  0.1312668E+00
        -11   -1    0    0    0    0  0.00000000000E+00  0.00000000000E+00  0.45593999997E+02  0.45594000000E+02  0.51100000000E-03 0. -1.
         11   -1    0    0    0    0 -0.00000000000E+00 -0.00000000000E+00 -0.45593999997E+02  0.45594000000E+02  0.51100000000E-03 0.  1.
    9900012    2    1    2    0    0  0.42680252839E+02  0.16544536567E+00  0.78735111929E+01  0.47787268058E+02  0.19999986383E+02 0.  0.
        -12    1    1    2    0    0 -0.42680252839E+02 -0.16544536567E+00 -0.78735111929E+01  0.43400731942E+02  0.00000000000E+00 0.  1.
         11    1    3    3    0    0  0.10239340542E+02 -0.11013595337E+01  0.30614879822E+01  0.10743825970E+02  0.51100000000E-03 0. -1.
        -11    1    3    3    0    0  0.25069248074E+02  0.28552003915E+01 -0.38891861261E+01  0.25529299584E+02  0.51100000000E-03 0.  1.
        -12    1    3    3    0    0  0.73716642235E+01 -0.15883954921E+01  0.87012093368E+01  0.11514142503E+02  0.00000000000E+00 0.  1.
</event>
<event>
 7    1  0.3910751E-009  0.4778727E+02  0.7816164E-02  0.1312668E+00
        -11   -1    0    0    0    0  0.00000000000E+00  0.00000000000E+00  0.45593999997E+02  0.45594000000E+02  0.51100000000E-03 0. -1.
         11   -1    0    0    0    0 -0.00000000000E+00 -0.00000000000E+00 -0.45593999997E+02  0.45594000000E+02  0.51100000000E-03 0.  1.
    9900012    2    1    2    0    0 -0.34620037282E+02 -0.26107669307E+02 -0.18617990779E+01  0.47787266436E+02  0.19999978990E+02 0.  0.
        -12    1    1    2    0    0  0.34620037282E+02  0.26107669307E+02  0.18617990779E+01  0.43400733564E+02  0.00000000000E+00 0.  1.
         11    1    3    3    0    0 -0.44489925998E+01 -0.54806972911E+00  0.46069161341E+01  0.64278761741E+01  0.51100000000E-03 0. -1.
        -11    1    3    3    0    0 -0.14669470563E+01 -0.44586680078E+01  0.13539639366E+01  0.48851686432E+01  0.51100000000E-03 0.  1.
         12    1    3    3    0    0 -0.28704097626E+02 -0.21100931570E+02 -0.78226791487E+01  0.36474221619E+02  0.00000000000E+00 0. -1.
</event>
<event>
 7    1  0.3910751E-009  0.4778727E+02  0.7816164E-02  0.1312668E+00
        -11   -1    0    0    0    0  0.00000000000E+00  0.00000000000E+00  0.45593999997E+02  0.45594000000E+02  0.51100000000E-03 0.  1.
         11   -1    0    0    0    0 -0.00000000000E+00 -0.00000000000E+00 -0.45593999997E+02  0.45594000000E+02  0.51100000000E-03 0. -1.
    9900012    2    1    2    0    0 -0.16445205573E+02 -0.14991664578E+01 -0.40136406768E+02  0.47787269192E+02  0.19999991554E+02 0.  0.
        -12    1    1    2    0    0  0.16445205573E+02  0.14991664578E+01  0.40136406768E+02  0.43400730808E+02  0.00000000000E+00 0.  1.
         11    1    3    3    0    0 -0.22142058184E+01 -0.67783192835E+00 -0.99754112213E+00  0.25213591733E+01  0.51100000000E-03 0. -1.
        -11    1    3    3    0    0  0.16708624513E+01 -0.50740612418E+01 -0.47837989592E+01  0.71709561120E+01  0.51100000000E-03 0.  1.
        -12    1    3    3    0    0 -0.15901862206E+02  0.42527267124E+01 -0.34355066687E+02  0.38094953907E+02  0.00000000000E+00 0.  1.
</event>
<event>
 7    1  0.3910751E-009  0.4778727E+02  0.7816164E-02  0.1312668E+00
        -11   -1    0    0    0    0  0.00000000000E+00  0.00000000000E+00  0.45593999997E+02  0.45594000000E+02  0.51100000000E-03 0.  1.
         11   -1    0    0    0    0 -0.00000000000E+00 -0.00000000000E+00 -0.45593999997E+02  0.45594000000E+02  0.51100000000E-03 0. -1.
    9900012    2    1    2    0    0  0.16535650102E+02  0.77523933079E+01 -0.39371262405E+02  0.47787266946E+02  0.19999981313E+02 0.  0.
        -12    1    1    2    0    0 -0.16535650102E+02 -0.77523933079E+01  0.39371262405E+02  0.43400733054E+02  0.00000000000E+00 0.  1.
         11    1    3    3    0    0  0.84613534183E+01 -0.22651045251E+01 -0.14349706739E+02  0.16811879251E+02  0.51100000000E-03 0. -1.
        -11    1    3    3    0    0  0.26504032951E+01  0.44977591899E+01 -0.47995105998E+00  0.52425975087E+01  0.51100000000E-03 0.  1.
        -12    1    3    3    0    0  0.54238933886E+01  0.55197386432E+01 -0.24541604605E+02  0.25732790186E+02  0.00000000000E+00 0.  1.
</event>
<event>
 7    1  0.3910751E-009  0.4778727E+02  0.7816164E-02  0.1312668E+00
        -11   -1    0    0    0    0  0.00000000000E+00  0.00000000000E+00  0.45593999997E+02  0.45594000000E+02  0.51100000000E-03 0. -1.
         11   -1    0    0    0    0 -0.00000000000E+00 -0.00000000000E+00 -0.45593999997E+02  0.45594000000E+02  0.51100000000E-03 0.  1.
    9900012    2    1    2    0    0  0.17848626745E+02  0.11476328949E+02  0.37859531447E+02  0.47787265857E+02  0.19999976348E+02 0.  0.
        -12    1    1    2    0    0 -0.17848626745E+02 -0.11476328949E+02 -0.37859531447E+02  0.43400734143E+02  0.00000000000E+00 0.  1.
         11    1    3    3    0    0  0.44589733785E+00 -0.10398651194E+01 -0.11351405822E+01  0.16027127955E+01  0.51100000000E-03 0.  1.
        -11    1    3    3    0    0  0.72879480715E+01  0.22419772203E-01  0.58426698346E+01  0.93408501110E+01  0.51100000000E-03 0. -1.
        -12    1    3    3    0    0  0.10114781335E+02  0.12493774296E+02  0.33152002194E+02  0.36843702950E+02  0.00000000000E+00 0.  1.
</event>
<event>
 7    1  0.3910751E-009  0.4778727E+02  0.7816164E-02  0.1312668E+00
        -11   -1    0    0    0    0  0.00000000000E+00  0.00000000000E+00  0.45593999997E+02  0.45594000000E+02  0.51100000000E-03 0. -1.
         11   -1    0    0    0    0 -0.00000000000E+00 -0.00000000000E+00 -0.45593999997E+02  0.45594000000E+02  0.51100000000E-03 0.  1.
    9900012    2    1    2    0    0  0.26499270271E+02 -0.35855527702E+01  0.34184143443E+02  0.47787272167E+02  0.20000005116E+02 0.  0.
        -12    1    1    2    0    0 -0.26499270271E+02  0.35855527702E+01 -0.34184143443E+02  0.43400727833E+02  0.00000000000E+00 0.  1.
         11    1    3    3    0    0  0.34892781830E+01 -0.42913803309E+01  0.96675791649E+01  0.11137912486E+02  0.51100000000E-03 0. -1.
        -11    1    3    3    0    0 -0.10130432746E+01  0.25996074244E+01  0.95981660504E+00  0.29505022646E+01  0.51100000000E-03 0.  1.
        -12    1    3    3    0    0  0.24023035363E+02 -0.18937798636E+01  0.23556747673E+02  0.33698857416E+02  0.00000000000E+00 0.  1.
</event>
<event>
 7    1  0.3910751E-009  0.4778727E+02  0.7816164E-02  0.1312668E+00
        -11   -1    0    0    0    0  0.00000000000E+00  0.00000000000E+00  0.45593999997E+02  0.45594000000E+02  0.51100000000E-03 0.  1.
         11   -1    0    0    0    0 -0.00000000000E+00 -0.00000000000E+00 -0.45593999997E+02  0.45594000000E+02  0.51100000000E-03 0. -1.
    9900012    2    1    2    0    0 -0.30172158738E+02  0.27938111355E+02 -0.13882592547E+02  0.47787267232E+02  0.19999982616E+02 0.  0.
        -12    1    1    2    0    0  0.30172158738E+02 -0.27938111355E+02  0.13882592547E+02  0.43400732768E+02  0.00000000000E+00 0.  1.
         11    1    3    3    0    0  0.83057216153E+00  0.38445475126E+01 -0.31715332437E+01  0.50526249682E+01  0.51100000000E-03 0. -1.
        -11    1    3    3    0    0 -0.29615813080E+01  0.77277753490E+01 -0.52779009316E+01  0.98155852700E+01  0.51100000000E-03 0.  1.
        -12    1    3    3    0    0 -0.28041149592E+02  0.16365788493E+02 -0.54331583718E+01  0.32919056993E+02  0.00000000000E+00 0.  1.
</event>
<event>
 7    1  0.3910751E-009  0.4778727E+02  0.7816164E-02  0.1312668E+00
        -11   -1    0    0    0    0  0.00000000000E+00  0.00000000000E+00  0.45593999997E+02  0.45594000000E+02  0.51100000000E-03 0.  1.
         11   -1    0    0    0    0 -0.00000000000E+00 -0.00000000000E+00 -0.45593999997E+02  0.45594000000E+02  0.51100000000E-03 0. -1.
    9900012    2    1    2    0    0 -0.37887832445E+02  0.20677748738E+02  0.45350236207E+01  0.47787267524E+02  0.19999983949E+02 0.  0.
        -12    1    1    2    0    0  0.37887832445E+02 -0.20677748738E+02 -0.45350236207E+01  0.43400732476E+02  0.00000000000E+00 0.  1.
         11    1    3    3    0    0 -0.31470962193E+02  0.13194201559E+02  0.59411028500E+01  0.34638203179E+02  0.51100000000E-03 0.  1.
        -11    1    3    3    0    0 -0.77923779089E+01  0.60290076127E+01  0.11311709688E+01  0.99171384124E+01  0.51100000000E-03 0. -1.
        -12    1    3    3    0    0  0.13755076576E+01  0.14545395664E+01 -0.25372501981E+01  0.32319259326E+01  0.00000000000E+00 0.  1.
</event>
<event>
 7    1  0.3910751E-009  0.4778727E+02  0.7816164E-02  0.1312668E+00
        -11   -1    0    0    0    0  0.00000000000E+00  0.00000000000E+00  0.45593999997E+02  0.45594000000E+02  0.51100000000E-03 0.  1.
         11   -1    0    0    0    0 -0.00000000000E+00 -0.00000000000E+00 -0.45593999997E+02  0.45594000000E+02  0.51100000000E-03 0. -1.
    9900012    2    1    2    0    0  0.39359489893E+01  0.53695167962E+01 -0.42887065237E+02  0.47787265332E+02  0.19999973957E+02 0.  0.
        -12    1    1    2    0    0 -0.39359489893E+01 -0.53695167962E+01  0.42887065237E+02  0.43400734668E+02  0.00000000000E+00 0.  1.
         11    1    3    3    0    0  0.28687103564E+01  0.43715601640E+01 -0.97806914538E+01  0.11090625003E+02  0.51100000000E-03 0. -1.
        -11    1    3    3    0    0 -0.55999538189E+01  0.17191788193E+01 -0.26996003461E+02  0.27624251333E+02  0.51100000000E-03 0.  1.
        -12    1    3    3    0    0  0.66671924518E+01 -0.72122218714E+00 -0.61103703218E+01  0.90723889964E+01  0.00000000000E+00 0.  1.
</event>
<event>
 7    1  0.3910751E-009  0.4778727E+02  0.7816164E-02  0.1312668E+00
        -11   -1    0    0    0    0  0.00000000000E+00  0.00000000000E+00  0.45593999997E+02  0.45594000000E+02  0.51100000000E-03 0.  1.
         11   -1    0    0    0    0 -0.00000000000E+00 -0.00000000000E+00 -0.45593999997E+02  0.45594000000E+02  0.51100000000E-03 0. -1.
    9900012    2    1    2    0    0  0.46185534059E+01  0.28422853444E+02 -0.32472045452E+02  0.47787269945E+02  0.19999994988E+02 0.  0.
        -12    1    1    2    0    0 -0.46185534059E+01 -0.28422853444E+02  0.32472045452E+02  0.43400730055E+02  0.00000000000E+00 0.  1.
         11    1    3    3    0    0  0.13864946693E+00 -0.92108988398E+00 -0.47004007168E+01  0.47918052348E+01  0.51100000000E-03 0. -1.
        -11    1    3    3    0    0 -0.17255162101E+01 -0.22212946016E+00  0.28910568394E+00  0.17636127823E+01  0.51100000000E-03 0.  1.
        -12    1    3    3    0    0  0.62054201491E+01  0.29566072788E+02 -0.28060750419E+02  0.41231851928E+02  0.00000000000E+00 0.  1.
</event>
<event>
 7    1  0.3910751E-009  0.4778728E+02  0.7816164E-02  0.1312668E+00
        -11   -1    0    0    0    0  0.00000000000E+00  0.00000000000E+00  0.45593999997E+02  0.45594000000E+02  0.51100000000E-03 0. -1.
         11   -1    0    0    0    0 -0.00000000000E+00 -0.00000000000E+00 -0.45593999997E+02  0.45594000000E+02  0.51100000000E-03 0.  1.
    9900012    2    1    2    0    0  0.29484252385E+02 -0.13938814524E+01  0.31817586299E+02  0.47787276018E+02  0.20000022678E+02 0.  0.
        -12    1    1    2    0    0 -0.29484252385E+02  0.13938814524E+01 -0.31817586299E+02  0.43400723982E+02  0.00000000000E+00 0.  1.
         11    1    3    3    0    0  0.11428960515E+02  0.47828993729E+01  0.16053023489E+02  0.20277988763E+02  0.51100000000E-03 0. -1.
        -11    1    3    3    0    0  0.36865865365E+01 -0.39993994707E+01 -0.77256124127E+00  0.54939027612E+01  0.51100000000E-03 0.  1.
         12    1    3    3    0    0  0.14368705334E+02 -0.21773813546E+01  0.16537124052E+02  0.22015384494E+02  0.00000000000E+00 0. -1.
</event>
<event>
 7    1  0.3910751E-009  0.4778727E+02  0.7816164E-02  0.1312668E+00
        -11   -1    0    0    0    0  0.00000000000E+00  0.00000000000E+00  0.45593999997E+02  0.45594000000E+02  0.51100000000E-03 0.  1.
         11   -1    0    0    0    0 -0.00000000000E+00 -0.00000000000E+00 -0.45593999997E+02  0.45594000000E+02  0.51100000000E-03 0. -1.
    9900012    2    1    2    0    0  0.70824528955E+01 -0.24929889633E+02 -0.34813253324E+02  0.47787272551E+02  0.20000006867E+02 0.  0.
        -12    1    1    2    0    0 -0.70824528955E+01  0.24929889633E+02  0.34813253324E+02  0.43400727449E+02  0.00000000000E+00 0.  1.
         11    1    3    3    0    0  0.66610227575E+00  0.15115547883E+01 -0.57614563551E+01  0.59935690296E+01  0.51100000000E-03 0. -1.
        -11    1    3    3    0    0 -0.48354335938E+00 -0.79230203888E+00  0.12124446947E+01  0.15269509160E+01  0.51100000000E-03 0.  1.
         12    1    3    3    0    0  0.68998939791E+01 -0.25649142383E+02 -0.30264241663E+02  0.40266752605E+02  0.00000000000E+00 0. -1.
</event>
<event>
 7    1  0.3910751E-009  0.4778728E+02  0.7816164E-02  0.1312668E+00
        -11   -1    0    0    0    0  0.00000000000E+00  0.00000000000E+00  0.45593999997E+02  0.45594000000E+02  0.51100000000E-03 0.  1.
         11   -1    0    0    0    0 -0.00000000000E+00 -0.00000000000E+00 -0.45593999997E+02  0.45594000000E+02  0.51100000000E-03 0. -1.
    9900012    2    1    2    0    0  0.33857544748E+02  0.19440091594E+02 -0.18957106702E+02  0.47787281204E+02  0.20000046320E+02 0.  0.
        -12    1    1    2    0    0 -0.33857544748E+02 -0.19440091594E+02  0.18957106702E+02  0.43400718796E+02  0.00000000000E+00 0.  1.
         11    1    3    3    0    0  0.23497137083E+02  0.85803822753E+01 -0.11446118765E+02  0.27509126597E+02  0.51100000000E-03 0.  1.
        -11    1    3    3    0    0  0.95513412525E+01  0.66579490742E+01 -0.10408351271E-01  0.11642873966E+02  0.51100000000E-03 0. -1.
        -12    1    3    3    0    0  0.80906641174E+00  0.42017602449E+01 -0.75005795855E+01  0.86352806400E+01  0.00000000000E+00 0.  1.
</event>
<event>
 7    1  0.3910751E-009  0.4778727E+02  0.7816164E-02  0.1312668E+00
        -11   -1    0    0    0    0  0.00000000000E+00  0.00000000000E+00  0.45593999997E+02  0.45594000000E+02  0.51100000000E-03 0.  1.
         11   -1    0    0    0    0 -0.00000000000E+00 -0.00000000000E+00 -0.45593999997E+02  0.45594000000E+02  0.51100000000E-03 0. -1.
    9900012    2    1    2    0    0  0.42685403125E+01  0.10739278299E+02 -0.41833845265E+02  0.47787272535E+02  0.20000006796E+02 0.  0.
        -12    1    1    2    0    0 -0.42685403125E+01 -0.10739278299E+02  0.41833845265E+02  0.43400727465E+02  0.00000000000E+00 0.  1.
         11    1    3    3    0    0  0.34237249164E+01  0.10508871292E+02 -0.14646360700E+02  0.18348682518E+02  0.51100000000E-03 0. -1.
        -11    1    3    3    0    0  0.13623845252E+01 -0.41709707517E+01 -0.43628306560E+01  0.61876797105E+01  0.51100000000E-03 0.  1.
         12    1    3    3    0    0 -0.51756912920E+00  0.44013777592E+01 -0.22824653910E+02  0.23250910306E+02  0.00000000000E+00 0. -1.
</event>
<event>
 7    1  0.3910751E-009  0.4778729E+02  0.7816164E-02  0.1312668E+00
        -11   -1    0    0    0    0  0.00000000000E+00  0.00000000000E+00  0.45593999997E+02  0.45594000000E+02  0.51100000000E-03 0.  1.
         11   -1    0    0    0    0 -0.00000000000E+00 -0.00000000000E+00 -0.45593999997E+02  0.45594000000E+02  0.51100000000E-03 0. -1.
    9900012    2    1    2    0    0  0.33964433759E+02 -0.11289196897E+02 -0.24547773225E+02  0.47787286902E+02  0.20000072300E+02 0.  0.
        -12    1    1    2    0    0 -0.33964433759E+02  0.11289196897E+02  0.24547773225E+02  0.43400713098E+02  0.00000000000E+00 0.  1.
         11    1    3    3    0    0 -0.10520189630E+01  0.16044514609E+01 -0.12227159414E+01  0.22750918494E+01  0.51100000000E-03 0.  1.
        -11    1    3    3    0    0  0.12477064412E+02 -0.58682433372E+01 -0.15253396062E+02  0.20561602755E+02  0.51100000000E-03 0. -1.
        -12    1    3    3    0    0  0.22539388310E+02 -0.70254050202E+01 -0.80716612216E+01  0.24950592297E+02  0.00000000000E+00 0.  1.
</event>
<event>
 7    1  0.3910751E-009  0.4778727E+02  0.7816164E-02  0.1312668E+00
        -11   -1    0    0    0    0  0.00000000000E+00  0.00000000000E+00  0.45593999997E+02  0.45594000000E+02  0.51100000000E-03 0.  1.
         11   -1    0    0    0    0 -0.00000000000E+00 -0.00000000000E+00 -0.45593999997E+02  0.45594000000E+02  0.51100000000E-03 0. -1.
    9900012    2    1    2    0    0 -0.17598475166E+02  0.54606367906E+01 -0.39295021527E+02  0.47787267297E+02  0.19999982913E+02 0.  0.
        -12    1    1    2    0    0  0.17598475166E+02 -0.54606367906E+01  0.39295021527E+02  0.43400732703E+02  0.00000000000E+00 0.  1.
         11    1    3    3    0    0 -0.41566333252E+01  0.25796603327E+01 -0.64196898243E+01  0.80712245499E+01  0.51100000000E-03 0. -1.
        -11    1    3    3    0    0 -0.56331377409E+01  0.80213210205E+01 -0.65728365224E+01  0.11801525831E+02  0.51100000000E-03 0.  1.
         12    1    3    3    0    0 -0.78087041003E+01 -0.51403445625E+01 -0.26302495181E+02  0.27914516916E+02  0.00000000000E+00 0. -1.
</event>
<event>
 7    1  0.3910751E-009  0.4778727E+02  0.7816164E-02  0.1312668E+00
        -11   -1    0    0    0    0  0.00000000000E+00  0.00000000000E+00  0.45593999997E+02  0.45594000000E+02  0.51100000000E-03 0.  1.
         11   -1    0    0    0    0 -0.00000000000E+00 -0.00000000000E+00 -0.45593999997E+02  0.45594000000E+02  0.51100000000E-03 0. -1.
    9900012    2    1    2    0    0  0.27525781730E+02 -0.17595955602E+02 -0.28571606872E+02  0.47787273823E+02  0.20000012670E+02 0.  0.
        -12    1    1    2    0    0 -0.27525781730E+02  0.17595955602E+02  0.28571606872E+02  0.43400726177E+02  0.00000000000E+00 0.  1.
         11    1    3    3    0    0  0.49205207119E+01 -0.11238431103E+02 -0.56831774287E+01  0.13520812242E+02  0.51100000000E-03 0. -1.
        -11    1    3    3    0    0  0.15179804645E+01 -0.27219272635E+01 -0.26742146651E+00  0.31280452715E+01  0.51100000000E-03 0.  1.
        -12    1    3    3    0    0  0.21087280554E+02 -0.36355972358E+01 -0.22621007977E+02  0.31138416310E+02  0.00000000000E+00 0.  1.
</event>
<event>
 7    1  0.3910751E-009  0.4778727E+02  0.7816164E-02  0.1312668E+00
        -11   -1    0    0    0    0  0.00000000000E+00  0.00000000000E+00  0.45593999997E+02  0.45594000000E+02  0.51100000000E-03 0. -1.
         11   -1    0    0    0    0 -0.00000000000E+00 -0.00000000000E+00 -0.45593999997E+02  0.45594000000E+02  0.51100000000E-03 0.  1.
    9900012    2    1    2    0    0  0.86135272777E+01  0.41921393044E+02  0.72129783482E+01  0.47787273007E+02  0.20000008947E+02 0.  0.
        -12    1    1    2    0    0 -0.86135272777E+01 -0.41921393044E+02 -0.72129783482E+01  0.43400726993E+02  0.00000000000E+00 0.  1.
         11    1    3    3    0    0  0.95261732238E+01  0.13918817725E+02  0.10963370765E+01  0.16902172002E+02  0.51100000000E-03 0. -1.
        -11    1    3    3    0    0  0.74208173633E+00 -0.51584646069E+00  0.17734219025E+01  0.19904291949E+01  0.51100000000E-03 0.  1.
         12    1    3    3    0    0 -0.16547276824E+01  0.28518421780E+02  0.43432193692E+01  0.28894671810E+02  0.00000000000E+00 0. -1.
</event>
<event>
 7    1  0.3910751E-009  0.4778727E+02  0.7816164E-02  0.1312668E+00
        -11   -1    0    0    0    0  0.00000000000E+00  0.00000000000E+00  0.45593999997E+02  0.45594000000E+02  0.51100000000E-03 0. -1.
         11   -1    0    0    0    0 -0.00000000000E+00 -0.00000000000E+00 -0.45593999997E+02  0.45594000000E+02  0.51100000000E-03 0.  1.
    9900012    2    1    2    0    0 -0.22472260456E+02  0.14230275987E+01  0.37102504959E+02  0.47787269917E+02  0.19999994858E+02 0.  0.
        -12    1    1    2    0    0  0.22472260456E+02 -0.14230275987E+01 -0.37102504959E+02  0.43400730083E+02  0.00000000000E+00 0.  1.
         11    1    3    3    0    0 -0.79127791088E+00 -0.18320217932E+01  0.18370722030E+01  0.27124267959E+01  0.51100000000E-03 0. -1.
        -11    1    3    3    0    0 -0.10785884043E+02 -0.39195259601E+01  0.58163989271E+01  0.12865786998E+02  0.51100000000E-03 0.  1.
         12    1    3    3    0    0 -0.10895098502E+02  0.71745753520E+01  0.29449033829E+02  0.32209056122E+02  0.00000000000E+00 0. -1.
</event>
<event>
 7    1  0.3910751E-009  0.4778727E+02  0.7816164E-02  0.1312668E+00
        -11   -1    0    0    0    0  0.00000000000E+00  0.00000000000E+00  0.45593999997E+02  0.45594000000E+02  0.51100000000E-03 0. -1.
         11   -1    0    0    0    0 -0.00000000000E+00 -0.00000000000E+00 -0.45593999997E+02  0.45594000000E+02  0.51100000000E-03 0.  1.
    9900012    2    1    2    0    0  0.34551495225E+02  0.25698954723E+02 -0.54204484727E+01  0.47787270078E+02  0.19999995593E+02 0.  0.
        -12    1    1    2    0    0 -0.34551495225E+02 -0.25698954723E+02  0.54204484727E+01  0.43400729922E+02  0.00000000000E+00 0.  1.
         11    1    3    3    0    0  0.18108964866E+02  0.13570636560E+02 -0.89360976719E+01  0.24330035492E+02  0.51100000000E-03 0. -1.
        -11    1    3    3    0    0 -0.41155812031E+00 -0.32970720009E+00 -0.17662759802E+01  0.18433171251E+01  0.51100000000E-03 0.  1.
         12    1    3    3    0    0  0.16854088479E+02  0.12458025363E+02  0.52819251794E+01  0.21613917461E+02  0.00000000000E+00 0. -1.
</event>
<event>
 7    1  0.3910751E-009  0.4778727E+02  0.7816164E-02  0.1312668E+00
        -11   -1    0    0    0    0  0.00000000000E+00  0.00000000000E+00  0.45593999997E+02  0.45594000000E+02  0.51100000000E-03 0.  1.
         11   -1    0    0    0    0 -0.00000000000E+00 -0.00000000000E+00 -0.45593999997E+02  0.45594000000E+02  0.51100000000E-03 0. -1.
    9900012    2    1    2    0    0  0.11286672258E+02  0.15380283318E+02 -0.38983088719E+02  0.47787270839E+02  0.19999999065E+02 0.  0.
        -12    1    1    2    0    0 -0.11286672258E+02 -0.15380283318E+02  0.38983088719E+02  0.43400729161E+02  0.00000000000E+00 0.  1.
         11    1    3    3    0    0  0.42019954558E+01 -0.32771580927E+01 -0.65133459112E+01  0.84154742109E+01  0.51100000000E-03 0. -1.
        -11    1    3    3    0    0  0.27490477975E+01  0.15440444991E+01 -0.11677810411E+02  0.12095974267E+02  0.51100000000E-03 0.  1.
        -12    1    3    3    0    0  0.43356290047E+01  0.17113396911E+02 -0.20791932397E+02  0.27275822361E+02  0.00000000000E+00 0.  1.
</event>
<event>
 7    1  0.3910751E-009  0.4778727E+02  0.7816164E-02  0.1312668E+00
        -11   -1    0    0    0    0  0.00000000000E+00  0.00000000000E+00  0.45593999997E+02  0.45594000000E+02  0.51100000000E-03 0. -1.
         11   -1    0    0    0    0 -0.00000000000E+00 -0.00000000000E+00 -0.45593999997E+02  0.45594000000E+02  0.51100000000E-03 0.  1.
    9900012    2    1    2    0    0 -0.13695400229E+02  0.33509142449E+02  0.23941519241E+02  0.47787274676E+02  0.20000016560E+02 0.  0.
        -12    1    1    2    0    0  0.13695400229E+02 -0.33509142449E+02 -0.23941519241E+02  0.43400725324E+02  0.00000000000E+00 0.  1.
         11    1    3    3    0    0 -0.88656399021E+01  0.14329395334E+02  0.20215707482E+02  0.26317408132E+02  0.51100000000E-03 0. -1.
        -11    1    3    3    0    0 -0.39714401719E+01  0.31427951645E+01  0.49959579275E+00  0.50891153163E+01  0.51100000000E-03 0.  1.
         12    1    3    3    0    0 -0.85832015451E+00  0.16036951951E+02  0.32262159654E+01  0.16380751229E+02  0.00000000000E+00 0. -1.
</event>
<event>
 7    1  0.3910751E-009  0.4778726E+02  0.7816164E-02  0.1312668E+00
        -11   -1    0    0    0    0  0.00000000000E+00  0.00000000000E+00  0.45593999997E+02  0.45594000000E+02  0.51100000000E-03 0.  1.
         11   -1    0    0    0    0 -0.00000000000E+00 -0.00000000000E+00 -0.45593999997E+02  0.45594000000E+02  0.51100000000E-03 0. -1.
    9900012    2    1    2    0    0 -0.17224790941E+02  0.15868746859E+02 -0.36539201978E+02  0.47787264626E+02  0.19999970735E+02 0.  0.
        -12    1    1    2    0    0  0.17224790941E+02 -0.15868746859E+02  0.36539201978E+02  0.43400735374E+02  0.00000000000E+00 0.  1.
         11    1    3    3    0    0 -0.26685769429E+00  0.10129440447E+01  0.11674808546E+01  0.15685281233E+01  0.51100000000E-03 0. -1.
        -11    1    3    3    0    0 -0.93251841944E+00  0.93541905549E+01 -0.17352692688E+02  0.19735410189E+02  0.51100000000E-03 0.  1.
         12    1    3    3    0    0 -0.16025414828E+02  0.55016122595E+01 -0.20353990144E+02  0.26483326314E+02  0.00000000000E+00 0. -1.
</event>
<event>
 7    1  0.3910751E-009  0.4778727E+02  0.7816164E-02  0.1312668E+00
        -11   -1    0    0    0    0  0.00000000000E+00  0.00000000000E+00  0.45593999997E+02  0.45594000000E+02  0.51100000000E-03 0. -1.
         11   -1    0    0    0    0 -0.00000000000E+00 -0.00000000000E+00 -0.45593999997E+02  0.45594000000E+02  0.51100000000E-03 0.  1.
    9900012    2    1    2    0    0  0.42010091815E+02 -0.49308776984E+01  0.97191598948E+01  0.47787269151E+02  0.19999991368E+02 0.  0.
        -12    1    1    2    0    0 -0.42010091815E+02  0.49308776984E+01 -0.97191598948E+01  0.43400730849E+02  0.00000000000E+00 0.  1.
         11    1    3    3    0    0 -0.11940053265E+00 -0.18343435736E+01  0.22288645719E+01  0.28891020014E+01  0.51100000000E-03 0. -1.
        -11    1    3    3    0    0  0.17309940051E+01 -0.34541819018E+01  0.84955452681E+00  0.39559393337E+01  0.51100000000E-03 0.  1.
         12    1    3    3    0    0  0.40398498342E+02  0.35764777703E+00  0.66407407961E+01  0.40942227816E+02  0.00000000000E+00 0. -1.
</event>
<event>
 7    1  0.3910751E-009  0.4778724E+02  0.7816164E-02  0.1312668E+00
        -11   -1    0    0    0    0  0.00000000000E+00  0.00000000000E+00  0.45593999997E+02  0.45594000000E+02  0.51100000000E-03 0. -1.
         11   -1    0    0    0    0 -0.00000000000E+00 -0.00000000000E+00 -0.45593999997E+02  0.45594000000E+02  0.51100000000E-03 0.  1.
    9900012    2    1    2    0    0 -0.18607628962E+02  0.30690527800E+02  0.24402319437E+02  0.47787244866E+02  0.19999880644E+02 0.  0.
        -12    1    1    2    0    0  0.18607628962E+02 -0.30690527800E+02 -0.24402319437E+02  0.43400755134E+02  0.00000000000E+00 0.  1.
         11    1    3    3    0    0 -0.53418015795E+01  0.21761295433E+02  0.10607394972E+02  0.24791241425E+02  0.51100000000E-03 0. -1.
        -11    1    3    3    0    0  0.77479517351E+00 -0.59162962614E+00 -0.21061638027E+00  0.99734281778E+00  0.51100000000E-03 0.  1.
         12    1    3    3    0    0 -0.14040622556E+02  0.95208619931E+01  0.14005540845E+02  0.21998660623E+02  0.00000000000E+00 0. -1.
</event>
<event>
 7    1  0.3910751E-009  0.4778727E+02  0.7816164E-02  0.1312668E+00
        -11   -1    0    0    0    0  0.00000000000E+00  0.00000000000E+00  0.45593999997E+02  0.45594000000E+02  0.51100000000E-03 0.  1.
         11   -1    0    0    0    0 -0.00000000000E+00 -0.00000000000E+00 -0.45593999997E+02  0.45594000000E+02  0.51100000000E-03 0. -1.
    9900012    2    1    2    0    0 -0.26151478019E+02  0.34508141242E+02  0.29851961043E+01  0.47787274080E+02  0.20000013842E+02 0.  0.
        -12    1    1    2    0    0  0.26151478019E+02 -0.34508141242E+02 -0.29851961043E+01  0.43400725920E+02  0.00000000000E+00 0.  1.
         11    1    3    3    0    0 -0.12232051458E+02  0.76422333257E+01 -0.23163759489E+01  0.14607957109E+02  0.51100000000E-03 0. -1.
        -11    1    3    3    0    0 -0.39803263698E+01  0.93182645084E+01 -0.40971847751E+01  0.10929774691E+02  0.51100000000E-03 0.  1.
        -12    1    3    3    0    0 -0.99391001909E+01  0.17547643408E+02  0.93987568283E+01  0.22249542281E+02  0.00000000000E+00 0.  1.
</event>
<event>
 7    1  0.3910751E-009  0.4778727E+02  0.7816164E-02  0.1312668E+00
        -11   -1    0    0    0    0  0.00000000000E+00  0.00000000000E+00  0.45593999997E+02  0.45594000000E+02  0.51100000000E-03 0.  1.
         11   -1    0    0    0    0 -0.00000000000E+00 -0.00000000000E+00 -0.45593999997E+02  0.45594000000E+02  0.51100000000E-03 0. -1.
    9900012    2    1    2    0    0  0.13985339551E+02  0.20595343451E+02 -0.35550883265E+02  0.47787271951E+02  0.20000004133E+02 0.  0.
        -12    1    1    2    0    0 -0.13985339551E+02 -0.20595343451E+02  0.35550883265E+02  0.43400728049E+02  0.00000000000E+00 0.  1.
         11    1    3    3    0    0 -0.14889703478E+01 -0.13729661850E+01 -0.25958421197E+00  0.20419238639E+01  0.51100000000E-03 0. -1.
        -11    1    3    3    0    0 -0.17095250951E+01  0.12689622952E+01 -0.18067610459E+01  0.27923336290E+01  0.51100000000E-03 0.  1.
        -12    1    3    3    0    0  0.17183834994E+02  0.20699347341E+02 -0.33484538008E+02  0.42953014458E+02  0.00000000000E+00 0.  1.
</event>
<event>
 7    1  0.3910751E-009  0.4778729E+02  0.7816164E-02  0.1312668E+00
        -11   -1    0    0    0    0  0.00000000000E+00  0.00000000000E+00  0.45593999997E+02  0.45594000000E+02  0.51100000000E-03 0.  1.
         11   -1    0    0    0    0 -0.00000000000E+00 -0.00000000000E+00 -0.45593999997E+02  0.45594000000E+02  0.51100000000E-03 0. -1.
    9900012    2    1    2    0    0 -0.22332465512E+01 -0.18855058286E+02 -0.39027186983E+02  0.47787286447E+02  0.20000070224E+02 0.  0.
        -12    1    1    2    0    0  0.22332465512E+01  0.18855058286E+02  0.39027186983E+02  0.43400713553E+02  0.00000000000E+00 0.  1.
         11    1    3    3    0    0 -0.71946434681E-01  0.81381893505E-01  0.17366971709E+00  0.20484319322E+00  0.51100000000E-03 0.  1.
        -11    1    3    3    0    0  0.61580535621E+01 -0.11695748695E+02 -0.10647128762E+02  0.16972728489E+02  0.51100000000E-03 0. -1.
         12    1    3    3    0    0 -0.83193536786E+01 -0.72406914848E+01 -0.28553727938E+02  0.30609714765E+02  0.00000000000E+00 0. -1.
</event>
<event>
 7    1  0.3910751E-009  0.4778727E+02  0.7816164E-02  0.1312668E+00
        -11   -1    0    0    0    0  0.00000000000E+00  0.00000000000E+00  0.45593999997E+02  0.45594000000E+02  0.51100000000E-03 0.  1.
         11   -1    0    0    0    0 -0.00000000000E+00 -0.00000000000E+00 -0.45593999997E+02  0.45594000000E+02  0.51100000000E-03 0. -1.
    9900012    2    1    2    0    0 -0.15320740022E+02  0.55690928375E+01 -0.40222919489E+02  0.47787272794E+02  0.20000007975E+02 0.  0.
        -12    1    1    2    0    0  0.15320740022E+02 -0.55690928375E+01  0.40222919489E+02  0.43400727206E+02  0.00000000000E+00 0.  1.
         11    1    3    3    0    0 -0.17751585563E+01 -0.95268792133E+00 -0.21579893852E+02  0.21673731130E+02  0.51100000000E-03 0. -1.
        -11    1    3    3    0    0 -0.18246937339E+01  0.35923031195E+01 -0.11249576745E+02  0.11949356724E+02  0.51100000000E-03 0.  1.
        -12    1    3    3    0    0 -0.11720887732E+02  0.29294776393E+01 -0.73934488914E+01  0.14164184939E+02  0.00000000000E+00 0.  1.
</event>
<event>
 7    1  0.3910751E-009  0.4778727E+02  0.7816164E-02  0.1312668E+00
        -11   -1    0    0    0    0  0.00000000000E+00  0.00000000000E+00  0.45593999997E+02  0.45594000000E+02  0.51100000000E-03 0. -1.
         11   -1    0    0    0    0 -0.00000000000E+00 -0.00000000000E+00 -0.45593999997E+02  0.45594000000E+02  0.51100000000E-03 0.  1.
    9900012    2    1    2    0    0 -0.20460805222E+02 -0.71838622735E+01  0.37594824560E+02  0.47787271191E+02  0.20000000667E+02 0.  0.
        -12    1    1    2    0    0  0.20460805222E+02  0.71838622735E+01 -0.37594824560E+02  0.43400728809E+02  0.00000000000E+00 0.  1.
         11    1    3    3    0    0 -0.85886867968E+01 -0.20875262742E+01  0.97129378056E+01  0.13132572784E+02  0.51100000000E-03 0.  1.
        -11    1    3    3    0    0 -0.74891835207E+01 -0.44967814853E+01  0.28835237552E+02  0.30129384967E+02  0.51100000000E-03 0. -1.
         12    1    3    3    0    0 -0.43829349045E+01 -0.59955451396E+00 -0.95335079749E+00  0.45253134405E+01  0.00000000000E+00 0. -1.
</event>
<event>
 7    1  0.3910751E-009  0.4778728E+02  0.7816164E-02  0.1312668E+00
        -11   -1    0    0    0    0  0.00000000000E+00  0.00000000000E+00  0.45593999997E+02  0.45594000000E+02  0.51100000000E-03 0.  1.
         11   -1    0    0    0    0 -0.00000000000E+00 -0.00000000000E+00 -0.45593999997E+02  0.45594000000E+02  0.51100000000E-03 0. -1.
    9900012    2    1    2    0    0  0.23892424254E+01  0.40076365843E+02  0.16486327720E+02  0.47787279035E+02  0.20000036434E+02 0.  0.
        -12    1    1    2    0    0 -0.23892424254E+01 -0.40076365843E+02 -0.16486327720E+02  0.43400720965E+02  0.00000000000E+00 0.  1.
         11    1    3    3    0    0  0.43852972530E+01  0.98699552742E+01  0.31732992132E+01  0.11256850238E+02  0.51100000000E-03 0. -1.
        -11    1    3    3    0    0 -0.19360017508E+01 -0.11224169897E+01  0.25769997925E+01  0.34130412933E+01  0.51100000000E-03 0.  1.
        -12    1    3    3    0    0 -0.60053076813E-01  0.31328827559E+02  0.10736028715E+02  0.33117387505E+02  0.00000000000E+00 0.  1.
</event>
<event>
 7    1  0.3910751E-009  0.4778727E+02  0.7816164E-02  0.1312668E+00
        -11   -1    0    0    0    0  0.00000000000E+00  0.00000000000E+00  0.45593999997E+02  0.45594000000E+02  0.51100000000E-03 0. -1.
         11   -1    0    0    0    0 -0.00000000000E+00 -0.00000000000E+00 -0.45593999997E+02  0.45594000000E+02  0.51100000000E-03 0.  1.
    9900012    2    1    2    0    0 -0.41195225295E+02  0.13544473664E+02 -0.17675517416E+01  0.47787267367E+02  0.19999983233E+02 0.  0.
        -12    1    1    2    0    0  0.41195225295E+02 -0.13544473664E+02  0.17675517416E+01  0.43400732633E+02  0.00000000000E+00 0.  1.
         11    1    3    3    0    0 -0.66761296173E+01  0.55597174253E+01 -0.97324910536E+00  0.87423325605E+01  0.51100000000E-03 0. -1.
        -11    1    3    3    0    0 -0.69438296955E+01  0.75522308338E+01  0.40763897144E+01  0.11039470765E+02  0.51100000000E-03 0.  1.
         12    1    3    3    0    0 -0.27575265982E+02  0.43252540524E+00 -0.48706923507E+01  0.28005464041E+02  0.00000000000E+00 0. -1.
</event>
<event>
 7    1  0.3910751E-009  0.4778727E+02  0.7816164E-02  0.1312668E+00
        -11   -1    0    0    0    0  0.00000000000E+00  0.00000000000E+00  0.45593999997E+02  0.45594000000E+02  0.51100000000E-03 0.  1.
         11   -1    0    0    0    0 -0.00000000000E+00 -0.00000000000E+00 -0.45593999997E+02  0.45594000000E+02  0.51100000000E-03 0. -1.
    9900012    2    1    2    0    0 -0.32772293968E+02  0.75523291942E+01 -0.27432872933E+02  0.47787269067E+02  0.19999990983E+02 0.  0.
        -12    1    1    2    0    0  0.32772293968E+02 -0.75523291942E+01  0.27432872933E+02  0.43400730933E+02  0.00000000000E+00 0.  1.
         11    1    3    3    0    0 -0.96786312475E+01  0.14861531849E+01 -0.19608809986E+02  0.21917800607E+02  0.51100000000E-03 0. -1.
        -11    1    3    3    0    0 -0.10271450851E+02  0.22425664583E+01 -0.66451950764E+01  0.12437460543E+02  0.51100000000E-03 0.  1.
         12    1    3    3    0    0 -0.12822211869E+02  0.38236095510E+01 -0.11788678710E+01  0.13432007917E+02  0.00000000000E+00 0. -1.
</event>
<event>
 7    1  0.3910751E-009  0.4778727E+02  0.7816164E-02  0.1312668E+00
        -11   -1    0    0    0    0  0.00000000000E+00  0.00000000000E+00  0.45593999997E+02  0.45594000000E+02  0.51100000000E-03 0.  1.
         11   -1    0    0    0    0 -0.00000000000E+00 -0.00000000000E+00 -0.45593999997E+02  0.45594000000E+02  0.51100000000E-03 0. -1.
    9900012    2    1    2    0    0  0.40078459550E+02  0.15806132517E+02 -0.52446555601E+01  0.47787272391E+02  0.20000006138E+02 0.  0.
        -12    1    1    2    0    0 -0.40078459550E+02 -0.15806132517E+02  0.52446555601E+01  0.43400727609E+02  0.00000000000E+00 0.  1.
         11    1    3    3    0    0  0.55872255909E+01  0.53034120838E+01  0.40877220155E+00  0.77142961123E+01  0.51100000000E-03 0. -1.
        -11    1    3    3    0    0  0.49811928833E+01  0.66709296879E+01  0.33632681744E+01  0.89791513250E+01  0.51100000000E-03 0.  1.
         12    1    3    3    0    0  0.29510041076E+02  0.38317907450E+01 -0.90166959361E+01  0.31093824953E+02  0.00000000000E+00 0. -1.
</event>
<event>
 7    1  0.3910751E-009  0.4778727E+02  0.7816164E-02  0.1312668E+00
        -11   -1    0    0    0    0  0.00000000000E+00  0.00000000000E+00  0.45593999997E+02  0.45594000000E+02  0.51100000000E-03 0.  1.
         11   -1    0    0    0    0 -0.00000000000E+00 -0.00000000000E+00 -0.45593999997E+02  0.45594000000E+02  0.51100000000E-03 0. -1.
    9900012    2    1    2    0    0 -0.13711289628E+02 -0.36819446667E+02 -0.18437788368E+02  0.47787272403E+02  0.20000006192E+02 0.  0.
        -12    1    1    2    0    0  0.13711289628E+02  0.36819446667E+02  0.18437788368E+02  0.43400727597E+02  0.00000000000E+00 0.  1.
         11    1    3    3    0    0 -0.49618889930E+01 -0.18275050993E+02 -0.11309148180E+02  0.22056624039E+02  0.51100000000E-03 0. -1.
        -11    1    3    3    0    0 -0.18251737784E+01 -0.91193636315E+01 -0.10032806240E+02  0.13680323596E+02  0.51100000000E-03 0.  1.
        -12    1    3    3    0    0 -0.69242268567E+01 -0.94250320418E+01  0.29041660523E+01  0.12050324768E+02  0.00000000000E+00 0.  1.
</event>
<event>
 7    1  0.3910751E-009  0.4778727E+02  0.7816164E-02  0.1312668E+00
        -11   -1    0    0    0    0  0.00000000000E+00  0.00000000000E+00  0.45593999997E+02  0.45594000000E+02  0.51100000000E-03 0.  1.
         11   -1    0    0    0    0 -0.00000000000E+00 -0.00000000000E+00 -0.45593999997E+02  0.45594000000E+02  0.51100000000E-03 0. -1.
    9900012    2    1    2    0    0 -0.12405282299E+02  0.35228752397E+02 -0.22105821848E+02  0.47787269776E+02  0.19999994217E+02 0.  0.
        -12    1    1    2    0    0  0.12405282299E+02 -0.35228752397E+02  0.22105821848E+02  0.43400730224E+02  0.00000000000E+00 0.  1.
         11    1    3    3    0    0 -0.60367027113E+01  0.23754991018E+02 -0.16315891869E+02  0.29444009673E+02  0.51100000000E-03 0. -1.
        -11    1    3    3    0    0 -0.31210005358E+01  0.12844307792E+02 -0.65275524477E+01  0.14741975045E+02  0.51100000000E-03 0.  1.
         12    1    3    3    0    0 -0.32475790519E+01 -0.13705464125E+01  0.73762246852E+00  0.36012850586E+01  0.00000000000E+00 0. -1.
</event>
<event>
 7    1  0.3910751E-009  0.4778726E+02  0.7816164E-02  0.1312668E+00
        -11   -1    0    0    0    0  0.00000000000E+00  0.00000000000E+00  0.45593999997E+02  0.45594000000E+02  0.51100000000E-03 0.  1.
         11   -1    0    0    0    0 -0.00000000000E+00 -0.00000000000E+00 -0.45593999997E+02  0.45594000000E+02  0.51100000000E-03 0. -1.
    9900012    2    1    2    0    0 -0.17604807228E+02 -0.37792803042E+02 -0.12058138366E+02  0.47787263829E+02  0.19999967104E+02 0.  0.
        -12    1    1    2    0    0  0.17604807228E+02  0.37792803042E+02  0.12058138366E+02  0.43400736171E+02  0.00000000000E+00 0.  1.
         11    1    3    3    0    0 -0.79149240353E+01 -0.11928850031E+02 -0.70894736263E+01  0.15975109456E+02  0.51100000000E-03 0. -1.
        -11    1    3    3    0    0 -0.88190930408E+01 -0.27769507037E+02 -0.54997743890E+01  0.29650791587E+02  0.51100000000E-03 0.  1.
         12    1    3    3    0    0 -0.87079015178E+00  0.19055540266E+01  0.53110964945E+00  0.21613627869E+01  0.00000000000E+00 0. -1.
</event>
<event>
 7    1  0.3910751E-009  0.4778727E+02  0.7816164E-02  0.1312668E+00
        -11   -1    0    0    0    0  0.00000000000E+00  0.00000000000E+00  0.45593999997E+02  0.45594000000E+02  0.51100000000E-03 0.  1.
         11   -1    0    0    0    0 -0.00000000000E+00 -0.00000000000E+00 -0.45593999997E+02  0.45594000000E+02  0.51100000000E-03 0. -1.
    9900012    2    1    2    0    0  0.41851417988E+01  0.43118082531E+02 -0.26341817472E+01  0.47787269977E+02  0.19999995135E+02 0.  0.
        -12    1    1    2    0    0 -0.41851417988E+01 -0.43118082531E+02  0.26341817472E+01  0.43400730023E+02  0.00000000000E+00 0.  1.
         11    1    3    3    0    0  0.42592819305E+01  0.11699586511E+02  0.45802820739E+01  0.13266528982E+02  0.51100000000E-03 0. -1.
        -11    1    3    3    0    0  0.56081599646E+01  0.92099653966E+01 -0.32004853938E+01  0.11248023285E+02  0.51100000000E-03 0.  1.
         12    1    3    3    0    0 -0.56823000964E+01  0.22208530623E+02 -0.40139784274E+01  0.23272717711E+02  0.00000000000E+00 0. -1.
</event>
<event>
 7    1  0.3910751E-009  0.4778727E+02  0.7816164E-02  0.1312668E+00
        -11   -1    0    0    0    0  0.00000000000E+00  0.00000000000E+00  0.45593999997E+02  0.45594000000E+02  0.51100000000E-03 0.  1.
         11   -1    0    0    0    0 -0.00000000000E+00 -0.00000000000E+00 -0.45593999997E+02  0.45594000000E+02  0.51100000000E-03 0. -1.
    9900012    2    1    2    0    0  0.27052301650E+02 -0.15570743964E+02 -0.30155403868E+02  0.47787268732E+02  0.19999989457E+02 0.  0.
        -12    1    1    2    0    0 -0.27052301650E+02  0.15570743964E+02  0.30155403868E+02  0.43400731268E+02  0.00000000000E+00 0.  1.
         11    1    3    3    0    0  0.11341552292E+02 -0.22878418488E+01 -0.32948511386E+01  0.12030007191E+02  0.51100000000E-03 0. -1.
        -11    1    3    3    0    0 -0.12132448820E+01 -0.42036467365E+01 -0.55998095724E+01  0.71063687307E+01  0.51100000000E-03 0.  1.
        -12    1    3    3    0    0  0.16923994240E+02 -0.90792553790E+01 -0.21260743157E+02  0.28650892811E+02  0.00000000000E+00 0.  1.
</event>
<event>
 7    1  0.3910751E-009  0.4778727E+02  0.7816164E-02  0.1312668E+00
        -11   -1    0    0    0    0  0.00000000000E+00  0.00000000000E+00  0.45593999997E+02  0.45594000000E+02  0.51100000000E-03 0.  1.
         11   -1    0    0    0    0 -0.00000000000E+00 -0.00000000000E+00 -0.45593999997E+02  0.45594000000E+02  0.51100000000E-03 0. -1.
    9900012    2    1    2    0    0 -0.38296900056E+02  0.51313816125E+01 -0.19764601052E+02  0.47787273210E+02  0.20000009873E+02 0.  0.
        -12    1    1    2    0    0  0.38296900056E+02 -0.51313816125E+01  0.19764601052E+02  0.43400726790E+02  0.00000000000E+00 0.  1.
         11    1    3    3    0    0 -0.36974500836E+02  0.11524560650E+01 -0.20498329300E+02  0.42292119496E+02  0.51100000000E-03 0. -1.
        -11    1    3    3    0    0 -0.15005589640E+01  0.32833019526E+00  0.99617370502E+00  0.18308031662E+01  0.51100000000E-03 0.  1.
         12    1    3    3    0    0  0.17815974390E+00  0.36505953523E+01 -0.26244545658E+00  0.36643505479E+01  0.00000000000E+00 0. -1.
</event>
<event>
 7    1  0.3910751E-009  0.4778727E+02  0.7816164E-02  0.1312668E+00
        -11   -1    0    0    0    0  0.00000000000E+00  0.00000000000E+00  0.45593999997E+02  0.45594000000E+02  0.51100000000E-03 0.  1.
         11   -1    0    0    0    0 -0.00000000000E+00 -0.00000000000E+00 -0.45593999997E+02  0.45594000000E+02  0.51100000000E-03 0. -1.
    9900012    2    1    2    0    0 -0.16062581532E+02 -0.45220947101E+01 -0.40064538401E+02  0.47787273009E+02  0.20000008957E+02 0.  0.
        -12    1    1    2    0    0  0.16062581532E+02  0.45220947101E+01  0.40064538401E+02  0.43400726991E+02  0.00000000000E+00 0.  1.
         11    1    3    3    0    0 -0.81841511853E+01 -0.52064632601E+01 -0.25387594916E+02  0.27177519500E+02  0.51100000000E-03 0. -1.
        -11    1    3    3    0    0  0.22207510628E+01 -0.15251998656E+01 -0.76476214220E+01  0.81082725403E+01  0.51100000000E-03 0.  1.
        -12    1    3    3    0    0 -0.10099181410E+02  0.22095684156E+01 -0.70293220630E+01  0.12501480968E+02  0.00000000000E+00 0.  1.
</event>
<event>
 7    1  0.3910751E-009  0.4778725E+02  0.7816164E-02  0.1312668E+00
        -11   -1    0    0    0    0  0.00000000000E+00  0.00000000000E+00  0.45593999997E+02  0.45594000000E+02  0.51100000000E-03 0. -1.
         11   -1    0    0    0    0 -0.00000000000E+00 -0.00000000000E+00 -0.45593999997E+02  0.45594000000E+02  0.51100000000E-03 0.  1.
    9900012    2    1    2    0    0 -0.42165147406E+02 -0.82220984938E+01  0.61743428461E+01  0.47787250364E+02  0.19999905708E+02 0.  0.
        -12    1    1    2    0    0  0.42165147406E+02  0.82220984938E+01 -0.61743428461E+01  0.43400749636E+02  0.00000000000E+00 0.  1.
         11    1    3    3    0    0 -0.79796636327E+01 -0.61308291823E+00  0.70916396853E+01  0.10693093848E+02  0.51100000000E-03 0. -1.
        -11    1    3    3    0    0  0.23927246771E+00 -0.13804443913E+01 -0.15701884910E+01  0.21043693092E+01  0.51100000000E-03 0.  1.
        -12    1    3    3    0    0 -0.34424756241E+02 -0.62285711843E+01  0.65289165175E+00  0.34989787207E+02  0.00000000000E+00 0.  1.
</event>
<event>
 7    1  0.3910751E-009  0.4778727E+02  0.7816164E-02  0.1312668E+00
        -11   -1    0    0    0    0  0.00000000000E+00  0.00000000000E+00  0.45593999997E+02  0.45594000000E+02  0.51100000000E-03 0.  1.
         11   -1    0    0    0    0 -0.00000000000E+00 -0.00000000000E+00 -0.45593999997E+02  0.45594000000E+02  0.51100000000E-03 0. -1.
    9900012    2    1    2    0    0 -0.70728004801E+01  0.22926030585E+02 -0.36166225235E+02  0.47787271518E+02  0.20000002159E+02 0.  0.
        -12    1    1    2    0    0  0.70728004801E+01 -0.22926030585E+02  0.36166225235E+02  0.43400728482E+02  0.00000000000E+00 0.  1.
         11    1    3    3    0    0 -0.32887070412E+01 -0.11442721965E+01 -0.32075889715E+00  0.34968327661E+01  0.51100000000E-03 0. -1.
        -11    1    3    3    0    0  0.25970843590E+01  0.46610628305E+01 -0.10102205509E+02  0.11424749901E+02  0.51100000000E-03 0.  1.
         12    1    3    3    0    0 -0.63811777978E+01  0.19409239951E+02 -0.25743260829E+02  0.32865688851E+02  0.00000000000E+00 0. -1.
</event>
<event>
 7    1  0.3910751E-009  0.4778725E+02  0.7816164E-02  0.1312668E+00
        -11   -1    0    0    0    0  0.00000000000E+00  0.00000000000E+00  0.45593999997E+02  0.45594000000E+02  0.51100000000E-03 0.  1.
         11   -1    0    0    0    0 -0.00000000000E+00 -0.00000000000E+00 -0.45593999997E+02  0.45594000000E+02  0.51100000000E-03 0. -1.
    9900012    2    1    2    0    0 -0.22496956756E+02  0.36178691264E+02 -0.82833704741E+01  0.47787251260E+02  0.19999909793E+02 0.  0.
        -12    1    1    2    0    0  0.22496956756E+02 -0.36178691264E+02  0.82833704741E+01  0.43400748740E+02  0.00000000000E+00 0.  1.
         11    1    3    3    0    0 -0.58129804796E+01  0.23450375175E+02 -0.84065192728E+01  0.25580860119E+02  0.51100000000E-03 0. -1.
        -11    1    3    3    0    0 -0.65138629042E+00  0.83028081757E-01  0.16042694665E+01  0.17334585498E+01  0.51100000000E-03 0.  1.
        -12    1    3    3    0    0 -0.16032589986E+02  0.12645288007E+02 -0.14811206678E+01  0.20472932590E+02  0.00000000000E+00 0.  1.
</event>
<event>
 7    1  0.3910751E-009  0.4778726E+02  0.7816164E-02  0.1312668E+00
        -11   -1    0    0    0    0  0.00000000000E+00  0.00000000000E+00  0.45593999997E+02  0.45594000000E+02  0.51100000000E-03 0. -1.
         11   -1    0    0    0    0 -0.00000000000E+00 -0.00000000000E+00 -0.45593999997E+02  0.45594000000E+02  0.51100000000E-03 0.  1.
    9900012    2    1    2    0    0 -0.42469150818E+02  0.22155305926E+01  0.86652519171E+01  0.47787263396E+02  0.19999965127E+02 0.  0.
        -12    1    1    2    0    0  0.42469150818E+02 -0.22155305926E+01 -0.86652519171E+01  0.43400736604E+02  0.00000000000E+00 0.  1.
         11    1    3    3    0    0 -0.30080583400E+02  0.26868294976E+01 -0.17103381516E+00  0.30200824546E+02  0.51100000000E-03 0. -1.
        -11    1    3    3    0    0 -0.65012615439E+01 -0.19484252539E+01 -0.95239290804E-01  0.67876235470E+01  0.51100000000E-03 0.  1.
        -12    1    3    3    0    0 -0.58873058741E+01  0.14771263489E+01  0.89315250230E+01  0.10798815303E+02  0.00000000000E+00 0.  1.
</event>
<event>
 7    1  0.3910751E-009  0.4778728E+02  0.7816164E-02  0.1312668E+00
        -11   -1    0    0    0    0  0.00000000000E+00  0.00000000000E+00  0.45593999997E+02  0.45594000000E+02  0.51100000000E-03 0. -1.
         11   -1    0    0    0    0 -0.00000000000E+00 -0.00000000000E+00 -0.45593999997E+02  0.45594000000E+02  0.51100000000E-03 0.  1.
    9900012    2    1    2    0    0 -0.10414579552E+02 -0.38326446972E+02  0.17499797794E+02  0.47787275034E+02  0.20000018191E+02 0.  0.
        -12    1    1    2    0    0  0.10414579552E+02  0.38326446972E+02 -0.17499797794E+02  0.43400724966E+02  0.00000000000E+00 0.  1.
         11    1    3    3    0    0 -0.10524032476E+02 -0.78014713801E+01  0.56273739197E+01  0.14257824264E+02  0.51100000000E-03 0. -1.
        -11    1    3    3    0    0 -0.63054378160E+00 -0.12749499559E+01 -0.81323555567E+00  0.16384246033E+01  0.51100000000E-03 0.  1.
        -12    1    3    3    0    0  0.73999670506E+00 -0.29250025636E+02  0.12685659430E+02  0.31891026167E+02  0.00000000000E+00 0.  1.
</event>
<event>
 7    1  0.3910751E-009  0.4778727E+02  0.7816164E-02  0.1312668E+00
        -11   -1    0    0    0    0  0.00000000000E+00  0.00000000000E+00  0.45593999997E+02  0.45594000000E+02  0.51100000000E-03 0.  1.
         11   -1    0    0    0    0 -0.00000000000E+00 -0.00000000000E+00 -0.45593999997E+02  0.45594000000E+02  0.51100000000E-03 0. -1.
    9900012    2    1    2    0    0  0.68334872314E+01  0.27887191852E+02 -0.32545838851E+02  0.47787266784E+02  0.19999980576E+02 0.  0.
        -12    1    1    2    0    0 -0.68334872314E+01 -0.27887191852E+02  0.32545838851E+02  0.43400733216E+02  0.00000000000E+00 0.  1.
         11    1    3    3    0    0  0.53020991978E+01  0.27763159242E+01 -0.53238998828E+01  0.80102494491E+01  0.51100000000E-03 0.  1.
        -11    1    3    3    0    0  0.29576967805E+01  0.78096652240E+01 -0.11148834984E+01  0.84250701262E+01  0.51100000000E-03 0. -1.
        -12    1    3    3    0    0 -0.14263087469E+01  0.17301210704E+02 -0.26107055470E+02  0.31351947209E+02  0.00000000000E+00 0.  1.
</event>
<event>
 7    1  0.3910751E-009  0.4778727E+02  0.7816164E-02  0.1312668E+00
        -11   -1    0    0    0    0  0.00000000000E+00  0.00000000000E+00  0.45593999997E+02  0.45594000000E+02  0.51100000000E-03 0.  1.
         11   -1    0    0    0    0 -0.00000000000E+00 -0.00000000000E+00 -0.45593999997E+02  0.45594000000E+02  0.51100000000E-03 0. -1.
    9900012    2    1    2    0    0 -0.34265352645E+02  0.37313635121E+01 -0.26373964689E+02  0.47787268682E+02  0.19999989228E+02 0.  0.
        -12    1    1    2    0    0  0.34265352645E+02 -0.37313635121E+01  0.26373964689E+02  0.43400731318E+02  0.00000000000E+00 0.  1.
         11    1    3    3    0    0 -0.45962041237E+01 -0.29816052086E+01 -0.43480244348E+01  0.69943104530E+01  0.51100000000E-03 0. -1.
        -11    1    3    3    0    0  0.18448727874E+01 -0.68266616129E-01 -0.24903686380E+01  0.31000245397E+01  0.51100000000E-03 0.  1.
         12    1    3    3    0    0 -0.31514021309E+02  0.67812353368E+01 -0.19535571616E+02  0.37692933689E+02  0.00000000000E+00 0. -1.
</event>
<event>
 7    1  0.3910751E-009  0.4778726E+02  0.7816164E-02  0.1312668E+00
        -11   -1    0    0    0    0  0.00000000000E+00  0.00000000000E+00  0.45593999997E+02  0.45594000000E+02  0.51100000000E-03 0.  1.
         11   -1    0    0    0    0 -0.00000000000E+00 -0.00000000000E+00 -0.45593999997E+02  0.45594000000E+02  0.51100000000E-03 0. -1.
    9900012    2    1    2    0    0  0.22511981091E+02  0.36906138326E+02 -0.38434075766E+01  0.47787261290E+02  0.19999955526E+02 0.  0.
        -12    1    1    2    0    0 -0.22511981091E+02 -0.36906138326E+02  0.38434075766E+01  0.43400738710E+02  0.00000000000E+00 0.  1.
         11    1    3    3    0    0  0.49917350034E+00  0.80790167429E+00 -0.21118602985E+01  0.23155633182E+01  0.51100000000E-03 0. -1.
        -11    1    3    3    0    0  0.25648028481E+01  0.18607956174E+02 -0.40421032176E+01  0.19213871169E+02  0.51100000000E-03 0.  1.
         12    1    3    3    0    0  0.19448004742E+02  0.17490280478E+02  0.23105559395E+01  0.26257826803E+02  0.00000000000E+00 0. -1.
</event>
<event>
 7    1  0.3910751E-009  0.4778727E+02  0.7816164E-02  0.1312668E+00
        -11   -1    0    0    0    0  0.00000000000E+00  0.00000000000E+00  0.45593999997E+02  0.45594000000E+02  0.51100000000E-03 0. -1.
         11   -1    0    0    0    0 -0.00000000000E+00 -0.00000000000E+00 -0.45593999997E+02  0.45594000000E+02  0.51100000000E-03 0.  1.
    9900012    2    1    2    0    0 -0.38829287754E+01 -0.43156482005E+02  0.24625431771E+01  0.47787271967E+02  0.20000004206E+02 0.  0.
        -12    1    1    2    0    0  0.38829287754E+01  0.43156482005E+02 -0.24625431771E+01  0.43400728033E+02  0.00000000000E+00 0.  1.
         11    1    3    3    0    0  0.15682298754E+01 -0.56594415274E+01 -0.65446012990E+01  0.87932036123E+01  0.51100000000E-03 0.  1.
        -11    1    3    3    0    0 -0.66090226128E+00 -0.60568062128E+01  0.21432757143E+01  0.64587401517E+01  0.51100000000E-03 0. -1.
        -12    1    3    3    0    0 -0.47902563896E+01 -0.31440234265E+02  0.68638687618E+01  0.32535328203E+02  0.00000000000E+00 0.  1.
</event>
<event>
 7    1  0.3910751E-009  0.4778727E+02  0.7816164E-02  0.1312668E+00
        -11   -1    0    0    0    0  0.00000000000E+00  0.00000000000E+00  0.45593999997E+02  0.45594000000E+02  0.51100000000E-03 0.  1.
         11   -1    0    0    0    0 -0.00000000000E+00 -0.00000000000E+00 -0.45593999997E+02  0.45594000000E+02  0.51100000000E-03 0. -1.
    9900012    2    1    2    0    0 -0.26164023700E+01 -0.43301469365E+02  0.13267656420E+01  0.47787272845E+02  0.20000008207E+02 0.  0.
        -12    1    1    2    0    0  0.26164023700E+01  0.43301469365E+02 -0.13267656420E+01  0.43400727155E+02  0.00000000000E+00 0.  1.
         11    1    3    3    0    0  0.46761191234E+00  0.71432652550E+00  0.10669884486E+01  0.13665240196E+01  0.51100000000E-03 0. -1.
        -11    1    3    3    0    0 -0.62513828339E+01 -0.11926334773E+02  0.37743447203E+01  0.13984381530E+02  0.51100000000E-03 0.  1.
         12    1    3    3    0    0  0.31673685515E+01 -0.32089461118E+02 -0.35145675270E+01  0.32436367295E+02  0.00000000000E+00 0. -1.
</event>
<event>
 7    1  0.3910751E-009  0.4778727E+02  0.7816164E-02  0.1312668E+00
        -11   -1    0    0    0    0  0.00000000000E+00  0.00000000000E+00  0.45593999997E+02  0.45594000000E+02  0.51100000000E-03 0.  1.
         11   -1    0    0    0    0 -0.00000000000E+00 -0.00000000000E+00 -0.45593999997E+02  0.45594000000E+02  0.51100000000E-03 0. -1.
    9900012    2    1    2    0    0  0.21579401583E+01 -0.59529502737E+01 -0.42936337018E+02  0.47787270062E+02  0.19999995519E+02 0.  0.
        -12    1    1    2    0    0 -0.21579401583E+01  0.59529502737E+01  0.42936337018E+02  0.43400729938E+02  0.00000000000E+00 0.  1.
         11    1    3    3    0    0  0.11693101338E+01 -0.26499258862E+01 -0.34408202348E+01  0.44976257671E+01  0.51100000000E-03 0. -1.
        -11    1    3    3    0    0  0.24672036727E+01  0.20961520101E+01 -0.37032574153E+02  0.37173814653E+02  0.51100000000E-03 0.  1.
        -12    1    3    3    0    0 -0.14785736482E+01 -0.53991763976E+01 -0.24629426297E+01  0.61158296414E+01  0.00000000000E+00 0.  1.
</event>
<event>
 7    1  0.3910751E-009  0.4778727E+02  0.7816164E-02  0.1312668E+00
        -11   -1    0    0    0    0  0.00000000000E+00  0.00000000000E+00  0.45593999997E+02  0.45594000000E+02  0.51100000000E-03 0.  1.
         11   -1    0    0    0    0 -0.00000000000E+00 -0.00000000000E+00 -0.45593999997E+02  0.45594000000E+02  0.51100000000E-03 0. -1.
    9900012    2    1    2    0    0 -0.23049713053E+02  0.36687037059E+02 -0.25288611177E+01  0.47787273064E+02  0.20000009208E+02 0.  0.
        -12    1    1    2    0    0  0.23049713053E+02 -0.36687037059E+02  0.25288611177E+01  0.43400726936E+02  0.00000000000E+00 0.  1.
         11    1    3    3    0    0 -0.24012537076E+01  0.17059362056E+00  0.20931125485E+01  0.31900222497E+01  0.51100000000E-03 0. -1.
        -11    1    3    3    0    0 -0.16496624149E+02  0.16357390187E+02 -0.59208925466E+01  0.23974148387E+02  0.51100000000E-03 0.  1.
         12    1    3    3    0    0 -0.41518351967E+01  0.20159053251E+02  0.12989188804E+01  0.20623102428E+02  0.00000000000E+00 0. -1.
</event>
<event>
 7    1  0.3910751E-009  0.4778727E+02  0.7816164E-02  0.1312668E+00
        -11   -1    0    0    0    0  0.00000000000E+00  0.00000000000E+00  0.45593999997E+02  0.45594000000E+02  0.51100000000E-03 0. -1.
         11   -1    0    0    0    0 -0.00000000000E+00 -0.00000000000E+00 -0.45593999997E+02  0.45594000000E+02  0.51100000000E-03 0.  1.
    9900012    2    1    2    0    0 -0.34305751517E+02  0.26566872511E+02  0.96963287457E+00  0.47787268554E+02  0.19999988643E+02 0.  0.
        -12    1    1    2    0    0  0.34305751517E+02 -0.26566872511E+02 -0.96963287457E+00  0.43400731446E+02  0.00000000000E+00 0.  1.
         11    1    3    3    0    0 -0.30147122254E+02  0.28742930435E+02  0.37503131817E+01  0.41821882782E+02  0.51100000000E-03 0. -1.
        -11    1    3    3    0    0  0.18040928923E+00 -0.23757035951E+00 -0.73161325712E+00  0.79009202405E+00  0.51100000000E-03 0.  1.
         12    1    3    3    0    0 -0.43390385526E+01 -0.19384875647E+01 -0.20490670500E+01  0.51752937477E+01  0.00000000000E+00 0. -1.
</event>
<event>
 7    1  0.3910751E-009  0.4778727E+02  0.7816164E-02  0.1312668E+00
        -11   -1    0    0    0    0  0.00000000000E+00  0.00000000000E+00  0.45593999997E+02  0.45594000000E+02  0.51100000000E-03 0. -1.
         11   -1    0    0    0    0 -0.00000000000E+00 -0.00000000000E+00 -0.45593999997E+02  0.45594000000E+02  0.51100000000E-03 0.  1.
    9900012    2    1    2    0    0  0.34996870404E+02  0.14076396189E+02  0.21463872112E+02  0.47787266437E+02  0.19999978994E+02 0.  0.
        -12    1    1    2    0    0 -0.34996870404E+02 -0.14076396189E+02 -0.21463872112E+02  0.43400733563E+02  0.00000000000E+00 0.  1.
         11    1    3    3    0    0  0.13577222107E+02  0.79180309126E+01  0.94495346324E+01  0.18339298752E+02  0.51100000000E-03 0. -1.
        -11    1    3    3    0    0  0.22850988622E+00  0.35083524013E+01  0.65022725338E+01  0.73919078529E+01  0.51100000000E-03 0.  1.
        -12    1    3    3    0    0  0.21191138410E+02  0.26500128752E+01  0.55120649460E+01  0.22056059832E+02  0.00000000000E+00 0.  1.
</event>
<event>
 7    1  0.3910751E-009  0.4778727E+02  0.7816164E-02  0.1312668E+00
        -11   -1    0    0    0    0  0.00000000000E+00  0.00000000000E+00  0.45593999997E+02  0.45594000000E+02  0.51100000000E-03 0. -1.
         11   -1    0    0    0    0 -0.00000000000E+00 -0.00000000000E+00 -0.45593999997E+02  0.45594000000E+02  0.51100000000E-03 0.  1.
    9900012    2    1    2    0    0  0.37374741884E+02  0.42757456607E+01 -0.21644158538E+02  0.47787274998E+02  0.20000018026E+02 0.  0.
        -12    1    1    2    0    0 -0.37374741884E+02 -0.42757456607E+01  0.21644158538E+02  0.43400725002E+02  0.00000000000E+00 0.  1.
         11    1    3    3    0    0  0.96762435561E+01  0.14199488897E+01 -0.11286697230E+02  0.14934372395E+02  0.51100000000E-03 0.  1.
        -11    1    3    3    0    0  0.24821678956E+02 -0.37465039055E+00 -0.39721167449E+01  0.25140282830E+02  0.51100000000E-03 0. -1.
         12    1    3    3    0    0  0.28768193724E+01  0.32304471616E+01 -0.63853445638E+01  0.77126197731E+01  0.00000000000E+00 0. -1.
</event>
<event>
 7    1  0.3910751E-009  0.4778727E+02  0.7816164E-02  0.1312668E+00
        -11   -1    0    0    0    0  0.00000000000E+00  0.00000000000E+00  0.45593999997E+02  0.45594000000E+02  0.51100000000E-03 0. -1.
         11   -1    0    0    0    0 -0.00000000000E+00 -0.00000000000E+00 -0.45593999997E+02  0.45594000000E+02  0.51100000000E-03 0.  1.
    9900012    2    1    2    0    0  0.38762044761E+02  0.17069310566E+02  0.94744960112E+01  0.47787267841E+02  0.19999985396E+02 0.  0.
        -12    1    1    2    0    0 -0.38762044761E+02 -0.17069310566E+02 -0.94744960112E+01  0.43400732159E+02  0.00000000000E+00 0.  1.
         11    1    3    3    0    0  0.81378289115E+01  0.61162722566E+01  0.10299025931E+02  0.14481124994E+02  0.51100000000E-03 0. -1.
        -11    1    3    3    0    0  0.62045329074E+01  0.25892356305E+01  0.27182893237E+01  0.72518595448E+01  0.51100000000E-03 0.  1.
        -12    1    3    3    0    0  0.24419682942E+02  0.83638026793E+01 -0.35428192430E+01  0.26054283303E+02  0.00000000000E+00 0.  1.
</event>
<event>
 7    1  0.3910751E-009  0.4778727E+02  0.7816164E-02  0.1312668E+00
        -11   -1    0    0    0    0  0.00000000000E+00  0.00000000000E+00  0.45593999997E+02  0.45594000000E+02  0.51100000000E-03 0.  1.
         11   -1    0    0    0    0 -0.00000000000E+00 -0.00000000000E+00 -0.45593999997E+02  0.45594000000E+02  0.51100000000E-03 0. -1.
    9900012    2    1    2    0    0  0.16968437334E+01  0.40340608100E+02 -0.15917896708E+02  0.47787269866E+02  0.19999994629E+02 0.  0.
        -12    1    1    2    0    0 -0.16968437334E+01 -0.40340608100E+02  0.15917896708E+02  0.43400730134E+02  0.00000000000E+00 0.  1.
         11    1    3    3    0    0  0.65491956215E+01  0.56887608230E+01 -0.62533911122E+01  0.10693870378E+02  0.51100000000E-03 0. -1.
        -11    1    3    3    0    0 -0.25769195628E+01  0.25971742772E+01 -0.13508390872E+01  0.39000763018E+01  0.51100000000E-03 0.  1.
         12    1    3    3    0    0 -0.22754323254E+01  0.32054673000E+02 -0.83136665087E+01  0.33193323187E+02  0.00000000000E+00 0. -1.
</event>
<event>
 7    1  0.3910751E-009  0.4778727E+02  0.7816164E-02  0.1312668E+00
        -11   -1    0    0    0    0  0.00000000000E+00  0.00000000000E+00  0.45593999997E+02  0.45594000000E+02  0.51100000000E-03 0. -1.
         11   -1    0    0    0    0 -0.00000000000E+00 -0.00000000000E+00 -0.45593999997E+02  0.45594000000E+02  0.51100000000E-03 0.  1.
    9900012    2    1    2    0    0 -0.29728181978E+02  0.90223570011E+01  0.30306031210E+02  0.47787271235E+02  0.20000000870E+02 0.  0.
        -12    1    1    2    0    0  0.29728181978E+02 -0.90223570011E+01 -0.30306031210E+02  0.43400728765E+02  0.00000000000E+00 0.  1.
         11    1    3    3    0    0 -0.26124128526E+02  0.10118632840E+02  0.14754734592E+02  0.31663212328E+02  0.51100000000E-03 0. -1.
        -11    1    3    3    0    0 -0.11798065076E+01 -0.46117822479E+00  0.21916366856E+01  0.25313830949E+01  0.51100000000E-03 0.  1.
        -12    1    3    3    0    0 -0.24242469448E+01 -0.63509761397E+00  0.13359659932E+02  0.13592675812E+02  0.00000000000E+00 0.  1.
</event>
<event>
 7    1  0.3910751E-009  0.4778728E+02  0.7816164E-02  0.1312668E+00
        -11   -1    0    0    0    0  0.00000000000E+00  0.00000000000E+00  0.45593999997E+02  0.45594000000E+02  0.51100000000E-03 0.  1.
         11   -1    0    0    0    0 -0.00000000000E+00 -0.00000000000E+00 -0.45593999997E+02  0.45594000000E+02  0.51100000000E-03 0. -1.
    9900012    2    1    2    0    0 -0.33907371365E+02  0.26369543362E+02  0.62096592296E+01  0.47787279755E+02  0.20000039716E+02 0.  0.
        -12    1    1    2    0    0  0.33907371365E+02 -0.26369543362E+02 -0.62096592296E+01  0.43400720245E+02  0.00000000000E+00 0.  1.
         11    1    3    3    0    0 -0.73408075918E+01  0.10879338120E+02  0.51823561467E+01  0.14110431231E+02  0.51100000000E-03 0. -1.
        -11    1    3    3    0    0 -0.46624808310E+01 -0.62946176378E+00  0.41865389029E+01  0.62977819793E+01  0.51100000000E-03 0.  1.
         12    1    3    3    0    0 -0.21904082942E+02  0.16119667006E+02 -0.31592358200E+01  0.27379066545E+02  0.00000000000E+00 0. -1.
</event>
<event>
 7    1  0.3910751E-009  0.4778727E+02  0.7816164E-02  0.1312668E+00
        -11   -1    0    0    0    0  0.00000000000E+00  0.00000000000E+00  0.45593999997E+02  0.45594000000E+02  0.51100000000E-03 0.  1.
         11   -1    0    0    0    0 -0.00000000000E+00 -0.00000000000E+00 -0.45593999997E+02  0.45594000000E+02  0.51100000000E-03 0. -1.
    9900012    2    1    2    0    0  0.38064200587E+01 -0.34341899069E+02 -0.26263441377E+02  0.47787271685E+02  0.20000002921E+02 0.  0.
        -12    1    1    2    0    0 -0.38064200587E+01  0.34341899069E+02  0.26263441377E+02  0.43400728315E+02  0.00000000000E+00 0.  1.
         11    1    3    3    0    0 -0.74811929657E+00 -0.30643413841E+01  0.10134238760E+01  0.33131403251E+01  0.51100000000E-03 0. -1.
        -11    1    3    3    0    0 -0.23351176773E+01 -0.73121868901E+01 -0.14613628037E+02  0.16506937219E+02  0.51100000000E-03 0.  1.
         12    1    3    3    0    0  0.68896570326E+01 -0.23965370795E+02 -0.12663237216E+02  0.27967194141E+02  0.00000000000E+00 0. -1.
</event>
<event>
 7    1  0.3910751E-009  0.4778727E+02  0.7816164E-02  0.1312668E+00
        -11   -1    0    0    0    0  0.00000000000E+00  0.00000000000E+00  0.45593999997E+02  0.45594000000E+02  0.51100000000E-03 0.  1.
         11   -1    0    0    0    0 -0.00000000000E+00 -0.00000000000E+00 -0.45593999997E+02  0.45594000000E+02  0.51100000000E-03 0. -1.
    9900012    2    1    2    0    0 -0.17697254193E+02  0.47387800601E+01 -0.39344304502E+02  0.47787272596E+02  0.20000007075E+02 0.  0.
        -12    1    1    2    0    0  0.17697254193E+02 -0.47387800601E+01  0.39344304502E+02  0.43400727404E+02  0.00000000000E+00 0.  1.
         11    1    3    3    0    0 -0.12905076249E+02 -0.38634366113E+01 -0.10953484732E+02  0.17362199270E+02  0.51100000000E-03 0. -1.
        -11    1    3    3    0    0 -0.35185850422E+01  0.39284693785E+01 -0.89356380701E+01  0.10375882629E+02  0.51100000000E-03 0.  1.
        -12    1    3    3    0    0 -0.12735929018E+01  0.46737472930E+01 -0.19455181700E+02  0.20049190697E+02  0.00000000000E+00 0.  1.
</event>
<event>
 7    1  0.3910751E-009  0.4778727E+02  0.7816164E-02  0.1312668E+00
        -11   -1    0    0    0    0  0.00000000000E+00  0.00000000000E+00  0.45593999997E+02  0.45594000000E+02  0.51100000000E-03 0. -1.
         11   -1    0    0    0    0 -0.00000000000E+00 -0.00000000000E+00 -0.45593999997E+02  0.45594000000E+02  0.51100000000E-03 0.  1.
    9900012    2    1    2    0    0  0.70297178348E+01  0.42812348147E+02  0.11442648453E+01  0.47787269261E+02  0.19999991867E+02 0.  0.
        -12    1    1    2    0    0 -0.70297178348E+01 -0.42812348147E+02 -0.11442648453E+01  0.43400730739E+02  0.00000000000E+00 0.  1.
         11    1    3    3    0    0  0.10013054017E+01  0.30846637981E+01  0.20106576616E+01  0.38158233382E+01  0.51100000000E-03 0. -1.
        -11    1    3    3    0    0  0.70211245014E+01  0.19077781828E+02  0.75011601410E+01  0.21668533694E+02  0.51100000000E-03 0.  1.
         12    1    3    3    0    0 -0.99271206836E+00  0.20649902521E+02 -0.83675529572E+01  0.22302912228E+02  0.00000000000E+00 0. -1.
</event>
<event>
 7    1  0.3910751E-009  0.4778727E+02  0.7816164E-02  0.1312668E+00
        -11   -1    0    0    0    0  0.00000000000E+00  0.00000000000E+00  0.45593999997E+02  0.45594000000E+02  0.51100000000E-03 0.  1.
         11   -1    0    0    0    0 -0.00000000000E+00 -0.00000000000E+00 -0.45593999997E+02  0.45594000000E+02  0.51100000000E-03 0. -1.
    9900012    2    1    2    0    0 -0.21316872397E+02  0.49226872623E+00 -0.37801744673E+02  0.47787271001E+02  0.19999999804E+02 0.  0.
        -12    1    1    2    0    0  0.21316872397E+02 -0.49226872623E+00  0.37801744673E+02  0.43400728999E+02  0.00000000000E+00 0.  1.
         11    1    3    3    0    0 -0.12676507564E+02  0.15606428867E+01 -0.11365138880E+02  0.17096661436E+02  0.51100000000E-03 0. -1.
        -11    1    3    3    0    0 -0.10083910290E+02  0.35780174154E+01 -0.18942758884E+02  0.21755816917E+02  0.51100000000E-03 0.  1.
         12    1    3    3    0    0  0.14435454565E+01 -0.46463915759E+01 -0.74938469094E+01  0.89347926480E+01  0.00000000000E+00 0. -1.
</event>
<event>
 7    1  0.3910751E-009  0.4778727E+02  0.7816164E-02  0.1312668E+00
        -11   -1    0    0    0    0  0.00000000000E+00  0.00000000000E+00  0.45593999997E+02  0.45594000000E+02  0.51100000000E-03 0.  1.
         11   -1    0    0    0    0 -0.00000000000E+00 -0.00000000000E+00 -0.45593999997E+02  0.45594000000E+02  0.51100000000E-03 0. -1.
    9900012    2    1    2    0    0 -0.73704671376E+01 -0.35212750264E+02 -0.24276775257E+02  0.47787269778E+02  0.19999994225E+02 0.  0.
        -12    1    1    2    0    0  0.73704671376E+01  0.35212750264E+02  0.24276775257E+02  0.43400730222E+02  0.00000000000E+00 0.  1.
         11    1    3    3    0    0 -0.11909428030E+02 -0.17520943238E+02 -0.16460473019E+02  0.26828438274E+02  0.51100000000E-03 0. -1.
        -11    1    3    3    0    0 -0.16421283848E+01 -0.35925822542E+01 -0.24873108293E+01  0.46679704699E+01  0.51100000000E-03 0.  1.
        -12    1    3    3    0    0  0.61810892771E+01 -0.14099224771E+02 -0.53289914088E+01  0.16290861034E+02  0.00000000000E+00 0.  1.
</event>
<event>
 7    1  0.3910751E-009  0.4778727E+02  0.7816164E-02  0.1312668E+00
        -11   -1    0    0    0    0  0.00000000000E+00  0.00000000000E+00  0.45593999997E+02  0.45594000000E+02  0.51100000000E-03 0.  1.
         11   -1    0    0    0    0 -0.00000000000E+00 -0.00000000000E+00 -0.45593999997E+02  0.45594000000E+02  0.51100000000E-03 0. -1.
    9900012    2    1    2    0    0 -0.23575309017E+02  0.32573275539E+02 -0.16334316585E+02  0.47787269903E+02  0.19999994798E+02 0.  0.
        -12    1    1    2    0    0  0.23575309017E+02 -0.32573275539E+02  0.16334316585E+02  0.43400730097E+02  0.00000000000E+00 0.  1.
         11    1    3    3    0    0 -0.14150759212E+01  0.65940642472E+01 -0.34379577132E+01  0.75699191976E+01  0.51100000000E-03 0. -1.
        -11    1    3    3    0    0  0.92822512918E+00  0.13536738764E+01 -0.53927968761E+01  0.56370465017E+01  0.51100000000E-03 0.  1.
         12    1    3    3    0    0 -0.23088458225E+02  0.24625537416E+02 -0.75035619955E+01  0.34580304204E+02  0.00000000000E+00 0. -1.
</event>
<event>
 7    1  0.3910751E-009  0.4778727E+02  0.7816164E-02  0.1312668E+00
        -11   -1    0    0    0    0  0.00000000000E+00  0.00000000000E+00  0.45593999997E+02  0.45594000000E+02  0.51100000000E-03 0.  1.
         11   -1    0    0    0    0 -0.00000000000E+00 -0.00000000000E+00 -0.45593999997E+02  0.45594000000E+02  0.51100000000E-03 0. -1.
    9900012    2    1    2    0    0  0.32778082466E+02  0.15453097358E+01 -0.28404796325E+02  0.47787272741E+02  0.20000007736E+02 0.  0.
        -12    1    1    2    0    0 -0.32778082466E+02 -0.15453097358E+01  0.28404796325E+02  0.43400727259E+02  0.00000000000E+00 0.  1.
         11    1    3    3    0    0  0.18760707719E+02  0.16435720123E+01 -0.18926265717E+02  0.26699607063E+02  0.51100000000E-03 0. -1.
        -11    1    3    3    0    0  0.17190784088E+01 -0.44938270036E+00 -0.85684511099E+01  0.87507445438E+01  0.51100000000E-03 0.  1.
         12    1    3    3    0    0  0.12298296338E+02  0.35112042384E+00 -0.91007949790E+00  0.12336921134E+02  0.00000000000E+00 0. -1.
</event>
<event>
 7    1  0.3910751E-009  0.4778728E+02  0.7816164E-02  0.1312668E+00
        -11   -1    0    0    0    0  0.00000000000E+00  0.00000000000E+00  0.45593999997E+02  0.45594000000E+02  0.51100000000E-03 0.  1.
         11   -1    0    0    0    0 -0.00000000000E+00 -0.00000000000E+00 -0.45593999997E+02  0.45594000000E+02  0.51100000000E-03 0. -1.
    9900012    2    1    2    0    0  0.38580511147E+01 -0.20721417717E+02 -0.37938911828E+02  0.47787277180E+02  0.20000027974E+02 0.  0.
        -12    1    1    2    0    0 -0.38580511147E+01  0.20721417717E+02  0.37938911828E+02  0.43400722820E+02  0.00000000000E+00 0.  1.
         11    1    3    3    0    0  0.46990271946E+01 -0.79016911581E+01 -0.18470963302E+02  0.20632354817E+02  0.51100000000E-03 0. -1.
        -11    1    3    3    0    0  0.43336682021E+01 -0.28656693893E+01 -0.63556825743E+00  0.52341845979E+01  0.51100000000E-03 0.  1.
        -12    1    3    3    0    0 -0.51746442819E+01 -0.99540571697E+01 -0.18832380269E+02  0.21920737765E+02  0.00000000000E+00 0.  1.
</event>
<event>
 7    1  0.3910751E-009  0.4778727E+02  0.7816164E-02  0.1312668E+00
        -11   -1    0    0    0    0  0.00000000000E+00  0.00000000000E+00  0.45593999997E+02  0.45594000000E+02  0.51100000000E-03 0.  1.
         11   -1    0    0    0    0 -0.00000000000E+00 -0.00000000000E+00 -0.45593999997E+02  0.45594000000E+02  0.51100000000E-03 0. -1.
    9900012    2    1    2    0    0 -0.18397063448E+02 -0.39126482800E+02  0.37802229491E+01  0.47787266303E+02  0.19999978384E+02 0.  0.
        -12    1    1    2    0    0  0.18397063448E+02  0.39126482800E+02 -0.37802229491E+01  0.43400733697E+02  0.00000000000E+00 0.  1.
         11    1    3    3    0    0 -0.15308992726E+01 -0.60459454006E+01 -0.34446619361E+01  0.71248020664E+01  0.51100000000E-03 0. -1.
        -11    1    3    3    0    0 -0.85031443945E+01 -0.29083316211E+02  0.29164686795E+01  0.30440902356E+02  0.51100000000E-03 0.  1.
        -12    1    3    3    0    0 -0.83630197811E+01 -0.39972211892E+01  0.43084162057E+01  0.10221561881E+02  0.00000000000E+00 0.  1.
</event>
<event>
 7    1  0.4114802E-009  0.4778727E+02  0.7816164E-02  0.1312668E+00
        -11   -1    0    0    0    0  0.00000000000E+00  0.00000000000E+00  0.45593999997E+02  0.45594000000E+02  0.51100000000E-03 0. -1.
         11   -1    0    0    0    0 -0.00000000000E+00 -0.00000000000E+00 -0.45593999997E+02  0.45594000000E+02  0.51100000000E-03 0.  1.
    9900012    2    1    2    0    0 -0.43328858354E+02 -0.42051462581E+00  0.24609572083E+01  0.47787272942E+02  0.20000008650E+02 0.  0.
        -12    1    1    2    0    0  0.43328858354E+02  0.42051462581E+00 -0.24609572083E+01  0.43400727058E+02  0.00000000000E+00 0.  1.
         11    1    3    3    0    0 -0.18660598023E+02  0.47981598956E+00  0.33999155778E+01  0.18973865398E+02  0.51100000000E-03 0. -1.
        -11    1    3    3    0    0 -0.13756189302E+01 -0.21463934981E+01 -0.45442139562E+01  0.52104906901E+01  0.51100000000E-03 0.  1.
        -12    1    3    3    0    0 -0.23292641401E+02  0.12460628828E+01  0.36052555867E+01  0.23602916853E+02  0.00000000000E+00 0.  1.
</event>
<event>
 7    1  0.3910751E-009  0.4778727E+02  0.7816164E-02  0.1312668E+00
        -11   -1    0    0    0    0  0.00000000000E+00  0.00000000000E+00  0.45593999997E+02  0.45594000000E+02  0.51100000000E-03 0.  1.
         11   -1    0    0    0    0 -0.00000000000E+00 -0.00000000000E+00 -0.45593999997E+02  0.45594000000E+02  0.51100000000E-03 0. -1.
    9900012    2    1    2    0    0 -0.19774539121E+02  0.37820387358E+02  0.78872903220E+01  0.47787269062E+02  0.19999990960E+02 0.  0.
        -12    1    1    2    0    0  0.19774539121E+02 -0.37820387358E+02 -0.78872903220E+01  0.43400730938E+02  0.00000000000E+00 0.  1.
         11    1    3    3    0    0 -0.67604406457E+01  0.17317348064E+02  0.94065488048E+01  0.20834520930E+02  0.51100000000E-03 0. -1.
        -11    1    3    3    0    0 -0.36742298900E-01  0.32380230249E+01  0.35109474341E+01  0.47762846703E+01  0.51100000000E-03 0.  1.
        -12    1    3    3    0    0 -0.12977356177E+02  0.17265016269E+02 -0.50302059168E+01  0.22176463461E+02  0.00000000000E+00 0.  1.
</event>
<event>
 7    1  0.3910751E-009  0.4778727E+02  0.7816164E-02  0.1312668E+00
        -11   -1    0    0    0    0  0.00000000000E+00  0.00000000000E+00  0.45593999997E+02  0.45594000000E+02  0.51100000000E-03 0.  1.
         11   -1    0    0    0    0 -0.00000000000E+00 -0.00000000000E+00 -0.45593999997E+02  0.45594000000E+02  0.51100000000E-03 0. -1.
    9900012    2    1    2    0    0  0.15162751748E+02  0.23046353489E+01 -0.40600528236E+02  0.47787271000E+02  0.19999999798E+02 0.  0.
        -12    1    1    2    0    0 -0.15162751748E+02 -0.23046353489E+01  0.40600528236E+02  0.43400729000E+02  0.00000000000E+00 0.  1.
         11    1    3    3    0    0  0.14115917256E+02  0.39994161182E+00 -0.36572376899E+02  0.39204053688E+02  0.51100000000E-03 0.  1.
        -11    1    3    3    0    0  0.26945422144E+01  0.53035526485E+00 -0.53848047455E+01  0.60446635027E+01  0.51100000000E-03 0. -1.
        -12    1    3    3    0    0 -0.16477077225E+01  0.13743384722E+01  0.13566534082E+01  0.25385538097E+01  0.00000000000E+00 0.  1.
</event>
<event>
 7    1  0.3910751E-009  0.4778727E+02  0.7816164E-02  0.1312668E+00
        -11   -1    0    0    0    0  0.00000000000E+00  0.00000000000E+00  0.45593999997E+02  0.45594000000E+02  0.51100000000E-03 0. -1.
         11   -1    0    0    0    0 -0.00000000000E+00 -0.00000000000E+00 -0.45593999997E+02  0.45594000000E+02  0.51100000000E-03 0.  1.
    9900012    2    1    2    0    0 -0.41753990345E+02  0.96713826361E+01 -0.68331641517E+01  0.47787268622E+02  0.19999988953E+02 0.  0.
        -12    1    1    2    0    0  0.41753990345E+02 -0.96713826361E+01  0.68331641517E+01  0.43400731378E+02  0.00000000000E+00 0.  1.
         11    1    3    3    0    0 -0.36603213314E+01  0.43244562581E+01  0.92277692605E+00  0.57402431737E+01  0.51100000000E-03 0. -1.
        -11    1    3    3    0    0 -0.53552572637E+01  0.48106570911E+01  0.26799446227E+01  0.76813609113E+01  0.51100000000E-03 0.  1.
         12    1    3    3    0    0 -0.32738411750E+02  0.53626928690E+00 -0.10435885700E+02  0.34365664537E+02  0.00000000000E+00 0. -1.
</event>
<event>
 7    1  0.3910751E-009  0.4778727E+02  0.7816164E-02  0.1312668E+00
        -11   -1    0    0    0    0  0.00000000000E+00  0.00000000000E+00  0.45593999997E+02  0.45594000000E+02  0.51100000000E-03 0.  1.
         11   -1    0    0    0    0 -0.00000000000E+00 -0.00000000000E+00 -0.45593999997E+02  0.45594000000E+02  0.51100000000E-03 0. -1.
    9900012    2    1    2    0    0 -0.41417917652E+02  0.11383570309E+02 -0.62123838856E+01  0.47787270868E+02  0.19999999197E+02 0.  0.
        -12    1    1    2    0    0  0.41417917652E+02 -0.11383570309E+02  0.62123838856E+01  0.43400729132E+02  0.00000000000E+00 0.  1.
         11    1    3    3    0    0 -0.38409119787E+01  0.51978042120E+01  0.37878532269E+00  0.64740444882E+01  0.51100000000E-03 0. -1.
        -11    1    3    3    0    0 -0.53073438437E+01 -0.26337064889E+01  0.28195905027E+01  0.65615851293E+01  0.51100000000E-03 0.  1.
         12    1    3    3    0    0 -0.32269661830E+02  0.88194725864E+01 -0.94107597109E+01  0.34751641251E+02  0.00000000000E+00 0. -1.
</event>
<event>
 7    1  0.3910751E-009  0.4778727E+02  0.7816164E-02  0.1312668E+00
        -11   -1    0    0    0    0  0.00000000000E+00  0.00000000000E+00  0.45593999997E+02  0.45594000000E+02  0.51100000000E-03 0.  1.
         11   -1    0    0    0    0 -0.00000000000E+00 -0.00000000000E+00 -0.45593999997E+02  0.45594000000E+02  0.51100000000E-03 0. -1.
    9900012    2    1    2    0    0 -0.22143400051E+02 -0.37208696373E+02  0.29674883869E+01  0.47787271447E+02  0.20000001838E+02 0.  0.
        -12    1    1    2    0    0  0.22143400051E+02  0.37208696373E+02 -0.29674883869E+01  0.43400728553E+02  0.00000000000E+00 0.  1.
         11    1    3    3    0    0  0.91105690703E+00 -0.67541037681E+00 -0.59719798255E+00  0.12817369295E+01  0.51100000000E-03 0. -1.
        -11    1    3    3    0    0 -0.86004198849E+00 -0.76782948001E+01  0.63428025380E+01  0.99963507119E+01  0.51100000000E-03 0.  1.
         12    1    3    3    0    0 -0.22194414969E+02 -0.28854991196E+02 -0.27781161685E+01  0.36509183806E+02  0.00000000000E+00 0. -1.
</event>
<event>
 7    1  0.3910751E-009  0.4778730E+02  0.7816164E-02  0.1312668E+00
        -11   -1    0    0    0    0  0.00000000000E+00  0.00000000000E+00  0.45593999997E+02  0.45594000000E+02  0.51100000000E-03 0. -1.
         11   -1    0    0    0    0 -0.00000000000E+00 -0.00000000000E+00 -0.45593999997E+02  0.45594000000E+02  0.51100000000E-03 0.  1.
    9900012    2    1    2    0    0  0.36250468131E+02  0.23812910668E+02 -0.15713763039E+01  0.47787304410E+02  0.20000152126E+02 0.  0.
        -12    1    1    2    0    0 -0.36250468131E+02 -0.23812910668E+02  0.15713763039E+01  0.43400695590E+02  0.00000000000E+00 0.  1.
         11    1    3    3    0    0  0.91082126329E+01  0.87485110270E+01 -0.88542852788E+00  0.12660172451E+02  0.51100000000E-03 0. -1.
        -11    1    3    3    0    0  0.25425429565E+02  0.64659386141E+01 -0.17584935388E+01  0.26293594857E+02  0.51100000000E-03 0.  1.
        -12    1    3    3    0    0  0.17168259335E+01  0.85984610270E+01  0.10725457627E+01  0.88335371019E+01  0.00000000000E+00 0.  1.
</event>
<event>
 7    1  0.3910751E-009  0.4778727E+02  0.7816164E-02  0.1312668E+00
        -11   -1    0    0    0    0  0.00000000000E+00  0.00000000000E+00  0.45593999997E+02  0.45594000000E+02  0.51100000000E-03 0.  1.
         11   -1    0    0    0    0 -0.00000000000E+00 -0.00000000000E+00 -0.45593999997E+02  0.45594000000E+02  0.51100000000E-03 0. -1.
    9900012    2    1    2    0    0  0.36128085960E+02  0.21597089930E+02 -0.10580653230E+02  0.47787272917E+02  0.20000008538E+02 0.  0.
        -12    1    1    2    0    0 -0.36128085960E+02 -0.21597089930E+02  0.10580653230E+02  0.43400727083E+02  0.00000000000E+00 0.  1.
         11    1    3    3    0    0  0.13372709367E+02  0.30750506242E+01 -0.10434013046E+01  0.13761321837E+02  0.51100000000E-03 0. -1.
        -11    1    3    3    0    0 -0.43661930298E+00 -0.14097670135E+01 -0.20787611046E+01  0.25493778533E+01  0.51100000000E-03 0.  1.
         12    1    3    3    0    0  0.23191995896E+02  0.19931806320E+02 -0.74584908204E+01  0.31476573227E+02  0.00000000000E+00 0. -1.
</event>
<event>
 7    1  0.3910751E-009  0.4778727E+02  0.7816164E-02  0.1312668E+00
        -11   -1    0    0    0    0  0.00000000000E+00  0.00000000000E+00  0.45593999997E+02  0.45594000000E+02  0.51100000000E-03 0.  1.
         11   -1    0    0    0    0 -0.00000000000E+00 -0.00000000000E+00 -0.45593999997E+02  0.45594000000E+02  0.51100000000E-03 0. -1.
    9900012    2    1    2    0    0  0.19447570850E+02 -0.65364324207E+00 -0.38794176984E+02  0.47787269254E+02  0.19999991835E+02 0.  0.
        -12    1    1    2    0    0 -0.19447570850E+02  0.65364324207E+00  0.38794176984E+02  0.43400730746E+02  0.00000000000E+00 0.  1.
         11    1    3    3    0    0  0.59394645288E+01  0.52382923491E+01 -0.93039713987E+01  0.12218053432E+02  0.51100000000E-03 0. -1.
        -11    1    3    3    0    0 -0.15384412021E+01 -0.99004053607E+00  0.28344794890E+00  0.18513034858E+01  0.51100000000E-03 0.  1.
         12    1    3    3    0    0  0.15046547523E+02 -0.49018950551E+01 -0.29773653534E+02  0.33717912336E+02  0.00000000000E+00 0. -1.
</event>
<event>
 7    1  0.3910751E-009  0.4778727E+02  0.7816164E-02  0.1312668E+00
        -11   -1    0    0    0    0  0.00000000000E+00  0.00000000000E+00  0.45593999997E+02  0.45594000000E+02  0.51100000000E-03 0.  1.
         11   -1    0    0    0    0 -0.00000000000E+00 -0.00000000000E+00 -0.45593999997E+02  0.45594000000E+02  0.51100000000E-03 0. -1.
    9900012    2    1    2    0    0 -0.93627451464E+01  0.89493966536E+01 -0.41423068498E+02  0.47787270733E+02  0.19999998581E+02 0.  0.
        -12    1    1    2    0    0  0.93627451464E+01 -0.89493966536E+01  0.41423068498E+02  0.43400729267E+02  0.00000000000E+00 0.  1.
         11    1    3    3    0    0 -0.10229288064E+02  0.54493767635E+01 -0.16136874668E+02  0.19867882769E+02  0.51100000000E-03 0. -1.
        -11    1    3    3    0    0 -0.45524137408E+01  0.39939737660E+00 -0.53895630723E+01  0.70662139440E+01  0.51100000000E-03 0.  1.
        -12    1    3    3    0    0  0.54189566580E+01  0.31006225134E+01 -0.19896630757E+02  0.20853174020E+02  0.00000000000E+00 0.  1.
</event>
<event>
 7    1  0.3910751E-009  0.4778725E+02  0.7816164E-02  0.1312668E+00
        -11   -1    0    0    0    0  0.00000000000E+00  0.00000000000E+00  0.45593999997E+02  0.45594000000E+02  0.51100000000E-03 0.  1.
         11   -1    0    0    0    0 -0.00000000000E+00 -0.00000000000E+00 -0.45593999997E+02  0.45594000000E+02  0.51100000000E-03 0. -1.
    9900012    2    1    2    0    0 -0.52594606109E+01  0.12954002748E+01 -0.43061410962E+02  0.47787249986E+02  0.19999903985E+02 0.  0.
        -12    1    1    2    0    0  0.52594606109E+01 -0.12954002748E+01  0.43061410962E+02  0.43400750014E+02  0.00000000000E+00 0.  1.
         11    1    3    3    0    0 -0.43603300081E+01 -0.20707771894E+01 -0.19725205196E+02  0.20307247874E+02  0.51100000000E-03 0. -1.
        -11    1    3    3    0    0 -0.74823491368E+01  0.20481096829E+01 -0.13517215714E+02  0.15585102592E+02  0.51100000000E-03 0.  1.
         12    1    3    3    0    0  0.65832185340E+01  0.13180677813E+01 -0.98189900521E+01  0.11894899520E+02  0.00000000000E+00 0. -1.
</event>
<event>
 7    1  0.3910751E-009  0.4778725E+02  0.7816164E-02  0.1312668E+00
        -11   -1    0    0    0    0  0.00000000000E+00  0.00000000000E+00  0.45593999997E+02  0.45594000000E+02  0.51100000000E-03 0.  1.
         11   -1    0    0    0    0 -0.00000000000E+00 -0.00000000000E+00 -0.45593999997E+02  0.45594000000E+02  0.51100000000E-03 0. -1.
    9900012    2    1    2    0    0  0.30377102308E+02 -0.43770587282E+01 -0.30687094219E+02  0.47787254162E+02  0.19999923025E+02 0.  0.
        -12    1    1    2    0    0 -0.30377102308E+02  0.43770587282E+01  0.30687094219E+02  0.43400745838E+02  0.00000000000E+00 0.  1.
         11    1    3    3    0    0  0.25144482823E+02 -0.45941780293E+01 -0.22000942492E+02  0.33725256989E+02  0.51100000000E-03 0. -1.
        -11    1    3    3    0    0  0.67579926721E+01  0.24958629938E+00 -0.17850105179E+01  0.69942134002E+01  0.51100000000E-03 0.  1.
        -12    1    3    3    0    0 -0.15253731873E+01 -0.32466998254E-01 -0.69011412091E+01  0.70677837725E+01  0.00000000000E+00 0.  1.
</event>
<event>
 7    1  0.3910751E-009  0.4778727E+02  0.7816164E-02  0.1312668E+00
        -11   -1    0    0    0    0  0.00000000000E+00  0.00000000000E+00  0.45593999997E+02  0.45594000000E+02  0.51100000000E-03 0.  1.
         11   -1    0    0    0    0 -0.00000000000E+00 -0.00000000000E+00 -0.45593999997E+02  0.45594000000E+02  0.51100000000E-03 0. -1.
    9900012    2    1    2    0    0 -0.22077615078E+02  0.10244885577E+01 -0.37351746377E+02  0.47787267037E+02  0.19999981729E+02 0.  0.
        -12    1    1    2    0    0  0.22077615078E+02 -0.10244885577E+01  0.37351746377E+02  0.43400732963E+02  0.00000000000E+00 0.  1.
         11    1    3    3    0    0 -0.57094458061E+00  0.71872236506E+00 -0.15534344680E+02  0.15561439665E+02  0.51100000000E-03 0. -1.
        -11    1    3    3    0    0 -0.82661567331E+01  0.16155611044E+01 -0.25298279350E+01  0.87942830555E+01  0.51100000000E-03 0.  1.
        -12    1    3    3    0    0 -0.13240513764E+02 -0.13097949117E+01 -0.19287573762E+02  0.23431544317E+02  0.00000000000E+00 0.  1.
</event>
<event>
 7    1  0.3910751E-009  0.4778727E+02  0.7816164E-02  0.1312668E+00
        -11   -1    0    0    0    0  0.00000000000E+00  0.00000000000E+00  0.45593999997E+02  0.45594000000E+02  0.51100000000E-03 0. -1.
         11   -1    0    0    0    0 -0.00000000000E+00 -0.00000000000E+00 -0.45593999997E+02  0.45594000000E+02  0.51100000000E-03 0.  1.
    9900012    2    1    2    0    0  0.15687453821E+02  0.23530821688E+02  0.32921531881E+02  0.47787273761E+02  0.20000012385E+02 0.  0.
        -12    1    1    2    0    0 -0.15687453821E+02 -0.23530821688E+02 -0.32921531881E+02  0.43400726239E+02  0.00000000000E+00 0.  1.
         11    1    3    3    0    0  0.39199029283E+01  0.94729523982E+01  0.43646731094E+01  0.11142389228E+02  0.51100000000E-03 0. -1.
        -11    1    3    3    0    0  0.35266900549E+01  0.24293101478E+01 -0.46956898072E+00  0.43080837766E+01  0.51100000000E-03 0.  1.
         12    1    3    3    0    0  0.82408608380E+01  0.11628559142E+02  0.29026427752E+02  0.32336800756E+02  0.00000000000E+00 0. -1.
</event>
<event>
 7    1  0.3910751E-009  0.4778726E+02  0.7816164E-02  0.1312668E+00
        -11   -1    0    0    0    0  0.00000000000E+00  0.00000000000E+00  0.45593999997E+02  0.45594000000E+02  0.51100000000E-03 0.  1.
         11   -1    0    0    0    0 -0.00000000000E+00 -0.00000000000E+00 -0.45593999997E+02  0.45594000000E+02  0.51100000000E-03 0. -1.
    9900012    2    1    2    0    0  0.30800315669E+02 -0.29857595040E+01 -0.30431074458E+02  0.47787256944E+02  0.19999935711E+02 0.  0.
        -12    1    1    2    0    0 -0.30800315669E+02  0.29857595040E+01  0.30431074458E+02  0.43400743056E+02  0.00000000000E+00 0.  1.
         11    1    3    3    0    0  0.71905898031E+01 -0.32683468217E+01 -0.14205681136E+02  0.16253862601E+02  0.51100000000E-03 0. -1.
        -11    1    3    3    0    0  0.18529243009E+00 -0.30513575637E+01 -0.43510238405E+00  0.30877873327E+01  0.51100000000E-03 0.  1.
         12    1    3    3    0    0  0.23424433436E+02  0.33339448814E+01 -0.15790290938E+02  0.28445607010E+02  0.00000000000E+00 0. -1.
</event>
<event>
 7    1  0.3910751E-009  0.4778727E+02  0.7816164E-02  0.1312668E+00
        -11   -1    0    0    0    0  0.00000000000E+00  0.00000000000E+00  0.45593999997E+02  0.45594000000E+02  0.51100000000E-03 0.  1.
         11   -1    0    0    0    0 -0.00000000000E+00 -0.00000000000E+00 -0.45593999997E+02  0.45594000000E+02  0.51100000000E-03 0. -1.
    9900012    2    1    2    0    0 -0.35494740835E+02  0.16250883796E+02  0.18964594974E+02  0.47787265978E+02  0.19999976901E+02 0.  0.
        -12    1    1    2    0    0  0.35494740835E+02 -0.16250883796E+02 -0.18964594974E+02  0.43400734022E+02  0.00000000000E+00 0.  1.
         11    1    3    3    0    0 -0.36936616489E+01 -0.16888922802E+01  0.61678664857E+01  0.73849895570E+01  0.51100000000E-03 0. -1.
        -11    1    3    3    0    0 -0.33993796485E+01 -0.16589107750E+01  0.17670602972E+01  0.41749574021E+01  0.51100000000E-03 0.  1.
         12    1    3    3    0    0 -0.28401699538E+02  0.19598686851E+02  0.11029668191E+02  0.36227319019E+02  0.00000000000E+00 0. -1.
</event>
<event>
 7    1  0.3910751E-009  0.4778728E+02  0.7816164E-02  0.1312668E+00
        -11   -1    0    0    0    0  0.00000000000E+00  0.00000000000E+00  0.45593999997E+02  0.45594000000E+02  0.51100000000E-03 0.  1.
         11   -1    0    0    0    0 -0.00000000000E+00 -0.00000000000E+00 -0.45593999997E+02  0.45594000000E+02  0.51100000000E-03 0. -1.
    9900012    2    1    2    0    0 -0.90260160533E+00  0.35573510433E+02 -0.24846195267E+02  0.47787277040E+02  0.20000027338E+02 0.  0.
        -12    1    1    2    0    0  0.90260160533E+00 -0.35573510433E+02  0.24846195267E+02  0.43400722960E+02  0.00000000000E+00 0.  1.
         11    1    3    3    0    0  0.98727419239E+00  0.83992100868E+01 -0.11930573228E+02  0.14623953577E+02  0.51100000000E-03 0. -1.
        -11    1    3    3    0    0  0.22444523977E+01  0.13387811752E+02 -0.12963373708E+02  0.18770192547E+02  0.51100000000E-03 0.  1.
        -12    1    3    3    0    0 -0.41343281954E+01  0.13786488593E+02  0.47751668735E-01  0.14393130917E+02  0.00000000000E+00 0.  1.
</event>
<event>
 7    1  0.3910751E-009  0.4778727E+02  0.7816164E-02  0.1312668E+00
        -11   -1    0    0    0    0  0.00000000000E+00  0.00000000000E+00  0.45593999997E+02  0.45594000000E+02  0.51100000000E-03 0. -1.
         11   -1    0    0    0    0 -0.00000000000E+00 -0.00000000000E+00 -0.45593999997E+02  0.45594000000E+02  0.51100000000E-03 0.  1.
    9900012    2    1    2    0    0  0.52978813326E+01 -0.33698903798E+02  0.26831685566E+02  0.47787274037E+02  0.20000013645E+02 0.  0.
        -12    1    1    2    0    0 -0.52978813326E+01  0.33698903798E+02 -0.26831685566E+02  0.43400725963E+02  0.00000000000E+00 0.  1.
         11    1    3    3    0    0 -0.21869789027E+01 -0.82612437013E+01  0.91519639983E+01  0.12521560186E+02  0.51100000000E-03 0. -1.
        -11    1    3    3    0    0  0.50018290763E+00 -0.60845124558E+01 -0.23590318627E+01  0.65449603785E+01  0.51100000000E-03 0.  1.
        -12    1    3    3    0    0  0.69846773277E+01 -0.19353147641E+02  0.20038753430E+02  0.28720753472E+02  0.00000000000E+00 0.  1.
</event>
<event>
 7    1  0.3910751E-009  0.4778728E+02  0.7816164E-02  0.1312668E+00
        -11   -1    0    0    0    0  0.00000000000E+00  0.00000000000E+00  0.45593999997E+02  0.45594000000E+02  0.51100000000E-03 0.  1.
         11   -1    0    0    0    0 -0.00000000000E+00 -0.00000000000E+00 -0.45593999997E+02  0.45594000000E+02  0.51100000000E-03 0. -1.
    9900012    2    1    2    0    0 -0.22877189908E+01  0.25761736772E+02 -0.34852857333E+02  0.47787281067E+02  0.20000045695E+02 0.  0.
        -12    1    1    2    0    0  0.22877189908E+01 -0.25761736772E+02  0.34852857333E+02  0.43400718933E+02  0.00000000000E+00 0.  1.
         11    1    3    3    0    0  0.12737205990E+01  0.39590474828E+01 -0.91079267315E+01  0.10012529688E+02  0.51100000000E-03 0. -1.
        -11    1    3    3    0    0 -0.10084046165E+02  0.13030576027E+02 -0.13026327889E+02  0.21004026214E+02  0.51100000000E-03 0.  1.
        -12    1    3    3    0    0  0.65226065753E+01  0.87721132614E+01 -0.12718602712E+02  0.16770725165E+02  0.00000000000E+00 0.  1.
</event>
<event>
 7    1  0.3910751E-009  0.4778727E+02  0.7816164E-02  0.1312668E+00
        -11   -1    0    0    0    0  0.00000000000E+00  0.00000000000E+00  0.45593999997E+02  0.45594000000E+02  0.51100000000E-03 0. -1.
         11   -1    0    0    0    0 -0.00000000000E+00 -0.00000000000E+00 -0.45593999997E+02  0.45594000000E+02  0.51100000000E-03 0.  1.
    9900012    2    1    2    0    0  0.41574911256E+01 -0.38949062492E+02  0.18689809758E+02  0.47787272008E+02  0.20000004394E+02 0.  0.
        -12    1    1    2    0    0 -0.41574911256E+01  0.38949062492E+02 -0.18689809758E+02  0.43400727992E+02  0.00000000000E+00 0.  1.
         11    1    3    3    0    0 -0.10903415045E+01 -0.90017445819E+01  0.51288644989E+01  0.10417557364E+02  0.51100000000E-03 0. -1.
        -11    1    3    3    0    0 -0.24222577256E+01 -0.65764758796E+01 -0.30974326637E+01  0.76623401680E+01  0.51100000000E-03 0.  1.
         12    1    3    3    0    0  0.76700903557E+01 -0.23370842030E+02  0.16658377923E+02  0.29707374476E+02  0.00000000000E+00 0. -1.
</event>
<event>
 7    1  0.3910751E-009  0.4778727E+02  0.7816164E-02  0.1312668E+00
        -11   -1    0    0    0    0  0.00000000000E+00  0.00000000000E+00  0.45593999997E+02  0.45594000000E+02  0.51100000000E-03 0. -1.
         11   -1    0    0    0    0 -0.00000000000E+00 -0.00000000000E+00 -0.45593999997E+02  0.45594000000E+02  0.51100000000E-03 0.  1.
    9900012    2    1    2    0    0 -0.42087171027E+02 -0.47155459909E+01  0.94898479193E+01  0.47787267834E+02  0.19999985362E+02 0.  0.
        -12    1    1    2    0    0  0.42087171027E+02  0.47155459909E+01 -0.94898479193E+01  0.43400732166E+02  0.00000000000E+00 0.  1.
         11    1    3    3    0    0 -0.94708187167E+00  0.17320678832E+01  0.20886578747E+01  0.28739372301E+01  0.51100000000E-03 0. -1.
        -11    1    3    3    0    0 -0.54432879106E+01 -0.66549408196E+01  0.11872040721E+01  0.86791171417E+01  0.51100000000E-03 0.  1.
         12    1    3    3    0    0 -0.35696801244E+02  0.20732694555E+00  0.62139859725E+01  0.36234213462E+02  0.00000000000E+00 0. -1.
</event>
<event>
 7    1  0.3915135E-009  0.4778727E+02  0.7816164E-02  0.1312668E+00
        -11   -1    0    0    0    0  0.00000000000E+00  0.00000000000E+00  0.45593999997E+02  0.45594000000E+02  0.51100000000E-03 0. -1.
         11   -1    0    0    0    0 -0.00000000000E+00 -0.00000000000E+00 -0.45593999997E+02  0.45594000000E+02  0.51100000000E-03 0.  1.
    9900012    2    1    2    0    0 -0.13085260244E+02 -0.11610894860E+02  0.39718839452E+02  0.47787272788E+02  0.20000007949E+02 0.  0.
        -12    1    1    2    0    0  0.13085260244E+02  0.11610894860E+02 -0.39718839452E+02  0.43400727212E+02  0.00000000000E+00 0.  1.
         11    1    3    3    0    0 -0.43393625531E+01  0.33533472858E+01  0.83999502879E+01  0.10031658412E+02  0.51100000000E-03 0. -1.
        -11    1    3    3    0    0  0.69850499780E+00 -0.16061542812E+01 -0.63037457573E+00  0.18614545855E+01  0.51100000000E-03 0.  1.
         12    1    3    3    0    0 -0.94444026886E+01 -0.13358087865E+02  0.31949263740E+02  0.35894159791E+02  0.00000000000E+00 0. -1.
</event>
<event>
 7    1  0.3910751E-009  0.4778727E+02  0.7816164E-02  0.1312668E+00
        -11   -1    0    0    0    0  0.00000000000E+00  0.00000000000E+00  0.45593999997E+02  0.45594000000E+02  0.51100000000E-03 0. -1.
         11   -1    0    0    0    0 -0.00000000000E+00 -0.00000000000E+00 -0.45593999997E+02  0.45594000000E+02  0.51100000000E-03 0.  1.
    9900012    2    1    2    0    0 -0.24042856270E+02 -0.99244936350E+00  0.36118961379E+02  0.47787271153E+02  0.20000000496E+02 0.  0.
        -12    1    1    2    0    0  0.24042856270E+02  0.99244936350E+00 -0.36118961379E+02  0.43400728847E+02  0.00000000000E+00 0.  1.
         11    1    3    3    0    0  0.65040610741E+00 -0.71534899602E+00  0.39331323010E+01  0.40502200248E+01  0.51100000000E-03 0. -1.
        -11    1    3    3    0    0 -0.12003527142E+02  0.80288207405E+01  0.16165399446E+02  0.21676410354E+02  0.51100000000E-03 0.  1.
        -12    1    3    3    0    0 -0.12689735236E+02 -0.83059211079E+01  0.16020429632E+02  0.22060640775E+02  0.00000000000E+00 0.  1.
</event>
<event>
 7    1  0.3910751E-009  0.4778727E+02  0.7816164E-02  0.1312668E+00
        -11   -1    0    0    0    0  0.00000000000E+00  0.00000000000E+00  0.45593999997E+02  0.45594000000E+02  0.51100000000E-03 0. -1.
         11   -1    0    0    0    0 -0.00000000000E+00 -0.00000000000E+00 -0.45593999997E+02  0.45594000000E+02  0.51100000000E-03 0.  1.
    9900012    2    1    2    0    0  0.25081733515E+02  0.35381458880E+02 -0.16377724569E+01  0.47787270890E+02  0.19999999298E+02 0.  0.
        -12    1    1    2    0    0 -0.25081733515E+02 -0.35381458880E+02  0.16377724569E+01  0.43400729110E+02  0.00000000000E+00 0.  1.
         11    1    3    3    0    0  0.15281746585E+02  0.26234774867E+02  0.63022746475E+00  0.30367620551E+02  0.51100000000E-03 0. -1.
        -11    1    3    3    0    0  0.43012410587E+01  0.95582097363E+01 -0.45826268136E+01  0.11439428167E+02  0.51100000000E-03 0.  1.
        -12    1    3    3    0    0  0.54987458719E+01 -0.41152572336E+00  0.23146268920E+01  0.59802221726E+01  0.00000000000E+00 0.  1.
</event>
<event>
 7    1  0.3910751E-009  0.4778727E+02  0.7816164E-02  0.1312668E+00
        -11   -1    0    0    0    0  0.00000000000E+00  0.00000000000E+00  0.45593999997E+02  0.45594000000E+02  0.51100000000E-03 0.  1.
         11   -1    0    0    0    0 -0.00000000000E+00 -0.00000000000E+00 -0.45593999997E+02  0.45594000000E+02  0.51100000000E-03 0. -1.
    9900012    2    1    2    0    0  0.16460915421E+01  0.34085551457E+02 -0.26815829664E+02  0.47787272402E+02  0.20000006187E+02 0.  0.
        -12    1    1    2    0    0 -0.16460915421E+01 -0.34085551457E+02  0.26815829664E+02  0.43400727598E+02  0.00000000000E+00 0.  1.
         11    1    3    3    0    0  0.16373003132E+01  0.68476771030E+01 -0.11490445527E+02  0.13475970195E+02  0.51100000000E-03 0. -1.
        -11    1    3    3    0    0 -0.58359644302E+01  0.49448294475E+01 -0.40213834803E+01  0.86418368680E+01  0.51100000000E-03 0.  1.
         12    1    3    3    0    0  0.58447556591E+01  0.22293044907E+02 -0.11304000657E+02  0.25669465339E+02  0.00000000000E+00 0. -1.
</event>
<event>
 7    1  0.3910751E-009  0.4778727E+02  0.7816164E-02  0.1312668E+00
        -11   -1    0    0    0    0  0.00000000000E+00  0.00000000000E+00  0.45593999997E+02  0.45594000000E+02  0.51100000000E-03 0.  1.
         11   -1    0    0    0    0 -0.00000000000E+00 -0.00000000000E+00 -0.45593999997E+02  0.45594000000E+02  0.51100000000E-03 0. -1.
    9900012    2    1    2    0    0  0.31409668539E+02  0.22983489768E+02 -0.19204558356E+02  0.47787272572E+02  0.20000006965E+02 0.  0.
        -12    1    1    2    0    0 -0.31409668539E+02 -0.22983489768E+02  0.19204558356E+02  0.43400727428E+02  0.00000000000E+00 0.  1.
         11    1    3    3    0    0  0.23435290622E+02  0.18839448982E+02 -0.15869420919E+02  0.33999650072E+02  0.51100000000E-03 0. -1.
        -11    1    3    3    0    0  0.57552690548E+01  0.33316566472E+01 -0.68533583843E+01  0.95494282191E+01  0.51100000000E-03 0.  1.
        -12    1    3    3    0    0  0.22191088621E+01  0.81238413831E+00  0.35182209466E+01  0.42381942804E+01  0.00000000000E+00 0.  1.
</event>
<event>
 7    1  0.3910751E-009  0.4778727E+02  0.7816164E-02  0.1312668E+00
        -11   -1    0    0    0    0  0.00000000000E+00  0.00000000000E+00  0.45593999997E+02  0.45594000000E+02  0.51100000000E-03 0.  1.
         11   -1    0    0    0    0 -0.00000000000E+00 -0.00000000000E+00 -0.45593999997E+02  0.45594000000E+02  0.51100000000E-03 0. -1.
    9900012    2    1    2    0    0 -0.32983119647E+02 -0.39092354408E+01 -0.27936632580E+02  0.47787265636E+02  0.19999975342E+02 0.  0.
        -12    1    1    2    0    0  0.32983119647E+02  0.39092354408E+01  0.27936632580E+02  0.43400734364E+02  0.00000000000E+00 0.  1.
         11    1    3    3    0    0 -0.21186195210E+02 -0.51725158686E+01 -0.17833952885E+02  0.28171965918E+02  0.51100000000E-03 0. -1.
        -11    1    3    3    0    0 -0.13874148245E+02  0.11516367685E+00 -0.65505923482E+01  0.15343256257E+02  0.51100000000E-03 0.  1.
        -12    1    3    3    0    0  0.20772238078E+01  0.11481167509E+01 -0.35520873467E+01  0.42720434618E+01  0.00000000000E+00 0.  1.
</event>
<event>
 7    1  0.3910751E-009  0.4778727E+02  0.7816164E-02  0.1312668E+00
        -11   -1    0    0    0    0  0.00000000000E+00  0.00000000000E+00  0.45593999997E+02  0.45594000000E+02  0.51100000000E-03 0. -1.
         11   -1    0    0    0    0 -0.00000000000E+00 -0.00000000000E+00 -0.45593999997E+02  0.45594000000E+02  0.51100000000E-03 0.  1.
    9900012    2    1    2    0    0  0.16985017984E+02 -0.37331090989E+02  0.14195841155E+02  0.47787273088E+02  0.20000009319E+02 0.  0.
        -12    1    1    2    0    0 -0.16985017984E+02  0.37331090989E+02 -0.14195841155E+02  0.43400726912E+02  0.00000000000E+00 0.  1.
         11    1    3    3    0    0  0.11034351955E+02 -0.29248008727E+02  0.68347515117E+01  0.31998699443E+02  0.51100000000E-03 0. -1.
        -11    1    3    3    0    0  0.62164423140E+01 -0.10073163989E+02  0.55053702984E+01  0.13054573535E+02  0.51100000000E-03 0.  1.
        -12    1    3    3    0    0 -0.26577628440E+00  0.19900817275E+01  0.18557193448E+01  0.27340001101E+01  0.00000000000E+00 0.  1.
</event>
<event>
 7    1  0.3910751E-009  0.4778728E+02  0.7816164E-02  0.1312668E+00
        -11   -1    0    0    0    0  0.00000000000E+00  0.00000000000E+00  0.45593999997E+02  0.45594000000E+02  0.51100000000E-03 0.  1.
         11   -1    0    0    0    0 -0.00000000000E+00 -0.00000000000E+00 -0.45593999997E+02  0.45594000000E+02  0.51100000000E-03 0. -1.
    9900012    2    1    2    0    0 -0.31768061082E+02 -0.16443308659E+02 -0.24577036498E+02  0.47787276186E+02  0.20000023442E+02 0.  0.
        -12    1    1    2    0    0  0.31768061082E+02  0.16443308659E+02  0.24577036498E+02  0.43400723814E+02  0.00000000000E+00 0.  1.
         11    1    3    3    0    0 -0.60650898544E+01 -0.12259773478E+01 -0.77245330968E+01  0.98973101005E+01  0.51100000000E-03 0. -1.
        -11    1    3    3    0    0 -0.33048344905E+01  0.47483792791E+00 -0.87522127470E+01  0.93674238880E+01  0.51100000000E-03 0.  1.
         12    1    3    3    0    0 -0.22398136737E+02 -0.15692169239E+02 -0.81002906541E+01  0.28522542197E+02  0.00000000000E+00 0. -1.
</event>
<event>
 7    1  0.3910751E-009  0.4778727E+02  0.7816164E-02  0.1312668E+00
        -11   -1    0    0    0    0  0.00000000000E+00  0.00000000000E+00  0.45593999997E+02  0.45594000000E+02  0.51100000000E-03 0.  1.
         11   -1    0    0    0    0 -0.00000000000E+00 -0.00000000000E+00 -0.45593999997E+02  0.45594000000E+02  0.51100000000E-03 0. -1.
    9900012    2    1    2    0    0  0.42986428413E+02  0.23321075192E+01 -0.55092078840E+01  0.47787272763E+02  0.20000007834E+02 0.  0.
        -12    1    1    2    0    0 -0.42986428413E+02 -0.23321075192E+01  0.55092078840E+01  0.43400727237E+02  0.00000000000E+00 0.  1.
         11    1    3    3    0    0  0.32082657305E+02  0.48937003746E+01 -0.20081450806E+01  0.32515809232E+02  0.51100000000E-03 0. -1.
        -11    1    3    3    0    0  0.94042271316E+01  0.17519295785E+01 -0.45389944843E+01  0.10588258421E+02  0.51100000000E-03 0.  1.
        -12    1    3    3    0    0  0.14995439767E+01 -0.43135224339E+01  0.10379316810E+01  0.46832051098E+01  0.00000000000E+00 0.  1.
</event>
<event>
 7    1  0.3910751E-009  0.4778727E+02  0.7816164E-02  0.1312668E+00
        -11   -1    0    0    0    0  0.00000000000E+00  0.00000000000E+00  0.45593999997E+02  0.45594000000E+02  0.51100000000E-03 0.  1.
         11   -1    0    0    0    0 -0.00000000000E+00 -0.00000000000E+00 -0.45593999997E+02  0.45594000000E+02  0.51100000000E-03 0. -1.
    9900012    2    1    2    0    0  0.53558639830E+01  0.73042577498E+01 -0.42445092326E+02  0.47787270480E+02  0.19999997427E+02 0.  0.
        -12    1    1    2    0    0 -0.53558639830E+01 -0.73042577498E+01  0.42445092326E+02  0.43400729520E+02  0.00000000000E+00 0.  1.
         11    1    3    3    0    0 -0.28038448913E+01  0.54119254341E+01 -0.12364806749E+02  0.13785460793E+02  0.51100000000E-03 0. -1.
        -11    1    3    3    0    0  0.25837214914E+01  0.60970995766E+01 -0.23468229912E+02  0.24384586432E+02  0.51100000000E-03 0.  1.
        -12    1    3    3    0    0  0.55759873829E+01 -0.42047672609E+01 -0.66120556650E+01  0.96172232547E+01  0.00000000000E+00 0.  1.
</event>
<event>
 7    1  0.3910751E-009  0.4778727E+02  0.7816164E-02  0.1312668E+00
        -11   -1    0    0    0    0  0.00000000000E+00  0.00000000000E+00  0.45593999997E+02  0.45594000000E+02  0.51100000000E-03 0. -1.
         11   -1    0    0    0    0 -0.00000000000E+00 -0.00000000000E+00 -0.45593999997E+02  0.45594000000E+02  0.51100000000E-03 0.  1.
    9900012    2    1    2    0    0  0.21733129541E+01  0.40285747268E+02  0.15998721001E+02  0.47787265032E+02  0.19999972585E+02 0.  0.
        -12    1    1    2    0    0 -0.21733129541E+01 -0.40285747268E+02 -0.15998721001E+02  0.43400734968E+02  0.00000000000E+00 0.  1.
         11    1    3    3    0    0  0.11860711198E+01 -0.14162915990E+01 -0.50551576590E+00  0.19152527366E+01  0.51100000000E-03 0. -1.
        -11    1    3    3    0    0  0.14109115804E+01  0.30203979486E+01  0.40221996733E+01  0.52241330122E+01  0.51100000000E-03 0.  1.
         12    1    3    3    0    0 -0.42366974618E+00  0.38681640918E+02  0.12482037094E+02  0.40647879283E+02  0.00000000000E+00 0. -1.
</event>
<event>
 7    1  0.3910751E-009  0.4778727E+02  0.7816164E-02  0.1312668E+00
        -11   -1    0    0    0    0  0.00000000000E+00  0.00000000000E+00  0.45593999997E+02  0.45594000000E+02  0.51100000000E-03 0. -1.
         11   -1    0    0    0    0 -0.00000000000E+00 -0.00000000000E+00 -0.45593999997E+02  0.45594000000E+02  0.51100000000E-03 0.  1.
    9900012    2    1    2    0    0  0.41120673281E+02  0.99293855434E+01 -0.97015853671E+01  0.47787271584E+02  0.20000002462E+02 0.  0.
        -12    1    1    2    0    0 -0.41120673281E+02 -0.99293855434E+01  0.97015853671E+01  0.43400728416E+02  0.00000000000E+00 0.  1.
         11    1    3    3    0    0  0.77364837362E+01  0.67506551160E+01 -0.45766671621E+01  0.11241459321E+02  0.51100000000E-03 0. -1.
        -11    1    3    3    0    0 -0.11717106074E+01  0.20519846294E+00 -0.11163516210E+01  0.16313348398E+01  0.51100000000E-03 0.  1.
        -12    1    3    3    0    0  0.34555900152E+02  0.29735319644E+01 -0.40085665841E+01  0.34914477423E+02  0.00000000000E+00 0.  1.
</event>
<event>
 7    1  0.3910751E-009  0.4778727E+02  0.7816164E-02  0.1312668E+00
        -11   -1    0    0    0    0  0.00000000000E+00  0.00000000000E+00  0.45593999997E+02  0.45594000000E+02  0.51100000000E-03 0.  1.
         11   -1    0    0    0    0 -0.00000000000E+00 -0.00000000000E+00 -0.45593999997E+02  0.45594000000E+02  0.51100000000E-03 0. -1.
    9900012    2    1    2    0    0 -0.35256066332E+02 -0.72147404055E+01 -0.24260684288E+02  0.47787268503E+02  0.19999988413E+02 0.  0.
        -12    1    1    2    0    0  0.35256066332E+02  0.72147404055E+01  0.24260684288E+02  0.43400731497E+02  0.00000000000E+00 0.  1.
         11    1    3    3    0    0 -0.16486714664E+02 -0.43679151223E+01 -0.49137415584E+01  0.17749233766E+02  0.51100000000E-03 0. -1.
        -11    1    3    3    0    0 -0.16159062898E+02 -0.67834602573E+01 -0.11774669793E+02  0.21113348759E+02  0.51100000000E-03 0.  1.
        -12    1    3    3    0    0 -0.26102887705E+01  0.39366349742E+01 -0.75722729366E+01  0.89246859783E+01  0.00000000000E+00 0.  1.
</event>
<event>
 7    1  0.3910751E-009  0.4778727E+02  0.7816164E-02  0.1312668E+00
        -11   -1    0    0    0    0  0.00000000000E+00  0.00000000000E+00  0.45593999997E+02  0.45594000000E+02  0.51100000000E-03 0.  1.
         11   -1    0    0    0    0 -0.00000000000E+00 -0.00000000000E+00 -0.45593999997E+02  0.45594000000E+02  0.51100000000E-03 0. -1.
    9900012    2    1    2    0    0  0.87664823472E+01  0.37205774471E+02 -0.20554866401E+02  0.47787269597E+02  0.19999993401E+02 0.  0.
        -12    1    1    2    0    0 -0.87664823472E+01 -0.37205774471E+02  0.20554866401E+02  0.43400730403E+02  0.00000000000E+00 0.  1.
         11    1    3    3    0    0  0.69798153009E+01  0.81875859020E+01 -0.12047327975E+02  0.16152166918E+02  0.51100000000E-03 0. -1.
        -11    1    3    3    0    0 -0.27012071157E+00  0.14799486732E+02 -0.88842389251E+01  0.17263472254E+02  0.51100000000E-03 0.  1.
        -12    1    3    3    0    0  0.20567877579E+01  0.14218701837E+02  0.37670049914E+00  0.14371630425E+02  0.00000000000E+00 0.  1.
</event>
<event>
 7    1  0.3910751E-009  0.4778727E+02  0.7816164E-02  0.1312668E+00
        -11   -1    0    0    0    0  0.00000000000E+00  0.00000000000E+00  0.45593999997E+02  0.45594000000E+02  0.51100000000E-03 0.  1.
         11   -1    0    0    0    0 -0.00000000000E+00 -0.00000000000E+00 -0.45593999997E+02  0.45594000000E+02  0.51100000000E-03 0. -1.
    9900012    2    1    2    0    0 -0.40949567976E+02  0.12672385291E+02 -0.67946100486E+01  0.47787271986E+02  0.20000004294E+02 0.  0.
        -12    1    1    2    0    0  0.40949567976E+02 -0.12672385291E+02  0.67946100486E+01  0.43400728014E+02  0.00000000000E+00 0.  1.
         11    1    3    3    0    0 -0.16067987773E+02  0.17623114673E+00 -0.85810056553E+00  0.16091849656E+02  0.51100000000E-03 0. -1.
        -11    1    3    3    0    0 -0.25584593993E+01  0.18875137512E+01  0.39544632527E+01  0.50740715936E+01  0.51100000000E-03 0.  1.
         12    1    3    3    0    0 -0.22323120804E+02  0.10608640393E+02 -0.98909727358E+01  0.26621350737E+02  0.00000000000E+00 0. -1.
</event>
<event>
 7    1  0.3910751E-009  0.4778726E+02  0.7816164E-02  0.1312668E+00
        -11   -1    0    0    0    0  0.00000000000E+00  0.00000000000E+00  0.45593999997E+02  0.45594000000E+02  0.51100000000E-03 0. -1.
         11   -1    0    0    0    0 -0.00000000000E+00 -0.00000000000E+00 -0.45593999997E+02  0.45594000000E+02  0.51100000000E-03 0.  1.
    9900012    2    1    2    0    0 -0.26386628959E+02  0.32196341734E+02  0.12278660385E+02  0.47787261415E+02  0.19999956097E+02 0.  0.
        -12    1    1    2    0    0  0.26386628959E+02 -0.32196341734E+02 -0.12278660385E+02  0.43400738585E+02  0.00000000000E+00 0.  1.
         11    1    3    3    0    0 -0.21095565824E+02  0.23715621574E+02  0.15015175767E+02  0.35112805465E+02  0.51100000000E-03 0. -1.
        -11    1    3    3    0    0 -0.44045869068E+01  0.10056692581E+01  0.36596612363E+00  0.45327351502E+01  0.51100000000E-03 0.  1.
         12    1    3    3    0    0 -0.88647622791E+00  0.74750509018E+01 -0.31024815058E+01  0.81417207997E+01  0.00000000000E+00 0. -1.
</event>
<event>
 7    1  0.3910751E-009  0.4778727E+02  0.7816164E-02  0.1312668E+00
        -11   -1    0    0    0    0  0.00000000000E+00  0.00000000000E+00  0.45593999997E+02  0.45594000000E+02  0.51100000000E-03 0. -1.
         11   -1    0    0    0    0 -0.00000000000E+00 -0.00000000000E+00 -0.45593999997E+02  0.45594000000E+02  0.51100000000E-03 0.  1.
    9900012    2    1    2    0    0  0.10074301329E+02  0.31025455657E+01  0.42101137455E+02  0.47787272918E+02  0.20000008543E+02 0.  0.
        -12    1    1    2    0    0 -0.10074301329E+02 -0.31025455657E+01 -0.42101137455E+02  0.43400727082E+02  0.00000000000E+00 0.  1.
         11    1    3    3    0    0  0.79037774357E+01  0.13857651930E+00  0.13827252965E+02  0.15927392318E+02  0.51100000000E-03 0. -1.
        -11    1    3    3    0    0  0.44638606025E+01 -0.45766992447E+01  0.16461890930E+02  0.17659730482E+02  0.51100000000E-03 0.  1.
         12    1    3    3    0    0 -0.22933367090E+01  0.75406682912E+01  0.11811993559E+02  0.14200150118E+02  0.00000000000E+00 0. -1.
</event>
<event>
 7    1  0.3910751E-009  0.4778727E+02  0.7816164E-02  0.1312668E+00
        -11   -1    0    0    0    0  0.00000000000E+00  0.00000000000E+00  0.45593999997E+02  0.45594000000E+02  0.51100000000E-03 0. -1.
         11   -1    0    0    0    0 -0.00000000000E+00 -0.00000000000E+00 -0.45593999997E+02  0.45594000000E+02  0.51100000000E-03 0.  1.
    9900012    2    1    2    0    0  0.26159647352E+01  0.37823648029E+02 -0.21122304770E+02  0.47787269816E+02  0.19999994400E+02 0.  0.
        -12    1    1    2    0    0 -0.26159647352E+01 -0.37823648029E+02  0.21122304770E+02  0.43400730184E+02  0.00000000000E+00 0.  1.
         11    1    3    3    0    0 -0.15274271323E+01  0.13128852492E+01  0.59127816826E+00  0.20991215914E+01  0.51100000000E-03 0. -1.
        -11    1    3    3    0    0 -0.37052132290E+01  0.10106350290E+01 -0.19991835538E+01  0.43297486506E+01  0.51100000000E-03 0.  1.
        -12    1    3    3    0    0  0.78486050966E+01  0.35500127750E+02 -0.19714399385E+02  0.41358399574E+02  0.00000000000E+00 0.  1.
</event>
<event>
 7    1  0.3910751E-009  0.4778727E+02  0.7816164E-02  0.1312668E+00
        -11   -1    0    0    0    0  0.00000000000E+00  0.00000000000E+00  0.45593999997E+02  0.45594000000E+02  0.51100000000E-03 0.  1.
         11   -1    0    0    0    0 -0.00000000000E+00 -0.00000000000E+00 -0.45593999997E+02  0.45594000000E+02  0.51100000000E-03 0. -1.
    9900012    2    1    2    0    0  0.29011987122E+02  0.31808270777E+02  0.54919713869E+01  0.47787271477E+02  0.20000001973E+02 0.  0.
        -12    1    1    2    0    0 -0.29011987122E+02 -0.31808270777E+02 -0.54919713869E+01  0.43400728523E+02  0.00000000000E+00 0.  1.
         11    1    3    3    0    0  0.63660814512E+01  0.10811461456E+02 -0.13239359431E+01  0.12616160212E+02  0.51100000000E-03 0.  1.
        -11    1    3    3    0    0  0.17893360007E+02  0.19071142481E+02 -0.59643474880E+00  0.26157915486E+02  0.51100000000E-03 0. -1.
        -12    1    3    3    0    0  0.47525456630E+01  0.19256668398E+01  0.74123420788E+01  0.90131957789E+01  0.00000000000E+00 0.  1.
</event>
<event>
 7    1  0.3910751E-009  0.4778728E+02  0.7816164E-02  0.1312668E+00
        -11   -1    0    0    0    0  0.00000000000E+00  0.00000000000E+00  0.45593999997E+02  0.45594000000E+02  0.51100000000E-03 0. -1.
         11   -1    0    0    0    0 -0.00000000000E+00 -0.00000000000E+00 -0.45593999997E+02  0.45594000000E+02  0.51100000000E-03 0.  1.
    9900012    2    1    2    0    0  0.57722162482E+01  0.19032179455E+02  0.38575641415E+02  0.47787280585E+02  0.20000043497E+02 0.  0.
        -12    1    1    2    0    0 -0.57722162482E+01 -0.19032179455E+02 -0.38575641415E+02  0.43400719415E+02  0.00000000000E+00 0.  1.
         11    1    3    3    0    0  0.49205816801E+01  0.10728167459E+02  0.12094950736E+02  0.16899512853E+02  0.51100000000E-03 0. -1.
        -11    1    3    3    0    0  0.20454637319E+01 -0.21760238985E+01  0.75022816702E+00  0.30792603737E+01  0.51100000000E-03 0.  1.
         12    1    3    3    0    0 -0.11938291637E+01  0.10480035894E+02  0.25730462512E+02  0.27808507358E+02  0.00000000000E+00 0. -1.
</event>
<event>
 7    1  0.3910751E-009  0.4778722E+02  0.7816164E-02  0.1312668E+00
        -11   -1    0    0    0    0  0.00000000000E+00  0.00000000000E+00  0.45593999997E+02  0.45594000000E+02  0.51100000000E-03 0.  1.
         11   -1    0    0    0    0 -0.00000000000E+00 -0.00000000000E+00 -0.45593999997E+02  0.45594000000E+02  0.51100000000E-03 0. -1.
    9900012    2    1    2    0    0  0.66588927438E+01 -0.41264081672E+02 -0.11685987879E+02  0.47787221188E+02  0.19999772683E+02 0.  0.
        -12    1    1    2    0    0 -0.66588927438E+01  0.41264081672E+02  0.11685987879E+02  0.43400778812E+02  0.00000000000E+00 0.  1.
         11    1    3    3    0    0 -0.47827218508E+01 -0.22032780383E+02 -0.35468949435E+01  0.22823196614E+02  0.51100000000E-03 0. -1.
        -11    1    3    3    0    0  0.36791347720E+01 -0.12400573415E+01 -0.42450682244E+00  0.39056345431E+01  0.51100000000E-03 0.  1.
        -12    1    3    3    0    0  0.77624798226E+01 -0.17991243947E+02 -0.77145861134E+01  0.21058390030E+02  0.00000000000E+00 0.  1.
</event>
<event>
 7    1  0.3910751E-009  0.4778727E+02  0.7816164E-02  0.1312668E+00
        -11   -1    0    0    0    0  0.00000000000E+00  0.00000000000E+00  0.45593999997E+02  0.45594000000E+02  0.51100000000E-03 0.  1.
         11   -1    0    0    0    0 -0.00000000000E+00 -0.00000000000E+00 -0.45593999997E+02  0.45594000000E+02  0.51100000000E-03 0. -1.
    9900012    2    1    2    0    0  0.15133914919E+01 -0.26320427378E+02 -0.34475619371E+02  0.47787267492E+02  0.19999983804E+02 0.  0.
        -12    1    1    2    0    0 -0.15133914919E+01  0.26320427378E+02  0.34475619371E+02  0.43400732508E+02  0.00000000000E+00 0.  1.
         11    1    3    3    0    0  0.61889030326E+01 -0.48059961569E+01 -0.51178871688E+01  0.93591072833E+01  0.51100000000E-03 0. -1.
        -11    1    3    3    0    0 -0.28206350683E+01 -0.11995314685E+00 -0.63844923722E+01  0.69808390654E+01  0.51100000000E-03 0.  1.
         12    1    3    3    0    0 -0.18548764724E+01 -0.21394478075E+02 -0.22973239830E+02  0.31447321144E+02  0.00000000000E+00 0. -1.
</event>
<event>
 7    1  0.3910751E-009  0.4778727E+02  0.7816164E-02  0.1312668E+00
        -11   -1    0    0    0    0  0.00000000000E+00  0.00000000000E+00  0.45593999997E+02  0.45594000000E+02  0.51100000000E-03 0.  1.
         11   -1    0    0    0    0 -0.00000000000E+00 -0.00000000000E+00 -0.45593999997E+02  0.45594000000E+02  0.51100000000E-03 0. -1.
    9900012    2    1    2    0    0  0.43393125141E+02 -0.42761340312E+00 -0.69049622297E+00  0.47787274802E+02  0.20000017131E+02 0.  0.
        -12    1    1    2    0    0 -0.43393125141E+02  0.42761340312E+00  0.69049622297E+00  0.43400725198E+02  0.00000000000E+00 0.  1.
         11    1    3    3    0    0  0.66924656208E+01  0.31562131099E+01 -0.52860906632E+01  0.90935984100E+01  0.51100000000E-03 0. -1.
        -11    1    3    3    0    0  0.10941937802E+02 -0.39322644672E+01 -0.26658004779E+01  0.11928755138E+02  0.51100000000E-03 0.  1.
         12    1    3    3    0    0  0.25758721718E+02  0.34843795419E+00  0.72613949181E+01  0.26764921254E+02  0.00000000000E+00 0. -1.
</event>
<event>
 7    1  0.3910751E-009  0.4778725E+02  0.7816164E-02  0.1312668E+00
        -11   -1    0    0    0    0  0.00000000000E+00  0.00000000000E+00  0.45593999997E+02  0.45594000000E+02  0.51100000000E-03 0.  1.
         11   -1    0    0    0    0 -0.00000000000E+00 -0.00000000000E+00 -0.45593999997E+02  0.45594000000E+02  0.51100000000E-03 0. -1.
    9900012    2    1    2    0    0  0.18531621559E+02  0.35838038177E+02 -0.15994973508E+02  0.47787249367E+02  0.19999901164E+02 0.  0.
        -12    1    1    2    0    0 -0.18531621559E+02 -0.35838038177E+02  0.15994973508E+02  0.43400750633E+02  0.00000000000E+00 0.  1.
         11    1    3    3    0    0 -0.72366981611E-01  0.72304006157E+01  0.25508743100E+01  0.76675217671E+01  0.51100000000E-03 0. -1.
        -11    1    3    3    0    0  0.33247665231E+01  0.82344353028E+00 -0.39055288006E+01  0.51947364856E+01  0.51100000000E-03 0.  1.
        -12    1    3    3    0    0  0.15279222017E+02  0.27784194031E+02 -0.14640319018E+02  0.34924991114E+02  0.00000000000E+00 0.  1.
</event>
<event>
 7    1  0.3910751E-009  0.4778727E+02  0.7816164E-02  0.1312668E+00
        -11   -1    0    0    0    0  0.00000000000E+00  0.00000000000E+00  0.45593999997E+02  0.45594000000E+02  0.51100000000E-03 0. -1.
         11   -1    0    0    0    0 -0.00000000000E+00 -0.00000000000E+00 -0.45593999997E+02  0.45594000000E+02  0.51100000000E-03 0.  1.
    9900012    2    1    2    0    0  0.65424641786E+01 -0.34278146767E+02  0.25803642699E+02  0.47787272358E+02  0.20000005988E+02 0.  0.
        -12    1    1    2    0    0 -0.65424641786E+01  0.34278146767E+02 -0.25803642699E+02  0.43400727642E+02  0.00000000000E+00 0.  1.
         11    1    3    3    0    0  0.65576799016E+01 -0.18866536026E+02  0.96652864314E+01  0.22189346754E+02  0.51100000000E-03 0.  1.
        -11    1    3    3    0    0 -0.18878490095E+01 -0.13973222215E+02  0.62354375333E+01  0.15417379624E+02  0.51100000000E-03 0. -1.
        -12    1    3    3    0    0  0.18726332865E+01 -0.14383885253E+01  0.99029187348E+01  0.10180545980E+02  0.00000000000E+00 0.  1.
</event>
<event>
 7    1  0.3910751E-009  0.4778727E+02  0.7816164E-02  0.1312668E+00
        -11   -1    0    0    0    0  0.00000000000E+00  0.00000000000E+00  0.45593999997E+02  0.45594000000E+02  0.51100000000E-03 0.  1.
         11   -1    0    0    0    0 -0.00000000000E+00 -0.00000000000E+00 -0.45593999997E+02  0.45594000000E+02  0.51100000000E-03 0. -1.
    9900012    2    1    2    0    0 -0.37605904694E+02  0.21665627716E+02 -0.13943470050E+00  0.47787274957E+02  0.20000017840E+02 0.  0.
        -12    1    1    2    0    0  0.37605904694E+02 -0.21665627716E+02  0.13943470050E+00  0.43400725043E+02  0.00000000000E+00 0.  1.
         11    1    3    3    0    0  0.16581317495E+00 -0.36770595292E-01 -0.32410184916E+01  0.32454656383E+01  0.51100000000E-03 0.  1.
        -11    1    3    3    0    0 -0.16857501594E+02  0.85550199218E+01  0.55904011183E+01  0.19713353615E+02  0.51100000000E-03 0. -1.
        -12    1    3    3    0    0 -0.20914216276E+02  0.13147378389E+02 -0.24888173272E+01  0.24828455704E+02  0.00000000000E+00 0.  1.
</event>
<event>
 7    1  0.3910751E-009  0.4778728E+02  0.7816164E-02  0.1312668E+00
        -11   -1    0    0    0    0  0.00000000000E+00  0.00000000000E+00  0.45593999997E+02  0.45594000000E+02  0.51100000000E-03 0.  1.
         11   -1    0    0    0    0 -0.00000000000E+00 -0.00000000000E+00 -0.45593999997E+02  0.45594000000E+02  0.51100000000E-03 0. -1.
    9900012    2    1    2    0    0  0.72543130718E+01  0.25001330448E+02 -0.34726516248E+02  0.47787279810E+02  0.20000039964E+02 0.  0.
        -12    1    1    2    0    0 -0.72543130718E+01 -0.25001330448E+02  0.34726516248E+02  0.43400720190E+02  0.00000000000E+00 0.  1.
         11    1    3    3    0    0  0.42786594440E+01  0.12319560855E+01 -0.64794561590E+01  0.78618060782E+01  0.51100000000E-03 0. -1.
        -11    1    3    3    0    0 -0.24065482979E+01  0.13854400996E-01  0.27028275360E+00  0.24217183326E+01  0.51100000000E-03 0.  1.
        -12    1    3    3    0    0  0.53822019258E+01  0.23755519962E+02 -0.28517342843E+02  0.37503755399E+02  0.00000000000E+00 0.  1.
</event>
<event>
 7    1  0.3910751E-009  0.4778727E+02  0.7816164E-02  0.1312668E+00
        -11   -1    0    0    0    0  0.00000000000E+00  0.00000000000E+00  0.45593999997E+02  0.45594000000E+02  0.51100000000E-03 0.  1.
         11   -1    0    0    0    0 -0.00000000000E+00 -0.00000000000E+00 -0.45593999997E+02  0.45594000000E+02  0.51100000000E-03 0. -1.
    9900012    2    1    2    0    0  0.31641766946E+02 -0.25088695857E+02 -0.15905318432E+02  0.47787271554E+02  0.20000002322E+02 0.  0.
        -12    1    1    2    0    0 -0.31641766946E+02  0.25088695857E+02  0.15905318432E+02  0.43400728446E+02  0.00000000000E+00 0.  1.
         11    1    3    3    0    0  0.48430056506E+01 -0.31621667155E+01  0.72420073143E+00  0.58291053369E+01  0.51100000000E-03 0. -1.
        -11    1    3    3    0    0  0.24684117697E+02 -0.17527783564E+02 -0.19766966142E+02  0.36156075753E+02  0.51100000000E-03 0.  1.
        -12    1    3    3    0    0  0.21146435981E+01 -0.43987455775E+01  0.31374469787E+01  0.58020904635E+01  0.00000000000E+00 0.  1.
</event>
<event>
 7    1  0.3910751E-009  0.4778727E+02  0.7816164E-02  0.1312668E+00
        -11   -1    0    0    0    0  0.00000000000E+00  0.00000000000E+00  0.45593999997E+02  0.45594000000E+02  0.51100000000E-03 0.  1.
         11   -1    0    0    0    0 -0.00000000000E+00 -0.00000000000E+00 -0.45593999997E+02  0.45594000000E+02  0.51100000000E-03 0. -1.
    9900012    2    1    2    0    0  0.55262168440E+01  0.43044675952E+02  0.49036393839E+00  0.47787266628E+02  0.19999979864E+02 0.  0.
        -12    1    1    2    0    0 -0.55262168440E+01 -0.43044675952E+02 -0.49036393839E+00  0.43400733372E+02  0.00000000000E+00 0.  1.
         11    1    3    3    0    0 -0.89268299733E+00  0.71410671901E+01  0.15365298821E+01  0.73588482718E+01  0.51100000000E-03 0. -1.
        -11    1    3    3    0    0  0.69779633429E+01  0.28003817329E+02 -0.79359650922E+01  0.29931343097E+02  0.51100000000E-03 0.  1.
        -12    1    3    3    0    0 -0.55906350156E+00  0.78997914334E+01  0.68897991484E+01  0.10497075259E+02  0.00000000000E+00 0.  1.
</event>
<event>
 7    1  0.3910751E-009  0.4778725E+02  0.7816164E-02  0.1312668E+00
        -11   -1    0    0    0    0  0.00000000000E+00  0.00000000000E+00  0.45593999997E+02  0.45594000000E+02  0.51100000000E-03 0. -1.
         11   -1    0    0    0    0 -0.00000000000E+00 -0.00000000000E+00 -0.45593999997E+02  0.45594000000E+02  0.51100000000E-03 0.  1.
    9900012    2    1    2    0    0  0.32523184672E+02 -0.28291524589E+02 -0.50454851102E+01  0.47787253177E+02  0.19999918535E+02 0.  0.
        -12    1    1    2    0    0 -0.32523184672E+02  0.28291524589E+02  0.50454851102E+01  0.43400746823E+02  0.00000000000E+00 0.  1.
         11    1    3    3    0    0 -0.11032665239E+01 -0.91738806757E-01  0.11525216338E+01  0.15980986856E+01  0.51100000000E-03 0. -1.
        -11    1    3    3    0    0 -0.31609974844E+00 -0.39163776143E+01  0.34704630159E+00  0.39444104839E+01  0.51100000000E-03 0.  1.
         12    1    3    3    0    0  0.33942550945E+02 -0.24283408168E+02 -0.65450530456E+01  0.42244744007E+02  0.00000000000E+00 0. -1.
</event>
<event>
 7    1  0.3910751E-009  0.4778727E+02  0.7816164E-02  0.1312668E+00
        -11   -1    0    0    0    0  0.00000000000E+00  0.00000000000E+00  0.45593999997E+02  0.45594000000E+02  0.51100000000E-03 0.  1.
         11   -1    0    0    0    0 -0.00000000000E+00 -0.00000000000E+00 -0.45593999997E+02  0.45594000000E+02  0.51100000000E-03 0. -1.
    9900012    2    1    2    0    0  0.26108109628E+01  0.98162063287E+01 -0.42195366510E+02  0.47787271947E+02  0.20000004117E+02 0.  0.
        -12    1    1    2    0    0 -0.26108109628E+01 -0.98162063287E+01  0.42195366510E+02  0.43400728053E+02  0.00000000000E+00 0.  1.
         11    1    3    3    0    0  0.19531432434E+01  0.71513614645E+01 -0.40214861082E+02  0.40892441740E+02  0.51100000000E-03 0. -1.
        -11    1    3    3    0    0 -0.83154827232E+00 -0.17521814560E+01 -0.68396293959E+00  0.20565548735E+01  0.51100000000E-03 0.  1.
        -12    1    3    3    0    0  0.14892159918E+01  0.44170263202E+01 -0.12965424881E+01  0.48382753339E+01  0.00000000000E+00 0.  1.
</event>
<event>
 7    1  0.3910751E-009  0.4778726E+02  0.7816164E-02  0.1312668E+00
        -11   -1    0    0    0    0  0.00000000000E+00  0.00000000000E+00  0.45593999997E+02  0.45594000000E+02  0.51100000000E-03 0.  1.
         11   -1    0    0    0    0 -0.00000000000E+00 -0.00000000000E+00 -0.45593999997E+02  0.45594000000E+02  0.51100000000E-03 0. -1.
    9900012    2    1    2    0    0 -0.30699767669E+02  0.89936323589E+01 -0.29330243082E+02  0.47787259025E+02  0.19999945197E+02 0.  0.
        -12    1    1    2    0    0  0.30699767669E+02 -0.89936323589E+01  0.29330243082E+02  0.43400740975E+02  0.00000000000E+00 0.  1.
         11    1    3    3    0    0 -0.29002561629E+02  0.10251113885E+02 -0.23727714774E+02  0.38848917174E+02  0.51100000000E-03 0. -1.
        -11    1    3    3    0    0 -0.93129480768E+00  0.15410574061E+01  0.75310083947E+00  0.19517502615E+01  0.51100000000E-03 0.  1.
        -12    1    3    3    0    0 -0.76591123254E+00 -0.27985389325E+01 -0.63556291473E+01  0.69865915890E+01  0.00000000000E+00 0.  1.
</event>
<event>
 7    1  0.3910751E-009  0.4778730E+02  0.7816164E-02  0.1312668E+00
        -11   -1    0    0    0    0  0.00000000000E+00  0.00000000000E+00  0.45593999997E+02  0.45594000000E+02  0.51100000000E-03 0. -1.
         11   -1    0    0    0    0 -0.00000000000E+00 -0.00000000000E+00 -0.45593999997E+02  0.45594000000E+02  0.51100000000E-03 0.  1.
    9900012    2    1    2    0    0  0.15218208305E+02  0.25956215768E+02  0.31277822134E+02  0.47787295415E+02  0.20000111116E+02 0.  0.
        -12    1    1    2    0    0 -0.15218208305E+02 -0.25956215768E+02 -0.31277822134E+02  0.43400704585E+02  0.00000000000E+00 0.  1.
         11    1    3    3    0    0  0.35928526065E+01  0.12958734671E+02  0.14038206002E+02  0.19439871968E+02  0.51100000000E-03 0. -1.
        -11    1    3    3    0    0  0.69227019574E+01  0.13234328281E+02  0.58813393446E+01  0.16051834792E+02  0.51100000000E-03 0.  1.
         12    1    3    3    0    0  0.47026537415E+01 -0.23684718408E+00  0.11358276788E+02  0.12295588655E+02  0.00000000000E+00 0. -1.
</event>
<event>
 7    1  0.3910751E-009  0.4778726E+02  0.7816164E-02  0.1312668E+00
        -11   -1    0    0    0    0  0.00000000000E+00  0.00000000000E+00  0.45593999997E+02  0.45594000000E+02  0.51100000000E-03 0.  1.
         11   -1    0    0    0    0 -0.00000000000E+00 -0.00000000000E+00 -0.45593999997E+02  0.45594000000E+02  0.51100000000E-03 0. -1.
    9900012    2    1    2    0    0 -0.21606669035E+02 -0.75457616142E+01 -0.36875978693E+02  0.47787257268E+02  0.19999937188E+02 0.  0.
        -12    1    1    2    0    0  0.21606669035E+02  0.75457616142E+01  0.36875978693E+02  0.43400742732E+02  0.00000000000E+00 0.  1.
         11    1    3    3    0    0 -0.19730964366E+02 -0.95448136301E+01 -0.26409270225E+02  0.34320022962E+02  0.51100000000E-03 0. -1.
        -11    1    3    3    0    0 -0.44897859861E+01  0.81339844442E+00 -0.29817030655E+01  0.54507200133E+01  0.51100000000E-03 0.  1.
        -12    1    3    3    0    0  0.26140813175E+01  0.11856535714E+01 -0.74850054029E+01  0.80165142928E+01  0.00000000000E+00 0.  1.
</event>
<event>
 7    1  0.3910751E-009  0.4778727E+02  0.7816164E-02  0.1312668E+00
        -11   -1    0    0    0    0  0.00000000000E+00  0.00000000000E+00  0.45593999997E+02  0.45594000000E+02  0.51100000000E-03 0.  1.
         11   -1    0    0    0    0 -0.00000000000E+00 -0.00000000000E+00 -0.45593999997E+02  0.45594000000E+02  0.51100000000E-03 0. -1.
    9900012    2    1    2    0    0  0.27313375956E+02 -0.34170470235E+01 -0.33554830948E+02  0.47787269632E+02  0.19999993561E+02 0.  0.
        -12    1    1    2    0    0 -0.27313375956E+02  0.34170470235E+01  0.33554830948E+02  0.43400730368E+02  0.00000000000E+00 0.  1.
         11    1    3    3    0    0  0.10863195590E+02  0.17317236371E+00 -0.19642073922E+02  0.22446604984E+02  0.51100000000E-03 0. -1.
        -11    1    3    3    0    0  0.13018979506E+02 -0.76214609864E+01 -0.13110118953E+02  0.19986388222E+02  0.51100000000E-03 0.  1.
         12    1    3    3    0    0  0.34312008591E+01  0.40312415992E+01 -0.80263807389E+00  0.53542764259E+01  0.00000000000E+00 0. -1.
</event>
<event>
 7    1  0.3910751E-009  0.4778727E+02  0.7816164E-02  0.1312668E+00
        -11   -1    0    0    0    0  0.00000000000E+00  0.00000000000E+00  0.45593999997E+02  0.45594000000E+02  0.51100000000E-03 0.  1.
         11   -1    0    0    0    0 -0.00000000000E+00 -0.00000000000E+00 -0.45593999997E+02  0.45594000000E+02  0.51100000000E-03 0. -1.
    9900012    2    1    2    0    0  0.36689296197E+02  0.65595670324E+01 -0.22237158531E+02  0.47787267349E+02  0.19999983152E+02 0.  0.
        -12    1    1    2    0    0 -0.36689296197E+02 -0.65595670324E+01  0.22237158531E+02  0.43400732651E+02  0.00000000000E+00 0.  1.
         11    1    3    3    0    0  0.23557346269E+01 -0.40087032742E+01 -0.19374661805E+01  0.50371582301E+01  0.51100000000E-03 0. -1.
        -11    1    3    3    0    0  0.39533121884E+01  0.18650985847E+01  0.11938716597E+01  0.45312911836E+01  0.51100000000E-03 0.  1.
         12    1    3    3    0    0  0.30380249382E+02  0.87031717219E+01 -0.21493564010E+02  0.38218817935E+02  0.00000000000E+00 0. -1.
</event>
<event>
 7    1  0.3910751E-009  0.4778727E+02  0.7816164E-02  0.1312668E+00
        -11   -1    0    0    0    0  0.00000000000E+00  0.00000000000E+00  0.45593999997E+02  0.45594000000E+02  0.51100000000E-03 0. -1.
         11   -1    0    0    0    0 -0.00000000000E+00 -0.00000000000E+00 -0.45593999997E+02  0.45594000000E+02  0.51100000000E-03 0.  1.
    9900012    2    1    2    0    0  0.82227587670E+01  0.13068930650E+02  0.40561219861E+02  0.47787271128E+02  0.20000000379E+02 0.  0.
        -12    1    1    2    0    0 -0.82227587670E+01 -0.13068930650E+02 -0.40561219861E+02  0.43400728872E+02  0.00000000000E+00 0.  1.
         11    1    3    3    0    0  0.42450276773E+01  0.66358550610E+01  0.14558687312E+02  0.16553253725E+02  0.51100000000E-03 0. -1.
        -11    1    3    3    0    0 -0.12114104428E+01  0.70286520637E+01  0.24892538907E+02  0.25894168429E+02  0.51100000000E-03 0.  1.
        -12    1    3    3    0    0  0.51891415325E+01 -0.59557647443E+00  0.11099936409E+01  0.53398489739E+01  0.00000000000E+00 0.  1.
</event>
<event>
 7    1  0.3910751E-009  0.4778727E+02  0.7816164E-02  0.1312668E+00
        -11   -1    0    0    0    0  0.00000000000E+00  0.00000000000E+00  0.45593999997E+02  0.45594000000E+02  0.51100000000E-03 0. -1.
         11   -1    0    0    0    0 -0.00000000000E+00 -0.00000000000E+00 -0.45593999997E+02  0.45594000000E+02  0.51100000000E-03 0.  1.
    9900012    2    1    2    0    0 -0.26835908174E+02 -0.32052670096E+02  0.11665480730E+02  0.47787273411E+02  0.20000010790E+02 0.  0.
        -12    1    1    2    0    0  0.26835908174E+02  0.32052670096E+02 -0.11665480730E+02  0.43400726589E+02  0.00000000000E+00 0.  1.
         11    1    3    3    0    0 -0.74843992993E+01 -0.19250555574E+01 -0.14588505442E+01  0.78644972466E+01  0.51100000000E-03 0. -1.
        -11    1    3    3    0    0 -0.86317156037E+01 -0.41986577435E+01  0.42279760515E+01  0.10488613963E+02  0.51100000000E-03 0.  1.
         12    1    3    3    0    0 -0.10719793271E+02 -0.25928956795E+02  0.88963552223E+01  0.29434162201E+02  0.00000000000E+00 0. -1.
</event>
<event>
 7    1  0.3910751E-009  0.4778727E+02  0.7816164E-02  0.1312668E+00
        -11   -1    0    0    0    0  0.00000000000E+00  0.00000000000E+00  0.45593999997E+02  0.45594000000E+02  0.51100000000E-03 0.  1.
         11   -1    0    0    0    0 -0.00000000000E+00 -0.00000000000E+00 -0.45593999997E+02  0.45594000000E+02  0.51100000000E-03 0. -1.
    9900012    2    1    2    0    0 -0.33785949098E+02  0.26469949068E+02  0.64401087233E+01  0.47787267743E+02  0.19999984945E+02 0.  0.
        -12    1    1    2    0    0  0.33785949098E+02 -0.26469949068E+02 -0.64401087233E+01  0.43400732257E+02  0.00000000000E+00 0.  1.
         11    1    3    3    0    0 -0.66974057888E+01 -0.91251935679E+00 -0.44167469585E+00  0.67737000726E+01  0.51100000000E-03 0. -1.
        -11    1    3    3    0    0 -0.14208942406E+02  0.10326762021E+02  0.86281409582E+01  0.19569897159E+02  0.51100000000E-03 0.  1.
        -12    1    3    3    0    0 -0.12879600904E+02  0.17055706403E+02 -0.17463575391E+01  0.21443670511E+02  0.00000000000E+00 0.  1.
</event>
<event>
 7    1  0.3910751E-009  0.4778727E+02  0.7816164E-02  0.1312668E+00
        -11   -1    0    0    0    0  0.00000000000E+00  0.00000000000E+00  0.45593999997E+02  0.45594000000E+02  0.51100000000E-03 0.  1.
         11   -1    0    0    0    0 -0.00000000000E+00 -0.00000000000E+00 -0.45593999997E+02  0.45594000000E+02  0.51100000000E-03 0. -1.
    9900012    2    1    2    0    0  0.25855613830E+02  0.32883676824E+02  0.11566106597E+02  0.47787265101E+02  0.19999972900E+02 0.  0.
        -12    1    1    2    0    0 -0.25855613830E+02 -0.32883676824E+02 -0.11566106597E+02  0.43400734899E+02  0.00000000000E+00 0.  1.
         11    1    3    3    0    0 -0.56581916790E+00  0.61860928332E+01 -0.62734465631E+00  0.62435132298E+01  0.51100000000E-03 0. -1.
        -11    1    3    3    0    0  0.81077217900E+00 -0.10146203239E+01  0.21231300732E+01  0.24888727362E+01  0.51100000000E-03 0.  1.
        -12    1    3    3    0    0  0.25610660819E+02  0.27712204315E+02  0.10070321180E+02  0.39054879135E+02  0.00000000000E+00 0.  1.
</event>
<event>
 7    1  0.3910751E-009  0.4778727E+02  0.7816164E-02  0.1312668E+00
        -11   -1    0    0    0    0  0.00000000000E+00  0.00000000000E+00  0.45593999997E+02  0.45594000000E+02  0.51100000000E-03 0.  1.
         11   -1    0    0    0    0 -0.00000000000E+00 -0.00000000000E+00 -0.45593999997E+02  0.45594000000E+02  0.51100000000E-03 0. -1.
    9900012    2    1    2    0    0 -0.47462980193E+01  0.46209749865E+00 -0.43137945469E+02  0.47787271685E+02  0.20000002919E+02 0.  0.
        -12    1    1    2    0    0  0.47462980193E+01 -0.46209749865E+00  0.43137945469E+02  0.43400728315E+02  0.00000000000E+00 0.  1.
         11    1    3    3    0    0 -0.49303246680E+01  0.19326398930E+01 -0.96069532438E+01  0.10969810809E+02  0.51100000000E-03 0. -1.
        -11    1    3    3    0    0 -0.22704468686E+01 -0.52788561012E+01 -0.41477611122E+01  0.70869720774E+01  0.51100000000E-03 0.  1.
         12    1    3    3    0    0  0.24544735172E+01  0.38083137068E+01 -0.29383231113E+02  0.29730488799E+02  0.00000000000E+00 0. -1.
</event>
<event>
 7    1  0.3910751E-009  0.4778726E+02  0.7816164E-02  0.1312668E+00
        -11   -1    0    0    0    0  0.00000000000E+00  0.00000000000E+00  0.45593999997E+02  0.45594000000E+02  0.51100000000E-03 0.  1.
         11   -1    0    0    0    0 -0.00000000000E+00 -0.00000000000E+00 -0.45593999997E+02  0.45594000000E+02  0.51100000000E-03 0. -1.
    9900012    2    1    2    0    0  0.21949542034E+02 -0.29306538174E+01 -0.37326306496E+02  0.47787259408E+02  0.19999946944E+02 0.  0.
        -12    1    1    2    0    0 -0.21949542034E+02  0.29306538174E+01  0.37326306496E+02  0.43400740592E+02  0.00000000000E+00 0.  1.
         11    1    3    3    0    0  0.37130068739E+01  0.27855842511E+01 -0.75801374923E+01  0.88884410516E+01  0.51100000000E-03 0. -1.
        -11    1    3    3    0    0  0.62425682720E+01  0.18131495924E+01 -0.21609917186E+02  0.22566472723E+02  0.51100000000E-03 0.  1.
         12    1    3    3    0    0  0.11993966888E+02 -0.75293876609E+01 -0.81362518174E+01  0.16332345634E+02  0.00000000000E+00 0. -1.
</event>
<event>
 7    1  0.3910751E-009  0.4778727E+02  0.7816164E-02  0.1312668E+00
        -11   -1    0    0    0    0  0.00000000000E+00  0.00000000000E+00  0.45593999997E+02  0.45594000000E+02  0.51100000000E-03 0.  1.
         11   -1    0    0    0    0 -0.00000000000E+00 -0.00000000000E+00 -0.45593999997E+02  0.45594000000E+02  0.51100000000E-03 0. -1.
    9900012    2    1    2    0    0  0.30414530570E+02  0.30271279100E+02 -0.64983971617E+01  0.47787272198E+02  0.20000005258E+02 0.  0.
        -12    1    1    2    0    0 -0.30414530570E+02 -0.30271279100E+02  0.64983971617E+01  0.43400727802E+02  0.00000000000E+00 0.  1.
         11    1    3    3    0    0  0.64054039720E+01  0.38410225048E+00 -0.20454495552E+01  0.67350277452E+01  0.51100000000E-03 0. -1.
        -11    1    3    3    0    0  0.10042354315E+02  0.12020935470E+02  0.50592236600E+01  0.16460483409E+02  0.51100000000E-03 0.  1.
        -12    1    3    3    0    0  0.13966772283E+02  0.17866241379E+02 -0.95121712664E+01  0.24591761043E+02  0.00000000000E+00 0.  1.
</event>
<event>
 7    1  0.3910751E-009  0.4778728E+02  0.7816164E-02  0.1312668E+00
        -11   -1    0    0    0    0  0.00000000000E+00  0.00000000000E+00  0.45593999997E+02  0.45594000000E+02  0.51100000000E-03 0. -1.
         11   -1    0    0    0    0 -0.00000000000E+00 -0.00000000000E+00 -0.45593999997E+02  0.45594000000E+02  0.51100000000E-03 0.  1.
    9900012    2    1    2    0    0 -0.30308722149E+02 -0.24013462817E+02  0.19706798140E+02  0.47787275033E+02  0.20000018185E+02 0.  0.
        -12    1    1    2    0    0  0.30308722149E+02  0.24013462817E+02 -0.19706798140E+02  0.43400724967E+02  0.00000000000E+00 0.  1.
         11    1    3    3    0    0 -0.11553210183E+02  0.10852715356E+01  0.60610274415E+01  0.13091620745E+02  0.51100000000E-03 0. -1.
        -11    1    3    3    0    0 -0.19128800074E+01 -0.39502879976E+01 -0.48823236711E-01  0.43893358446E+01  0.51100000000E-03 0.  1.
         12    1    3    3    0    0 -0.16842631959E+02 -0.21148446355E+02  0.13694593935E+02  0.30306318443E+02  0.00000000000E+00 0. -1.
</event>
<event>
 7    1  0.3910751E-009  0.4778727E+02  0.7816164E-02  0.1312668E+00
        -11   -1    0    0    0    0  0.00000000000E+00  0.00000000000E+00  0.45593999997E+02  0.45594000000E+02  0.51100000000E-03 0.  1.
         11   -1    0    0    0    0 -0.00000000000E+00 -0.00000000000E+00 -0.45593999997E+02  0.45594000000E+02  0.51100000000E-03 0. -1.
    9900012    2    1    2    0    0 -0.11585487503E+02 -0.41694734410E+02 -0.33089051344E+01  0.47787271304E+02  0.20000001183E+02 0.  0.
        -12    1    1    2    0    0  0.11585487503E+02  0.41694734410E+02  0.33089051344E+01  0.43400728696E+02  0.00000000000E+00 0.  1.
         11    1    3    3    0    0 -0.32870232157E+01 -0.20053502221E+02 -0.20468373371E+01  0.20423932440E+02  0.51100000000E-03 0.  1.
        -11    1    3    3    0    0 -0.93758794719E+01 -0.21964193749E+02 -0.41722454362E+01  0.24243361053E+02  0.51100000000E-03 0. -1.
        -12    1    3    3    0    0  0.10774151843E+01  0.32296156106E+00  0.29101776388E+01  0.31199778106E+01  0.00000000000E+00 0.  1.
</event>
<event>
 7    1  0.3910751E-009  0.4778727E+02  0.7816164E-02  0.1312668E+00
        -11   -1    0    0    0    0  0.00000000000E+00  0.00000000000E+00  0.45593999997E+02  0.45594000000E+02  0.51100000000E-03 0. -1.
         11   -1    0    0    0    0 -0.00000000000E+00 -0.00000000000E+00 -0.45593999997E+02  0.45594000000E+02  0.51100000000E-03 0.  1.
    9900012    2    1    2    0    0  0.26845626729E+02 -0.13814942014E+02  0.31178247730E+02  0.47787269259E+02  0.19999991860E+02 0.  0.
        -12    1    1    2    0    0 -0.26845626729E+02  0.13814942014E+02 -0.31178247730E+02  0.43400730741E+02  0.00000000000E+00 0.  1.
         11    1    3    3    0    0  0.53507559672E+01  0.13360843752E+01  0.15109418407E+02  0.16084471883E+02  0.51100000000E-03 0. -1.
        -11    1    3    3    0    0  0.16905491022E+01  0.78547490872E+00  0.15788105192E+01  0.24428610308E+01  0.51100000000E-03 0.  1.
         12    1    3    3    0    0  0.19804321660E+02 -0.15936501298E+02  0.14490018803E+02  0.29259936345E+02  0.00000000000E+00 0. -1.
</event>
<event>
 7    1  0.3910751E-009  0.4778727E+02  0.7816164E-02  0.1312668E+00
        -11   -1    0    0    0    0  0.00000000000E+00  0.00000000000E+00  0.45593999997E+02  0.45594000000E+02  0.51100000000E-03 0. -1.
         11   -1    0    0    0    0 -0.00000000000E+00 -0.00000000000E+00 -0.45593999997E+02  0.45594000000E+02  0.51100000000E-03 0.  1.
    9900012    2    1    2    0    0  0.35791987015E+02 -0.24194131169E+02  0.41474193604E+01  0.47787269535E+02  0.19999993120E+02 0.  0.
        -12    1    1    2    0    0 -0.35791987015E+02  0.24194131169E+02 -0.41474193604E+01  0.43400730465E+02  0.00000000000E+00 0.  1.
         11    1    3    3    0    0  0.12001355839E+02 -0.46571572398E+01  0.47330769390E+01  0.13715818354E+02  0.51100000000E-03 0.  1.
        -11    1    3    3    0    0  0.41353203682E-01 -0.18479108456E+01  0.37134072668E+01  0.41479969107E+01  0.51100000000E-03 0. -1.
        -12    1    3    3    0    0  0.23749277972E+02 -0.17689063084E+02 -0.42990648454E+01  0.29923454271E+02  0.00000000000E+00 0.  1.
</event>
<event>
 7    1  0.3910751E-009  0.4778727E+02  0.7816164E-02  0.1312668E+00
        -11   -1    0    0    0    0  0.00000000000E+00  0.00000000000E+00  0.45593999997E+02  0.45594000000E+02  0.51100000000E-03 0. -1.
         11   -1    0    0    0    0 -0.00000000000E+00 -0.00000000000E+00 -0.45593999997E+02  0.45594000000E+02  0.51100000000E-03 0.  1.
    9900012    2    1    2    0    0 -0.28019559041E+02 -0.32871868689E+02  0.42388629838E+01  0.47787269599E+02  0.19999993409E+02 0.  0.
        -12    1    1    2    0    0  0.28019559041E+02  0.32871868689E+02 -0.42388629838E+01  0.43400730401E+02  0.00000000000E+00 0.  1.
         11    1    3    3    0    0 -0.33615053959E+01 -0.63628713777E+01  0.82977539344E+01  0.10983559137E+02  0.51100000000E-03 0. -1.
        -11    1    3    3    0    0 -0.19384373960E+01 -0.22643039645E+01 -0.18411551607E+01  0.35034931952E+01  0.51100000000E-03 0.  1.
         12    1    3    3    0    0 -0.22719616249E+02 -0.24244693347E+02 -0.22177357899E+01  0.33300217267E+02  0.00000000000E+00 0. -1.
</event>
<event>
 7    1  0.3910751E-009  0.4778729E+02  0.7816164E-02  0.1312668E+00
        -11   -1    0    0    0    0  0.00000000000E+00  0.00000000000E+00  0.45593999997E+02  0.45594000000E+02  0.51100000000E-03 0.  1.
         11   -1    0    0    0    0 -0.00000000000E+00 -0.00000000000E+00 -0.45593999997E+02  0.45594000000E+02  0.51100000000E-03 0. -1.
    9900012    2    1    2    0    0 -0.36997606892E+02  0.21851252378E+02 -0.61091247248E+01  0.47787290892E+02  0.20000090492E+02 0.  0.
        -12    1    1    2    0    0  0.36997606892E+02 -0.21851252378E+02  0.61091247248E+01  0.43400709108E+02  0.00000000000E+00 0.  1.
         11    1    3    3    0    0 -0.20426299373E+02  0.64841735467E+01 -0.32050511084E+01  0.21669115476E+02  0.51100000000E-03 0. -1.
        -11    1    3    3    0    0 -0.14238556086E+01 -0.19079248102E+01  0.13727105200E+01  0.27480677408E+01  0.51100000000E-03 0.  1.
         12    1    3    3    0    0 -0.15147451910E+02  0.17275003641E+02 -0.42767841363E+01  0.23370107675E+02  0.00000000000E+00 0. -1.
</event>
<event>
 7    1  0.3910751E-009  0.4778727E+02  0.7816164E-02  0.1312668E+00
        -11   -1    0    0    0    0  0.00000000000E+00  0.00000000000E+00  0.45593999997E+02  0.45594000000E+02  0.51100000000E-03 0. -1.
         11   -1    0    0    0    0 -0.00000000000E+00 -0.00000000000E+00 -0.45593999997E+02  0.45594000000E+02  0.51100000000E-03 0.  1.
    9900012    2    1    2    0    0  0.66878659832E+01  0.42882349808E+02  0.92011079463E-02  0.47787267735E+02  0.19999984913E+02 0.  0.
        -12    1    1    2    0    0 -0.66878659832E+01 -0.42882349808E+02 -0.92011079463E-02  0.43400732265E+02  0.00000000000E+00 0.  1.
         11    1    3    3    0    0  0.62739617187E+00  0.19157139731E+02 -0.33186742787E+01  0.19452589232E+02  0.51100000000E-03 0. -1.
        -11    1    3    3    0    0 -0.34196167696E+01  0.14505331448E+02  0.13597145176E+01  0.14964866959E+02  0.51100000000E-03 0.  1.
         12    1    3    3    0    0  0.94800865809E+01  0.92198786288E+01  0.19681608690E+01  0.13369811544E+02  0.00000000000E+00 0. -1.
</event>
<event>
 7    1  0.3910751E-009  0.4778726E+02  0.7816164E-02  0.1312668E+00
        -11   -1    0    0    0    0  0.00000000000E+00  0.00000000000E+00  0.45593999997E+02  0.45594000000E+02  0.51100000000E-03 0.  1.
         11   -1    0    0    0    0 -0.00000000000E+00 -0.00000000000E+00 -0.45593999997E+02  0.45594000000E+02  0.51100000000E-03 0. -1.
    9900012    2    1    2    0    0 -0.19882471955E+02  0.26387542245E+02 -0.28142663639E+02  0.47787255842E+02  0.19999930686E+02 0.  0.
        -12    1    1    2    0    0  0.19882471955E+02 -0.26387542245E+02  0.28142663639E+02  0.43400744158E+02  0.00000000000E+00 0.  1.
         11    1    3    3    0    0 -0.13692106062E+02  0.85264434336E+01 -0.14828872956E+02  0.21910487887E+02  0.51100000000E-03 0. -1.
        -11    1    3    3    0    0 -0.12786981570E+01  0.15040159384E+00 -0.59328073048E+01  0.60709054014E+01  0.51100000000E-03 0.  1.
        -12    1    3    3    0    0 -0.49116677357E+01  0.17710697217E+02 -0.73809833789E+01  0.19805862554E+02  0.00000000000E+00 0.  1.
</event>
<event>
 7    1  0.3910751E-009  0.4778727E+02  0.7816164E-02  0.1312668E+00
        -11   -1    0    0    0    0  0.00000000000E+00  0.00000000000E+00  0.45593999997E+02  0.45594000000E+02  0.51100000000E-03 0.  1.
         11   -1    0    0    0    0 -0.00000000000E+00 -0.00000000000E+00 -0.45593999997E+02  0.45594000000E+02  0.51100000000E-03 0. -1.
    9900012    2    1    2    0    0  0.13579709359E+02  0.40201855561E+02 -0.91118406022E+01  0.47787270329E+02  0.19999996737E+02 0.  0.
        -12    1    1    2    0    0 -0.13579709359E+02 -0.40201855561E+02  0.91118406022E+01  0.43400729671E+02  0.00000000000E+00 0.  1.
         11    1    3    3    0    0  0.54333228392E+01  0.18698907810E+02  0.25635517405E+01  0.19640314359E+02  0.51100000000E-03 0. -1.
        -11    1    3    3    0    0  0.35205876755E+01  0.33307817963E+01  0.16755561908E+01  0.51279756011E+01  0.51100000000E-03 0.  1.
         12    1    3    3    0    0  0.46257988445E+01  0.18172165955E+02 -0.13350948534E+02  0.23018980368E+02  0.00000000000E+00 0. -1.
</event>
<event>
 7    1  0.3910751E-009  0.4778727E+02  0.7816164E-02  0.1312668E+00
        -11   -1    0    0    0    0  0.00000000000E+00  0.00000000000E+00  0.45593999997E+02  0.45594000000E+02  0.51100000000E-03 0. -1.
         11   -1    0    0    0    0 -0.00000000000E+00 -0.00000000000E+00 -0.45593999997E+02  0.45594000000E+02  0.51100000000E-03 0.  1.
    9900012    2    1    2    0    0  0.27383765042E+01 -0.42144002241E+02 -0.10000372580E+02  0.47787273249E+02  0.20000010051E+02 0.  0.
        -12    1    1    2    0    0 -0.27383765042E+01  0.42144002241E+02  0.10000372580E+02  0.43400726751E+02  0.00000000000E+00 0.  1.
         11    1    3    3    0    0  0.32074349127E+01 -0.26992933152E+02  0.15918136400E+01  0.27229394959E+02  0.51100000000E-03 0. -1.
        -11    1    3    3    0    0  0.25863252549E+01 -0.27646042488E+01 -0.47727398126E+01  0.60918930191E+01  0.51100000000E-03 0.  1.
        -12    1    3    3    0    0 -0.30553836634E+01 -0.12386464840E+02 -0.68194464074E+01  0.14465985271E+02  0.00000000000E+00 0.  1.
</event>
<event>
 7    1  0.3910751E-009  0.4778727E+02  0.7816164E-02  0.1312668E+00
        -11   -1    0    0    0    0  0.00000000000E+00  0.00000000000E+00  0.45593999997E+02  0.45594000000E+02  0.51100000000E-03 0.  1.
         11   -1    0    0    0    0 -0.00000000000E+00 -0.00000000000E+00 -0.45593999997E+02  0.45594000000E+02  0.51100000000E-03 0. -1.
    9900012    2    1    2    0    0  0.37947701082E+02 -0.18441925846E+02 -0.10173031720E+02  0.47787271657E+02  0.20000002793E+02 0.  0.
        -12    1    1    2    0    0 -0.37947701082E+02  0.18441925846E+02  0.10173031720E+02  0.43400728343E+02  0.00000000000E+00 0.  1.
         11    1    3    3    0    0  0.21193183011E+01 -0.56654142411E+01 -0.62074094220E+00  0.60806042596E+01  0.51100000000E-03 0. -1.
        -11    1    3    3    0    0  0.13385087365E+02 -0.12061071639E+02 -0.58865504326E+01  0.18954722079E+02  0.51100000000E-03 0.  1.
         12    1    3    3    0    0  0.22443295416E+02 -0.71543996665E+00 -0.36657403454E+01  0.22751945319E+02  0.00000000000E+00 0. -1.
</event>
<event>
 7    1  0.3910751E-009  0.4778727E+02  0.7816164E-02  0.1312668E+00
        -11   -1    0    0    0    0  0.00000000000E+00  0.00000000000E+00  0.45593999997E+02  0.45594000000E+02  0.51100000000E-03 0.  1.
         11   -1    0    0    0    0 -0.00000000000E+00 -0.00000000000E+00 -0.45593999997E+02  0.45594000000E+02  0.51100000000E-03 0. -1.
    9900012    2    1    2    0    0 -0.40294212495E+02  0.14890043705E+02 -0.61875837285E+01  0.47787272419E+02  0.20000006267E+02 0.  0.
        -12    1    1    2    0    0  0.40294212495E+02 -0.14890043705E+02  0.61875837285E+01  0.43400727581E+02  0.00000000000E+00 0.  1.
         11    1    3    3    0    0 -0.22456389139E+02  0.10811020777E+02 -0.52182309976E+01  0.25463650925E+02  0.51100000000E-03 0. -1.
        -11    1    3    3    0    0 -0.13367965334E+02  0.86204621198E+01 -0.11593911026E+01  0.15948637946E+02  0.51100000000E-03 0.  1.
        -12    1    3    3    0    0 -0.44698580220E+01 -0.45414391911E+01  0.19003837180E+00  0.63749835487E+01  0.00000000000E+00 0.  1.
</event>
<event>
 7    1  0.3910751E-009  0.4778727E+02  0.7816164E-02  0.1312668E+00
        -11   -1    0    0    0    0  0.00000000000E+00  0.00000000000E+00  0.45593999997E+02  0.45594000000E+02  0.51100000000E-03 0.  1.
         11   -1    0    0    0    0 -0.00000000000E+00 -0.00000000000E+00 -0.45593999997E+02  0.45594000000E+02  0.51100000000E-03 0. -1.
    9900012    2    1    2    0    0  0.29942808296E+02 -0.28862469211E+02 -0.12410061591E+02  0.47787268137E+02  0.19999986742E+02 0.  0.
        -12    1    1    2    0    0 -0.29942808296E+02  0.28862469211E+02  0.12410061591E+02  0.43400731863E+02  0.00000000000E+00 0.  1.
         11    1    3    3    0    0  0.44342896832E+01 -0.56499215998E+01 -0.40689741004E+01  0.82547616300E+01  0.51100000000E-03 0. -1.
        -11    1    3    3    0    0  0.12102728071E+02 -0.62933005288E+01  0.45618079359E+01  0.14383732138E+02  0.51100000000E-03 0.  1.
        -12    1    3    3    0    0  0.13405790542E+02 -0.16919247082E+02 -0.12902895426E+02  0.25148774369E+02  0.00000000000E+00 0.  1.
</event>
<event>
 7    1  0.3910751E-009  0.4778727E+02  0.7816164E-02  0.1312668E+00
        -11   -1    0    0    0    0  0.00000000000E+00  0.00000000000E+00  0.45593999997E+02  0.45594000000E+02  0.51100000000E-03 0.  1.
         11   -1    0    0    0    0 -0.00000000000E+00 -0.00000000000E+00 -0.45593999997E+02  0.45594000000E+02  0.51100000000E-03 0. -1.
    9900012    2    1    2    0    0  0.26958061344E+02  0.30094811719E+02 -0.15848927545E+02  0.47787271110E+02  0.20000000299E+02 0.  0.
        -12    1    1    2    0    0 -0.26958061344E+02 -0.30094811719E+02  0.15848927545E+02  0.43400728890E+02  0.00000000000E+00 0.  1.
         11    1    3    3    0    0  0.95046008016E+01  0.14108297930E+02 -0.24305765964E+01  0.17183981196E+02  0.51100000000E-03 0. -1.
        -11    1    3    3    0    0  0.50211708983E+01  0.11640757738E+02 -0.13659321441E+01  0.12750888941E+02  0.51100000000E-03 0.  1.
         12    1    3    3    0    0  0.12432289644E+02  0.43457560509E+01 -0.12052418805E+02  0.17852400973E+02  0.00000000000E+00 0. -1.
</event>
<event>
 7    1  0.3910751E-009  0.4778727E+02  0.7816164E-02  0.1312668E+00
        -11   -1    0    0    0    0  0.00000000000E+00  0.00000000000E+00  0.45593999997E+02  0.45594000000E+02  0.51100000000E-03 0. -1.
         11   -1    0    0    0    0 -0.00000000000E+00 -0.00000000000E+00 -0.45593999997E+02  0.45594000000E+02  0.51100000000E-03 0.  1.
    9900012    2    1    2    0    0 -0.15040632200E+02 -0.95764572761E+01  0.39568852331E+02  0.47787271599E+02  0.20000002529E+02 0.  0.
        -12    1    1    2    0    0  0.15040632200E+02  0.95764572761E+01 -0.39568852331E+02  0.43400728401E+02  0.00000000000E+00 0.  1.
         11    1    3    3    0    0 -0.13380402652E+02 -0.42583712763E+01  0.23333236307E+02  0.27232495623E+02  0.51100000000E-03 0. -1.
        -11    1    3    3    0    0 -0.43654464732E+01 -0.76537675523E+01  0.13172236392E+02  0.15847557934E+02  0.51100000000E-03 0.  1.
        -12    1    3    3    0    0  0.27052169244E+01  0.23356815524E+01  0.30633796326E+01  0.47072180421E+01  0.00000000000E+00 0.  1.
</event>
<event>
 7    1  0.3910751E-009  0.4778727E+02  0.7816164E-02  0.1312668E+00
        -11   -1    0    0    0    0  0.00000000000E+00  0.00000000000E+00  0.45593999997E+02  0.45594000000E+02  0.51100000000E-03 0. -1.
         11   -1    0    0    0    0 -0.00000000000E+00 -0.00000000000E+00 -0.45593999997E+02  0.45594000000E+02  0.51100000000E-03 0.  1.
    9900012    2    1    2    0    0  0.12618953005E+02 -0.40852663428E+02 -0.74461491978E+01  0.47787271642E+02  0.20000002725E+02 0.  0.
        -12    1    1    2    0    0 -0.12618953005E+02  0.40852663428E+02  0.74461491978E+01  0.43400728358E+02  0.00000000000E+00 0.  1.
         11    1    3    3    0    0  0.65314637205E+01 -0.12993678204E+02 -0.69711090445E+01  0.16127369691E+02  0.51100000000E-03 0.  1.
        -11    1    3    3    0    0  0.29941558443E+01 -0.12155536213E+02 -0.70377301409E+01  0.14361464955E+02  0.51100000000E-03 0. -1.
         12    1    3    3    0    0  0.30933334404E+01 -0.15703449012E+02  0.65626899876E+01  0.17298436996E+02  0.00000000000E+00 0. -1.
</event>
<event>
 7    1  0.3910751E-009  0.4778727E+02  0.7816164E-02  0.1312668E+00
        -11   -1    0    0    0    0  0.00000000000E+00  0.00000000000E+00  0.45593999997E+02  0.45594000000E+02  0.51100000000E-03 0.  1.
         11   -1    0    0    0    0 -0.00000000000E+00 -0.00000000000E+00 -0.45593999997E+02  0.45594000000E+02  0.51100000000E-03 0. -1.
    9900012    2    1    2    0    0  0.11396326310E+02 -0.39366376802E+02  0.14284090775E+02  0.47787272758E+02  0.20000007813E+02 0.  0.
        -12    1    1    2    0    0 -0.11396326310E+02  0.39366376802E+02 -0.14284090775E+02  0.43400727242E+02  0.00000000000E+00 0.  1.
         11    1    3    3    0    0  0.20585583114E+01 -0.15111626623E+02  0.96540612942E+00  0.15281718842E+02  0.51100000000E-03 0. -1.
        -11    1    3    3    0    0 -0.26287678442E+01 -0.80072517854E+01  0.80404293728E+01  0.11647961465E+02  0.51100000000E-03 0.  1.
         12    1    3    3    0    0  0.11966535843E+02 -0.16247498394E+02  0.52782552723E+01  0.20857592451E+02  0.00000000000E+00 0. -1.
</event>
<event>
 7    1  0.3910751E-009  0.4778728E+02  0.7816164E-02  0.1312668E+00
        -11   -1    0    0    0    0  0.00000000000E+00  0.00000000000E+00  0.45593999997E+02  0.45594000000E+02  0.51100000000E-03 0. -1.
         11   -1    0    0    0    0 -0.00000000000E+00 -0.00000000000E+00 -0.45593999997E+02  0.45594000000E+02  0.51100000000E-03 0.  1.
    9900012    2    1    2    0    0  0.15338368627E+02 -0.34134953549E+02  0.21980952100E+02  0.47787275800E+02  0.20000021680E+02 0.  0.
        -12    1    1    2    0    0 -0.15338368627E+02  0.34134953549E+02 -0.21980952100E+02  0.43400724200E+02  0.00000000000E+00 0.  1.
         11    1    3    3    0    0  0.55482641725E+01 -0.16104931832E+01  0.22975983926E+01  0.62173854839E+01  0.51100000000E-03 0.  1.
        -11    1    3    3    0    0  0.78522078578E+01 -0.58614395022E+01  0.40637203023E+01  0.10607896315E+02  0.51100000000E-03 0. -1.
         12    1    3    3    0    0  0.19378965969E+01 -0.26663020863E+02  0.15619633405E+02  0.30961994000E+02  0.00000000000E+00 0. -1.
</event>
<event>
 7    1  0.3910751E-009  0.4778727E+02  0.7816164E-02  0.1312668E+00
        -11   -1    0    0    0    0  0.00000000000E+00  0.00000000000E+00  0.45593999997E+02  0.45594000000E+02  0.51100000000E-03 0.  1.
         11   -1    0    0    0    0 -0.00000000000E+00 -0.00000000000E+00 -0.45593999997E+02  0.45594000000E+02  0.51100000000E-03 0. -1.
    9900012    2    1    2    0    0 -0.28948113545E+02  0.28039146077E+02 -0.16107023594E+02  0.47787271900E+02  0.20000003899E+02 0.  0.
        -12    1    1    2    0    0  0.28948113545E+02 -0.28039146077E+02  0.16107023594E+02  0.43400728100E+02  0.00000000000E+00 0.  1.
         11    1    3    3    0    0 -0.20053636828E+02  0.18553859909E+02 -0.14056185170E+02  0.30724101441E+02  0.51100000000E-03 0. -1.
        -11    1    3    3    0    0 -0.39387745859E+01  0.84317538820E+00 -0.52342549741E+01  0.66047191741E+01  0.51100000000E-03 0.  1.
        -12    1    3    3    0    0 -0.49557021311E+01  0.86421107800E+01  0.31834165496E+01  0.10458451285E+02  0.00000000000E+00 0.  1.
</event>
<event>
 7    1  0.3910751E-009  0.4778728E+02  0.7816164E-02  0.1312668E+00
        -11   -1    0    0    0    0  0.00000000000E+00  0.00000000000E+00  0.45593999997E+02  0.45594000000E+02  0.51100000000E-03 0.  1.
         11   -1    0    0    0    0 -0.00000000000E+00 -0.00000000000E+00 -0.45593999997E+02  0.45594000000E+02  0.51100000000E-03 0. -1.
    9900012    2    1    2    0    0 -0.35350588258E+02 -0.19599615961E+02 -0.15805501332E+02  0.47787275256E+02  0.20000019202E+02 0.  0.
        -12    1    1    2    0    0  0.35350588258E+02  0.19599615961E+02  0.15805501332E+02  0.43400724744E+02  0.00000000000E+00 0.  1.
         11    1    3    3    0    0 -0.50952051019E+01 -0.15355785366E+01  0.23828648928E+01  0.58307085188E+01  0.51100000000E-03 0. -1.
        -11    1    3    3    0    0 -0.77689657431E+01  0.19583375134E+00 -0.34684115487E-01  0.77715109744E+01  0.51100000000E-03 0.  1.
         12    1    3    3    0    0 -0.22486417413E+02 -0.18259871175E+02 -0.18153682109E+02  0.34185055763E+02  0.00000000000E+00 0. -1.
</event>
<event>
 7    1  0.3910751E-009  0.4778727E+02  0.7816164E-02  0.1312668E+00
        -11   -1    0    0    0    0  0.00000000000E+00  0.00000000000E+00  0.45593999997E+02  0.45594000000E+02  0.51100000000E-03 0.  1.
         11   -1    0    0    0    0 -0.00000000000E+00 -0.00000000000E+00 -0.45593999997E+02  0.45594000000E+02  0.51100000000E-03 0. -1.
    9900012    2    1    2    0    0 -0.42445556811E+02  0.81174545417E+01  0.40130623574E+01  0.47787273846E+02  0.20000012772E+02 0.  0.
        -12    1    1    2    0    0  0.42445556811E+02 -0.81174545417E+01 -0.40130623574E+01  0.43400726154E+02  0.00000000000E+00 0.  1.
         11    1    3    3    0    0 -0.38584237699E+02  0.47627461327E+01  0.53069493103E+01  0.39237620478E+02  0.51100000000E-03 0.  1.
        -11    1    3    3    0    0 -0.50841552199E+01  0.43559491323E+01 -0.33992676448E+00  0.67036167558E+01  0.51100000000E-03 0. -1.
        -12    1    3    3    0    0  0.12228361077E+01 -0.10012407232E+01 -0.95396018841E+00  0.18460366121E+01  0.00000000000E+00 0.  1.
</event>
<event>
 7    1  0.3910751E-009  0.4778727E+02  0.7816164E-02  0.1312668E+00
        -11   -1    0    0    0    0  0.00000000000E+00  0.00000000000E+00  0.45593999997E+02  0.45594000000E+02  0.51100000000E-03 0.  1.
         11   -1    0    0    0    0 -0.00000000000E+00 -0.00000000000E+00 -0.45593999997E+02  0.45594000000E+02  0.51100000000E-03 0. -1.
    9900012    2    1    2    0    0  0.17547229571E+02  0.28949375234E+01 -0.39589613606E+02  0.47787269195E+02  0.19999991569E+02 0.  0.
        -12    1    1    2    0    0 -0.17547229571E+02 -0.28949375234E+01  0.39589613606E+02  0.43400730805E+02  0.00000000000E+00 0.  1.
         11    1    3    3    0    0 -0.11197838235E+01  0.14007514966E+01 -0.19700340396E+02  0.19781795483E+02  0.51100000000E-03 0.  1.
        -11    1    3    3    0    0  0.43281202495E+01 -0.22675538800E+01 -0.46400933530E+01  0.67383152255E+01  0.51100000000E-03 0. -1.
        -12    1    3    3    0    0  0.14338893145E+02  0.37617399069E+01 -0.15249179857E+02  0.21267158486E+02  0.00000000000E+00 0.  1.
</event>
<event>
 7    1  0.3910751E-009  0.4778727E+02  0.7816164E-02  0.1312668E+00
        -11   -1    0    0    0    0  0.00000000000E+00  0.00000000000E+00  0.45593999997E+02  0.45594000000E+02  0.51100000000E-03 0.  1.
         11   -1    0    0    0    0 -0.00000000000E+00 -0.00000000000E+00 -0.45593999997E+02  0.45594000000E+02  0.51100000000E-03 0. -1.
    9900012    2    1    2    0    0  0.20916980820E+02  0.36877562413E+02 -0.92816269360E+01  0.47787270804E+02  0.19999998903E+02 0.  0.
        -12    1    1    2    0    0 -0.20916980820E+02 -0.36877562413E+02  0.92816269360E+01  0.43400729196E+02  0.00000000000E+00 0.  1.
         11    1    3    3    0    0  0.15011339124E+02  0.30056879571E+02 -0.65352735439E+01  0.34226687137E+02  0.51100000000E-03 0. -1.
        -11    1    3    3    0    0  0.78842617407E+01  0.57674024408E+01  0.30631943072E+00  0.97733487590E+01  0.51100000000E-03 0.  1.
         12    1    3    3    0    0 -0.19786200443E+01  0.10532804015E+01 -0.30526728228E+01  0.37872349078E+01  0.00000000000E+00 0. -1.
</event>
<event>
 7    1  0.3910751E-009  0.4778727E+02  0.7816164E-02  0.1312668E+00
        -11   -1    0    0    0    0  0.00000000000E+00  0.00000000000E+00  0.45593999997E+02  0.45594000000E+02  0.51100000000E-03 0.  1.
         11   -1    0    0    0    0 -0.00000000000E+00 -0.00000000000E+00 -0.45593999997E+02  0.45594000000E+02  0.51100000000E-03 0. -1.
    9900012    2    1    2    0    0 -0.41854415301E+02 -0.89183590061E+01 -0.72314654543E+01  0.47787270742E+02  0.19999998619E+02 0.  0.
        -12    1    1    2    0    0  0.41854415301E+02  0.89183590061E+01  0.72314654543E+01  0.43400729258E+02  0.00000000000E+00 0.  1.
         11    1    3    3    0    0 -0.11968245062E+02 -0.37087819741E+01 -0.43000131719E+00  0.12537099145E+02  0.51100000000E-03 0. -1.
        -11    1    3    3    0    0  0.46107477427E+00 -0.33719998935E+01  0.15225383211E+01  0.37284174162E+01  0.51100000000E-03 0.  1.
        -12    1    3    3    0    0 -0.30347245014E+02 -0.18375771385E+01 -0.83240024582E+01  0.31521754180E+02  0.00000000000E+00 0.  1.
</event>
<event>
 7    1  0.3910751E-009  0.4778727E+02  0.7816164E-02  0.1312668E+00
        -11   -1    0    0    0    0  0.00000000000E+00  0.00000000000E+00  0.45593999997E+02  0.45594000000E+02  0.51100000000E-03 0.  1.
         11   -1    0    0    0    0 -0.00000000000E+00 -0.00000000000E+00 -0.45593999997E+02  0.45594000000E+02  0.51100000000E-03 0. -1.
    9900012    2    1    2    0    0  0.28239916983E+02 -0.24561318282E+02 -0.21974346029E+02  0.47787272467E+02  0.20000006487E+02 0.  0.
        -12    1    1    2    0    0 -0.28239916983E+02  0.24561318282E+02  0.21974346029E+02  0.43400727533E+02  0.00000000000E+00 0.  1.
         11    1    3    3    0    0  0.14929849399E+02 -0.47761623827E+01 -0.49336143042E+01  0.16433279665E+02  0.51100000000E-03 0. -1.
        -11    1    3    3    0    0  0.36838694806E+00 -0.29571140414E+01 -0.75179009875E+01  0.80869690191E+01  0.51100000000E-03 0.  1.
        -12    1    3    3    0    0  0.12941680635E+02 -0.16828041858E+02 -0.95228307377E+01  0.23267023783E+02  0.00000000000E+00 0.  1.
</event>
<event>
 7    1  0.3910751E-009  0.4778727E+02  0.7816164E-02  0.1312668E+00
        -11   -1    0    0    0    0  0.00000000000E+00  0.00000000000E+00  0.45593999997E+02  0.45594000000E+02  0.51100000000E-03 0. -1.
         11   -1    0    0    0    0 -0.00000000000E+00 -0.00000000000E+00 -0.45593999997E+02  0.45594000000E+02  0.51100000000E-03 0.  1.
    9900012    2    1    2    0    0 -0.34140868451E+02  0.17180010173E+02  0.20563852560E+02  0.47787266362E+02  0.19999978653E+02 0.  0.
        -12    1    1    2    0    0  0.34140868451E+02 -0.17180010173E+02 -0.20563852560E+02  0.43400733638E+02  0.00000000000E+00 0.  1.
         11    1    3    3    0    0 -0.58780652594E+01  0.27115775246E+01 -0.15244186554E+01  0.66504252769E+01  0.51100000000E-03 0. -1.
        -11    1    3    3    0    0 -0.22345022647E+02  0.80990513397E+01  0.89800027870E+01  0.25407383179E+02  0.51100000000E-03 0.  1.
         12    1    3    3    0    0 -0.59177805448E+01  0.63693813088E+01  0.13108268428E+02  0.15729457906E+02  0.00000000000E+00 0. -1.
</event>
<event>
 7    1  0.3910751E-009  0.4778727E+02  0.7816164E-02  0.1312668E+00
        -11   -1    0    0    0    0  0.00000000000E+00  0.00000000000E+00  0.45593999997E+02  0.45594000000E+02  0.51100000000E-03 0.  1.
         11   -1    0    0    0    0 -0.00000000000E+00 -0.00000000000E+00 -0.45593999997E+02  0.45594000000E+02  0.51100000000E-03 0. -1.
    9900012    2    1    2    0    0  0.12419008034E+02  0.19098053326E+02 -0.36941245352E+02  0.47787274089E+02  0.20000013883E+02 0.  0.
        -12    1    1    2    0    0 -0.12419008034E+02 -0.19098053326E+02  0.36941245352E+02  0.43400725911E+02  0.00000000000E+00 0.  1.
         11    1    3    3    0    0  0.12394188926E+02  0.11425043078E+02 -0.32804967560E+02  0.36882427053E+02  0.51100000000E-03 0. -1.
        -11    1    3    3    0    0  0.15626157089E+01 -0.59817182860E+00 -0.57552138942E+00  0.17694073926E+01  0.51100000000E-03 0.  1.
         12    1    3    3    0    0 -0.15377966002E+01  0.82711820765E+01 -0.35607564030E+01  0.91354396439E+01  0.00000000000E+00 0. -1.
</event>
<event>
 7    1  0.3910751E-009  0.4778727E+02  0.7816164E-02  0.1312668E+00
        -11   -1    0    0    0    0  0.00000000000E+00  0.00000000000E+00  0.45593999997E+02  0.45594000000E+02  0.51100000000E-03 0.  1.
         11   -1    0    0    0    0 -0.00000000000E+00 -0.00000000000E+00 -0.45593999997E+02  0.45594000000E+02  0.51100000000E-03 0. -1.
    9900012    2    1    2    0    0 -0.22328491640E+02  0.11425960181E+02 -0.35419051512E+02  0.47787270571E+02  0.19999997842E+02 0.  0.
        -12    1    1    2    0    0  0.22328491640E+02 -0.11425960181E+02  0.35419051512E+02  0.43400729429E+02  0.00000000000E+00 0.  1.
         11    1    3    3    0    0 -0.19038861914E-01 -0.34158580931E+00  0.55956026045E+00  0.65585919951E+00  0.51100000000E-03 0.  1.
        -11    1    3    3    0    0 -0.10731606442E+02 -0.34604743429E+01 -0.12189298339E+02  0.16604856330E+02  0.51100000000E-03 0. -1.
         12    1    3    3    0    0 -0.11577846336E+02  0.15228020333E+02 -0.23789313434E+02  0.30526555041E+02  0.00000000000E+00 0. -1.
</event>
<event>
 7    1  0.3910751E-009  0.4778727E+02  0.7816164E-02  0.1312668E+00
        -11   -1    0    0    0    0  0.00000000000E+00  0.00000000000E+00  0.45593999997E+02  0.45594000000E+02  0.51100000000E-03 0. -1.
         11   -1    0    0    0    0 -0.00000000000E+00 -0.00000000000E+00 -0.45593999997E+02  0.45594000000E+02  0.51100000000E-03 0.  1.
    9900012    2    1    2    0    0 -0.33260022722E+02  0.41687927451E+01  0.27568374837E+02  0.47787271486E+02  0.20000002011E+02 0.  0.
        -12    1    1    2    0    0  0.33260022722E+02 -0.41687927451E+01 -0.27568374837E+02  0.43400728514E+02  0.00000000000E+00 0.  1.
         11    1    3    3    0    0 -0.23559839449E+02  0.20437590241E+01  0.15970054371E+02  0.28535690331E+02  0.51100000000E-03 0. -1.
        -11    1    3    3    0    0 -0.89565550397E+01  0.30512935685E+01  0.13810321882E+02  0.16740826185E+02  0.51100000000E-03 0.  1.
         12    1    3    3    0    0 -0.74362823354E+00 -0.92625984748E+00 -0.22120014154E+01  0.25107549695E+01  0.00000000000E+00 0. -1.
</event>
<event>
 7    1  0.3910751E-009  0.4778727E+02  0.7816164E-02  0.1312668E+00
        -11   -1    0    0    0    0  0.00000000000E+00  0.00000000000E+00  0.45593999997E+02  0.45594000000E+02  0.51100000000E-03 0.  1.
         11   -1    0    0    0    0 -0.00000000000E+00 -0.00000000000E+00 -0.45593999997E+02  0.45594000000E+02  0.51100000000E-03 0. -1.
    9900012    2    1    2    0    0 -0.11489855861E+02 -0.20070571509E+02 -0.36725722114E+02  0.47787270821E+02  0.19999998983E+02 0.  0.
        -12    1    1    2    0    0  0.11489855861E+02  0.20070571509E+02  0.36725722114E+02  0.43400729179E+02  0.00000000000E+00 0.  1.
         11    1    3    3    0    0 -0.64660085624E+01 -0.83319563160E+01 -0.16900973678E+02  0.19921688541E+02  0.51100000000E-03 0. -1.
        -11    1    3    3    0    0 -0.16451185757E+01 -0.96197444762E+01 -0.21444673204E+02  0.23560982747E+02  0.51100000000E-03 0.  1.
        -12    1    3    3    0    0 -0.33787287231E+01 -0.21188707169E+01  0.16199247673E+01  0.43045995343E+01  0.00000000000E+00 0.  1.
</event>
<event>
 7    1  0.3910751E-009  0.4778727E+02  0.7816164E-02  0.1312668E+00
        -11   -1    0    0    0    0  0.00000000000E+00  0.00000000000E+00  0.45593999997E+02  0.45594000000E+02  0.51100000000E-03 0.  1.
         11   -1    0    0    0    0 -0.00000000000E+00 -0.00000000000E+00 -0.45593999997E+02  0.45594000000E+02  0.51100000000E-03 0. -1.
    9900012    2    1    2    0    0 -0.20714638534E+02 -0.33837950625E+02 -0.17593182561E+02  0.47787271611E+02  0.20000002583E+02 0.  0.
        -12    1    1    2    0    0  0.20714638534E+02  0.33837950625E+02  0.17593182561E+02  0.43400728389E+02  0.00000000000E+00 0.  1.
         11    1    3    3    0    0 -0.38611522752E+01 -0.74188715107E+01 -0.42935638461E+01  0.94012149292E+01  0.51100000000E-03 0. -1.
        -11    1    3    3    0    0 -0.10799800834E+02 -0.22846329378E+01 -0.53344199886E+01  0.12260150186E+02  0.51100000000E-03 0.  1.
         12    1    3    3    0    0 -0.60536854248E+01 -0.24134446177E+02 -0.79651987264E+01  0.26125906496E+02  0.00000000000E+00 0. -1.
</event>
<event>
 7    1  0.3910751E-009  0.4778727E+02  0.7816164E-02  0.1312668E+00
        -11   -1    0    0    0    0  0.00000000000E+00  0.00000000000E+00  0.45593999997E+02  0.45594000000E+02  0.51100000000E-03 0.  1.
         11   -1    0    0    0    0 -0.00000000000E+00 -0.00000000000E+00 -0.45593999997E+02  0.45594000000E+02  0.51100000000E-03 0. -1.
    9900012    2    1    2    0    0 -0.20099268942E+02 -0.17326753777E+02 -0.34342772161E+02  0.47787274106E+02  0.20000013958E+02 0.  0.
        -12    1    1    2    0    0  0.20099268942E+02  0.17326753777E+02  0.34342772161E+02  0.43400725894E+02  0.00000000000E+00 0.  1.
         11    1    3    3    0    0 -0.14762656099E+01 -0.15486097409E+01  0.19353619070E+01  0.28849918982E+01  0.51100000000E-03 0. -1.
        -11    1    3    3    0    0 -0.39262043578E+01 -0.97322644596E+01 -0.12812461429E+02  0.16561739652E+02  0.51100000000E-03 0.  1.
         12    1    3    3    0    0 -0.14696798974E+02 -0.60458795765E+01 -0.23465672640E+02  0.28340542556E+02  0.00000000000E+00 0. -1.
</event>
<event>
 7    1  0.3910751E-009  0.4778721E+02  0.7816164E-02  0.1312668E+00
        -11   -1    0    0    0    0  0.00000000000E+00  0.00000000000E+00  0.45593999997E+02  0.45594000000E+02  0.51100000000E-03 0. -1.
         11   -1    0    0    0    0 -0.00000000000E+00 -0.00000000000E+00 -0.45593999997E+02  0.45594000000E+02  0.51100000000E-03 0.  1.
    9900012    2    1    2    0    0 -0.75238939968E+01  0.42585190716E+02  0.36770792727E+01  0.47787212436E+02  0.19999732778E+02 0.  0.
        -12    1    1    2    0    0  0.75238939968E+01 -0.42585190716E+02 -0.36770792727E+01  0.43400787564E+02  0.00000000000E+00 0.  1.
         11    1    3    3    0    0 -0.29242557274E+01  0.55206940619E+01 -0.21918707192E+01  0.66206972438E+01  0.51100000000E-03 0. -1.
        -11    1    3    3    0    0 -0.76938487191E+01  0.17000372013E+02 -0.31981472088E+01  0.18932408788E+02  0.51100000000E-03 0.  1.
         12    1    3    3    0    0  0.30942104497E+01  0.20064124642E+02  0.90670972007E+01  0.22234106404E+02  0.00000000000E+00 0. -1.
</event>
<event>
 7    1  0.3910751E-009  0.4778730E+02  0.7816164E-02  0.1312668E+00
        -11   -1    0    0    0    0  0.00000000000E+00  0.00000000000E+00  0.45593999997E+02  0.45594000000E+02  0.51100000000E-03 0.  1.
         11   -1    0    0    0    0 -0.00000000000E+00 -0.00000000000E+00 -0.45593999997E+02  0.45594000000E+02  0.51100000000E-03 0. -1.
    9900012    2    1    2    0    0 -0.10408800406E+02  0.35059811464E+02 -0.23368501194E+02  0.47787304685E+02  0.20000153380E+02 0.  0.
        -12    1    1    2    0    0  0.10408800406E+02 -0.35059811464E+02  0.23368501194E+02  0.43400695315E+02  0.00000000000E+00 0.  1.
         11    1    3    3    0    0 -0.77419437193E+01  0.23643526370E+02 -0.11144973212E+02  0.27261042899E+02  0.51100000000E-03 0. -1.
        -11    1    3    3    0    0  0.27615823282E-01  0.11867797117E+02 -0.51380633140E+01  0.12932326392E+02  0.51100000000E-03 0.  1.
        -12    1    3    3    0    0 -0.26944725100E+01 -0.45151202239E+00 -0.70854646676E+01  0.75939353941E+01  0.00000000000E+00 0.  1.
</event>
<event>
 7    1  0.3910751E-009  0.4778726E+02  0.7816164E-02  0.1312668E+00
        -11   -1    0    0    0    0  0.00000000000E+00  0.00000000000E+00  0.45593999997E+02  0.45594000000E+02  0.51100000000E-03 0.  1.
         11   -1    0    0    0    0 -0.00000000000E+00 -0.00000000000E+00 -0.45593999997E+02  0.45594000000E+02  0.51100000000E-03 0. -1.
    9900012    2    1    2    0    0 -0.36155368058E+01  0.43244295088E+02 -0.69520908289E+00  0.47787257153E+02  0.19999936661E+02 0.  0.
        -12    1    1    2    0    0  0.36155368058E+01 -0.43244295088E+02  0.69520908289E+00  0.43400742847E+02  0.00000000000E+00 0.  1.
         11    1    3    3    0    0 -0.54002443105E+01  0.60967700373E+01 -0.60723475628E+00  0.81671278802E+01  0.51100000000E-03 0.  1.
        -11    1    3    3    0    0 -0.11914621285E+01  0.13934592216E+02 -0.64009660890E+01  0.15380663489E+02  0.51100000000E-03 0. -1.
        -12    1    3    3    0    0  0.29761696333E+01  0.23212932834E+02  0.63129917624E+01  0.24239465783E+02  0.00000000000E+00 0.  1.
</event>
<event>
 7    1  0.3910751E-009  0.4778727E+02  0.7816164E-02  0.1312668E+00
        -11   -1    0    0    0    0  0.00000000000E+00  0.00000000000E+00  0.45593999997E+02  0.45594000000E+02  0.51100000000E-03 0.  1.
         11   -1    0    0    0    0 -0.00000000000E+00 -0.00000000000E+00 -0.45593999997E+02  0.45594000000E+02  0.51100000000E-03 0. -1.
    9900012    2    1    2    0    0 -0.36542390341E+00 -0.38730587685E+02 -0.19581403128E+02  0.47787270680E+02  0.19999998339E+02 0.  0.
        -12    1    1    2    0    0  0.36542390341E+00  0.38730587685E+02  0.19581403128E+02  0.43400729320E+02  0.00000000000E+00 0.  1.
         11    1    3    3    0    0  0.38266867133E+01 -0.10561408364E+02 -0.76979481541E+01  0.13617829632E+02  0.51100000000E-03 0. -1.
        -11    1    3    3    0    0 -0.90213480846E+00 -0.25019474681E+02 -0.14485100802E+02  0.28924143998E+02  0.51100000000E-03 0.  1.
        -12    1    3    3    0    0 -0.32899758082E+01 -0.31497046394E+01  0.26016458274E+01  0.52452970502E+01  0.00000000000E+00 0.  1.
</event>
<event>
 7    1  0.3910751E-009  0.4778727E+02  0.7816164E-02  0.1312668E+00
        -11   -1    0    0    0    0  0.00000000000E+00  0.00000000000E+00  0.45593999997E+02  0.45594000000E+02  0.51100000000E-03 0.  1.
         11   -1    0    0    0    0 -0.00000000000E+00 -0.00000000000E+00 -0.45593999997E+02  0.45594000000E+02  0.51100000000E-03 0. -1.
    9900012    2    1    2    0    0 -0.20087703073E+02 -0.34898776846E+02 -0.16192060537E+02  0.47787271152E+02  0.20000000492E+02 0.  0.
        -12    1    1    2    0    0  0.20087703073E+02  0.34898776846E+02  0.16192060537E+02  0.43400728848E+02  0.00000000000E+00 0.  1.
         11    1    3    3    0    0 -0.10124070990E+02 -0.18340737933E+02 -0.22084007699E+01  0.21065529083E+02  0.51100000000E-03 0. -1.
        -11    1    3    3    0    0  0.50360008201E+00 -0.10708272756E+02 -0.56369956062E+01  0.12111830505E+02  0.51100000000E-03 0.  1.
        -12    1    3    3    0    0 -0.10467232165E+02 -0.58497661567E+01 -0.83466641613E+01  0.14609911564E+02  0.00000000000E+00 0.  1.
</event>
<event>
 7    1  0.3910751E-009  0.4778725E+02  0.7816164E-02  0.1312668E+00
        -11   -1    0    0    0    0  0.00000000000E+00  0.00000000000E+00  0.45593999997E+02  0.45594000000E+02  0.51100000000E-03 0.  1.
         11   -1    0    0    0    0 -0.00000000000E+00 -0.00000000000E+00 -0.45593999997E+02  0.45594000000E+02  0.51100000000E-03 0. -1.
    9900012    2    1    2    0    0 -0.34752855939E+01  0.18845973649E+01 -0.43220313007E+02  0.47787253767E+02  0.19999921224E+02 0.  0.
        -12    1    1    2    0    0  0.34752855939E+01 -0.18845973649E+01  0.43220313007E+02  0.43400746233E+02  0.00000000000E+00 0.  1.
         11    1    3    3    0    0 -0.15405952156E+01  0.14921974052E+00 -0.25262163823E+02  0.25309536176E+02  0.51100000000E-03 0. -1.
        -11    1    3    3    0    0 -0.73585539447E+00  0.37953050219E+01  0.47146862460E+00  0.38946253088E+01  0.51100000000E-03 0.  1.
        -12    1    3    3    0    0 -0.11988349838E+01 -0.20599273975E+01 -0.18429617809E+02  0.18583092282E+02  0.00000000000E+00 0.  1.
</event>
<event>
 7    1  0.3910751E-009  0.4778727E+02  0.7816164E-02  0.1312668E+00
        -11   -1    0    0    0    0  0.00000000000E+00  0.00000000000E+00  0.45593999997E+02  0.45594000000E+02  0.51100000000E-03 0.  1.
         11   -1    0    0    0    0 -0.00000000000E+00 -0.00000000000E+00 -0.45593999997E+02  0.45594000000E+02  0.51100000000E-03 0. -1.
    9900012    2    1    2    0    0 -0.37352573843E+01 -0.29434584546E+01 -0.43139393036E+02  0.47787270434E+02  0.19999997216E+02 0.  0.
        -12    1    1    2    0    0  0.37352573843E+01  0.29434584546E+01  0.43139393036E+02  0.43400729566E+02  0.00000000000E+00 0.  1.
         11    1    3    3    0    0  0.70186049413E+00 -0.39880078672E+01 -0.76711634646E+01  0.86743048173E+01  0.51100000000E-03 0.  1.
        -11    1    3    3    0    0  0.32478619234E+01 -0.51815529585E+01 -0.18358312052E+02  0.19350057359E+02  0.51100000000E-03 0. -1.
        -12    1    3    3    0    0 -0.76849798018E+01  0.62261023711E+01 -0.17109917518E+02  0.19762908257E+02  0.00000000000E+00 0.  1.
</event>
<event>
 7    1  0.3910751E-009  0.4778728E+02  0.7816164E-02  0.1312668E+00
        -11   -1    0    0    0    0  0.00000000000E+00  0.00000000000E+00  0.45593999997E+02  0.45594000000E+02  0.51100000000E-03 0.  1.
         11   -1    0    0    0    0 -0.00000000000E+00 -0.00000000000E+00 -0.45593999997E+02  0.45594000000E+02  0.51100000000E-03 0. -1.
    9900012    2    1    2    0    0  0.39740926419E+02 -0.17301814001E+02 -0.22200731086E+01  0.47787277368E+02  0.20000028832E+02 0.  0.
        -12    1    1    2    0    0 -0.39740926419E+02  0.17301814001E+02  0.22200731086E+01  0.43400722632E+02  0.00000000000E+00 0.  1.
         11    1    3    3    0    0  0.43227471827E+01 -0.11141604337E+01 -0.45544293663E+01  0.63773288916E+01  0.51100000000E-03 0. -1.
        -11    1    3    3    0    0  0.13344827917E+02  0.81992462656E+00 -0.64502793801E+00  0.13385543315E+02  0.51100000000E-03 0.  1.
        -12    1    3    3    0    0  0.22073351319E+02 -0.17007578194E+02  0.29793841957E+01  0.28024405162E+02  0.00000000000E+00 0.  1.
</event>
<event>
 7    1  0.3910751E-009  0.4778727E+02  0.7816164E-02  0.1312668E+00
        -11   -1    0    0    0    0  0.00000000000E+00  0.00000000000E+00  0.45593999997E+02  0.45594000000E+02  0.51100000000E-03 0. -1.
         11   -1    0    0    0    0 -0.00000000000E+00 -0.00000000000E+00 -0.45593999997E+02  0.45594000000E+02  0.51100000000E-03 0.  1.
    9900012    2    1    2    0    0 -0.22783953650E+02 -0.28386226647E+02  0.23637616533E+02  0.47787270484E+02  0.19999997445E+02 0.  0.
        -12    1    1    2    0    0  0.22783953650E+02  0.28386226647E+02 -0.23637616533E+02  0.43400729516E+02  0.00000000000E+00 0.  1.
         11    1    3    3    0    0 -0.38957009809E+01 -0.90385087605E+01  0.13852318855E+02  0.16992876881E+02  0.51100000000E-03 0. -1.
        -11    1    3    3    0    0 -0.27006105400E+00 -0.47380040170E+01 -0.89609163048E+00  0.48295543800E+01  0.51100000000E-03 0.  1.
         12    1    3    3    0    0 -0.18618191615E+02 -0.14609713870E+02  0.10681389308E+02  0.25964839223E+02  0.00000000000E+00 0. -1.
</event>
<event>
 7    1  0.3910751E-009  0.4778727E+02  0.7816164E-02  0.1312668E+00
        -11   -1    0    0    0    0  0.00000000000E+00  0.00000000000E+00  0.45593999997E+02  0.45594000000E+02  0.51100000000E-03 0. -1.
         11   -1    0    0    0    0 -0.00000000000E+00 -0.00000000000E+00 -0.45593999997E+02  0.45594000000E+02  0.51100000000E-03 0.  1.
    9900012    2    1    2    0    0  0.28320888339E+02 -0.10956132043E+02  0.31008286909E+02  0.47787269561E+02  0.19999993234E+02 0.  0.
        -12    1    1    2    0    0 -0.28320888339E+02  0.10956132043E+02 -0.31008286909E+02  0.43400730439E+02  0.00000000000E+00 0.  1.
         11    1    3    3    0    0 -0.69619218767E+00  0.53633510766E+00 -0.45198091836E+00  0.98824385734E+00  0.51100000000E-03 0. -1.
        -11    1    3    3    0    0  0.13071340449E+01  0.13052002325E+00  0.94763042942E+01  0.95669210421E+01  0.51100000000E-03 0.  1.
         12    1    3    3    0    0  0.27709946482E+02 -0.11622987174E+02  0.21983963533E+02  0.37232104661E+02  0.00000000000E+00 0. -1.
</event>
<event>
 7    1  0.3910751E-009  0.4778727E+02  0.7816164E-02  0.1312668E+00
        -11   -1    0    0    0    0  0.00000000000E+00  0.00000000000E+00  0.45593999997E+02  0.45594000000E+02  0.51100000000E-03 0.  1.
         11   -1    0    0    0    0 -0.00000000000E+00 -0.00000000000E+00 -0.45593999997E+02  0.45594000000E+02  0.51100000000E-03 0. -1.
    9900012    2    1    2    0    0  0.17018624804E+02 -0.38499308963E+02 -0.10573213354E+02  0.47787271648E+02  0.20000002753E+02 0.  0.
        -12    1    1    2    0    0 -0.17018624804E+02  0.38499308963E+02  0.10573213354E+02  0.43400728352E+02  0.00000000000E+00 0.  1.
         11    1    3    3    0    0  0.29914763388E+01 -0.58564256396E+01 -0.31808190321E+01  0.73050846630E+01  0.51100000000E-03 0. -1.
        -11    1    3    3    0    0  0.57920859734E+01 -0.29615818194E+02 -0.21316390208E+01  0.30252088067E+02  0.51100000000E-03 0.  1.
        -12    1    3    3    0    0  0.82350624913E+01 -0.30270651289E+01 -0.52607553014E+01  0.10230098918E+02  0.00000000000E+00 0.  1.
</event>
<event>
 7    1  0.3910751E-009  0.4778727E+02  0.7816164E-02  0.1312668E+00
        -11   -1    0    0    0    0  0.00000000000E+00  0.00000000000E+00  0.45593999997E+02  0.45594000000E+02  0.51100000000E-03 0.  1.
         11   -1    0    0    0    0 -0.00000000000E+00 -0.00000000000E+00 -0.45593999997E+02  0.45594000000E+02  0.51100000000E-03 0. -1.
    9900012    2    1    2    0    0  0.24975837913E+02  0.16535704961E+02 -0.31407024128E+02  0.47787272096E+02  0.20000004795E+02 0.  0.
        -12    1    1    2    0    0 -0.24975837913E+02 -0.16535704961E+02  0.31407024128E+02  0.43400727904E+02  0.00000000000E+00 0.  1.
         11    1    3    3    0    0  0.12235848102E+02  0.59912824422E+01 -0.89737748417E+01  0.16313800270E+02  0.51100000000E-03 0. -1.
        -11    1    3    3    0    0  0.16532468059E+01  0.61087150018E+01 -0.31335950294E+00  0.63362306156E+01  0.51100000000E-03 0.  1.
         12    1    3    3    0    0  0.11086743004E+02  0.44357075173E+01 -0.22119889783E+02  0.25137241210E+02  0.00000000000E+00 0. -1.
</event>
<event>
 7    1  0.3910751E-009  0.4778729E+02  0.7816164E-02  0.1312668E+00
        -11   -1    0    0    0    0  0.00000000000E+00  0.00000000000E+00  0.45593999997E+02  0.45594000000E+02  0.51100000000E-03 0.  1.
         11   -1    0    0    0    0 -0.00000000000E+00 -0.00000000000E+00 -0.45593999997E+02  0.45594000000E+02  0.51100000000E-03 0. -1.
    9900012    2    1    2    0    0 -0.17488723446E+02  0.29395624943E+02 -0.26714485181E+02  0.47787286503E+02  0.20000070483E+02 0.  0.
        -12    1    1    2    0    0  0.17488723446E+02 -0.29395624943E+02  0.26714485181E+02  0.43400713497E+02  0.00000000000E+00 0.  1.
         11    1    3    3    0    0 -0.96957159771E+01  0.31443606063E+01 -0.53129782946E+01  0.11494418235E+02  0.51100000000E-03 0. -1.
        -11    1    3    3    0    0 -0.49249850165E+01  0.24774419844E+02 -0.15696587484E+02  0.29739035205E+02  0.51100000000E-03 0.  1.
        -12    1    3    3    0    0 -0.28680224524E+01  0.14768444924E+01 -0.57049194020E+01  0.65538330636E+01  0.00000000000E+00 0.  1.
</event>
<event>
 7    1  0.3910751E-009  0.4778727E+02  0.7816164E-02  0.1312668E+00
        -11   -1    0    0    0    0  0.00000000000E+00  0.00000000000E+00  0.45593999997E+02  0.45594000000E+02  0.51100000000E-03 0.  1.
         11   -1    0    0    0    0 -0.00000000000E+00 -0.00000000000E+00 -0.45593999997E+02  0.45594000000E+02  0.51100000000E-03 0. -1.
    9900012    2    1    2    0    0 -0.42083965324E+01 -0.33526133148E+02 -0.27238043314E+02  0.47787271794E+02  0.20000003417E+02 0.  0.
        -12    1    1    2    0    0  0.42083965324E+01  0.33526133148E+02  0.27238043314E+02  0.43400728206E+02  0.00000000000E+00 0.  1.
         11    1    3    3    0    0 -0.65895431628E+01 -0.17259224335E+02 -0.15265269971E+02  0.23965211689E+02  0.51100000000E-03 0. -1.
        -11    1    3    3    0    0  0.14956147933E+01 -0.14132747943E+02 -0.14564879313E+02  0.20349622544E+02  0.51100000000E-03 0.  1.
         12    1    3    3    0    0  0.88553183717E+00 -0.21341608706E+01  0.25921059700E+01  0.34724375611E+01  0.00000000000E+00 0. -1.
</event>
<event>
 7    1  0.3910751E-009  0.4778727E+02  0.7816164E-02  0.1312668E+00
        -11   -1    0    0    0    0  0.00000000000E+00  0.00000000000E+00  0.45593999997E+02  0.45594000000E+02  0.51100000000E-03 0.  1.
         11   -1    0    0    0    0 -0.00000000000E+00 -0.00000000000E+00 -0.45593999997E+02  0.45594000000E+02  0.51100000000E-03 0. -1.
    9900012    2    1    2    0    0  0.20440667460E+02 -0.13446615758E+02 -0.35846771172E+02  0.47787269995E+02  0.19999995216E+02 0.  0.
        -12    1    1    2    0    0 -0.20440667460E+02  0.13446615758E+02  0.35846771172E+02  0.43400730005E+02  0.00000000000E+00 0.  1.
         11    1    3    3    0    0  0.34612768749E+01 -0.53143187138E+01 -0.16291278077E+02  0.17482224190E+02  0.51100000000E-03 0. -1.
        -11    1    3    3    0    0  0.46161867857E+01 -0.71580467323E+01 -0.14695116917E+02  0.16985089783E+02  0.51100000000E-03 0.  1.
        -12    1    3    3    0    0  0.12363203799E+02 -0.97425031148E+00 -0.48603761780E+01  0.13319956022E+02  0.00000000000E+00 0.  1.
</event>
<event>
 7    1  0.3910751E-009  0.4778727E+02  0.7816164E-02  0.1312668E+00
        -11   -1    0    0    0    0  0.00000000000E+00  0.00000000000E+00  0.45593999997E+02  0.45594000000E+02  0.51100000000E-03 0.  1.
         11   -1    0    0    0    0 -0.00000000000E+00 -0.00000000000E+00 -0.45593999997E+02  0.45594000000E+02  0.51100000000E-03 0. -1.
    9900012    2    1    2    0    0  0.27640858050E+02  0.14140174428E+02 -0.30325928161E+02  0.47787268607E+02  0.19999988888E+02 0.  0.
        -12    1    1    2    0    0 -0.27640858050E+02 -0.14140174428E+02  0.30325928161E+02  0.43400731393E+02  0.00000000000E+00 0.  1.
         11    1    3    3    0    0  0.55790983052E+01  0.18482123473E+01 -0.55046347160E+01  0.80525294409E+01  0.51100000000E-03 0. -1.
        -11    1    3    3    0    0  0.80463286691E+01  0.22904537515E+01  0.12826093421E+01  0.84637267456E+01  0.51100000000E-03 0.  1.
        -12    1    3    3    0    0  0.14015431076E+02  0.10001508329E+02 -0.26103902787E+02  0.31271012421E+02  0.00000000000E+00 0.  1.
</event>
<event>
 7    1  0.3910751E-009  0.4778727E+02  0.7816164E-02  0.1312668E+00
        -11   -1    0    0    0    0  0.00000000000E+00  0.00000000000E+00  0.45593999997E+02  0.45594000000E+02  0.51100000000E-03 0.  1.
         11   -1    0    0    0    0 -0.00000000000E+00 -0.00000000000E+00 -0.45593999997E+02  0.45594000000E+02  0.51100000000E-03 0. -1.
    9900012    2    1    2    0    0 -0.25971565917E+02 -0.15666161269E+02 -0.31043074529E+02  0.47787270498E+02  0.19999997510E+02 0.  0.
        -12    1    1    2    0    0  0.25971565917E+02  0.15666161269E+02  0.31043074529E+02  0.43400729502E+02  0.00000000000E+00 0.  1.
         11    1    3    3    0    0 -0.47676397942E+01 -0.59596907498E+00 -0.25760428126E+00  0.48116451004E+01  0.51100000000E-03 0. -1.
        -11    1    3    3    0    0 -0.12775694119E+02 -0.12712984139E+02 -0.10442184563E+02  0.20829727426E+02  0.51100000000E-03 0.  1.
         12    1    3    3    0    0 -0.84282320038E+01 -0.23572080547E+01 -0.20343285685E+02  0.22145897972E+02  0.00000000000E+00 0. -1.
</event>
<event>
 7    1  0.3910751E-009  0.4778727E+02  0.7816164E-02  0.1312668E+00
        -11   -1    0    0    0    0  0.00000000000E+00  0.00000000000E+00  0.45593999997E+02  0.45594000000E+02  0.51100000000E-03 0.  1.
         11   -1    0    0    0    0 -0.00000000000E+00 -0.00000000000E+00 -0.45593999997E+02  0.45594000000E+02  0.51100000000E-03 0. -1.
    9900012    2    1    2    0    0  0.35561635362E+02 -0.90059103561E+01 -0.23192391012E+02  0.47787270377E+02  0.19999996957E+02 0.  0.
        -12    1    1    2    0    0 -0.35561635362E+02  0.90059103561E+01  0.23192391012E+02  0.43400729623E+02  0.00000000000E+00 0.  1.
         11    1    3    3    0    0  0.94270420212E+01 -0.17837394697E+00 -0.26471531963E+01  0.97932813112E+01  0.51100000000E-03 0. -1.
        -11    1    3    3    0    0  0.11532558806E+02  0.18327277547E+01 -0.15658074512E+01  0.11781789205E+02  0.51100000000E-03 0.  1.
         12    1    3    3    0    0  0.14602034535E+02 -0.10660264164E+02 -0.18979430364E+02  0.26212199861E+02  0.00000000000E+00 0. -1.
</event>
<event>
 7    1  0.3910751E-009  0.4778727E+02  0.7816164E-02  0.1312668E+00
        -11   -1    0    0    0    0  0.00000000000E+00  0.00000000000E+00  0.45593999997E+02  0.45594000000E+02  0.51100000000E-03 0.  1.
         11   -1    0    0    0    0 -0.00000000000E+00 -0.00000000000E+00 -0.45593999997E+02  0.45594000000E+02  0.51100000000E-03 0. -1.
    9900012    2    1    2    0    0  0.38577937434E+01  0.95303680568E+01 -0.42165305209E+02  0.47787269002E+02  0.19999990686E+02 0.  0.
        -12    1    1    2    0    0 -0.38577937434E+01 -0.95303680568E+01  0.42165305209E+02  0.43400730998E+02  0.00000000000E+00 0.  1.
         11    1    3    3    0    0  0.15912838225E+01 -0.40236550362E+00 -0.71910299428E+01  0.73759741121E+01  0.51100000000E-03 0. -1.
        -11    1    3    3    0    0  0.13209959690E+01 -0.22480727742E+00  0.18024102227E+01  0.22459411244E+01  0.51100000000E-03 0.  1.
         12    1    3    3    0    0  0.94551395181E+00  0.10157540838E+02 -0.36776685488E+02  0.38165353765E+02  0.00000000000E+00 0. -1.
</event>
<event>
 7    1  0.3910751E-009  0.4778727E+02  0.7816164E-02  0.1312668E+00
        -11   -1    0    0    0    0  0.00000000000E+00  0.00000000000E+00  0.45593999997E+02  0.45594000000E+02  0.51100000000E-03 0.  1.
         11   -1    0    0    0    0 -0.00000000000E+00 -0.00000000000E+00 -0.45593999997E+02  0.45594000000E+02  0.51100000000E-03 0. -1.
    9900012    2    1    2    0    0 -0.40529327903E+02  0.15498057062E+02 -0.89845072811E+00  0.47787269515E+02  0.19999993026E+02 0.  0.
        -12    1    1    2    0    0  0.40529327903E+02 -0.15498057062E+02  0.89845072811E+00  0.43400730485E+02  0.00000000000E+00 0.  1.
         11    1    3    3    0    0 -0.12011825986E+02  0.13449575744E+02  0.42634788107E+01  0.18529768025E+02  0.51100000000E-03 0. -1.
        -11    1    3    3    0    0 -0.57346447246E+01 -0.73885288469E-01  0.26499830698E+00  0.57412397196E+01  0.51100000000E-03 0.  1.
         12    1    3    3    0    0 -0.22782857192E+02  0.21223666064E+01 -0.54269278458E+01  0.23516261771E+02  0.00000000000E+00 0. -1.
</event>
<event>
 7    1  0.3910751E-009  0.4778727E+02  0.7816164E-02  0.1312668E+00
        -11   -1    0    0    0    0  0.00000000000E+00  0.00000000000E+00  0.45593999997E+02  0.45594000000E+02  0.51100000000E-03 0.  1.
         11   -1    0    0    0    0 -0.00000000000E+00 -0.00000000000E+00 -0.45593999997E+02  0.45594000000E+02  0.51100000000E-03 0. -1.
    9900012    2    1    2    0    0 -0.54940204256E+01  0.16057730957E+02 -0.39944815990E+02  0.47787270647E+02  0.19999998188E+02 0.  0.
        -12    1    1    2    0    0  0.54940204256E+01 -0.16057730957E+02  0.39944815990E+02  0.43400729353E+02  0.00000000000E+00 0.  1.
         11    1    3    3    0    0  0.13639596904E+01  0.20654883054E+01 -0.12246653328E+01  0.27615997927E+01  0.51100000000E-03 0. -1.
        -11    1    3    3    0    0 -0.11384222702E+02  0.14249832436E+02 -0.28382104903E+02  0.33737251369E+02  0.51100000000E-03 0.  1.
        -12    1    3    3    0    0  0.45262425863E+01 -0.25758978471E+00 -0.10338045754E+02  0.11288419485E+02  0.00000000000E+00 0.  1.
</event>
<event>
 7    1  0.3910751E-009  0.4778727E+02  0.7816164E-02  0.1312668E+00
        -11   -1    0    0    0    0  0.00000000000E+00  0.00000000000E+00  0.45593999997E+02  0.45594000000E+02  0.51100000000E-03 0.  1.
         11   -1    0    0    0    0 -0.00000000000E+00 -0.00000000000E+00 -0.45593999997E+02  0.45594000000E+02  0.51100000000E-03 0. -1.
    9900012    2    1    2    0    0  0.31157515857E+02  0.18568320966E+02 -0.23833808986E+02  0.47787265113E+02  0.19999972958E+02 0.  0.
        -12    1    1    2    0    0 -0.31157515857E+02 -0.18568320966E+02  0.23833808986E+02  0.43400734887E+02  0.00000000000E+00 0.  1.
         11    1    3    3    0    0  0.11662142706E+02  0.83438464991E+01 -0.10941491465E+02  0.18037227687E+02  0.51100000000E-03 0. -1.
        -11    1    3    3    0    0 -0.19060884754E+01  0.36983590537E+01 -0.36756173823E+01  0.55516841019E+01  0.51100000000E-03 0.  1.
        -12    1    3    3    0    0  0.21401461627E+02  0.65261154133E+01 -0.92167001388E+01  0.24198353324E+02  0.00000000000E+00 0.  1.
</event>
<event>
 7    1  0.3910751E-009  0.4778727E+02  0.7816164E-02  0.1312668E+00
        -11   -1    0    0    0    0  0.00000000000E+00  0.00000000000E+00  0.45593999997E+02  0.45594000000E+02  0.51100000000E-03 0. -1.
         11   -1    0    0    0    0 -0.00000000000E+00 -0.00000000000E+00 -0.45593999997E+02  0.45594000000E+02  0.51100000000E-03 0.  1.
    9900012    2    1    2    0    0  0.32290259441E+02  0.42090976419E+01 -0.28692264036E+02  0.47787269900E+02  0.19999994780E+02 0.  0.
        -12    1    1    2    0    0 -0.32290259441E+02 -0.42090976419E+01  0.28692264036E+02  0.43400730100E+02  0.00000000000E+00 0.  1.
         11    1    3    3    0    0  0.31523842140E+01  0.43670920431E+01 -0.76760562462E+00  0.54404262518E+01  0.51100000000E-03 0. -1.
        -11    1    3    3    0    0  0.14445071370E+01  0.35881478690E+01 -0.29012279261E+01  0.48351349246E+01  0.51100000000E-03 0.  1.
         12    1    3    3    0    0  0.27693368090E+02 -0.37461422702E+01 -0.25023430485E+02  0.37511708723E+02  0.00000000000E+00 0. -1.
</event>
<event>
 7    1  0.3910751E-009  0.4778727E+02  0.7816164E-02  0.1312668E+00
        -11   -1    0    0    0    0  0.00000000000E+00  0.00000000000E+00  0.45593999997E+02  0.45594000000E+02  0.51100000000E-03 0.  1.
         11   -1    0    0    0    0 -0.00000000000E+00 -0.00000000000E+00 -0.45593999997E+02  0.45594000000E+02  0.51100000000E-03 0. -1.
    9900012    2    1    2    0    0  0.39640666899E+02 -0.28505347376E+01 -0.17438893519E+02  0.47787273880E+02  0.20000012930E+02 0.  0.
        -12    1    1    2    0    0 -0.39640666899E+02  0.28505347376E+01  0.17438893519E+02  0.43400726120E+02  0.00000000000E+00 0.  1.
         11    1    3    3    0    0  0.29236718632E+02  0.55641550487E+01 -0.11736422996E+02  0.31992017173E+02  0.51100000000E-03 0. -1.
        -11    1    3    3    0    0  0.14115660242E+01  0.90378887194E+00 -0.12875887016E+01  0.21135841340E+01  0.51100000000E-03 0.  1.
        -12    1    3    3    0    0  0.89923822430E+01 -0.93184786582E+01 -0.44148818217E+01  0.13681672574E+02  0.00000000000E+00 0.  1.
</event>
<event>
 7    1  0.3910751E-009  0.4778727E+02  0.7816164E-02  0.1312668E+00
        -11   -1    0    0    0    0  0.00000000000E+00  0.00000000000E+00  0.45593999997E+02  0.45594000000E+02  0.51100000000E-03 0. -1.
         11   -1    0    0    0    0 -0.00000000000E+00 -0.00000000000E+00 -0.45593999997E+02  0.45594000000E+02  0.51100000000E-03 0.  1.
    9900012    2    1    2    0    0 -0.15729287553E+02 -0.37233549821E+02  0.15807448933E+02  0.47787272345E+02  0.20000005931E+02 0.  0.
        -12    1    1    2    0    0  0.15729287553E+02  0.37233549821E+02 -0.15807448933E+02  0.43400727655E+02  0.00000000000E+00 0.  1.
         11    1    3    3    0    0 -0.14293628633E+02 -0.20586090895E+02  0.58306974838E+01  0.25731148269E+02  0.51100000000E-03 0. -1.
        -11    1    3    3    0    0 -0.10276662510E+01 -0.15127522725E+02  0.37303567295E+01  0.15614531799E+02  0.51100000000E-03 0.  1.
        -12    1    3    3    0    0 -0.40799266827E+00 -0.15199362017E+01  0.62463947196E+01  0.64415922774E+01  0.00000000000E+00 0.  1.
</event>
<event>
 7    1  0.3910751E-009  0.4778728E+02  0.7816164E-02  0.1312668E+00
        -11   -1    0    0    0    0  0.00000000000E+00  0.00000000000E+00  0.45593999997E+02  0.45594000000E+02  0.51100000000E-03 0.  1.
         11   -1    0    0    0    0 -0.00000000000E+00 -0.00000000000E+00 -0.45593999997E+02  0.45594000000E+02  0.51100000000E-03 0. -1.
    9900012    2    1    2    0    0 -0.15504415157E+02 -0.17155608632E+01 -0.40500520693E+02  0.47787283245E+02  0.20000055626E+02 0.  0.
        -12    1    1    2    0    0  0.15504415157E+02  0.17155608632E+01  0.40500520693E+02  0.43400716755E+02  0.00000000000E+00 0.  1.
         11    1    3    3    0    0  0.16275039609E+01 -0.11571865682E+01 -0.36327301894E+01  0.41454286614E+01  0.51100000000E-03 0. -1.
        -11    1    3    3    0    0 -0.64139546297E+01 -0.78681479622E+01 -0.13203411904E+02  0.16654628561E+02  0.51100000000E-03 0.  1.
         12    1    3    3    0    0 -0.10717964488E+02  0.73097736671E+01 -0.23664378600E+02  0.26987226022E+02  0.00000000000E+00 0. -1.
</event>
<event>
 7    1  0.3910751E-009  0.4778727E+02  0.7816164E-02  0.1312668E+00
        -11   -1    0    0    0    0  0.00000000000E+00  0.00000000000E+00  0.45593999997E+02  0.45594000000E+02  0.51100000000E-03 0.  1.
         11   -1    0    0    0    0 -0.00000000000E+00 -0.00000000000E+00 -0.45593999997E+02  0.45594000000E+02  0.51100000000E-03 0. -1.
    9900012    2    1    2    0    0  0.27469683170E+02 -0.30774404782E+02 -0.13489843927E+02  0.47787269910E+02  0.19999994829E+02 0.  0.
        -12    1    1    2    0    0 -0.27469683170E+02  0.30774404782E+02  0.13489843927E+02  0.43400730090E+02  0.00000000000E+00 0.  1.
         11    1    3    3    0    0  0.16831853252E+02 -0.94551957302E+01 -0.15583274167E+01  0.19368541370E+02  0.51100000000E-03 0. -1.
        -11    1    3    3    0    0 -0.12536432423E+00  0.76555461854E+00  0.46083313594E+00  0.90230678157E+00  0.51100000000E-03 0.  1.
        -12    1    3    3    0    0  0.10763194242E+02 -0.22084763670E+02 -0.12392349646E+02  0.27516421759E+02  0.00000000000E+00 0.  1.
</event>
<event>
 7    1  0.3910751E-009  0.4778725E+02  0.7816164E-02  0.1312668E+00
        -11   -1    0    0    0    0  0.00000000000E+00  0.00000000000E+00  0.45593999997E+02  0.45594000000E+02  0.51100000000E-03 0.  1.
         11   -1    0    0    0    0 -0.00000000000E+00 -0.00000000000E+00 -0.45593999997E+02  0.45594000000E+02  0.51100000000E-03 0. -1.
    9900012    2    1    2    0    0  0.24721878356E+02 -0.29885070446E+02 -0.19476560515E+02  0.47787249839E+02  0.19999903318E+02 0.  0.
        -12    1    1    2    0    0 -0.24721878356E+02  0.29885070446E+02  0.19476560515E+02  0.43400750161E+02  0.00000000000E+00 0.  1.
         11    1    3    3    0    0  0.70348647468E+01 -0.53116201397E+01 -0.36058114020E+01  0.95238913603E+01  0.51100000000E-03 0. -1.
        -11    1    3    3    0    0  0.70782539495E+01 -0.41327051629E+00  0.66831423788E+00  0.71217354398E+01  0.51100000000E-03 0.  1.
         12    1    3    3    0    0  0.10608759659E+02 -0.24160179790E+02 -0.16539063351E+02  0.31141623039E+02  0.00000000000E+00 0. -1.
</event>
<event>
 7    1  0.3910751E-009  0.4778727E+02  0.7816164E-02  0.1312668E+00
        -11   -1    0    0    0    0  0.00000000000E+00  0.00000000000E+00  0.45593999997E+02  0.45594000000E+02  0.51100000000E-03 0.  1.
         11   -1    0    0    0    0 -0.00000000000E+00 -0.00000000000E+00 -0.45593999997E+02  0.45594000000E+02  0.51100000000E-03 0. -1.
    9900012    2    1    2    0    0  0.13905243851E+02 -0.25920781341E+02 -0.31912073868E+02  0.47787272236E+02  0.20000005433E+02 0.  0.
        -12    1    1    2    0    0 -0.13905243851E+02  0.25920781341E+02  0.31912073868E+02  0.43400727764E+02  0.00000000000E+00 0.  1.
         11    1    3    3    0    0  0.11572372420E+02 -0.14724811617E+02 -0.13125600169E+02  0.22869658079E+02  0.51100000000E-03 0. -1.
        -11    1    3    3    0    0 -0.80656813542E+00 -0.29253985775E+01  0.10393983227E+01  0.32076249981E+01  0.51100000000E-03 0.  1.
        -12    1    3    3    0    0  0.31394395666E+01 -0.82705711467E+01 -0.19825872021E+02  0.21709989159E+02  0.00000000000E+00 0.  1.
</event>
<event>
 7    1  0.3910751E-009  0.4778725E+02  0.7816164E-02  0.1312668E+00
        -11   -1    0    0    0    0  0.00000000000E+00  0.00000000000E+00  0.45593999997E+02  0.45594000000E+02  0.51100000000E-03 0. -1.
         11   -1    0    0    0    0 -0.00000000000E+00 -0.00000000000E+00 -0.45593999997E+02  0.45594000000E+02  0.51100000000E-03 0.  1.
    9900012    2    1    2    0    0 -0.28220432661E+02  0.16699174640E+02  0.28431848080E+02  0.47787248411E+02  0.19999896804E+02 0.  0.
        -12    1    1    2    0    0  0.28220432661E+02 -0.16699174640E+02 -0.28431848080E+02  0.43400751589E+02  0.00000000000E+00 0.  1.
         11    1    3    3    0    0 -0.97819338281E+00 -0.53015896136E+00  0.68027475195E+01  0.68931346203E+01  0.51100000000E-03 0. -1.
        -11    1    3    3    0    0 -0.89248236374E+01 -0.76846761011E-02  0.24245267940E+01  0.92482899202E+01  0.51100000000E-03 0.  1.
        -12    1    3    3    0    0 -0.18317415641E+02  0.17237018277E+02  0.19204573767E+02  0.31645823870E+02  0.00000000000E+00 0.  1.
</event>
<event>
 7    1  0.3910751E-009  0.4778727E+02  0.7816164E-02  0.1312668E+00
        -11   -1    0    0    0    0  0.00000000000E+00  0.00000000000E+00  0.45593999997E+02  0.45594000000E+02  0.51100000000E-03 0.  1.
         11   -1    0    0    0    0 -0.00000000000E+00 -0.00000000000E+00 -0.45593999997E+02  0.45594000000E+02  0.51100000000E-03 0. -1.
    9900012    2    1    2    0    0 -0.14726808212E+02 -0.31416492145E+02 -0.26071989344E+02  0.47787268587E+02  0.19999988796E+02 0.  0.
        -12    1    1    2    0    0  0.14726808212E+02  0.31416492145E+02  0.26071989344E+02  0.43400731413E+02  0.00000000000E+00 0.  1.
         11    1    3    3    0    0 -0.27187706376E+01 -0.86082615889E+01  0.43649313735E+00  0.90379426797E+01  0.51100000000E-03 0. -1.
        -11    1    3    3    0    0 -0.10617485720E+02 -0.18186840755E+02 -0.13858775215E+02  0.25210272319E+02  0.51100000000E-03 0.  1.
        -12    1    3    3    0    0 -0.13905518547E+01 -0.46213898015E+01 -0.12649707266E+02  0.13539053589E+02  0.00000000000E+00 0.  1.
</event>
<event>
 7    1  0.3910751E-009  0.4778727E+02  0.7816164E-02  0.1312668E+00
        -11   -1    0    0    0    0  0.00000000000E+00  0.00000000000E+00  0.45593999997E+02  0.45594000000E+02  0.51100000000E-03 0. -1.
         11   -1    0    0    0    0 -0.00000000000E+00 -0.00000000000E+00 -0.45593999997E+02  0.45594000000E+02  0.51100000000E-03 0.  1.
    9900012    2    1    2    0    0 -0.33331385617E+02 -0.42749017077E+01  0.27465747600E+02  0.47787270248E+02  0.19999996368E+02 0.  0.
        -12    1    1    2    0    0  0.33331385617E+02  0.42749017077E+01 -0.27465747600E+02  0.43400729752E+02  0.00000000000E+00 0.  1.
         11    1    3    3    0    0 -0.11120368808E+02 -0.55744048954E+01  0.10528934543E+02  0.16297087324E+02  0.51100000000E-03 0. -1.
        -11    1    3    3    0    0 -0.16024041306E+02 -0.55767457883E+01  0.13270645042E+02  0.21540195297E+02  0.51100000000E-03 0.  1.
        -12    1    3    3    0    0 -0.61869755036E+01  0.68762489760E+01  0.36661680152E+01  0.99499876270E+01  0.00000000000E+00 0.  1.
</event>
<event>
 7    1  0.3910751E-009  0.4778727E+02  0.7816164E-02  0.1312668E+00
        -11   -1    0    0    0    0  0.00000000000E+00  0.00000000000E+00  0.45593999997E+02  0.45594000000E+02  0.51100000000E-03 0. -1.
         11   -1    0    0    0    0 -0.00000000000E+00 -0.00000000000E+00 -0.45593999997E+02  0.45594000000E+02  0.51100000000E-03 0.  1.
    9900012    2    1    2    0    0 -0.10516786399E+02 -0.28091924936E+02  0.31366616393E+02  0.47787266519E+02  0.19999979365E+02 0.  0.
        -12    1    1    2    0    0  0.10516786399E+02  0.28091924936E+02 -0.31366616393E+02  0.43400733481E+02  0.00000000000E+00 0.  1.
         11    1    3    3    0    0 -0.10314833508E+02 -0.97729532988E+01  0.12954149996E+02  0.19228011048E+02  0.51100000000E-03 0. -1.
        -11    1    3    3    0    0  0.27747175943E+00  0.12268464388E+01  0.42092252017E+01  0.43931446392E+01  0.51100000000E-03 0.  1.
         12    1    3    3    0    0 -0.47942465023E+00 -0.19545818076E+02  0.14203241195E+02  0.24166110831E+02  0.00000000000E+00 0. -1.
</event>
<event>
 7    1  0.3910751E-009  0.4778727E+02  0.7816164E-02  0.1312668E+00
        -11   -1    0    0    0    0  0.00000000000E+00  0.00000000000E+00  0.45593999997E+02  0.45594000000E+02  0.51100000000E-03 0.  1.
         11   -1    0    0    0    0 -0.00000000000E+00 -0.00000000000E+00 -0.45593999997E+02  0.45594000000E+02  0.51100000000E-03 0. -1.
    9900012    2    1    2    0    0  0.94622225487E+01 -0.21097941917E+01 -0.42304113901E+02  0.47787274890E+02  0.20000017533E+02 0.  0.
        -12    1    1    2    0    0 -0.94622225487E+01  0.21097941917E+01  0.42304113901E+02  0.43400725110E+02  0.00000000000E+00 0.  1.
         11    1    3    3    0    0 -0.10291857512E+01 -0.28013473680E+01 -0.24337049322E+01  0.38509336978E+01  0.51100000000E-03 0. -1.
        -11    1    3    3    0    0  0.11088773224E+01  0.53756431698E+01 -0.46687900068E+01  0.72058829295E+01  0.51100000000E-03 0.  1.
         12    1    3    3    0    0  0.93825309774E+01 -0.46840899935E+01 -0.35201618962E+02  0.36730458263E+02  0.00000000000E+00 0. -1.
</event>
<event>
 7    1  0.3910751E-009  0.4778727E+02  0.7816164E-02  0.1312668E+00
        -11   -1    0    0    0    0  0.00000000000E+00  0.00000000000E+00  0.45593999997E+02  0.45594000000E+02  0.51100000000E-03 0. -1.
         11   -1    0    0    0    0 -0.00000000000E+00 -0.00000000000E+00 -0.45593999997E+02  0.45594000000E+02  0.51100000000E-03 0.  1.
    9900012    2    1    2    0    0  0.13195175479E+02  0.31944871715E+02  0.26249491930E+02  0.47787270612E+02  0.19999998030E+02 0.  0.
        -12    1    1    2    0    0 -0.13195175479E+02 -0.31944871715E+02 -0.26249491930E+02  0.43400729388E+02  0.00000000000E+00 0.  1.
         11    1    3    3    0    0  0.51534305490E+00 -0.52185140014E+00 -0.63976027738E+00  0.97324242699E+00  0.51100000000E-03 0.  1.
        -11    1    3    3    0    0  0.45888198542E+01  0.39922980835E+01  0.12498051644E+02  0.13899532611E+02  0.51100000000E-03 0. -1.
         12    1    3    3    0    0  0.80910125696E+01  0.28474425032E+02  0.14391200563E+02  0.32914495575E+02  0.00000000000E+00 0. -1.
</event>
<event>
 7    1  0.3910751E-009  0.4778727E+02  0.7816164E-02  0.1312668E+00
        -11   -1    0    0    0    0  0.00000000000E+00  0.00000000000E+00  0.45593999997E+02  0.45594000000E+02  0.51100000000E-03 0.  1.
         11   -1    0    0    0    0 -0.00000000000E+00 -0.00000000000E+00 -0.45593999997E+02  0.45594000000E+02  0.51100000000E-03 0. -1.
    9900012    2    1    2    0    0 -0.32907392357E+02  0.13407666385E+02 -0.24919098874E+02  0.47787268689E+02  0.19999989260E+02 0.  0.
        -12    1    1    2    0    0  0.32907392357E+02 -0.13407666385E+02  0.24919098874E+02  0.43400731311E+02  0.00000000000E+00 0.  1.
         11    1    3    3    0    0 -0.64686012697E+01 -0.76624404808E+00 -0.10415947803E-02  0.65138263466E+01  0.51100000000E-03 0. -1.
        -11    1    3    3    0    0 -0.14721149968E+02  0.42318441882E+01 -0.49924267770E+01  0.16110403068E+02  0.51100000000E-03 0.  1.
        -12    1    3    3    0    0 -0.11717641119E+02  0.99420662453E+01 -0.19925630502E+02  0.25163039275E+02  0.00000000000E+00 0.  1.
</event>
<event>
 7    1  0.3910751E-009  0.4778727E+02  0.7816164E-02  0.1312668E+00
        -11   -1    0    0    0    0  0.00000000000E+00  0.00000000000E+00  0.45593999997E+02  0.45594000000E+02  0.51100000000E-03 0.  1.
         11   -1    0    0    0    0 -0.00000000000E+00 -0.00000000000E+00 -0.45593999997E+02  0.45594000000E+02  0.51100000000E-03 0. -1.
    9900012    2    1    2    0    0 -0.20934445846E+02  0.34262614943E+02 -0.16475606587E+02  0.47787269384E+02  0.19999992429E+02 0.  0.
        -12    1    1    2    0    0  0.20934445846E+02 -0.34262614943E+02  0.16475606587E+02  0.43400730616E+02  0.00000000000E+00 0.  1.
         11    1    3    3    0    0 -0.70056822315E+01  0.10326781191E+02 -0.93682926800E+01  0.15604066819E+02  0.51100000000E-03 0. -1.
        -11    1    3    3    0    0  0.82763287277E+00  0.45949895220E+00 -0.41965446967E+01  0.43019882743E+01  0.51100000000E-03 0.  1.
         12    1    3    3    0    0 -0.14756396487E+02  0.23476334800E+02 -0.29107692102E+01  0.27881214290E+02  0.00000000000E+00 0. -1.
</event>
<event>
 7    1  0.3910751E-009  0.4778727E+02  0.7816164E-02  0.1312668E+00
        -11   -1    0    0    0    0  0.00000000000E+00  0.00000000000E+00  0.45593999997E+02  0.45594000000E+02  0.51100000000E-03 0.  1.
         11   -1    0    0    0    0 -0.00000000000E+00 -0.00000000000E+00 -0.45593999997E+02  0.45594000000E+02  0.51100000000E-03 0. -1.
    9900012    2    1    2    0    0  0.34905941788E+02  0.25687301963E+02  0.23154619907E+01  0.47787267075E+02  0.19999981900E+02 0.  0.
        -12    1    1    2    0    0 -0.34905941788E+02 -0.25687301963E+02 -0.23154619907E+01  0.43400732925E+02  0.00000000000E+00 0.  1.
         11    1    3    3    0    0 -0.62190419063E+00  0.44690765631E+00  0.23083016524E+01  0.24320255046E+01  0.51100000000E-03 0. -1.
        -11    1    3    3    0    0  0.88608354819E+01  0.13539663834E+02 -0.10458935027E+01  0.16215140939E+02  0.51100000000E-03 0.  1.
         12    1    3    3    0    0  0.26667010497E+02  0.11700730472E+02  0.10530538410E+01  0.29140100631E+02  0.00000000000E+00 0. -1.
</event>
<event>
 7    1  0.3910751E-009  0.4778728E+02  0.7816164E-02  0.1312668E+00
        -11   -1    0    0    0    0  0.00000000000E+00  0.00000000000E+00  0.45593999997E+02  0.45594000000E+02  0.51100000000E-03 0. -1.
         11   -1    0    0    0    0 -0.00000000000E+00 -0.00000000000E+00 -0.45593999997E+02  0.45594000000E+02  0.51100000000E-03 0.  1.
    9900012    2    1    2    0    0 -0.24360902196E+02  0.55960997779E+01  0.35480310839E+02  0.47787281737E+02  0.20000048751E+02 0.  0.
        -12    1    1    2    0    0  0.24360902196E+02 -0.55960997779E+01 -0.35480310839E+02  0.43400718263E+02  0.00000000000E+00 0.  1.
         11    1    3    3    0    0 -0.14537305504E+02 -0.17962120107E+01  0.27888859885E+02  0.31501557657E+02  0.51100000000E-03 0. -1.
        -11    1    3    3    0    0  0.42059708686E+00 -0.64091847634E+00 -0.53897126188E+00  0.93710654946E+00  0.51100000000E-03 0.  1.
         12    1    3    3    0    0 -0.10244193779E+02  0.80332302649E+01  0.81304222158E+01  0.15348617530E+02  0.00000000000E+00 0. -1.
</event>
<event>
 7    1  0.3910751E-009  0.4778727E+02  0.7816164E-02  0.1312668E+00
        -11   -1    0    0    0    0  0.00000000000E+00  0.00000000000E+00  0.45593999997E+02  0.45594000000E+02  0.51100000000E-03 0.  1.
         11   -1    0    0    0    0 -0.00000000000E+00 -0.00000000000E+00 -0.45593999997E+02  0.45594000000E+02  0.51100000000E-03 0. -1.
    9900012    2    1    2    0    0  0.11697774631E+02 -0.36890418051E+02 -0.19643892716E+02  0.47787269634E+02  0.19999993569E+02 0.  0.
        -12    1    1    2    0    0 -0.11697774631E+02  0.36890418051E+02  0.19643892716E+02  0.43400730366E+02  0.00000000000E+00 0.  1.
         11    1    3    3    0    0  0.37093404055E+01 -0.10892690478E+02 -0.91298355140E+00  0.11543112722E+02  0.51100000000E-03 0. -1.
        -11    1    3    3    0    0 -0.41509385507E+01 -0.75380544374E+01 -0.29637938046E+01  0.91014630434E+01  0.51100000000E-03 0.  1.
         12    1    3    3    0    0  0.12139372776E+02 -0.18459673135E+02 -0.15767115360E+02  0.27142693868E+02  0.00000000000E+00 0. -1.
</event>
<event>
 7    1  0.3910751E-009  0.4778727E+02  0.7816164E-02  0.1312668E+00
        -11   -1    0    0    0    0  0.00000000000E+00  0.00000000000E+00  0.45593999997E+02  0.45594000000E+02  0.51100000000E-03 0.  1.
         11   -1    0    0    0    0 -0.00000000000E+00 -0.00000000000E+00 -0.45593999997E+02  0.45594000000E+02  0.51100000000E-03 0. -1.
    9900012    2    1    2    0    0  0.18398130379E+02  0.12244967826E+02 -0.37352278869E+02  0.47787272182E+02  0.20000005186E+02 0.  0.
        -12    1    1    2    0    0 -0.18398130379E+02 -0.12244967826E+02  0.37352278869E+02  0.43400727818E+02  0.00000000000E+00 0.  1.
         11    1    3    3    0    0 -0.11948719797E+01  0.17272176399E+01  0.32173779859E+00  0.21247388771E+01  0.51100000000E-03 0. -1.
        -11    1    3    3    0    0  0.80079587211E+00 -0.12885005898E+01 -0.10352672916E+02  0.10463237767E+02  0.51100000000E-03 0.  1.
         12    1    3    3    0    0  0.18792206486E+02  0.11806250776E+02 -0.27321343751E+02  0.35199295538E+02  0.00000000000E+00 0. -1.
</event>
<event>
 7    1  0.3910751E-009  0.4778727E+02  0.7816164E-02  0.1312668E+00
        -11   -1    0    0    0    0  0.00000000000E+00  0.00000000000E+00  0.45593999997E+02  0.45594000000E+02  0.51100000000E-03 0.  1.
         11   -1    0    0    0    0 -0.00000000000E+00 -0.00000000000E+00 -0.45593999997E+02  0.45594000000E+02  0.51100000000E-03 0. -1.
    9900012    2    1    2    0    0  0.13467629133E+02  0.93638084819E+00 -0.41247662245E+02  0.47787268620E+02  0.19999988948E+02 0.  0.
        -12    1    1    2    0    0 -0.13467629133E+02 -0.93638084819E+00  0.41247662245E+02  0.43400731380E+02  0.00000000000E+00 0.  1.
         11    1    3    3    0    0  0.50193646519E+01  0.39319180508E+01 -0.73789767580E+01  0.97520920486E+01  0.51100000000E-03 0. -1.
        -11    1    3    3    0    0 -0.22925923282E+01  0.35967908264E+01 -0.12721840744E+02  0.13417828290E+02  0.51100000000E-03 0.  1.
        -12    1    3    3    0    0  0.10740856810E+02 -0.65923280291E+01 -0.21146844743E+02  0.24617348282E+02  0.00000000000E+00 0.  1.
</event>
<event>
 7    1  0.3910751E-009  0.4778727E+02  0.7816164E-02  0.1312668E+00
        -11   -1    0    0    0    0  0.00000000000E+00  0.00000000000E+00  0.45593999997E+02  0.45594000000E+02  0.51100000000E-03 0.  1.
         11   -1    0    0    0    0 -0.00000000000E+00 -0.00000000000E+00 -0.45593999997E+02  0.45594000000E+02  0.51100000000E-03 0. -1.
    9900012    2    1    2    0    0 -0.26399853014E+02  0.21019041948E+02 -0.27292323459E+02  0.47787270935E+02  0.19999999503E+02 0.  0.
        -12    1    1    2    0    0  0.26399853014E+02 -0.21019041948E+02  0.27292323459E+02  0.43400729065E+02  0.00000000000E+00 0.  1.
         11    1    3    3    0    0 -0.11161887229E+02  0.58017957349E+01 -0.13524742537E+02  0.18470712526E+02  0.51100000000E-03 0. -1.
        -11    1    3    3    0    0 -0.92963426037E+01 -0.17852913447E+00 -0.38530193981E+01  0.10064771095E+02  0.51100000000E-03 0.  1.
        -12    1    3    3    0    0 -0.59416231812E+01  0.15395775347E+02 -0.99145615234E+01  0.19251787314E+02  0.00000000000E+00 0.  1.
</event>
<event>
 7    1  0.3910751E-009  0.4778727E+02  0.7816164E-02  0.1312668E+00
        -11   -1    0    0    0    0  0.00000000000E+00  0.00000000000E+00  0.45593999997E+02  0.45594000000E+02  0.51100000000E-03 0.  1.
         11   -1    0    0    0    0 -0.00000000000E+00 -0.00000000000E+00 -0.45593999997E+02  0.45594000000E+02  0.51100000000E-03 0. -1.
    9900012    2    1    2    0    0  0.26854664005E+02 -0.56876755897E+01 -0.33616970548E+02  0.47787270268E+02  0.19999996461E+02 0.  0.
        -12    1    1    2    0    0 -0.26854664005E+02  0.56876755897E+01  0.33616970548E+02  0.43400729732E+02  0.00000000000E+00 0.  1.
         11    1    3    3    0    0  0.62676021030E+01 -0.95286872122E+01 -0.16978429883E+02  0.20453503310E+02  0.51100000000E-03 0. -1.
        -11    1    3    3    0    0  0.28129666515E+01 -0.73488799075E+00 -0.61962577860E+00  0.29726718803E+01  0.51100000000E-03 0.  1.
         12    1    3    3    0    0  0.17774095251E+02  0.45758996133E+01 -0.16018914887E+02  0.24361095078E+02  0.00000000000E+00 0. -1.
</event>
<event>
 7    1  0.3910751E-009  0.4778728E+02  0.7816164E-02  0.1312668E+00
        -11   -1    0    0    0    0  0.00000000000E+00  0.00000000000E+00  0.45593999997E+02  0.45594000000E+02  0.51100000000E-03 0. -1.
         11   -1    0    0    0    0 -0.00000000000E+00 -0.00000000000E+00 -0.45593999997E+02  0.45594000000E+02  0.51100000000E-03 0.  1.
    9900012    2    1    2    0    0 -0.81098625760E+01  0.36780617234E+02  0.21564760709E+02  0.47787279043E+02  0.20000036470E+02 0.  0.
        -12    1    1    2    0    0  0.81098625760E+01 -0.36780617234E+02 -0.21564760709E+02  0.43400720957E+02  0.00000000000E+00 0.  1.
         11    1    3    3    0    0  0.39379943715E+01  0.15458346177E+02  0.74217702780E+01  0.17594059808E+02  0.51100000000E-03 0. -1.
        -11    1    3    3    0    0  0.82424761234E+00  0.54331705675E+01  0.30808418018E+00  0.55039660851E+01  0.51100000000E-03 0.  1.
        -12    1    3    3    0    0 -0.12872104560E+02  0.15889100490E+02  0.13834906250E+02  0.24689253150E+02  0.00000000000E+00 0.  1.
</event>
<event>
 7    1  0.3910751E-009  0.4778727E+02  0.7816164E-02  0.1312668E+00
        -11   -1    0    0    0    0  0.00000000000E+00  0.00000000000E+00  0.45593999997E+02  0.45594000000E+02  0.51100000000E-03 0.  1.
         11   -1    0    0    0    0 -0.00000000000E+00 -0.00000000000E+00 -0.45593999997E+02  0.45594000000E+02  0.51100000000E-03 0. -1.
    9900012    2    1    2    0    0  0.34991432268E+02 -0.13044952179E+02 -0.22114533411E+02  0.47787266164E+02  0.19999977748E+02 0.  0.
        -12    1    1    2    0    0 -0.34991432268E+02  0.13044952179E+02  0.22114533411E+02  0.43400733836E+02  0.00000000000E+00 0.  1.
         11    1    3    3    0    0  0.10050499187E+02 -0.59990114703E+01 -0.15083109844E+01  0.11801511548E+02  0.51100000000E-03 0. -1.
        -11    1    3    3    0    0  0.90660378147E+01 -0.50902733285E+01 -0.65973887410E+00  0.10418213852E+02  0.51100000000E-03 0.  1.
         12    1    3    3    0    0  0.15874895266E+02 -0.19556673806E+01 -0.19946483553E+02  0.25567540764E+02  0.00000000000E+00 0. -1.
</event>
<event>
 7    1  0.3910751E-009  0.4778723E+02  0.7816164E-02  0.1312668E+00
        -11   -1    0    0    0    0  0.00000000000E+00  0.00000000000E+00  0.45593999997E+02  0.45594000000E+02  0.51100000000E-03 0. -1.
         11   -1    0    0    0    0 -0.00000000000E+00 -0.00000000000E+00 -0.45593999997E+02  0.45594000000E+02  0.51100000000E-03 0.  1.
    9900012    2    1    2    0    0  0.24297374881E+02 -0.28918372930E+02  0.21377366043E+02  0.47787233901E+02  0.19999830649E+02 0.  0.
        -12    1    1    2    0    0 -0.24297374881E+02  0.28918372930E+02 -0.21377366043E+02  0.43400766099E+02  0.00000000000E+00 0.  1.
         11    1    3    3    0    0  0.20857544863E+02 -0.20951595203E+02  0.94298100147E+01  0.31031078557E+02  0.51100000000E-03 0.  1.
        -11    1    3    3    0    0  0.31436897567E+01  0.43602352281E+00  0.20913982341E+01  0.38009010291E+01  0.51100000000E-03 0. -1.
        -12    1    3    3    0    0  0.29614026166E+00 -0.84028012493E+01  0.98561577943E+01  0.12955254315E+02  0.00000000000E+00 0.  1.
</event>
<event>
 7    1  0.3910751E-009  0.4778727E+02  0.7816164E-02  0.1312668E+00
        -11   -1    0    0    0    0  0.00000000000E+00  0.00000000000E+00  0.45593999997E+02  0.45594000000E+02  0.51100000000E-03 0. -1.
         11   -1    0    0    0    0 -0.00000000000E+00 -0.00000000000E+00 -0.45593999997E+02  0.45594000000E+02  0.51100000000E-03 0.  1.
    9900012    2    1    2    0    0 -0.38995696326E+02 -0.34846227593E+01  0.18730102417E+02  0.47787266547E+02  0.19999979493E+02 0.  0.
        -12    1    1    2    0    0  0.38995696326E+02  0.34846227593E+01 -0.18730102417E+02  0.43400733453E+02  0.00000000000E+00 0.  1.
         11    1    3    3    0    0 -0.23429238231E+02 -0.59248384261E+00  0.11550228519E+02  0.26128299223E+02  0.51100000000E-03 0. -1.
        -11    1    3    3    0    0 -0.10977048464E+02 -0.72664547379E+01  0.77785791912E+01  0.15290626276E+02  0.51100000000E-03 0.  1.
        -12    1    3    3    0    0 -0.45894096319E+01  0.43743158212E+01 -0.59870529286E+00  0.63683410478E+01  0.00000000000E+00 0.  1.
</event>
<event>
 7    1  0.3910751E-009  0.4778728E+02  0.7816164E-02  0.1312668E+00
        -11   -1    0    0    0    0  0.00000000000E+00  0.00000000000E+00  0.45593999997E+02  0.45594000000E+02  0.51100000000E-03 0.  1.
         11   -1    0    0    0    0 -0.00000000000E+00 -0.00000000000E+00 -0.45593999997E+02  0.45594000000E+02  0.51100000000E-03 0. -1.
    9900012    2    1    2    0    0 -0.22055442196E+01 -0.17954080480E+01 -0.43307446612E+02  0.47787275957E+02  0.20000022400E+02 0.  0.
        -12    1    1    2    0    0  0.22055442196E+01  0.17954080480E+01  0.43307446612E+02  0.43400724043E+02  0.00000000000E+00 0.  1.
         11    1    3    3    0    0 -0.36514620602E+01  0.49463726497E+01 -0.56215251291E+01  0.83307456212E+01  0.51100000000E-03 0. -1.
        -11    1    3    3    0    0  0.35470442675E+01 -0.41148320708E+00 -0.52985008046E+01  0.63894407035E+01  0.51100000000E-03 0.  1.
         12    1    3    3    0    0 -0.21011264269E+01 -0.63302974906E+01 -0.32387420678E+02  0.33067089633E+02  0.00000000000E+00 0. -1.
</event>
<event>
 7    1  0.3910751E-009  0.4778726E+02  0.7816164E-02  0.1312668E+00
        -11   -1    0    0    0    0  0.00000000000E+00  0.00000000000E+00  0.45593999997E+02  0.45594000000E+02  0.51100000000E-03 0. -1.
         11   -1    0    0    0    0 -0.00000000000E+00 -0.00000000000E+00 -0.45593999997E+02  0.45594000000E+02  0.51100000000E-03 0.  1.
    9900012    2    1    2    0    0 -0.38887062510E+02  0.68555091219E+01  0.18011727413E+02  0.47787263135E+02  0.19999963939E+02 0.  0.
        -12    1    1    2    0    0  0.38887062510E+02 -0.68555091219E+01 -0.18011727413E+02  0.43400736865E+02  0.00000000000E+00 0.  1.
         11    1    3    3    0    0 -0.79452551480E+01  0.22901510892E+01  0.12238478678E+02  0.14769977387E+02  0.51100000000E-03 0. -1.
        -11    1    3    3    0    0 -0.26394819012E+01  0.20476257011E+01 -0.15379872552E+01  0.36776406535E+01  0.51100000000E-03 0.  1.
        -12    1    3    3    0    0 -0.28302325461E+02  0.25177323316E+01  0.73112359902E+01  0.29339645095E+02  0.00000000000E+00 0.  1.
</event>
<event>
 7    1  0.3910751E-009  0.4778728E+02  0.7816164E-02  0.1312668E+00
        -11   -1    0    0    0    0  0.00000000000E+00  0.00000000000E+00  0.45593999997E+02  0.45594000000E+02  0.51100000000E-03 0.  1.
         11   -1    0    0    0    0 -0.00000000000E+00 -0.00000000000E+00 -0.45593999997E+02  0.45594000000E+02  0.51100000000E-03 0. -1.
    9900012    2    1    2    0    0  0.30105154540E+02 -0.28788457276E+02 -0.12187172119E+02  0.47787276890E+02  0.20000026651E+02 0.  0.
        -12    1    1    2    0    0 -0.30105154540E+02  0.28788457276E+02  0.12187172119E+02  0.43400723110E+02  0.00000000000E+00 0.  1.
         11    1    3    3    0    0  0.24478134156E+01 -0.55304143171E+00 -0.65458420784E+01  0.70103989985E+01  0.51100000000E-03 0. -1.
        -11    1    3    3    0    0  0.56533902197E+01 -0.86908858072E+01 -0.45601185435E+01  0.11326385058E+02  0.51100000000E-03 0.  1.
         12    1    3    3    0    0  0.22003950905E+02 -0.19544530037E+02 -0.10812114970E+01  0.29450492833E+02  0.00000000000E+00 0. -1.
</event>
<event>
 7    1  0.3910751E-009  0.4778727E+02  0.7816164E-02  0.1312668E+00
        -11   -1    0    0    0    0  0.00000000000E+00  0.00000000000E+00  0.45593999997E+02  0.45594000000E+02  0.51100000000E-03 0. -1.
         11   -1    0    0    0    0 -0.00000000000E+00 -0.00000000000E+00 -0.45593999997E+02  0.45594000000E+02  0.51100000000E-03 0.  1.
    9900012    2    1    2    0    0 -0.29422325162E+01  0.41153543986E+02  0.13466721534E+02  0.47787268397E+02  0.19999987930E+02 0.  0.
        -12    1    1    2    0    0  0.29422325162E+01 -0.41153543986E+02 -0.13466721534E+02  0.43400731603E+02  0.00000000000E+00 0.  1.
         11    1    3    3    0    0 -0.52758259116E+01  0.77773285899E+01  0.70820362873E+01  0.11767600320E+02  0.51100000000E-03 0. -1.
        -11    1    3    3    0    0  0.46299353433E+01  0.75688223844E+01  0.47370350625E+01  0.10057975692E+02  0.51100000000E-03 0.  1.
         12    1    3    3    0    0 -0.22963419480E+01  0.25807393012E+02  0.16476501841E+01  0.25961692386E+02  0.00000000000E+00 0. -1.
</event>
<event>
 7    1  0.3910751E-009  0.4778727E+02  0.7816164E-02  0.1312668E+00
        -11   -1    0    0    0    0  0.00000000000E+00  0.00000000000E+00  0.45593999997E+02  0.45594000000E+02  0.51100000000E-03 0.  1.
         11   -1    0    0    0    0 -0.00000000000E+00 -0.00000000000E+00 -0.45593999997E+02  0.45594000000E+02  0.51100000000E-03 0. -1.
    9900012    2    1    2    0    0 -0.16015477429E+02  0.12032814806E+02 -0.38501158677E+02  0.47787269949E+02  0.19999995006E+02 0.  0.
        -12    1    1    2    0    0  0.16015477429E+02 -0.12032814806E+02  0.38501158677E+02  0.43400730051E+02  0.00000000000E+00 0.  1.
         11    1    3    3    0    0 -0.56832781482E+01 -0.35783172502E+00 -0.26525421605E+00  0.57007064574E+01  0.51100000000E-03 0.  1.
        -11    1    3    3    0    0 -0.91621559641E+01  0.64384824549E+01 -0.20757624897E+02  0.23585549599E+02  0.51100000000E-03 0. -1.
        -12    1    3    3    0    0 -0.11700433165E+01  0.59521640765E+01 -0.17478279564E+02  0.18501013893E+02  0.00000000000E+00 0.  1.
</event>
<event>
 7    1  0.3910751E-009  0.4778729E+02  0.7816164E-02  0.1312668E+00
        -11   -1    0    0    0    0  0.00000000000E+00  0.00000000000E+00  0.45593999997E+02  0.45594000000E+02  0.51100000000E-03 0.  1.
         11   -1    0    0    0    0 -0.00000000000E+00 -0.00000000000E+00 -0.45593999997E+02  0.45594000000E+02  0.51100000000E-03 0. -1.
    9900012    2    1    2    0    0  0.50076398041E+01  0.38295069128E+02 -0.19799819759E+02  0.47787289886E+02  0.20000085904E+02 0.  0.
        -12    1    1    2    0    0 -0.50076398041E+01 -0.38295069128E+02  0.19799819759E+02  0.43400710114E+02  0.00000000000E+00 0.  1.
         11    1    3    3    0    0 -0.45242497357E+01  0.87957375893E+01 -0.22525774867E+01  0.10144355130E+02  0.51100000000E-03 0. -1.
        -11    1    3    3    0    0 -0.34706247026E+00  0.14109236001E+02 -0.12018907742E+02  0.18537668043E+02  0.51100000000E-03 0.  1.
         12    1    3    3    0    0  0.98789520101E+01  0.15390095538E+02 -0.55283345303E+01  0.19105266713E+02  0.00000000000E+00 0. -1.
</event>
<event>
 7    1  0.3910751E-009  0.4778727E+02  0.7816164E-02  0.1312668E+00
        -11   -1    0    0    0    0  0.00000000000E+00  0.00000000000E+00  0.45593999997E+02  0.45594000000E+02  0.51100000000E-03 0.  1.
         11   -1    0    0    0    0 -0.00000000000E+00 -0.00000000000E+00 -0.45593999997E+02  0.45594000000E+02  0.51100000000E-03 0. -1.
    9900012    2    1    2    0    0  0.30997172732E+02  0.15562460807E+02 -0.26088474783E+02  0.47787269358E+02  0.19999992313E+02 0.  0.
        -12    1    1    2    0    0 -0.30997172732E+02 -0.15562460807E+02  0.26088474783E+02  0.43400730642E+02  0.00000000000E+00 0.  1.
         11    1    3    3    0    0  0.21164551326E+01 -0.45312717359E+00 -0.16231533637E+01  0.27054267070E+01  0.51100000000E-03 0. -1.
        -11    1    3    3    0    0  0.45717305062E+01 -0.32835699642E+01 -0.11217149113E+00  0.56298431804E+01  0.51100000000E-03 0.  1.
         12    1    3    3    0    0  0.24308987093E+02  0.19299157945E+02 -0.24353149928E+02  0.39451999471E+02  0.00000000000E+00 0. -1.
</event>
<event>
 7    1  0.3910751E-009  0.4778727E+02  0.7816164E-02  0.1312668E+00
        -11   -1    0    0    0    0  0.00000000000E+00  0.00000000000E+00  0.45593999997E+02  0.45594000000E+02  0.51100000000E-03 0.  1.
         11   -1    0    0    0    0 -0.00000000000E+00 -0.00000000000E+00 -0.45593999997E+02  0.45594000000E+02  0.51100000000E-03 0. -1.
    9900012    2    1    2    0    0 -0.84106521089E+01 -0.82846876327E+01 -0.41764198245E+02  0.47787269901E+02  0.19999994785E+02 0.  0.
        -12    1    1    2    0    0  0.84106521089E+01  0.82846876327E+01  0.41764198245E+02  0.43400730099E+02  0.00000000000E+00 0.  1.
         11    1    3    3    0    0 -0.31606978432E+00 -0.81748245371E+01 -0.23216490849E+02  0.24615708479E+02  0.51100000000E-03 0. -1.
        -11    1    3    3    0    0 -0.26345398588E+01 -0.37191240407E+01 -0.13239194381E+01  0.47460980644E+01  0.51100000000E-03 0.  1.
         12    1    3    3    0    0 -0.54600424658E+01  0.36092609451E+01 -0.17223787958E+02  0.18425463357E+02  0.00000000000E+00 0. -1.
</event>
<event>
 7    1  0.3910751E-009  0.4778727E+02  0.7816164E-02  0.1312668E+00
        -11   -1    0    0    0    0  0.00000000000E+00  0.00000000000E+00  0.45593999997E+02  0.45594000000E+02  0.51100000000E-03 0. -1.
         11   -1    0    0    0    0 -0.00000000000E+00 -0.00000000000E+00 -0.45593999997E+02  0.45594000000E+02  0.51100000000E-03 0.  1.
    9900012    2    1    2    0    0  0.35522107836E+02 -0.97652004408E+01  0.22944367909E+02  0.47787270703E+02  0.19999998444E+02 0.  0.
        -12    1    1    2    0    0 -0.35522107836E+02  0.97652004408E+01 -0.22944367909E+02  0.43400729297E+02  0.00000000000E+00 0.  1.
         11    1    3    3    0    0  0.62930518117E+01 -0.31772663023E+01 -0.13158349085E+01  0.71713976342E+01  0.51100000000E-03 0.  1.
        -11    1    3    3    0    0  0.19829924607E+02 -0.52061007594E+01  0.84585971768E+01  0.22178306101E+02  0.51100000000E-03 0. -1.
        -12    1    3    3    0    0  0.93991314170E+01 -0.13818333791E+01  0.15801605641E+02  0.18437566968E+02  0.00000000000E+00 0.  1.
</event>
<event>
 7    1  0.3910751E-009  0.4778728E+02  0.7816164E-02  0.1312668E+00
        -11   -1    0    0    0    0  0.00000000000E+00  0.00000000000E+00  0.45593999997E+02  0.45594000000E+02  0.51100000000E-03 0.  1.
         11   -1    0    0    0    0 -0.00000000000E+00 -0.00000000000E+00 -0.45593999997E+02  0.45594000000E+02  0.51100000000E-03 0. -1.
    9900012    2    1    2    0    0  0.32118382389E+02 -0.18242459745E+02 -0.22786945544E+02  0.47787277517E+02  0.20000029511E+02 0.  0.
        -12    1    1    2    0    0 -0.32118382389E+02  0.18242459745E+02  0.22786945544E+02  0.43400722483E+02  0.00000000000E+00 0.  1.
         11    1    3    3    0    0  0.25911697019E+01  0.43971563882E+00 -0.49302428769E+01  0.55870211521E+01  0.51100000000E-03 0. -1.
        -11    1    3    3    0    0  0.22229705802E+02 -0.61459750896E+01 -0.70676898882E+01  0.24122294055E+02  0.51100000000E-03 0.  1.
        -12    1    3    3    0    0  0.72975068850E+01 -0.12536200294E+02 -0.10789012779E+02  0.18077962310E+02  0.00000000000E+00 0.  1.
</event>
<event>
 7    1  0.5372840E-009  0.4778727E+02  0.7816164E-02  0.1312668E+00
        -11   -1    0    0    0    0  0.00000000000E+00  0.00000000000E+00  0.45593999997E+02  0.45594000000E+02  0.51100000000E-03 0. -1.
         11   -1    0    0    0    0 -0.00000000000E+00 -0.00000000000E+00 -0.45593999997E+02  0.45594000000E+02  0.51100000000E-03 0.  1.
    9900012    2    1    2    0    0  0.33593271858E+01  0.10279802001E+02  0.42031701654E+02  0.47787270142E+02  0.19999995884E+02 0.  0.
        -12    1    1    2    0    0 -0.33593271858E+01 -0.10279802001E+02 -0.42031701654E+02  0.43400729858E+02  0.00000000000E+00 0.  1.
         11    1    3    3    0    0  0.58899165484E+01  0.17145474987E+01  0.23640281311E+02  0.24423220320E+02  0.51100000000E-03 0. -1.
        -11    1    3    3    0    0 -0.18153906996E+01  0.55920981690E+01  0.19298629916E+02  0.20174348124E+02  0.51100000000E-03 0.  1.
        -12    1    3    3    0    0 -0.71519866296E+00  0.29731563335E+01 -0.90720957343E+00  0.31897016978E+01  0.00000000000E+00 0.  1.
</event>
<event>
 7    1  0.3910751E-009  0.4778727E+02  0.7816164E-02  0.1312668E+00
        -11   -1    0    0    0    0  0.00000000000E+00  0.00000000000E+00  0.45593999997E+02  0.45594000000E+02  0.51100000000E-03 0.  1.
         11   -1    0    0    0    0 -0.00000000000E+00 -0.00000000000E+00 -0.45593999997E+02  0.45594000000E+02  0.51100000000E-03 0. -1.
    9900012    2    1    2    0    0 -0.68158169583E+01  0.31709439153E+02 -0.28838851445E+02  0.47787271378E+02  0.20000001522E+02 0.  0.
        -12    1    1    2    0    0  0.68158169583E+01 -0.31709439153E+02  0.28838851445E+02  0.43400728622E+02  0.00000000000E+00 0.  1.
         11    1    3    3    0    0 -0.23098100495E+01  0.24658519883E+01 -0.11143973458E+02  0.11644904172E+02  0.51100000000E-03 0. -1.
        -11    1    3    3    0    0 -0.49323229456E+01  0.50848240769E+01 -0.21173229504E+01  0.73936663619E+01  0.51100000000E-03 0.  1.
        -12    1    3    3    0    0  0.42631603681E+00  0.24158763088E+02 -0.15577555037E+02  0.28748700844E+02  0.00000000000E+00 0.  1.
</event>
<event>
 7    1  0.3910751E-009  0.4778727E+02  0.7816164E-02  0.1312668E+00
        -11   -1    0    0    0    0  0.00000000000E+00  0.00000000000E+00  0.45593999997E+02  0.45594000000E+02  0.51100000000E-03 0.  1.
         11   -1    0    0    0    0 -0.00000000000E+00 -0.00000000000E+00 -0.45593999997E+02  0.45594000000E+02  0.51100000000E-03 0. -1.
    9900012    2    1    2    0    0 -0.41162816760E+02  0.88537858713E+01 -0.10528830291E+02  0.47787271030E+02  0.19999999934E+02 0.  0.
        -12    1    1    2    0    0  0.41162816760E+02 -0.88537858713E+01  0.10528830291E+02  0.43400728970E+02  0.00000000000E+00 0.  1.
         11    1    3    3    0    0 -0.54422010212E+01 -0.14384554861E+01 -0.28507084716E+01  0.63097737829E+01  0.51100000000E-03 0. -1.
        -11    1    3    3    0    0 -0.13643383496E+01  0.54347053717E+01  0.10446842365E+01  0.56998953520E+01  0.51100000000E-03 0.  1.
         12    1    3    3    0    0 -0.34356277389E+02  0.48575359858E+01 -0.87228060560E+01  0.35777601895E+02  0.00000000000E+00 0. -1.
</event>
<event>
 7    1  0.3910751E-009  0.4778728E+02  0.7816164E-02  0.1312668E+00
        -11   -1    0    0    0    0  0.00000000000E+00  0.00000000000E+00  0.45593999997E+02  0.45594000000E+02  0.51100000000E-03 0.  1.
         11   -1    0    0    0    0 -0.00000000000E+00 -0.00000000000E+00 -0.45593999997E+02  0.45594000000E+02  0.51100000000E-03 0. -1.
    9900012    2    1    2    0    0 -0.91810470970E+01  0.38060962877E+02 -0.18726829569E+02  0.47787278040E+02  0.20000031896E+02 0.  0.
        -12    1    1    2    0    0  0.91810470970E+01 -0.38060962877E+02  0.18726829569E+02  0.43400721960E+02  0.00000000000E+00 0.  1.
         11    1    3    3    0    0  0.25591652947E+01  0.11303283283E+02 -0.32343135153E+01  0.12032220251E+02  0.51100000000E-03 0. -1.
        -11    1    3    3    0    0 -0.28402073797E+01  0.11697897893E+02 -0.13596360430E+02  0.18159532215E+02  0.51100000000E-03 0.  1.
        -12    1    3    3    0    0 -0.89000050120E+01  0.15059781701E+02 -0.18961556243E+01  0.17595525574E+02  0.00000000000E+00 0.  1.
</event>
<event>
 7    1  0.3910751E-009  0.4778727E+02  0.7816164E-02  0.1312668E+00
        -11   -1    0    0    0    0  0.00000000000E+00  0.00000000000E+00  0.45593999997E+02  0.45594000000E+02  0.51100000000E-03 0. -1.
         11   -1    0    0    0    0 -0.00000000000E+00 -0.00000000000E+00 -0.45593999997E+02  0.45594000000E+02  0.51100000000E-03 0.  1.
    9900012    2    1    2    0    0 -0.37255315270E+02 -0.17421542810E+02  0.13861976961E+02  0.47787273336E+02  0.20000010447E+02 0.  0.
        -12    1    1    2    0    0  0.37255315270E+02  0.17421542810E+02 -0.13861976961E+02  0.43400726664E+02  0.00000000000E+00 0.  1.
         11    1    3    3    0    0 -0.20452472676E+02 -0.75916292712E+01  0.19203235906E+01  0.21900322292E+02  0.51100000000E-03 0. -1.
        -11    1    3    3    0    0 -0.72221546736E+01  0.12470588810E+01  0.58149362673E+00  0.73520615532E+01  0.51100000000E-03 0.  1.
         12    1    3    3    0    0 -0.95806879201E+01 -0.11076972420E+02  0.11360159744E+02  0.18534889490E+02  0.00000000000E+00 0. -1.
</event>
<event>
 7    1  0.3910751E-009  0.4778727E+02  0.7816164E-02  0.1312668E+00
        -11   -1    0    0    0    0  0.00000000000E+00  0.00000000000E+00  0.45593999997E+02  0.45594000000E+02  0.51100000000E-03 0.  1.
         11   -1    0    0    0    0 -0.00000000000E+00 -0.00000000000E+00 -0.45593999997E+02  0.45594000000E+02  0.51100000000E-03 0. -1.
    9900012    2    1    2    0    0 -0.38544724554E+02  0.51289454495E+01 -0.19277488937E+02  0.47787268991E+02  0.19999990639E+02 0.  0.
        -12    1    1    2    0    0  0.38544724554E+02 -0.51289454495E+01  0.19277488937E+02  0.43400731009E+02  0.00000000000E+00 0.  1.
         11    1    3    3    0    0 -0.13744559676E+02  0.71630177187E+01 -0.52469774432E+01  0.16363145055E+02  0.51100000000E-03 0. -1.
        -11    1    3    3    0    0 -0.12891006127E+02 -0.24195153970E+00  0.53113469411E-01  0.12893385932E+02  0.51100000000E-03 0.  1.
        -12    1    3    3    0    0 -0.11909158751E+02 -0.17921207295E+01 -0.14083624963E+02  0.18530738004E+02  0.00000000000E+00 0.  1.
</event>
<event>
 7    1  0.3910751E-009  0.4778727E+02  0.7816164E-02  0.1312668E+00
        -11   -1    0    0    0    0  0.00000000000E+00  0.00000000000E+00  0.45593999997E+02  0.45594000000E+02  0.51100000000E-03 0. -1.
         11   -1    0    0    0    0 -0.00000000000E+00 -0.00000000000E+00 -0.45593999997E+02  0.45594000000E+02  0.51100000000E-03 0.  1.
    9900012    2    1    2    0    0 -0.30296175333E+02  0.89121978319E+01  0.29771423368E+02  0.47787272364E+02  0.20000006016E+02 0.  0.
        -12    1    1    2    0    0  0.30296175333E+02 -0.89121978319E+01 -0.29771423368E+02  0.43400727636E+02  0.00000000000E+00 0.  1.
         11    1    3    3    0    0 -0.97503614718E+01 -0.54048577213E+01  0.10864612005E+02  0.15566689761E+02  0.51100000000E-03 0. -1.
        -11    1    3    3    0    0 -0.56211343152E+00  0.25678079845E+01  0.63662574294E+00  0.27046075414E+01  0.51100000000E-03 0.  1.
         12    1    3    3    0    0 -0.19983700430E+02  0.11749247569E+02  0.18270185619E+02  0.29515975062E+02  0.00000000000E+00 0. -1.
</event>
<event>
 7    1  0.3910751E-009  0.4778727E+02  0.7816164E-02  0.1312668E+00
        -11   -1    0    0    0    0  0.00000000000E+00  0.00000000000E+00  0.45593999997E+02  0.45594000000E+02  0.51100000000E-03 0.  1.
         11   -1    0    0    0    0 -0.00000000000E+00 -0.00000000000E+00 -0.45593999997E+02  0.45594000000E+02  0.51100000000E-03 0. -1.
    9900012    2    1    2    0    0 -0.53725293621E+01 -0.30780936040E+02 -0.30121311252E+02  0.47787268592E+02  0.19999988817E+02 0.  0.
        -12    1    1    2    0    0  0.53725293621E+01  0.30780936040E+02  0.30121311252E+02  0.43400731408E+02  0.00000000000E+00 0.  1.
         11    1    3    3    0    0 -0.21794524218E+01 -0.90162028712E+01 -0.19570158011E+02  0.21657169988E+02  0.51100000000E-03 0. -1.
        -11    1    3    3    0    0  0.24887220581E+01 -0.13460843962E+02 -0.75366084886E+01  0.15626532738E+02  0.51100000000E-03 0.  1.
        -12    1    3    3    0    0 -0.56817989984E+01 -0.83038892070E+01 -0.30145447523E+01  0.10503565865E+02  0.00000000000E+00 0.  1.
</event>
<event>
 7    1  0.3910751E-009  0.4778727E+02  0.7816164E-02  0.1312668E+00
        -11   -1    0    0    0    0  0.00000000000E+00  0.00000000000E+00  0.45593999997E+02  0.45594000000E+02  0.51100000000E-03 0.  1.
         11   -1    0    0    0    0 -0.00000000000E+00 -0.00000000000E+00 -0.45593999997E+02  0.45594000000E+02  0.51100000000E-03 0. -1.
    9900012    2    1    2    0    0 -0.14534246086E+02  0.18887482239E+02 -0.36271782039E+02  0.47787268821E+02  0.19999989861E+02 0.  0.
        -12    1    1    2    0    0  0.14534246086E+02 -0.18887482239E+02  0.36271782039E+02  0.43400731179E+02  0.00000000000E+00 0.  1.
         11    1    3    3    0    0 -0.12141907911E+02  0.18344820879E+02 -0.29640337716E+02  0.36912166030E+02  0.51100000000E-03 0. -1.
        -11    1    3    3    0    0 -0.29253363395E+01  0.23198738901E+01 -0.78242215725E+01  0.86693627818E+01  0.51100000000E-03 0.  1.
        -12    1    3    3    0    0  0.53299816481E+00 -0.17772125305E+01  0.11927772494E+01  0.22057400094E+01  0.00000000000E+00 0.  1.
</event>
<event>
 7    1  0.3910751E-009  0.4778726E+02  0.7816164E-02  0.1312668E+00
        -11   -1    0    0    0    0  0.00000000000E+00  0.00000000000E+00  0.45593999997E+02  0.45594000000E+02  0.51100000000E-03 0.  1.
         11   -1    0    0    0    0 -0.00000000000E+00 -0.00000000000E+00 -0.45593999997E+02  0.45594000000E+02  0.51100000000E-03 0. -1.
    9900012    2    1    2    0    0 -0.83479908404E+01 -0.31915153509E+02 -0.28202096948E+02  0.47787259836E+02  0.19999948896E+02 0.  0.
        -12    1    1    2    0    0  0.83479908404E+01  0.31915153509E+02  0.28202096948E+02  0.43400740164E+02  0.00000000000E+00 0.  1.
         11    1    3    3    0    0 -0.95950066068E+00 -0.10371122956E+02 -0.14489230648E+02  0.17844288664E+02  0.51100000000E-03 0.  1.
        -11    1    3    3    0    0 -0.47943232911E+00 -0.19051726963E+02 -0.11557442256E+02  0.22288396698E+02  0.51100000000E-03 0. -1.
        -12    1    3    3    0    0 -0.69090578506E+01 -0.24923035905E+01 -0.21554240436E+01  0.76545744740E+01  0.00000000000E+00 0.  1.
</event>
<event>
 7    1  0.3910751E-009  0.4778727E+02  0.7816164E-02  0.1312668E+00
        -11   -1    0    0    0    0  0.00000000000E+00  0.00000000000E+00  0.45593999997E+02  0.45594000000E+02  0.51100000000E-03 0.  1.
         11   -1    0    0    0    0 -0.00000000000E+00 -0.00000000000E+00 -0.45593999997E+02  0.45594000000E+02  0.51100000000E-03 0. -1.
    9900012    2    1    2    0    0 -0.28541835986E+02  0.50422243469E+01 -0.32304223560E+02  0.47787270886E+02  0.19999999278E+02 0.  0.
        -12    1    1    2    0    0  0.28541835986E+02 -0.50422243469E+01  0.32304223560E+02  0.43400729114E+02  0.00000000000E+00 0.  1.
         11    1    3    3    0    0  0.38008071964E+00  0.56807205768E+00  0.41717646690E+00  0.80075194774E+00  0.51100000000E-03 0. -1.
        -11    1    3    3    0    0 -0.13953499753E+01  0.46128771381E+01 -0.88505444669E+00  0.48998937417E+01  0.51100000000E-03 0.  1.
         12    1    3    3    0    0 -0.27526566730E+02 -0.13872484892E+00 -0.31836345580E+02  0.42086625197E+02  0.00000000000E+00 0. -1.
</event>
<event>
 7    1  0.3910751E-009  0.4778727E+02  0.7816164E-02  0.1312668E+00
        -11   -1    0    0    0    0  0.00000000000E+00  0.00000000000E+00  0.45593999997E+02  0.45594000000E+02  0.51100000000E-03 0. -1.
         11   -1    0    0    0    0 -0.00000000000E+00 -0.00000000000E+00 -0.45593999997E+02  0.45594000000E+02  0.51100000000E-03 0.  1.
    9900012    2    1    2    0    0 -0.37906004618E+02 -0.74524863401E+01  0.19779238258E+02  0.47787274144E+02  0.20000014131E+02 0.  0.
        -12    1    1    2    0    0  0.37906004618E+02  0.74524863401E+01 -0.19779238258E+02  0.43400725856E+02  0.00000000000E+00 0.  1.
         11    1    3    3    0    0  0.22920174663E+00  0.33105122836E+01  0.19559251424E+01  0.38519694241E+01  0.51100000000E-03 0. -1.
        -11    1    3    3    0    0 -0.10410965089E+02 -0.17520517957E+01  0.19295059402E+01  0.10732235229E+02  0.51100000000E-03 0.  1.
        -12    1    3    3    0    0 -0.27724241276E+02 -0.90109468280E+01  0.15893807176E+02  0.33203069491E+02  0.00000000000E+00 0.  1.
</event>
<event>
 7    1  0.3910751E-009  0.4778727E+02  0.7816164E-02  0.1312668E+00
        -11   -1    0    0    0    0  0.00000000000E+00  0.00000000000E+00  0.45593999997E+02  0.45594000000E+02  0.51100000000E-03 0. -1.
         11   -1    0    0    0    0 -0.00000000000E+00 -0.00000000000E+00 -0.45593999997E+02  0.45594000000E+02  0.51100000000E-03 0.  1.
    9900012    2    1    2    0    0  0.34675373333E+01  0.39717956424E+02  0.17148854063E+02  0.47787273355E+02  0.20000010535E+02 0.  0.
        -12    1    1    2    0    0 -0.34675373333E+01 -0.39717956424E+02 -0.17148854063E+02  0.43400726645E+02  0.00000000000E+00 0.  1.
         11    1    3    3    0    0 -0.15911482743E+01  0.41818364645E+01  0.35582174249E+01  0.57166791541E+01  0.51100000000E-03 0. -1.
        -11    1    3    3    0    0  0.72868638595E+01  0.22937399894E+02  0.95104681190E+00  0.24085829633E+02  0.51100000000E-03 0.  1.
        -12    1    3    3    0    0 -0.22281782519E+01  0.12598720065E+02  0.12639589826E+02  0.17984764568E+02  0.00000000000E+00 0.  1.
</event>
<event>
 7    1  0.3910751E-009  0.4778726E+02  0.7816164E-02  0.1312668E+00
        -11   -1    0    0    0    0  0.00000000000E+00  0.00000000000E+00  0.45593999997E+02  0.45594000000E+02  0.51100000000E-03 0.  1.
         11   -1    0    0    0    0 -0.00000000000E+00 -0.00000000000E+00 -0.45593999997E+02  0.45594000000E+02  0.51100000000E-03 0. -1.
    9900012    2    1    2    0    0  0.21833775812E+02  0.75489662488E+01 -0.36741300322E+02  0.47787264903E+02  0.19999971997E+02 0.  0.
        -12    1    1    2    0    0 -0.21833775812E+02 -0.75489662488E+01  0.36741300322E+02  0.43400735097E+02  0.00000000000E+00 0.  1.
         11    1    3    3    0    0  0.89986675773E+00  0.69703867721E+00  0.61088615559E+00  0.12918224551E+01  0.51100000000E-03 0. -1.
        -11    1    3    3    0    0  0.76467008677E+01  0.10191355774E+02 -0.11164815022E+02  0.16940745598E+02  0.51100000000E-03 0.  1.
         12    1    3    3    0    0  0.13287208187E+02 -0.33394282027E+01 -0.26187371456E+02  0.29554696850E+02  0.00000000000E+00 0. -1.
</event>
<event>
 7    1  0.3910751E-009  0.4778727E+02  0.7816164E-02  0.1312668E+00
        -11   -1    0    0    0    0  0.00000000000E+00  0.00000000000E+00  0.45593999997E+02  0.45594000000E+02  0.51100000000E-03 0. -1.
         11   -1    0    0    0    0 -0.00000000000E+00 -0.00000000000E+00 -0.45593999997E+02  0.45594000000E+02  0.51100000000E-03 0.  1.
    9900012    2    1    2    0    0  0.19642486826E+02  0.38696784982E+02 -0.59600645978E+00  0.47787266362E+02  0.19999978649E+02 0.  0.
        -12    1    1    2    0    0 -0.19642486826E+02 -0.38696784982E+02  0.59600645978E+00  0.43400733638E+02  0.00000000000E+00 0.  1.
         11    1    3    3    0    0  0.16764267032E+02  0.20889568156E+02 -0.18786137381E+01  0.26850398446E+02  0.51100000000E-03 0. -1.
        -11    1    3    3    0    0  0.24338830566E+01 -0.58208734986E+00  0.11419132746E+00  0.25051252137E+01  0.51100000000E-03 0.  1.
         12    1    3    3    0    0  0.44433673794E+00  0.18389304176E+02  0.11684159509E+01  0.18431742702E+02  0.00000000000E+00 0. -1.
</event>
<event>
 7    1  0.3910751E-009  0.4778728E+02  0.7816164E-02  0.1312668E+00
        -11   -1    0    0    0    0  0.00000000000E+00  0.00000000000E+00  0.45593999997E+02  0.45594000000E+02  0.51100000000E-03 0.  1.
         11   -1    0    0    0    0 -0.00000000000E+00 -0.00000000000E+00 -0.45593999997E+02  0.45594000000E+02  0.51100000000E-03 0. -1.
    9900012    2    1    2    0    0  0.33223658626E+02 -0.18224357627E+02 -0.21158538167E+02  0.47787280642E+02  0.20000043760E+02 0.  0.
        -12    1    1    2    0    0 -0.33223658626E+02  0.18224357627E+02  0.21158538167E+02  0.43400719358E+02  0.00000000000E+00 0.  1.
         11    1    3    3    0    0 -0.52773790286E+00 -0.66932181807E+00  0.15328295230E+01  0.17538716025E+01  0.51100000000E-03 0. -1.
        -11    1    3    3    0    0  0.93329636285E+01 -0.20837129827E+01 -0.47350807314E+00  0.95744597781E+01  0.51100000000E-03 0.  1.
         12    1    3    3    0    0  0.24418432901E+02 -0.15471322826E+02 -0.22217859617E+02  0.36458949262E+02  0.00000000000E+00 0. -1.
</event>
<event>
 7    1  0.3910751E-009  0.4778727E+02  0.7816164E-02  0.1312668E+00
        -11   -1    0    0    0    0  0.00000000000E+00  0.00000000000E+00  0.45593999997E+02  0.45594000000E+02  0.51100000000E-03 0. -1.
         11   -1    0    0    0    0 -0.00000000000E+00 -0.00000000000E+00 -0.45593999997E+02  0.45594000000E+02  0.51100000000E-03 0.  1.
    9900012    2    1    2    0    0  0.25242412591E+02  0.21677067459E+02  0.27866627194E+02  0.47787267769E+02  0.19999985064E+02 0.  0.
        -12    1    1    2    0    0 -0.25242412591E+02 -0.21677067459E+02 -0.27866627194E+02  0.43400732231E+02  0.00000000000E+00 0.  1.
         11    1    3    3    0    0  0.15698627233E+01  0.60869928289E+01  0.83514589724E+00  0.63414051755E+01  0.51100000000E-03 0. -1.
        -11    1    3    3    0    0  0.12082409151E+02  0.14102910396E+02  0.10921615625E+02  0.21544335233E+02  0.51100000000E-03 0.  1.
        -12    1    3    3    0    0  0.11590140717E+02  0.14871642345E+01  0.16109865672E+02  0.19901527360E+02  0.00000000000E+00 0.  1.
</event>
<event>
 7    1  0.3910751E-009  0.4778727E+02  0.7816164E-02  0.1312668E+00
        -11   -1    0    0    0    0  0.00000000000E+00  0.00000000000E+00  0.45593999997E+02  0.45594000000E+02  0.51100000000E-03 0.  1.
         11   -1    0    0    0    0 -0.00000000000E+00 -0.00000000000E+00 -0.45593999997E+02  0.45594000000E+02  0.51100000000E-03 0. -1.
    9900012    2    1    2    0    0  0.18901670859E+02  0.37665269292E+02 -0.10376777516E+02  0.47787272083E+02  0.20000004735E+02 0.  0.
        -12    1    1    2    0    0 -0.18901670859E+02 -0.37665269292E+02  0.10376777516E+02  0.43400727917E+02  0.00000000000E+00 0.  1.
         11    1    3    3    0    0  0.38636980219E+01  0.47743198307E+00 -0.86935039501E+00  0.39889690489E+01  0.51100000000E-03 0. -1.
        -11    1    3    3    0    0  0.26072298626E+00  0.67746551313E+01  0.34258976881E+01  0.75960979360E+01  0.51100000000E-03 0.  1.
         12    1    3    3    0    0  0.14777249851E+02  0.30413182178E+02 -0.12933324809E+02  0.36202205098E+02  0.00000000000E+00 0. -1.
</event>
<event>
 7    1  0.3910751E-009  0.4778723E+02  0.7816164E-02  0.1312668E+00
        -11   -1    0    0    0    0  0.00000000000E+00  0.00000000000E+00  0.45593999997E+02  0.45594000000E+02  0.51100000000E-03 0.  1.
         11   -1    0    0    0    0 -0.00000000000E+00 -0.00000000000E+00 -0.45593999997E+02  0.45594000000E+02  0.51100000000E-03 0. -1.
    9900012    2    1    2    0    0  0.39294802229E+02 -0.18060416872E+02 -0.36560467414E+01  0.47787230219E+02  0.19999813858E+02 0.  0.
        -12    1    1    2    0    0 -0.39294802229E+02  0.18060416872E+02  0.36560467414E+01  0.43400769781E+02  0.00000000000E+00 0.  1.
         11    1    3    3    0    0  0.45289153395E+01  0.13406946905E+01  0.32732413252E+01  0.57465333411E+01  0.51100000000E-03 0. -1.
        -11    1    3    3    0    0  0.60797774169E+01 -0.79634951702E+01  0.12419921324E+01  0.10095716591E+02  0.51100000000E-03 0.  1.
         12    1    3    3    0    0  0.28686109473E+02 -0.11437616393E+02 -0.81712801990E+01  0.31944980287E+02  0.00000000000E+00 0. -1.
</event>
<event>
 7    1  0.3910751E-009  0.4778732E+02  0.7816164E-02  0.1312668E+00
        -11   -1    0    0    0    0  0.00000000000E+00  0.00000000000E+00  0.45593999997E+02  0.45594000000E+02  0.51100000000E-03 0.  1.
         11   -1    0    0    0    0 -0.00000000000E+00 -0.00000000000E+00 -0.45593999997E+02  0.45594000000E+02  0.51100000000E-03 0. -1.
    9900012    2    1    2    0    0  0.42710441244E+02  0.62464831890E+01 -0.45186828588E+01  0.47787322145E+02  0.20000232987E+02 0.  0.
        -12    1    1    2    0    0 -0.42710441244E+02 -0.62464831890E+01  0.45186828588E+01  0.43400677855E+02  0.00000000000E+00 0.  1.
         11    1    3    3    0    0  0.31887158618E+02  0.61843414283E+01  0.89778987139E+00  0.32493737712E+02  0.51100000000E-03 0. -1.
        -11    1    3    3    0    0  0.23274086097E+01  0.17992090995E+01  0.22620958742E+01  0.37109381867E+01  0.51100000000E-03 0.  1.
        -12    1    3    3    0    0  0.84958740167E+01 -0.17370673389E+01 -0.76785686045E+01  0.11582646246E+02  0.00000000000E+00 0.  1.
</event>
<event>
 7    1  0.3910751E-009  0.4778727E+02  0.7816164E-02  0.1312668E+00
        -11   -1    0    0    0    0  0.00000000000E+00  0.00000000000E+00  0.45593999997E+02  0.45594000000E+02  0.51100000000E-03 0.  1.
         11   -1    0    0    0    0 -0.00000000000E+00 -0.00000000000E+00 -0.45593999997E+02  0.45594000000E+02  0.51100000000E-03 0. -1.
    9900012    2    1    2    0    0 -0.15969096512E+01 -0.13394270587E+02 -0.41251268874E+02  0.47787265113E+02  0.19999972958E+02 0.  0.
        -12    1    1    2    0    0  0.15969096512E+01  0.13394270587E+02  0.41251268874E+02  0.43400734887E+02  0.00000000000E+00 0.  1.
         11    1    3    3    0    0 -0.43507418622E+00 -0.41319278107E+00  0.53969580828E+00  0.80702518451E+00  0.51100000000E-03 0.  1.
        -11    1    3    3    0    0 -0.52871335453E+01 -0.86867040344E+01 -0.39179946072E+02  0.40478151916E+02  0.51100000000E-03 0. -1.
         12    1    3    3    0    0  0.41252980803E+01 -0.42943737716E+01 -0.26110186106E+01  0.65020880128E+01  0.00000000000E+00 0. -1.
</event>
<event>
 7    1  0.3910751E-009  0.4778726E+02  0.7816164E-02  0.1312668E+00
        -11   -1    0    0    0    0  0.00000000000E+00  0.00000000000E+00  0.45593999997E+02  0.45594000000E+02  0.51100000000E-03 0.  1.
         11   -1    0    0    0    0 -0.00000000000E+00 -0.00000000000E+00 -0.45593999997E+02  0.45594000000E+02  0.51100000000E-03 0. -1.
    9900012    2    1    2    0    0  0.39341372686E+02 -0.17034199651E+02 -0.67614160303E+01  0.47787259116E+02  0.19999945614E+02 0.  0.
        -12    1    1    2    0    0 -0.39341372686E+02  0.17034199651E+02  0.67614160303E+01  0.43400740884E+02  0.00000000000E+00 0.  1.
         11    1    3    3    0    0  0.15631365652E+02 -0.12457664218E+02 -0.40648417449E+01  0.20397449070E+02  0.51100000000E-03 0. -1.
        -11    1    3    3    0    0  0.22674896250E+02 -0.32076087708E+00 -0.34733276101E+01  0.22941617477E+02  0.51100000000E-03 0.  1.
        -12    1    3    3    0    0  0.10351107837E+01 -0.42557745553E+01  0.77675332479E+00  0.44481925686E+01  0.00000000000E+00 0.  1.
</event>
<event>
 7    1  0.3910751E-009  0.4778727E+02  0.7816164E-02  0.1312668E+00
        -11   -1    0    0    0    0  0.00000000000E+00  0.00000000000E+00  0.45593999997E+02  0.45594000000E+02  0.51100000000E-03 0. -1.
         11   -1    0    0    0    0 -0.00000000000E+00 -0.00000000000E+00 -0.45593999997E+02  0.45594000000E+02  0.51100000000E-03 0.  1.
    9900012    2    1    2    0    0 -0.24083684235E+02 -0.22078747062E+02  0.28567963157E+02  0.47787269164E+02  0.19999991428E+02 0.  0.
        -12    1    1    2    0    0  0.24083684235E+02  0.22078747062E+02 -0.28567963157E+02  0.43400730836E+02  0.00000000000E+00 0.  1.
         11    1    3    3    0    0 -0.22847253366E+02 -0.16672742879E+02  0.20033404824E+02  0.34659986304E+02  0.51100000000E-03 0. -1.
        -11    1    3    3    0    0 -0.31727989435E+01 -0.28791640742E+01  0.29551158264E+00  0.42945973338E+01  0.51100000000E-03 0.  1.
         12    1    3    3    0    0  0.19363680752E+01 -0.25268401086E+01  0.82390467499E+01  0.88326855262E+01  0.00000000000E+00 0. -1.
</event>
<event>
 7    1  0.3910751E-009  0.4778727E+02  0.7816164E-02  0.1312668E+00
        -11   -1    0    0    0    0  0.00000000000E+00  0.00000000000E+00  0.45593999997E+02  0.45594000000E+02  0.51100000000E-03 0. -1.
         11   -1    0    0    0    0 -0.00000000000E+00 -0.00000000000E+00 -0.45593999997E+02  0.45594000000E+02  0.51100000000E-03 0.  1.
    9900012    2    1    2    0    0  0.33724209817E+02  0.24070599720E+01  0.27212258736E+02  0.47787270847E+02  0.19999999101E+02 0.  0.
        -12    1    1    2    0    0 -0.33724209817E+02 -0.24070599720E+01 -0.27212258736E+02  0.43400729153E+02  0.00000000000E+00 0.  1.
         11    1    3    3    0    0  0.99812122815E+01  0.76885158761E+00 -0.15582031007E+01  0.10131324126E+02  0.51100000000E-03 0.  1.
        -11    1    3    3    0    0  0.60817459818E+01  0.24321377846E+01  0.65847534673E+01  0.92877288331E+01  0.51100000000E-03 0. -1.
        -12    1    3    3    0    0  0.17661251554E+02 -0.79392940022E+00  0.22185708369E+02  0.28368217889E+02  0.00000000000E+00 0.  1.
</event>
<event>
 7    1  0.3910751E-009  0.4778729E+02  0.7816164E-02  0.1312668E+00
        -11   -1    0    0    0    0  0.00000000000E+00  0.00000000000E+00  0.45593999997E+02  0.45594000000E+02  0.51100000000E-03 0. -1.
         11   -1    0    0    0    0 -0.00000000000E+00 -0.00000000000E+00 -0.45593999997E+02  0.45594000000E+02  0.51100000000E-03 0.  1.
    9900012    2    1    2    0    0  0.30436630634E+02 -0.30063582763E+02  0.73084832034E+01  0.47787292407E+02  0.20000097399E+02 0.  0.
        -12    1    1    2    0    0 -0.30436630634E+02  0.30063582763E+02 -0.73084832034E+01  0.43400707593E+02  0.00000000000E+00 0.  1.
         11    1    3    3    0    0  0.11563906972E+02 -0.14685884705E+02 -0.25740913155E+01  0.18868627411E+02  0.51100000000E-03 0. -1.
        -11    1    3    3    0    0 -0.25667897944E+00 -0.36440214838E+01 -0.12588052614E+01  0.38638539853E+01  0.51100000000E-03 0.  1.
         12    1    3    3    0    0  0.19129402641E+02 -0.11733676574E+02  0.11141379780E+02  0.25054811010E+02  0.00000000000E+00 0. -1.
</event>
<event>
 7    1  0.3910751E-009  0.4778727E+02  0.7816164E-02  0.1312668E+00
        -11   -1    0    0    0    0  0.00000000000E+00  0.00000000000E+00  0.45593999997E+02  0.45594000000E+02  0.51100000000E-03 0. -1.
         11   -1    0    0    0    0 -0.00000000000E+00 -0.00000000000E+00 -0.45593999997E+02  0.45594000000E+02  0.51100000000E-03 0.  1.
    9900012    2    1    2    0    0 -0.35672784020E+02 -0.19807233122E+02  0.14790177907E+02  0.47787269981E+02  0.19999995151E+02 0.  0.
        -12    1    1    2    0    0  0.35672784020E+02  0.19807233122E+02 -0.14790177907E+02  0.43400730019E+02  0.00000000000E+00 0.  1.
         11    1    3    3    0    0 -0.28034865421E+01 -0.40015973257E+00 -0.20688066214E+01  0.35070822205E+01  0.51100000000E-03 0. -1.
        -11    1    3    3    0    0 -0.17273933911E+02 -0.17069498601E+02  0.56519314922E+01  0.24933930799E+02  0.51100000000E-03 0.  1.
         12    1    3    3    0    0 -0.15595363567E+02 -0.23375747892E+01  0.11207053036E+02  0.19346256961E+02  0.00000000000E+00 0. -1.
</event>
<event>
 7    1  0.3910751E-009  0.4778726E+02  0.7816164E-02  0.1312668E+00
        -11   -1    0    0    0    0  0.00000000000E+00  0.00000000000E+00  0.45593999997E+02  0.45594000000E+02  0.51100000000E-03 0.  1.
         11   -1    0    0    0    0 -0.00000000000E+00 -0.00000000000E+00 -0.45593999997E+02  0.45594000000E+02  0.51100000000E-03 0. -1.
    9900012    2    1    2    0    0  0.24010783026E+02  0.12091362727E+02 -0.34072061564E+02  0.47787261143E+02  0.19999954855E+02 0.  0.
        -12    1    1    2    0    0 -0.24010783026E+02 -0.12091362727E+02  0.34072061564E+02  0.43400738857E+02  0.00000000000E+00 0.  1.
         11    1    3    3    0    0  0.86975720175E+01 -0.18448894545E+01 -0.10364581484E+02  0.13655618833E+02  0.51100000000E-03 0. -1.
        -11    1    3    3    0    0  0.41591412219E+01  0.24642233395E+00  0.46918986842E+00  0.41927698558E+01  0.51100000000E-03 0.  1.
         12    1    3    3    0    0  0.11154069787E+02  0.13689829848E+02 -0.24176669948E+02  0.29938872455E+02  0.00000000000E+00 0. -1.
</event>
<event>
 7    1  0.3910751E-009  0.4778727E+02  0.7816164E-02  0.1312668E+00
        -11   -1    0    0    0    0  0.00000000000E+00  0.00000000000E+00  0.45593999997E+02  0.45594000000E+02  0.51100000000E-03 0.  1.
         11   -1    0    0    0    0 -0.00000000000E+00 -0.00000000000E+00 -0.45593999997E+02  0.45594000000E+02  0.51100000000E-03 0. -1.
    9900012    2    1    2    0    0  0.22695104328E+02 -0.32709573422E+02 -0.17281192621E+02  0.47787267606E+02  0.19999984325E+02 0.  0.
        -12    1    1    2    0    0 -0.22695104328E+02  0.32709573422E+02  0.17281192621E+02  0.43400732394E+02  0.00000000000E+00 0.  1.
         11    1    3    3    0    0  0.10647252231E+02 -0.27230109751E+02 -0.88940655748E+01  0.30560550712E+02  0.51100000000E-03 0. -1.
        -11    1    3    3    0    0  0.69468077486E+00 -0.38081715920E+00  0.12543002292E+01  0.14835337589E+01  0.51100000000E-03 0.  1.
         12    1    3    3    0    0  0.11353171322E+02 -0.50986465113E+01 -0.96414272752E+01  0.15743183135E+02  0.00000000000E+00 0. -1.
</event>
<event>
 7    1  0.3910751E-009  0.4778725E+02  0.7816164E-02  0.1312668E+00
        -11   -1    0    0    0    0  0.00000000000E+00  0.00000000000E+00  0.45593999997E+02  0.45594000000E+02  0.51100000000E-03 0.  1.
         11   -1    0    0    0    0 -0.00000000000E+00 -0.00000000000E+00 -0.45593999997E+02  0.45594000000E+02  0.51100000000E-03 0. -1.
    9900012    2    1    2    0    0  0.65790663022E+01  0.18740415835E+02 -0.38589346323E+02  0.47787251750E+02  0.19999912027E+02 0.  0.
        -12    1    1    2    0    0 -0.65790663022E+01 -0.18740415835E+02  0.38589346323E+02  0.43400748250E+02  0.00000000000E+00 0.  1.
         11    1    3    3    0    0 -0.58961521772E+00  0.64924975390E+01 -0.94612914971E+01  0.11489830610E+02  0.51100000000E-03 0. -1.
        -11    1    3    3    0    0  0.10793734222E+02  0.82694555397E+01 -0.11316585871E+02  0.17690497715E+02  0.51100000000E-03 0.  1.
        -12    1    3    3    0    0 -0.36250527018E+01  0.39784627559E+01 -0.17811468955E+02  0.18606923424E+02  0.00000000000E+00 0.  1.
</event>
<event>
 7    1  0.3910751E-009  0.4778727E+02  0.7816164E-02  0.1312668E+00
        -11   -1    0    0    0    0  0.00000000000E+00  0.00000000000E+00  0.45593999997E+02  0.45594000000E+02  0.51100000000E-03 0.  1.
         11   -1    0    0    0    0 -0.00000000000E+00 -0.00000000000E+00 -0.45593999997E+02  0.45594000000E+02  0.51100000000E-03 0. -1.
    9900012    2    1    2    0    0 -0.28347680217E+02  0.31039274305E+02 -0.10797961871E+02  0.47787268397E+02  0.19999987929E+02 0.  0.
        -12    1    1    2    0    0  0.28347680217E+02 -0.31039274305E+02  0.10797961871E+02  0.43400731603E+02  0.00000000000E+00 0.  1.
         11    1    3    3    0    0 -0.80708274527E+01  0.38883664145E+01  0.72973480710E-01  0.89589605722E+01  0.51100000000E-03 0. -1.
        -11    1    3    3    0    0 -0.17372971276E+01  0.77247773773E+00 -0.59084122817E+01  0.62067913704E+01  0.51100000000E-03 0.  1.
         12    1    3    3    0    0 -0.18539555637E+02  0.26378430153E+02 -0.49625230704E+01  0.32621516454E+02  0.00000000000E+00 0. -1.
</event>
<event>
 7    1  0.3910751E-009  0.4778727E+02  0.7816164E-02  0.1312668E+00
        -11   -1    0    0    0    0  0.00000000000E+00  0.00000000000E+00  0.45593999997E+02  0.45594000000E+02  0.51100000000E-03 0.  1.
         11   -1    0    0    0    0 -0.00000000000E+00 -0.00000000000E+00 -0.45593999997E+02  0.45594000000E+02  0.51100000000E-03 0. -1.
    9900012    2    1    2    0    0  0.17969274402E+02 -0.93066064894E+01 -0.38394214537E+02  0.47787268937E+02  0.19999990389E+02 0.  0.
        -12    1    1    2    0    0 -0.17969274402E+02  0.93066064894E+01  0.38394214537E+02  0.43400731063E+02  0.00000000000E+00 0.  1.
         11    1    3    3    0    0  0.86181929694E+00 -0.15133626086E+01 -0.10237069781E+01  0.20201423524E+01  0.51100000000E-03 0.  1.
        -11    1    3    3    0    0  0.12781966799E+02 -0.21355229770E+00 -0.78911860424E+01  0.15023152042E+02  0.51100000000E-03 0. -1.
         12    1    3    3    0    0  0.43254883060E+01 -0.75796915831E+01 -0.29479321517E+02  0.30743974543E+02  0.00000000000E+00 0. -1.
</event>
<event>
 7    1  0.3910751E-009  0.4778726E+02  0.7816164E-02  0.1312668E+00
        -11   -1    0    0    0    0  0.00000000000E+00  0.00000000000E+00  0.45593999997E+02  0.45594000000E+02  0.51100000000E-03 0.  1.
         11   -1    0    0    0    0 -0.00000000000E+00 -0.00000000000E+00 -0.45593999997E+02  0.45594000000E+02  0.51100000000E-03 0. -1.
    9900012    2    1    2    0    0 -0.12908865850E+02 -0.13572954307E+02 -0.39150480342E+02  0.47787262482E+02  0.19999960959E+02 0.  0.
        -12    1    1    2    0    0  0.12908865850E+02  0.13572954307E+02  0.39150480342E+02  0.43400737518E+02  0.00000000000E+00 0.  1.
         11    1    3    3    0    0 -0.41527351952E+01 -0.35767212796E+01 -0.18377871041E+02  0.19177702911E+02  0.51100000000E-03 0. -1.
        -11    1    3    3    0    0 -0.12649393901E+02 -0.91122128381E+01 -0.17587368275E+02  0.23502236318E+02  0.51100000000E-03 0.  1.
        -12    1    3    3    0    0  0.38932632467E+01 -0.88402018961E+00 -0.31852410265E+01  0.51073232520E+01  0.00000000000E+00 0.  1.
</event>
<event>
 7    1  0.3910751E-009  0.4778722E+02  0.7816164E-02  0.1312668E+00
        -11   -1    0    0    0    0  0.00000000000E+00  0.00000000000E+00  0.45593999997E+02  0.45594000000E+02  0.51100000000E-03 0.  1.
         11   -1    0    0    0    0 -0.00000000000E+00 -0.00000000000E+00 -0.45593999997E+02  0.45594000000E+02  0.51100000000E-03 0. -1.
    9900012    2    1    2    0    0 -0.27225350466E+02  0.33788076169E+02  0.87965439709E+00  0.47787221309E+02  0.19999773233E+02 0.  0.
        -12    1    1    2    0    0  0.27225350466E+02 -0.33788076169E+02 -0.87965439709E+00  0.43400778691E+02  0.00000000000E+00 0.  1.
         11    1    3    3    0    0 -0.22190744152E+02  0.19740888914E+02  0.53454934729E+01  0.30177907844E+02  0.51100000000E-03 0.  1.
        -11    1    3    3    0    0 -0.63721839711E+01  0.69116014640E+01 -0.43252592472E+01  0.10348083454E+02  0.51100000000E-03 0. -1.
         12    1    3    3    0    0  0.13375776576E+01  0.71355857908E+01 -0.14057982867E+00  0.72612300099E+01  0.00000000000E+00 0. -1.
</event>
<event>
 7    1  0.3910751E-009  0.4778728E+02  0.7816164E-02  0.1312668E+00
        -11   -1    0    0    0    0  0.00000000000E+00  0.00000000000E+00  0.45593999997E+02  0.45594000000E+02  0.51100000000E-03 0.  1.
         11   -1    0    0    0    0 -0.00000000000E+00 -0.00000000000E+00 -0.45593999997E+02  0.45594000000E+02  0.51100000000E-03 0. -1.
    9900012    2    1    2    0    0  0.22361549979E+02 -0.51140429128E+01 -0.36843324097E+02  0.47787275549E+02  0.20000020537E+02 0.  0.
        -12    1    1    2    0    0 -0.22361549979E+02  0.51140429128E+01  0.36843324097E+02  0.43400724451E+02  0.00000000000E+00 0.  1.
         11    1    3    3    0    0  0.84292960393E+01  0.39102886392E+01 -0.13525038287E+02  0.16409450018E+02  0.51100000000E-03 0. -1.
        -11    1    3    3    0    0  0.34934408667E+01  0.30771692576E+01 -0.79084555114E+01  0.91769694653E+01  0.51100000000E-03 0.  1.
         12    1    3    3    0    0  0.10438813073E+02 -0.12101500810E+02 -0.15409830298E+02  0.22200856066E+02  0.00000000000E+00 0. -1.
</event>
<event>
 7    1  0.3910751E-009  0.4778727E+02  0.7816164E-02  0.1312668E+00
        -11   -1    0    0    0    0  0.00000000000E+00  0.00000000000E+00  0.45593999997E+02  0.45594000000E+02  0.51100000000E-03 0. -1.
         11   -1    0    0    0    0 -0.00000000000E+00 -0.00000000000E+00 -0.45593999997E+02  0.45594000000E+02  0.51100000000E-03 0.  1.
    9900012    2    1    2    0    0  0.17516550636E+02 -0.39702480993E+02  0.71185757545E+00  0.47787270923E+02  0.19999999447E+02 0.  0.
        -12    1    1    2    0    0 -0.17516550636E+02  0.39702480993E+02 -0.71185757545E+00  0.43400729077E+02  0.00000000000E+00 0.  1.
         11    1    3    3    0    0  0.53581825193E+01 -0.36948312484E+01  0.34614618455E+01  0.73718122761E+01  0.51100000000E-03 0. -1.
        -11    1    3    3    0    0  0.99931606871E+01 -0.24079897099E+02  0.42527574808E+01  0.26415727347E+02  0.51100000000E-03 0.  1.
        -12    1    3    3    0    0  0.21652074297E+01 -0.11927752646E+02 -0.70023617508E+01  0.13999731301E+02  0.00000000000E+00 0.  1.
</event>
<event>
 7    1  0.3910751E-009  0.4778727E+02  0.7816164E-02  0.1312668E+00
        -11   -1    0    0    0    0  0.00000000000E+00  0.00000000000E+00  0.45593999997E+02  0.45594000000E+02  0.51100000000E-03 0.  1.
         11   -1    0    0    0    0 -0.00000000000E+00 -0.00000000000E+00 -0.45593999997E+02  0.45594000000E+02  0.51100000000E-03 0. -1.
    9900012    2    1    2    0    0 -0.15477247164E+02  0.39758148093E+02 -0.79603840687E+01  0.47787271503E+02  0.20000002089E+02 0.  0.
        -12    1    1    2    0    0  0.15477247164E+02 -0.39758148093E+02  0.79603840687E+01  0.43400728497E+02  0.00000000000E+00 0.  1.
         11    1    3    3    0    0 -0.55887040606E+01  0.83932645493E+01 -0.96436153845E+01  0.13952771080E+02  0.51100000000E-03 0. -1.
        -11    1    3    3    0    0 -0.87371678891E+01  0.23656430319E+02 -0.18313517671E+01  0.25284751289E+02  0.51100000000E-03 0.  1.
        -12    1    3    3    0    0 -0.11513752140E+01  0.77084532246E+01  0.35145830829E+01  0.85497491335E+01  0.00000000000E+00 0.  1.
</event>
<event>
 7    1  0.3910751E-009  0.4778727E+02  0.7816164E-02  0.1312668E+00
        -11   -1    0    0    0    0  0.00000000000E+00  0.00000000000E+00  0.45593999997E+02  0.45594000000E+02  0.51100000000E-03 0. -1.
         11   -1    0    0    0    0 -0.00000000000E+00 -0.00000000000E+00 -0.45593999997E+02  0.45594000000E+02  0.51100000000E-03 0.  1.
    9900012    2    1    2    0    0  0.11509238260E+02  0.37697620604E+02  0.18167278120E+02  0.47787272370E+02  0.20000006042E+02 0.  0.
        -12    1    1    2    0    0 -0.11509238260E+02 -0.37697620604E+02 -0.18167278120E+02  0.43400727630E+02  0.00000000000E+00 0.  1.
         11    1    3    3    0    0  0.83992196629E+01  0.20941629861E+02  0.53136291226E+01  0.23180453121E+02  0.51100000000E-03 0. -1.
        -11    1    3    3    0    0  0.25829929231E+01  0.18740709527E+02  0.11831255707E+02  0.22312880986E+02  0.51100000000E-03 0.  1.
        -12    1    3    3    0    0  0.52702567429E+00 -0.19847187839E+01  0.10223932905E+01  0.22939382626E+01  0.00000000000E+00 0.  1.
</event>
<event>
 7    1  0.3910751E-009  0.4778727E+02  0.7816164E-02  0.1312668E+00
        -11   -1    0    0    0    0  0.00000000000E+00  0.00000000000E+00  0.45593999997E+02  0.45594000000E+02  0.51100000000E-03 0.  1.
         11   -1    0    0    0    0 -0.00000000000E+00 -0.00000000000E+00 -0.45593999997E+02  0.45594000000E+02  0.51100000000E-03 0. -1.
    9900012    2    1    2    0    0 -0.13310754681E+02  0.28518147112E+02 -0.29885822834E+02  0.47787270612E+02  0.19999998030E+02 0.  0.
        -12    1    1    2    0    0  0.13310754681E+02 -0.28518147112E+02  0.29885822834E+02  0.43400729388E+02  0.00000000000E+00 0.  1.
         11    1    3    3    0    0 -0.22387704988E+00  0.60513155386E+01 -0.25800156986E+01  0.65821745607E+01  0.51100000000E-03 0. -1.
        -11    1    3    3    0    0  0.72353784258E+00 -0.18890730669E+01  0.10060273094E+00  0.20253950805E+01  0.51100000000E-03 0.  1.
         12    1    3    3    0    0 -0.13810415474E+02  0.24355904640E+02 -0.27406409866E+02  0.39179700971E+02  0.00000000000E+00 0. -1.
</event>
<event>
 7    1  0.3910751E-009  0.4778727E+02  0.7816164E-02  0.1312668E+00
        -11   -1    0    0    0    0  0.00000000000E+00  0.00000000000E+00  0.45593999997E+02  0.45594000000E+02  0.51100000000E-03 0.  1.
         11   -1    0    0    0    0 -0.00000000000E+00 -0.00000000000E+00 -0.45593999997E+02  0.45594000000E+02  0.51100000000E-03 0. -1.
    9900012    2    1    2    0    0 -0.42915451091E+02  0.47296742053E+01 -0.44178603061E+01  0.47787271318E+02  0.20000001248E+02 0.  0.
        -12    1    1    2    0    0  0.42915451091E+02 -0.47296742053E+01  0.44178603061E+01  0.43400728682E+02  0.00000000000E+00 0.  1.
         11    1    3    3    0    0 -0.20924569238E+02 -0.90560238124E-02 -0.12311517098E+01  0.20960758923E+02  0.51100000000E-03 0. -1.
        -11    1    3    3    0    0 -0.23678494003E+02  0.59022909895E+01 -0.37764356838E+01  0.24693512993E+02  0.51100000000E-03 0.  1.
        -12    1    3    3    0    0  0.16876121507E+01 -0.11635607604E+01  0.58972708752E+00  0.21329994028E+01  0.00000000000E+00 0.  1.
</event>
<event>
 7    1  0.3910751E-009  0.4778727E+02  0.7816164E-02  0.1312668E+00
        -11   -1    0    0    0    0  0.00000000000E+00  0.00000000000E+00  0.45593999997E+02  0.45594000000E+02  0.51100000000E-03 0.  1.
         11   -1    0    0    0    0 -0.00000000000E+00 -0.00000000000E+00 -0.45593999997E+02  0.45594000000E+02  0.51100000000E-03 0. -1.
    9900012    2    1    2    0    0  0.35823755052E+02 -0.10652163727E+02 -0.22063842988E+02  0.47787272062E+02  0.20000004640E+02 0.  0.
        -12    1    1    2    0    0 -0.35823755052E+02  0.10652163727E+02  0.22063842988E+02  0.43400727938E+02  0.00000000000E+00 0.  1.
         11    1    3    3    0    0  0.22593072381E+02 -0.63256242037E+01 -0.16378230187E+02  0.28613054110E+02  0.51100000000E-03 0. -1.
        -11    1    3    3    0    0  0.57825902243E+01  0.22420660410E+01 -0.67735396069E+01  0.91840105021E+01  0.51100000000E-03 0.  1.
         12    1    3    3    0    0  0.74480924464E+01 -0.65686055646E+01  0.10879268057E+01  0.99902074497E+01  0.00000000000E+00 0. -1.
</event>
<event>
 7    1  0.3910751E-009  0.4778727E+02  0.7816164E-02  0.1312668E+00
        -11   -1    0    0    0    0  0.00000000000E+00  0.00000000000E+00  0.45593999997E+02  0.45594000000E+02  0.51100000000E-03 0. -1.
         11   -1    0    0    0    0 -0.00000000000E+00 -0.00000000000E+00 -0.45593999997E+02  0.45594000000E+02  0.51100000000E-03 0.  1.
    9900012    2    1    2    0    0  0.14877675369E+02  0.25643375323E+00  0.40770235199E+02  0.47787273499E+02  0.20000011189E+02 0.  0.
        -12    1    1    2    0    0 -0.14877675369E+02 -0.25643375323E+00 -0.40770235199E+02  0.43400726501E+02  0.00000000000E+00 0.  1.
         11    1    3    3    0    0  0.27843451292E+01  0.51751876206E+01  0.81953277872E+01  0.10084569525E+02  0.51100000000E-03 0. -1.
        -11    1    3    3    0    0 -0.19373635695E+01 -0.39282021385E+01  0.12044595354E+02  0.12816256362E+02  0.51100000000E-03 0.  1.
         12    1    3    3    0    0  0.14030693809E+02 -0.99055172889E+00  0.20530312058E+02  0.24886447611E+02  0.00000000000E+00 0. -1.
</event>
<event>
 7    1  0.3910751E-009  0.4778727E+02  0.7816164E-02  0.1312668E+00
        -11   -1    0    0    0    0  0.00000000000E+00  0.00000000000E+00  0.45593999997E+02  0.45594000000E+02  0.51100000000E-03 0. -1.
         11   -1    0    0    0    0 -0.00000000000E+00 -0.00000000000E+00 -0.45593999997E+02  0.45594000000E+02  0.51100000000E-03 0.  1.
    9900012    2    1    2    0    0 -0.10001726036E+02 -0.17392195586E+01  0.42196724748E+02  0.47787274340E+02  0.20000015026E+02 0.  0.
        -12    1    1    2    0    0  0.10001726036E+02  0.17392195586E+01 -0.42196724748E+02  0.43400725660E+02  0.00000000000E+00 0.  1.
         11    1    3    3    0    0 -0.24613147608E+01  0.24798670570E+01  0.19464148585E+02  0.19775259578E+02  0.51100000000E-03 0. -1.
        -11    1    3    3    0    0 -0.80604316812E+01  0.33108363703E+01  0.13757973004E+02  0.16285392774E+02  0.51100000000E-03 0.  1.
        -12    1    3    3    0    0  0.52002040638E+00 -0.75299229859E+01  0.89746031593E+01  0.11726621989E+02  0.00000000000E+00 0.  1.
</event>
<event>
 7    1  0.3910751E-009  0.4778725E+02  0.7816164E-02  0.1312668E+00
        -11   -1    0    0    0    0  0.00000000000E+00  0.00000000000E+00  0.45593999997E+02  0.45594000000E+02  0.51100000000E-03 0.  1.
         11   -1    0    0    0    0 -0.00000000000E+00 -0.00000000000E+00 -0.45593999997E+02  0.45594000000E+02  0.51100000000E-03 0. -1.
    9900012    2    1    2    0    0  0.30652800872E+02 -0.14171681446E+02 -0.27261583744E+02  0.47787254562E+02  0.19999924851E+02 0.  0.
        -12    1    1    2    0    0 -0.30652800872E+02  0.14171681446E+02  0.27261583744E+02  0.43400745438E+02  0.00000000000E+00 0.  1.
         11    1    3    3    0    0  0.59955141591E+01  0.11097646518E+01  0.18811323089E+01  0.63809424569E+01  0.51100000000E-03 0. -1.
        -11    1    3    3    0    0  0.21559570215E+00 -0.11318633635E+01 -0.14569626678E+01  0.18575081849E+01  0.51100000000E-03 0.  1.
         12    1    3    3    0    0  0.24441691011E+02 -0.14149582734E+02 -0.27685753386E+02  0.39548803920E+02  0.00000000000E+00 0. -1.
</event>
<event>
 7    1  0.3910751E-009  0.4778728E+02  0.7816164E-02  0.1312668E+00
        -11   -1    0    0    0    0  0.00000000000E+00  0.00000000000E+00  0.45593999997E+02  0.45594000000E+02  0.51100000000E-03 0.  1.
         11   -1    0    0    0    0 -0.00000000000E+00 -0.00000000000E+00 -0.45593999997E+02  0.45594000000E+02  0.51100000000E-03 0. -1.
    9900012    2    1    2    0    0  0.23215232933E+02 -0.32193489044E+02 -0.17557183037E+02  0.47787280499E+02  0.20000043109E+02 0.  0.
        -12    1    1    2    0    0 -0.23215232933E+02  0.32193489044E+02  0.17557183037E+02  0.43400719501E+02  0.00000000000E+00 0.  1.
         11    1    3    3    0    0  0.31914334461E+01 -0.43221779781E+00  0.85557644027E+00  0.33322771451E+01  0.51100000000E-03 0. -1.
        -11    1    3    3    0    0  0.26033236120E+01  0.12890686675E+01 -0.25540713502E+01  0.38681096910E+01  0.51100000000E-03 0.  1.
         12    1    3    3    0    0  0.17420475875E+02 -0.33050339914E+02 -0.15858688127E+02  0.40586893663E+02  0.00000000000E+00 0. -1.
</event>
<event>
 7    1  0.3910751E-009  0.4778727E+02  0.7816164E-02  0.1312668E+00
        -11   -1    0    0    0    0  0.00000000000E+00  0.00000000000E+00  0.45593999997E+02  0.45594000000E+02  0.51100000000E-03 0.  1.
         11   -1    0    0    0    0 -0.00000000000E+00 -0.00000000000E+00 -0.45593999997E+02  0.45594000000E+02  0.51100000000E-03 0. -1.
    9900012    2    1    2    0    0 -0.28012056884E+02  0.19260488849E+02 -0.26981132872E+02  0.47787270828E+02  0.19999999013E+02 0.  0.
        -12    1    1    2    0    0  0.28012056884E+02 -0.19260488849E+02  0.26981132872E+02  0.43400729172E+02  0.00000000000E+00 0.  1.
         11    1    3    3    0    0 -0.18552677393E+02  0.80272914598E+01 -0.13945398393E+02  0.24558366868E+02  0.51100000000E-03 0. -1.
        -11    1    3    3    0    0 -0.28689531646E+01 -0.22478287704E+01 -0.50558566515E+00  0.36795711119E+01  0.51100000000E-03 0.  1.
         12    1    3    3    0    0 -0.65904263265E+01  0.13481026160E+02 -0.12530148815E+02  0.19549332848E+02  0.00000000000E+00 0. -1.
</event>
<event>
 7    1  0.3910751E-009  0.4778725E+02  0.7816164E-02  0.1312668E+00
        -11   -1    0    0    0    0  0.00000000000E+00  0.00000000000E+00  0.45593999997E+02  0.45594000000E+02  0.51100000000E-03 0.  1.
         11   -1    0    0    0    0 -0.00000000000E+00 -0.00000000000E+00 -0.45593999997E+02  0.45594000000E+02  0.51100000000E-03 0. -1.
    9900012    2    1    2    0    0 -0.56061001718E+01  0.37830464624E+02 -0.20519576011E+02  0.47787246406E+02  0.19999887665E+02 0.  0.
        -12    1    1    2    0    0  0.56061001718E+01 -0.37830464624E+02  0.20519576011E+02  0.43400753594E+02  0.00000000000E+00 0.  1.
         11    1    3    3    0    0  0.39183648942E+01  0.35002441742E+01 -0.20685731583E+01  0.56466173853E+01  0.51100000000E-03 0. -1.
        -11    1    3    3    0    0 -0.37698165071E+01  0.32877163570E+01 -0.69003000038E+01  0.85226014659E+01  0.51100000000E-03 0.  1.
        -12    1    3    3    0    0 -0.57546485589E+01  0.31042504093E+02 -0.11550702849E+02  0.33618027555E+02  0.00000000000E+00 0.  1.
</event>
<event>
 7    1  0.3910751E-009  0.4778726E+02  0.7816164E-02  0.1312668E+00
        -11   -1    0    0    0    0  0.00000000000E+00  0.00000000000E+00  0.45593999997E+02  0.45594000000E+02  0.51100000000E-03 0.  1.
         11   -1    0    0    0    0 -0.00000000000E+00 -0.00000000000E+00 -0.45593999997E+02  0.45594000000E+02  0.51100000000E-03 0. -1.
    9900012    2    1    2    0    0  0.19082397577E+02  0.23176745330E+02 -0.31342054534E+02  0.47787264940E+02  0.19999972166E+02 0.  0.
        -12    1    1    2    0    0 -0.19082397577E+02 -0.23176745330E+02  0.31342054534E+02  0.43400735060E+02  0.00000000000E+00 0.  1.
         11    1    3    3    0    0  0.92957200403E+01  0.18146897436E+02 -0.21830748002E+02  0.29871422065E+02  0.51100000000E-03 0. -1.
        -11    1    3    3    0    0 -0.11248976752E+00  0.51998297563E+01 -0.41699609261E+01  0.66662926600E+01  0.51100000000E-03 0.  1.
         12    1    3    3    0    0  0.98991673043E+01 -0.16998186215E+00 -0.53413456056E+01  0.11249550215E+02  0.00000000000E+00 0. -1.
</event>
<event>
 7    1  0.3910751E-009  0.4778728E+02  0.7816164E-02  0.1312668E+00
        -11   -1    0    0    0    0  0.00000000000E+00  0.00000000000E+00  0.45593999997E+02  0.45594000000E+02  0.51100000000E-03 0.  1.
         11   -1    0    0    0    0 -0.00000000000E+00 -0.00000000000E+00 -0.45593999997E+02  0.45594000000E+02  0.51100000000E-03 0. -1.
    9900012    2    1    2    0    0  0.10138368639E+02  0.21437402173E+02 -0.36349333959E+02  0.47787276390E+02  0.20000024373E+02 0.  0.
        -12    1    1    2    0    0 -0.10138368639E+02 -0.21437402173E+02  0.36349333959E+02  0.43400723610E+02  0.00000000000E+00 0.  1.
         11    1    3    3    0    0  0.72681030922E+01  0.76995698893E+01 -0.13998445432E+02  0.17551785488E+02  0.51100000000E-03 0. -1.
        -11    1    3    3    0    0 -0.41408046374E+00  0.13129613590E+02 -0.23313270521E+02  0.26759424476E+02  0.51100000000E-03 0.  1.
        -12    1    3    3    0    0  0.32843460109E+01  0.60821869349E+00  0.96238199339E+00  0.34760664263E+01  0.00000000000E+00 0.  1.
</event>
<event>
 7    1  0.3910751E-009  0.4778727E+02  0.7816164E-02  0.1312668E+00
        -11   -1    0    0    0    0  0.00000000000E+00  0.00000000000E+00  0.45593999997E+02  0.45594000000E+02  0.51100000000E-03 0.  1.
         11   -1    0    0    0    0 -0.00000000000E+00 -0.00000000000E+00 -0.45593999997E+02  0.45594000000E+02  0.51100000000E-03 0. -1.
    9900012    2    1    2    0    0 -0.17021037802E+02  0.26067770875E+02 -0.30238697922E+02  0.47787271224E+02  0.20000000820E+02 0.  0.
        -12    1    1    2    0    0  0.17021037802E+02 -0.26067770875E+02  0.30238697922E+02  0.43400728776E+02  0.00000000000E+00 0.  1.
         11    1    3    3    0    0 -0.46049681465E+01  0.10177724903E+02 -0.19368159573E+02  0.22358833184E+02  0.51100000000E-03 0. -1.
        -11    1    3    3    0    0 -0.16107213863E+01  0.84733150387E+01 -0.85006848326E+01  0.12110042692E+02  0.51100000000E-03 0.  1.
        -12    1    3    3    0    0 -0.10805348269E+02  0.74167309338E+01 -0.23698535160E+01  0.13318395348E+02  0.00000000000E+00 0.  1.
</event>
<event>
 7    1  0.3910751E-009  0.4778727E+02  0.7816164E-02  0.1312668E+00
        -11   -1    0    0    0    0  0.00000000000E+00  0.00000000000E+00  0.45593999997E+02  0.45594000000E+02  0.51100000000E-03 0.  1.
         11   -1    0    0    0    0 -0.00000000000E+00 -0.00000000000E+00 -0.45593999997E+02  0.45594000000E+02  0.51100000000E-03 0. -1.
    9900012    2    1    2    0    0  0.13790084454E+02  0.36789337851E+02 -0.18439127690E+02  0.47787271450E+02  0.20000001848E+02 0.  0.
        -12    1    1    2    0    0 -0.13790084454E+02 -0.36789337851E+02  0.18439127690E+02  0.43400728550E+02  0.00000000000E+00 0.  1.
         11    1    3    3    0    0  0.28054958661E+01  0.12275282779E+02 -0.26577787391E+01  0.12869233173E+02  0.51100000000E-03 0. -1.
        -11    1    3    3    0    0  0.32888917972E+01  0.10925164297E+02  0.16344062473E+01  0.11525940665E+02  0.51100000000E-03 0.  1.
         12    1    3    3    0    0  0.76956967903E+01  0.13588890774E+02 -0.17415755198E+02  0.23392097612E+02  0.00000000000E+00 0. -1.
</event>
<event>
 7    1  0.3910751E-009  0.4778727E+02  0.7816164E-02  0.1312668E+00
        -11   -1    0    0    0    0  0.00000000000E+00  0.00000000000E+00  0.45593999997E+02  0.45594000000E+02  0.51100000000E-03 0. -1.
         11   -1    0    0    0    0 -0.00000000000E+00 -0.00000000000E+00 -0.45593999997E+02  0.45594000000E+02  0.51100000000E-03 0.  1.
    9900012    2    1    2    0    0  0.13529792791E+02  0.31577742961E+02  0.26521957290E+02  0.47787270029E+02  0.19999995372E+02 0.  0.
        -12    1    1    2    0    0 -0.13529792791E+02 -0.31577742961E+02 -0.26521957290E+02  0.43400729971E+02  0.00000000000E+00 0.  1.
         11    1    3    3    0    0  0.18390683652E+01  0.80143442245E+01  0.10630047825E+02  0.13439114659E+02  0.51100000000E-03 0. -1.
        -11    1    3    3    0    0  0.22162524015E+00 -0.22148595440E+01  0.13986158979E+01  0.26288490329E+01  0.51100000000E-03 0.  1.
         12    1    3    3    0    0  0.11469099186E+02  0.25778258280E+02  0.14493293568E+02  0.31719306338E+02  0.00000000000E+00 0. -1.
</event>
<event>
 7    1  0.3910751E-009  0.4778726E+02  0.7816164E-02  0.1312668E+00
        -11   -1    0    0    0    0  0.00000000000E+00  0.00000000000E+00  0.45593999997E+02  0.45594000000E+02  0.51100000000E-03 0.  1.
         11   -1    0    0    0    0 -0.00000000000E+00 -0.00000000000E+00 -0.45593999997E+02  0.45594000000E+02  0.51100000000E-03 0. -1.
    9900012    2    1    2    0    0 -0.31183421307E+02 -0.19057393092E+02 -0.23410126816E+02  0.47787262294E+02  0.19999960103E+02 0.  0.
        -12    1    1    2    0    0  0.31183421307E+02  0.19057393092E+02  0.23410126816E+02  0.43400737706E+02  0.00000000000E+00 0.  1.
         11    1    3    3    0    0 -0.13291596084E+01  0.52909973107E+00  0.15651411634E+01  0.21204430934E+01  0.51100000000E-03 0. -1.
        -11    1    3    3    0    0 -0.14496938144E+01 -0.70261244018E+01 -0.46205018649E+01  0.85332920968E+01  0.51100000000E-03 0.  1.
         12    1    3    3    0    0 -0.28404567885E+02 -0.12560368421E+02 -0.20354766114E+02  0.37133527104E+02  0.00000000000E+00 0. -1.
</event>
<event>
 7    1  0.3910751E-009  0.4778725E+02  0.7816164E-02  0.1312668E+00
        -11   -1    0    0    0    0  0.00000000000E+00  0.00000000000E+00  0.45593999997E+02  0.45594000000E+02  0.51100000000E-03 0. -1.
         11   -1    0    0    0    0 -0.00000000000E+00 -0.00000000000E+00 -0.45593999997E+02  0.45594000000E+02  0.51100000000E-03 0.  1.
    9900012    2    1    2    0    0 -0.29937289658E+02  0.13753252602E+01  0.31392552787E+02  0.47787248830E+02  0.19999898714E+02 0.  0.
        -12    1    1    2    0    0  0.29937289658E+02 -0.13753252602E+01 -0.31392552787E+02  0.43400751170E+02  0.00000000000E+00 0.  1.
         11    1    3    3    0    0 -0.38855995494E+01  0.38335136123E+00  0.13348518030E+02  0.13907831462E+02  0.51100000000E-03 0. -1.
        -11    1    3    3    0    0 -0.99441481491E+01 -0.46995799343E+01  0.10494177307E+02  0.15201969990E+02  0.51100000000E-03 0.  1.
        -12    1    3    3    0    0 -0.16107541959E+02  0.56915538332E+01  0.75498574504E+01  0.18677447377E+02  0.00000000000E+00 0.  1.
</event>
<event>
 7    1  0.4134657E-009  0.4778727E+02  0.7816164E-02  0.1312668E+00
        -11   -1    0    0    0    0  0.00000000000E+00  0.00000000000E+00  0.45593999997E+02  0.45594000000E+02  0.51100000000E-03 0. -1.
         11   -1    0    0    0    0 -0.00000000000E+00 -0.00000000000E+00 -0.45593999997E+02  0.45594000000E+02  0.51100000000E-03 0.  1.
    9900012    2    1    2    0    0 -0.20181819797E+02  0.23423404896E+02  0.30457536206E+02  0.47787271216E+02  0.20000000783E+02 0.  0.
        -12    1    1    2    0    0  0.20181819797E+02 -0.23423404896E+02 -0.30457536206E+02  0.43400728784E+02  0.00000000000E+00 0.  1.
         11    1    3    3    0    0 -0.19106030751E+02  0.18237363207E+02  0.19009081897E+02  0.32542080797E+02  0.51100000000E-03 0. -1.
        -11    1    3    3    0    0 -0.22599470688E+00  0.56834141069E+01  0.24501643985E+01  0.61931878188E+01  0.51100000000E-03 0.  1.
        -12    1    3    3    0    0 -0.84979433845E+00 -0.49737241855E+00  0.89982899114E+01  0.90520025999E+01  0.00000000000E+00 0.  1.
</event>
<event>
 7    1  0.3910751E-009  0.4778727E+02  0.7816164E-02  0.1312668E+00
        -11   -1    0    0    0    0  0.00000000000E+00  0.00000000000E+00  0.45593999997E+02  0.45594000000E+02  0.51100000000E-03 0. -1.
         11   -1    0    0    0    0 -0.00000000000E+00 -0.00000000000E+00 -0.45593999997E+02  0.45594000000E+02  0.51100000000E-03 0.  1.
    9900012    2    1    2    0    0 -0.12893746384E+02  0.33115691016E+02  0.24914370660E+02  0.47787267833E+02  0.19999985357E+02 0.  0.
        -12    1    1    2    0    0  0.12893746384E+02 -0.33115691016E+02 -0.24914370660E+02  0.43400732167E+02  0.00000000000E+00 0.  1.
         11    1    3    3    0    0 -0.65220798611E+01  0.17744683333E+02  0.54440388146E+01  0.19673557665E+02  0.51100000000E-03 0. -1.
        -11    1    3    3    0    0 -0.36736498769E+01 -0.21813494321E-01  0.78843761307E+00  0.37573678789E+01  0.51100000000E-03 0.  1.
         12    1    3    3    0    0 -0.26980166465E+01  0.15392821177E+02  0.18681894232E+02  0.24356342289E+02  0.00000000000E+00 0. -1.
</event>
<event>
 7    1  0.3910751E-009  0.4778726E+02  0.7816164E-02  0.1312668E+00
        -11   -1    0    0    0    0  0.00000000000E+00  0.00000000000E+00  0.45593999997E+02  0.45594000000E+02  0.51100000000E-03 0. -1.
         11   -1    0    0    0    0 -0.00000000000E+00 -0.00000000000E+00 -0.45593999997E+02  0.45594000000E+02  0.51100000000E-03 0.  1.
    9900012    2    1    2    0    0 -0.12499042429E+02  0.41561982598E+02  0.62563417143E-02  0.47787256939E+02  0.19999935686E+02 0.  0.
        -12    1    1    2    0    0  0.12499042429E+02 -0.41561982598E+02 -0.62563417143E-02  0.43400743061E+02  0.00000000000E+00 0.  1.
         11    1    3    3    0    0 -0.94581010611E+01  0.19918763600E+02  0.12537597914E+01  0.22085849155E+02  0.51100000000E-03 0. -1.
        -11    1    3    3    0    0  0.15525159668E+01  0.19122127235E+02  0.23747173084E+01  0.19331459810E+02  0.51100000000E-03 0.  1.
        -12    1    3    3    0    0 -0.45934573349E+01  0.25210917631E+01 -0.36222207581E+01  0.63699479735E+01  0.00000000000E+00 0.  1.
</event>
<event>
 7    1  0.3910751E-009  0.4778727E+02  0.7816164E-02  0.1312668E+00
        -11   -1    0    0    0    0  0.00000000000E+00  0.00000000000E+00  0.45593999997E+02  0.45594000000E+02  0.51100000000E-03 0.  1.
         11   -1    0    0    0    0 -0.00000000000E+00 -0.00000000000E+00 -0.45593999997E+02  0.45594000000E+02  0.51100000000E-03 0. -1.
    9900012    2    1    2    0    0 -0.85031390634E+01 -0.19842633602E+01 -0.42513319703E+02  0.47787273887E+02  0.20000012959E+02 0.  0.
        -12    1    1    2    0    0  0.85031390634E+01  0.19842633602E+01  0.42513319703E+02  0.43400726113E+02  0.00000000000E+00 0.  1.
         11    1    3    3    0    0 -0.66704788870E+01 -0.74748100770E+00 -0.37946381025E+01  0.77105962823E+01  0.51100000000E-03 0. -1.
        -11    1    3    3    0    0  0.15072399087E+01 -0.34304200634E+01 -0.57266366491E+01  0.68435313637E+01  0.51100000000E-03 0.  1.
         12    1    3    3    0    0 -0.33399000851E+01  0.21936377109E+01 -0.32992044951E+02  0.33233146241E+02  0.00000000000E+00 0. -1.
</event>
<event>
 7    1  0.3910751E-009  0.4778728E+02  0.7816164E-02  0.1312668E+00
        -11   -1    0    0    0    0  0.00000000000E+00  0.00000000000E+00  0.45593999997E+02  0.45594000000E+02  0.51100000000E-03 0. -1.
         11   -1    0    0    0    0 -0.00000000000E+00 -0.00000000000E+00 -0.45593999997E+02  0.45594000000E+02  0.51100000000E-03 0.  1.
    9900012    2    1    2    0    0 -0.41488738247E+02 -0.95911003508E+01  0.83855798599E+01  0.47787279305E+02  0.20000037663E+02 0.  0.
        -12    1    1    2    0    0  0.41488738247E+02  0.95911003508E+01 -0.83855798599E+01  0.43400720695E+02  0.00000000000E+00 0.  1.
         11    1    3    3    0    0 -0.55953825305E+01  0.11912106819E+01 -0.12704341142E+01  0.58601443370E+01  0.51100000000E-03 0. -1.
        -11    1    3    3    0    0 -0.24986480171E+02 -0.58665728054E+01 -0.13084263614E+01  0.25699277181E+02  0.51100000000E-03 0.  1.
         12    1    3    3    0    0 -0.10906875545E+02 -0.49157382273E+01  0.10964440335E+02  0.16227857787E+02  0.00000000000E+00 0. -1.
</event>
<event>
 7    1  0.3910751E-009  0.4778726E+02  0.7816164E-02  0.1312668E+00
        -11   -1    0    0    0    0  0.00000000000E+00  0.00000000000E+00  0.45593999997E+02  0.45594000000E+02  0.51100000000E-03 0.  1.
         11   -1    0    0    0    0 -0.00000000000E+00 -0.00000000000E+00 -0.45593999997E+02  0.45594000000E+02  0.51100000000E-03 0. -1.
    9900012    2    1    2    0    0  0.44396267696E+01  0.41112542362E+02 -0.13178487945E+02  0.47787263027E+02  0.19999963443E+02 0.  0.
        -12    1    1    2    0    0 -0.44396267696E+01 -0.41112542362E+02  0.13178487945E+02  0.43400736973E+02  0.00000000000E+00 0.  1.
         11    1    3    3    0    0 -0.25193890248E+01  0.57307811505E+00  0.11829528065E+01  0.28416750672E+01  0.51100000000E-03 0. -1.
        -11    1    3    3    0    0  0.58154634240E+00  0.81674339851E+01  0.15201588806E+01  0.83280284181E+01  0.51100000000E-03 0.  1.
         12    1    3    3    0    0  0.63774694520E+01  0.32372030262E+02 -0.15881599632E+02  0.36617559541E+02  0.00000000000E+00 0. -1.
</event>
<event>
 7    1  0.3910751E-009  0.4778727E+02  0.7816164E-02  0.1312668E+00
        -11   -1    0    0    0    0  0.00000000000E+00  0.00000000000E+00  0.45593999997E+02  0.45594000000E+02  0.51100000000E-03 0.  1.
         11   -1    0    0    0    0 -0.00000000000E+00 -0.00000000000E+00 -0.45593999997E+02  0.45594000000E+02  0.51100000000E-03 0. -1.
    9900012    2    1    2    0    0  0.40428491734E+02 -0.88400184993E+00  0.15760049534E+02  0.47787267697E+02  0.19999984737E+02 0.  0.
        -12    1    1    2    0    0 -0.40428491734E+02  0.88400184993E+00 -0.15760049534E+02  0.43400732303E+02  0.00000000000E+00 0.  1.
         11    1    3    3    0    0  0.10115175345E+02 -0.33737631360E+01  0.86048994500E+01  0.13701946751E+02  0.51100000000E-03 0. -1.
        -11    1    3    3    0    0  0.53068798785E+01  0.35843257365E+00  0.72452577261E+01  0.89880591750E+01  0.51100000000E-03 0.  1.
         12    1    3    3    0    0  0.25006436510E+02  0.21313287124E+01 -0.90107642154E-01  0.25097261771E+02  0.00000000000E+00 0. -1.
</event>
<event>
 7    1  0.3910751E-009  0.4778726E+02  0.7816164E-02  0.1312668E+00
        -11   -1    0    0    0    0  0.00000000000E+00  0.00000000000E+00  0.45593999997E+02  0.45594000000E+02  0.51100000000E-03 0. -1.
         11   -1    0    0    0    0 -0.00000000000E+00 -0.00000000000E+00 -0.45593999997E+02  0.45594000000E+02  0.51100000000E-03 0.  1.
    9900012    2    1    2    0    0  0.34881437076E+02  0.25822193049E+02  0.35153820525E+00  0.47787263999E+02  0.19999967875E+02 0.  0.
        -12    1    1    2    0    0 -0.34881437076E+02 -0.25822193049E+02 -0.35153820525E+00  0.43400736001E+02  0.00000000000E+00 0.  1.
         11    1    3    3    0    0  0.56705883820E+00 -0.10387238738E+01 -0.32299118752E+00  0.12267137320E+01  0.51100000000E-03 0.  1.
        -11    1    3    3    0    0  0.76104178964E+01  0.28076513692E+01  0.61851391408E+01  0.10200848652E+02  0.51100000000E-03 0. -1.
         12    1    3    3    0    0  0.26703960341E+02  0.24053265554E+02 -0.55106097480E+01  0.36359701615E+02  0.00000000000E+00 0. -1.
</event>
<event>
 7    1  0.3910751E-009  0.4778733E+02  0.7816164E-02  0.1312668E+00
        -11   -1    0    0    0    0  0.00000000000E+00  0.00000000000E+00  0.45593999997E+02  0.45594000000E+02  0.51100000000E-03 0. -1.
         11   -1    0    0    0    0 -0.00000000000E+00 -0.00000000000E+00 -0.45593999997E+02  0.45594000000E+02  0.51100000000E-03 0.  1.
    9900012    2    1    2    0    0 -0.38482100897E+02  0.16289536458E+02  0.11721658396E+02  0.47787327620E+02  0.20000257951E+02 0.  0.
        -12    1    1    2    0    0  0.38482100897E+02 -0.16289536458E+02 -0.11721658396E+02  0.43400672380E+02  0.00000000000E+00 0.  1.
         11    1    3    3    0    0 -0.14969400724E+02  0.80493020035E+01  0.38756464208E+01  0.17432580309E+02  0.51100000000E-03 0. -1.
        -11    1    3    3    0    0 -0.43841141198E+01  0.41295234777E+01  0.89167254687E+01  0.10760177234E+02  0.51100000000E-03 0.  1.
         12    1    3    3    0    0 -0.19128586053E+02  0.41107109766E+01 -0.10707134939E+01  0.19594570077E+02  0.00000000000E+00 0. -1.
</event>
<event>
 7    1  0.3910751E-009  0.4778727E+02  0.7816164E-02  0.1312668E+00
        -11   -1    0    0    0    0  0.00000000000E+00  0.00000000000E+00  0.45593999997E+02  0.45594000000E+02  0.51100000000E-03 0. -1.
         11   -1    0    0    0    0 -0.00000000000E+00 -0.00000000000E+00 -0.45593999997E+02  0.45594000000E+02  0.51100000000E-03 0.  1.
    9900012    2    1    2    0    0 -0.28335779578E+01  0.42875954209E+02  0.61030280801E+01  0.47787267690E+02  0.19999984704E+02 0.  0.
        -12    1    1    2    0    0  0.28335779578E+01 -0.42875954209E+02 -0.61030280801E+01  0.43400732310E+02  0.00000000000E+00 0.  1.
         11    1    3    3    0    0 -0.61322297581E+00  0.26140494164E+01  0.48387538992E+01  0.55337904123E+01  0.51100000000E-03 0. -1.
        -11    1    3    3    0    0 -0.62580852696E+00 -0.11708133996E-01  0.18406785043E+01  0.19441890366E+01  0.51100000000E-03 0.  1.
         12    1    3    3    0    0 -0.15945464550E+01  0.40273612926E+02 -0.57640432334E+00  0.40309288241E+02  0.00000000000E+00 0. -1.
</event>
<event>
 7    1  0.3910751E-009  0.4778727E+02  0.7816164E-02  0.1312668E+00
        -11   -1    0    0    0    0  0.00000000000E+00  0.00000000000E+00  0.45593999997E+02  0.45594000000E+02  0.51100000000E-03 0.  1.
         11   -1    0    0    0    0 -0.00000000000E+00 -0.00000000000E+00 -0.45593999997E+02  0.45594000000E+02  0.51100000000E-03 0. -1.
    9900012    2    1    2    0    0 -0.10422340052E+02 -0.38100922731E+02 -0.17981043855E+02  0.47787269324E+02  0.19999992156E+02 0.  0.
        -12    1    1    2    0    0  0.10422340052E+02  0.38100922731E+02  0.17981043855E+02  0.43400730676E+02  0.00000000000E+00 0.  1.
         11    1    3    3    0    0 -0.61000272059E+00 -0.70926988496E+01 -0.51392332417E+01  0.87801024404E+01  0.51100000000E-03 0. -1.
        -11    1    3    3    0    0 -0.13680985089E+02 -0.17059301624E+02 -0.10797682324E+02  0.24388092765E+02  0.51100000000E-03 0.  1.
         12    1    3    3    0    0  0.38686477582E+01 -0.13948922257E+02 -0.20441282902E+01  0.14619074119E+02  0.00000000000E+00 0. -1.
</event>
<event>
 7    1  0.3910751E-009  0.4778727E+02  0.7816164E-02  0.1312668E+00
        -11   -1    0    0    0    0  0.00000000000E+00  0.00000000000E+00  0.45593999997E+02  0.45594000000E+02  0.51100000000E-03 0.  1.
         11   -1    0    0    0    0 -0.00000000000E+00 -0.00000000000E+00 -0.45593999997E+02  0.45594000000E+02  0.51100000000E-03 0. -1.
    9900012    2    1    2    0    0 -0.72609938162E+01  0.16271830651E+02 -0.39574344417E+02  0.47787271436E+02  0.20000001783E+02 0.  0.
        -12    1    1    2    0    0  0.72609938162E+01 -0.16271830651E+02  0.39574344417E+02  0.43400728564E+02  0.00000000000E+00 0.  1.
         11    1    3    3    0    0  0.77056741726E+00  0.40679227302E+00 -0.13896533956E+02  0.13923825278E+02  0.51100000000E-03 0. -1.
        -11    1    3    3    0    0  0.31982881992E+01  0.66325053286E+01 -0.66844673220E+01  0.99449121654E+01  0.51100000000E-03 0.  1.
         12    1    3    3    0    0 -0.11229849433E+02  0.92325330494E+01 -0.18993343138E+02  0.23918533992E+02  0.00000000000E+00 0. -1.
</event>
<event>
 7    1  0.3910751E-009  0.4778724E+02  0.7816164E-02  0.1312668E+00
        -11   -1    0    0    0    0  0.00000000000E+00  0.00000000000E+00  0.45593999997E+02  0.45594000000E+02  0.51100000000E-03 0.  1.
         11   -1    0    0    0    0 -0.00000000000E+00 -0.00000000000E+00 -0.45593999997E+02  0.45594000000E+02  0.51100000000E-03 0. -1.
    9900012    2    1    2    0    0  0.22200683923E+02 -0.33477907883E+02 -0.16431242079E+02  0.47787235039E+02  0.19999835838E+02 0.  0.
        -12    1    1    2    0    0 -0.22200683923E+02  0.33477907883E+02  0.16431242079E+02  0.43400764961E+02  0.00000000000E+00 0.  1.
         11    1    3    3    0    0  0.14025273756E+02 -0.26650370658E+02 -0.17838211923E+02  0.35002176576E+02  0.51100000000E-03 0. -1.
        -11    1    3    3    0    0  0.43849068316E+01 -0.44281622294E+01 -0.26166510511E+01  0.67589120157E+01  0.51100000000E-03 0.  1.
        -12    1    3    3    0    0  0.37905033352E+01 -0.23993749954E+01  0.40236208951E+01  0.60261464478E+01  0.00000000000E+00 0.  1.
</event>
<event>
 7    1  0.3910751E-009  0.4778727E+02  0.7816164E-02  0.1312668E+00
        -11   -1    0    0    0    0  0.00000000000E+00  0.00000000000E+00  0.45593999997E+02  0.45594000000E+02  0.51100000000E-03 0.  1.
         11   -1    0    0    0    0 -0.00000000000E+00 -0.00000000000E+00 -0.45593999997E+02  0.45594000000E+02  0.51100000000E-03 0. -1.
    9900012    2    1    2    0    0 -0.38345672436E+02 -0.38114482014E+01 -0.19967615755E+02  0.47787269466E+02  0.19999992803E+02 0.  0.
        -12    1    1    2    0    0  0.38345672436E+02  0.38114482014E+01  0.19967615755E+02  0.43400730534E+02  0.00000000000E+00 0.  1.
         11    1    3    3    0    0 -0.20271063522E+02  0.61747356937E+00 -0.12884720908E+02  0.24027345318E+02  0.51100000000E-03 0. -1.
        -11    1    3    3    0    0 -0.17385190875E+02 -0.68414623413E+01 -0.29347873590E+01  0.18911992117E+02  0.51100000000E-03 0.  1.
         12    1    3    3    0    0 -0.68941803879E+00  0.24125405705E+01 -0.41481074883E+01  0.48479320304E+01  0.00000000000E+00 0. -1.
</event>
<event>
 7    1  0.3910751E-009  0.4778721E+02  0.7816164E-02  0.1312668E+00
        -11   -1    0    0    0    0  0.00000000000E+00  0.00000000000E+00  0.45593999997E+02  0.45594000000E+02  0.51100000000E-03 0. -1.
         11   -1    0    0    0    0 -0.00000000000E+00 -0.00000000000E+00 -0.45593999997E+02  0.45594000000E+02  0.51100000000E-03 0.  1.
    9900012    2    1    2    0    0  0.30874965155E+02  0.23689684482E+02  0.19213648142E+02  0.47787206239E+02  0.19999704524E+02 0.  0.
        -12    1    1    2    0    0 -0.30874965155E+02 -0.23689684482E+02 -0.19213648142E+02  0.43400793761E+02  0.00000000000E+00 0.  1.
         11    1    3    3    0    0  0.67345257585E+01  0.17544753413E+01  0.42598859018E+01  0.81595740742E+01  0.51100000000E-03 0. -1.
        -11    1    3    3    0    0  0.17846009427E+02  0.18349214851E+02  0.31654919445E+01  0.25791356645E+02  0.51100000000E-03 0.  1.
        -12    1    3    3    0    0  0.62944299696E+01  0.35859942901E+01  0.11788270296E+02  0.13836275520E+02  0.00000000000E+00 0.  1.
</event>
<event>
 7    1  0.3910751E-009  0.4778726E+02  0.7816164E-02  0.1312668E+00
        -11   -1    0    0    0    0  0.00000000000E+00  0.00000000000E+00  0.45593999997E+02  0.45594000000E+02  0.51100000000E-03 0.  1.
         11   -1    0    0    0    0 -0.00000000000E+00 -0.00000000000E+00 -0.45593999997E+02  0.45594000000E+02  0.51100000000E-03 0. -1.
    9900012    2    1    2    0    0 -0.77872987005E+01  0.88024213069E+01 -0.41779174463E+02  0.47787261979E+02  0.19999958668E+02 0.  0.
        -12    1    1    2    0    0  0.77872987005E+01 -0.88024213069E+01  0.41779174463E+02  0.43400738021E+02  0.00000000000E+00 0.  1.
         11    1    3    3    0    0  0.25416669109E+01  0.33557330082E+00 -0.34616944853E+01  0.43076686382E+01  0.51100000000E-03 0. -1.
        -11    1    3    3    0    0  0.13332793680E+01 -0.34548605460E+01 -0.50094730054E+01  0.62296480894E+01  0.51100000000E-03 0.  1.
        -12    1    3    3    0    0 -0.11662244980E+02  0.11921708552E+02 -0.33308006973E+02  0.37249945252E+02  0.00000000000E+00 0.  1.
</event>
<event>
 7    1  0.3910751E-009  0.4778721E+02  0.7816164E-02  0.1312668E+00
        -11   -1    0    0    0    0  0.00000000000E+00  0.00000000000E+00  0.45593999997E+02  0.45594000000E+02  0.51100000000E-03 0. -1.
         11   -1    0    0    0    0 -0.00000000000E+00 -0.00000000000E+00 -0.45593999997E+02  0.45594000000E+02  0.51100000000E-03 0.  1.
    9900012    2    1    2    0    0 -0.80616978744E+01  0.29212105661E+01  0.42545316925E+02  0.47787211573E+02  0.19999728846E+02 0.  0.
        -12    1    1    2    0    0  0.80616978744E+01 -0.29212105661E+01 -0.42545316925E+02  0.43400788427E+02  0.00000000000E+00 0.  1.
         11    1    3    3    0    0  0.13616607981E+01 -0.71531584861E+00  0.83267530448E+01  0.84676214737E+01  0.51100000000E-03 0. -1.
        -11    1    3    3    0    0 -0.22936671675E+01  0.96894302686E+01  0.19164834761E+02  0.21597149341E+02  0.51100000000E-03 0.  1.
         12    1    3    3    0    0 -0.71296915050E+01 -0.60529038539E+01  0.15053729120E+02  0.17722440758E+02  0.00000000000E+00 0. -1.
</event>
<event>
 7    1  0.3910751E-009  0.4778724E+02  0.7816164E-02  0.1312668E+00
        -11   -1    0    0    0    0  0.00000000000E+00  0.00000000000E+00  0.45593999997E+02  0.45594000000E+02  0.51100000000E-03 0.  1.
         11   -1    0    0    0    0 -0.00000000000E+00 -0.00000000000E+00 -0.45593999997E+02  0.45594000000E+02  0.51100000000E-03 0. -1.
    9900012    2    1    2    0    0  0.13879168500E+02 -0.81108472571E+01 -0.40313883242E+02  0.47787235680E+02  0.19999838760E+02 0.  0.
        -12    1    1    2    0    0 -0.13879168500E+02  0.81108472571E+01  0.40313883242E+02  0.43400764320E+02  0.00000000000E+00 0.  1.
         11    1    3    3    0    0  0.77344793267E+01 -0.48768416024E+01 -0.63329864331E+01  0.11122610840E+02  0.51100000000E-03 0. -1.
        -11    1    3    3    0    0 -0.58901264340E+00 -0.14676751052E+01  0.36274857418E+00  0.16225267017E+01  0.51100000000E-03 0.  1.
         12    1    3    3    0    0  0.67337018165E+01 -0.17663305494E+01 -0.34343645383E+02  0.35042098139E+02  0.00000000000E+00 0. -1.
</event>
<event>
 7    1  0.3910751E-009  0.4778727E+02  0.7816164E-02  0.1312668E+00
        -11   -1    0    0    0    0  0.00000000000E+00  0.00000000000E+00  0.45593999997E+02  0.45594000000E+02  0.51100000000E-03 0.  1.
         11   -1    0    0    0    0 -0.00000000000E+00 -0.00000000000E+00 -0.45593999997E+02  0.45594000000E+02  0.51100000000E-03 0. -1.
    9900012    2    1    2    0    0  0.12684969186E+02  0.39411879347E+02 -0.13016087681E+02  0.47787271718E+02  0.20000003069E+02 0.  0.
        -12    1    1    2    0    0 -0.12684969186E+02 -0.39411879347E+02  0.13016087681E+02  0.43400728282E+02  0.00000000000E+00 0.  1.
         11    1    3    3    0    0  0.42550628869E+01  0.35499690735E+01 -0.58673520167E+00  0.55724410317E+01  0.51100000000E-03 0.  1.
        -11    1    3    3    0    0  0.83240161106E+01  0.55916333401E+01 -0.39654728470E+01  0.10783347476E+02  0.51100000000E-03 0. -1.
         12    1    3    3    0    0  0.10589018901E+00  0.30270276933E+02 -0.84638796324E+01  0.31431483210E+02  0.00000000000E+00 0. -1.
</event>
<event>
 7    1  0.3910751E-009  0.4778727E+02  0.7816164E-02  0.1312668E+00
        -11   -1    0    0    0    0  0.00000000000E+00  0.00000000000E+00  0.45593999997E+02  0.45594000000E+02  0.51100000000E-03 0.  1.
         11   -1    0    0    0    0 -0.00000000000E+00 -0.00000000000E+00 -0.45593999997E+02  0.45594000000E+02  0.51100000000E-03 0. -1.
    9900012    2    1    2    0    0 -0.36029960247E+02  0.31099820361E+01 -0.23995691141E+02  0.47787271700E+02  0.20000002988E+02 0.  0.
        -12    1    1    2    0    0  0.36029960247E+02 -0.31099820361E+01  0.23995691141E+02  0.43400728300E+02  0.00000000000E+00 0.  1.
         11    1    3    3    0    0 -0.83786391094E+00  0.24795525390E+01 -0.98939517844E+00  0.27980528600E+01  0.51100000000E-03 0. -1.
        -11    1    3    3    0    0 -0.68349755781E+01 -0.59605886624E+01 -0.25920267848E+01  0.94320788519E+01  0.51100000000E-03 0.  1.
         12    1    3    3    0    0 -0.28357120758E+02  0.65910181594E+01 -0.20414269178E+02  0.35557139988E+02  0.00000000000E+00 0. -1.
</event>
<event>
 7    1  0.3910751E-009  0.4778726E+02  0.7816164E-02  0.1312668E+00
        -11   -1    0    0    0    0  0.00000000000E+00  0.00000000000E+00  0.45593999997E+02  0.45594000000E+02  0.51100000000E-03 0.  1.
         11   -1    0    0    0    0 -0.00000000000E+00 -0.00000000000E+00 -0.45593999997E+02  0.45594000000E+02  0.51100000000E-03 0. -1.
    9900012    2    1    2    0    0 -0.15891458544E+02  0.33348546828E+02 -0.22780691950E+02  0.47787263187E+02  0.19999964173E+02 0.  0.
        -12    1    1    2    0    0  0.15891458544E+02 -0.33348546828E+02  0.22780691950E+02  0.43400736813E+02  0.00000000000E+00 0.  1.
         11    1    3    3    0    0  0.14867108348E+01 -0.57161921468E+00 -0.20662680399E+01  0.26089311043E+01  0.51100000000E-03 0. -1.
        -11    1    3    3    0    0  0.15188131226E+01  0.63090483546E+01 -0.17590545280E+01  0.67234780832E+01  0.51100000000E-03 0.  1.
         12    1    3    3    0    0 -0.18896982502E+02  0.27611117688E+02 -0.18955369382E+02  0.38454853999E+02  0.00000000000E+00 0. -1.
</event>
<event>
 7    1  0.3910751E-009  0.4778728E+02  0.7816164E-02  0.1312668E+00
        -11   -1    0    0    0    0  0.00000000000E+00  0.00000000000E+00  0.45593999997E+02  0.45594000000E+02  0.51100000000E-03 0.  1.
         11   -1    0    0    0    0 -0.00000000000E+00 -0.00000000000E+00 -0.45593999997E+02  0.45594000000E+02  0.51100000000E-03 0. -1.
    9900012    2    1    2    0    0  0.27026740280E+02 -0.33920932170E+02  0.15962910534E+01  0.47787280253E+02  0.20000041986E+02 0.  0.
        -12    1    1    2    0    0 -0.27026740280E+02  0.33920932170E+02 -0.15962910534E+01  0.43400719747E+02  0.00000000000E+00 0.  1.
         11    1    3    3    0    0  0.10874673533E+02 -0.48352798498E+01  0.74489498763E+00  0.11924484244E+02  0.51100000000E-03 0. -1.
        -11    1    3    3    0    0  0.14812543830E+01 -0.37396757744E+01 -0.45608772079E+01  0.60811915454E+01  0.51100000000E-03 0.  1.
        -12    1    3    3    0    0  0.14670812364E+02 -0.25345976545E+02  0.54122732737E+01  0.29781604464E+02  0.00000000000E+00 0.  1.
</event>
<event>
 7    1  0.3910751E-009  0.4778727E+02  0.7816164E-02  0.1312668E+00
        -11   -1    0    0    0    0  0.00000000000E+00  0.00000000000E+00  0.45593999997E+02  0.45594000000E+02  0.51100000000E-03 0.  1.
         11   -1    0    0    0    0 -0.00000000000E+00 -0.00000000000E+00 -0.45593999997E+02  0.45594000000E+02  0.51100000000E-03 0. -1.
    9900012    2    1    2    0    0  0.48835866165E+01 -0.24614997853E+02 -0.35410109726E+02  0.47787269496E+02  0.19999992938E+02 0.  0.
        -12    1    1    2    0    0 -0.48835866165E+01  0.24614997853E+02  0.35410109726E+02  0.43400730504E+02  0.00000000000E+00 0.  1.
         11    1    3    3    0    0 -0.88400050453E+00 -0.70222533164E+01 -0.35896752713E+01  0.79359477913E+01  0.51100000000E-03 0. -1.
        -11    1    3    3    0    0  0.52790990186E+00 -0.61968207306E+01 -0.65143739363E+00  0.62532908913E+01  0.51100000000E-03 0.  1.
         12    1    3    3    0    0  0.52396772192E+01 -0.11395923806E+02 -0.31168997061E+02  0.33598030813E+02  0.00000000000E+00 0. -1.
</event>
<event>
 7    1  0.3910751E-009  0.4778726E+02  0.7816164E-02  0.1312668E+00
        -11   -1    0    0    0    0  0.00000000000E+00  0.00000000000E+00  0.45593999997E+02  0.45594000000E+02  0.51100000000E-03 0. -1.
         11   -1    0    0    0    0 -0.00000000000E+00 -0.00000000000E+00 -0.45593999997E+02  0.45594000000E+02  0.51100000000E-03 0.  1.
    9900012    2    1    2    0    0 -0.23303155664E+02  0.29526602276E+02  0.21651016276E+02  0.47787264849E+02  0.19999971754E+02 0.  0.
        -12    1    1    2    0    0  0.23303155664E+02 -0.29526602276E+02 -0.21651016276E+02  0.43400735151E+02  0.00000000000E+00 0.  1.
         11    1    3    3    0    0 -0.19277390595E+02  0.18377439380E+02  0.11071439077E+02  0.28843107146E+02  0.51100000000E-03 0. -1.
        -11    1    3    3    0    0 -0.46466264462E+01  0.18855325330E+00  0.22649601466E+01  0.51726912131E+01  0.51100000000E-03 0.  1.
        -12    1    3    3    0    0  0.62086137670E+00  0.10960609642E+02  0.83146170520E+01  0.13771466490E+02  0.00000000000E+00 0.  1.
</event>
<event>
 7    1  0.3910751E-009  0.4778728E+02  0.7816164E-02  0.1312668E+00
        -11   -1    0    0    0    0  0.00000000000E+00  0.00000000000E+00  0.45593999997E+02  0.45594000000E+02  0.51100000000E-03 0.  1.
         11   -1    0    0    0    0 -0.00000000000E+00 -0.00000000000E+00 -0.45593999997E+02  0.45594000000E+02  0.51100000000E-03 0. -1.
    9900012    2    1    2    0    0 -0.74354581604E+01  0.25855508272E+02  0.34056269422E+02  0.47787276124E+02  0.20000023159E+02 0.  0.
        -12    1    1    2    0    0  0.74354581604E+01 -0.25855508272E+02 -0.34056269422E+02  0.43400723876E+02  0.00000000000E+00 0.  1.
         11    1    3    3    0    0  0.37096507381E+00  0.40604864713E+01  0.79249146568E+01  0.89123194539E+01  0.51100000000E-03 0.  1.
        -11    1    3    3    0    0 -0.28045410929E+00  0.16721729213E+02  0.78718412095E+01  0.18484067915E+02  0.51100000000E-03 0. -1.
         12    1    3    3    0    0 -0.75259691249E+01  0.50732925876E+01  0.18259513555E+02  0.20390888755E+02  0.00000000000E+00 0. -1.
</event>
<event>
 7    1  0.3910751E-009  0.4778727E+02  0.7816164E-02  0.1312668E+00
        -11   -1    0    0    0    0  0.00000000000E+00  0.00000000000E+00  0.45593999997E+02  0.45594000000E+02  0.51100000000E-03 0.  1.
         11   -1    0    0    0    0 -0.00000000000E+00 -0.00000000000E+00 -0.45593999997E+02  0.45594000000E+02  0.51100000000E-03 0. -1.
    9900012    2    1    2    0    0  0.12432201013E+02 -0.41444239158E+02 -0.33820826166E+01  0.47787273460E+02  0.20000011012E+02 0.  0.
        -12    1    1    2    0    0 -0.12432201013E+02  0.41444239158E+02  0.33820826166E+01  0.43400726540E+02  0.00000000000E+00 0.  1.
         11    1    3    3    0    0 -0.88145280570E-02 -0.11121914842E+02 -0.13504956721E+01  0.11203611305E+02  0.51100000000E-03 0. -1.
        -11    1    3    3    0    0 -0.96376749466E+00 -0.10876945294E+01  0.36460639750E+01  0.39250108208E+01  0.51100000000E-03 0.  1.
        -12    1    3    3    0    0  0.13404783036E+02 -0.29234629787E+02 -0.56776509195E+01  0.32658651334E+02  0.00000000000E+00 0.  1.
</event>
<event>
 7    1  0.3910751E-009  0.4778726E+02  0.7816164E-02  0.1312668E+00
        -11   -1    0    0    0    0  0.00000000000E+00  0.00000000000E+00  0.45593999997E+02  0.45594000000E+02  0.51100000000E-03 0. -1.
         11   -1    0    0    0    0 -0.00000000000E+00 -0.00000000000E+00 -0.45593999997E+02  0.45594000000E+02  0.51100000000E-03 0.  1.
    9900012    2    1    2    0    0  0.14763920277E+00 -0.10213842060E+02  0.42181505807E+02  0.47787264993E+02  0.19999972411E+02 0.  0.
        -12    1    1    2    0    0 -0.14763920277E+00  0.10213842060E+02 -0.42181505807E+02  0.43400735007E+02  0.00000000000E+00 0.  1.
         11    1    3    3    0    0 -0.51129868327E+01 -0.79290034456E+01  0.10136610701E+02  0.13847837620E+02  0.51100000000E-03 0. -1.
        -11    1    3    3    0    0  0.31704240283E+00 -0.39505245327E+01  0.49213034858E+01  0.63187331190E+01  0.51100000000E-03 0.  1.
        -12    1    3    3    0    0  0.49435836326E+01  0.16656859180E+01  0.27123591620E+02  0.27620694254E+02  0.00000000000E+00 0.  1.
</event>
<event>
 7    1  0.3910751E-009  0.4778727E+02  0.7816164E-02  0.1312668E+00
        -11   -1    0    0    0    0  0.00000000000E+00  0.00000000000E+00  0.45593999997E+02  0.45594000000E+02  0.51100000000E-03 0.  1.
         11   -1    0    0    0    0 -0.00000000000E+00 -0.00000000000E+00 -0.45593999997E+02  0.45594000000E+02  0.51100000000E-03 0. -1.
    9900012    2    1    2    0    0  0.28767310912E+02 -0.15774263793E+02 -0.28411925185E+02  0.47787273416E+02  0.20000010813E+02 0.  0.
        -12    1    1    2    0    0 -0.28767310912E+02  0.15774263793E+02  0.28411925185E+02  0.43400726584E+02  0.00000000000E+00 0.  1.
         11    1    3    3    0    0  0.11353653060E+02 -0.29876833117E+01 -0.80141257969E+01  0.14214707240E+02  0.51100000000E-03 0. -1.
        -11    1    3    3    0    0  0.13079603143E+02 -0.30499719358E+01 -0.39961439511E+01  0.14012405715E+02  0.51100000000E-03 0.  1.
        -12    1    3    3    0    0  0.43340547097E+01 -0.97366085451E+01 -0.16401655437E+02  0.19560160461E+02  0.00000000000E+00 0.  1.
</event>
<event>
 7    1  0.3910751E-009  0.4778725E+02  0.7816164E-02  0.1312668E+00
        -11   -1    0    0    0    0  0.00000000000E+00  0.00000000000E+00  0.45593999997E+02  0.45594000000E+02  0.51100000000E-03 0.  1.
         11   -1    0    0    0    0 -0.00000000000E+00 -0.00000000000E+00 -0.45593999997E+02  0.45594000000E+02  0.51100000000E-03 0. -1.
    9900012    2    1    2    0    0  0.86776092796E+01 -0.39509342323E+02 -0.15726909718E+02  0.47787254351E+02  0.19999923887E+02 0.  0.
        -12    1    1    2    0    0 -0.86776092796E+01  0.39509342323E+02  0.15726909718E+02  0.43400745649E+02  0.00000000000E+00 0.  1.
         11    1    3    3    0    0  0.99448964056E+00 -0.21412593240E+02 -0.15539874337E+02  0.26475948587E+02  0.51100000000E-03 0. -1.
        -11    1    3    3    0    0  0.43000331090E+01 -0.17197836905E+02  0.54273763220E+00  0.17735570004E+02  0.51100000000E-03 0.  1.
        -12    1    3    3    0    0  0.33830865300E+01 -0.89891217749E+00 -0.72977301319E+00  0.35757357597E+01  0.00000000000E+00 0.  1.
</event>
<event>
 7    1  0.3910751E-009  0.4778728E+02  0.7816164E-02  0.1312668E+00
        -11   -1    0    0    0    0  0.00000000000E+00  0.00000000000E+00  0.45593999997E+02  0.45594000000E+02  0.51100000000E-03 0.  1.
         11   -1    0    0    0    0 -0.00000000000E+00 -0.00000000000E+00 -0.45593999997E+02  0.45594000000E+02  0.51100000000E-03 0. -1.
    9900012    2    1    2    0    0  0.93461140205E+01 -0.14652909251E+02 -0.39768898047E+02  0.47787275943E+02  0.20000022336E+02 0.  0.
        -12    1    1    2    0    0 -0.93461140205E+01  0.14652909251E+02  0.39768898047E+02  0.43400724057E+02  0.00000000000E+00 0.  1.
         11    1    3    3    0    0  0.52063548339E+01  0.11956428961E+01 -0.15786281507E+02  0.16665604599E+02  0.51100000000E-03 0. -1.
        -11    1    3    3    0    0  0.65994145577E+00 -0.18947757006E+00  0.11304617651E+01  0.13226369638E+01  0.51100000000E-03 0.  1.
        -12    1    3    3    0    0  0.34798177307E+01 -0.15659074577E+02 -0.25113078305E+02  0.29799034380E+02  0.00000000000E+00 0.  1.
</event>
<event>
 7    1  0.3910751E-009  0.4778727E+02  0.7816164E-02  0.1312668E+00
        -11   -1    0    0    0    0  0.00000000000E+00  0.00000000000E+00  0.45593999997E+02  0.45594000000E+02  0.51100000000E-03 0.  1.
         11   -1    0    0    0    0 -0.00000000000E+00 -0.00000000000E+00 -0.45593999997E+02  0.45594000000E+02  0.51100000000E-03 0. -1.
    9900012    2    1    2    0    0  0.26208950211E+02  0.31399497996E+02  0.14518475256E+02  0.47787266489E+02  0.19999979229E+02 0.  0.
        -12    1    1    2    0    0 -0.26208950211E+02 -0.31399497996E+02 -0.14518475256E+02  0.43400733511E+02  0.00000000000E+00 0.  1.
         11    1    3    3    0    0  0.54501327189E+01  0.18010239620E+02  0.11844336178E+02  0.22234229863E+02  0.51100000000E-03 0.  1.
        -11    1    3    3    0    0  0.42716741751E+00 -0.59547136590E+00  0.11667255039E-01  0.73293556071E+00  0.51100000000E-03 0. -1.
         12    1    3    3    0    0  0.20331650074E+02  0.13984729742E+02  0.26624718230E+01  0.24820101066E+02  0.00000000000E+00 0. -1.
</event>
<event>
 7    1  0.3910751E-009  0.4778727E+02  0.7816164E-02  0.1312668E+00
        -11   -1    0    0    0    0  0.00000000000E+00  0.00000000000E+00  0.45593999997E+02  0.45594000000E+02  0.51100000000E-03 0.  1.
         11   -1    0    0    0    0 -0.00000000000E+00 -0.00000000000E+00 -0.45593999997E+02  0.45594000000E+02  0.51100000000E-03 0. -1.
    9900012    2    1    2    0    0 -0.40752822732E+02 -0.10508344863E+02 -0.10602141628E+02  0.47787270980E+02  0.19999999707E+02 0.  0.
        -12    1    1    2    0    0  0.40752822732E+02  0.10508344863E+02  0.10602141628E+02  0.43400729020E+02  0.00000000000E+00 0.  1.
         11    1    3    3    0    0 -0.89438365476E+01 -0.42036117874E+01 -0.84882004138E+01  0.13027360085E+02  0.51100000000E-03 0. -1.
        -11    1    3    3    0    0 -0.84494418000E+01  0.20562770174E+01 -0.45772740604E+01  0.98271450579E+01  0.51100000000E-03 0.  1.
        -12    1    3    3    0    0 -0.23359544384E+02 -0.83610100930E+01  0.24633328466E+01  0.24932765838E+02  0.00000000000E+00 0.  1.
</event>
<event>
 7    1  0.3910751E-009  0.4778727E+02  0.7816164E-02  0.1312668E+00
        -11   -1    0    0    0    0  0.00000000000E+00  0.00000000000E+00  0.45593999997E+02  0.45594000000E+02  0.51100000000E-03 0. -1.
         11   -1    0    0    0    0 -0.00000000000E+00 -0.00000000000E+00 -0.45593999997E+02  0.45594000000E+02  0.51100000000E-03 0.  1.
    9900012    2    1    2    0    0 -0.11127038029E+02  0.32527020479E+02  0.26491610945E+02  0.47787268589E+02  0.19999988803E+02 0.  0.
        -12    1    1    2    0    0  0.11127038029E+02 -0.32527020479E+02 -0.26491610945E+02  0.43400731411E+02  0.00000000000E+00 0.  1.
         11    1    3    3    0    0 -0.55334699300E+01  0.25469864316E+02  0.15357075931E+02  0.30251827368E+02  0.51100000000E-03 0. -1.
        -11    1    3    3    0    0 -0.35592593117E+01  0.38847468006E+01 -0.51275581915E+00  0.52936285612E+01  0.51100000000E-03 0.  1.
         12    1    3    3    0    0 -0.20343087878E+01  0.31724093628E+01  0.11647290834E+02  0.12241812659E+02  0.00000000000E+00 0. -1.
</event>
<event>
 7    1  0.3910751E-009  0.4778727E+02  0.7816164E-02  0.1312668E+00
        -11   -1    0    0    0    0  0.00000000000E+00  0.00000000000E+00  0.45593999997E+02  0.45594000000E+02  0.51100000000E-03 0.  1.
         11   -1    0    0    0    0 -0.00000000000E+00 -0.00000000000E+00 -0.45593999997E+02  0.45594000000E+02  0.51100000000E-03 0. -1.
    9900012    2    1    2    0    0 -0.28581437570E+02 -0.24263220037E+02 -0.21863683424E+02  0.47787273359E+02  0.20000010553E+02 0.  0.
        -12    1    1    2    0    0  0.28581437570E+02  0.24263220037E+02  0.21863683424E+02  0.43400726641E+02  0.00000000000E+00 0.  1.
         11    1    3    3    0    0 -0.16035367644E+02 -0.13419451450E+02 -0.12585818592E+02  0.24405276532E+02  0.51100000000E-03 0. -1.
        -11    1    3    3    0    0 -0.36338290780E+01 -0.87656347399E+01 -0.10496576076E+02  0.14149882535E+02  0.51100000000E-03 0.  1.
        -12    1    3    3    0    0 -0.89122408473E+01 -0.20781338477E+01  0.12187112446E+01  0.92321142923E+01  0.00000000000E+00 0.  1.
</event>
<event>
 7    1  0.3910751E-009  0.4778727E+02  0.7816164E-02  0.1312668E+00
        -11   -1    0    0    0    0  0.00000000000E+00  0.00000000000E+00  0.45593999997E+02  0.45594000000E+02  0.51100000000E-03 0. -1.
         11   -1    0    0    0    0 -0.00000000000E+00 -0.00000000000E+00 -0.45593999997E+02  0.45594000000E+02  0.51100000000E-03 0.  1.
    9900012    2    1    2    0    0 -0.36207544570E+00 -0.43365329000E+02 -0.17147463133E+01  0.47787271747E+02  0.20000003205E+02 0.  0.
        -12    1    1    2    0    0  0.36207544570E+00  0.43365329000E+02  0.17147463133E+01  0.43400728253E+02  0.00000000000E+00 0.  1.
         11    1    3    3    0    0  0.25227219853E+01 -0.15445231236E+01  0.23524787726E+01  0.37793960537E+01  0.51100000000E-03 0.  1.
        -11    1    3    3    0    0 -0.59599679900E+01 -0.93945210567E+01  0.39083606232E+00  0.11132429987E+02  0.51100000000E-03 0. -1.
        -12    1    3    3    0    0  0.30751705590E+01 -0.32426284820E+02 -0.44580611482E+01  0.32875445707E+02  0.00000000000E+00 0.  1.
</event>
<event>
 7    1  0.3910751E-009  0.4778727E+02  0.7816164E-02  0.1312668E+00
        -11   -1    0    0    0    0  0.00000000000E+00  0.00000000000E+00  0.45593999997E+02  0.45594000000E+02  0.51100000000E-03 0.  1.
         11   -1    0    0    0    0 -0.00000000000E+00 -0.00000000000E+00 -0.45593999997E+02  0.45594000000E+02  0.51100000000E-03 0. -1.
    9900012    2    1    2    0    0  0.81804909225E+00  0.18968373873E+02 -0.39027618520E+02  0.47787269372E+02  0.19999992375E+02 0.  0.
        -12    1    1    2    0    0 -0.81804909225E+00 -0.18968373873E+02  0.39027618520E+02  0.43400730628E+02  0.00000000000E+00 0.  1.
         11    1    3    3    0    0  0.35544671626E+01  0.29556304200E+01 -0.38217141487E+01  0.59979569259E+01  0.51100000000E-03 0. -1.
        -11    1    3    3    0    0 -0.13209094870E+01  0.17221645691E+00  0.13666903540E+01  0.19084819008E+01  0.51100000000E-03 0.  1.
         12    1    3    3    0    0 -0.14155085834E+01  0.15840526996E+02 -0.36572594725E+02  0.39880830545E+02  0.00000000000E+00 0. -1.
</event>
<event>
 7    1  0.3910751E-009  0.4778727E+02  0.7816164E-02  0.1312668E+00
        -11   -1    0    0    0    0  0.00000000000E+00  0.00000000000E+00  0.45593999997E+02  0.45594000000E+02  0.51100000000E-03 0.  1.
         11   -1    0    0    0    0 -0.00000000000E+00 -0.00000000000E+00 -0.45593999997E+02  0.45594000000E+02  0.51100000000E-03 0. -1.
    9900012    2    1    2    0    0  0.17970847411E+02  0.13029491743E+02 -0.37294829100E+02  0.47787270866E+02  0.19999999186E+02 0.  0.
        -12    1    1    2    0    0 -0.17970847411E+02 -0.13029491743E+02  0.37294829100E+02  0.43400729134E+02  0.00000000000E+00 0.  1.
         11    1    3    3    0    0  0.59873442694E+01  0.31171968348E+01 -0.83963934496E+01  0.10773329603E+02  0.51100000000E-03 0. -1.
        -11    1    3    3    0    0 -0.10267647053E+01  0.42777238090E+01  0.44811422790E+00  0.44219874907E+01  0.51100000000E-03 0.  1.
        -12    1    3    3    0    0  0.13010267847E+02  0.56345710989E+01 -0.29346549879E+02  0.32591953772E+02  0.00000000000E+00 0.  1.
</event>
<event>
 7    1  0.3910751E-009  0.4778725E+02  0.7816164E-02  0.1312668E+00
        -11   -1    0    0    0    0  0.00000000000E+00  0.00000000000E+00  0.45593999997E+02  0.45594000000E+02  0.51100000000E-03 0.  1.
         11   -1    0    0    0    0 -0.00000000000E+00 -0.00000000000E+00 -0.45593999997E+02  0.45594000000E+02  0.51100000000E-03 0. -1.
    9900012    2    1    2    0    0 -0.27888544614E+02 -0.11350436895E+02 -0.31257344908E+02  0.47787251745E+02  0.19999912008E+02 0.  0.
        -12    1    1    2    0    0  0.27888544614E+02  0.11350436895E+02  0.31257344908E+02  0.43400748255E+02  0.00000000000E+00 0.  1.
         11    1    3    3    0    0 -0.15643592014E+01 -0.20032952696E+01 -0.89628539064E+01  0.93162847776E+01  0.51100000000E-03 0.  1.
        -11    1    3    3    0    0 -0.31875369296E+01  0.36202860228E+01 -0.37052080695E+01  0.60823868394E+01  0.51100000000E-03 0. -1.
         12    1    3    3    0    0 -0.23136648483E+02 -0.12967427648E+02 -0.18589282932E+02  0.32388580128E+02  0.00000000000E+00 0. -1.
</event>
<event>
 7    1  0.3910751E-009  0.4778727E+02  0.7816164E-02  0.1312668E+00
        -11   -1    0    0    0    0  0.00000000000E+00  0.00000000000E+00  0.45593999997E+02  0.45594000000E+02  0.51100000000E-03 0.  1.
         11   -1    0    0    0    0 -0.00000000000E+00 -0.00000000000E+00 -0.45593999997E+02  0.45594000000E+02  0.51100000000E-03 0. -1.
    9900012    2    1    2    0    0  0.84399872382E+01  0.13112097135E+02 -0.40502626613E+02  0.47787271453E+02  0.20000001861E+02 0.  0.
        -12    1    1    2    0    0 -0.84399872382E+01 -0.13112097135E+02  0.40502626613E+02  0.43400728547E+02  0.00000000000E+00 0.  1.
         11    1    3    3    0    0  0.37353623192E+01 -0.10541635322E+01 -0.16439175817E+02  0.16891142478E+02  0.51100000000E-03 0. -1.
        -11    1    3    3    0    0 -0.20893744252E+01 -0.11850647248E+01 -0.17458180465E+01  0.29694687746E+01  0.51100000000E-03 0.  1.
         12    1    3    3    0    0  0.67939993443E+01  0.15351325392E+02 -0.22317632750E+02  0.27926660200E+02  0.00000000000E+00 0. -1.
</event>
<event>
 7    1  0.3910751E-009  0.4778727E+02  0.7816164E-02  0.1312668E+00
        -11   -1    0    0    0    0  0.00000000000E+00  0.00000000000E+00  0.45593999997E+02  0.45594000000E+02  0.51100000000E-03 0. -1.
         11   -1    0    0    0    0 -0.00000000000E+00 -0.00000000000E+00 -0.45593999997E+02  0.45594000000E+02  0.51100000000E-03 0.  1.
    9900012    2    1    2    0    0  0.29902617162E+02 -0.26302680110E+02  0.17251828234E+02  0.47787273376E+02  0.20000010630E+02 0.  0.
        -12    1    1    2    0    0 -0.29902617162E+02  0.26302680110E+02 -0.17251828234E+02  0.43400726624E+02  0.00000000000E+00 0.  1.
         11    1    3    3    0    0  0.18087130396E+01 -0.64462656971E+00 -0.15233325620E+01  0.24510260361E+01  0.51100000000E-03 0. -1.
        -11    1    3    3    0    0 -0.50471686492E+00 -0.32624628243E+01  0.59684125235E+01  0.68205829007E+01  0.51100000000E-03 0.  1.
         12    1    3    3    0    0  0.28598620987E+02 -0.22395590716E+02  0.12806748272E+02  0.38515664439E+02  0.00000000000E+00 0. -1.
</event>
<event>
 7    1  0.3910751E-009  0.4778727E+02  0.7816164E-02  0.1312668E+00
        -11   -1    0    0    0    0  0.00000000000E+00  0.00000000000E+00  0.45593999997E+02  0.45594000000E+02  0.51100000000E-03 0. -1.
         11   -1    0    0    0    0 -0.00000000000E+00 -0.00000000000E+00 -0.45593999997E+02  0.45594000000E+02  0.51100000000E-03 0.  1.
    9900012    2    1    2    0    0  0.16463739862E+02  0.28368259411E+02  0.28422011715E+02  0.47787267031E+02  0.19999981703E+02 0.  0.
        -12    1    1    2    0    0 -0.16463739862E+02 -0.28368259411E+02 -0.28422011715E+02  0.43400732969E+02  0.00000000000E+00 0.  1.
         11    1    3    3    0    0  0.23043200426E+01 -0.86384869993E-01  0.32079170259E+01  0.39507069128E+01  0.51100000000E-03 0. -1.
        -11    1    3    3    0    0  0.14956656927E+02  0.21554684144E+02  0.11876158103E+02  0.28798422292E+02  0.51100000000E-03 0.  1.
        -12    1    3    3    0    0 -0.79723710713E+00  0.68999601368E+01  0.13337936586E+02  0.15038137826E+02  0.00000000000E+00 0.  1.
</event>
<event>
 7    1  0.3910751E-009  0.4778727E+02  0.7816164E-02  0.1312668E+00
        -11   -1    0    0    0    0  0.00000000000E+00  0.00000000000E+00  0.45593999997E+02  0.45594000000E+02  0.51100000000E-03 0.  1.
         11   -1    0    0    0    0 -0.00000000000E+00 -0.00000000000E+00 -0.45593999997E+02  0.45594000000E+02  0.51100000000E-03 0. -1.
    9900012    2    1    2    0    0  0.13628179327E+02  0.23074023199E+02 -0.34139206757E+02  0.47787271247E+02  0.20000000921E+02 0.  0.
        -12    1    1    2    0    0 -0.13628179327E+02 -0.23074023199E+02  0.34139206757E+02  0.43400728753E+02  0.00000000000E+00 0.  1.
         11    1    3    3    0    0  0.25551183562E+01  0.10156250667E+02 -0.19293043807E+02  0.21952211666E+02  0.51100000000E-03 0. -1.
        -11    1    3    3    0    0  0.17634595751E+00  0.95462523678E+01 -0.50593327655E+01  0.10805502323E+02  0.51100000000E-03 0.  1.
        -12    1    3    3    0    0  0.10896715013E+02  0.33715201637E+01 -0.97868301845E+01  0.15029557257E+02  0.00000000000E+00 0.  1.
</event>
<event>
 7    1  0.3910751E-009  0.4778727E+02  0.7816164E-02  0.1312668E+00
        -11   -1    0    0    0    0  0.00000000000E+00  0.00000000000E+00  0.45593999997E+02  0.45594000000E+02  0.51100000000E-03 0.  1.
         11   -1    0    0    0    0 -0.00000000000E+00 -0.00000000000E+00 -0.45593999997E+02  0.45594000000E+02  0.51100000000E-03 0. -1.
    9900012    2    1    2    0    0  0.46701770988E+00  0.17018412259E+02 -0.39922160142E+02  0.47787270378E+02  0.19999996960E+02 0.  0.
        -12    1    1    2    0    0 -0.46701770988E+00 -0.17018412259E+02  0.39922160142E+02  0.43400729622E+02  0.00000000000E+00 0.  1.
         11    1    3    3    0    0  0.12739924548E+01  0.43196066002E+01 -0.23748268323E+02  0.24171518500E+02  0.51100000000E-03 0. -1.
        -11    1    3    3    0    0 -0.46433241756E+01  0.86138028665E+01 -0.14968873938E+02  0.17883658643E+02  0.51100000000E-03 0.  1.
        -12    1    3    3    0    0  0.38363494307E+01  0.40850027920E+01 -0.12050178805E+01  0.57320932352E+01  0.00000000000E+00 0.  1.
</event>
<event>
 7    1  0.3910751E-009  0.4778727E+02  0.7816164E-02  0.1312668E+00
        -11   -1    0    0    0    0  0.00000000000E+00  0.00000000000E+00  0.45593999997E+02  0.45594000000E+02  0.51100000000E-03 0.  1.
         11   -1    0    0    0    0 -0.00000000000E+00 -0.00000000000E+00 -0.45593999997E+02  0.45594000000E+02  0.51100000000E-03 0. -1.
    9900012    2    1    2    0    0  0.10207784634E+01 -0.22073382379E+02 -0.37354347081E+02  0.47787269083E+02  0.19999991056E+02 0.  0.
        -12    1    1    2    0    0 -0.10207784634E+01  0.22073382379E+02  0.37354347081E+02  0.43400730917E+02  0.00000000000E+00 0.  1.
         11    1    3    3    0    0 -0.27810215667E+01  0.73131279921E+00 -0.21908691131E+01  0.36150805103E+01  0.51100000000E-03 0. -1.
        -11    1    3    3    0    0 -0.15653446655E+01 -0.16863190920E+02 -0.15567496603E+02  0.23003574998E+02  0.51100000000E-03 0.  1.
         12    1    3    3    0    0  0.53671446956E+01 -0.59415042581E+01 -0.19595981364E+02  0.21168613574E+02  0.00000000000E+00 0. -1.
</event>
<event>
 7    1  0.3910751E-009  0.4778727E+02  0.7816164E-02  0.1312668E+00
        -11   -1    0    0    0    0  0.00000000000E+00  0.00000000000E+00  0.45593999997E+02  0.45594000000E+02  0.51100000000E-03 0. -1.
         11   -1    0    0    0    0 -0.00000000000E+00 -0.00000000000E+00 -0.45593999997E+02  0.45594000000E+02  0.51100000000E-03 0.  1.
    9900012    2    1    2    0    0 -0.23008381345E+02 -0.36365231653E+02  0.56398482596E+01  0.47787267590E+02  0.19999984251E+02 0.  0.
        -12    1    1    2    0    0  0.23008381345E+02  0.36365231653E+02 -0.56398482596E+01  0.43400732410E+02  0.00000000000E+00 0.  1.
         11    1    3    3    0    0 -0.70930172503E+01 -0.18579552147E+02 -0.54819469754E+01  0.20629163691E+02  0.51100000000E-03 0. -1.
        -11    1    3    3    0    0 -0.74280007428E+01 -0.87597216384E+01  0.17378583238E+01  0.11615854253E+02  0.51100000000E-03 0.  1.
        -12    1    3    3    0    0 -0.84873633519E+01 -0.90259578675E+01  0.93839369112E+01  0.15542249646E+02  0.00000000000E+00 0.  1.
</event>
<event>
 7    1  0.3910751E-009  0.4778727E+02  0.7816164E-02  0.1312668E+00
        -11   -1    0    0    0    0  0.00000000000E+00  0.00000000000E+00  0.45593999997E+02  0.45594000000E+02  0.51100000000E-03 0.  1.
         11   -1    0    0    0    0 -0.00000000000E+00 -0.00000000000E+00 -0.45593999997E+02  0.45594000000E+02  0.51100000000E-03 0. -1.
    9900012    2    1    2    0    0  0.26929914339E+02  0.22561276601E+02 -0.25483167158E+02  0.47787270783E+02  0.19999998810E+02 0.  0.
        -12    1    1    2    0    0 -0.26929914339E+02 -0.22561276601E+02  0.25483167158E+02  0.43400729217E+02  0.00000000000E+00 0.  1.
         11    1    3    3    0    0  0.15989808102E+02  0.50675865252E+01 -0.85737504401E+01  0.18837823473E+02  0.51100000000E-03 0. -1.
        -11    1    3    3    0    0  0.12510579297E+02  0.10623653245E+02 -0.11066835806E+02  0.19795238257E+02  0.51100000000E-03 0.  1.
        -12    1    3    3    0    0 -0.15704730607E+01  0.68700368304E+01 -0.58425809115E+01  0.91542090534E+01  0.00000000000E+00 0.  1.
</event>
<event>
 7    1  0.3910751E-009  0.4778728E+02  0.7816164E-02  0.1312668E+00
        -11   -1    0    0    0    0  0.00000000000E+00  0.00000000000E+00  0.45593999997E+02  0.45594000000E+02  0.51100000000E-03 0.  1.
         11   -1    0    0    0    0 -0.00000000000E+00 -0.00000000000E+00 -0.45593999997E+02  0.45594000000E+02  0.51100000000E-03 0. -1.
    9900012    2    1    2    0    0 -0.25506718067E+02  0.94957337418E-02 -0.35114527061E+02  0.47787276879E+02  0.20000026601E+02 0.  0.
        -12    1    1    2    0    0  0.25506718067E+02 -0.94957337418E-02  0.35114527061E+02  0.43400723121E+02  0.00000000000E+00 0.  1.
         11    1    3    3    0    0 -0.10348252052E+02 -0.67876385929E+01 -0.14131344188E+02  0.18784388385E+02  0.51100000000E-03 0. -1.
        -11    1    3    3    0    0 -0.10864738747E+02  0.48007896068E+00 -0.17509338393E+02  0.20611888683E+02  0.51100000000E-03 0.  1.
        -12    1    3    3    0    0 -0.42937272687E+01  0.63170553659E+01 -0.34738444806E+01  0.83909998111E+01  0.00000000000E+00 0.  1.
</event>
<event>
 7    1  0.3910751E-009  0.4778727E+02  0.7816164E-02  0.1312668E+00
        -11   -1    0    0    0    0  0.00000000000E+00  0.00000000000E+00  0.45593999997E+02  0.45594000000E+02  0.51100000000E-03 0.  1.
         11   -1    0    0    0    0 -0.00000000000E+00 -0.00000000000E+00 -0.45593999997E+02  0.45594000000E+02  0.51100000000E-03 0. -1.
    9900012    2    1    2    0    0  0.32940194008E+02 -0.13261320961E+02 -0.24954036828E+02  0.47787274557E+02  0.20000016017E+02 0.  0.
        -12    1    1    2    0    0 -0.32940194008E+02  0.13261320961E+02  0.24954036828E+02  0.43400725443E+02  0.00000000000E+00 0.  1.
         11    1    3    3    0    0  0.17601510328E+02 -0.66278306186E+01 -0.11788719260E+02  0.22197189159E+02  0.51100000000E-03 0. -1.
        -11    1    3    3    0    0  0.16317592570E+02 -0.49884096408E+01 -0.15160421528E+02  0.22825127364E+02  0.51100000000E-03 0.  1.
        -12    1    3    3    0    0 -0.97890888887E+00 -0.16450807012E+01  0.19951039589E+01  0.27649580346E+01  0.00000000000E+00 0.  1.
</event>
<event>
 7    1  0.3910751E-009  0.4778727E+02  0.7816164E-02  0.1312668E+00
        -11   -1    0    0    0    0  0.00000000000E+00  0.00000000000E+00  0.45593999997E+02  0.45594000000E+02  0.51100000000E-03 0.  1.
         11   -1    0    0    0    0 -0.00000000000E+00 -0.00000000000E+00 -0.45593999997E+02  0.45594000000E+02  0.51100000000E-03 0. -1.
    9900012    2    1    2    0    0 -0.10237247484E+02  0.24364619504E+02 -0.34426549516E+02  0.47787271536E+02  0.20000002243E+02 0.  0.
        -12    1    1    2    0    0  0.10237247484E+02 -0.24364619504E+02  0.34426549516E+02  0.43400728464E+02  0.00000000000E+00 0.  1.
         11    1    3    3    0    0 -0.88369361865E+01  0.15679051823E+02 -0.17634584544E+02  0.25197275240E+02  0.51100000000E-03 0. -1.
        -11    1    3    3    0    0 -0.65281670326E+01  0.23081407450E+01 -0.79336054367E+01  0.10530269417E+02  0.51100000000E-03 0.  1.
         12    1    3    3    0    0  0.51278557346E+01  0.63774269360E+01 -0.88583595350E+01  0.12059726880E+02  0.00000000000E+00 0. -1.
</event>
<event>
 7    1  0.3910751E-009  0.4778727E+02  0.7816164E-02  0.1312668E+00
        -11   -1    0    0    0    0  0.00000000000E+00  0.00000000000E+00  0.45593999997E+02  0.45594000000E+02  0.51100000000E-03 0.  1.
         11   -1    0    0    0    0 -0.00000000000E+00 -0.00000000000E+00 -0.45593999997E+02  0.45594000000E+02  0.51100000000E-03 0. -1.
    9900012    2    1    2    0    0 -0.42022077956E+02  0.10010200070E+02  0.41909682983E+01  0.47787270093E+02  0.19999995662E+02 0.  0.
        -12    1    1    2    0    0  0.42022077956E+02 -0.10010200070E+02 -0.41909682983E+01  0.43400729907E+02  0.00000000000E+00 0.  1.
         11    1    3    3    0    0  0.10989978529E+01 -0.17990360588E+01  0.49445713277E+00  0.21653672065E+01  0.51100000000E-03 0. -1.
        -11    1    3    3    0    0 -0.21478476119E+02  0.10176747651E+02  0.18387278195E+01  0.23838457362E+02  0.51100000000E-03 0.  1.
        -12    1    3    3    0    0 -0.21642599690E+02  0.16324884783E+01  0.18577833460E+01  0.21783445525E+02  0.00000000000E+00 0.  1.
</event>
<event>
 7    1  0.3910751E-009  0.4778727E+02  0.7816164E-02  0.1312668E+00
        -11   -1    0    0    0    0  0.00000000000E+00  0.00000000000E+00  0.45593999997E+02  0.45594000000E+02  0.51100000000E-03 0. -1.
         11   -1    0    0    0    0 -0.00000000000E+00 -0.00000000000E+00 -0.45593999997E+02  0.45594000000E+02  0.51100000000E-03 0.  1.
    9900012    2    1    2    0    0  0.59053540204E+01  0.97861665842E+00  0.42985956417E+02  0.47787270216E+02  0.19999996224E+02 0.  0.
        -12    1    1    2    0    0 -0.59053540204E+01 -0.97861665842E+00 -0.42985956417E+02  0.43400729784E+02  0.00000000000E+00 0.  1.
         11    1    3    3    0    0  0.58872330503E+01 -0.18605089361E+01  0.98084658499E+01  0.11589952937E+02  0.51100000000E-03 0. -1.
        -11    1    3    3    0    0  0.39315156264E+01 -0.23925399095E+01  0.26344558541E+02  0.26743538048E+02  0.51100000000E-03 0.  1.
        -12    1    3    3    0    0 -0.39133946563E+01  0.52316655040E+01  0.68329320267E+01  0.94537792317E+01  0.00000000000E+00 0.  1.
</event>
<event>
 7    1  0.3910751E-009  0.4778727E+02  0.7816164E-02  0.1312668E+00
        -11   -1    0    0    0    0  0.00000000000E+00  0.00000000000E+00  0.45593999997E+02  0.45594000000E+02  0.51100000000E-03 0.  1.
         11   -1    0    0    0    0 -0.00000000000E+00 -0.00000000000E+00 -0.45593999997E+02  0.45594000000E+02  0.51100000000E-03 0. -1.
    9900012    2    1    2    0    0  0.98633563291E+01 -0.32101105281E+02 -0.27492840798E+02  0.47787273583E+02  0.20000011576E+02 0.  0.
        -12    1    1    2    0    0 -0.98633563291E+01  0.32101105281E+02  0.27492840798E+02  0.43400726417E+02  0.00000000000E+00 0.  1.
         11    1    3    3    0    0 -0.29017821882E-01 -0.47880125271E+00 -0.59333576251E+01  0.59527158207E+01  0.51100000000E-03 0.  1.
        -11    1    3    3    0    0  0.29035613832E+01 -0.31662003871E+01 -0.89642049833E+01  0.99404459076E+01  0.51100000000E-03 0. -1.
        -12    1    3    3    0    0  0.69888127678E+01 -0.28456103641E+02 -0.12595278190E+02  0.31894111855E+02  0.00000000000E+00 0.  1.
</event>
<event>
 7    1  0.3910751E-009  0.4778727E+02  0.7816164E-02  0.1312668E+00
        -11   -1    0    0    0    0  0.00000000000E+00  0.00000000000E+00  0.45593999997E+02  0.45594000000E+02  0.51100000000E-03 0. -1.
         11   -1    0    0    0    0 -0.00000000000E+00 -0.00000000000E+00 -0.45593999997E+02  0.45594000000E+02  0.51100000000E-03 0.  1.
    9900012    2    1    2    0    0  0.42196602354E+02  0.80556918519E+01 -0.61786525079E+01  0.47787272261E+02  0.20000005548E+02 0.  0.
        -12    1    1    2    0    0 -0.42196602354E+02 -0.80556918519E+01  0.61786525079E+01  0.43400727739E+02  0.00000000000E+00 0.  1.
         11    1    3    3    0    0  0.10697659965E+02  0.43568066556E+01 -0.45701624169E+01  0.12422080250E+02  0.51100000000E-03 0. -1.
        -11    1    3    3    0    0  0.11272098577E+02  0.89043585892E+01 -0.18092066159E+01  0.14478295378E+02  0.51100000000E-03 0.  1.
         12    1    3    3    0    0  0.20226843812E+02 -0.52054733928E+01  0.20071652499E+00  0.20886896633E+02  0.00000000000E+00 0. -1.
</event>
<event>
 7    1  0.3910751E-009  0.4778728E+02  0.7816164E-02  0.1312668E+00
        -11   -1    0    0    0    0  0.00000000000E+00  0.00000000000E+00  0.45593999997E+02  0.45594000000E+02  0.51100000000E-03 0.  1.
         11   -1    0    0    0    0 -0.00000000000E+00 -0.00000000000E+00 -0.45593999997E+02  0.45594000000E+02  0.51100000000E-03 0. -1.
    9900012    2    1    2    0    0 -0.43270352803E+02 -0.24572679024E+01 -0.22937400544E+01  0.47787276035E+02  0.20000022755E+02 0.  0.
        -12    1    1    2    0    0  0.43270352803E+02  0.24572679024E+01  0.22937400544E+01  0.43400723965E+02  0.00000000000E+00 0.  1.
         11    1    3    3    0    0 -0.21374566384E+02  0.52106755365E+01 -0.59076138789E+01  0.22779884321E+02  0.51100000000E-03 0. -1.
        -11    1    3    3    0    0 -0.10129843024E+02  0.90836502376E+00  0.19079043216E+01  0.10347895722E+02  0.51100000000E-03 0.  1.
        -12    1    3    3    0    0 -0.11765943395E+02 -0.85763084627E+01  0.17059695029E+01  0.14659495993E+02  0.00000000000E+00 0.  1.
</event>
<event>
 7    1  0.3910751E-009  0.4778727E+02  0.7816164E-02  0.1312668E+00
        -11   -1    0    0    0    0  0.00000000000E+00  0.00000000000E+00  0.45593999997E+02  0.45594000000E+02  0.51100000000E-03 0. -1.
         11   -1    0    0    0    0 -0.00000000000E+00 -0.00000000000E+00 -0.45593999997E+02  0.45594000000E+02  0.51100000000E-03 0.  1.
    9900012    2    1    2    0    0  0.71188720275E+01  0.27158888539E+02  0.33095924031E+02  0.47787265524E+02  0.19999974829E+02 0.  0.
        -12    1    1    2    0    0 -0.71188720275E+01 -0.27158888539E+02 -0.33095924031E+02  0.43400734476E+02  0.00000000000E+00 0.  1.
         11    1    3    3    0    0  0.36696176972E+01 -0.18638209186E+01  0.38854857993E+01  0.56601168379E+01  0.51100000000E-03 0.  1.
        -11    1    3    3    0    0  0.33017636950E+01  0.34343450796E+01  0.43903253657E+01  0.64785281277E+01  0.51100000000E-03 0. -1.
        -12    1    3    3    0    0  0.14749063522E+00  0.25588364378E+02  0.24820112866E+02  0.35648620558E+02  0.00000000000E+00 0.  1.
</event>
<event>
 7    1  0.3910751E-009  0.4778725E+02  0.7816164E-02  0.1312668E+00
        -11   -1    0    0    0    0  0.00000000000E+00  0.00000000000E+00  0.45593999997E+02  0.45594000000E+02  0.51100000000E-03 0.  1.
         11   -1    0    0    0    0 -0.00000000000E+00 -0.00000000000E+00 -0.45593999997E+02  0.45594000000E+02  0.51100000000E-03 0. -1.
    9900012    2    1    2    0    0  0.33524366044E+02  0.26489211329E+02 -0.76199370627E+01  0.47787252583E+02  0.19999915828E+02 0.  0.
        -12    1    1    2    0    0 -0.33524366044E+02 -0.26489211329E+02  0.76199370627E+01  0.43400747417E+02  0.00000000000E+00 0.  1.
         11    1    3    3    0    0  0.14415481986E+02  0.16602167331E+02 -0.90642525825E+01  0.23782320243E+02  0.51100000000E-03 0. -1.
        -11    1    3    3    0    0  0.35986401969E+01  0.73515631420E+01 -0.31166335337E+00  0.81910210722E+01  0.51100000000E-03 0.  1.
        -12    1    3    3    0    0  0.15510243861E+02  0.25354808552E+01  0.17559788731E+01  0.15813911268E+02  0.00000000000E+00 0.  1.
</event>
<event>
 7    1  0.3910751E-009  0.4778729E+02  0.7816164E-02  0.1312668E+00
        -11   -1    0    0    0    0  0.00000000000E+00  0.00000000000E+00  0.45593999997E+02  0.45594000000E+02  0.51100000000E-03 0.  1.
         11   -1    0    0    0    0 -0.00000000000E+00 -0.00000000000E+00 -0.45593999997E+02  0.45594000000E+02  0.51100000000E-03 0. -1.
    9900012    2    1    2    0    0  0.22693349353E+02  0.35996973945E+02 -0.85352969339E+01  0.47787291114E+02  0.20000091506E+02 0.  0.
        -12    1    1    2    0    0 -0.22693349353E+02 -0.35996973945E+02  0.85352969339E+01  0.43400708886E+02  0.00000000000E+00 0.  1.
         11    1    3    3    0    0  0.39354934552E+01  0.14270355877E+01 -0.20660207213E+00  0.41913272339E+01  0.51100000000E-03 0. -1.
        -11    1    3    3    0    0 -0.11922471914E+01  0.75449996793E+01  0.29109094334E+01  0.81744643566E+01  0.51100000000E-03 0.  1.
         12    1    3    3    0    0  0.19950103089E+02  0.27024938678E+02 -0.11239604295E+02  0.35421499524E+02  0.00000000000E+00 0. -1.
</event>
<event>
 7    1  0.3910751E-009  0.4778728E+02  0.7816164E-02  0.1312668E+00
        -11   -1    0    0    0    0  0.00000000000E+00  0.00000000000E+00  0.45593999997E+02  0.45594000000E+02  0.51100000000E-03 0.  1.
         11   -1    0    0    0    0 -0.00000000000E+00 -0.00000000000E+00 -0.45593999997E+02  0.45594000000E+02  0.51100000000E-03 0. -1.
    9900012    2    1    2    0    0  0.43791125092E+01 -0.28257765030E+02 -0.32648810519E+02  0.47787277204E+02  0.20000028085E+02 0.  0.
        -12    1    1    2    0    0 -0.43791125092E+01  0.28257765030E+02  0.32648810519E+02  0.43400722796E+02  0.00000000000E+00 0.  1.
         11    1    3    3    0    0 -0.16345327078E+01 -0.33867198411E+01 -0.59490604324E+01  0.70379605529E+01  0.51100000000E-03 0. -1.
        -11    1    3    3    0    0  0.28822925496E+00 -0.12410364847E+02 -0.21063917890E+01  0.12591152384E+02  0.51100000000E-03 0.  1.
         12    1    3    3    0    0  0.57254159620E+01 -0.12460680342E+02 -0.24593358298E+02  0.28158164267E+02  0.00000000000E+00 0. -1.
</event>
<event>
 7    1  0.3910751E-009  0.4778727E+02  0.7816164E-02  0.1312668E+00
        -11   -1    0    0    0    0  0.00000000000E+00  0.00000000000E+00  0.45593999997E+02  0.45594000000E+02  0.51100000000E-03 0. -1.
         11   -1    0    0    0    0 -0.00000000000E+00 -0.00000000000E+00 -0.45593999997E+02  0.45594000000E+02  0.51100000000E-03 0.  1.
    9900012    2    1    2    0    0 -0.38355449148E+02  0.14991855869E+02  0.13701367800E+02  0.47787266120E+02  0.19999977548E+02 0.  0.
        -12    1    1    2    0    0  0.38355449148E+02 -0.14991855869E+02 -0.13701367800E+02  0.43400733880E+02  0.00000000000E+00 0.  1.
         11    1    3    3    0    0 -0.59573056047E+01  0.76356458450E+01 -0.10832710648E+01  0.97450527961E+01  0.51100000000E-03 0. -1.
        -11    1    3    3    0    0 -0.18307207123E+01 -0.11570901874E+01 -0.12389515955E+01  0.24950746172E+01  0.51100000000E-03 0.  1.
         12    1    3    3    0    0 -0.30567422831E+02  0.85133002118E+01  0.16023590460E+02  0.35547138707E+02  0.00000000000E+00 0. -1.
</event>
<event>
 7    1  0.3910751E-009  0.4778726E+02  0.7816164E-02  0.1312668E+00
        -11   -1    0    0    0    0  0.00000000000E+00  0.00000000000E+00  0.45593999997E+02  0.45594000000E+02  0.51100000000E-03 0.  1.
         11   -1    0    0    0    0 -0.00000000000E+00 -0.00000000000E+00 -0.45593999997E+02  0.45594000000E+02  0.51100000000E-03 0. -1.
    9900012    2    1    2    0    0 -0.36002078161E+02 -0.24176877932E+02  0.17184651955E+01  0.47787260593E+02  0.19999952346E+02 0.  0.
        -12    1    1    2    0    0  0.36002078161E+02  0.24176877932E+02 -0.17184651955E+01  0.43400739407E+02  0.00000000000E+00 0.  1.
         11    1    3    3    0    0 -0.10903338896E+02 -0.12605762070E+02  0.68609836463E+01  0.18023904497E+02  0.51100000000E-03 0. -1.
        -11    1    3    3    0    0 -0.59130011903E+01  0.13762336529E+00  0.18953853867E+01  0.62108783028E+01  0.51100000000E-03 0.  1.
         12    1    3    3    0    0 -0.19185738074E+02 -0.11708739227E+02 -0.70379038374E+01  0.23552477793E+02  0.00000000000E+00 0. -1.
</event>
<event>
 7    1  0.3910751E-009  0.4778728E+02  0.7816164E-02  0.1312668E+00
        -11   -1    0    0    0    0  0.00000000000E+00  0.00000000000E+00  0.45593999997E+02  0.45594000000E+02  0.51100000000E-03 0.  1.
         11   -1    0    0    0    0 -0.00000000000E+00 -0.00000000000E+00 -0.45593999997E+02  0.45594000000E+02  0.51100000000E-03 0. -1.
    9900012    2    1    2    0    0 -0.24160235908E+02 -0.33429010137E+02 -0.13505821100E+02  0.47787275105E+02  0.20000018512E+02 0.  0.
        -12    1    1    2    0    0  0.24160235908E+02  0.33429010137E+02  0.13505821100E+02  0.43400724895E+02  0.00000000000E+00 0.  1.
         11    1    3    3    0    0 -0.24342268930E+01 -0.54659423971E+01 -0.27290757676E+01  0.65764611807E+01  0.51100000000E-03 0. -1.
        -11    1    3    3    0    0 -0.20735514051E+02 -0.12784791624E+02 -0.45823430974E+01  0.24787301353E+02  0.51100000000E-03 0.  1.
        -12    1    3    3    0    0 -0.99049496420E+00 -0.15178276116E+02 -0.61944022349E+01  0.16423512571E+02  0.00000000000E+00 0.  1.
</event>
<event>
 7    1  0.3910751E-009  0.4778727E+02  0.7816164E-02  0.1312668E+00
        -11   -1    0    0    0    0  0.00000000000E+00  0.00000000000E+00  0.45593999997E+02  0.45594000000E+02  0.51100000000E-03 0.  1.
         11   -1    0    0    0    0 -0.00000000000E+00 -0.00000000000E+00 -0.45593999997E+02  0.45594000000E+02  0.51100000000E-03 0. -1.
    9900012    2    1    2    0    0  0.26901420734E+02 -0.86264366610E+01 -0.32947252859E+02  0.47787270537E+02  0.19999997686E+02 0.  0.
        -12    1    1    2    0    0 -0.26901420734E+02  0.86264366610E+01  0.32947252859E+02  0.43400729463E+02  0.00000000000E+00 0.  1.
         11    1    3    3    0    0  0.13152118911E+02  0.32694986167E+00 -0.81933248319E+01  0.15498893513E+02  0.51100000000E-03 0.  1.
        -11    1    3    3    0    0  0.73111521646E+01  0.12870658553E+01 -0.44523130053E+01  0.86563604273E+01  0.51100000000E-03 0. -1.
        -12    1    3    3    0    0  0.64381496579E+01 -0.10240452378E+02 -0.20301615022E+02  0.23632016596E+02  0.00000000000E+00 0.  1.
</event>
<event>
 7    1  0.3910751E-009  0.4778728E+02  0.7816164E-02  0.1312668E+00
        -11   -1    0    0    0    0  0.00000000000E+00  0.00000000000E+00  0.45593999997E+02  0.45594000000E+02  0.51100000000E-03 0.  1.
         11   -1    0    0    0    0 -0.00000000000E+00 -0.00000000000E+00 -0.45593999997E+02  0.45594000000E+02  0.51100000000E-03 0. -1.
    9900012    2    1    2    0    0  0.18448843735E+02 -0.10012729910E+02 -0.37986944513E+02  0.47787279397E+02  0.20000038084E+02 0.  0.
        -12    1    1    2    0    0 -0.18448843735E+02  0.10012729910E+02  0.37986944513E+02  0.43400720603E+02  0.00000000000E+00 0.  1.
         11    1    3    3    0    0  0.19325666832E+01  0.30761933901E+01 -0.35795059967E+01  0.51000630584E+01  0.51100000000E-03 0. -1.
        -11    1    3    3    0    0  0.53764866636E+01 -0.82999907020E+01 -0.54454302424E+01  0.11289338567E+02  0.51100000000E-03 0.  1.
         12    1    3    3    0    0  0.11139790388E+02 -0.47889325980E+01 -0.28962008274E+02  0.31397877772E+02  0.00000000000E+00 0. -1.
</event>
<event>
 7    1  0.3910751E-009  0.4778727E+02  0.7816164E-02  0.1312668E+00
        -11   -1    0    0    0    0  0.00000000000E+00  0.00000000000E+00  0.45593999997E+02  0.45594000000E+02  0.51100000000E-03 0. -1.
         11   -1    0    0    0    0 -0.00000000000E+00 -0.00000000000E+00 -0.45593999997E+02  0.45594000000E+02  0.51100000000E-03 0.  1.
    9900012    2    1    2    0    0  0.31521120429E+02 -0.76681710361E+01  0.28831256341E+02  0.47787271638E+02  0.20000002707E+02 0.  0.
        -12    1    1    2    0    0 -0.31521120429E+02  0.76681710361E+01 -0.28831256341E+02  0.43400728362E+02  0.00000000000E+00 0.  1.
         11    1    3    3    0    0  0.40958567460E+01 -0.49890417852E+01  0.93937205092E+01  0.11397743886E+02  0.51100000000E-03 0. -1.
        -11    1    3    3    0    0  0.12806393653E+02 -0.53598715038E+01  0.29516883095E+01  0.14193111183E+02  0.51100000000E-03 0.  1.
        -12    1    3    3    0    0  0.14618870030E+02  0.26807422528E+01  0.16485847522E+02  0.22196416569E+02  0.00000000000E+00 0.  1.
</event>
<event>
 7    1  0.3910751E-009  0.4778727E+02  0.7816164E-02  0.1312668E+00
        -11   -1    0    0    0    0  0.00000000000E+00  0.00000000000E+00  0.45593999997E+02  0.45594000000E+02  0.51100000000E-03 0.  1.
         11   -1    0    0    0    0 -0.00000000000E+00 -0.00000000000E+00 -0.45593999997E+02  0.45594000000E+02  0.51100000000E-03 0. -1.
    9900012    2    1    2    0    0  0.29280768399E+02 -0.12204101159E+02 -0.29619582370E+02  0.47787272553E+02  0.20000006878E+02 0.  0.
        -12    1    1    2    0    0 -0.29280768399E+02  0.12204101159E+02  0.29619582370E+02  0.43400727447E+02  0.00000000000E+00 0.  1.
         11    1    3    3    0    0  0.49851133400E+01 -0.32472743041E+00 -0.98288972407E+01  0.11025607654E+02  0.51100000000E-03 0. -1.
        -11    1    3    3    0    0 -0.68004496667E+00  0.19667667160E+01 -0.29457784856E+01  0.36066942785E+01  0.51100000000E-03 0.  1.
         12    1    3    3    0    0  0.24975700026E+02 -0.13846140445E+02 -0.16844906644E+02  0.33154970620E+02  0.00000000000E+00 0. -1.
</event>
<event>
 7    1  0.3910751E-009  0.4778727E+02  0.7816164E-02  0.1312668E+00
        -11   -1    0    0    0    0  0.00000000000E+00  0.00000000000E+00  0.45593999997E+02  0.45594000000E+02  0.51100000000E-03 0. -1.
         11   -1    0    0    0    0 -0.00000000000E+00 -0.00000000000E+00 -0.45593999997E+02  0.45594000000E+02  0.51100000000E-03 0.  1.
    9900012    2    1    2    0    0  0.15889349002E+02  0.15348672649E+02  0.37357328535E+02  0.47787272367E+02  0.20000006031E+02 0.  0.
        -12    1    1    2    0    0 -0.15889349002E+02 -0.15348672649E+02 -0.37357328535E+02  0.43400727633E+02  0.00000000000E+00 0.  1.
         11    1    3    3    0    0  0.11389935133E+01  0.34905927756E+01  0.14543379958E+01  0.39492585906E+01  0.51100000000E-03 0. -1.
        -11    1    3    3    0    0  0.10771160351E+02  0.94995932654E+01  0.99397336167E+01  0.17465923169E+02  0.51100000000E-03 0.  1.
         12    1    3    3    0    0  0.39791951381E+01  0.23584866086E+01  0.25963256922E+02  0.26372090608E+02  0.00000000000E+00 0. -1.
</event>
<event>
 7    1  0.3910751E-009  0.4778727E+02  0.7816164E-02  0.1312668E+00
        -11   -1    0    0    0    0  0.00000000000E+00  0.00000000000E+00  0.45593999997E+02  0.45594000000E+02  0.51100000000E-03 0.  1.
         11   -1    0    0    0    0 -0.00000000000E+00 -0.00000000000E+00 -0.45593999997E+02  0.45594000000E+02  0.51100000000E-03 0. -1.
    9900012    2    1    2    0    0  0.13566967028E+02 -0.13945745011E+02 -0.38795324115E+02  0.47787267616E+02  0.19999984370E+02 0.  0.
        -12    1    1    2    0    0 -0.13566967028E+02  0.13945745011E+02  0.38795324115E+02  0.43400732384E+02  0.00000000000E+00 0.  1.
         11    1    3    3    0    0 -0.25881333862E+01 -0.78822862192E+00 -0.11300311034E+01  0.29320145534E+01  0.51100000000E-03 0. -1.
        -11    1    3    3    0    0  0.10548264266E+01 -0.38259620042E+01 -0.96021444233E+00  0.40832163896E+01  0.51100000000E-03 0.  1.
         12    1    3    3    0    0  0.15100273987E+02 -0.93315543854E+01 -0.36705078569E+02  0.40772036673E+02  0.00000000000E+00 0. -1.
</event>
<event>
 7    1  0.3910751E-009  0.4778727E+02  0.7816164E-02  0.1312668E+00
        -11   -1    0    0    0    0  0.00000000000E+00  0.00000000000E+00  0.45593999997E+02  0.45594000000E+02  0.51100000000E-03 0.  1.
         11   -1    0    0    0    0 -0.00000000000E+00 -0.00000000000E+00 -0.45593999997E+02  0.45594000000E+02  0.51100000000E-03 0. -1.
    9900012    2    1    2    0    0 -0.19540326731E+02  0.33102774061E+02 -0.20149566939E+02  0.47787273426E+02  0.20000010859E+02 0.  0.
        -12    1    1    2    0    0  0.19540326731E+02 -0.33102774061E+02  0.20149566939E+02  0.43400726574E+02  0.00000000000E+00 0.  1.
         11    1    3    3    0    0 -0.45622510120E+01  0.13496608523E+02 -0.15741534930E+02  0.21231309383E+02  0.51100000000E-03 0. -1.
        -11    1    3    3    0    0 -0.29948462286E+01  0.68234319271E+01 -0.50853213756E+01  0.90215753032E+01  0.51100000000E-03 0.  1.
        -12    1    3    3    0    0 -0.11983229491E+02  0.12782733611E+02  0.67728936631E+00  0.17534388740E+02  0.00000000000E+00 0.  1.
</event>
<event>
 7    1  0.3910751E-009  0.4778727E+02  0.7816164E-02  0.1312668E+00
        -11   -1    0    0    0    0  0.00000000000E+00  0.00000000000E+00  0.45593999997E+02  0.45594000000E+02  0.51100000000E-03 0. -1.
         11   -1    0    0    0    0 -0.00000000000E+00 -0.00000000000E+00 -0.45593999997E+02  0.45594000000E+02  0.51100000000E-03 0.  1.
    9900012    2    1    2    0    0  0.93580151032E+01 -0.19202164990E+02  0.37779986514E+02  0.47787274569E+02  0.20000016070E+02 0.  0.
        -12    1    1    2    0    0 -0.93580151032E+01  0.19202164990E+02 -0.37779986514E+02  0.43400725431E+02  0.00000000000E+00 0.  1.
         11    1    3    3    0    0  0.72097960036E+01 -0.48095086455E+01  0.77136509428E+01  0.11602281799E+02  0.51100000000E-03 0. -1.
        -11    1    3    3    0    0  0.65102951465E+01 -0.11942678606E+02  0.14712909647E+02  0.20036996425E+02  0.51100000000E-03 0.  1.
        -12    1    3    3    0    0 -0.43620760469E+01 -0.24499777383E+01  0.15353425923E+02  0.16147996345E+02  0.00000000000E+00 0.  1.
</event>
<event>
 7    1  0.3910751E-009  0.4778727E+02  0.7816164E-02  0.1312668E+00
        -11   -1    0    0    0    0  0.00000000000E+00  0.00000000000E+00  0.45593999997E+02  0.45594000000E+02  0.51100000000E-03 0.  1.
         11   -1    0    0    0    0 -0.00000000000E+00 -0.00000000000E+00 -0.45593999997E+02  0.45594000000E+02  0.51100000000E-03 0. -1.
    9900012    2    1    2    0    0  0.14340471751E+02 -0.12079755813E+02 -0.39141456915E+02  0.47787270974E+02  0.19999999680E+02 0.  0.
        -12    1    1    2    0    0 -0.14340471751E+02  0.12079755813E+02  0.39141456915E+02  0.43400729026E+02  0.00000000000E+00 0.  1.
         11    1    3    3    0    0  0.46719266070E+01 -0.13937307710E+02 -0.27931579355E+02  0.31563405550E+02  0.51100000000E-03 0. -1.
        -11    1    3    3    0    0 -0.64177335737E+00 -0.82242701558E+00 -0.13691170210E+01  0.17212614318E+01  0.51100000000E-03 0.  1.
        -12    1    3    3    0    0  0.10310318501E+02  0.26799789125E+01 -0.98407605393E+01  0.14502603992E+02  0.00000000000E+00 0.  1.
</event>
<event>
 7    1  0.3910751E-009  0.4778727E+02  0.7816164E-02  0.1312668E+00
        -11   -1    0    0    0    0  0.00000000000E+00  0.00000000000E+00  0.45593999997E+02  0.45594000000E+02  0.51100000000E-03 0.  1.
         11   -1    0    0    0    0 -0.00000000000E+00 -0.00000000000E+00 -0.45593999997E+02  0.45594000000E+02  0.51100000000E-03 0. -1.
    9900012    2    1    2    0    0 -0.22687003264E+02  0.34454527540E+01 -0.36838186073E+02  0.47787271724E+02  0.20000003097E+02 0.  0.
        -12    1    1    2    0    0  0.22687003264E+02 -0.34454527540E+01  0.36838186073E+02  0.43400728276E+02  0.00000000000E+00 0.  1.
         11    1    3    3    0    0 -0.10880539976E+02  0.51358089253E+01 -0.30838716262E+02  0.33102705395E+02  0.51100000000E-03 0. -1.
        -11    1    3    3    0    0 -0.74149304986E+01  0.20268796516E+00 -0.65177663144E+01  0.98743888267E+01  0.51100000000E-03 0.  1.
         12    1    3    3    0    0 -0.43915327885E+01 -0.18930441365E+01  0.51829650383E+00  0.48101775020E+01  0.00000000000E+00 0. -1.
</event>
<event>
 7    1  0.3910751E-009  0.4778727E+02  0.7816164E-02  0.1312668E+00
        -11   -1    0    0    0    0  0.00000000000E+00  0.00000000000E+00  0.45593999997E+02  0.45594000000E+02  0.51100000000E-03 0.  1.
         11   -1    0    0    0    0 -0.00000000000E+00 -0.00000000000E+00 -0.45593999997E+02  0.45594000000E+02  0.51100000000E-03 0. -1.
    9900012    2    1    2    0    0  0.22721685322E+02  0.36339771879E+02 -0.68388105285E+01  0.47787270357E+02  0.19999996865E+02 0.  0.
        -12    1    1    2    0    0 -0.22721685322E+02 -0.36339771879E+02  0.68388105285E+01  0.43400729643E+02  0.00000000000E+00 0.  1.
         11    1    3    3    0    0  0.15452899991E+02  0.31430191328E+02 -0.52597725810E+01  0.35416299255E+02  0.51100000000E-03 0. -1.
        -11    1    3    3    0    0  0.74166330283E+01  0.69344439664E+01 -0.76046385496E+00  0.10181908669E+02  0.51100000000E-03 0.  1.
        -12    1    3    3    0    0 -0.14784769755E+00 -0.20248634151E+01 -0.81857409257E+00  0.21890624333E+01  0.00000000000E+00 0.  1.
</event>
<event>
 7    1  0.3910751E-009  0.4778727E+02  0.7816164E-02  0.1312668E+00
        -11   -1    0    0    0    0  0.00000000000E+00  0.00000000000E+00  0.45593999997E+02  0.45594000000E+02  0.51100000000E-03 0.  1.
         11   -1    0    0    0    0 -0.00000000000E+00 -0.00000000000E+00 -0.45593999997E+02  0.45594000000E+02  0.51100000000E-03 0. -1.
    9900012    2    1    2    0    0 -0.13501046003E+02 -0.37835452382E+02 -0.16426302990E+02  0.47787272702E+02  0.20000007556E+02 0.  0.
        -12    1    1    2    0    0  0.13501046003E+02  0.37835452382E+02  0.16426302990E+02  0.43400727298E+02  0.00000000000E+00 0.  1.
         11    1    3    3    0    0 -0.10467523247E+02 -0.14902987560E+02 -0.12543005986E+02  0.22113233155E+02  0.51100000000E-03 0. -1.
        -11    1    3    3    0    0 -0.55561356623E+01 -0.57998697724E+01 -0.65536018454E+00  0.80584508503E+01  0.51100000000E-03 0.  1.
        -12    1    3    3    0    0  0.25226129064E+01 -0.17132595050E+02 -0.32279368188E+01  0.17615588697E+02  0.00000000000E+00 0.  1.
</event>
<event>
 7    1  0.3910751E-009  0.4778727E+02  0.7816164E-02  0.1312668E+00
        -11   -1    0    0    0    0  0.00000000000E+00  0.00000000000E+00  0.45593999997E+02  0.45594000000E+02  0.51100000000E-03 0.  1.
         11   -1    0    0    0    0 -0.00000000000E+00 -0.00000000000E+00 -0.45593999997E+02  0.45594000000E+02  0.51100000000E-03 0. -1.
    9900012    2    1    2    0    0 -0.46192861410E+01 -0.88426391115E+01 -0.42238528778E+02  0.47787269773E+02  0.19999994204E+02 0.  0.
        -12    1    1    2    0    0  0.46192861410E+01  0.88426391115E+01  0.42238528778E+02  0.43400730227E+02  0.00000000000E+00 0.  1.
         11    1    3    3    0    0 -0.24864281083E+01  0.53928673587E+01 -0.17102284234E+02  0.18103962809E+02  0.51100000000E-03 0.  1.
        -11    1    3    3    0    0  0.15659697205E+01 -0.16056909158E+01 -0.64426738049E+01  0.68219169227E+01  0.51100000000E-03 0. -1.
        -12    1    3    3    0    0 -0.36988277532E+01 -0.12629815554E+02 -0.18693570738E+02  0.22861390042E+02  0.00000000000E+00 0.  1.
</event>
<event>
 7    1  0.3910751E-009  0.4778727E+02  0.7816164E-02  0.1312668E+00
        -11   -1    0    0    0    0  0.00000000000E+00  0.00000000000E+00  0.45593999997E+02  0.45594000000E+02  0.51100000000E-03 0.  1.
         11   -1    0    0    0    0 -0.00000000000E+00 -0.00000000000E+00 -0.45593999997E+02  0.45594000000E+02  0.51100000000E-03 0. -1.
    9900012    2    1    2    0    0  0.32914106328E+02 -0.24069455839E+02 -0.14864265094E+02  0.47787268709E+02  0.19999989353E+02 0.  0.
        -12    1    1    2    0    0 -0.32914106328E+02  0.24069455839E+02  0.14864265094E+02  0.43400731291E+02  0.00000000000E+00 0.  1.
         11    1    3    3    0    0  0.10574288418E+02 -0.80794990878E+01 -0.37553998824E+00  0.13312960287E+02  0.51100000000E-03 0. -1.
        -11    1    3    3    0    0  0.11325679381E+02 -0.78249021934E+01  0.98399859699E+00  0.13801027545E+02  0.51100000000E-03 0.  1.
         12    1    3    3    0    0  0.11014138529E+02 -0.81650545576E+01 -0.15472723703E+02  0.20673280878E+02  0.00000000000E+00 0. -1.
</event>
<event>
 7    1  0.3910751E-009  0.4778727E+02  0.7816164E-02  0.1312668E+00
        -11   -1    0    0    0    0  0.00000000000E+00  0.00000000000E+00  0.45593999997E+02  0.45594000000E+02  0.51100000000E-03 0.  1.
         11   -1    0    0    0    0 -0.00000000000E+00 -0.00000000000E+00 -0.45593999997E+02  0.45594000000E+02  0.51100000000E-03 0. -1.
    9900012    2    1    2    0    0  0.32705028452E+01  0.20827483878E-01 -0.43277323184E+02  0.47787270460E+02  0.19999997335E+02 0.  0.
        -12    1    1    2    0    0 -0.32705028452E+01 -0.20827483878E-01  0.43277323184E+02  0.43400729540E+02  0.00000000000E+00 0.  1.
         11    1    3    3    0    0  0.59206430759E+01  0.42479845197E+01 -0.34467821518E+02  0.35229676515E+02  0.51100000000E-03 0. -1.
        -11    1    3    3    0    0  0.24445355103E+01 -0.90699456219E+00 -0.41311666204E+01  0.48851746032E+01  0.51100000000E-03 0.  1.
        -12    1    3    3    0    0 -0.50946757410E+01 -0.33201624737E+01 -0.46783350459E+01  0.76724193420E+01  0.00000000000E+00 0.  1.
</event>
<event>
 7    1  0.3910751E-009  0.4778727E+02  0.7816164E-02  0.1312668E+00
        -11   -1    0    0    0    0  0.00000000000E+00  0.00000000000E+00  0.45593999997E+02  0.45594000000E+02  0.51100000000E-03 0.  1.
         11   -1    0    0    0    0 -0.00000000000E+00 -0.00000000000E+00 -0.45593999997E+02  0.45594000000E+02  0.51100000000E-03 0. -1.
    9900012    2    1    2    0    0 -0.33012993527E+02  0.18375498545E+02 -0.21356647607E+02  0.47787273216E+02  0.20000009900E+02 0.  0.
        -12    1    1    2    0    0  0.33012993527E+02 -0.18375498545E+02  0.21356647607E+02  0.43400726784E+02  0.00000000000E+00 0.  1.
         11    1    3    3    0    0 -0.15305609131E+02  0.12266287790E+02 -0.13670933069E+02  0.23908531914E+02  0.51100000000E-03 0. -1.
        -11    1    3    3    0    0 -0.15890779395E+02  0.85740870889E+01 -0.94135823206E+01  0.20362892024E+02  0.51100000000E-03 0.  1.
        -12    1    3    3    0    0 -0.18166050011E+01 -0.24648763343E+01  0.17278677829E+01  0.35158492785E+01  0.00000000000E+00 0.  1.
</event>
<event>
 7    1  0.3910751E-009  0.4778727E+02  0.7816164E-02  0.1312668E+00
        -11   -1    0    0    0    0  0.00000000000E+00  0.00000000000E+00  0.45593999997E+02  0.45594000000E+02  0.51100000000E-03 0.  1.
         11   -1    0    0    0    0 -0.00000000000E+00 -0.00000000000E+00 -0.45593999997E+02  0.45594000000E+02  0.51100000000E-03 0. -1.
    9900012    2    1    2    0    0 -0.14911247848E+02  0.27657843245E+02 -0.29938639710E+02  0.47787265524E+02  0.19999974830E+02 0.  0.
        -12    1    1    2    0    0  0.14911247848E+02 -0.27657843245E+02  0.29938639710E+02  0.43400734476E+02  0.00000000000E+00 0.  1.
         11    1    3    3    0    0 -0.76273686327E+01  0.72248840062E+01 -0.32965237543E+01  0.11011029483E+02  0.51100000000E-03 0. -1.
        -11    1    3    3    0    0 -0.10932561309E+01  0.18831540085E+02 -0.21223717323E+02  0.28394863765E+02  0.51100000000E-03 0.  1.
         12    1    3    3    0    0 -0.61906230847E+01  0.16014191540E+01 -0.54183986327E+01  0.83813722759E+01  0.00000000000E+00 0. -1.
</event>
<event>
 7    1  0.3910751E-009  0.4778727E+02  0.7816164E-02  0.1312668E+00
        -11   -1    0    0    0    0  0.00000000000E+00  0.00000000000E+00  0.45593999997E+02  0.45594000000E+02  0.51100000000E-03 0.  1.
         11   -1    0    0    0    0 -0.00000000000E+00 -0.00000000000E+00 -0.45593999997E+02  0.45594000000E+02  0.51100000000E-03 0. -1.
    9900012    2    1    2    0    0  0.30502138058E+02  0.93417369083E+00 -0.30860494188E+02  0.47787271802E+02  0.20000003455E+02 0.  0.
        -12    1    1    2    0    0 -0.30502138058E+02 -0.93417369083E+00  0.30860494188E+02  0.43400728198E+02  0.00000000000E+00 0.  1.
         11    1    3    3    0    0  0.12792823354E+02  0.58268460647E+01 -0.23400742371E+02  0.27298410360E+02  0.51100000000E-03 0. -1.
        -11    1    3    3    0    0  0.71164815479E+01 -0.26824038382E+01 -0.57486372030E+01  0.95334374664E+01  0.51100000000E-03 0.  1.
         12    1    3    3    0    0  0.10592833155E+02 -0.22102685357E+01 -0.17111146142E+01  0.10955423975E+02  0.00000000000E+00 0. -1.
</event>
<event>
 7    1  0.3910751E-009  0.4778727E+02  0.7816164E-02  0.1312668E+00
        -11   -1    0    0    0    0  0.00000000000E+00  0.00000000000E+00  0.45593999997E+02  0.45594000000E+02  0.51100000000E-03 0.  1.
         11   -1    0    0    0    0 -0.00000000000E+00 -0.00000000000E+00 -0.45593999997E+02  0.45594000000E+02  0.51100000000E-03 0. -1.
    9900012    2    1    2    0    0 -0.16400162697E+01  0.42961313545E+02  0.59379615312E+01  0.47787268416E+02  0.19999988016E+02 0.  0.
        -12    1    1    2    0    0  0.16400162697E+01 -0.42961313545E+02 -0.59379615312E+01  0.43400731584E+02  0.00000000000E+00 0.  1.
         11    1    3    3    0    0 -0.10546333105E+01  0.23280148418E+02 -0.38172650774E+01  0.23614594528E+02  0.51100000000E-03 0. -1.
        -11    1    3    3    0    0 -0.38201426751E+01  0.13424028552E+02  0.27244609047E+01  0.14220433190E+02  0.51100000000E-03 0.  1.
        -12    1    3    3    0    0  0.32347597159E+01  0.62571365750E+01  0.70307657039E+01  0.99522406985E+01  0.00000000000E+00 0.  1.
</event>
<event>
 7    1  0.3910751E-009  0.4778726E+02  0.7816164E-02  0.1312668E+00
        -11   -1    0    0    0    0  0.00000000000E+00  0.00000000000E+00  0.45593999997E+02  0.45594000000E+02  0.51100000000E-03 0. -1.
         11   -1    0    0    0    0 -0.00000000000E+00 -0.00000000000E+00 -0.45593999997E+02  0.45594000000E+02  0.51100000000E-03 0.  1.
    9900012    2    1    2    0    0 -0.26795957221E+02  0.23612029726E+02 -0.24659127355E+02  0.47787264602E+02  0.19999970628E+02 0.  0.
        -12    1    1    2    0    0  0.26795957221E+02 -0.23612029726E+02  0.24659127355E+02  0.43400735398E+02  0.00000000000E+00 0.  1.
         11    1    3    3    0    0  0.22226462493E+00  0.22497801957E+01 -0.57833923347E+01  0.62095522906E+01  0.51100000000E-03 0. -1.
        -11    1    3    3    0    0 -0.63640798801E+01 -0.11637815616E+01 -0.28561712147E+01  0.70720304377E+01  0.51100000000E-03 0.  1.
         12    1    3    3    0    0 -0.20654141966E+02  0.22526031092E+02 -0.16019563806E+02  0.34505681874E+02  0.00000000000E+00 0. -1.
</event>
<event>
 7    1  0.3910751E-009  0.4778728E+02  0.7816164E-02  0.1312668E+00
        -11   -1    0    0    0    0  0.00000000000E+00  0.00000000000E+00  0.45593999997E+02  0.45594000000E+02  0.51100000000E-03 0.  1.
         11   -1    0    0    0    0 -0.00000000000E+00 -0.00000000000E+00 -0.45593999997E+02  0.45594000000E+02  0.51100000000E-03 0. -1.
    9900012    2    1    2    0    0 -0.17411983331E+02  0.32738440355E+02 -0.22553052350E+02  0.47787276380E+02  0.20000024326E+02 0.  0.
        -12    1    1    2    0    0  0.17411983331E+02 -0.32738440355E+02  0.22553052350E+02  0.43400723620E+02  0.00000000000E+00 0.  1.
         11    1    3    3    0    0 -0.97152312976E+00  0.65246594449E+00 -0.55773153081E+01  0.56987731406E+01  0.51100000000E-03 0. -1.
        -11    1    3    3    0    0 -0.15114995485E+02  0.22087600726E+02 -0.64909024840E+01  0.27540098214E+02  0.51100000000E-03 0.  1.
         12    1    3    3    0    0 -0.13254647166E+01  0.99983736851E+01 -0.10484834558E+02  0.14548405025E+02  0.00000000000E+00 0. -1.
</event>
<event>
 7    1  0.3910751E-009  0.4778727E+02  0.7816164E-02  0.1312668E+00
        -11   -1    0    0    0    0  0.00000000000E+00  0.00000000000E+00  0.45593999997E+02  0.45594000000E+02  0.51100000000E-03 0.  1.
         11   -1    0    0    0    0 -0.00000000000E+00 -0.00000000000E+00 -0.45593999997E+02  0.45594000000E+02  0.51100000000E-03 0. -1.
    9900012    2    1    2    0    0 -0.18098060050E+02 -0.39378017893E+02 -0.23356224979E+01  0.47787271858E+02  0.20000003710E+02 0.  0.
        -12    1    1    2    0    0  0.18098060050E+02  0.39378017893E+02  0.23356224979E+01  0.43400728142E+02  0.00000000000E+00 0.  1.
         11    1    3    3    0    0 -0.12867563364E+02 -0.22779536124E+02  0.54819686414E+01  0.26730758190E+02  0.51100000000E-03 0. -1.
        -11    1    3    3    0    0  0.50531973086E+00  0.66311610157E+00  0.58643076917E+00  0.10192999081E+01  0.51100000000E-03 0.  1.
        -12    1    3    3    0    0 -0.57358164166E+01 -0.17261597871E+02 -0.84040219085E+01  0.20037213760E+02  0.00000000000E+00 0.  1.
</event>
<event>
 7    1  0.3910751E-009  0.4778727E+02  0.7816164E-02  0.1312668E+00
        -11   -1    0    0    0    0  0.00000000000E+00  0.00000000000E+00  0.45593999997E+02  0.45594000000E+02  0.51100000000E-03 0.  1.
         11   -1    0    0    0    0 -0.00000000000E+00 -0.00000000000E+00 -0.45593999997E+02  0.45594000000E+02  0.51100000000E-03 0. -1.
    9900012    2    1    2    0    0  0.17946225747E+02 -0.35390767038E+01 -0.39357733097E+02  0.47787271469E+02  0.20000001938E+02 0.  0.
        -12    1    1    2    0    0 -0.17946225747E+02  0.35390767038E+01  0.39357733097E+02  0.43400728531E+02  0.00000000000E+00 0.  1.
         11    1    3    3    0    0  0.13577396798E+01 -0.18177712475E+01 -0.29366872820E+01  0.37110486118E+01  0.51100000000E-03 0. -1.
        -11    1    3    3    0    0  0.13541151659E+02  0.71209091337E+01 -0.25056118458E+02  0.29357779337E+02  0.51100000000E-03 0.  1.
        -12    1    3    3    0    0  0.30473344080E+01 -0.88422145900E+01 -0.11364927357E+02  0.14718443521E+02  0.00000000000E+00 0.  1.
</event>
<event>
 7    1  0.3910751E-009  0.4778727E+02  0.7816164E-02  0.1312668E+00
        -11   -1    0    0    0    0  0.00000000000E+00  0.00000000000E+00  0.45593999997E+02  0.45594000000E+02  0.51100000000E-03 0.  1.
         11   -1    0    0    0    0 -0.00000000000E+00 -0.00000000000E+00 -0.45593999997E+02  0.45594000000E+02  0.51100000000E-03 0. -1.
    9900012    2    1    2    0    0 -0.33217256162E+02  0.27124958374E+02 -0.66688666827E+01  0.47787271243E+02  0.20000000908E+02 0.  0.
        -12    1    1    2    0    0  0.33217256162E+02 -0.27124958374E+02  0.66688666827E+01  0.43400728757E+02  0.00000000000E+00 0.  1.
         11    1    3    3    0    0 -0.26518850042E+01  0.61927458099E+00  0.11470101211E+01  0.29549327507E+01  0.51100000000E-03 0.  1.
        -11    1    3    3    0    0 -0.19872113567E+02  0.21527849603E+02  0.21699491827E+01  0.29377846855E+02  0.51100000000E-03 0. -1.
         12    1    3    3    0    0 -0.10693257591E+02  0.49778341905E+01 -0.99858259864E+01  0.15454491638E+02  0.00000000000E+00 0. -1.
</event>
<event>
 7    1  0.3910751E-009  0.4778726E+02  0.7816164E-02  0.1312668E+00
        -11   -1    0    0    0    0  0.00000000000E+00  0.00000000000E+00  0.45593999997E+02  0.45594000000E+02  0.51100000000E-03 0.  1.
         11   -1    0    0    0    0 -0.00000000000E+00 -0.00000000000E+00 -0.45593999997E+02  0.45594000000E+02  0.51100000000E-03 0. -1.
    9900012    2    1    2    0    0 -0.12562122852E+02 -0.41478335297E+02 -0.23161825341E+01  0.47787263472E+02  0.19999965476E+02 0.  0.
        -12    1    1    2    0    0  0.12562122852E+02  0.41478335297E+02  0.23161825341E+01  0.43400736528E+02  0.00000000000E+00 0.  1.
         11    1    3    3    0    0 -0.24836879047E+01  0.13017459724E+00 -0.32290556818E+01  0.40758375692E+01  0.51100000000E-03 0. -1.
        -11    1    3    3    0    0 -0.25311467445E+01 -0.13775919568E+02 -0.37483674809E+01  0.14499411120E+02  0.51100000000E-03 0.  1.
        -12    1    3    3    0    0 -0.75472882029E+01 -0.27832590327E+02  0.46612406286E+01  0.29212014784E+02  0.00000000000E+00 0.  1.
</event>
<event>
 7    1  0.3910751E-009  0.4778727E+02  0.7816164E-02  0.1312668E+00
        -11   -1    0    0    0    0  0.00000000000E+00  0.00000000000E+00  0.45593999997E+02  0.45594000000E+02  0.51100000000E-03 0.  1.
         11   -1    0    0    0    0 -0.00000000000E+00 -0.00000000000E+00 -0.45593999997E+02  0.45594000000E+02  0.51100000000E-03 0. -1.
    9900012    2    1    2    0    0 -0.10683220621E+02 -0.36639397871E+02  0.20665108852E+02  0.47787269556E+02  0.19999993215E+02 0.  0.
        -12    1    1    2    0    0  0.10683220621E+02  0.36639397871E+02 -0.20665108852E+02  0.43400730444E+02  0.00000000000E+00 0.  1.
         11    1    3    3    0    0 -0.12985230931E+01 -0.14520471795E+02  0.79689354035E+00  0.14600181607E+02  0.51100000000E-03 0. -1.
        -11    1    3    3    0    0 -0.10832721711E+01  0.96589748166E-01 -0.10884175500E+01  0.15386556472E+01  0.51100000000E-03 0.  1.
        -12    1    3    3    0    0 -0.83014253571E+01 -0.22215515824E+02  0.20956632862E+02  0.31648432302E+02  0.00000000000E+00 0.  1.
</event>
<event>
 7    1  0.3910751E-009  0.4778730E+02  0.7816164E-02  0.1312668E+00
        -11   -1    0    0    0    0  0.00000000000E+00  0.00000000000E+00  0.45593999997E+02  0.45594000000E+02  0.51100000000E-03 0. -1.
         11   -1    0    0    0    0 -0.00000000000E+00 -0.00000000000E+00 -0.45593999997E+02  0.45594000000E+02  0.51100000000E-03 0.  1.
    9900012    2    1    2    0    0  0.13936653537E+02  0.36507722974E+02  0.18883247298E+02  0.47787295201E+02  0.20000110137E+02 0.  0.
        -12    1    1    2    0    0 -0.13936653537E+02 -0.36507722974E+02 -0.18883247298E+02  0.43400704799E+02  0.00000000000E+00 0.  1.
         11    1    3    3    0    0  0.39864649777E+01  0.22462912143E+01 -0.58861339937E+00  0.46134795148E+01  0.51100000000E-03 0. -1.
        -11    1    3    3    0    0  0.95554878152E+00 -0.89087610748E+00 -0.87611409592E+00  0.15729939234E+01  0.51100000000E-03 0.  1.
         12    1    3    3    0    0  0.89946397775E+01  0.35152307867E+02  0.20347974793E+02  0.41600821762E+02  0.00000000000E+00 0. -1.
</event>
<event>
 7    1  0.3910751E-009  0.4778727E+02  0.7816164E-02  0.1312668E+00
        -11   -1    0    0    0    0  0.00000000000E+00  0.00000000000E+00  0.45593999997E+02  0.45594000000E+02  0.51100000000E-03 0.  1.
         11   -1    0    0    0    0 -0.00000000000E+00 -0.00000000000E+00 -0.45593999997E+02  0.45594000000E+02  0.51100000000E-03 0. -1.
    9900012    2    1    2    0    0  0.89383039168E+01  0.63502847071E+01 -0.41992902518E+02  0.47787271266E+02  0.20000001009E+02 0.  0.
        -12    1    1    2    0    0 -0.89383039168E+01 -0.63502847071E+01  0.41992902518E+02  0.43400728734E+02  0.00000000000E+00 0.  1.
         11    1    3    3    0    0 -0.95106720149E+00 -0.14167267484E+01 -0.48723485088E+01  0.51625016953E+01  0.51100000000E-03 0.  1.
        -11    1    3    3    0    0 -0.17706849368E+01  0.82203427052E+01 -0.97785415139E+01  0.12896869145E+02  0.51100000000E-03 0. -1.
        -12    1    3    3    0    0  0.11660056055E+02 -0.45333124960E+00 -0.27342012495E+02  0.29727900426E+02  0.00000000000E+00 0.  1.
</event>
<event>
 7    1  0.3910751E-009  0.4778727E+02  0.7816164E-02  0.1312668E+00
        -11   -1    0    0    0    0  0.00000000000E+00  0.00000000000E+00  0.45593999997E+02  0.45594000000E+02  0.51100000000E-03 0.  1.
         11   -1    0    0    0    0 -0.00000000000E+00 -0.00000000000E+00 -0.45593999997E+02  0.45594000000E+02  0.51100000000E-03 0. -1.
    9900012    2    1    2    0    0  0.35842979313E+02  0.23215841247E+02  0.77413617739E+01  0.47787272668E+02  0.20000007404E+02 0.  0.
        -12    1    1    2    0    0 -0.35842979313E+02 -0.23215841247E+02 -0.77413617739E+01  0.43400727332E+02  0.00000000000E+00 0.  1.
         11    1    3    3    0    0  0.17783528518E+02  0.14024347057E+02  0.57366499301E+01  0.23363333443E+02  0.51100000000E-03 0. -1.
        -11    1    3    3    0    0  0.12156458143E+02  0.12223448608E+02  0.35715818833E+01  0.17605350547E+02  0.51100000000E-03 0.  1.
        -12    1    3    3    0    0  0.59029926521E+01 -0.30319544182E+01 -0.15668700394E+01  0.68185886783E+01  0.00000000000E+00 0.  1.
</event>
<event>
 7    1  0.3910751E-009  0.4778729E+02  0.7816164E-02  0.1312668E+00
        -11   -1    0    0    0    0  0.00000000000E+00  0.00000000000E+00  0.45593999997E+02  0.45594000000E+02  0.51100000000E-03 0.  1.
         11   -1    0    0    0    0 -0.00000000000E+00 -0.00000000000E+00 -0.45593999997E+02  0.45594000000E+02  0.51100000000E-03 0. -1.
    9900012    2    1    2    0    0  0.10786730924E+02 -0.96508745978E+01 -0.40916116338E+02  0.47787291241E+02  0.20000092086E+02 0.  0.
        -12    1    1    2    0    0 -0.10786730924E+02  0.96508745978E+01  0.40916116338E+02  0.43400708759E+02  0.00000000000E+00 0.  1.
         11    1    3    3    0    0 -0.41000500937E+01 -0.19689154173E+01 -0.53352322088E+01  0.70108303128E+01  0.51100000000E-03 0. -1.
        -11    1    3    3    0    0  0.37097817954E+01 -0.65071862673E+01 -0.78279244011E+01  0.10834313766E+02  0.51100000000E-03 0.  1.
         12    1    3    3    0    0  0.11176999223E+02 -0.11747729131E+01 -0.27752959728E+02  0.29942147163E+02  0.00000000000E+00 0. -1.
</event>
<event>
 7    1  0.3910751E-009  0.4778727E+02  0.7816164E-02  0.1312668E+00
        -11   -1    0    0    0    0  0.00000000000E+00  0.00000000000E+00  0.45593999997E+02  0.45594000000E+02  0.51100000000E-03 0.  1.
         11   -1    0    0    0    0 -0.00000000000E+00 -0.00000000000E+00 -0.45593999997E+02  0.45594000000E+02  0.51100000000E-03 0. -1.
    9900012    2    1    2    0    0 -0.18450413134E+02  0.36437552943E+02 -0.14680263200E+02  0.47787272623E+02  0.20000007195E+02 0.  0.
        -12    1    1    2    0    0  0.18450413134E+02 -0.36437552943E+02  0.14680263200E+02  0.43400727377E+02  0.00000000000E+00 0.  1.
         11    1    3    3    0    0 -0.95471019525E+01  0.16227991957E+02 -0.13644816866E+02  0.23252438715E+02  0.51100000000E-03 0. -1.
        -11    1    3    3    0    0  0.77708031620E+00  0.79830389133E+01 -0.34915927444E+01  0.87477988239E+01  0.51100000000E-03 0.  1.
        -12    1    3    3    0    0 -0.96803914974E+01  0.12226522072E+02  0.24561464103E+01  0.15787035083E+02  0.00000000000E+00 0.  1.
</event>
<event>
 7    1  0.3910751E-009  0.4778728E+02  0.7816164E-02  0.1312668E+00
        -11   -1    0    0    0    0  0.00000000000E+00  0.00000000000E+00  0.45593999997E+02  0.45594000000E+02  0.51100000000E-03 0.  1.
         11   -1    0    0    0    0 -0.00000000000E+00 -0.00000000000E+00 -0.45593999997E+02  0.45594000000E+02  0.51100000000E-03 0. -1.
    9900012    2    1    2    0    0  0.31900827452E+02  0.29255677119E+02  0.31725908080E+01  0.47787276870E+02  0.20000026559E+02 0.  0.
        -12    1    1    2    0    0 -0.31900827452E+02 -0.29255677119E+02 -0.31725908080E+01  0.43400723130E+02  0.00000000000E+00 0.  1.
         11    1    3    3    0    0  0.11570149403E+01  0.15837808333E+01 -0.31425263345E+01  0.37043916267E+01  0.51100000000E-03 0. -1.
        -11    1    3    3    0    0  0.22059767814E+01 -0.13250181627E+01 -0.97226780755E+00  0.27508747050E+01  0.51100000000E-03 0.  1.
         12    1    3    3    0    0  0.28537835730E+02  0.28996914448E+02  0.72873849500E+01  0.41332010538E+02  0.00000000000E+00 0. -1.
</event>
<event>
 7    1  0.3910751E-009  0.4778727E+02  0.7816164E-02  0.1312668E+00
        -11   -1    0    0    0    0  0.00000000000E+00  0.00000000000E+00  0.45593999997E+02  0.45594000000E+02  0.51100000000E-03 0.  1.
         11   -1    0    0    0    0 -0.00000000000E+00 -0.00000000000E+00 -0.45593999997E+02  0.45594000000E+02  0.51100000000E-03 0. -1.
    9900012    2    1    2    0    0 -0.33645466549E+02  0.22045329211E+02 -0.16297518195E+02  0.47787273524E+02  0.20000011306E+02 0.  0.
        -12    1    1    2    0    0  0.33645466549E+02 -0.22045329211E+02  0.16297518195E+02  0.43400726476E+02  0.00000000000E+00 0.  1.
         11    1    3    3    0    0 -0.18324161045E+02  0.19955170839E+02 -0.12098012059E+02  0.29670618754E+02  0.51100000000E-03 0. -1.
        -11    1    3    3    0    0  0.83062437222E+00  0.58364608596E+00  0.62532199536E+00  0.11923118134E+01  0.51100000000E-03 0.  1.
        -12    1    3    3    0    0 -0.16151929877E+02  0.15065122853E+01 -0.48248281311E+01  0.16924342956E+02  0.00000000000E+00 0.  1.
</event>
<event>
 7    1  0.3910751E-009  0.4778727E+02  0.7816164E-02  0.1312668E+00
        -11   -1    0    0    0    0  0.00000000000E+00  0.00000000000E+00  0.45593999997E+02  0.45594000000E+02  0.51100000000E-03 0.  1.
         11   -1    0    0    0    0 -0.00000000000E+00 -0.00000000000E+00 -0.45593999997E+02  0.45594000000E+02  0.51100000000E-03 0. -1.
    9900012    2    1    2    0    0  0.29630127465E+02  0.69764266568E+01 -0.30935548719E+02  0.47787272390E+02  0.20000006137E+02 0.  0.
        -12    1    1    2    0    0 -0.29630127465E+02 -0.69764266568E+01  0.30935548719E+02  0.43400727610E+02  0.00000000000E+00 0.  1.
         11    1    3    3    0    0  0.74746326820E+01  0.54179618537E+01 -0.14680255024E+02  0.17341693464E+02  0.51100000000E-03 0. -1.
        -11    1    3    3    0    0 -0.46574121213E+00  0.18940926767E+01  0.80522803172E+00  0.21101882354E+01  0.51100000000E-03 0.  1.
        -12    1    3    3    0    0  0.22621235995E+02 -0.33562787355E+00 -0.17060521727E+02  0.28335390691E+02  0.00000000000E+00 0.  1.
</event>
<event>
 7    1  0.3910751E-009  0.4778727E+02  0.7816164E-02  0.1312668E+00
        -11   -1    0    0    0    0  0.00000000000E+00  0.00000000000E+00  0.45593999997E+02  0.45594000000E+02  0.51100000000E-03 0.  1.
         11   -1    0    0    0    0 -0.00000000000E+00 -0.00000000000E+00 -0.45593999997E+02  0.45594000000E+02  0.51100000000E-03 0. -1.
    9900012    2    1    2    0    0 -0.13180366850E+01  0.81508240482E+01 -0.42608099921E+02  0.47787270372E+02  0.19999996933E+02 0.  0.
        -12    1    1    2    0    0  0.13180366850E+01 -0.81508240482E+01  0.42608099921E+02  0.43400729628E+02  0.00000000000E+00 0.  1.
         11    1    3    3    0    0 -0.19639938355E+01 -0.37894343860E+01 -0.38774843283E+01  0.57664520919E+01  0.51100000000E-03 0. -1.
        -11    1    3    3    0    0 -0.49578038093E+01  0.38993158934E+01 -0.18400145381E+02  0.19451216757E+02  0.51100000000E-03 0.  1.
         12    1    3    3    0    0  0.56037609598E+01  0.80409425407E+01 -0.20330470212E+02  0.22569601523E+02  0.00000000000E+00 0. -1.
</event>
<event>
 7    1  0.3910751E-009  0.4778728E+02  0.7816164E-02  0.1312668E+00
        -11   -1    0    0    0    0  0.00000000000E+00  0.00000000000E+00  0.45593999997E+02  0.45594000000E+02  0.51100000000E-03 0. -1.
         11   -1    0    0    0    0 -0.00000000000E+00 -0.00000000000E+00 -0.45593999997E+02  0.45594000000E+02  0.51100000000E-03 0.  1.
    9900012    2    1    2    0    0  0.16533036904E+01  0.22185052402E+02  0.37265437059E+02  0.47787276937E+02  0.20000026868E+02 0.  0.
        -12    1    1    2    0    0 -0.16533036904E+01 -0.22185052402E+02 -0.37265437059E+02  0.43400723063E+02  0.00000000000E+00 0.  1.
         11    1    3    3    0    0 -0.23939373175E+01  0.13060876017E+01  0.81758150027E+00  0.28469704027E+01  0.51100000000E-03 0. -1.
        -11    1    3    3    0    0 -0.36296706515E+01  0.15240533271E+01  0.14081818448E+01  0.41809357746E+01  0.51100000000E-03 0.  1.
         12    1    3    3    0    0  0.76769116593E+01  0.19354911473E+02  0.35039673714E+02  0.40759370760E+02  0.00000000000E+00 0. -1.
</event>
<event>
 7    1  0.3910751E-009  0.4778727E+02  0.7816164E-02  0.1312668E+00
        -11   -1    0    0    0    0  0.00000000000E+00  0.00000000000E+00  0.45593999997E+02  0.45594000000E+02  0.51100000000E-03 0. -1.
         11   -1    0    0    0    0 -0.00000000000E+00 -0.00000000000E+00 -0.45593999997E+02  0.45594000000E+02  0.51100000000E-03 0.  1.
    9900012    2    1    2    0    0 -0.12505752042E+02  0.37522644364E+02  0.17868435745E+02  0.47787266478E+02  0.19999979182E+02 0.  0.
        -12    1    1    2    0    0  0.12505752042E+02 -0.37522644364E+02 -0.17868435745E+02  0.43400733522E+02  0.00000000000E+00 0.  1.
         11    1    3    3    0    0 -0.41204266511E+01  0.19043853018E+02  0.99823150034E+01  0.21892758315E+02  0.51100000000E-03 0. -1.
        -11    1    3    3    0    0 -0.75156707792E+01  0.16253553037E+02  0.26644478803E+00  0.17909055996E+02  0.51100000000E-03 0.  1.
         12    1    3    3    0    0 -0.86965461195E+00  0.22252383093E+01  0.76196759534E+01  0.79854521670E+01  0.00000000000E+00 0. -1.
</event>
<event>
 7    1  0.3910751E-009  0.4778727E+02  0.7816164E-02  0.1312668E+00
        -11   -1    0    0    0    0  0.00000000000E+00  0.00000000000E+00  0.45593999997E+02  0.45594000000E+02  0.51100000000E-03 0.  1.
         11   -1    0    0    0    0 -0.00000000000E+00 -0.00000000000E+00 -0.45593999997E+02  0.45594000000E+02  0.51100000000E-03 0. -1.
    9900012    2    1    2    0    0 -0.31883267450E+02  0.85696960171E+01 -0.28171634473E+02  0.47787269338E+02  0.19999992218E+02 0.  0.
        -12    1    1    2    0    0  0.31883267450E+02 -0.85696960171E+01  0.28171634473E+02  0.43400730662E+02  0.00000000000E+00 0.  1.
         11    1    3    3    0    0 -0.36144962128E+01  0.86152736758E+00 -0.11783661713E+01  0.38981225446E+01  0.51100000000E-03 0.  1.
        -11    1    3    3    0    0 -0.23612006217E+02  0.11413553830E+02 -0.14302539286E+02  0.29872373172E+02  0.51100000000E-03 0. -1.
         12    1    3    3    0    0 -0.46567650205E+01 -0.37053851805E+01 -0.12690729016E+02  0.14016773621E+02  0.00000000000E+00 0. -1.
</event>
<event>
 7    1  0.3910751E-009  0.4778728E+02  0.7816164E-02  0.1312668E+00
        -11   -1    0    0    0    0  0.00000000000E+00  0.00000000000E+00  0.45593999997E+02  0.45594000000E+02  0.51100000000E-03 0. -1.
         11   -1    0    0    0    0 -0.00000000000E+00 -0.00000000000E+00 -0.45593999997E+02  0.45594000000E+02  0.51100000000E-03 0.  1.
    9900012    2    1    2    0    0  0.15451024869E+02  0.24076287146E+02  0.32637720147E+02  0.47787279399E+02  0.20000038094E+02 0.  0.
        -12    1    1    2    0    0 -0.15451024869E+02 -0.24076287146E+02 -0.32637720147E+02  0.43400720601E+02  0.00000000000E+00 0.  1.
         11    1    3    3    0    0  0.12473643938E+02  0.12561312805E+02  0.12493794548E+02  0.21667331975E+02  0.51100000000E-03 0. -1.
        -11    1    3    3    0    0 -0.39463111830E+00  0.94266183836E+01  0.54408111332E+01  0.10891248501E+02  0.51100000000E-03 0.  1.
        -12    1    3    3    0    0  0.33720120491E+01  0.20883559574E+01  0.14703114466E+02  0.15228698923E+02  0.00000000000E+00 0.  1.
</event>
<event>
 7    1  0.3910751E-009  0.4778727E+02  0.7816164E-02  0.1312668E+00
        -11   -1    0    0    0    0  0.00000000000E+00  0.00000000000E+00  0.45593999997E+02  0.45594000000E+02  0.51100000000E-03 0.  1.
         11   -1    0    0    0    0 -0.00000000000E+00 -0.00000000000E+00 -0.45593999997E+02  0.45594000000E+02  0.51100000000E-03 0. -1.
    9900012    2    1    2    0    0  0.33245936031E+02 -0.72626882471E+01 -0.26936676715E+02  0.47787268951E+02  0.19999990453E+02 0.  0.
        -12    1    1    2    0    0 -0.33245936031E+02  0.72626882471E+01  0.26936676715E+02  0.43400731049E+02  0.00000000000E+00 0.  1.
         11    1    3    3    0    0  0.17656400532E+02 -0.47402868152E+01 -0.18399683877E+02  0.25937755606E+02  0.51100000000E-03 0. -1.
        -11    1    3    3    0    0  0.85414369156E+01 -0.75859665604E+01 -0.45016596987E+01  0.12278761075E+02  0.51100000000E-03 0.  1.
         12    1    3    3    0    0  0.70480985835E+01  0.50635651285E+01 -0.40353331392E+01  0.95707522692E+01  0.00000000000E+00 0. -1.
</event>
<event>
 7    1  0.3910751E-009  0.4778727E+02  0.7816164E-02  0.1312668E+00
        -11   -1    0    0    0    0  0.00000000000E+00  0.00000000000E+00  0.45593999997E+02  0.45594000000E+02  0.51100000000E-03 0.  1.
         11   -1    0    0    0    0 -0.00000000000E+00 -0.00000000000E+00 -0.45593999997E+02  0.45594000000E+02  0.51100000000E-03 0. -1.
    9900012    2    1    2    0    0 -0.77296007729E+01 -0.28803227241E+02 -0.31531743029E+02  0.47787269060E+02  0.19999990954E+02 0.  0.
        -12    1    1    2    0    0  0.77296007729E+01  0.28803227241E+02  0.31531743029E+02  0.43400730940E+02  0.00000000000E+00 0.  1.
         11    1    3    3    0    0 -0.38361657351E+01 -0.69930023770E+01 -0.18492461451E+02  0.20139249752E+02  0.51100000000E-03 0. -1.
        -11    1    3    3    0    0  0.69629291133E+00  0.58687299044E+00  0.53814664303E+00  0.10577550736E+01  0.51100000000E-03 0.  1.
        -12    1    3    3    0    0 -0.45897279492E+01 -0.22397097855E+02 -0.13577428221E+02  0.26590264235E+02  0.00000000000E+00 0.  1.
</event>
